<event>
 8    1  0.1269154E-006  0.9118800E+02  0.7816164E-02  0.1184000E+00
        -11   -1    0    0    0    0  0.00000000000E+00  0.00000000000E+00  0.45593999997E+02  0.45594000000E+02  0.51100000000E-03 0. -1.
         11   -1    0    0    0    0 -0.00000000000E+00 -0.00000000000E+00 -0.45593999997E+02  0.45594000000E+02  0.51100000000E-03 0.  1.
         23    2    1    2    0    0  0.17763568394E-14  0.00000000000E+00  0.00000000000E+00  0.91188000000E+02  0.91188000000E+02 0.  0.
    9900012    2    3    3    0    0  0.99884445752E+01  0.44950377032E+01  0.35154057477E+02  0.54367052890E+02  0.39999928674E+02 0.  0.
        -12    1    3    3    0    0 -0.99884445752E+01 -0.44950377032E+01 -0.35154057477E+02  0.36820947110E+02  0.00000000000E+00 0.  1.
         11    1    4    4    0    0 -0.33316720271E+01 -0.58470371957E+01  0.32742740029E+02  0.33427158230E+02  0.51100000000E-03 0. -1.
        -11    1    4    4    0    0 -0.74415389789E+00  0.44469687085E+01 -0.21879680503E+01  0.50116364760E+01  0.51100000000E-03 0.  1.
         12    1    4    4    0    0  0.14064270500E+02  0.58951061904E+01  0.45992854977E+01  0.15928258184E+02  0.00000000000E+00 0. -1.
</event>
<event>
 8    1  0.1269154E-006  0.9118800E+02  0.7816164E-02  0.1184000E+00
        -11   -1    0    0    0    0  0.00000000000E+00  0.00000000000E+00  0.45593999997E+02  0.45594000000E+02  0.51100000000E-03 0. -1.
         11   -1    0    0    0    0 -0.00000000000E+00 -0.00000000000E+00 -0.45593999997E+02  0.45594000000E+02  0.51100000000E-03 0.  1.
         23    2    1    2    0    0  0.00000000000E+00 -0.35527136788E-14  0.35527136788E-14  0.91188000000E+02  0.91188000000E+02 0.  0.
    9900012    2    3    3    0    0  0.69279928627E+01  0.31003317802E+02 -0.18616532382E+02  0.54367108134E+02  0.40000054613E+02 0.  0.
         12    1    3    3    0    0 -0.69279928627E+01 -0.31003317802E+02  0.18616532382E+02  0.36820891866E+02  0.00000000000E+00 0. -1.
         11    1    4    4    0    0  0.92473007202E+01  0.77411039713E+01  0.89909008369E+01  0.15042392078E+02  0.51100000000E-03 0. -1.
        -11    1    4    4    0    0 -0.61996830195E+01  0.18216551398E+02 -0.12540195114E+02  0.22968136802E+02  0.51100000000E-03 0.  1.
         12    1    4    4    0    0  0.38803751619E+01  0.50456624329E+01 -0.15067238105E+02  0.16356579255E+02  0.00000000000E+00 0. -1.
</event>
<event>
 8    1  0.1269154E-006  0.9118800E+02  0.7816164E-02  0.1184000E+00
        -11   -1    0    0    0    0  0.00000000000E+00  0.00000000000E+00  0.45593999997E+02  0.45594000000E+02  0.51100000000E-03 0. -1.
         11   -1    0    0    0    0 -0.00000000000E+00 -0.00000000000E+00 -0.45593999997E+02  0.45594000000E+02  0.51100000000E-03 0.  1.
         23    2    1    2    0    0  0.71054273576E-14  0.88817841970E-15  0.00000000000E+00  0.91188000000E+02  0.91188000000E+02 0.  0.
    9900012    2    3    3    0    0  0.36428993467E+02  0.27851720176E+01  0.45772971815E+01  0.54367076632E+02  0.39999982797E+02 0.  0.
         12    1    3    3    0    0 -0.36428993467E+02 -0.27851720176E+01 -0.45772971815E+01  0.36820923368E+02  0.00000000000E+00 0. -1.
         11    1    4    4    0    0  0.50388824087E+01  0.10320378354E+02 -0.73172066059E+01  0.13617711191E+02  0.51100000000E-03 0. -1.
        -11    1    4    4    0    0  0.11797126552E+02  0.70339445953E+01  0.83590842240E+01  0.16078646111E+02  0.51100000000E-03 0.  1.
         12    1    4    4    0    0  0.19592984507E+02 -0.14569150931E+02  0.35354195634E+01  0.24670719330E+02  0.00000000000E+00 0. -1.
</event>
<event>
 8    1  0.1269154E-006  0.9118800E+02  0.7816164E-02  0.1184000E+00
        -11   -1    0    0    0    0  0.00000000000E+00  0.00000000000E+00  0.45593999997E+02  0.45594000000E+02  0.51100000000E-03 0.  1.
         11   -1    0    0    0    0 -0.00000000000E+00 -0.00000000000E+00 -0.45593999997E+02  0.45594000000E+02  0.51100000000E-03 0. -1.
         23    2    1    2    0    0  0.00000000000E+00  0.00000000000E+00  0.00000000000E+00  0.91188000000E+02  0.91188000000E+02 0.  0.
    9900012    2    3    3    0    0 -0.32003811521E+02  0.14617000799E+02 -0.10857242688E+02  0.54367076831E+02  0.39999983252E+02 0.  0.
        -12    1    3    3    0    0  0.32003811521E+02 -0.14617000799E+02  0.10857242688E+02  0.36820923169E+02  0.00000000000E+00 0.  1.
         11    1    4    4    0    0 -0.17374769999E+02  0.36702834228E+01 -0.96354377926E+00  0.17784319773E+02  0.51100000000E-03 0. -1.
        -11    1    4    4    0    0  0.13220226319E+01  0.17295172877E+02 -0.13275630743E+01  0.17396355154E+02  0.51100000000E-03 0.  1.
        -12    1    4    4    0    0 -0.15951064154E+02 -0.63484555008E+01 -0.85661358340E+01  0.19186401904E+02  0.00000000000E+00 0.  1.
</event>
<event>
 8    1  0.1269154E-006  0.9118800E+02  0.7816164E-02  0.1184000E+00
        -11   -1    0    0    0    0  0.00000000000E+00  0.00000000000E+00  0.45593999997E+02  0.45594000000E+02  0.51100000000E-03 0.  1.
         11   -1    0    0    0    0 -0.00000000000E+00 -0.00000000000E+00 -0.45593999997E+02  0.45594000000E+02  0.51100000000E-03 0. -1.
         23    2    1    2    0    0  0.17763568394E-14  0.00000000000E+00  0.00000000000E+00  0.91188000000E+02  0.91188000000E+02 0.  0.
    9900012    2    3    3    0    0  0.12304885328E+02  0.21552653139E+02  0.27200240883E+02  0.54367079801E+02  0.39999990021E+02 0.  0.
         12    1    3    3    0    0 -0.12304885328E+02 -0.21552653139E+02 -0.27200240883E+02  0.36820920199E+02  0.00000000000E+00 0. -1.
         11    1    4    4    0    0  0.72666333442E+01 -0.24725505064E+01  0.18038602914E+01  0.78848829020E+01  0.51100000000E-03 0. -1.
        -11    1    4    4    0    0  0.32722176017E+01  0.83648265970E+01  0.28963173522E+02  0.30323969937E+02  0.51100000000E-03 0.  1.
         12    1    4    4    0    0  0.17660343819E+01  0.15660377048E+02 -0.35667929306E+01  0.16158226961E+02  0.00000000000E+00 0. -1.
</event>
<event>
 8    1  0.1269154E-006  0.9118800E+02  0.7816164E-02  0.1184000E+00
        -11   -1    0    0    0    0  0.00000000000E+00  0.00000000000E+00  0.45593999997E+02  0.45594000000E+02  0.51100000000E-03 0. -1.
         11   -1    0    0    0    0 -0.00000000000E+00 -0.00000000000E+00 -0.45593999997E+02  0.45594000000E+02  0.51100000000E-03 0.  1.
         23    2    1    2    0    0 -0.35527136788E-14  0.00000000000E+00  0.00000000000E+00  0.91188000000E+02  0.91188000000E+02 0.  0.
    9900012    2    3    3    0    0 -0.28520643665E+02 -0.97559424776E+00  0.23268029902E+02  0.54367080474E+02  0.39999991557E+02 0.  0.
         12    1    3    3    0    0  0.28520643665E+02  0.97559424776E+00 -0.23268029902E+02  0.36820919526E+02  0.00000000000E+00 0. -1.
         11    1    4    4    0    0 -0.25887511407E-01 -0.15920862069E+00  0.19459115418E+02  0.19459783932E+02  0.51100000000E-03 0. -1.
        -11    1    4    4    0    0 -0.26987187018E+01 -0.73445585033E+01  0.26912865669E+01  0.82745782905E+01  0.51100000000E-03 0.  1.
        -12    1    4    4    0    0 -0.25796037452E+02  0.65281728762E+01  0.11176279167E+01  0.26632718252E+02  0.00000000000E+00 0.  1.
</event>
<event>
 8    1  0.1269154E-006  0.9118800E+02  0.7816164E-02  0.1184000E+00
        -11   -1    0    0    0    0  0.00000000000E+00  0.00000000000E+00  0.45593999997E+02  0.45594000000E+02  0.51100000000E-03 0.  1.
         11   -1    0    0    0    0 -0.00000000000E+00 -0.00000000000E+00 -0.45593999997E+02  0.45594000000E+02  0.51100000000E-03 0. -1.
         23    2    1    2    0    0  0.44408920985E-15  0.17763568394E-14 -0.71054273576E-14  0.91188000000E+02  0.91188000000E+02 0.  0.
    9900012    2    3    3    0    0  0.38310573895E+01 -0.58448284872E+01  0.36151644041E+02  0.54367076769E+02  0.39999983109E+02 0.  0.
         12    1    3    3    0    0 -0.38310573895E+01  0.58448284872E+01 -0.36151644041E+02  0.36820923231E+02  0.00000000000E+00 0. -1.
         11    1    4    4    0    0 -0.81542977490E+01  0.37821583701E+01 -0.15057855127E+01  0.91139828828E+01  0.51100000000E-03 0. -1.
        -11    1    4    4    0    0  0.13369336724E+02 -0.32524048824E+00  0.30909308228E+02  0.33678335488E+02  0.51100000000E-03 0.  1.
         12    1    4    4    0    0 -0.13839815859E+01 -0.93017463691E+01  0.67481213251E+01  0.11574758398E+02  0.00000000000E+00 0. -1.
</event>
<event>
 8    1  0.1269154E-006  0.9118800E+02  0.7816164E-02  0.1184000E+00
        -11   -1    0    0    0    0  0.00000000000E+00  0.00000000000E+00  0.45593999997E+02  0.45594000000E+02  0.51100000000E-03 0.  1.
         11   -1    0    0    0    0 -0.00000000000E+00 -0.00000000000E+00 -0.45593999997E+02  0.45594000000E+02  0.51100000000E-03 0. -1.
         23    2    1    2    0    0  0.13322676296E-14  0.00000000000E+00  0.00000000000E+00  0.91188000000E+02  0.91188000000E+02 0.  0.
    9900012    2    3    3    0    0 -0.24963302999E+01 -0.24042928257E+02  0.27775639848E+02  0.54367078867E+02  0.39999987893E+02 0.  0.
         12    1    3    3    0    0  0.24963302999E+01  0.24042928257E+02 -0.27775639848E+02  0.36820921133E+02  0.00000000000E+00 0. -1.
         11    1    4    4    0    0 -0.18783400786E+02 -0.15901680889E+02  0.22713263602E+02  0.33489878230E+02  0.51100000000E-03 0. -1.
        -11    1    4    4    0    0  0.29659453413E+01 -0.26718437398E+01  0.51004762080E+01  0.64769158206E+01  0.51100000000E-03 0.  1.
         12    1    4    4    0    0  0.13321125145E+02 -0.54694036289E+01 -0.38099962168E-01  0.14400284816E+02  0.00000000000E+00 0. -1.
</event>
<event>
 8    1  0.1269154E-006  0.9118800E+02  0.7816164E-02  0.1184000E+00
        -11   -1    0    0    0    0  0.00000000000E+00  0.00000000000E+00  0.45593999997E+02  0.45594000000E+02  0.51100000000E-03 0. -1.
         11   -1    0    0    0    0 -0.00000000000E+00 -0.00000000000E+00 -0.45593999997E+02  0.45594000000E+02  0.51100000000E-03 0.  1.
         23    2    1    2    0    0 -0.71054273576E-14  0.00000000000E+00  0.00000000000E+00  0.91188000000E+02  0.91188000000E+02 0.  0.
    9900012    2    3    3    0    0  0.35311319301E+02 -0.75411902731E+01 -0.72125009769E+01  0.54367095722E+02  0.40000026317E+02 0.  0.
         12    1    3    3    0    0 -0.35311319301E+02  0.75411902731E+01  0.72125009769E+01  0.36820904278E+02  0.00000000000E+00 0. -1.
         11    1    4    4    0    0  0.23277286822E+02  0.39641188803E+01  0.79270692553E+01  0.24907523914E+02  0.51100000000E-03 0. -1.
        -11    1    4    4    0    0  0.58343330208E+01  0.73789126879E+00  0.30889188569E+01  0.66426911179E+01  0.51100000000E-03 0.  1.
        -12    1    4    4    0    0  0.61996994588E+01 -0.12243200422E+02 -0.18228489089E+02  0.22816880690E+02  0.00000000000E+00 0.  1.
</event>
<event>
 8    1  0.1269154E-006  0.9118800E+02  0.7816164E-02  0.1184000E+00
        -11   -1    0    0    0    0  0.00000000000E+00  0.00000000000E+00  0.45593999997E+02  0.45594000000E+02  0.51100000000E-03 0. -1.
         11   -1    0    0    0    0 -0.00000000000E+00 -0.00000000000E+00 -0.45593999997E+02  0.45594000000E+02  0.51100000000E-03 0.  1.
         23    2    1    2    0    0  0.00000000000E+00  0.00000000000E+00  0.00000000000E+00  0.91188000000E+02  0.91188000000E+02 0.  0.
    9900012    2    3    3    0    0  0.15318356065E+02  0.13456858165E+02  0.30660084319E+02  0.54367084277E+02  0.40000000227E+02 0.  0.
        -12    1    3    3    0    0 -0.15318356065E+02 -0.13456858165E+02 -0.30660084319E+02  0.36820915723E+02  0.00000000000E+00 0.  1.
         11    1    4    4    0    0  0.96607969373E+01  0.24457590872E+02  0.16529975618E+02  0.31060341964E+02  0.51100000000E-03 0. -1.
        -11    1    4    4    0    0  0.77227389312E+01 -0.13296762406E+02  0.12489126473E+02  0.19809666009E+02  0.51100000000E-03 0.  1.
        -12    1    4    4    0    0 -0.20651798039E+01  0.22960296993E+01  0.16409822286E+01  0.34970763042E+01  0.00000000000E+00 0.  1.
</event>
<event>
 8    1  0.1269154E-006  0.9118800E+02  0.7816164E-02  0.1184000E+00
        -11   -1    0    0    0    0  0.00000000000E+00  0.00000000000E+00  0.45593999997E+02  0.45594000000E+02  0.51100000000E-03 0.  1.
         11   -1    0    0    0    0 -0.00000000000E+00 -0.00000000000E+00 -0.45593999997E+02  0.45594000000E+02  0.51100000000E-03 0. -1.
         23    2    1    2    0    0  0.35527136788E-14  0.88817841970E-15  0.35527136788E-14  0.91188000000E+02  0.91188000000E+02 0.  0.
    9900012    2    3    3    0    0  0.21938299366E+02  0.61305844002E+01  0.28929371466E+02  0.54367060610E+02  0.39999946273E+02 0.  0.
         12    1    3    3    0    0 -0.21938299366E+02 -0.61305844002E+01 -0.28929371466E+02  0.36820939390E+02  0.00000000000E+00 0. -1.
         11    1    4    4    0    0  0.10886595884E+01 -0.11898909497E+02  0.18276016780E+02  0.21835338709E+02  0.51100000000E-03 0. -1.
        -11    1    4    4    0    0  0.83064279001E+01  0.15220136471E+02  0.30742206452E+01  0.17609660176E+02  0.51100000000E-03 0.  1.
        -12    1    4    4    0    0  0.12543211877E+02  0.28093574255E+01  0.75791340405E+01  0.14922061725E+02  0.00000000000E+00 0.  1.
</event>
<event>
 8    1  0.1269154E-006  0.9118800E+02  0.7816164E-02  0.1184000E+00
        -11   -1    0    0    0    0  0.00000000000E+00  0.00000000000E+00  0.45593999997E+02  0.45594000000E+02  0.51100000000E-03 0.  1.
         11   -1    0    0    0    0 -0.00000000000E+00 -0.00000000000E+00 -0.45593999997E+02  0.45594000000E+02  0.51100000000E-03 0. -1.
         23    2    1    2    0    0 -0.17763568394E-14  0.00000000000E+00  0.71054273576E-14  0.91188000000E+02  0.91188000000E+02 0.  0.
    9900012    2    3    3    0    0 -0.12385756853E+02  0.74219957395E+01  0.33871637881E+02  0.54367070539E+02  0.39999968909E+02 0.  0.
         12    1    3    3    0    0  0.12385756853E+02 -0.74219957395E+01 -0.33871637881E+02  0.36820929461E+02  0.00000000000E+00 0. -1.
         11    1    4    4    0    0 -0.71627836387E+01 -0.99520394305E+01  0.59703334823E+01  0.13637941209E+02  0.51100000000E-03 0. -1.
        -11    1    4    4    0    0  0.76007910533E+01  0.22768979679E+01  0.21124982605E+01  0.82109036138E+01  0.51100000000E-03 0.  1.
         12    1    4    4    0    0 -0.12823764268E+02  0.15097137202E+02  0.25788806138E+02  0.32518225716E+02  0.00000000000E+00 0. -1.
</event>
<event>
 8    1  0.1269154E-006  0.9118800E+02  0.7816164E-02  0.1184000E+00
        -11   -1    0    0    0    0  0.00000000000E+00  0.00000000000E+00  0.45593999997E+02  0.45594000000E+02  0.51100000000E-03 0. -1.
         11   -1    0    0    0    0 -0.00000000000E+00 -0.00000000000E+00 -0.45593999997E+02  0.45594000000E+02  0.51100000000E-03 0.  1.
         23    2    1    2    0    0  0.88817841970E-15  0.00000000000E+00  0.00000000000E+00  0.91188000000E+02  0.91188000000E+02 0.  0.
    9900012    2    3    3    0    0 -0.20157450043E+01  0.38322538672E+01 -0.36565425752E+02  0.54367085318E+02  0.40000002598E+02 0.  0.
         12    1    3    3    0    0  0.20157450043E+01 -0.38322538672E+01  0.36565425752E+02  0.36820914682E+02  0.00000000000E+00 0. -1.
         11    1    4    4    0    0 -0.36184003177E+01  0.13764948153E+00  0.49690168246E+01  0.61484060294E+01  0.51100000000E-03 0. -1.
        -11    1    4    4    0    0  0.10413683192E+02 -0.40220126364E+01 -0.11718138657E+02  0.16184441823E+02  0.51100000000E-03 0.  1.
        -12    1    4    4    0    0 -0.88110278788E+01  0.77166170221E+01 -0.29816303919E+02  0.32034237465E+02  0.00000000000E+00 0.  1.
</event>
<event>
 8    1  0.1269154E-006  0.9118800E+02  0.7816164E-02  0.1184000E+00
        -11   -1    0    0    0    0  0.00000000000E+00  0.00000000000E+00  0.45593999997E+02  0.45594000000E+02  0.51100000000E-03 0.  1.
         11   -1    0    0    0    0 -0.00000000000E+00 -0.00000000000E+00 -0.45593999997E+02  0.45594000000E+02  0.51100000000E-03 0. -1.
         23    2    1    2    0    0  0.00000000000E+00 -0.35527136788E-14 -0.17763568394E-14  0.91188000000E+02  0.91188000000E+02 0.  0.
    9900012    2    3    3    0    0 -0.29673154355E+02 -0.18566277189E+02 -0.11427119534E+02  0.54367057605E+02  0.39999939422E+02 0.  0.
        -12    1    3    3    0    0  0.29673154355E+02  0.18566277189E+02  0.11427119534E+02  0.36820942395E+02  0.00000000000E+00 0.  1.
         11    1    4    4    0    0 -0.20768622184E+02 -0.50280944677E+01 -0.22834453438E+02  0.31273465837E+02  0.51100000000E-03 0. -1.
        -11    1    4    4    0    0 -0.96095598137E+01 -0.40237620987E+01  0.72160475581E+01  0.12673028204E+02  0.51100000000E-03 0.  1.
         12    1    4    4    0    0  0.70502764301E+00 -0.95144206225E+01  0.41912863456E+01  0.10420563564E+02  0.00000000000E+00 0. -1.
</event>
<event>
 8    1  0.1269154E-006  0.9118800E+02  0.7816164E-02  0.1184000E+00
        -11   -1    0    0    0    0  0.00000000000E+00  0.00000000000E+00  0.45593999997E+02  0.45594000000E+02  0.51100000000E-03 0. -1.
         11   -1    0    0    0    0 -0.00000000000E+00 -0.00000000000E+00 -0.45593999997E+02  0.45594000000E+02  0.51100000000E-03 0.  1.
         23    2    1    2    0    0  0.00000000000E+00  0.44408920985E-15 -0.35527136788E-14  0.91188000000E+02  0.91188000000E+02 0.  0.
    9900012    2    3    3    0    0 -0.33022146497E+02  0.28056485213E+01  0.16045051723E+02  0.54367115876E+02  0.40000072262E+02 0.  0.
        -12    1    3    3    0    0  0.33022146497E+02 -0.28056485213E+01 -0.16045051723E+02  0.36820884124E+02  0.00000000000E+00 0.  1.
         11    1    4    4    0    0  0.42270434201E+01  0.20306317527E+01  0.77952206991E+01  0.90970779594E+01  0.51100000000E-03 0. -1.
        -11    1    4    4    0    0 -0.14782298297E+02  0.28618647124E+01 -0.83879563335E+01  0.17235556977E+02  0.51100000000E-03 0.  1.
        -12    1    4    4    0    0 -0.22466891620E+02 -0.20868479438E+01  0.16637787357E+02  0.28034480939E+02  0.00000000000E+00 0.  1.
</event>
<event>
 8    1  0.1269154E-006  0.9118800E+02  0.7816164E-02  0.1184000E+00
        -11   -1    0    0    0    0  0.00000000000E+00  0.00000000000E+00  0.45593999997E+02  0.45594000000E+02  0.51100000000E-03 0.  1.
         11   -1    0    0    0    0 -0.00000000000E+00 -0.00000000000E+00 -0.45593999997E+02  0.45594000000E+02  0.51100000000E-03 0. -1.
         23    2    1    2    0    0  0.71054273576E-14 -0.35527136788E-14  0.00000000000E+00  0.91188000000E+02  0.91188000000E+02 0.  0.
    9900012    2    3    3    0    0  0.29101608571E+02 -0.21977057858E+02  0.50877649382E+01  0.54367081414E+02  0.39999993699E+02 0.  0.
        -12    1    3    3    0    0 -0.29101608571E+02  0.21977057858E+02 -0.50877649382E+01  0.36820918586E+02  0.00000000000E+00 0.  1.
         11    1    4    4    0    0  0.31822231747E+01 -0.12543847459E+02  0.78566602483E+01  0.15139410950E+02  0.51100000000E-03 0. -1.
        -11    1    4    4    0    0  0.31365958259E+02 -0.67205903005E+01  0.95827169779E+00  0.32092179054E+02  0.51100000000E-03 0.  1.
         12    1    4    4    0    0 -0.54465728632E+01 -0.27126200981E+01 -0.37271670079E+01  0.71354914096E+01  0.00000000000E+00 0. -1.
</event>
<event>
 8    1  0.1269154E-006  0.9118800E+02  0.7816164E-02  0.1184000E+00
        -11   -1    0    0    0    0  0.00000000000E+00  0.00000000000E+00  0.45593999997E+02  0.45594000000E+02  0.51100000000E-03 0.  1.
         11   -1    0    0    0    0 -0.00000000000E+00 -0.00000000000E+00 -0.45593999997E+02  0.45594000000E+02  0.51100000000E-03 0. -1.
         23    2    1    2    0    0  0.00000000000E+00  0.00000000000E+00  0.00000000000E+00  0.91188000000E+02  0.91188000000E+02 0.  0.
    9900012    2    3    3    0    0  0.23336465079E+01  0.11690316524E+02  0.34837763754E+02  0.54367093033E+02  0.40000020188E+02 0.  0.
         12    1    3    3    0    0 -0.23336465079E+01 -0.11690316524E+02 -0.34837763754E+02  0.36820906967E+02  0.00000000000E+00 0. -1.
         11    1    4    4    0    0 -0.61760312705E+01  0.30468189102E+01  0.28329611625E+01  0.74466191614E+01  0.51100000000E-03 0. -1.
        -11    1    4    4    0    0 -0.18366914714E+01  0.82626367655E+01  0.35106495338E+02  0.36112471766E+02  0.51100000000E-03 0.  1.
        -12    1    4    4    0    0  0.10346369250E+02  0.38086084820E+00 -0.31016927457E+01  0.10808002106E+02  0.00000000000E+00 0.  1.
</event>
<event>
 8    1  0.1269154E-006  0.9118800E+02  0.7816164E-02  0.1184000E+00
        -11   -1    0    0    0    0  0.00000000000E+00  0.00000000000E+00  0.45593999997E+02  0.45594000000E+02  0.51100000000E-03 0.  1.
         11   -1    0    0    0    0 -0.00000000000E+00 -0.00000000000E+00 -0.45593999997E+02  0.45594000000E+02  0.51100000000E-03 0. -1.
         23    2    1    2    0    0  0.00000000000E+00  0.00000000000E+00  0.00000000000E+00  0.91188000000E+02  0.91188000000E+02 0.  0.
    9900012    2    3    3    0    0  0.11185785749E+02 -0.19843394017E+02 -0.28929217210E+02  0.54367058984E+02  0.39999942565E+02 0.  0.
        -12    1    3    3    0    0 -0.11185785749E+02  0.19843394017E+02  0.28929217210E+02  0.36820941016E+02  0.00000000000E+00 0.  1.
         11    1    4    4    0    0  0.33096891741E+01  0.67992490382E+01 -0.27710507717E+01  0.80537291085E+01  0.51100000000E-03 0. -1.
        -11    1    4    4    0    0 -0.56016537180E+01 -0.99079540552E+01  0.12903599669E+01  0.11454741684E+02  0.51100000000E-03 0.  1.
         12    1    4    4    0    0  0.13477750293E+02 -0.16734689000E+02 -0.27448526406E+02  0.34858588192E+02  0.00000000000E+00 0. -1.
</event>
<event>
 8    1  0.1269154E-006  0.9118800E+02  0.7816164E-02  0.1184000E+00
        -11   -1    0    0    0    0  0.00000000000E+00  0.00000000000E+00  0.45593999997E+02  0.45594000000E+02  0.51100000000E-03 0. -1.
         11   -1    0    0    0    0 -0.00000000000E+00 -0.00000000000E+00 -0.45593999997E+02  0.45594000000E+02  0.51100000000E-03 0.  1.
         23    2    1    2    0    0 -0.35527136788E-14  0.00000000000E+00  0.00000000000E+00  0.91188000000E+02  0.91188000000E+02 0.  0.
    9900012    2    3    3    0    0 -0.24363892510E+02  0.13046651838E+02  0.24330354356E+02  0.54367074896E+02  0.39999978841E+02 0.  0.
        -12    1    3    3    0    0  0.24363892510E+02 -0.13046651838E+02 -0.24330354356E+02  0.36820925104E+02  0.00000000000E+00 0.  1.
         11    1    4    4    0    0 -0.24963562650E+00  0.15628729604E+02  0.14102560809E+02  0.21052356842E+02  0.51100000000E-03 0. -1.
        -11    1    4    4    0    0 -0.16776785253E+02 -0.91102126921E+00  0.16477261568E+02  0.23532756580E+02  0.51100000000E-03 0.  1.
         12    1    4    4    0    0 -0.73374716298E+01 -0.16710564973E+01 -0.62494680209E+01  0.97819614740E+01  0.00000000000E+00 0. -1.
</event>
<event>
 8    1  0.1269154E-006  0.9118800E+02  0.7816164E-02  0.1184000E+00
        -11   -1    0    0    0    0  0.00000000000E+00  0.00000000000E+00  0.45593999997E+02  0.45594000000E+02  0.51100000000E-03 0. -1.
         11   -1    0    0    0    0 -0.00000000000E+00 -0.00000000000E+00 -0.45593999997E+02  0.45594000000E+02  0.51100000000E-03 0.  1.
         23    2    1    2    0    0  0.35527136788E-14  0.00000000000E+00  0.53290705182E-14  0.91188000000E+02  0.91188000000E+02 0.  0.
    9900012    2    3    3    0    0  0.27971412588E+02  0.20982181409E+02 -0.11538099898E+02  0.54367087354E+02  0.40000007242E+02 0.  0.
         12    1    3    3    0    0 -0.27971412588E+02 -0.20982181409E+02  0.11538099898E+02  0.36820912646E+02  0.00000000000E+00 0. -1.
         11    1    4    4    0    0  0.26233631235E+01  0.64936534419E+01  0.99259531639E+01  0.12148008708E+02  0.51100000000E-03 0. -1.
        -11    1    4    4    0    0 -0.38477121663E+01  0.24921579899E+01 -0.13045567466E+01  0.47662992906E+01  0.51100000000E-03 0.  1.
         12    1    4    4    0    0  0.29195761630E+02  0.11996369977E+02 -0.20159496315E+02  0.37452779356E+02  0.00000000000E+00 0. -1.
</event>
<event>
 8    1  0.1269154E-006  0.9118800E+02  0.7816164E-02  0.1184000E+00
        -11   -1    0    0    0    0  0.00000000000E+00  0.00000000000E+00  0.45593999997E+02  0.45594000000E+02  0.51100000000E-03 0. -1.
         11   -1    0    0    0    0 -0.00000000000E+00 -0.00000000000E+00 -0.45593999997E+02  0.45594000000E+02  0.51100000000E-03 0.  1.
         23    2    1    2    0    0  0.17763568394E-14  0.17763568394E-14  0.35527136788E-14  0.91188000000E+02  0.91188000000E+02 0.  0.
    9900012    2    3    3    0    0  0.15708875007E+02  0.15877026930E+02 -0.29273388435E+02  0.54367081916E+02  0.39999994844E+02 0.  0.
         12    1    3    3    0    0 -0.15708875007E+02 -0.15877026930E+02  0.29273388435E+02  0.36820918084E+02  0.00000000000E+00 0. -1.
         11    1    4    4    0    0 -0.15262629970E+01  0.15334701243E+01 -0.16196564888E+02  0.16340432179E+02  0.51100000000E-03 0. -1.
        -11    1    4    4    0    0 -0.12874206326E+01 -0.69179611642E+01 -0.23153325483E+00  0.70405430518E+01  0.51100000000E-03 0.  1.
         12    1    4    4    0    0  0.18522558636E+02  0.21261517970E+02 -0.12845290292E+02  0.30986106685E+02  0.00000000000E+00 0. -1.
</event>
<event>
 8    1  0.1269154E-006  0.9118800E+02  0.7816164E-02  0.1184000E+00
        -11   -1    0    0    0    0  0.00000000000E+00  0.00000000000E+00  0.45593999997E+02  0.45594000000E+02  0.51100000000E-03 0. -1.
         11   -1    0    0    0    0 -0.00000000000E+00 -0.00000000000E+00 -0.45593999997E+02  0.45594000000E+02  0.51100000000E-03 0.  1.
         23    2    1    2    0    0  0.00000000000E+00 -0.17763568394E-14 -0.35527136788E-14  0.91188000000E+02  0.91188000000E+02 0.  0.
    9900012    2    3    3    0    0 -0.30932866684E+02 -0.86250932723E+01  0.18015168740E+02  0.54367071441E+02  0.39999970964E+02 0.  0.
        -12    1    3    3    0    0  0.30932866684E+02  0.86250932723E+01 -0.18015168740E+02  0.36820928559E+02  0.00000000000E+00 0.  1.
         11    1    4    4    0    0 -0.35803179457E+01  0.77257039626E+01  0.28835331417E+01  0.89899912097E+01  0.51100000000E-03 0. -1.
        -11    1    4    4    0    0 -0.24988444322E+02 -0.23257785610E+02  0.16554392838E+02  0.37939357713E+02  0.51100000000E-03 0.  1.
        -12    1    4    4    0    0 -0.23641044153E+01  0.69069883754E+01 -0.14227572398E+01  0.74377225189E+01  0.00000000000E+00 0.  1.
</event>
<event>
 8    1  0.1269154E-006  0.9118800E+02  0.7816164E-02  0.1184000E+00
        -11   -1    0    0    0    0  0.00000000000E+00  0.00000000000E+00  0.45593999997E+02  0.45594000000E+02  0.51100000000E-03 0.  1.
         11   -1    0    0    0    0 -0.00000000000E+00 -0.00000000000E+00 -0.45593999997E+02  0.45594000000E+02  0.51100000000E-03 0. -1.
         23    2    1    2    0    0  0.00000000000E+00  0.35527136788E-14 -0.35527136788E-14  0.91188000000E+02  0.91188000000E+02 0.  0.
    9900012    2    3    3    0    0 -0.15768400994E+02 -0.19236783623E+02 -0.27149310227E+02  0.54367063566E+02  0.39999953012E+02 0.  0.
        -12    1    3    3    0    0  0.15768400994E+02  0.19236783623E+02  0.27149310227E+02  0.36820936434E+02  0.00000000000E+00 0.  1.
         11    1    4    4    0    0 -0.50371409811E+01 -0.42882726559E+01  0.12902177905E+01  0.67399357447E+01  0.51100000000E-03 0. -1.
        -11    1    4    4    0    0 -0.63333941780E+01 -0.22218588630E+02 -0.63508787839E+01  0.23960618191E+02  0.51100000000E-03 0.  1.
         12    1    4    4    0    0 -0.43978658347E+01  0.72700776625E+01 -0.22088649233E+02  0.23666509630E+02  0.00000000000E+00 0. -1.
</event>
<event>
 8    1  0.1269154E-006  0.9118800E+02  0.7816164E-02  0.1184000E+00
        -11   -1    0    0    0    0  0.00000000000E+00  0.00000000000E+00  0.45593999997E+02  0.45594000000E+02  0.51100000000E-03 0.  1.
         11   -1    0    0    0    0 -0.00000000000E+00 -0.00000000000E+00 -0.45593999997E+02  0.45594000000E+02  0.51100000000E-03 0. -1.
         23    2    1    2    0    0 -0.35527136788E-14  0.00000000000E+00  0.00000000000E+00  0.91188000000E+02  0.91188000000E+02 0.  0.
    9900012    2    3    3    0    0  0.25881121979E+02 -0.19430768469E+02 -0.17561112812E+02  0.54367083100E+02  0.39999997542E+02 0.  0.
        -12    1    3    3    0    0 -0.25881121979E+02  0.19430768469E+02  0.17561112812E+02  0.36820916900E+02  0.00000000000E+00 0.  1.
         11    1    4    4    0    0  0.65242353952E+01 -0.30723828025E+01 -0.10675293647E+02  0.12882821053E+02  0.51100000000E-03 0. -1.
        -11    1    4    4    0    0  0.91673927359E+01 -0.24396695653E+02 -0.10364791608E+02  0.28047615829E+02  0.51100000000E-03 0.  1.
        -12    1    4    4    0    0  0.10189493848E+02  0.80383099862E+01  0.34789724433E+01  0.13436646218E+02  0.00000000000E+00 0.  1.
</event>
<event>
 8    1  0.1269154E-006  0.9118800E+02  0.7816164E-02  0.1184000E+00
        -11   -1    0    0    0    0  0.00000000000E+00  0.00000000000E+00  0.45593999997E+02  0.45594000000E+02  0.51100000000E-03 0. -1.
         11   -1    0    0    0    0 -0.00000000000E+00 -0.00000000000E+00 -0.45593999997E+02  0.45594000000E+02  0.51100000000E-03 0.  1.
         23    2    1    2    0    0  0.17763568394E-14 -0.71054273576E-14 -0.26645352591E-14  0.91188000000E+02  0.91188000000E+02 0.  0.
    9900012    2    3    3    0    0  0.14198592765E+02 -0.33878075902E+02  0.25407984652E+01  0.54367085832E+02  0.40000003771E+02 0.  0.
        -12    1    3    3    0    0 -0.14198592765E+02  0.33878075902E+02 -0.25407984652E+01  0.36820914168E+02  0.00000000000E+00 0.  1.
         11    1    4    4    0    0  0.76398577512E+01 -0.16759752834E+02  0.21039619368E+02  0.27962874046E+02  0.51100000000E-03 0. -1.
        -11    1    4    4    0    0  0.50972788945E+01 -0.72623254812E+01 -0.84286419696E+01  0.12237876827E+02  0.51100000000E-03 0.  1.
         12    1    4    4    0    0  0.14614561193E+01 -0.98559975868E+01 -0.10070178933E+02  0.14166334959E+02  0.00000000000E+00 0. -1.
</event>
<event>
 8    1  0.1269154E-006  0.9118800E+02  0.7816164E-02  0.1184000E+00
        -11   -1    0    0    0    0  0.00000000000E+00  0.00000000000E+00  0.45593999997E+02  0.45594000000E+02  0.51100000000E-03 0. -1.
         11   -1    0    0    0    0 -0.00000000000E+00 -0.00000000000E+00 -0.45593999997E+02  0.45594000000E+02  0.51100000000E-03 0.  1.
         23    2    1    2    0    0  0.00000000000E+00  0.00000000000E+00  0.17763568394E-14  0.91188000000E+02  0.91188000000E+02 0.  0.
    9900012    2    3    3    0    0  0.33257890361E+02 -0.15167033415E+02 -0.44331632984E+01  0.54367094108E+02  0.40000022638E+02 0.  0.
        -12    1    3    3    0    0 -0.33257890361E+02  0.15167033415E+02  0.44331632984E+01  0.36820905892E+02  0.00000000000E+00 0.  1.
         11    1    4    4    0    0  0.16102191384E+02 -0.65310496917E+01 -0.13853118368E+02  0.22222602598E+02  0.51100000000E-03 0. -1.
        -11    1    4    4    0    0  0.11554019505E+02 -0.18718822254E+01 -0.69175456488E+01  0.13596019559E+02  0.51100000000E-03 0.  1.
         12    1    4    4    0    0  0.56016794726E+01 -0.67641014975E+01  0.16337500719E+02  0.18548471951E+02  0.00000000000E+00 0. -1.
</event>
<event>
 8    1  0.1269154E-006  0.9118800E+02  0.7816164E-02  0.1184000E+00
        -11   -1    0    0    0    0  0.00000000000E+00  0.00000000000E+00  0.45593999997E+02  0.45594000000E+02  0.51100000000E-03 0.  1.
         11   -1    0    0    0    0 -0.00000000000E+00 -0.00000000000E+00 -0.45593999997E+02  0.45594000000E+02  0.51100000000E-03 0. -1.
         23    2    1    2    0    0  0.88817841970E-15  0.00000000000E+00  0.35527136788E-14  0.91188000000E+02  0.91188000000E+02 0.  0.
    9900012    2    3    3    0    0  0.40519959586E+01  0.26906614505E+02  0.24807162061E+02  0.54367083867E+02  0.39999999292E+02 0.  0.
         12    1    3    3    0    0 -0.40519959586E+01 -0.26906614505E+02 -0.24807162061E+02  0.36820916133E+02  0.00000000000E+00 0. -1.
         11    1    4    4    0    0 -0.98698262020E+01  0.24380710594E+01  0.53830162042E+01  0.11503674346E+02  0.51100000000E-03 0. -1.
        -11    1    4    4    0    0 -0.25308020881E+01 -0.14070954820E+01  0.10552397308E+02  0.10942484458E+02  0.51100000000E-03 0.  1.
        -12    1    4    4    0    0  0.16452624249E+02  0.25875638927E+02  0.88717485479E+01  0.31920925063E+02  0.00000000000E+00 0.  1.
</event>
<event>
 8    1  0.1269154E-006  0.9118800E+02  0.7816164E-02  0.1184000E+00
        -11   -1    0    0    0    0  0.00000000000E+00  0.00000000000E+00  0.45593999997E+02  0.45594000000E+02  0.51100000000E-03 0.  1.
         11   -1    0    0    0    0 -0.00000000000E+00 -0.00000000000E+00 -0.45593999997E+02  0.45594000000E+02  0.51100000000E-03 0. -1.
         23    2    1    2    0    0 -0.35527136788E-14 -0.35527136788E-14 -0.88817841970E-15  0.91188000000E+02  0.91188000000E+02 0.  0.
    9900012    2    3    3    0    0  0.22940041378E+02  0.28777576628E+02  0.11770903006E+01  0.54367082622E+02  0.39999996454E+02 0.  0.
        -12    1    3    3    0    0 -0.22940041378E+02 -0.28777576628E+02 -0.11770903006E+01  0.36820917378E+02  0.00000000000E+00 0.  1.
         11    1    4    4    0    0 -0.18880731517E+01  0.66094048026E+01 -0.10277325435E+02  0.12364160725E+02  0.51100000000E-03 0. -1.
        -11    1    4    4    0    0  0.11628207582E+02  0.94701374368E+01 -0.65089902740E+01  0.16348261965E+02  0.51100000000E-03 0.  1.
        -12    1    4    4    0    0  0.13199906947E+02  0.12698034388E+02  0.17963406010E+02  0.25654659932E+02  0.00000000000E+00 0.  1.
</event>
<event>
 8    1  0.1269154E-006  0.9118800E+02  0.7816164E-02  0.1184000E+00
        -11   -1    0    0    0    0  0.00000000000E+00  0.00000000000E+00  0.45593999997E+02  0.45594000000E+02  0.51100000000E-03 0. -1.
         11   -1    0    0    0    0 -0.00000000000E+00 -0.00000000000E+00 -0.45593999997E+02  0.45594000000E+02  0.51100000000E-03 0.  1.
         23    2    1    2    0    0  0.44408920985E-15  0.00000000000E+00  0.35527136788E-14  0.91188000000E+02  0.91188000000E+02 0.  0.
    9900012    2    3    3    0    0 -0.23467970990E+01 -0.32978584290E+02  0.16207550059E+02  0.54367093475E+02  0.40000021195E+02 0.  0.
        -12    1    3    3    0    0  0.23467970990E+01  0.32978584290E+02 -0.16207550059E+02  0.36820906525E+02  0.00000000000E+00 0.  1.
         11    1    4    4    0    0  0.68682074508E+00 -0.83672995413E+01 -0.41799377314E+01  0.93784489149E+01  0.51100000000E-03 0. -1.
        -11    1    4    4    0    0 -0.26636001022E+01  0.75068013188E+01  0.46007065918E+01  0.91985505896E+01  0.51100000000E-03 0.  1.
        -12    1    4    4    0    0 -0.37001774190E+00 -0.32118086068E+02  0.15786781198E+02  0.35790093970E+02  0.00000000000E+00 0.  1.
</event>
<event>
 8    1  0.1269154E-006  0.9118800E+02  0.7816164E-02  0.1184000E+00
        -11   -1    0    0    0    0  0.00000000000E+00  0.00000000000E+00  0.45593999997E+02  0.45594000000E+02  0.51100000000E-03 0. -1.
         11   -1    0    0    0    0 -0.00000000000E+00 -0.00000000000E+00 -0.45593999997E+02  0.45594000000E+02  0.51100000000E-03 0.  1.
         23    2    1    2    0    0  0.00000000000E+00  0.44408920985E-15  0.00000000000E+00  0.91188000000E+02  0.91188000000E+02 0.  0.
    9900012    2    3    3    0    0 -0.33950860874E+02 -0.29442951992E+01 -0.13944571713E+02  0.54367069695E+02  0.39999966983E+02 0.  0.
         12    1    3    3    0    0  0.33950860874E+02  0.29442951992E+01  0.13944571713E+02  0.36820930305E+02  0.00000000000E+00 0. -1.
         11    1    4    4    0    0 -0.12131082459E+02 -0.40099006572E+01 -0.26217924877E+01  0.13042862455E+02  0.51100000000E-03 0. -1.
        -11    1    4    4    0    0 -0.85304900376E+01 -0.78613481150E+01 -0.19995398570E+02  0.23116790839E+02  0.51100000000E-03 0.  1.
        -12    1    4    4    0    0 -0.13289288377E+02  0.89269535729E+01  0.86726193454E+01  0.18207416400E+02  0.00000000000E+00 0.  1.
</event>
<event>
 8    1  0.1269154E-006  0.9118800E+02  0.7816164E-02  0.1184000E+00
        -11   -1    0    0    0    0  0.00000000000E+00  0.00000000000E+00  0.45593999997E+02  0.45594000000E+02  0.51100000000E-03 0. -1.
         11   -1    0    0    0    0 -0.00000000000E+00 -0.00000000000E+00 -0.45593999997E+02  0.45594000000E+02  0.51100000000E-03 0.  1.
         23    2    1    2    0    0  0.17763568394E-14  0.17763568394E-14 -0.71054273576E-14  0.91188000000E+02  0.91188000000E+02 0.  0.
    9900012    2    3    3    0    0  0.98036078739E+01  0.10688758315E+02 -0.33844020367E+02  0.54367109241E+02  0.40000057137E+02 0.  0.
         12    1    3    3    0    0 -0.98036078739E+01 -0.10688758315E+02  0.33844020367E+02  0.36820890759E+02  0.00000000000E+00 0. -1.
         11    1    4    4    0    0  0.12912293942E+02  0.21587403876E+02 -0.18485404402E+02  0.31216238035E+02  0.51100000000E-03 0. -1.
        -11    1    4    4    0    0  0.27400514819E+01 -0.99895675756E+00 -0.10089832398E+02  0.10502881262E+02  0.51100000000E-03 0.  1.
         12    1    4    4    0    0 -0.58487375501E+01 -0.98996888032E+01 -0.52687835678E+01  0.12647989944E+02  0.00000000000E+00 0. -1.
</event>
<event>
 8    1  0.1269154E-006  0.9118800E+02  0.7816164E-02  0.1184000E+00
        -11   -1    0    0    0    0  0.00000000000E+00  0.00000000000E+00  0.45593999997E+02  0.45594000000E+02  0.51100000000E-03 0. -1.
         11   -1    0    0    0    0 -0.00000000000E+00 -0.00000000000E+00 -0.45593999997E+02  0.45594000000E+02  0.51100000000E-03 0.  1.
         23    2    1    2    0    0  0.22204460493E-15  0.35527136788E-14  0.00000000000E+00  0.91188000000E+02  0.91188000000E+02 0.  0.
    9900012    2    3    3    0    0 -0.75319989412E+00  0.26007093462E+02 -0.26054649692E+02  0.54367068575E+02  0.39999964431E+02 0.  0.
         12    1    3    3    0    0  0.75319989412E+00 -0.26007093462E+02  0.26054649692E+02  0.36820931425E+02  0.00000000000E+00 0. -1.
         11    1    4    4    0    0  0.10730589461E+02  0.31004297503E+01  0.41485869540E+01  0.11915074015E+02  0.51100000000E-03 0. -1.
        -11    1    4    4    0    0 -0.34175462293E+01  0.20686850072E+02 -0.24876339352E+02  0.32533946087E+02  0.51100000000E-03 0.  1.
        -12    1    4    4    0    0 -0.80662431254E+01  0.22198136393E+01 -0.53268972936E+01  0.99180484738E+01  0.00000000000E+00 0.  1.
</event>
<event>
 8    1  0.1269154E-006  0.9118800E+02  0.7816164E-02  0.1184000E+00
        -11   -1    0    0    0    0  0.00000000000E+00  0.00000000000E+00  0.45593999997E+02  0.45594000000E+02  0.51100000000E-03 0.  1.
         11   -1    0    0    0    0 -0.00000000000E+00 -0.00000000000E+00 -0.45593999997E+02  0.45594000000E+02  0.51100000000E-03 0. -1.
         23    2    1    2    0    0  0.00000000000E+00  0.00000000000E+00  0.00000000000E+00  0.91188000000E+02  0.91188000000E+02 0.  0.
    9900012    2    3    3    0    0 -0.98219010908E+01 -0.10889585599E+02 -0.33774646183E+02  0.54367088274E+02  0.40000009337E+02 0.  0.
        -12    1    3    3    0    0  0.98219010908E+01  0.10889585599E+02  0.33774646183E+02  0.36820911726E+02  0.00000000000E+00 0.  1.
         11    1    4    4    0    0  0.48841165199E+01 -0.23108355332E+01 -0.10679837384E+01  0.55077349762E+01  0.51100000000E-03 0. -1.
        -11    1    4    4    0    0  0.19487208957E+01 -0.14285871901E+02 -0.36299735173E+01  0.14868098637E+02  0.51100000000E-03 0.  1.
        -12    1    4    4    0    0 -0.16654738506E+02  0.57071218353E+01 -0.29076688928E+02  0.33991254660E+02  0.00000000000E+00 0.  1.
</event>
<event>
 8    1  0.1269154E-006  0.9118800E+02  0.7816164E-02  0.1184000E+00
        -11   -1    0    0    0    0  0.00000000000E+00  0.00000000000E+00  0.45593999997E+02  0.45594000000E+02  0.51100000000E-03 0. -1.
         11   -1    0    0    0    0 -0.00000000000E+00 -0.00000000000E+00 -0.45593999997E+02  0.45594000000E+02  0.51100000000E-03 0.  1.
         23    2    1    2    0    0  0.00000000000E+00  0.88817841970E-15  0.00000000000E+00  0.91188000000E+02  0.91188000000E+02 0.  0.
    9900012    2    3    3    0    0 -0.14576516413E+02  0.52793985356E+01 -0.33398087523E+02  0.54367093848E+02  0.40000022046E+02 0.  0.
         12    1    3    3    0    0  0.14576516413E+02 -0.52793985356E+01  0.33398087523E+02  0.36820906152E+02  0.00000000000E+00 0. -1.
         11    1    4    4    0    0 -0.16174120441E+02  0.17346503718E+02 -0.11552698302E+02  0.26381209252E+02  0.51100000000E-03 0. -1.
        -11    1    4    4    0    0  0.41878092810E+01 -0.38031317218E-01 -0.10274539637E+02  0.11095285394E+02  0.51100000000E-03 0.  1.
         12    1    4    4    0    0 -0.25902052530E+01 -0.12029073865E+02 -0.11570849584E+02  0.16890599202E+02  0.00000000000E+00 0. -1.
</event>
<event>
 8    1  0.1269154E-006  0.9118800E+02  0.7816164E-02  0.1184000E+00
        -11   -1    0    0    0    0  0.00000000000E+00  0.00000000000E+00  0.45593999997E+02  0.45594000000E+02  0.51100000000E-03 0. -1.
         11   -1    0    0    0    0 -0.00000000000E+00 -0.00000000000E+00 -0.45593999997E+02  0.45594000000E+02  0.51100000000E-03 0.  1.
         23    2    1    2    0    0 -0.71054273576E-14 -0.17763568394E-14  0.17763568394E-14  0.91188000000E+02  0.91188000000E+02 0.  0.
    9900012    2    3    3    0    0 -0.32053331802E+02 -0.10628312014E+02  0.14676602712E+02  0.54367085250E+02  0.40000002444E+02 0.  0.
         12    1    3    3    0    0  0.32053331802E+02  0.10628312014E+02 -0.14676602712E+02  0.36820914750E+02  0.00000000000E+00 0. -1.
         11    1    4    4    0    0 -0.63829373069E+01 -0.10698751020E+01 -0.30929332416E+01  0.71730577647E+01  0.51100000000E-03 0. -1.
        -11    1    4    4    0    0 -0.29158145710E+02 -0.97151066252E+01  0.17340851080E+01  0.30782914245E+02  0.51100000000E-03 0.  1.
         12    1    4    4    0    0  0.34877512155E+01  0.15666971283E+00  0.16035450846E+02  0.16411113240E+02  0.00000000000E+00 0. -1.
</event>
<event>
 8    1  0.1269154E-006  0.9118800E+02  0.7816164E-02  0.1184000E+00
        -11   -1    0    0    0    0  0.00000000000E+00  0.00000000000E+00  0.45593999997E+02  0.45594000000E+02  0.51100000000E-03 0.  1.
         11   -1    0    0    0    0 -0.00000000000E+00 -0.00000000000E+00 -0.45593999997E+02  0.45594000000E+02  0.51100000000E-03 0. -1.
         23    2    1    2    0    0 -0.35527136788E-14 -0.35527136788E-14  0.00000000000E+00  0.91188000000E+02  0.91188000000E+02 0.  0.
    9900012    2    3    3    0    0  0.28562912639E+02  0.21273981521E+02 -0.93465231790E+01  0.54367085240E+02  0.40000002422E+02 0.  0.
        -12    1    3    3    0    0 -0.28562912639E+02 -0.21273981521E+02  0.93465231790E+01  0.36820914760E+02  0.00000000000E+00 0.  1.
         11    1    4    4    0    0 -0.52507024399E+00 -0.23840959760E+00 -0.91946450968E+01  0.92127106008E+01  0.51100000000E-03 0. -1.
        -11    1    4    4    0    0  0.88890627846E+01  0.75984072499E+01 -0.12983291735E+02  0.17473325226E+02  0.51100000000E-03 0.  1.
        -12    1    4    4    0    0  0.20198920099E+02  0.13913983869E+02  0.12831413653E+02  0.27681049413E+02  0.00000000000E+00 0.  1.
</event>
<event>
 8    1  0.1269154E-006  0.9118800E+02  0.7816164E-02  0.1184000E+00
        -11   -1    0    0    0    0  0.00000000000E+00  0.00000000000E+00  0.45593999997E+02  0.45594000000E+02  0.51100000000E-03 0. -1.
         11   -1    0    0    0    0 -0.00000000000E+00 -0.00000000000E+00 -0.45593999997E+02  0.45594000000E+02  0.51100000000E-03 0.  1.
         23    2    1    2    0    0  0.35527136788E-14 -0.35527136788E-14  0.00000000000E+00  0.91188000000E+02  0.91188000000E+02 0.  0.
    9900012    2    3    3    0    0  0.18221410251E+02  0.31385213138E+02 -0.62231729311E+01  0.54367091856E+02  0.40000017503E+02 0.  0.
         12    1    3    3    0    0 -0.18221410251E+02 -0.31385213138E+02  0.62231729311E+01  0.36820908144E+02  0.00000000000E+00 0. -1.
         11    1    4    4    0    0  0.65865483612E+01  0.17096666002E+02 -0.55500681994E+01  0.19143716070E+02  0.51100000000E-03 0. -1.
        -11    1    4    4    0    0 -0.68954316944E-01  0.21440642742E+02  0.59297848464E+00  0.21448951947E+02  0.51100000000E-03 0.  1.
         12    1    4    4    0    0  0.11703816207E+02 -0.71520956063E+01 -0.12660832163E+01  0.13774423838E+02  0.00000000000E+00 0. -1.
</event>
<event>
 8    1  0.1269154E-006  0.9118800E+02  0.7816164E-02  0.1184000E+00
        -11   -1    0    0    0    0  0.00000000000E+00  0.00000000000E+00  0.45593999997E+02  0.45594000000E+02  0.51100000000E-03 0. -1.
         11   -1    0    0    0    0 -0.00000000000E+00 -0.00000000000E+00 -0.45593999997E+02  0.45594000000E+02  0.51100000000E-03 0.  1.
         23    2    1    2    0    0  0.35527136788E-14  0.00000000000E+00  0.00000000000E+00  0.91188000000E+02  0.91188000000E+02 0.  0.
    9900012    2    3    3    0    0  0.24916747863E+02 -0.16233205626E+02 -0.21712067882E+02  0.54367147475E+02  0.40000144299E+02 0.  0.
         12    1    3    3    0    0 -0.24916747863E+02  0.16233205626E+02  0.21712067882E+02  0.36820852525E+02  0.00000000000E+00 0. -1.
         11    1    4    4    0    0  0.81446178127E-01  0.20942112687E+01 -0.16283938536E+02  0.16418252307E+02  0.51100000000E-03 0. -1.
        -11    1    4    4    0    0  0.24981384576E+02 -0.94965459030E+01  0.14345370635E+01  0.26764002994E+02  0.51100000000E-03 0.  1.
        -12    1    4    4    0    0 -0.14608289181E+00 -0.88308709921E+01 -0.68626664097E+01  0.11184892174E+02  0.00000000000E+00 0.  1.
</event>
<event>
 8    1  0.1269154E-006  0.9118800E+02  0.7816164E-02  0.1184000E+00
        -11   -1    0    0    0    0  0.00000000000E+00  0.00000000000E+00  0.45593999997E+02  0.45594000000E+02  0.51100000000E-03 0. -1.
         11   -1    0    0    0    0 -0.00000000000E+00 -0.00000000000E+00 -0.45593999997E+02  0.45594000000E+02  0.51100000000E-03 0.  1.
         23    2    1    2    0    0  0.00000000000E+00  0.00000000000E+00  0.35527136788E-14  0.91188000000E+02  0.91188000000E+02 0.  0.
    9900012    2    3    3    0    0 -0.12159292759E+02  0.20339157106E+02  0.28182471841E+02  0.54367062597E+02  0.39999950802E+02 0.  0.
         12    1    3    3    0    0  0.12159292759E+02 -0.20339157106E+02 -0.28182471841E+02  0.36820937403E+02  0.00000000000E+00 0. -1.
         11    1    4    4    0    0  0.89813038713E+01 -0.15037729383E+00  0.40140707345E+01  0.98386582765E+01  0.51100000000E-03 0. -1.
        -11    1    4    4    0    0 -0.38262315817E+01  0.16654480815E+02  0.37705452090E+01  0.17499394012E+02  0.51100000000E-03 0.  1.
         12    1    4    4    0    0 -0.17314365048E+02  0.38350535848E+01  0.20397855898E+02  0.27029010308E+02  0.00000000000E+00 0. -1.
</event>
<event>
 8    1  0.1269154E-006  0.9118800E+02  0.7816164E-02  0.1184000E+00
        -11   -1    0    0    0    0  0.00000000000E+00  0.00000000000E+00  0.45593999997E+02  0.45594000000E+02  0.51100000000E-03 0. -1.
         11   -1    0    0    0    0 -0.00000000000E+00 -0.00000000000E+00 -0.45593999997E+02  0.45594000000E+02  0.51100000000E-03 0.  1.
         23    2    1    2    0    0  0.71054273576E-14  0.17763568394E-14  0.00000000000E+00  0.91188000000E+02  0.91188000000E+02 0.  0.
    9900012    2    3    3    0    0 -0.34047613708E+02 -0.89996987688E+01 -0.10749211325E+02  0.54367080386E+02  0.39999991356E+02 0.  0.
         12    1    3    3    0    0  0.34047613708E+02  0.89996987688E+01  0.10749211325E+02  0.36820919614E+02  0.00000000000E+00 0. -1.
         11    1    4    4    0    0 -0.17281173362E+01  0.74905180675E+00  0.65884688234E+01  0.68524002974E+01  0.51100000000E-03 0. -1.
        -11    1    4    4    0    0 -0.33642580748E+02 -0.29345318415E+01 -0.20897908223E+02  0.39713439600E+02  0.51100000000E-03 0.  1.
         12    1    4    4    0    0  0.13230843762E+01 -0.68142187341E+01  0.35602280742E+01  0.78012404887E+01  0.00000000000E+00 0. -1.
</event>
<event>
 8    1  0.1269154E-006  0.9118800E+02  0.7816164E-02  0.1184000E+00
        -11   -1    0    0    0    0  0.00000000000E+00  0.00000000000E+00  0.45593999997E+02  0.45594000000E+02  0.51100000000E-03 0. -1.
         11   -1    0    0    0    0 -0.00000000000E+00 -0.00000000000E+00 -0.45593999997E+02  0.45594000000E+02  0.51100000000E-03 0.  1.
         23    2    1    2    0    0  0.00000000000E+00  0.17763568394E-14  0.17763568394E-14  0.91188000000E+02  0.91188000000E+02 0.  0.
    9900012    2    3    3    0    0  0.32759722477E+02 -0.86917409582E+01  0.14388699535E+02  0.54367075895E+02  0.39999981118E+02 0.  0.
        -12    1    3    3    0    0 -0.32759722477E+02  0.86917409582E+01 -0.14388699535E+02  0.36820924105E+02  0.00000000000E+00 0.  1.
         11    1    4    4    0    0  0.19178641390E+02  0.10644414414E+01  0.11943124893E+02  0.22618389722E+02  0.51100000000E-03 0. -1.
        -11    1    4    4    0    0  0.81245015468E+00 -0.34888940255E+01  0.13352362145E+02  0.13824544545E+02  0.51100000000E-03 0.  1.
         12    1    4    4    0    0  0.12768630932E+02 -0.62672883742E+01 -0.10906787503E+02  0.17924141627E+02  0.00000000000E+00 0. -1.
</event>
<event>
 8    1  0.1269154E-006  0.9118800E+02  0.7816164E-02  0.1184000E+00
        -11   -1    0    0    0    0  0.00000000000E+00  0.00000000000E+00  0.45593999997E+02  0.45594000000E+02  0.51100000000E-03 0. -1.
         11   -1    0    0    0    0 -0.00000000000E+00 -0.00000000000E+00 -0.45593999997E+02  0.45594000000E+02  0.51100000000E-03 0.  1.
         23    2    1    2    0    0  0.35527136788E-14  0.00000000000E+00  0.00000000000E+00  0.91188000000E+02  0.91188000000E+02 0.  0.
    9900012    2    3    3    0    0  0.27131162189E+02  0.22867052273E+02  0.98377440199E+01  0.54367037916E+02  0.39999894537E+02 0.  0.
        -12    1    3    3    0    0 -0.27131162189E+02 -0.22867052273E+02 -0.98377440199E+01  0.36820962084E+02  0.00000000000E+00 0.  1.
         11    1    4    4    0    0  0.24127944982E+02  0.87529208895E+01 -0.34511516498E+01  0.25897525000E+02  0.51100000000E-03 0. -1.
        -11    1    4    4    0    0  0.74866720244E+01  0.12483300981E+02  0.17032583202E+02  0.22405176906E+02  0.51100000000E-03 0.  1.
        -12    1    4    4    0    0 -0.44834548181E+01  0.16308304027E+01 -0.37436875320E+01  0.60643360103E+01  0.00000000000E+00 0.  1.
</event>
<event>
 8    1  0.1269154E-006  0.9118800E+02  0.7816164E-02  0.1184000E+00
        -11   -1    0    0    0    0  0.00000000000E+00  0.00000000000E+00  0.45593999997E+02  0.45594000000E+02  0.51100000000E-03 0.  1.
         11   -1    0    0    0    0 -0.00000000000E+00 -0.00000000000E+00 -0.45593999997E+02  0.45594000000E+02  0.51100000000E-03 0. -1.
         23    2    1    2    0    0 -0.35527136788E-14  0.88817841970E-15  0.35527136788E-14  0.91188000000E+02  0.91188000000E+02 0.  0.
    9900012    2    3    3    0    0 -0.28482189733E+02  0.21241600714E+01  0.23238600712E+02  0.54367085413E+02  0.40000002815E+02 0.  0.
         12    1    3    3    0    0  0.28482189733E+02 -0.21241600714E+01 -0.23238600712E+02  0.36820914587E+02  0.00000000000E+00 0. -1.
         11    1    4    4    0    0 -0.80867369129E+01 -0.91863868387E+01 -0.52751678328E+00  0.12250032297E+02  0.51100000000E-03 0. -1.
        -11    1    4    4    0    0 -0.89039161889E+01 -0.82149819118E+01  0.82364173933E+01  0.14649376200E+02  0.51100000000E-03 0.  1.
        -12    1    4    4    0    0 -0.11491536631E+02  0.19525528822E+02  0.15529700102E+02  0.27467676916E+02  0.00000000000E+00 0.  1.
</event>
<event>
 8    1  0.1269154E-006  0.9118800E+02  0.7816164E-02  0.1184000E+00
        -11   -1    0    0    0    0  0.00000000000E+00  0.00000000000E+00  0.45593999997E+02  0.45594000000E+02  0.51100000000E-03 0.  1.
         11   -1    0    0    0    0 -0.00000000000E+00 -0.00000000000E+00 -0.45593999997E+02  0.45594000000E+02  0.51100000000E-03 0. -1.
         23    2    1    2    0    0 -0.35527136788E-14 -0.17763568394E-14  0.71054273576E-14  0.91188000000E+02  0.91188000000E+02 0.  0.
    9900012    2    3    3    0    0 -0.23207277674E+02 -0.13981574733E+02  0.24934278955E+02  0.54367076111E+02  0.39999981611E+02 0.  0.
         12    1    3    3    0    0  0.23207277674E+02  0.13981574733E+02 -0.24934278955E+02  0.36820923889E+02  0.00000000000E+00 0. -1.
         11    1    4    4    0    0 -0.13691824756E+00 -0.54221867191E+01  0.17765301223E+02  0.18574842751E+02  0.51100000000E-03 0. -1.
        -11    1    4    4    0    0 -0.21459590013E+02 -0.57068493672E+01  0.15340094639E+02  0.26988898403E+02  0.51100000000E-03 0.  1.
         12    1    4    4    0    0 -0.16107694133E+01 -0.28525386463E+01 -0.81711169079E+01  0.88033349563E+01  0.00000000000E+00 0. -1.
</event>
<event>
 8    1  0.1269154E-006  0.9118800E+02  0.7816164E-02  0.1184000E+00
        -11   -1    0    0    0    0  0.00000000000E+00  0.00000000000E+00  0.45593999997E+02  0.45594000000E+02  0.51100000000E-03 0.  1.
         11   -1    0    0    0    0 -0.00000000000E+00 -0.00000000000E+00 -0.45593999997E+02  0.45594000000E+02  0.51100000000E-03 0. -1.
         23    2    1    2    0    0 -0.17763568394E-14  0.00000000000E+00 -0.71054273576E-14  0.91188000000E+02  0.91188000000E+02 0.  0.
    9900012    2    3    3    0    0 -0.12318214086E+02  0.47029282808E+01 -0.34379123641E+02  0.54367081013E+02  0.39999992785E+02 0.  0.
        -12    1    3    3    0    0  0.12318214086E+02 -0.47029282808E+01  0.34379123641E+02  0.36820918987E+02  0.00000000000E+00 0.  1.
         11    1    4    4    0    0 -0.48939197585E+01 -0.66300360961E+01  0.35476505483E+01  0.89718255619E+01  0.51100000000E-03 0. -1.
        -11    1    4    4    0    0 -0.23180944547E+01  0.12648758754E+02 -0.83056279999E+01  0.15308432861E+02  0.51100000000E-03 0.  1.
         12    1    4    4    0    0 -0.51061998730E+01 -0.13157943770E+01 -0.29621146190E+02  0.30086822590E+02  0.00000000000E+00 0. -1.
</event>
<event>
 8    1  0.1269154E-006  0.9118800E+02  0.7816164E-02  0.1184000E+00
        -11   -1    0    0    0    0  0.00000000000E+00  0.00000000000E+00  0.45593999997E+02  0.45594000000E+02  0.51100000000E-03 0.  1.
         11   -1    0    0    0    0 -0.00000000000E+00 -0.00000000000E+00 -0.45593999997E+02  0.45594000000E+02  0.51100000000E-03 0. -1.
         23    2    1    2    0    0 -0.35527136788E-14 -0.22204460493E-15  0.00000000000E+00  0.91188000000E+02  0.91188000000E+02 0.  0.
    9900012    2    3    3    0    0  0.46830505956E+01  0.17726949665E+01 -0.36478859164E+02  0.54367074207E+02  0.39999977270E+02 0.  0.
        -12    1    3    3    0    0 -0.46830505956E+01 -0.17726949665E+01  0.36478859164E+02  0.36820925793E+02  0.00000000000E+00 0.  1.
         11    1    4    4    0    0 -0.14070058820E+02  0.78235673988E+01 -0.17944749198E+02  0.24107857351E+02  0.51100000000E-03 0. -1.
        -11    1    4    4    0    0 -0.18701522512E+01 -0.21288746841E+01 -0.31224999036E+01  0.42165842542E+01  0.51100000000E-03 0.  1.
         12    1    4    4    0    0  0.20623261667E+02 -0.39219977482E+01 -0.15411610063E+02  0.26042632602E+02  0.00000000000E+00 0. -1.
</event>
<event>
 8    1  0.1269154E-006  0.9118800E+02  0.7816164E-02  0.1184000E+00
        -11   -1    0    0    0    0  0.00000000000E+00  0.00000000000E+00  0.45593999997E+02  0.45594000000E+02  0.51100000000E-03 0.  1.
         11   -1    0    0    0    0 -0.00000000000E+00 -0.00000000000E+00 -0.45593999997E+02  0.45594000000E+02  0.51100000000E-03 0. -1.
         23    2    1    2    0    0  0.00000000000E+00  0.00000000000E+00  0.35527136788E-14  0.91188000000E+02  0.91188000000E+02 0.  0.
    9900012    2    3    3    0    0 -0.21142287114E+02 -0.36676032693E+01 -0.29922100507E+02  0.54367085876E+02  0.40000003872E+02 0.  0.
        -12    1    3    3    0    0  0.21142287114E+02  0.36676032693E+01  0.29922100507E+02  0.36820914124E+02  0.00000000000E+00 0.  1.
         11    1    4    4    0    0 -0.11246411351E+02 -0.59239299000E+01 -0.31836454693E+02  0.34280235726E+02  0.51100000000E-03 0. -1.
        -11    1    4    4    0    0  0.33912971973E+00  0.73083725698E+01  0.42146888714E+01  0.84433951186E+01  0.51100000000E-03 0.  1.
         12    1    4    4    0    0 -0.10235005483E+02 -0.50520459391E+01 -0.23003346853E+01  0.11643455032E+02  0.00000000000E+00 0. -1.
</event>
<event>
 8    1  0.1269154E-006  0.9118800E+02  0.7816164E-02  0.1184000E+00
        -11   -1    0    0    0    0  0.00000000000E+00  0.00000000000E+00  0.45593999997E+02  0.45594000000E+02  0.51100000000E-03 0.  1.
         11   -1    0    0    0    0 -0.00000000000E+00 -0.00000000000E+00 -0.45593999997E+02  0.45594000000E+02  0.51100000000E-03 0. -1.
         23    2    1    2    0    0 -0.35527136788E-14  0.35527136788E-14 -0.88817841970E-15  0.91188000000E+02  0.91188000000E+02 0.  0.
    9900012    2    3    3    0    0 -0.22531072773E+02  0.29116044732E+02 -0.62142255596E+00  0.54367089269E+02  0.40000011606E+02 0.  0.
        -12    1    3    3    0    0  0.22531072773E+02 -0.29116044732E+02  0.62142255596E+00  0.36820910731E+02  0.00000000000E+00 0.  1.
         11    1    4    4    0    0 -0.14927503052E+01  0.51563373921E+01  0.90899957510E+01  0.10556710747E+02  0.51100000000E-03 0. -1.
        -11    1    4    4    0    0 -0.66460013630E+01  0.26966496452E+02 -0.41069993338E+01  0.28075411106E+02  0.51100000000E-03 0.  1.
         12    1    4    4    0    0 -0.14392321104E+02 -0.30067891124E+01 -0.56044189732E+01  0.15734967415E+02  0.00000000000E+00 0. -1.
</event>
<event>
 8    1  0.1269154E-006  0.9118800E+02  0.7816164E-02  0.1184000E+00
        -11   -1    0    0    0    0  0.00000000000E+00  0.00000000000E+00  0.45593999997E+02  0.45594000000E+02  0.51100000000E-03 0.  1.
         11   -1    0    0    0    0 -0.00000000000E+00 -0.00000000000E+00 -0.45593999997E+02  0.45594000000E+02  0.51100000000E-03 0. -1.
         23    2    1    2    0    0 -0.88817841970E-15  0.00000000000E+00 -0.17763568394E-14  0.91188000000E+02  0.91188000000E+02 0.  0.
    9900012    2    3    3    0    0  0.49420979240E+01  0.34933527061E+02  0.10535832089E+02  0.54367090144E+02  0.40000013601E+02 0.  0.
         12    1    3    3    0    0 -0.49420979240E+01 -0.34933527061E+02 -0.10535832089E+02  0.36820909856E+02  0.00000000000E+00 0. -1.
         11    1    4    4    0    0 -0.26590576911E+01  0.57399962928E+01  0.41145020823E+01  0.75463416893E+01  0.51100000000E-03 0. -1.
        -11    1    4    4    0    0 -0.65658477884E+01  0.14599498321E+01  0.13321229912E+02  0.14923035125E+02  0.51100000000E-03 0.  1.
         12    1    4    4    0    0  0.14167003403E+02  0.27733580936E+02 -0.68998999057E+01  0.31897713330E+02  0.00000000000E+00 0. -1.
</event>
<event>
 8    1  0.1269154E-006  0.9118800E+02  0.7816164E-02  0.1184000E+00
        -11   -1    0    0    0    0  0.00000000000E+00  0.00000000000E+00  0.45593999997E+02  0.45594000000E+02  0.51100000000E-03 0.  1.
         11   -1    0    0    0    0 -0.00000000000E+00 -0.00000000000E+00 -0.45593999997E+02  0.45594000000E+02  0.51100000000E-03 0. -1.
         23    2    1    2    0    0 -0.35527136788E-14 -0.17763568394E-14  0.00000000000E+00  0.91188000000E+02  0.91188000000E+02 0.  0.
    9900012    2    3    3    0    0 -0.17054180538E+02  0.57098503575E+01  0.32129929028E+02  0.54367084690E+02  0.40000001168E+02 0.  0.
         12    1    3    3    0    0  0.17054180538E+02 -0.57098503575E+01 -0.32129929028E+02  0.36820915310E+02  0.00000000000E+00 0. -1.
         11    1    4    4    0    0 -0.94434363548E+01  0.12496115335E+02  0.12909644671E+02  0.20297544542E+02  0.51100000000E-03 0. -1.
        -11    1    4    4    0    0  0.58153237786E+01 -0.28314278577E+01 -0.35224869322E+01  0.73649771766E+01  0.51100000000E-03 0.  1.
        -12    1    4    4    0    0 -0.13426067962E+02 -0.39548371199E+01  0.22742771289E+02  0.26704562971E+02  0.00000000000E+00 0.  1.
</event>
<event>
 8    1  0.1269154E-006  0.9118800E+02  0.7816164E-02  0.1184000E+00
        -11   -1    0    0    0    0  0.00000000000E+00  0.00000000000E+00  0.45593999997E+02  0.45594000000E+02  0.51100000000E-03 0. -1.
         11   -1    0    0    0    0 -0.00000000000E+00 -0.00000000000E+00 -0.45593999997E+02  0.45594000000E+02  0.51100000000E-03 0.  1.
         23    2    1    2    0    0 -0.35527136788E-14  0.22204460493E-14  0.35527136788E-14  0.91188000000E+02  0.91188000000E+02 0.  0.
    9900012    2    3    3    0    0 -0.25025395904E+02  0.29125848582E+01  0.26851859547E+02  0.54367137003E+02  0.40000120425E+02 0.  0.
        -12    1    3    3    0    0  0.25025395904E+02 -0.29125848582E+01 -0.26851859547E+02  0.36820862997E+02  0.00000000000E+00 0.  1.
         11    1    4    4    0    0  0.35090069073E+01 -0.11391788938E+02  0.90129054176E+01  0.14943843181E+02  0.51100000000E-03 0. -1.
        -11    1    4    4    0    0  0.16844795097E+01  0.19510861650E+00  0.23523194270E+00  0.17119792401E+01  0.51100000000E-03 0.  1.
         12    1    4    4    0    0 -0.30218882321E+02  0.14109265179E+02  0.17603722187E+02  0.37711314582E+02  0.00000000000E+00 0. -1.
</event>
<event>
 8    1  0.1269154E-006  0.9118800E+02  0.7816164E-02  0.1184000E+00
        -11   -1    0    0    0    0  0.00000000000E+00  0.00000000000E+00  0.45593999997E+02  0.45594000000E+02  0.51100000000E-03 0.  1.
         11   -1    0    0    0    0 -0.00000000000E+00 -0.00000000000E+00 -0.45593999997E+02  0.45594000000E+02  0.51100000000E-03 0. -1.
         23    2    1    2    0    0  0.00000000000E+00 -0.17763568394E-14  0.00000000000E+00  0.91188000000E+02  0.91188000000E+02 0.  0.
    9900012    2    3    3    0    0 -0.31933694459E+02 -0.15108037129E+02 -0.10381093513E+02  0.54367072116E+02  0.39999972503E+02 0.  0.
        -12    1    3    3    0    0  0.31933694459E+02  0.15108037129E+02  0.10381093513E+02  0.36820927884E+02  0.00000000000E+00 0.  1.
         11    1    4    4    0    0 -0.25880526494E+01 -0.84001794624E+01  0.22234404546E+01  0.90666818204E+01  0.51100000000E-03 0. -1.
        -11    1    4    4    0    0 -0.19399617526E+02 -0.17023826697E+02  0.59638980874E+00  0.25816884332E+02  0.51100000000E-03 0.  1.
         12    1    4    4    0    0 -0.99460242838E+01  0.10315969030E+02 -0.13200923777E+02  0.19483505964E+02  0.00000000000E+00 0. -1.
</event>
<event>
 8    1  0.1269154E-006  0.9118800E+02  0.7816164E-02  0.1184000E+00
        -11   -1    0    0    0    0  0.00000000000E+00  0.00000000000E+00  0.45593999997E+02  0.45594000000E+02  0.51100000000E-03 0.  1.
         11   -1    0    0    0    0 -0.00000000000E+00 -0.00000000000E+00 -0.45593999997E+02  0.45594000000E+02  0.51100000000E-03 0. -1.
         23    2    1    2    0    0  0.00000000000E+00  0.00000000000E+00  0.00000000000E+00  0.91188000000E+02  0.91188000000E+02 0.  0.
    9900012    2    3    3    0    0 -0.10099953369E+02  0.18078851853E+02 -0.30445448352E+02  0.54367091976E+02  0.40000017778E+02 0.  0.
        -12    1    3    3    0    0  0.10099953369E+02 -0.18078851853E+02  0.30445448352E+02  0.36820908024E+02  0.00000000000E+00 0.  1.
         11    1    4    4    0    0 -0.10544759329E+02  0.30919042324E+00  0.13456676565E+01  0.10634771729E+02  0.51100000000E-03 0. -1.
        -11    1    4    4    0    0  0.15387374239E+01 -0.60157238001E+01 -0.61087186348E+01  0.87105160191E+01  0.51100000000E-03 0.  1.
         12    1    4    4    0    0 -0.10939314646E+01  0.23785385230E+02 -0.25682397373E+02  0.35021804228E+02  0.00000000000E+00 0. -1.
</event>
<event>
 8    1  0.1269154E-006  0.9118800E+02  0.7816164E-02  0.1184000E+00
        -11   -1    0    0    0    0  0.00000000000E+00  0.00000000000E+00  0.45593999997E+02  0.45594000000E+02  0.51100000000E-03 0.  1.
         11   -1    0    0    0    0 -0.00000000000E+00 -0.00000000000E+00 -0.45593999997E+02  0.45594000000E+02  0.51100000000E-03 0. -1.
         23    2    1    2    0    0  0.17763568394E-14  0.00000000000E+00  0.00000000000E+00  0.91188000000E+02  0.91188000000E+02 0.  0.
    9900012    2    3    3    0    0  0.10534380844E+02 -0.51509507626E+01  0.34903805480E+02  0.54367066952E+02  0.39999960730E+02 0.  0.
         12    1    3    3    0    0 -0.10534380844E+02  0.51509507626E+01 -0.34903805480E+02  0.36820933048E+02  0.00000000000E+00 0. -1.
         11    1    4    4    0    0 -0.56390649481E+01 -0.39549084202E+01  0.91233050840E+00  0.69478558793E+01  0.51100000000E-03 0. -1.
        -11    1    4    4    0    0  0.22612208902E+02 -0.35142030028E+01  0.33484582627E+02  0.40557106506E+02  0.51100000000E-03 0.  1.
        -12    1    4    4    0    0 -0.64387631102E+01  0.23181606603E+01  0.50689234495E+00  0.68621045668E+01  0.00000000000E+00 0.  1.
</event>
<event>
 8    1  0.1269154E-006  0.9118800E+02  0.7816164E-02  0.1184000E+00
        -11   -1    0    0    0    0  0.00000000000E+00  0.00000000000E+00  0.45593999997E+02  0.45594000000E+02  0.51100000000E-03 0.  1.
         11   -1    0    0    0    0 -0.00000000000E+00 -0.00000000000E+00 -0.45593999997E+02  0.45594000000E+02  0.51100000000E-03 0. -1.
         23    2    1    2    0    0  0.00000000000E+00 -0.35527136788E-14  0.17763568394E-14  0.91188000000E+02  0.91188000000E+02 0.  0.
    9900012    2    3    3    0    0  0.21765328224E+02 -0.28904056001E+02 -0.68269142524E+01  0.54367072198E+02  0.39999972689E+02 0.  0.
         12    1    3    3    0    0 -0.21765328224E+02  0.28904056001E+02  0.68269142524E+01  0.36820927802E+02  0.00000000000E+00 0. -1.
         11    1    4    4    0    0 -0.23902229506E+01 -0.54679227540E+01  0.42100681128E+00  0.59823567257E+01  0.51100000000E-03 0. -1.
        -11    1    4    4    0    0  0.31086385509E+02 -0.15334921890E+02  0.13486196548E+01  0.34689219776E+02  0.51100000000E-03 0.  1.
         12    1    4    4    0    0 -0.69308343352E+01 -0.81012113572E+01 -0.85965407185E+01  0.13695495696E+02  0.00000000000E+00 0. -1.
</event>
<event>
 8    1  0.1269154E-006  0.9118800E+02  0.7816164E-02  0.1184000E+00
        -11   -1    0    0    0    0  0.00000000000E+00  0.00000000000E+00  0.45593999997E+02  0.45594000000E+02  0.51100000000E-03 0. -1.
         11   -1    0    0    0    0 -0.00000000000E+00 -0.00000000000E+00 -0.45593999997E+02  0.45594000000E+02  0.51100000000E-03 0.  1.
         23    2    1    2    0    0 -0.35527136788E-14 -0.17763568394E-14  0.00000000000E+00  0.91188000000E+02  0.91188000000E+02 0.  0.
    9900012    2    3    3    0    0 -0.28417338291E+02 -0.11673247766E+02 -0.20297061835E+02  0.54367074589E+02  0.39999978141E+02 0.  0.
         12    1    3    3    0    0  0.28417338291E+02  0.11673247766E+02  0.20297061835E+02  0.36820925411E+02  0.00000000000E+00 0. -1.
         11    1    4    4    0    0 -0.33134291964E+01 -0.96086177204E+01  0.77081162070E+01  0.12756151585E+02  0.51100000000E-03 0. -1.
        -11    1    4    4    0    0 -0.92836803144E+01  0.78059852721E+01 -0.11057249639E+02  0.16412888109E+02  0.51100000000E-03 0.  1.
        -12    1    4    4    0    0 -0.15820228780E+02 -0.98706153180E+01 -0.16947928403E+02  0.25198034895E+02  0.00000000000E+00 0.  1.
</event>
<event>
 8    1  0.1269154E-006  0.9118800E+02  0.7816164E-02  0.1184000E+00
        -11   -1    0    0    0    0  0.00000000000E+00  0.00000000000E+00  0.45593999997E+02  0.45594000000E+02  0.51100000000E-03 0. -1.
         11   -1    0    0    0    0 -0.00000000000E+00 -0.00000000000E+00 -0.45593999997E+02  0.45594000000E+02  0.51100000000E-03 0.  1.
         23    2    1    2    0    0  0.00000000000E+00 -0.17763568394E-14  0.00000000000E+00  0.91188000000E+02  0.91188000000E+02 0.  0.
    9900012    2    3    3    0    0  0.42638392713E+01  0.11784361619E+02  0.34622570848E+02  0.54367164645E+02  0.40000183440E+02 0.  0.
        -12    1    3    3    0    0 -0.42638392713E+01 -0.11784361619E+02 -0.34622570848E+02  0.36820835355E+02  0.00000000000E+00 0.  1.
         11    1    4    4    0    0  0.10682473686E+02 -0.10076487182E+02  0.12406129227E+02  0.19224018327E+02  0.51100000000E-03 0. -1.
        -11    1    4    4    0    0 -0.52505678991E+00  0.11772533179E+02  0.22317365659E+01  0.11993701282E+02  0.51100000000E-03 0.  1.
         12    1    4    4    0    0 -0.58935776252E+01  0.10088315622E+02  0.19984705055E+02  0.23149445036E+02  0.00000000000E+00 0. -1.
</event>
<event>
 8    1  0.1269154E-006  0.9118800E+02  0.7816164E-02  0.1184000E+00
        -11   -1    0    0    0    0  0.00000000000E+00  0.00000000000E+00  0.45593999997E+02  0.45594000000E+02  0.51100000000E-03 0.  1.
         11   -1    0    0    0    0 -0.00000000000E+00 -0.00000000000E+00 -0.45593999997E+02  0.45594000000E+02  0.51100000000E-03 0. -1.
         23    2    1    2    0    0 -0.71054273576E-14 -0.35527136788E-14 -0.17763568394E-14  0.91188000000E+02  0.91188000000E+02 0.  0.
    9900012    2    3    3    0    0 -0.25339760130E+02 -0.22772089511E+02 -0.13968632968E+02  0.54366889056E+02  0.39999555179E+02 0.  0.
        -12    1    3    3    0    0  0.25339760130E+02  0.22772089511E+02  0.13968632968E+02  0.36821110944E+02  0.00000000000E+00 0.  1.
         11    1    4    4    0    0 -0.27082097732E+02 -0.65563647594E+01 -0.93079684892E+01  0.29377954559E+02  0.51100000000E-03 0.  1.
        -11    1    4    4    0    0 -0.26586779388E+01 -0.12486656066E+02 -0.10685195364E+02  0.16648079418E+02  0.51100000000E-03 0. -1.
         12    1    4    4    0    0  0.44010155409E+01 -0.37290686855E+01  0.60245308850E+01  0.83408550783E+01  0.00000000000E+00 0. -1.
</event>
<event>
 8    1  0.1269154E-006  0.9118800E+02  0.7816164E-02  0.1184000E+00
        -11   -1    0    0    0    0  0.00000000000E+00  0.00000000000E+00  0.45593999997E+02  0.45594000000E+02  0.51100000000E-03 0.  1.
         11   -1    0    0    0    0 -0.00000000000E+00 -0.00000000000E+00 -0.45593999997E+02  0.45594000000E+02  0.51100000000E-03 0. -1.
         23    2    1    2    0    0 -0.88817841970E-15  0.00000000000E+00  0.35527136788E-14  0.91188000000E+02  0.91188000000E+02 0.  0.
    9900012    2    3    3    0    0 -0.78129406284E+01 -0.21432170171E+02 -0.28903279131E+02  0.54367088767E+02  0.40000010461E+02 0.  0.
        -12    1    3    3    0    0  0.78129406284E+01  0.21432170171E+02  0.28903279131E+02  0.36820911233E+02  0.00000000000E+00 0.  1.
         11    1    4    4    0    0  0.21388996141E+00 -0.21630344123E+02 -0.22751194922E+01  0.21750717339E+02  0.51100000000E-03 0. -1.
        -11    1    4    4    0    0  0.35693404661E+01 -0.45117626260E+01 -0.49731874753E+01  0.76045241325E+01  0.51100000000E-03 0.  1.
         12    1    4    4    0    0 -0.11596171056E+02  0.47099365774E+01 -0.21654972164E+02  0.25011847296E+02  0.00000000000E+00 0. -1.
</event>
<event>
 8    1  0.1269154E-006  0.9118800E+02  0.7816164E-02  0.1184000E+00
        -11   -1    0    0    0    0  0.00000000000E+00  0.00000000000E+00  0.45593999997E+02  0.45594000000E+02  0.51100000000E-03 0. -1.
         11   -1    0    0    0    0 -0.00000000000E+00 -0.00000000000E+00 -0.45593999997E+02  0.45594000000E+02  0.51100000000E-03 0.  1.
         23    2    1    2    0    0 -0.35527136788E-14  0.00000000000E+00 -0.88817841970E-15  0.91188000000E+02  0.91188000000E+02 0.  0.
    9900012    2    3    3    0    0 -0.13895511754E+02 -0.33784312210E+02 -0.46167966075E+01  0.54367084622E+02  0.40000001012E+02 0.  0.
         12    1    3    3    0    0  0.13895511754E+02  0.33784312210E+02  0.46167966075E+01  0.36820915378E+02  0.00000000000E+00 0. -1.
         11    1    4    4    0    0 -0.89195312188E+01 -0.19984173884E+01  0.41999676737E+01  0.10059395506E+02  0.51100000000E-03 0. -1.
        -11    1    4    4    0    0 -0.22058564287E+01 -0.16102454678E+02  0.10440994285E+02  0.19317588130E+02  0.51100000000E-03 0.  1.
        -12    1    4    4    0    0 -0.27701241060E+01 -0.15683440144E+02 -0.19257758566E+02  0.24990100986E+02  0.00000000000E+00 0.  1.
</event>
<event>
 8    1  0.1269154E-006  0.9118800E+02  0.7816164E-02  0.1184000E+00
        -11   -1    0    0    0    0  0.00000000000E+00  0.00000000000E+00  0.45593999997E+02  0.45594000000E+02  0.51100000000E-03 0. -1.
         11   -1    0    0    0    0 -0.00000000000E+00 -0.00000000000E+00 -0.45593999997E+02  0.45594000000E+02  0.51100000000E-03 0.  1.
         23    2    1    2    0    0 -0.71054273576E-14 -0.17763568394E-14  0.00000000000E+00  0.91188000000E+02  0.91188000000E+02 0.  0.
    9900012    2    3    3    0    0  0.33531186220E+02  0.10530818247E+02 -0.10979095787E+02  0.54367093893E+02  0.40000022148E+02 0.  0.
        -12    1    3    3    0    0 -0.33531186220E+02 -0.10530818247E+02  0.10979095787E+02  0.36820906107E+02  0.00000000000E+00 0.  1.
         11    1    4    4    0    0  0.30091304996E+01 -0.82811098098E+01  0.41904233466E+01  0.97566025916E+01  0.51100000000E-03 0. -1.
        -11    1    4    4    0    0  0.10393507723E+02  0.15930888755E+02  0.35988577032E+00  0.19024924108E+02  0.51100000000E-03 0.  1.
        -12    1    4    4    0    0  0.20128547997E+02  0.28810393018E+01 -0.15529404904E+02  0.25585567193E+02  0.00000000000E+00 0.  1.
</event>
<event>
 8    1  0.1269154E-006  0.9118800E+02  0.7816164E-02  0.1184000E+00
        -11   -1    0    0    0    0  0.00000000000E+00  0.00000000000E+00  0.45593999997E+02  0.45594000000E+02  0.51100000000E-03 0.  1.
         11   -1    0    0    0    0 -0.00000000000E+00 -0.00000000000E+00 -0.45593999997E+02  0.45594000000E+02  0.51100000000E-03 0. -1.
         23    2    1    2    0    0  0.69388939039E-15 -0.17763568394E-14  0.00000000000E+00  0.91188000000E+02  0.91188000000E+02 0.  0.
    9900012    2    3    3    0    0 -0.23899720136E+00  0.57807413539E+01 -0.36363517861E+02  0.54367088530E+02  0.40000009922E+02 0.  0.
        -12    1    3    3    0    0  0.23899720136E+00 -0.57807413539E+01  0.36363517861E+02  0.36820911470E+02  0.00000000000E+00 0.  1.
         11    1    4    4    0    0 -0.53720284420E+01 -0.69010956385E+01 -0.17145963527E+02  0.19247542080E+02  0.51100000000E-03 0. -1.
        -11    1    4    4    0    0 -0.59480287296E+01  0.13271140012E+02 -0.20628874298E+01  0.14688693196E+02  0.51100000000E-03 0.  1.
         12    1    4    4    0    0  0.11081059970E+02 -0.58930301999E+00 -0.17154666904E+02  0.20430853254E+02  0.00000000000E+00 0. -1.
</event>
<event>
 8    1  0.1269154E-006  0.9118800E+02  0.7816164E-02  0.1184000E+00
        -11   -1    0    0    0    0  0.00000000000E+00  0.00000000000E+00  0.45593999997E+02  0.45594000000E+02  0.51100000000E-03 0.  1.
         11   -1    0    0    0    0 -0.00000000000E+00 -0.00000000000E+00 -0.45593999997E+02  0.45594000000E+02  0.51100000000E-03 0. -1.
         23    2    1    2    0    0  0.00000000000E+00  0.17763568394E-14  0.00000000000E+00  0.91188000000E+02  0.91188000000E+02 0.  0.
    9900012    2    3    3    0    0 -0.85383423013E+01 -0.84721957704E+01 -0.34800849099E+02  0.54367075399E+02  0.39999979987E+02 0.  0.
        -12    1    3    3    0    0  0.85383423013E+01  0.84721957704E+01  0.34800849099E+02  0.36820924601E+02  0.00000000000E+00 0.  1.
         11    1    4    4    0    0 -0.12330816954E+02  0.70795452001E+01 -0.31230807645E+02  0.34315191292E+02  0.51100000000E-03 0. -1.
        -11    1    4    4    0    0  0.60151774515E+01 -0.40951504509E+01 -0.41319859469E+01  0.83681494439E+01  0.51100000000E-03 0.  1.
         12    1    4    4    0    0 -0.22227027983E+01 -0.11456590520E+02  0.56194449251E+00  0.11683734663E+02  0.00000000000E+00 0. -1.
</event>
<event>
 8    1  0.1269154E-006  0.9118800E+02  0.7816164E-02  0.1184000E+00
        -11   -1    0    0    0    0  0.00000000000E+00  0.00000000000E+00  0.45593999997E+02  0.45594000000E+02  0.51100000000E-03 0. -1.
         11   -1    0    0    0    0 -0.00000000000E+00 -0.00000000000E+00 -0.45593999997E+02  0.45594000000E+02  0.51100000000E-03 0.  1.
         23    2    1    2    0    0  0.00000000000E+00  0.00000000000E+00  0.35527136788E-14  0.91188000000E+02  0.91188000000E+02 0.  0.
    9900012    2    3    3    0    0  0.23064331621E+02  0.20048655789E+02 -0.20539430424E+02  0.54367079395E+02  0.39999989098E+02 0.  0.
         12    1    3    3    0    0 -0.23064331621E+02 -0.20048655789E+02  0.20539430424E+02  0.36820920605E+02  0.00000000000E+00 0. -1.
         11    1    4    4    0    0 -0.22844599146E+01  0.14865631256E+02  0.96541409733E+00  0.15071090683E+02  0.51100000000E-03 0. -1.
        -11    1    4    4    0    0  0.78626882106E+01  0.99646994047E+01 -0.23242042290E+01  0.12904225110E+02  0.51100000000E-03 0.  1.
         12    1    4    4    0    0  0.17486103325E+02 -0.47816748715E+01 -0.19180640292E+02  0.26391763603E+02  0.00000000000E+00 0. -1.
</event>
<event>
 8    1  0.1269154E-006  0.9118800E+02  0.7816164E-02  0.1184000E+00
        -11   -1    0    0    0    0  0.00000000000E+00  0.00000000000E+00  0.45593999997E+02  0.45594000000E+02  0.51100000000E-03 0.  1.
         11   -1    0    0    0    0 -0.00000000000E+00 -0.00000000000E+00 -0.45593999997E+02  0.45594000000E+02  0.51100000000E-03 0. -1.
         23    2    1    2    0    0 -0.10658141036E-13 -0.88817841970E-15 -0.35527136788E-14  0.91188000000E+02  0.91188000000E+02 0.  0.
    9900012    2    3    3    0    0  0.28656280653E+02 -0.54623139090E+01  0.22466846608E+02  0.54367102528E+02  0.40000041833E+02 0.  0.
         12    1    3    3    0    0 -0.28656280653E+02  0.54623139090E+01 -0.22466846608E+02  0.36820897472E+02  0.00000000000E+00 0. -1.
         11    1    4    4    0    0 -0.50750113638E+01  0.46960770388E+01 -0.33449418600E+01  0.76809840649E+01  0.51100000000E-03 0. -1.
        -11    1    4    4    0    0  0.29158557020E+02 -0.13923408262E+02  0.18350207089E+02  0.37159290165E+02  0.51100000000E-03 0.  1.
         12    1    4    4    0    0  0.45727349971E+01  0.37650173141E+01  0.74615813793E+01  0.95268282975E+01  0.00000000000E+00 0. -1.
</event>
<event>
 8    1  0.1269154E-006  0.9118800E+02  0.7816164E-02  0.1184000E+00
        -11   -1    0    0    0    0  0.00000000000E+00  0.00000000000E+00  0.45593999997E+02  0.45594000000E+02  0.51100000000E-03 0. -1.
         11   -1    0    0    0    0 -0.00000000000E+00 -0.00000000000E+00 -0.45593999997E+02  0.45594000000E+02  0.51100000000E-03 0.  1.
         23    2    1    2    0    0 -0.10658141036E-13 -0.35527136788E-14  0.00000000000E+00  0.91188000000E+02  0.91188000000E+02 0.  0.
    9900012    2    3    3    0    0 -0.27913921343E+02 -0.23916438246E+02 -0.21439603851E+01  0.54367087610E+02  0.40000007824E+02 0.  0.
         12    1    3    3    0    0  0.27913921343E+02  0.23916438246E+02  0.21439603851E+01  0.36820912390E+02  0.00000000000E+00 0. -1.
         11    1    4    4    0    0  0.54151386845E+01 -0.11897996940E+01  0.69961449536E+01  0.89266676177E+01  0.51100000000E-03 0. -1.
        -11    1    4    4    0    0 -0.14985571949E+02  0.23344697305E+00 -0.14144027776E+01  0.15053982849E+02  0.51100000000E-03 0.  1.
         12    1    4    4    0    0 -0.18343488078E+02 -0.22960085525E+02 -0.77257025610E+01  0.30386437143E+02  0.00000000000E+00 0. -1.
</event>
<event>
 8    1  0.1269154E-006  0.9118800E+02  0.7816164E-02  0.1184000E+00
        -11   -1    0    0    0    0  0.00000000000E+00  0.00000000000E+00  0.45593999997E+02  0.45594000000E+02  0.51100000000E-03 0.  1.
         11   -1    0    0    0    0 -0.00000000000E+00 -0.00000000000E+00 -0.45593999997E+02  0.45594000000E+02  0.51100000000E-03 0. -1.
         23    2    1    2    0    0  0.35527136788E-14  0.00000000000E+00  0.00000000000E+00  0.91188000000E+02  0.91188000000E+02 0.  0.
    9900012    2    3    3    0    0 -0.27517923390E+02 -0.56050264794E+01 -0.23814495665E+02  0.54367046273E+02  0.39999913589E+02 0.  0.
        -12    1    3    3    0    0  0.27517923390E+02  0.56050264794E+01  0.23814495665E+02  0.36820953727E+02  0.00000000000E+00 0.  1.
         11    1    4    4    0    0 -0.12008565252E+02 -0.65222899033E+01  0.69424979002E+01  0.15327889037E+02  0.51100000000E-03 0. -1.
        -11    1    4    4    0    0 -0.74083005765E+01 -0.57478462820E+01 -0.38080548220E+01  0.10120372330E+02  0.51100000000E-03 0.  1.
         12    1    4    4    0    0 -0.81010575624E+01  0.66651097060E+01 -0.26948938743E+02  0.28918784906E+02  0.00000000000E+00 0. -1.
</event>
<event>
 8    1  0.1269154E-006  0.9118800E+02  0.7816164E-02  0.1184000E+00
        -11   -1    0    0    0    0  0.00000000000E+00  0.00000000000E+00  0.45593999997E+02  0.45594000000E+02  0.51100000000E-03 0.  1.
         11   -1    0    0    0    0 -0.00000000000E+00 -0.00000000000E+00 -0.45593999997E+02  0.45594000000E+02  0.51100000000E-03 0. -1.
         23    2    1    2    0    0  0.17763568394E-14  0.00000000000E+00 -0.35527136788E-14  0.91188000000E+02  0.91188000000E+02 0.  0.
    9900012    2    3    3    0    0 -0.31695001106E+01  0.18178565647E+02  0.31863378380E+02  0.54367070331E+02  0.39999968434E+02 0.  0.
         12    1    3    3    0    0  0.31695001106E+01 -0.18178565647E+02 -0.31863378380E+02  0.36820929669E+02  0.00000000000E+00 0. -1.
         11    1    4    4    0    0 -0.37796233128E+01  0.12508194913E+02  0.48342597834E+01  0.13932356595E+02  0.51100000000E-03 0. -1.
        -11    1    4    4    0    0 -0.97500217244E+01 -0.24231216497E+01 -0.36076834237E+00  0.10053088889E+02  0.51100000000E-03 0.  1.
        -12    1    4    4    0    0  0.10360144927E+02  0.80934923832E+01  0.27389886939E+02  0.30381624847E+02  0.00000000000E+00 0.  1.
</event>
<event>
 8    1  0.1269154E-006  0.9118800E+02  0.7816164E-02  0.1184000E+00
        -11   -1    0    0    0    0  0.00000000000E+00  0.00000000000E+00  0.45593999997E+02  0.45594000000E+02  0.51100000000E-03 0. -1.
         11   -1    0    0    0    0 -0.00000000000E+00 -0.00000000000E+00 -0.45593999997E+02  0.45594000000E+02  0.51100000000E-03 0.  1.
         23    2    1    2    0    0  0.00000000000E+00  0.00000000000E+00 -0.17763568394E-14  0.91188000000E+02  0.91188000000E+02 0.  0.
    9900012    2    3    3    0    0  0.23009967932E+02  0.25483650884E+02 -0.13300540705E+02  0.54367089234E+02  0.40000011526E+02 0.  0.
         12    1    3    3    0    0 -0.23009967932E+02 -0.25483650884E+02  0.13300540705E+02  0.36820910766E+02  0.00000000000E+00 0. -1.
         11    1    4    4    0    0 -0.12739142886E+01  0.49668718026E+01 -0.55500326901E+01  0.75561588284E+01  0.51100000000E-03 0. -1.
        -11    1    4    4    0    0  0.71316574046E+01  0.22384130130E+02 -0.15238881104E+02  0.28002380552E+02  0.51100000000E-03 0.  1.
         12    1    4    4    0    0  0.17152224816E+02 -0.18673510478E+01  0.74883730894E+01  0.18808549853E+02  0.00000000000E+00 0. -1.
</event>
<event>
 8    1  0.1269154E-006  0.9118800E+02  0.7816164E-02  0.1184000E+00
        -11   -1    0    0    0    0  0.00000000000E+00  0.00000000000E+00  0.45593999997E+02  0.45594000000E+02  0.51100000000E-03 0.  1.
         11   -1    0    0    0    0 -0.00000000000E+00 -0.00000000000E+00 -0.45593999997E+02  0.45594000000E+02  0.51100000000E-03 0. -1.
         23    2    1    2    0    0  0.00000000000E+00  0.00000000000E+00  0.00000000000E+00  0.91188000000E+02  0.91188000000E+02 0.  0.
    9900012    2    3    3    0    0 -0.14639197644E+01  0.34956948388E+02  0.11473757805E+02  0.54367103489E+02  0.40000044024E+02 0.  0.
         12    1    3    3    0    0  0.14639197644E+01 -0.34956948388E+02 -0.11473757805E+02  0.36820896511E+02  0.00000000000E+00 0. -1.
         11    1    4    4    0    0 -0.20915447277E+00  0.17898612642E+02  0.47310509099E+01  0.18514505748E+02  0.51100000000E-03 0. -1.
        -11    1    4    4    0    0  0.27938959368E+01  0.87994240447E+01  0.18647898745E+02  0.20808167768E+02  0.51100000000E-03 0.  1.
         12    1    4    4    0    0 -0.40486612285E+01  0.82589117014E+01 -0.11905191850E+02  0.15044429973E+02  0.00000000000E+00 0. -1.
</event>
<event>
 8    1  0.1269154E-006  0.9118800E+02  0.7816164E-02  0.1184000E+00
        -11   -1    0    0    0    0  0.00000000000E+00  0.00000000000E+00  0.45593999997E+02  0.45594000000E+02  0.51100000000E-03 0.  1.
         11   -1    0    0    0    0 -0.00000000000E+00 -0.00000000000E+00 -0.45593999997E+02  0.45594000000E+02  0.51100000000E-03 0. -1.
         23    2    1    2    0    0  0.00000000000E+00  0.00000000000E+00  0.00000000000E+00  0.91188000000E+02  0.91188000000E+02 0.  0.
    9900012    2    3    3    0    0  0.24775264256E+02 -0.22604732535E+02 -0.15198389710E+02  0.54367099662E+02  0.40000035299E+02 0.  0.
        -12    1    3    3    0    0 -0.24775264256E+02  0.22604732535E+02  0.15198389710E+02  0.36820900338E+02  0.00000000000E+00 0.  1.
         11    1    4    4    0    0  0.73138861502E+01 -0.22835416487E+02 -0.94121239350E+00  0.23996563457E+02  0.51100000000E-03 0. -1.
        -11    1    4    4    0    0 -0.13751367491E+01 -0.61984794396E+01 -0.62728981193E+01  0.89253234965E+01  0.51100000000E-03 0.  1.
         12    1    4    4    0    0  0.18836514855E+02  0.64291633915E+01 -0.79842791973E+01  0.21445212708E+02  0.00000000000E+00 0. -1.
</event>
<event>
 8    1  0.1269154E-006  0.9118800E+02  0.7816164E-02  0.1184000E+00
        -11   -1    0    0    0    0  0.00000000000E+00  0.00000000000E+00  0.45593999997E+02  0.45594000000E+02  0.51100000000E-03 0.  1.
         11   -1    0    0    0    0 -0.00000000000E+00 -0.00000000000E+00 -0.45593999997E+02  0.45594000000E+02  0.51100000000E-03 0. -1.
         23    2    1    2    0    0  0.00000000000E+00 -0.35527136788E-14 -0.35527136788E-14  0.91188000000E+02  0.91188000000E+02 0.  0.
    9900012    2    3    3    0    0 -0.23307112164E+02 -0.18615428126E+02 -0.21587591397E+02  0.54367085507E+02  0.40000003031E+02 0.  0.
        -12    1    3    3    0    0  0.23307112164E+02  0.18615428126E+02  0.21587591397E+02  0.36820914493E+02  0.00000000000E+00 0.  1.
         11    1    4    4    0    0 -0.12428863599E+02  0.11248624277E+01 -0.94437830466E+01  0.15650143908E+02  0.51100000000E-03 0. -1.
        -11    1    4    4    0    0 -0.47302936641E+01  0.72686189783E+01 -0.53722953628E+01  0.10201473312E+02  0.51100000000E-03 0.  1.
        -12    1    4    4    0    0 -0.61479549012E+01 -0.27008909531E+02 -0.67715129877E+01  0.28515468288E+02  0.00000000000E+00 0.  1.
</event>
<event>
 8    1  0.1269154E-006  0.9118800E+02  0.7816164E-02  0.1184000E+00
        -11   -1    0    0    0    0  0.00000000000E+00  0.00000000000E+00  0.45593999997E+02  0.45594000000E+02  0.51100000000E-03 0. -1.
         11   -1    0    0    0    0 -0.00000000000E+00 -0.00000000000E+00 -0.45593999997E+02  0.45594000000E+02  0.51100000000E-03 0.  1.
         23    2    1    2    0    0  0.00000000000E+00  0.35527136788E-14 -0.88817841970E-15  0.91188000000E+02  0.91188000000E+02 0.  0.
    9900012    2    3    3    0    0  0.28533235283E+02 -0.23071194237E+02  0.30585384854E+01  0.54367079630E+02  0.39999989632E+02 0.  0.
         12    1    3    3    0    0 -0.28533235283E+02  0.23071194237E+02 -0.30585384854E+01  0.36820920370E+02  0.00000000000E+00 0. -1.
         11    1    4    4    0    0  0.15499676194E+02  0.52934646399E+00  0.13604854489E+02  0.20630371681E+02  0.51100000000E-03 0. -1.
        -11    1    4    4    0    0  0.17343324270E+02 -0.18710346576E+02 -0.79743886414E+01  0.26729362884E+02  0.51100000000E-03 0.  1.
         12    1    4    4    0    0 -0.43097651805E+01 -0.48901941252E+01 -0.25719273620E+01  0.70073450642E+01  0.00000000000E+00 0. -1.
</event>
<event>
 8    1  0.1269154E-006  0.9118800E+02  0.7816164E-02  0.1184000E+00
        -11   -1    0    0    0    0  0.00000000000E+00  0.00000000000E+00  0.45593999997E+02  0.45594000000E+02  0.51100000000E-03 0. -1.
         11   -1    0    0    0    0 -0.00000000000E+00 -0.00000000000E+00 -0.45593999997E+02  0.45594000000E+02  0.51100000000E-03 0.  1.
         23    2    1    2    0    0  0.00000000000E+00  0.71470607210E-15  0.35527136788E-14  0.91188000000E+02  0.91188000000E+02 0.  0.
    9900012    2    3    3    0    0  0.22142241082E+02  0.46771610875E-01  0.29419361584E+02  0.54367083883E+02  0.39999999327E+02 0.  0.
        -12    1    3    3    0    0 -0.22142241082E+02 -0.46771610875E-01 -0.29419361584E+02  0.36820916117E+02  0.00000000000E+00 0.  1.
         11    1    4    4    0    0  0.89078898956E+01 -0.13370305247E+02  0.98335743736E+01  0.18836527016E+02  0.51100000000E-03 0. -1.
        -11    1    4    4    0    0 -0.61635337374E+01  0.16606266764E+01  0.15950611240E+01  0.65795934024E+01  0.51100000000E-03 0.  1.
         12    1    4    4    0    0  0.19397884924E+02  0.11756450182E+02  0.17990726086E+02  0.28950963464E+02  0.00000000000E+00 0. -1.
</event>
<event>
 8    1  0.1269154E-006  0.9118800E+02  0.7816164E-02  0.1184000E+00
        -11   -1    0    0    0    0  0.00000000000E+00  0.00000000000E+00  0.45593999997E+02  0.45594000000E+02  0.51100000000E-03 0. -1.
         11   -1    0    0    0    0 -0.00000000000E+00 -0.00000000000E+00 -0.45593999997E+02  0.45594000000E+02  0.51100000000E-03 0.  1.
         23    2    1    2    0    0  0.35527136788E-14  0.00000000000E+00  0.00000000000E+00  0.91188000000E+02  0.91188000000E+02 0.  0.
    9900012    2    3    3    0    0  0.31385332854E+02 -0.16239953770E+02  0.10344328107E+02  0.54367077404E+02  0.39999984558E+02 0.  0.
        -12    1    3    3    0    0 -0.31385332854E+02  0.16239953770E+02 -0.10344328107E+02  0.36820922596E+02  0.00000000000E+00 0.  1.
         11    1    4    4    0    0 -0.14233176707E+01 -0.97804659030E+00  0.35079936661E+01  0.39100419623E+01  0.51100000000E-03 0. -1.
        -11    1    4    4    0    0  0.32532412631E+02  0.18326350016E+01  0.71420111326E+01  0.33357529074E+02  0.51100000000E-03 0.  1.
        -12    1    4    4    0    0  0.27623789398E+00 -0.17094542182E+02 -0.30567669159E+00  0.17099506368E+02  0.00000000000E+00 0.  1.
</event>
<event>
 8    1  0.1269154E-006  0.9118800E+02  0.7816164E-02  0.1184000E+00
        -11   -1    0    0    0    0  0.00000000000E+00  0.00000000000E+00  0.45593999997E+02  0.45594000000E+02  0.51100000000E-03 0. -1.
         11   -1    0    0    0    0 -0.00000000000E+00 -0.00000000000E+00 -0.45593999997E+02  0.45594000000E+02  0.51100000000E-03 0.  1.
         23    2    1    2    0    0  0.35527136788E-14  0.22204460493E-15  0.35527136788E-14  0.91188000000E+02  0.91188000000E+02 0.  0.
    9900012    2    3    3    0    0  0.20175014121E+02  0.38294106793E+00 -0.30799407296E+02  0.54367063993E+02  0.39999953984E+02 0.  0.
         12    1    3    3    0    0 -0.20175014121E+02 -0.38294106793E+00  0.30799407296E+02  0.36820936007E+02  0.00000000000E+00 0. -1.
         11    1    4    4    0    0 -0.26927656377E+01 -0.52013901650E+01 -0.63550048707E-01  0.58574299226E+01  0.51100000000E-03 0. -1.
        -11    1    4    4    0    0  0.11977094026E+02 -0.11896564071E+02 -0.15127793664E+02  0.22667800056E+02  0.51100000000E-03 0.  1.
         12    1    4    4    0    0  0.10890685733E+02  0.17480895304E+02 -0.15608063583E+02  0.25841834014E+02  0.00000000000E+00 0. -1.
</event>
<event>
 8    1  0.1269154E-006  0.9118800E+02  0.7816164E-02  0.1184000E+00
        -11   -1    0    0    0    0  0.00000000000E+00  0.00000000000E+00  0.45593999997E+02  0.45594000000E+02  0.51100000000E-03 0. -1.
         11   -1    0    0    0    0 -0.00000000000E+00 -0.00000000000E+00 -0.45593999997E+02  0.45594000000E+02  0.51100000000E-03 0.  1.
         23    2    1    2    0    0  0.00000000000E+00 -0.35527136788E-14 -0.35527136788E-14  0.91188000000E+02  0.91188000000E+02 0.  0.
    9900012    2    3    3    0    0  0.11152371487E+02  0.17821076505E+02 -0.30229369008E+02  0.54367069700E+02  0.39999966995E+02 0.  0.
         12    1    3    3    0    0 -0.11152371487E+02 -0.17821076505E+02  0.30229369008E+02  0.36820930300E+02  0.00000000000E+00 0. -1.
         11    1    4    4    0    0 -0.47565179301E+01  0.77404169496E+01 -0.79169966929E+01  0.12050616344E+02  0.51100000000E-03 0. -1.
        -11    1    4    4    0    0 -0.71020978223E+01  0.97711583229E+01 -0.12236065998E+02  0.17194087350E+02  0.51100000000E-03 0.  1.
         12    1    4    4    0    0  0.23010987239E+02  0.30950123206E+00 -0.10076306317E+02  0.25122366006E+02  0.00000000000E+00 0. -1.
</event>
<event>
 8    1  0.1269154E-006  0.9118800E+02  0.7816164E-02  0.1184000E+00
        -11   -1    0    0    0    0  0.00000000000E+00  0.00000000000E+00  0.45593999997E+02  0.45594000000E+02  0.51100000000E-03 0.  1.
         11   -1    0    0    0    0 -0.00000000000E+00 -0.00000000000E+00 -0.45593999997E+02  0.45594000000E+02  0.51100000000E-03 0. -1.
         23    2    1    2    0    0  0.17763568394E-14  0.00000000000E+00  0.00000000000E+00  0.91188000000E+02  0.91188000000E+02 0.  0.
    9900012    2    3    3    0    0  0.12477982791E+02 -0.19623041603E+02 -0.28548490367E+02  0.54367080423E+02  0.39999991440E+02 0.  0.
        -12    1    3    3    0    0 -0.12477982791E+02  0.19623041603E+02  0.28548490367E+02  0.36820919577E+02  0.00000000000E+00 0.  1.
         11    1    4    4    0    0  0.18015509527E+02 -0.15234395538E+02  0.53311455473E+00  0.23599355973E+02  0.51100000000E-03 0. -1.
        -11    1    4    4    0    0  0.71936831168E+00  0.13474611196E+01 -0.36416835192E+01  0.39490506899E+01  0.51100000000E-03 0.  1.
         12    1    4    4    0    0 -0.62568950481E+01 -0.57361071839E+01 -0.25439921403E+02  0.26818673760E+02  0.00000000000E+00 0. -1.
</event>
<event>
 8    1  0.1269154E-006  0.9118800E+02  0.7816164E-02  0.1184000E+00
        -11   -1    0    0    0    0  0.00000000000E+00  0.00000000000E+00  0.45593999997E+02  0.45594000000E+02  0.51100000000E-03 0.  1.
         11   -1    0    0    0    0 -0.00000000000E+00 -0.00000000000E+00 -0.45593999997E+02  0.45594000000E+02  0.51100000000E-03 0. -1.
         23    2    1    2    0    0  0.00000000000E+00 -0.88817841970E-15  0.00000000000E+00  0.91188000000E+02  0.91188000000E+02 0.  0.
    9900012    2    3    3    0    0 -0.13501041341E+02  0.23926487975E+01 -0.34172737206E+02  0.54367097598E+02  0.40000030594E+02 0.  0.
        -12    1    3    3    0    0  0.13501041341E+02 -0.23926487975E+01  0.34172737206E+02  0.36820902402E+02  0.00000000000E+00 0.  1.
         11    1    4    4    0    0 -0.79795371374E+01  0.85606437007E+01 -0.13558133201E+02  0.17910349233E+02  0.51100000000E-03 0. -1.
        -11    1    4    4    0    0  0.11249253479E+02  0.11972235074E+01 -0.10960330668E+02  0.15751441095E+02  0.51100000000E-03 0.  1.
        -12    1    4    4    0    0 -0.16770757682E+02 -0.73652184106E+01 -0.96542733372E+01  0.20705307270E+02  0.00000000000E+00 0.  1.
</event>
<event>
 8    1  0.1269154E-006  0.9118800E+02  0.7816164E-02  0.1184000E+00
        -11   -1    0    0    0    0  0.00000000000E+00  0.00000000000E+00  0.45593999997E+02  0.45594000000E+02  0.51100000000E-03 0. -1.
         11   -1    0    0    0    0 -0.00000000000E+00 -0.00000000000E+00 -0.45593999997E+02  0.45594000000E+02  0.51100000000E-03 0.  1.
         23    2    1    2    0    0  0.35527136788E-14  0.35527136788E-14 -0.17763568394E-14  0.91188000000E+02  0.91188000000E+02 0.  0.
    9900012    2    3    3    0    0 -0.22839049668E+02 -0.25697263670E+02  0.13183275169E+02  0.54367213832E+02  0.40000295571E+02 0.  0.
        -12    1    3    3    0    0  0.22839049668E+02  0.25697263670E+02 -0.13183275169E+02  0.36820786168E+02  0.00000000000E+00 0.  1.
         11    1    4    4    0    0  0.33833184969E+01 -0.58954511281E+01  0.14022167721E+02  0.15582823105E+02  0.51100000000E-03 0. -1.
        -11    1    4    4    0    0 -0.11715509342E+02 -0.20302945019E+02  0.33446356438E+01  0.23678034619E+02  0.51100000000E-03 0.  1.
        -12    1    4    4    0    0 -0.14506858824E+02  0.50113247741E+00 -0.41835281958E+01  0.15106356108E+02  0.00000000000E+00 0.  1.
</event>
<event>
 8    1  0.1269154E-006  0.9118800E+02  0.7816164E-02  0.1184000E+00
        -11   -1    0    0    0    0  0.00000000000E+00  0.00000000000E+00  0.45593999997E+02  0.45594000000E+02  0.51100000000E-03 0.  1.
         11   -1    0    0    0    0 -0.00000000000E+00 -0.00000000000E+00 -0.45593999997E+02  0.45594000000E+02  0.51100000000E-03 0. -1.
         23    2    1    2    0    0  0.00000000000E+00  0.00000000000E+00  0.00000000000E+00  0.91188000000E+02  0.91188000000E+02 0.  0.
    9900012    2    3    3    0    0  0.19294836909E+02 -0.29042400231E+01 -0.31225914811E+02  0.54367039974E+02  0.39999899228E+02 0.  0.
        -12    1    3    3    0    0 -0.19294836909E+02  0.29042400231E+01  0.31225914811E+02  0.36820960026E+02  0.00000000000E+00 0.  1.
         11    1    4    4    0    0 -0.16998855832E+01 -0.11437974187E+01  0.62227148857E+01  0.65513406521E+01  0.51100000000E-03 0. -1.
        -11    1    4    4    0    0 -0.22587874102E+01 -0.22402746861E+01  0.58450137245E+00  0.32345932278E+01  0.51100000000E-03 0.  1.
         12    1    4    4    0    0  0.23253509903E+02  0.47983208168E+00 -0.38033131069E+02  0.44581106094E+02  0.00000000000E+00 0. -1.
</event>
<event>
 8    1  0.1269154E-006  0.9118800E+02  0.7816164E-02  0.1184000E+00
        -11   -1    0    0    0    0  0.00000000000E+00  0.00000000000E+00  0.45593999997E+02  0.45594000000E+02  0.51100000000E-03 0. -1.
         11   -1    0    0    0    0 -0.00000000000E+00 -0.00000000000E+00 -0.45593999997E+02  0.45594000000E+02  0.51100000000E-03 0.  1.
         23    2    1    2    0    0  0.00000000000E+00  0.88817841970E-15  0.00000000000E+00  0.91188000000E+02  0.91188000000E+02 0.  0.
    9900012    2    3    3    0    0  0.15079299723E+02 -0.27718659698E+01  0.33477026071E+02  0.54367084807E+02  0.40000001433E+02 0.  0.
        -12    1    3    3    0    0 -0.15079299723E+02  0.27718659698E+01 -0.33477026071E+02  0.36820915193E+02  0.00000000000E+00 0.  1.
         11    1    4    4    0    0  0.13710559881E+02 -0.11229424554E+01  0.30035198201E+02  0.33035641105E+02  0.51100000000E-03 0. -1.
        -11    1    4    4    0    0  0.45772843620E+01 -0.10503154531E+02  0.51227225776E+00  0.11468662100E+02  0.51100000000E-03 0.  1.
        -12    1    4    4    0    0 -0.32085445196E+01  0.88542310165E+01  0.29295556125E+01  0.98627816013E+01  0.00000000000E+00 0.  1.
</event>
<event>
 8    1  0.1269154E-006  0.9118800E+02  0.7816164E-02  0.1184000E+00
        -11   -1    0    0    0    0  0.00000000000E+00  0.00000000000E+00  0.45593999997E+02  0.45594000000E+02  0.51100000000E-03 0. -1.
         11   -1    0    0    0    0 -0.00000000000E+00 -0.00000000000E+00 -0.45593999997E+02  0.45594000000E+02  0.51100000000E-03 0.  1.
         23    2    1    2    0    0  0.00000000000E+00 -0.88817841970E-15  0.35527136788E-14  0.91188000000E+02  0.91188000000E+02 0.  0.
    9900012    2    3    3    0    0  0.19938340579E+02  0.56220812796E+01  0.30440678003E+02  0.54367080671E+02  0.39999992005E+02 0.  0.
        -12    1    3    3    0    0 -0.19938340579E+02 -0.56220812796E+01 -0.30440678003E+02  0.36820919329E+02  0.00000000000E+00 0.  1.
         11    1    4    4    0    0  0.77171728616E+01  0.11465307428E+02  0.23076574294E+02  0.26898630315E+02  0.51100000000E-03 0. -1.
        -11    1    4    4    0    0 -0.95406974569E+00 -0.66591594889E+01  0.11766017604E+02  0.13553369496E+02  0.51100000000E-03 0.  1.
         12    1    4    4    0    0  0.13175237463E+02  0.81593334043E+00 -0.44019138944E+01  0.13915080860E+02  0.00000000000E+00 0. -1.
</event>
<event>
 8    1  0.1269154E-006  0.9118800E+02  0.7816164E-02  0.1184000E+00
        -11   -1    0    0    0    0  0.00000000000E+00  0.00000000000E+00  0.45593999997E+02  0.45594000000E+02  0.51100000000E-03 0.  1.
         11   -1    0    0    0    0 -0.00000000000E+00 -0.00000000000E+00 -0.45593999997E+02  0.45594000000E+02  0.51100000000E-03 0. -1.
         23    2    1    2    0    0  0.35527136788E-14  0.35527136788E-14  0.00000000000E+00  0.91188000000E+02  0.91188000000E+02 0.  0.
    9900012    2    3    3    0    0 -0.29600921922E+02 -0.21863683358E+02  0.12426100348E+01  0.54367091425E+02  0.40000016521E+02 0.  0.
         12    1    3    3    0    0  0.29600921922E+02  0.21863683358E+02 -0.12426100348E+01  0.36820908575E+02  0.00000000000E+00 0. -1.
         11    1    4    4    0    0 -0.10410747272E+02 -0.84432856698E+01  0.64090280924E+01  0.14857603206E+02  0.51100000000E-03 0. -1.
        -11    1    4    4    0    0 -0.51370537294E+01  0.37594582478E+01  0.10543973708E+02  0.12316583501E+02  0.51100000000E-03 0.  1.
         12    1    4    4    0    0 -0.14053120920E+02 -0.17179855936E+02 -0.15710391765E+02  0.27192904718E+02  0.00000000000E+00 0. -1.
</event>
<event>
 8    1  0.1269154E-006  0.9118800E+02  0.7816164E-02  0.1184000E+00
        -11   -1    0    0    0    0  0.00000000000E+00  0.00000000000E+00  0.45593999997E+02  0.45594000000E+02  0.51100000000E-03 0. -1.
         11   -1    0    0    0    0 -0.00000000000E+00 -0.00000000000E+00 -0.45593999997E+02  0.45594000000E+02  0.51100000000E-03 0.  1.
         23    2    1    2    0    0 -0.35527136788E-14  0.00000000000E+00 -0.35527136788E-14  0.91188000000E+02  0.91188000000E+02 0.  0.
    9900012    2    3    3    0    0  0.17237957968E+02 -0.27092955869E+02  0.18016782312E+02  0.54367083424E+02  0.39999998281E+02 0.  0.
        -12    1    3    3    0    0 -0.17237957968E+02  0.27092955869E+02 -0.18016782312E+02  0.36820916576E+02  0.00000000000E+00 0.  1.
         11    1    4    4    0    0  0.18346259370E+02 -0.16647028737E+02  0.84563871909E+01  0.26176693512E+02  0.51100000000E-03 0. -1.
        -11    1    4    4    0    0  0.90221770668E+01  0.31484113740E+01  0.30724223238E+01  0.10037527206E+02  0.51100000000E-03 0.  1.
        -12    1    4    4    0    0 -0.10130478469E+02 -0.13594338506E+02  0.64879727970E+01  0.18152862706E+02  0.00000000000E+00 0.  1.
</event>
<event>
 8    1  0.1269154E-006  0.9118800E+02  0.7816164E-02  0.1184000E+00
        -11   -1    0    0    0    0  0.00000000000E+00  0.00000000000E+00  0.45593999997E+02  0.45594000000E+02  0.51100000000E-03 0. -1.
         11   -1    0    0    0    0 -0.00000000000E+00 -0.00000000000E+00 -0.45593999997E+02  0.45594000000E+02  0.51100000000E-03 0.  1.
         23    2    1    2    0    0  0.00000000000E+00 -0.88817841970E-15  0.00000000000E+00  0.91188000000E+02  0.91188000000E+02 0.  0.
    9900012    2    3    3    0    0  0.31998755806E+02  0.17001041330E+01 -0.18137564550E+02  0.54367055213E+02  0.39999933969E+02 0.  0.
         12    1    3    3    0    0 -0.31998755806E+02 -0.17001041330E+01  0.18137564550E+02  0.36820944787E+02  0.00000000000E+00 0. -1.
         11    1    4    4    0    0  0.45618086343E+01 -0.72763182518E+01 -0.40221907276E+01  0.94832970969E+01  0.51100000000E-03 0.  1.
        -11    1    4    4    0    0 -0.30989311216E+01 -0.54198159516E+01 -0.86763549000E+01  0.10689102566E+02  0.51100000000E-03 0. -1.
        -12    1    4    4    0    0  0.30535878293E+02  0.14396238336E+02 -0.54390189227E+01  0.34194655551E+02  0.00000000000E+00 0.  1.
</event>
<event>
 8    1  0.1269154E-006  0.9118800E+02  0.7816164E-02  0.1184000E+00
        -11   -1    0    0    0    0  0.00000000000E+00  0.00000000000E+00  0.45593999997E+02  0.45594000000E+02  0.51100000000E-03 0. -1.
         11   -1    0    0    0    0 -0.00000000000E+00 -0.00000000000E+00 -0.45593999997E+02  0.45594000000E+02  0.51100000000E-03 0.  1.
         23    2    1    2    0    0  0.00000000000E+00  0.00000000000E+00  0.35527136788E-14  0.91188000000E+02  0.91188000000E+02 0.  0.
    9900012    2    3    3    0    0  0.30862317406E+02  0.75707630912E+01  0.18600883088E+02  0.54366919881E+02  0.39999625451E+02 0.  0.
        -12    1    3    3    0    0 -0.30862317406E+02 -0.75707630912E+01 -0.18600883088E+02  0.36821080119E+02  0.00000000000E+00 0.  1.
         11    1    4    4    0    0  0.15810268652E+02  0.43815361717E+01  0.23365446777E+02  0.28550071058E+02  0.51100000000E-03 0. -1.
        -11    1    4    4    0    0  0.13642277210E+02  0.33833415854E+01 -0.11976373580E+02  0.18465975526E+02  0.51100000000E-03 0.  1.
        -12    1    4    4    0    0  0.14097715449E+01 -0.19411466592E+00  0.72118098917E+01  0.73508732968E+01  0.00000000000E+00 0.  1.
</event>
<event>
 8    1  0.1269154E-006  0.9118800E+02  0.7816164E-02  0.1184000E+00
        -11   -1    0    0    0    0  0.00000000000E+00  0.00000000000E+00  0.45593999997E+02  0.45594000000E+02  0.51100000000E-03 0.  1.
         11   -1    0    0    0    0 -0.00000000000E+00 -0.00000000000E+00 -0.45593999997E+02  0.45594000000E+02  0.51100000000E-03 0. -1.
         23    2    1    2    0    0  0.35527136788E-14  0.17763568394E-14  0.00000000000E+00  0.91188000000E+02  0.91188000000E+02 0.  0.
    9900012    2    3    3    0    0  0.13527279516E+02 -0.71289001813E+01  0.33495839160E+02  0.54367085428E+02  0.40000002850E+02 0.  0.
         12    1    3    3    0    0 -0.13527279516E+02  0.71289001813E+01 -0.33495839160E+02  0.36820914572E+02  0.00000000000E+00 0. -1.
         11    1    4    4    0    0  0.10017149576E+02  0.27856333408E+01  0.86643432442E+00  0.10433299930E+02  0.51100000000E-03 0. -1.
        -11    1    4    4    0    0 -0.21929059677E+01 -0.15387664036E+02  0.32503135691E+02  0.36028362037E+02  0.51100000000E-03 0.  1.
        -12    1    4    4    0    0  0.57030359083E+01  0.54731305141E+01  0.12626914488E+00  0.79054234607E+01  0.00000000000E+00 0.  1.
</event>
<event>
 8    1  0.1269154E-006  0.9118800E+02  0.7816164E-02  0.1184000E+00
        -11   -1    0    0    0    0  0.00000000000E+00  0.00000000000E+00  0.45593999997E+02  0.45594000000E+02  0.51100000000E-03 0.  1.
         11   -1    0    0    0    0 -0.00000000000E+00 -0.00000000000E+00 -0.45593999997E+02  0.45594000000E+02  0.51100000000E-03 0. -1.
         23    2    1    2    0    0  0.35527136788E-14  0.35527136788E-14  0.00000000000E+00  0.91188000000E+02  0.91188000000E+02 0.  0.
    9900012    2    3    3    0    0 -0.11713009828E+02  0.24333812567E+02  0.25029003555E+02  0.54367081323E+02  0.39999993492E+02 0.  0.
         12    1    3    3    0    0  0.11713009828E+02 -0.24333812567E+02 -0.25029003555E+02  0.36820918677E+02  0.00000000000E+00 0. -1.
         11    1    4    4    0    0  0.12582527137E+02  0.71908225778E+01  0.15667495738E+02  0.21342407115E+02  0.51100000000E-03 0. -1.
        -11    1    4    4    0    0 -0.19135249166E+02  0.15127340290E+02  0.11648590440E+02  0.27031164318E+02  0.51100000000E-03 0.  1.
         12    1    4    4    0    0 -0.51602877986E+01  0.20156496990E+01 -0.22870826233E+01  0.59935098898E+01  0.00000000000E+00 0. -1.
</event>
<event>
 8    1  0.1269154E-006  0.9118800E+02  0.7816164E-02  0.1184000E+00
        -11   -1    0    0    0    0  0.00000000000E+00  0.00000000000E+00  0.45593999997E+02  0.45594000000E+02  0.51100000000E-03 0. -1.
         11   -1    0    0    0    0 -0.00000000000E+00 -0.00000000000E+00 -0.45593999997E+02  0.45594000000E+02  0.51100000000E-03 0.  1.
         23    2    1    2    0    0  0.00000000000E+00  0.00000000000E+00  0.00000000000E+00  0.91188000000E+02  0.91188000000E+02 0.  0.
    9900012    2    3    3    0    0  0.13872892104E+02 -0.26034833004E+02 -0.22034239750E+02  0.54367117526E+02  0.40000076023E+02 0.  0.
         12    1    3    3    0    0 -0.13872892104E+02  0.26034833004E+02  0.22034239750E+02  0.36820882474E+02  0.00000000000E+00 0. -1.
         11    1    4    4    0    0 -0.59707225461E+01  0.64575138369E+00 -0.16812808850E+02  0.17853208795E+02  0.51100000000E-03 0. -1.
        -11    1    4    4    0    0  0.29254237269E+01 -0.14580323371E+02 -0.50760106763E+01  0.15713364319E+02  0.51100000000E-03 0.  1.
         12    1    4    4    0    0  0.16918190923E+02 -0.12100261016E+02 -0.14542022307E+00  0.20800544411E+02  0.00000000000E+00 0. -1.
</event>
<event>
 8    1  0.1269154E-006  0.9118800E+02  0.7816164E-02  0.1184000E+00
        -11   -1    0    0    0    0  0.00000000000E+00  0.00000000000E+00  0.45593999997E+02  0.45594000000E+02  0.51100000000E-03 0.  1.
         11   -1    0    0    0    0 -0.00000000000E+00 -0.00000000000E+00 -0.45593999997E+02  0.45594000000E+02  0.51100000000E-03 0. -1.
         23    2    1    2    0    0 -0.35527136788E-14 -0.71054273576E-14  0.26645352591E-14  0.91188000000E+02  0.91188000000E+02 0.  0.
    9900012    2    3    3    0    0 -0.12743824926E+02  0.33749066348E+02  0.73739198295E+01  0.54367092261E+02  0.40000018427E+02 0.  0.
        -12    1    3    3    0    0  0.12743824926E+02 -0.33749066348E+02 -0.73739198295E+01  0.36820907739E+02  0.00000000000E+00 0.  1.
         11    1    4    4    0    0  0.11279792297E+01  0.93719689199E+01 -0.28072045483E+01  0.98481742580E+01  0.51100000000E-03 0. -1.
        -11    1    4    4    0    0  0.44303070003E+01  0.26539424581E+01 -0.89069519970E+01  0.10295864453E+02  0.51100000000E-03 0.  1.
         12    1    4    4    0    0 -0.18302111156E+02  0.21723154970E+02  0.19088076375E+02  0.34223053550E+02  0.00000000000E+00 0. -1.
</event>
<event>
 8    1  0.1269154E-006  0.9118800E+02  0.7816164E-02  0.1184000E+00
        -11   -1    0    0    0    0  0.00000000000E+00  0.00000000000E+00  0.45593999997E+02  0.45594000000E+02  0.51100000000E-03 0.  1.
         11   -1    0    0    0    0 -0.00000000000E+00 -0.00000000000E+00 -0.45593999997E+02  0.45594000000E+02  0.51100000000E-03 0. -1.
         23    2    1    2    0    0 -0.35527136788E-14  0.00000000000E+00 -0.17763568394E-14  0.91188000000E+02  0.91188000000E+02 0.  0.
    9900012    2    3    3    0    0  0.26241173366E+02  0.21166576375E+02  0.14803991648E+02  0.54367064328E+02  0.39999954748E+02 0.  0.
         12    1    3    3    0    0 -0.26241173366E+02 -0.21166576375E+02 -0.14803991648E+02  0.36820935672E+02  0.00000000000E+00 0. -1.
         11    1    4    4    0    0  0.17874749256E+02  0.63813503306E+01  0.75719681311E+01  0.20434358190E+02  0.51100000000E-03 0.  1.
        -11    1    4    4    0    0  0.10077686528E+02  0.97408258100E+01  0.17466680621E+02  0.22394829435E+02  0.51100000000E-03 0. -1.
         12    1    4    4    0    0 -0.17112624179E+01  0.50444002341E+01 -0.10234657104E+02  0.11537876703E+02  0.00000000000E+00 0. -1.
</event>
<event>
 8    1  0.1269154E-006  0.9118800E+02  0.7816164E-02  0.1184000E+00
        -11   -1    0    0    0    0  0.00000000000E+00  0.00000000000E+00  0.45593999997E+02  0.45594000000E+02  0.51100000000E-03 0. -1.
         11   -1    0    0    0    0 -0.00000000000E+00 -0.00000000000E+00 -0.45593999997E+02  0.45594000000E+02  0.51100000000E-03 0.  1.
         23    2    1    2    0    0  0.00000000000E+00  0.00000000000E+00  0.17763568394E-14  0.91188000000E+02  0.91188000000E+02 0.  0.
    9900012    2    3    3    0    0  0.72274777578E+01 -0.34882905621E+02 -0.93128012914E+01  0.54367057491E+02  0.39999939163E+02 0.  0.
        -12    1    3    3    0    0 -0.72274777578E+01  0.34882905621E+02  0.93128012914E+01  0.36820942509E+02  0.00000000000E+00 0.  1.
         11    1    4    4    0    0  0.11896819289E+02 -0.22712060461E+02 -0.96172075552E+00  0.25657297337E+02  0.51100000000E-03 0. -1.
        -11    1    4    4    0    0 -0.62503961495E+01 -0.14337425390E+02  0.39401523937E+01  0.16129290746E+02  0.51100000000E-03 0.  1.
         12    1    4    4    0    0  0.15810546180E+01  0.21665802292E+01 -0.12291232930E+02  0.12580469408E+02  0.00000000000E+00 0. -1.
</event>
<event>
 8    1  0.1269154E-006  0.9118800E+02  0.7816164E-02  0.1184000E+00
        -11   -1    0    0    0    0  0.00000000000E+00  0.00000000000E+00  0.45593999997E+02  0.45594000000E+02  0.51100000000E-03 0.  1.
         11   -1    0    0    0    0 -0.00000000000E+00 -0.00000000000E+00 -0.45593999997E+02  0.45594000000E+02  0.51100000000E-03 0. -1.
         23    2    1    2    0    0  0.22204460493E-15 -0.88817841970E-15  0.00000000000E+00  0.91188000000E+02  0.91188000000E+02 0.  0.
    9900012    2    3    3    0    0  0.11783023446E+01 -0.41658429750E+01 -0.36565523175E+02  0.54367080278E+02  0.39999991111E+02 0.  0.
        -12    1    3    3    0    0 -0.11783023446E+01  0.41658429750E+01  0.36565523175E+02  0.36820919722E+02  0.00000000000E+00 0.  1.
         11    1    4    4    0    0 -0.40677601249E+01  0.95626406387E+01 -0.37485448733E+02  0.38899224098E+02  0.51100000000E-03 0. -1.
        -11    1    4    4    0    0  0.47488005790E+01 -0.10370909760E+02  0.25721953395E+01  0.11692863863E+02  0.51100000000E-03 0.  1.
         12    1    4    4    0    0  0.49726189046E+00 -0.33575738536E+01 -0.16522697809E+01  0.37749923177E+01  0.00000000000E+00 0. -1.
</event>
<event>
 8    1  0.1269154E-006  0.9118800E+02  0.7816164E-02  0.1184000E+00
        -11   -1    0    0    0    0  0.00000000000E+00  0.00000000000E+00  0.45593999997E+02  0.45594000000E+02  0.51100000000E-03 0. -1.
         11   -1    0    0    0    0 -0.00000000000E+00 -0.00000000000E+00 -0.45593999997E+02  0.45594000000E+02  0.51100000000E-03 0.  1.
         23    2    1    2    0    0 -0.35527136788E-14  0.00000000000E+00  0.00000000000E+00  0.91188000000E+02  0.91188000000E+02 0.  0.
    9900012    2    3    3    0    0 -0.19652020426E+02 -0.16806619576E+02  0.26212919633E+02  0.54367061337E+02  0.39999947929E+02 0.  0.
        -12    1    3    3    0    0  0.19652020426E+02  0.16806619576E+02 -0.26212919633E+02  0.36820938663E+02  0.00000000000E+00 0.  1.
         11    1    4    4    0    0  0.32147002758E+01 -0.14716961592E+02  0.21951567810E+02  0.26623196388E+02  0.51100000000E-03 0. -1.
        -11    1    4    4    0    0 -0.22388491030E+02  0.10097702612E+01  0.71049514880E+01  0.23510518975E+02  0.51100000000E-03 0.  1.
         12    1    4    4    0    0 -0.47822967156E+00 -0.30994282457E+01 -0.28435996654E+01  0.42333459729E+01  0.00000000000E+00 0. -1.
</event>
<event>
 8    1  0.1269154E-006  0.9118800E+02  0.7816164E-02  0.1184000E+00
        -11   -1    0    0    0    0  0.00000000000E+00  0.00000000000E+00  0.45593999997E+02  0.45594000000E+02  0.51100000000E-03 0.  1.
         11   -1    0    0    0    0 -0.00000000000E+00 -0.00000000000E+00 -0.45593999997E+02  0.45594000000E+02  0.51100000000E-03 0. -1.
         23    2    1    2    0    0  0.00000000000E+00  0.00000000000E+00  0.00000000000E+00  0.91188000000E+02  0.91188000000E+02 0.  0.
    9900012    2    3    3    0    0 -0.20783564592E+02  0.10375786133E+02  0.28568623351E+02  0.54367085628E+02  0.40000003306E+02 0.  0.
         12    1    3    3    0    0  0.20783564592E+02 -0.10375786133E+02 -0.28568623351E+02  0.36820914372E+02  0.00000000000E+00 0. -1.
         11    1    4    4    0    0 -0.10426186427E+02  0.19497932325E+02  0.11941809202E+02  0.25129296362E+02  0.51100000000E-03 0. -1.
        -11    1    4    4    0    0 -0.13448858377E+02 -0.81292903436E+01  0.19400974472E+02  0.24967077600E+02  0.51100000000E-03 0.  1.
         12    1    4    4    0    0  0.30914802116E+01 -0.99285584865E+00 -0.27741603235E+01  0.42707116662E+01  0.00000000000E+00 0. -1.
</event>
<event>
 8    1  0.1269154E-006  0.9118800E+02  0.7816164E-02  0.1184000E+00
        -11   -1    0    0    0    0  0.00000000000E+00  0.00000000000E+00  0.45593999997E+02  0.45594000000E+02  0.51100000000E-03 0.  1.
         11   -1    0    0    0    0 -0.00000000000E+00 -0.00000000000E+00 -0.45593999997E+02  0.45594000000E+02  0.51100000000E-03 0. -1.
         23    2    1    2    0    0 -0.35527136788E-14  0.00000000000E+00  0.00000000000E+00  0.91188000000E+02  0.91188000000E+02 0.  0.
    9900012    2    3    3    0    0  0.19736628748E+02 -0.22214381072E+01 -0.31004969937E+02  0.54367116491E+02  0.40000073664E+02 0.  0.
        -12    1    3    3    0    0 -0.19736628748E+02  0.22214381072E+01  0.31004969937E+02  0.36820883509E+02  0.00000000000E+00 0.  1.
         11    1    4    4    0    0  0.81986671708E+01  0.78184573813E+00 -0.23005058161E+02  0.24434854765E+02  0.51100000000E-03 0.  1.
        -11    1    4    4    0    0  0.12233999495E+02 -0.85117113208E+00 -0.16826036468E+02  0.20820920715E+02  0.51100000000E-03 0. -1.
        -12    1    4    4    0    0 -0.69603791816E+00 -0.21521127133E+01  0.88261246927E+01  0.91113410103E+01  0.00000000000E+00 0.  1.
</event>
<event>
 8    1  0.1269154E-006  0.9118800E+02  0.7816164E-02  0.1184000E+00
        -11   -1    0    0    0    0  0.00000000000E+00  0.00000000000E+00  0.45593999997E+02  0.45594000000E+02  0.51100000000E-03 0.  1.
         11   -1    0    0    0    0 -0.00000000000E+00 -0.00000000000E+00 -0.45593999997E+02  0.45594000000E+02  0.51100000000E-03 0. -1.
         23    2    1    2    0    0  0.00000000000E+00  0.00000000000E+00  0.00000000000E+00  0.91188000000E+02  0.91188000000E+02 0.  0.
    9900012    2    3    3    0    0 -0.68621627416E+01 -0.22878023553E+02 -0.28022967941E+02  0.54367082421E+02  0.39999995994E+02 0.  0.
        -12    1    3    3    0    0  0.68621627416E+01  0.22878023553E+02  0.28022967941E+02  0.36820917579E+02  0.00000000000E+00 0.  1.
         11    1    4    4    0    0 -0.53694084972E+01  0.71410628682E+00 -0.21111426792E+02  0.21795248034E+02  0.51100000000E-03 0. -1.
        -11    1    4    4    0    0  0.63254083269E+01 -0.64644494370E+01 -0.10010194435E+02  0.13490881732E+02  0.51100000000E-03 0.  1.
        -12    1    4    4    0    0 -0.78181625713E+01 -0.17127680403E+02  0.30986532872E+01  0.19080952654E+02  0.00000000000E+00 0.  1.
</event>
<event>
 8    1  0.1269154E-006  0.9118800E+02  0.7816164E-02  0.1184000E+00
        -11   -1    0    0    0    0  0.00000000000E+00  0.00000000000E+00  0.45593999997E+02  0.45594000000E+02  0.51100000000E-03 0. -1.
         11   -1    0    0    0    0 -0.00000000000E+00 -0.00000000000E+00 -0.45593999997E+02  0.45594000000E+02  0.51100000000E-03 0.  1.
         23    2    1    2    0    0  0.17763568394E-14  0.00000000000E+00  0.00000000000E+00  0.91188000000E+02  0.91188000000E+02 0.  0.
    9900012    2    3    3    0    0 -0.99909138753E+01  0.60359387155E+01 -0.34921761987E+02  0.54367076919E+02  0.39999983452E+02 0.  0.
         12    1    3    3    0    0  0.99909138753E+01 -0.60359387155E+01  0.34921761987E+02  0.36820923081E+02  0.00000000000E+00 0. -1.
         11    1    4    4    0    0  0.55929855961E+01 -0.99291979599E+01  0.75669918343E+00  0.11421166925E+02  0.51100000000E-03 0. -1.
        -11    1    4    4    0    0 -0.20974084622E+01  0.79178844868E+01 -0.11703636911E+02  0.14285206831E+02  0.51100000000E-03 0.  1.
        -12    1    4    4    0    0 -0.13486491009E+02  0.80472521885E+01 -0.23974824259E+02  0.28660703163E+02  0.00000000000E+00 0.  1.
</event>
<event>
 8    1  0.1269154E-006  0.9118800E+02  0.7816164E-02  0.1184000E+00
        -11   -1    0    0    0    0  0.00000000000E+00  0.00000000000E+00  0.45593999997E+02  0.45594000000E+02  0.51100000000E-03 0. -1.
         11   -1    0    0    0    0 -0.00000000000E+00 -0.00000000000E+00 -0.45593999997E+02  0.45594000000E+02  0.51100000000E-03 0.  1.
         23    2    1    2    0    0  0.00000000000E+00  0.88817841970E-15  0.22204460493E-14  0.91188000000E+02  0.91188000000E+02 0.  0.
    9900012    2    3    3    0    0 -0.35915433343E+02  0.71708994659E+01 -0.38000920359E+01  0.54367070478E+02  0.39999968769E+02 0.  0.
        -12    1    3    3    0    0  0.35915433343E+02 -0.71708994659E+01  0.38000920359E+01  0.36820929522E+02  0.00000000000E+00 0.  1.
         11    1    4    4    0    0 -0.15161395222E+02 -0.31428387697E+01  0.92745025328E+01  0.18048870826E+02  0.51100000000E-03 0. -1.
        -11    1    4    4    0    0 -0.22031584752E+02  0.16606716944E+01 -0.15793517162E+02  0.27158492995E+02  0.51100000000E-03 0.  1.
        -12    1    4    4    0    0  0.12775466308E+01  0.86530665412E+01  0.27189225936E+01  0.91597066563E+01  0.00000000000E+00 0.  1.
</event>
<event>
 8    1  0.1269154E-006  0.9118800E+02  0.7816164E-02  0.1184000E+00
        -11   -1    0    0    0    0  0.00000000000E+00  0.00000000000E+00  0.45593999997E+02  0.45594000000E+02  0.51100000000E-03 0.  1.
         11   -1    0    0    0    0 -0.00000000000E+00 -0.00000000000E+00 -0.45593999997E+02  0.45594000000E+02  0.51100000000E-03 0. -1.
         23    2    1    2    0    0  0.00000000000E+00  0.00000000000E+00  0.00000000000E+00  0.91188000000E+02  0.91188000000E+02 0.  0.
    9900012    2    3    3    0    0 -0.11848383250E+02  0.14649453768E+02  0.31635261591E+02  0.54367075823E+02  0.39999980953E+02 0.  0.
         12    1    3    3    0    0  0.11848383250E+02 -0.14649453768E+02 -0.31635261591E+02  0.36820924177E+02  0.00000000000E+00 0. -1.
         11    1    4    4    0    0 -0.19160108566E+02  0.75909226329E+01  0.93527732150E+01  0.22631973704E+02  0.51100000000E-03 0.  1.
        -11    1    4    4    0    0 -0.22750056009E+01  0.11041241516E+02  0.16093707353E+02  0.19649225972E+02  0.51100000000E-03 0. -1.
        -12    1    4    4    0    0  0.95867309175E+01 -0.39827103810E+01  0.61887810234E+01  0.12085876146E+02  0.00000000000E+00 0.  1.
</event>
<event>
 8    1  0.1269154E-006  0.9118800E+02  0.7816164E-02  0.1184000E+00
        -11   -1    0    0    0    0  0.00000000000E+00  0.00000000000E+00  0.45593999997E+02  0.45594000000E+02  0.51100000000E-03 0. -1.
         11   -1    0    0    0    0 -0.00000000000E+00 -0.00000000000E+00 -0.45593999997E+02  0.45594000000E+02  0.51100000000E-03 0.  1.
         23    2    1    2    0    0  0.88817841970E-15  0.00000000000E+00  0.00000000000E+00  0.91188000000E+02  0.91188000000E+02 0.  0.
    9900012    2    3    3    0    0 -0.51689265297E+01  0.17939617429E+02 -0.31736930267E+02  0.54367076360E+02  0.39999982177E+02 0.  0.
         12    1    3    3    0    0  0.51689265297E+01 -0.17939617429E+02  0.31736930267E+02  0.36820923640E+02  0.00000000000E+00 0. -1.
         11    1    4    4    0    0  0.17353640451E+01  0.11842442102E+02 -0.38124901484E+01  0.12561449148E+02  0.51100000000E-03 0. -1.
        -11    1    4    4    0    0 -0.15132944612E+02  0.94006501357E+01 -0.71105609452E+01  0.19181718192E+02  0.51100000000E-03 0.  1.
        -12    1    4    4    0    0  0.82286540372E+01 -0.33034748085E+01 -0.20813879173E+02  0.22623909019E+02  0.00000000000E+00 0.  1.
</event>
<event>
 8    1  0.1269154E-006  0.9118800E+02  0.7816164E-02  0.1184000E+00
        -11   -1    0    0    0    0  0.00000000000E+00  0.00000000000E+00  0.45593999997E+02  0.45594000000E+02  0.51100000000E-03 0.  1.
         11   -1    0    0    0    0 -0.00000000000E+00 -0.00000000000E+00 -0.45593999997E+02  0.45594000000E+02  0.51100000000E-03 0. -1.
         23    2    1    2    0    0  0.00000000000E+00  0.00000000000E+00 -0.35527136788E-14  0.91188000000E+02  0.91188000000E+02 0.  0.
    9900012    2    3    3    0    0 -0.30710921064E+02  0.25558550341E+01  0.20151586210E+02  0.54367088898E+02  0.40000010761E+02 0.  0.
         12    1    3    3    0    0  0.30710921064E+02 -0.25558550341E+01 -0.20151586210E+02  0.36820911102E+02  0.00000000000E+00 0. -1.
         11    1    4    4    0    0  0.31590133708E+01  0.64049196091E+01  0.93800008077E+01  0.11789265291E+02  0.51100000000E-03 0. -1.
        -11    1    4    4    0    0 -0.32292751590E+01  0.28987646541E+01 -0.56826538275E+01  0.71500775770E+01  0.51100000000E-03 0.  1.
        -12    1    4    4    0    0 -0.30640659276E+02 -0.67478292291E+01  0.16454239230E+02  0.35427746031E+02  0.00000000000E+00 0.  1.
</event>
<event>
 8    1  0.1269154E-006  0.9118800E+02  0.7816164E-02  0.1184000E+00
        -11   -1    0    0    0    0  0.00000000000E+00  0.00000000000E+00  0.45593999997E+02  0.45594000000E+02  0.51100000000E-03 0. -1.
         11   -1    0    0    0    0 -0.00000000000E+00 -0.00000000000E+00 -0.45593999997E+02  0.45594000000E+02  0.51100000000E-03 0.  1.
         23    2    1    2    0    0 -0.35527136788E-14  0.17763568394E-14  0.00000000000E+00  0.91188000000E+02  0.91188000000E+02 0.  0.
    9900012    2    3    3    0    0  0.26538436661E+02 -0.13928711793E+02  0.21388826395E+02  0.54367088453E+02  0.40000009745E+02 0.  0.
        -12    1    3    3    0    0 -0.26538436661E+02  0.13928711793E+02 -0.21388826395E+02  0.36820911547E+02  0.00000000000E+00 0.  1.
         11    1    4    4    0    0  0.15849033258E+02 -0.18248951937E+02  0.13981244362E+02  0.27922952855E+02  0.51100000000E-03 0. -1.
        -11    1    4    4    0    0  0.11593786414E+02  0.12270945322E+02  0.74243261042E+01  0.18442141982E+02  0.51100000000E-03 0.  1.
        -12    1    4    4    0    0 -0.90438301007E+00 -0.79507051782E+01 -0.16744071416E-01  0.80019936156E+01  0.00000000000E+00 0.  1.
</event>
<event>
 8    1  0.1269154E-006  0.9118800E+02  0.7816164E-02  0.1184000E+00
        -11   -1    0    0    0    0  0.00000000000E+00  0.00000000000E+00  0.45593999997E+02  0.45594000000E+02  0.51100000000E-03 0.  1.
         11   -1    0    0    0    0 -0.00000000000E+00 -0.00000000000E+00 -0.45593999997E+02  0.45594000000E+02  0.51100000000E-03 0. -1.
         23    2    1    2    0    0  0.35527136788E-14  0.00000000000E+00 -0.35527136788E-14  0.91188000000E+02  0.91188000000E+02 0.  0.
    9900012    2    3    3    0    0 -0.13149736427E+02 -0.30809392707E+02  0.15285480041E+02  0.54367080034E+02  0.39999990553E+02 0.  0.
         12    1    3    3    0    0  0.13149736427E+02  0.30809392707E+02 -0.15285480041E+02  0.36820919966E+02  0.00000000000E+00 0. -1.
         11    1    4    4    0    0  0.13489531523E+01 -0.39446659160E+01 -0.11997834903E+02  0.12701500164E+02  0.51100000000E-03 0. -1.
        -11    1    4    4    0    0 -0.14548829966E+01 -0.94414769141E+01  0.63730596292E+01  0.11483643157E+02  0.51100000000E-03 0.  1.
         12    1    4    4    0    0 -0.13043806583E+02 -0.17423249877E+02  0.20910255315E+02  0.30181936713E+02  0.00000000000E+00 0. -1.
</event>
<event>
 8    1  0.1269154E-006  0.9118800E+02  0.7816164E-02  0.1184000E+00
        -11   -1    0    0    0    0  0.00000000000E+00  0.00000000000E+00  0.45593999997E+02  0.45594000000E+02  0.51100000000E-03 0.  1.
         11   -1    0    0    0    0 -0.00000000000E+00 -0.00000000000E+00 -0.45593999997E+02  0.45594000000E+02  0.51100000000E-03 0. -1.
         23    2    1    2    0    0  0.35527136788E-14 -0.35527136788E-14  0.00000000000E+00  0.91188000000E+02  0.91188000000E+02 0.  0.
    9900012    2    3    3    0    0  0.31371443060E+02 -0.13691169882E+02  0.13570737047E+02  0.54367075563E+02  0.39999980360E+02 0.  0.
         12    1    3    3    0    0 -0.31371443060E+02  0.13691169882E+02 -0.13570737047E+02  0.36820924437E+02  0.00000000000E+00 0. -1.
         11    1    4    4    0    0  0.15187191919E+02 -0.17518908949E+02 -0.82829501695E+01  0.24620524627E+02  0.51100000000E-03 0. -1.
        -11    1    4    4    0    0  0.79069646174E+01 -0.39341280500E+01  0.93491869332E+01  0.12860977783E+02  0.51100000000E-03 0.  1.
        -12    1    4    4    0    0  0.82772865235E+01  0.77618671168E+01  0.12504500284E+02  0.16885573152E+02  0.00000000000E+00 0.  1.
</event>
<event>
 8    1  0.1269154E-006  0.9118800E+02  0.7816164E-02  0.1184000E+00
        -11   -1    0    0    0    0  0.00000000000E+00  0.00000000000E+00  0.45593999997E+02  0.45594000000E+02  0.51100000000E-03 0.  1.
         11   -1    0    0    0    0 -0.00000000000E+00 -0.00000000000E+00 -0.45593999997E+02  0.45594000000E+02  0.51100000000E-03 0. -1.
         23    2    1    2    0    0  0.94368957093E-15  0.00000000000E+00  0.00000000000E+00  0.91188000000E+02  0.91188000000E+02 0.  0.
    9900012    2    3    3    0    0 -0.26176376647E+00 -0.20565026130E+02  0.30541623336E+02  0.54367087789E+02  0.40000008234E+02 0.  0.
         12    1    3    3    0    0  0.26176376647E+00  0.20565026130E+02 -0.30541623336E+02  0.36820912211E+02  0.00000000000E+00 0. -1.
         11    1    4    4    0    0  0.25545137830E+01 -0.45655764872E+01 -0.84082111681E+01  0.99029311133E+01  0.51100000000E-03 0. -1.
        -11    1    4    4    0    0 -0.84984101704E+01 -0.93976842929E+01  0.24775175004E+02  0.27827122421E+02  0.51100000000E-03 0.  1.
         12    1    4    4    0    0  0.56821326210E+01 -0.66017653504E+01  0.14174659500E+02  0.16637034255E+02  0.00000000000E+00 0. -1.
</event>
<event>
 8    1  0.1269154E-006  0.9118800E+02  0.7816164E-02  0.1184000E+00
        -11   -1    0    0    0    0  0.00000000000E+00  0.00000000000E+00  0.45593999997E+02  0.45594000000E+02  0.51100000000E-03 0.  1.
         11   -1    0    0    0    0 -0.00000000000E+00 -0.00000000000E+00 -0.45593999997E+02  0.45594000000E+02  0.51100000000E-03 0. -1.
         23    2    1    2    0    0  0.00000000000E+00  0.00000000000E+00  0.88817841970E-15  0.91188000000E+02  0.91188000000E+02 0.  0.
    9900012    2    3    3    0    0  0.34778011604E+02 -0.11801171660E+02 -0.26463140495E+01  0.54367072232E+02  0.39999972767E+02 0.  0.
        -12    1    3    3    0    0 -0.34778011604E+02  0.11801171660E+02  0.26463140495E+01  0.36820927768E+02  0.00000000000E+00 0.  1.
         11    1    4    4    0    0  0.21127272801E+02 -0.14138418662E+02  0.12379878280E+02  0.28275747997E+02  0.51100000000E-03 0. -1.
        -11    1    4    4    0    0 -0.10593267750E+01  0.56677664024E+01 -0.18256031202E+01  0.60480225051E+01  0.51100000000E-03 0.  1.
        -12    1    4    4    0    0  0.14710065577E+02 -0.33305194009E+01 -0.13200589209E+02  0.20043301730E+02  0.00000000000E+00 0.  1.
</event>
<event>
 8    1  0.1269154E-006  0.9118800E+02  0.7816164E-02  0.1184000E+00
        -11   -1    0    0    0    0  0.00000000000E+00  0.00000000000E+00  0.45593999997E+02  0.45594000000E+02  0.51100000000E-03 0. -1.
         11   -1    0    0    0    0 -0.00000000000E+00 -0.00000000000E+00 -0.45593999997E+02  0.45594000000E+02  0.51100000000E-03 0.  1.
         23    2    1    2    0    0  0.13322676296E-14 -0.35527136788E-14  0.00000000000E+00  0.91188000000E+02  0.91188000000E+02 0.  0.
    9900012    2    3    3    0    0  0.35106979030E+01 -0.12941248219E+02 -0.34292546581E+02  0.54367086700E+02  0.40000005750E+02 0.  0.
         12    1    3    3    0    0 -0.35106979030E+01  0.12941248219E+02  0.34292546581E+02  0.36820913300E+02  0.00000000000E+00 0. -1.
         11    1    4    4    0    0 -0.46239513885E+01  0.10209053890E+01 -0.29976113466E+02  0.30347826167E+02  0.51100000000E-03 0. -1.
        -11    1    4    4    0    0  0.30732281861E+01 -0.17146992326E+02 -0.17369960586E+01  0.17506605407E+02  0.51100000000E-03 0.  1.
         12    1    4    4    0    0  0.50614211054E+01  0.31848387177E+01 -0.25794370560E+01  0.65126551260E+01  0.00000000000E+00 0. -1.
</event>
<event>
 8    1  0.1269154E-006  0.9118800E+02  0.7816164E-02  0.1184000E+00
        -11   -1    0    0    0    0  0.00000000000E+00  0.00000000000E+00  0.45593999997E+02  0.45594000000E+02  0.51100000000E-03 0.  1.
         11   -1    0    0    0    0 -0.00000000000E+00 -0.00000000000E+00 -0.45593999997E+02  0.45594000000E+02  0.51100000000E-03 0. -1.
         23    2    1    2    0    0  0.00000000000E+00  0.00000000000E+00  0.00000000000E+00  0.91188000000E+02  0.91188000000E+02 0.  0.
    9900012    2    3    3    0    0 -0.10723756733E+02  0.44830568429E+01  0.34938281813E+02  0.54367078051E+02  0.39999986033E+02 0.  0.
         12    1    3    3    0    0  0.10723756733E+02 -0.44830568429E+01 -0.34938281813E+02  0.36820921949E+02  0.00000000000E+00 0. -1.
         11    1    4    4    0    0 -0.24162956712E+01 -0.54926359146E+01  0.12138067812E+02  0.13540318479E+02  0.51100000000E-03 0. -1.
        -11    1    4    4    0    0  0.14333974591E+00  0.95759494090E+01  0.28868249335E+02  0.30415377250E+02  0.51100000000E-03 0.  1.
        -12    1    4    4    0    0 -0.84508008074E+01  0.39974334856E+00 -0.60680353337E+01  0.10411382321E+02  0.00000000000E+00 0.  1.
</event>
<event>
 8    1  0.1269154E-006  0.9118800E+02  0.7816164E-02  0.1184000E+00
        -11   -1    0    0    0    0  0.00000000000E+00  0.00000000000E+00  0.45593999997E+02  0.45594000000E+02  0.51100000000E-03 0.  1.
         11   -1    0    0    0    0 -0.00000000000E+00 -0.00000000000E+00 -0.45593999997E+02  0.45594000000E+02  0.51100000000E-03 0. -1.
         23    2    1    2    0    0  0.00000000000E+00  0.00000000000E+00 -0.17763568394E-14  0.91188000000E+02  0.91188000000E+02 0.  0.
    9900012    2    3    3    0    0  0.33819189362E+02 -0.30675408420E+01  0.14234962108E+02  0.54367061362E+02  0.39999947988E+02 0.  0.
         12    1    3    3    0    0 -0.33819189362E+02  0.30675408420E+01 -0.14234962108E+02  0.36820938638E+02  0.00000000000E+00 0. -1.
         11    1    4    4    0    0  0.12146556046E+02  0.13427027060E+02  0.16700197698E+02  0.24631696711E+02  0.51100000000E-03 0. -1.
        -11    1    4    4    0    0  0.12573867171E+02 -0.10016164687E+02  0.43462519652E+01  0.16652795474E+02  0.51100000000E-03 0.  1.
        -12    1    4    4    0    0  0.90987661455E+01 -0.64784032146E+01 -0.68114875548E+01  0.13082569178E+02  0.00000000000E+00 0.  1.
</event>
<event>
 8    1  0.1269154E-006  0.9118800E+02  0.7816164E-02  0.1184000E+00
        -11   -1    0    0    0    0  0.00000000000E+00  0.00000000000E+00  0.45593999997E+02  0.45594000000E+02  0.51100000000E-03 0. -1.
         11   -1    0    0    0    0 -0.00000000000E+00 -0.00000000000E+00 -0.45593999997E+02  0.45594000000E+02  0.51100000000E-03 0.  1.
         23    2    1    2    0    0  0.00000000000E+00  0.00000000000E+00 -0.35527136788E-14  0.91188000000E+02  0.91188000000E+02 0.  0.
    9900012    2    3    3    0    0  0.98089950202E+01 -0.17261440243E+02 -0.31009779259E+02  0.54367080508E+02  0.39999991633E+02 0.  0.
         12    1    3    3    0    0 -0.98089950202E+01  0.17261440243E+02  0.31009779259E+02  0.36820919492E+02  0.00000000000E+00 0. -1.
         11    1    4    4    0    0 -0.11325673370E+02 -0.48849669306E+01 -0.51311892138E+01  0.13359000045E+02  0.51100000000E-03 0. -1.
        -11    1    4    4    0    0  0.63904717801E+01 -0.13705648336E+02 -0.20014145263E+02  0.25084834796E+02  0.51100000000E-03 0.  1.
        -12    1    4    4    0    0  0.14744196610E+02  0.13291750240E+01 -0.58644447822E+01  0.15923245666E+02  0.00000000000E+00 0.  1.
</event>
<event>
 8    1  0.1269154E-006  0.9118800E+02  0.7816164E-02  0.1184000E+00
        -11   -1    0    0    0    0  0.00000000000E+00  0.00000000000E+00  0.45593999997E+02  0.45594000000E+02  0.51100000000E-03 0. -1.
         11   -1    0    0    0    0 -0.00000000000E+00 -0.00000000000E+00 -0.45593999997E+02  0.45594000000E+02  0.51100000000E-03 0.  1.
         23    2    1    2    0    0  0.35527136788E-14  0.00000000000E+00  0.00000000000E+00  0.91188000000E+02  0.91188000000E+02 0.  0.
    9900012    2    3    3    0    0 -0.25507935814E+02  0.11639688664E+02  0.23866926671E+02  0.54367254076E+02  0.40000387316E+02 0.  0.
        -12    1    3    3    0    0  0.25507935814E+02 -0.11639688664E+02 -0.23866926671E+02  0.36820745924E+02  0.00000000000E+00 0.  1.
         11    1    4    4    0    0 -0.12323335689E+02 -0.10724663750E+02  0.49738612501E+00  0.16344124579E+02  0.51100000000E-03 0. -1.
        -11    1    4    4    0    0 -0.15255952834E+01  0.34690068354E+01 -0.20203892313E+01  0.42945805732E+01  0.51100000000E-03 0.  1.
         12    1    4    4    0    0 -0.11659004842E+02  0.18895345579E+02  0.25389929777E+02  0.33728548924E+02  0.00000000000E+00 0. -1.
</event>
<event>
 8    1  0.1269154E-006  0.9118800E+02  0.7816164E-02  0.1184000E+00
        -11   -1    0    0    0    0  0.00000000000E+00  0.00000000000E+00  0.45593999997E+02  0.45594000000E+02  0.51100000000E-03 0. -1.
         11   -1    0    0    0    0 -0.00000000000E+00 -0.00000000000E+00 -0.45593999997E+02  0.45594000000E+02  0.51100000000E-03 0.  1.
         23    2    1    2    0    0  0.00000000000E+00  0.00000000000E+00  0.26645352591E-14  0.91188000000E+02  0.91188000000E+02 0.  0.
    9900012    2    3    3    0    0  0.63182963877E+01 -0.35932618094E+02  0.49705842175E+01  0.54367073616E+02  0.39999975922E+02 0.  0.
        -12    1    3    3    0    0 -0.63182963877E+01  0.35932618094E+02 -0.49705842175E+01  0.36820926384E+02  0.00000000000E+00 0.  1.
         11    1    4    4    0    0  0.14050791896E+01 -0.10715251789E+02 -0.72378234857E+01  0.13006804277E+02  0.51100000000E-03 0. -1.
        -11    1    4    4    0    0  0.11660344376E+00 -0.18358950040E+02 -0.75893804057E+01  0.19866135460E+02  0.51100000000E-03 0.  1.
         12    1    4    4    0    0  0.47966137543E+01 -0.68584162652E+01  0.19797788109E+02  0.21494133878E+02  0.00000000000E+00 0. -1.
</event>
<event>
 8    1  0.1269154E-006  0.9118800E+02  0.7816164E-02  0.1184000E+00
        -11   -1    0    0    0    0  0.00000000000E+00  0.00000000000E+00  0.45593999997E+02  0.45594000000E+02  0.51100000000E-03 0.  1.
         11   -1    0    0    0    0 -0.00000000000E+00 -0.00000000000E+00 -0.45593999997E+02  0.45594000000E+02  0.51100000000E-03 0. -1.
         23    2    1    2    0    0  0.17763568394E-14 -0.88817841970E-15 -0.71054273576E-14  0.91188000000E+02  0.91188000000E+02 0.  0.
    9900012    2    3    3    0    0 -0.15154080159E+02  0.32539205082E+01  0.33399783621E+02  0.54367086240E+02  0.40000004702E+02 0.  0.
         12    1    3    3    0    0  0.15154080159E+02 -0.32539205082E+01 -0.33399783621E+02  0.36820913760E+02  0.00000000000E+00 0. -1.
         11    1    4    4    0    0 -0.41362525335E+01  0.12060790381E+02  0.70627889486E+01  0.14575810016E+02  0.51100000000E-03 0. -1.
        -11    1    4    4    0    0 -0.73267355135E+01 -0.17001056806E+02  0.97430908335E+01  0.20919961880E+02  0.51100000000E-03 0.  1.
        -12    1    4    4    0    0 -0.36910921120E+01  0.81941869328E+01  0.16593903839E+02  0.18871314345E+02  0.00000000000E+00 0.  1.
</event>
<event>
 8    1  0.1269154E-006  0.9118800E+02  0.7816164E-02  0.1184000E+00
        -11   -1    0    0    0    0  0.00000000000E+00  0.00000000000E+00  0.45593999997E+02  0.45594000000E+02  0.51100000000E-03 0. -1.
         11   -1    0    0    0    0 -0.00000000000E+00 -0.00000000000E+00 -0.45593999997E+02  0.45594000000E+02  0.51100000000E-03 0.  1.
         23    2    1    2    0    0  0.00000000000E+00  0.00000000000E+00  0.71054273576E-14  0.91188000000E+02  0.91188000000E+02 0.  0.
    9900012    2    3    3    0    0  0.22189811879E+01 -0.12564879119E+02 -0.34539541841E+02  0.54367081824E+02  0.39999994633E+02 0.  0.
         12    1    3    3    0    0 -0.22189811879E+01  0.12564879119E+02  0.34539541841E+02  0.36820918176E+02  0.00000000000E+00 0. -1.
         11    1    4    4    0    0 -0.12585896359E+01  0.12087048478E+02 -0.20728646976E+02  0.24028266573E+02  0.51100000000E-03 0. -1.
        -11    1    4    4    0    0 -0.43758460631E-01 -0.37243395100E+01 -0.72082073169E+01  0.81136226541E+01  0.51100000000E-03 0.  1.
         12    1    4    4    0    0  0.35213292844E+01 -0.20927588088E+02 -0.66026875474E+01  0.22225192596E+02  0.00000000000E+00 0. -1.
</event>
<event>
 8    1  0.1269154E-006  0.9118800E+02  0.7816164E-02  0.1184000E+00
        -11   -1    0    0    0    0  0.00000000000E+00  0.00000000000E+00  0.45593999997E+02  0.45594000000E+02  0.51100000000E-03 0. -1.
         11   -1    0    0    0    0 -0.00000000000E+00 -0.00000000000E+00 -0.45593999997E+02  0.45594000000E+02  0.51100000000E-03 0.  1.
         23    2    1    2    0    0 -0.44408920985E-15  0.44408920985E-15  0.00000000000E+00  0.91188000000E+02  0.91188000000E+02 0.  0.
    9900012    2    3    3    0    0  0.32799296412E+01  0.11826058992E+01 -0.36655485353E+02  0.54367067073E+02  0.39999961006E+02 0.  0.
         12    1    3    3    0    0 -0.32799296412E+01 -0.11826058992E+01  0.36655485353E+02  0.36820932927E+02  0.00000000000E+00 0. -1.
         11    1    4    4    0    0 -0.73457969797E+01 -0.10322135996E+02 -0.13347400934E+02  0.18402726340E+02  0.51100000000E-03 0. -1.
        -11    1    4    4    0    0  0.58450451828E+01  0.56497415273E+01 -0.26529973338E+02  0.27747497511E+02  0.51100000000E-03 0.  1.
        -12    1    4    4    0    0  0.47806814381E+01  0.58550003681E+01  0.32218889196E+01  0.82168432219E+01  0.00000000000E+00 0.  1.
</event>
<event>
 8    1  0.1269154E-006  0.9118800E+02  0.7816164E-02  0.1184000E+00
        -11   -1    0    0    0    0  0.00000000000E+00  0.00000000000E+00  0.45593999997E+02  0.45594000000E+02  0.51100000000E-03 0.  1.
         11   -1    0    0    0    0 -0.00000000000E+00 -0.00000000000E+00 -0.45593999997E+02  0.45594000000E+02  0.51100000000E-03 0. -1.
         23    2    1    2    0    0  0.44408920985E-15  0.00000000000E+00  0.00000000000E+00  0.91188000000E+02  0.91188000000E+02 0.  0.
    9900012    2    3    3    0    0 -0.22403826922E+01 -0.36541625014E+02  0.39335442549E+01  0.54367048849E+02  0.39999919462E+02 0.  0.
         12    1    3    3    0    0  0.22403826922E+01  0.36541625014E+02 -0.39335442549E+01  0.36820951151E+02  0.00000000000E+00 0. -1.
         11    1    4    4    0    0 -0.22888592577E+01 -0.60816262895E+01  0.51021129916E+01  0.82617560038E+01  0.51100000000E-03 0. -1.
        -11    1    4    4    0    0 -0.15094945660E+02 -0.23863919233E+02  0.45996826325E+01  0.28609458335E+02  0.51100000000E-03 0.  1.
         12    1    4    4    0    0  0.15143422226E+02 -0.65960794915E+01 -0.57682513692E+01  0.17495834511E+02  0.00000000000E+00 0. -1.
</event>
<event>
 8    1  0.1269154E-006  0.9118800E+02  0.7816164E-02  0.1184000E+00
        -11   -1    0    0    0    0  0.00000000000E+00  0.00000000000E+00  0.45593999997E+02  0.45594000000E+02  0.51100000000E-03 0. -1.
         11   -1    0    0    0    0 -0.00000000000E+00 -0.00000000000E+00 -0.45593999997E+02  0.45594000000E+02  0.51100000000E-03 0.  1.
         23    2    1    2    0    0  0.00000000000E+00 -0.17763568394E-14  0.00000000000E+00  0.91188000000E+02  0.91188000000E+02 0.  0.
    9900012    2    3    3    0    0 -0.59891588492E+01  0.14981508200E+02  0.33097803527E+02  0.54367079180E+02  0.39999988607E+02 0.  0.
        -12    1    3    3    0    0  0.59891588492E+01 -0.14981508200E+02 -0.33097803527E+02  0.36820920820E+02  0.00000000000E+00 0.  1.
         11    1    4    4    0    0  0.39769097111E+00 -0.28183799650E+01 -0.19144224997E+01  0.34302241186E+01  0.51100000000E-03 0. -1.
        -11    1    4    4    0    0  0.93257261917E+01 -0.32409020853E+01  0.50295995330E+01  0.11080139307E+02  0.51100000000E-03 0.  1.
         12    1    4    4    0    0 -0.15712576012E+02  0.21040790251E+02  0.29982626494E+02  0.39856715755E+02  0.00000000000E+00 0. -1.
</event>
<event>
 8    1  0.1269154E-006  0.9118800E+02  0.7816164E-02  0.1184000E+00
        -11   -1    0    0    0    0  0.00000000000E+00  0.00000000000E+00  0.45593999997E+02  0.45594000000E+02  0.51100000000E-03 0. -1.
         11   -1    0    0    0    0 -0.00000000000E+00 -0.00000000000E+00 -0.45593999997E+02  0.45594000000E+02  0.51100000000E-03 0.  1.
         23    2    1    2    0    0  0.35527136788E-14 -0.35527136788E-14  0.00000000000E+00  0.91188000000E+02  0.91188000000E+02 0.  0.
    9900012    2    3    3    0    0 -0.21262394325E+02  0.27348370937E+02  0.12480285148E+02  0.54367077650E+02  0.39999985119E+02 0.  0.
         12    1    3    3    0    0  0.21262394325E+02 -0.27348370937E+02 -0.12480285148E+02  0.36820922350E+02  0.00000000000E+00 0. -1.
         11    1    4    4    0    0 -0.95281335823E+01 -0.11581196120E+01 -0.47807111484E+01  0.10722955280E+02  0.51100000000E-03 0. -1.
        -11    1    4    4    0    0 -0.36670121675E+01  0.31107314328E+02  0.11372680953E+02  0.33323413020E+02  0.51100000000E-03 0.  1.
         12    1    4    4    0    0 -0.80672485756E+01 -0.26008237798E+01  0.58883153425E+01  0.10320709350E+02  0.00000000000E+00 0. -1.
</event>
<event>
 8    1  0.1269154E-006  0.9118800E+02  0.7816164E-02  0.1184000E+00
        -11   -1    0    0    0    0  0.00000000000E+00  0.00000000000E+00  0.45593999997E+02  0.45594000000E+02  0.51100000000E-03 0.  1.
         11   -1    0    0    0    0 -0.00000000000E+00 -0.00000000000E+00 -0.45593999997E+02  0.45594000000E+02  0.51100000000E-03 0. -1.
         23    2    1    2    0    0  0.22204460493E-15  0.00000000000E+00  0.00000000000E+00  0.91188000000E+02  0.91188000000E+02 0.  0.
    9900012    2    3    3    0    0 -0.11600914752E+01  0.44304216796E+01  0.36535037675E+02  0.54367035504E+02  0.39999889039E+02 0.  0.
         12    1    3    3    0    0  0.11600914752E+01 -0.44304216796E+01 -0.36535037675E+02  0.36820964496E+02  0.00000000000E+00 0. -1.
         11    1    4    4    0    0  0.34845894972E+01  0.37015224512E+00  0.11690457302E+01  0.36940553365E+01  0.51100000000E-03 0. -1.
        -11    1    4    4    0    0 -0.81327974831E+01  0.83397581789E+01 -0.29052218981E+01  0.12005593526E+02  0.51100000000E-03 0.  1.
        -12    1    4    4    0    0  0.34881165107E+01 -0.42794887444E+01  0.38271213843E+02  0.38667386642E+02  0.00000000000E+00 0.  1.
</event>
<event>
 8    1  0.1269154E-006  0.9118800E+02  0.7816164E-02  0.1184000E+00
        -11   -1    0    0    0    0  0.00000000000E+00  0.00000000000E+00  0.45593999997E+02  0.45594000000E+02  0.51100000000E-03 0. -1.
         11   -1    0    0    0    0 -0.00000000000E+00 -0.00000000000E+00 -0.45593999997E+02  0.45594000000E+02  0.51100000000E-03 0.  1.
         23    2    1    2    0    0 -0.26645352591E-14  0.00000000000E+00 -0.35527136788E-14  0.91188000000E+02  0.91188000000E+02 0.  0.
    9900012    2    3    3    0    0 -0.60043869572E+01  0.25506942673E+02 -0.25867420748E+02  0.54367078726E+02  0.39999987573E+02 0.  0.
         12    1    3    3    0    0  0.60043869572E+01 -0.25506942673E+02  0.25867420748E+02  0.36820921274E+02  0.00000000000E+00 0. -1.
         11    1    4    4    0    0  0.98095184972E+01  0.10418046960E+01 -0.84053296009E+01  0.12959999079E+02  0.51100000000E-03 0. -1.
        -11    1    4    4    0    0 -0.10342133176E+02  0.28435207852E+02 -0.16814768643E+02  0.34615851990E+02  0.51100000000E-03 0.  1.
         12    1    4    4    0    0 -0.54717722780E+01 -0.39700698744E+01 -0.64732250469E+00  0.67912276574E+01  0.00000000000E+00 0. -1.
</event>
<event>
 8    1  0.1269154E-006  0.9118800E+02  0.7816164E-02  0.1184000E+00
        -11   -1    0    0    0    0  0.00000000000E+00  0.00000000000E+00  0.45593999997E+02  0.45594000000E+02  0.51100000000E-03 0.  1.
         11   -1    0    0    0    0 -0.00000000000E+00 -0.00000000000E+00 -0.45593999997E+02  0.45594000000E+02  0.51100000000E-03 0. -1.
         23    2    1    2    0    0  0.00000000000E+00  0.88817841970E-15 -0.35527136788E-14  0.91188000000E+02  0.91188000000E+02 0.  0.
    9900012    2    3    3    0    0 -0.22663086102E+02 -0.72619890272E+01  0.28096732885E+02  0.54367104368E+02  0.40000046028E+02 0.  0.
         12    1    3    3    0    0  0.22663086102E+02  0.72619890272E+01 -0.28096732885E+02  0.36820895632E+02  0.00000000000E+00 0. -1.
         11    1    4    4    0    0  0.49007018203E+01 -0.61718301143E+01 -0.41970688212E+00  0.78920541951E+01  0.51100000000E-03 0. -1.
        -11    1    4    4    0    0 -0.18933343446E+02 -0.10841675929E+02  0.10414841120E+02  0.24176069714E+02  0.51100000000E-03 0.  1.
         12    1    4    4    0    0 -0.86304444769E+01  0.97515170157E+01  0.18101598647E+02  0.22298980460E+02  0.00000000000E+00 0. -1.
</event>
<event>
 8    1  0.1269154E-006  0.9118800E+02  0.7816164E-02  0.1184000E+00
        -11   -1    0    0    0    0  0.00000000000E+00  0.00000000000E+00  0.45593999997E+02  0.45594000000E+02  0.51100000000E-03 0. -1.
         11   -1    0    0    0    0 -0.00000000000E+00 -0.00000000000E+00 -0.45593999997E+02  0.45594000000E+02  0.51100000000E-03 0.  1.
         23    2    1    2    0    0  0.00000000000E+00  0.00000000000E+00  0.35527136788E-14  0.91188000000E+02  0.91188000000E+02 0.  0.
    9900012    2    3    3    0    0 -0.42372982567E+01  0.21678334902E+02 -0.29459719015E+02  0.54367082778E+02  0.39999996808E+02 0.  0.
         12    1    3    3    0    0  0.42372982567E+01 -0.21678334902E+02  0.29459719015E+02  0.36820917222E+02  0.00000000000E+00 0. -1.
         11    1    4    4    0    0 -0.63455814810E+01  0.24222188453E+02 -0.79990237492E+01  0.26286216902E+02  0.51100000000E-03 0. -1.
        -11    1    4    4    0    0 -0.12257590761E+01 -0.36664904494E+01 -0.23632426972E+02  0.23946549697E+02  0.51100000000E-03 0.  1.
         12    1    4    4    0    0  0.33340423004E+01  0.11226368979E+01  0.21717317061E+01  0.41343161791E+01  0.00000000000E+00 0. -1.
</event>
<event>
 8    1  0.1269154E-006  0.9118800E+02  0.7816164E-02  0.1184000E+00
        -11   -1    0    0    0    0  0.00000000000E+00  0.00000000000E+00  0.45593999997E+02  0.45594000000E+02  0.51100000000E-03 0.  1.
         11   -1    0    0    0    0 -0.00000000000E+00 -0.00000000000E+00 -0.45593999997E+02  0.45594000000E+02  0.51100000000E-03 0. -1.
         23    2    1    2    0    0  0.35527136788E-14 -0.22204460493E-15  0.00000000000E+00  0.91188000000E+02  0.91188000000E+02 0.  0.
    9900012    2    3    3    0    0 -0.31571445471E+02 -0.14274748959E+01 -0.18894077235E+02  0.54367081920E+02  0.39999994853E+02 0.  0.
        -12    1    3    3    0    0  0.31571445471E+02  0.14274748959E+01  0.18894077235E+02  0.36820918080E+02  0.00000000000E+00 0.  1.
         11    1    4    4    0    0 -0.20702826490E+02 -0.66833466303E+01 -0.96646333270E+01  0.23805026454E+02  0.51100000000E-03 0. -1.
        -11    1    4    4    0    0 -0.98577682043E+01 -0.28936233874E+01 -0.16603626224E+02  0.19525087819E+02  0.51100000000E-03 0.  1.
        -12    1    4    4    0    0 -0.10108507766E+01  0.81494951218E+01  0.73741823158E+01  0.11036967648E+02  0.00000000000E+00 0.  1.
</event>
<event>
 8    1  0.1269154E-006  0.9118800E+02  0.7816164E-02  0.1184000E+00
        -11   -1    0    0    0    0  0.00000000000E+00  0.00000000000E+00  0.45593999997E+02  0.45594000000E+02  0.51100000000E-03 0.  1.
         11   -1    0    0    0    0 -0.00000000000E+00 -0.00000000000E+00 -0.45593999997E+02  0.45594000000E+02  0.51100000000E-03 0. -1.
         23    2    1    2    0    0  0.00000000000E+00  0.35527136788E-14  0.00000000000E+00  0.91188000000E+02  0.91188000000E+02 0.  0.
    9900012    2    3    3    0    0 -0.89669397117E+01 -0.31551810320E+02  0.16728945195E+02  0.54367077285E+02  0.39999984286E+02 0.  0.
         12    1    3    3    0    0  0.89669397117E+01  0.31551810320E+02 -0.16728945195E+02  0.36820922715E+02  0.00000000000E+00 0. -1.
         11    1    4    4    0    0 -0.10084684307E+02  0.55673025809E+00  0.59626946800E+01  0.11728790827E+02  0.51100000000E-03 0. -1.
        -11    1    4    4    0    0 -0.30231201465E+01 -0.17757217138E+01  0.11492610969E+02  0.12015512896E+02  0.51100000000E-03 0.  1.
        -12    1    4    4    0    0  0.41408647423E+01 -0.30332818864E+02 -0.72636045347E+00  0.30622773561E+02  0.00000000000E+00 0.  1.
</event>
<event>
 8    1  0.1269154E-006  0.9118800E+02  0.7816164E-02  0.1184000E+00
        -11   -1    0    0    0    0  0.00000000000E+00  0.00000000000E+00  0.45593999997E+02  0.45594000000E+02  0.51100000000E-03 0.  1.
         11   -1    0    0    0    0 -0.00000000000E+00 -0.00000000000E+00 -0.45593999997E+02  0.45594000000E+02  0.51100000000E-03 0. -1.
         23    2    1    2    0    0  0.35527136788E-14  0.17763568394E-14 -0.71054273576E-14  0.91188000000E+02  0.91188000000E+02 0.  0.
    9900012    2    3    3    0    0 -0.22266871084E+02  0.83928263896E+01 -0.28098543394E+02  0.54367065417E+02  0.39999957231E+02 0.  0.
        -12    1    3    3    0    0  0.22266871084E+02 -0.83928263896E+01  0.28098543394E+02  0.36820934583E+02  0.00000000000E+00 0.  1.
         11    1    4    4    0    0  0.17517967818E+01  0.65796258624E+01  0.51329158258E+01  0.85268454654E+01  0.51100000000E-03 0. -1.
        -11    1    4    4    0    0  0.35802932753E+01 -0.11914440125E+01 -0.47569390446E+01  0.60717796491E+01  0.51100000000E-03 0.  1.
         12    1    4    4    0    0 -0.27598961141E+02  0.30046445397E+01 -0.28474520175E+02  0.39768440303E+02  0.00000000000E+00 0. -1.
</event>
<event>
 8    1  0.1269154E-006  0.9118800E+02  0.7816164E-02  0.1184000E+00
        -11   -1    0    0    0    0  0.00000000000E+00  0.00000000000E+00  0.45593999997E+02  0.45594000000E+02  0.51100000000E-03 0.  1.
         11   -1    0    0    0    0 -0.00000000000E+00 -0.00000000000E+00 -0.45593999997E+02  0.45594000000E+02  0.51100000000E-03 0. -1.
         23    2    1    2    0    0 -0.17763568394E-14  0.00000000000E+00 -0.26645352591E-14  0.91188000000E+02  0.91188000000E+02 0.  0.
    9900012    2    3    3    0    0 -0.10247586005E+02 -0.34986326300E+02 -0.51693194374E+01  0.54367110408E+02  0.40000059796E+02 0.  0.
        -12    1    3    3    0    0  0.10247586005E+02  0.34986326300E+02  0.51693194374E+01  0.36820889592E+02  0.00000000000E+00 0.  1.
         11    1    4    4    0    0  0.13660683497E+01 -0.25642645002E+02 -0.13713966944E+02  0.29111583176E+02  0.51100000000E-03 0. -1.
        -11    1    4    4    0    0  0.15427701534E-01  0.80246308241E+00  0.97429947996E+01  0.97759977976E+01  0.51100000000E-03 0.  1.
         12    1    4    4    0    0 -0.11629082056E+02 -0.10146144381E+02 -0.11983472935E+01  0.15479529434E+02  0.00000000000E+00 0. -1.
</event>
<event>
 8    1  0.1269154E-006  0.9118800E+02  0.7816164E-02  0.1184000E+00
        -11   -1    0    0    0    0  0.00000000000E+00  0.00000000000E+00  0.45593999997E+02  0.45594000000E+02  0.51100000000E-03 0.  1.
         11   -1    0    0    0    0 -0.00000000000E+00 -0.00000000000E+00 -0.45593999997E+02  0.45594000000E+02  0.51100000000E-03 0. -1.
         23    2    1    2    0    0  0.88817841970E-15  0.00000000000E+00  0.00000000000E+00  0.91188000000E+02  0.91188000000E+02 0.  0.
    9900012    2    3    3    0    0 -0.30712317880E+01  0.24632898416E+02  0.27194915718E+02  0.54367141917E+02  0.40000131628E+02 0.  0.
         12    1    3    3    0    0  0.30712317880E+01 -0.24632898416E+02 -0.27194915718E+02  0.36820858083E+02  0.00000000000E+00 0. -1.
         11    1    4    4    0    0 -0.19293816118E+02  0.19416690796E+02  0.13730733380E+02  0.30623394020E+02  0.51100000000E-03 0. -1.
        -11    1    4    4    0    0  0.10969297474E+02  0.66480385926E+01  0.51858711323E+01  0.13835286909E+02  0.51100000000E-03 0.  1.
         12    1    4    4    0    0  0.52532868565E+01 -0.14318309728E+01  0.82783112058E+01  0.99084609880E+01  0.00000000000E+00 0. -1.
</event>
<event>
 8    1  0.1269154E-006  0.9118800E+02  0.7816164E-02  0.1184000E+00
        -11   -1    0    0    0    0  0.00000000000E+00  0.00000000000E+00  0.45593999997E+02  0.45594000000E+02  0.51100000000E-03 0.  1.
         11   -1    0    0    0    0 -0.00000000000E+00 -0.00000000000E+00 -0.45593999997E+02  0.45594000000E+02  0.51100000000E-03 0. -1.
         23    2    1    2    0    0 -0.17763568394E-14  0.00000000000E+00  0.00000000000E+00  0.91188000000E+02  0.91188000000E+02 0.  0.
    9900012    2    3    3    0    0  0.54105526479E+01  0.13789059660E+02  0.33710057011E+02  0.54367079453E+02  0.39999989228E+02 0.  0.
         12    1    3    3    0    0 -0.54105526479E+01 -0.13789059660E+02 -0.33710057011E+02  0.36820920547E+02  0.00000000000E+00 0. -1.
         11    1    4    4    0    0  0.85644738731E+01  0.35547175265E+01 -0.59606802777E+01  0.11023426829E+02  0.51100000000E-03 0. -1.
        -11    1    4    4    0    0 -0.63683182187E+01  0.67375548417E+01  0.11482148942E+02  0.14757705336E+02  0.51100000000E-03 0.  1.
         12    1    4    4    0    0  0.32143969934E+01  0.34967872920E+01  0.28188588347E+02  0.28585947288E+02  0.00000000000E+00 0. -1.
</event>
<event>
 8    1  0.1269154E-006  0.9118800E+02  0.7816164E-02  0.1184000E+00
        -11   -1    0    0    0    0  0.00000000000E+00  0.00000000000E+00  0.45593999997E+02  0.45594000000E+02  0.51100000000E-03 0. -1.
         11   -1    0    0    0    0 -0.00000000000E+00 -0.00000000000E+00 -0.45593999997E+02  0.45594000000E+02  0.51100000000E-03 0.  1.
         23    2    1    2    0    0  0.00000000000E+00  0.26645352591E-14  0.00000000000E+00  0.91188000000E+02  0.91188000000E+02 0.  0.
    9900012    2    3    3    0    0  0.36472812958E+02  0.48689488621E+01  0.13442685738E+01  0.54367084666E+02  0.40000001112E+02 0.  0.
         12    1    3    3    0    0 -0.36472812958E+02 -0.48689488621E+01 -0.13442685738E+01  0.36820915334E+02  0.00000000000E+00 0. -1.
         11    1    4    4    0    0  0.31709308778E+02 -0.55779916732E+01  0.10973831716E+01  0.32214880170E+02  0.51100000000E-03 0. -1.
        -11    1    4    4    0    0 -0.37599691431E+01 -0.28648345937E+01 -0.35310591922E+01  0.59002563069E+01  0.51100000000E-03 0.  1.
         12    1    4    4    0    0  0.85234733232E+01  0.13311775129E+02  0.37779445944E+01  0.16251948189E+02  0.00000000000E+00 0. -1.
</event>
<event>
 8    1  0.1269154E-006  0.9118800E+02  0.7816164E-02  0.1184000E+00
        -11   -1    0    0    0    0  0.00000000000E+00  0.00000000000E+00  0.45593999997E+02  0.45594000000E+02  0.51100000000E-03 0.  1.
         11   -1    0    0    0    0 -0.00000000000E+00 -0.00000000000E+00 -0.45593999997E+02  0.45594000000E+02  0.51100000000E-03 0. -1.
         23    2    1    2    0    0  0.71054273576E-14 -0.88817841970E-15  0.35527136788E-14  0.91188000000E+02  0.91188000000E+02 0.  0.
    9900012    2    3    3    0    0 -0.20946038803E+02 -0.67745460025E+01 -0.29515245397E+02  0.54367072175E+02  0.39999972637E+02 0.  0.
        -12    1    3    3    0    0  0.20946038803E+02  0.67745460025E+01  0.29515245397E+02  0.36820927825E+02  0.00000000000E+00 0.  1.
         11    1    4    4    0    0 -0.72100301538E+01  0.30526999267E+01 -0.77591582468E+01  0.11023068929E+02  0.51100000000E-03 0. -1.
        -11    1    4    4    0    0  0.35434266815E+01 -0.82698142557E+01 -0.24204566359E+02  0.25822601212E+02  0.51100000000E-03 0.  1.
        -12    1    4    4    0    0 -0.17279435331E+02 -0.15574316735E+01  0.24484792091E+01  0.17521402033E+02  0.00000000000E+00 0.  1.
</event>
<event>
 8    1  0.1269154E-006  0.9118800E+02  0.7816164E-02  0.1184000E+00
        -11   -1    0    0    0    0  0.00000000000E+00  0.00000000000E+00  0.45593999997E+02  0.45594000000E+02  0.51100000000E-03 0. -1.
         11   -1    0    0    0    0 -0.00000000000E+00 -0.00000000000E+00 -0.45593999997E+02  0.45594000000E+02  0.51100000000E-03 0.  1.
         23    2    1    2    0    0  0.35527136788E-14  0.00000000000E+00 -0.17763568394E-14  0.91188000000E+02  0.91188000000E+02 0.  0.
    9900012    2    3    3    0    0  0.26512069375E+02  0.24588365667E+02 -0.69499378578E+01  0.54367093100E+02  0.40000020339E+02 0.  0.
        -12    1    3    3    0    0 -0.26512069375E+02 -0.24588365667E+02  0.69499378578E+01  0.36820906900E+02  0.00000000000E+00 0.  1.
         11    1    4    4    0    0  0.43379210129E+01  0.56158038265E+01  0.11852705664E+02  0.13814537384E+02  0.51100000000E-03 0. -1.
        -11    1    4    4    0    0  0.12843649874E+02 -0.13321023629E+01 -0.32138481254E+01  0.13306489350E+02  0.51100000000E-03 0.  1.
         12    1    4    4    0    0  0.93304984876E+01  0.20304664204E+02 -0.15588795396E+02  0.27246066365E+02  0.00000000000E+00 0. -1.
</event>
<event>
 8    1  0.1269154E-006  0.9118800E+02  0.7816164E-02  0.1184000E+00
        -11   -1    0    0    0    0  0.00000000000E+00  0.00000000000E+00  0.45593999997E+02  0.45594000000E+02  0.51100000000E-03 0.  1.
         11   -1    0    0    0    0 -0.00000000000E+00 -0.00000000000E+00 -0.45593999997E+02  0.45594000000E+02  0.51100000000E-03 0. -1.
         23    2    1    2    0    0 -0.88817841970E-15  0.00000000000E+00  0.00000000000E+00  0.91188000000E+02  0.91188000000E+02 0.  0.
    9900012    2    3    3    0    0  0.29938270534E+01  0.36435089938E+02 -0.43932002510E+01  0.54367095779E+02  0.40000026447E+02 0.  0.
        -12    1    3    3    0    0 -0.29938270534E+01 -0.36435089938E+02  0.43932002510E+01  0.36820904221E+02  0.00000000000E+00 0.  1.
         11    1    4    4    0    0  0.17888410664E+02  0.15414874043E+02  0.10946749141E+01  0.23639202424E+02  0.51100000000E-03 0. -1.
        -11    1    4    4    0    0 -0.44441592919E+01  0.18927916051E+02 -0.49171867733E+01  0.20054807001E+02  0.51100000000E-03 0.  1.
        -12    1    4    4    0    0 -0.10450424318E+02  0.20922998445E+01 -0.57068839181E+00  0.10673086354E+02  0.00000000000E+00 0.  1.
</event>
<event>
 8    1  0.1269154E-006  0.9118800E+02  0.7816164E-02  0.1184000E+00
        -11   -1    0    0    0    0  0.00000000000E+00  0.00000000000E+00  0.45593999997E+02  0.45594000000E+02  0.51100000000E-03 0. -1.
         11   -1    0    0    0    0 -0.00000000000E+00 -0.00000000000E+00 -0.45593999997E+02  0.45594000000E+02  0.51100000000E-03 0.  1.
         23    2    1    2    0    0  0.00000000000E+00  0.00000000000E+00  0.00000000000E+00  0.91188000000E+02  0.91188000000E+02 0.  0.
    9900012    2    3    3    0    0  0.16650683999E+02  0.40115661908E+01 -0.32595086599E+02  0.54367114469E+02  0.40000069054E+02 0.  0.
         12    1    3    3    0    0 -0.16650683999E+02 -0.40115661908E+01  0.32595086599E+02  0.36820885531E+02  0.00000000000E+00 0. -1.
         11    1    4    4    0    0 -0.53700589421E+01  0.72828435670E+01 -0.22064332602E+02  0.23847685776E+02  0.51100000000E-03 0. -1.
        -11    1    4    4    0    0  0.15055685423E+02  0.20514547644E+01 -0.14402933915E+02  0.20936251714E+02  0.51100000000E-03 0.  1.
         12    1    4    4    0    0  0.69650575185E+01 -0.53227321406E+01  0.38721799184E+01  0.95831769783E+01  0.00000000000E+00 0. -1.
</event>
<event>
 8    1  0.1269154E-006  0.9118800E+02  0.7816164E-02  0.1184000E+00
        -11   -1    0    0    0    0  0.00000000000E+00  0.00000000000E+00  0.45593999997E+02  0.45594000000E+02  0.51100000000E-03 0. -1.
         11   -1    0    0    0    0 -0.00000000000E+00 -0.00000000000E+00 -0.45593999997E+02  0.45594000000E+02  0.51100000000E-03 0.  1.
         23    2    1    2    0    0  0.35527136788E-14  0.35527136788E-14  0.00000000000E+00  0.91188000000E+02  0.91188000000E+02 0.  0.
    9900012    2    3    3    0    0 -0.30805064698E+02 -0.19241391768E+02  0.60495586828E+01  0.54367077571E+02  0.39999984939E+02 0.  0.
        -12    1    3    3    0    0  0.30805064698E+02  0.19241391768E+02 -0.60495586828E+01  0.36820922429E+02  0.00000000000E+00 0.  1.
         11    1    4    4    0    0 -0.17422196663E+02  0.42616644558E+01  0.75332847023E+01  0.19453665443E+02  0.51100000000E-03 0. -1.
        -11    1    4    4    0    0  0.58073776952E+01 -0.22169160526E+01 -0.51785055337E+00  0.62376695917E+01  0.51100000000E-03 0.  1.
         12    1    4    4    0    0 -0.19190245731E+02 -0.21286140172E+02 -0.96587546618E+00  0.28675742537E+02  0.00000000000E+00 0. -1.
</event>
<event>
 8    1  0.1269154E-006  0.9118800E+02  0.7816164E-02  0.1184000E+00
        -11   -1    0    0    0    0  0.00000000000E+00  0.00000000000E+00  0.45593999997E+02  0.45594000000E+02  0.51100000000E-03 0.  1.
         11   -1    0    0    0    0 -0.00000000000E+00 -0.00000000000E+00 -0.45593999997E+02  0.45594000000E+02  0.51100000000E-03 0. -1.
         23    2    1    2    0    0  0.13600232052E-14  0.00000000000E+00  0.00000000000E+00  0.91188000000E+02  0.91188000000E+02 0.  0.
    9900012    2    3    3    0    0  0.15459835723E+00 -0.63483282208E+01 -0.36269234608E+02  0.54367047392E+02  0.39999916140E+02 0.  0.
        -12    1    3    3    0    0 -0.15459835723E+00  0.63483282208E+01  0.36269234608E+02  0.36820952608E+02  0.00000000000E+00 0.  1.
         11    1    4    4    0    0 -0.60598083558E+01  0.59404723410E+01 -0.15458342707E+02  0.17634365553E+02  0.51100000000E-03 0. -1.
        -11    1    4    4    0    0  0.77208809771E+01 -0.89042744866E+00 -0.23646230463E+02  0.24890742847E+02  0.51100000000E-03 0.  1.
        -12    1    4    4    0    0 -0.15064742641E+01 -0.11398373113E+02  0.28353385619E+01  0.11841938992E+02  0.00000000000E+00 0.  1.
</event>
<event>
 8    1  0.1269154E-006  0.9118800E+02  0.7816164E-02  0.1184000E+00
        -11   -1    0    0    0    0  0.00000000000E+00  0.00000000000E+00  0.45593999997E+02  0.45594000000E+02  0.51100000000E-03 0.  1.
         11   -1    0    0    0    0 -0.00000000000E+00 -0.00000000000E+00 -0.45593999997E+02  0.45594000000E+02  0.51100000000E-03 0. -1.
         23    2    1    2    0    0  0.35527136788E-14  0.44408920985E-15  0.00000000000E+00  0.91188000000E+02  0.91188000000E+02 0.  0.
    9900012    2    3    3    0    0 -0.23181380847E+02  0.32726651504E+01 -0.28420044070E+02  0.54367005172E+02  0.39999819891E+02 0.  0.
        -12    1    3    3    0    0  0.23181380847E+02 -0.32726651504E+01  0.28420044070E+02  0.36820994828E+02  0.00000000000E+00 0.  1.
         11    1    4    4    0    0 -0.14472184594E+02  0.15767629352E+01  0.49239620850E+01  0.15368009343E+02  0.51100000000E-03 0. -1.
        -11    1    4    4    0    0  0.29323915327E+01  0.65415847672E+01 -0.83570991146E+01  0.11010556627E+02  0.51100000000E-03 0.  1.
        -12    1    4    4    0    0 -0.11641587785E+02 -0.48456825520E+01 -0.24986907041E+02  0.27988439203E+02  0.00000000000E+00 0.  1.
</event>
<event>
 8    1  0.1269154E-006  0.9118800E+02  0.7816164E-02  0.1184000E+00
        -11   -1    0    0    0    0  0.00000000000E+00  0.00000000000E+00  0.45593999997E+02  0.45594000000E+02  0.51100000000E-03 0. -1.
         11   -1    0    0    0    0 -0.00000000000E+00 -0.00000000000E+00 -0.45593999997E+02  0.45594000000E+02  0.51100000000E-03 0.  1.
         23    2    1    2    0    0  0.71054273576E-14  0.00000000000E+00  0.00000000000E+00  0.91188000000E+02  0.91188000000E+02 0.  0.
    9900012    2    3    3    0    0  0.31829571889E+02  0.40602728987E+01  0.18060249472E+02  0.54367081032E+02  0.39999992829E+02 0.  0.
        -12    1    3    3    0    0 -0.31829571889E+02 -0.40602728987E+01 -0.18060249472E+02  0.36820918968E+02  0.00000000000E+00 0.  1.
         11    1    4    4    0    0  0.84365757505E+01 -0.29597354536E+01 -0.64836940385E+01  0.11044190011E+02  0.51100000000E-03 0. -1.
        -11    1    4    4    0    0  0.21367876542E+02 -0.52571604157E+01  0.99661991091E+01  0.24156759064E+02  0.51100000000E-03 0.  1.
         12    1    4    4    0    0  0.20251195964E+01  0.12277168768E+02  0.14577744402E+02  0.19166131957E+02  0.00000000000E+00 0. -1.
</event>
<event>
 8    1  0.1269154E-006  0.9118800E+02  0.7816164E-02  0.1184000E+00
        -11   -1    0    0    0    0  0.00000000000E+00  0.00000000000E+00  0.45593999997E+02  0.45594000000E+02  0.51100000000E-03 0. -1.
         11   -1    0    0    0    0 -0.00000000000E+00 -0.00000000000E+00 -0.45593999997E+02  0.45594000000E+02  0.51100000000E-03 0.  1.
         23    2    1    2    0    0  0.00000000000E+00  0.35527136788E-14  0.71054273576E-14  0.91188000000E+02  0.91188000000E+02 0.  0.
    9900012    2    3    3    0    0 -0.94615638276E+01 -0.12746415799E+02 -0.33223300521E+02  0.54367081987E+02  0.39999995006E+02 0.  0.
         12    1    3    3    0    0  0.94615638276E+01  0.12746415799E+02  0.33223300521E+02  0.36820918013E+02  0.00000000000E+00 0. -1.
         11    1    4    4    0    0 -0.12598201449E+02  0.18237637288E+01 -0.56075455127E+01  0.13909901539E+02  0.51100000000E-03 0. -1.
        -11    1    4    4    0    0 -0.87839299808E+01 -0.12895524365E+02 -0.22492835199E+02  0.27374798814E+02  0.51100000000E-03 0.  1.
        -12    1    4    4    0    0  0.11920567602E+02 -0.16746551627E+01 -0.51229198101E+01  0.13082381635E+02  0.00000000000E+00 0.  1.
</event>
<event>
 8    1  0.1269154E-006  0.9118800E+02  0.7816164E-02  0.1184000E+00
        -11   -1    0    0    0    0  0.00000000000E+00  0.00000000000E+00  0.45593999997E+02  0.45594000000E+02  0.51100000000E-03 0.  1.
         11   -1    0    0    0    0 -0.00000000000E+00 -0.00000000000E+00 -0.45593999997E+02  0.45594000000E+02  0.51100000000E-03 0. -1.
         23    2    1    2    0    0 -0.35527136788E-14 -0.35527136788E-14  0.17763568394E-14  0.91188000000E+02  0.91188000000E+02 0.  0.
    9900012    2    3    3    0    0 -0.17998227348E+02 -0.31751244601E+02  0.48686003684E+01  0.54367068576E+02  0.39999964433E+02 0.  0.
        -12    1    3    3    0    0  0.17998227348E+02  0.31751244601E+02 -0.48686003684E+01  0.36820931424E+02  0.00000000000E+00 0.  1.
         11    1    4    4    0    0 -0.21446000923E+02 -0.10508635558E+02 -0.22516940608E+01  0.23988174238E+02  0.51100000000E-03 0. -1.
        -11    1    4    4    0    0 -0.73303574774E+01 -0.14539281894E+02  0.10693829596E+01  0.16317733878E+02  0.51100000000E-03 0.  1.
        -12    1    4    4    0    0  0.10778131053E+02 -0.67033271491E+01  0.60509114696E+01  0.14061160459E+02  0.00000000000E+00 0.  1.
</event>
<event>
 8    1  0.1269154E-006  0.9118800E+02  0.7816164E-02  0.1184000E+00
        -11   -1    0    0    0    0  0.00000000000E+00  0.00000000000E+00  0.45593999997E+02  0.45594000000E+02  0.51100000000E-03 0.  1.
         11   -1    0    0    0    0 -0.00000000000E+00 -0.00000000000E+00 -0.45593999997E+02  0.45594000000E+02  0.51100000000E-03 0. -1.
         23    2    1    2    0    0  0.26645352591E-14  0.00000000000E+00  0.00000000000E+00  0.91188000000E+02  0.91188000000E+02 0.  0.
    9900012    2    3    3    0    0 -0.79517135057E+01 -0.42805780939E+01  0.35696314804E+02  0.54367082208E+02  0.39999995509E+02 0.  0.
         12    1    3    3    0    0  0.79517135057E+01  0.42805780939E+01 -0.35696314804E+02  0.36820917792E+02  0.00000000000E+00 0. -1.
         11    1    4    4    0    0 -0.21165144588E+01 -0.70498986089E+01  0.69649536207E+00  0.73936330651E+01  0.51100000000E-03 0.  1.
        -11    1    4    4    0    0 -0.17670335143E+02  0.21448026600E+01  0.13200177759E+02  0.22160451612E+02  0.51100000000E-03 0. -1.
        -12    1    4    4    0    0  0.11835136096E+02  0.62451785502E+00  0.21799641682E+02  0.24812997530E+02  0.00000000000E+00 0.  1.
</event>
<event>
 8    1  0.1269154E-006  0.9118800E+02  0.7816164E-02  0.1184000E+00
        -11   -1    0    0    0    0  0.00000000000E+00  0.00000000000E+00  0.45593999997E+02  0.45594000000E+02  0.51100000000E-03 0.  1.
         11   -1    0    0    0    0 -0.00000000000E+00 -0.00000000000E+00 -0.45593999997E+02  0.45594000000E+02  0.51100000000E-03 0. -1.
         23    2    1    2    0    0  0.00000000000E+00 -0.71054273576E-14  0.00000000000E+00  0.91188000000E+02  0.91188000000E+02 0.  0.
    9900012    2    3    3    0    0  0.54653544539E+01 -0.33708330330E+02 -0.13771680863E+02  0.54367070806E+02  0.39999969515E+02 0.  0.
         12    1    3    3    0    0 -0.54653544539E+01  0.33708330330E+02  0.13771680863E+02  0.36820929194E+02  0.00000000000E+00 0. -1.
         11    1    4    4    0    0  0.12705713762E+02 -0.21340526339E+02 -0.19379581679E+02  0.31502720723E+02  0.51100000000E-03 0. -1.
        -11    1    4    4    0    0 -0.76689487625E+01  0.15276447428E+01 -0.14005129093E+00  0.78208751561E+01  0.51100000000E-03 0.  1.
        -12    1    4    4    0    0  0.42858945428E+00 -0.13895448734E+02  0.57479521069E+01  0.15043474926E+02  0.00000000000E+00 0.  1.
</event>
<event>
 8    1  0.1269154E-006  0.9118800E+02  0.7816164E-02  0.1184000E+00
        -11   -1    0    0    0    0  0.00000000000E+00  0.00000000000E+00  0.45593999997E+02  0.45594000000E+02  0.51100000000E-03 0.  1.
         11   -1    0    0    0    0 -0.00000000000E+00 -0.00000000000E+00 -0.45593999997E+02  0.45594000000E+02  0.51100000000E-03 0. -1.
         23    2    1    2    0    0  0.00000000000E+00 -0.88817841970E-15  0.00000000000E+00  0.91188000000E+02  0.91188000000E+02 0.  0.
    9900012    2    3    3    0    0  0.35154697258E+02 -0.46224796361E+01  0.99276359629E+01  0.54367109012E+02  0.40000056615E+02 0.  0.
        -12    1    3    3    0    0 -0.35154697258E+02  0.46224796361E+01 -0.99276359629E+01  0.36820890988E+02  0.00000000000E+00 0.  1.
         11    1    4    4    0    0  0.16870625132E+01  0.51850183699E+00  0.79605425929E+01  0.81538495640E+01  0.51100000000E-03 0. -1.
        -11    1    4    4    0    0  0.83724368692E+00 -0.52398010357E+01 -0.10111261524E+02  0.11419023678E+02  0.51100000000E-03 0.  1.
         12    1    4    4    0    0  0.32630391058E+02  0.98819562553E-01  0.12078354894E+02  0.34794235771E+02  0.00000000000E+00 0. -1.
</event>
<event>
 8    1  0.1269154E-006  0.9118800E+02  0.7816164E-02  0.1184000E+00
        -11   -1    0    0    0    0  0.00000000000E+00  0.00000000000E+00  0.45593999997E+02  0.45594000000E+02  0.51100000000E-03 0. -1.
         11   -1    0    0    0    0 -0.00000000000E+00 -0.00000000000E+00 -0.45593999997E+02  0.45594000000E+02  0.51100000000E-03 0.  1.
         23    2    1    2    0    0  0.00000000000E+00  0.00000000000E+00  0.17763568394E-14  0.91188000000E+02  0.91188000000E+02 0.  0.
    9900012    2    3    3    0    0  0.62063906206E+01  0.34321828768E+02 -0.11801403790E+02  0.54367077334E+02  0.39999984398E+02 0.  0.
         12    1    3    3    0    0 -0.62063906206E+01 -0.34321828768E+02  0.11801403790E+02  0.36820922666E+02  0.00000000000E+00 0. -1.
         11    1    4    4    0    0 -0.17197902776E+01  0.81305723582E+01 -0.32400556227E+01  0.89197447368E+01  0.51100000000E-03 0. -1.
        -11    1    4    4    0    0 -0.35828352864E+01  0.26487758956E+02 -0.16546768326E+02  0.31436183380E+02  0.51100000000E-03 0.  1.
        -12    1    4    4    0    0  0.11509016185E+02 -0.29650254530E+00  0.79854201582E+01  0.14011149218E+02  0.00000000000E+00 0.  1.
</event>
<event>
 8    1  0.1269154E-006  0.9118800E+02  0.7816164E-02  0.1184000E+00
        -11   -1    0    0    0    0  0.00000000000E+00  0.00000000000E+00  0.45593999997E+02  0.45594000000E+02  0.51100000000E-03 0.  1.
         11   -1    0    0    0    0 -0.00000000000E+00 -0.00000000000E+00 -0.45593999997E+02  0.45594000000E+02  0.51100000000E-03 0. -1.
         23    2    1    2    0    0  0.71054273576E-14  0.00000000000E+00  0.00000000000E+00  0.91188000000E+02  0.91188000000E+02 0.  0.
    9900012    2    3    3    0    0  0.35412926651E+02 -0.98176148990E+01  0.23060419876E+01  0.54367098789E+02  0.40000033310E+02 0.  0.
        -12    1    3    3    0    0 -0.35412926651E+02  0.98176148990E+01 -0.23060419876E+01  0.36820901211E+02  0.00000000000E+00 0.  1.
         11    1    4    4    0    0  0.96445901204E+00  0.32196210196E+01  0.94583653497E+00  0.34915251264E+01  0.51100000000E-03 0. -1.
        -11    1    4    4    0    0  0.10424541805E+02  0.11551401635E+02 -0.40442442968E+01  0.16076749167E+02  0.51100000000E-03 0.  1.
         12    1    4    4    0    0  0.24023925834E+02 -0.24588637554E+02  0.54044497495E+01  0.34798824496E+02  0.00000000000E+00 0. -1.
</event>
<event>
 8    1  0.1269154E-006  0.9118800E+02  0.7816164E-02  0.1184000E+00
        -11   -1    0    0    0    0  0.00000000000E+00  0.00000000000E+00  0.45593999997E+02  0.45594000000E+02  0.51100000000E-03 0.  1.
         11   -1    0    0    0    0 -0.00000000000E+00 -0.00000000000E+00 -0.45593999997E+02  0.45594000000E+02  0.51100000000E-03 0. -1.
         23    2    1    2    0    0  0.00000000000E+00  0.00000000000E+00  0.00000000000E+00  0.91188000000E+02  0.91188000000E+02 0.  0.
    9900012    2    3    3    0    0 -0.12817145065E+02  0.25616820615E+02 -0.23136067507E+02  0.54367104768E+02  0.40000046939E+02 0.  0.
        -12    1    3    3    0    0  0.12817145065E+02 -0.25616820615E+02  0.23136067507E+02  0.36820895232E+02  0.00000000000E+00 0.  1.
         11    1    4    4    0    0 -0.30598509462E+01  0.46161898267E+01 -0.13245397319E+02  0.14356616827E+02  0.51100000000E-03 0. -1.
        -11    1    4    4    0    0 -0.75847166659E+01  0.26686444286E+02  0.74823779849E+00  0.27753451959E+02  0.51100000000E-03 0.  1.
        -12    1    4    4    0    0 -0.21725774526E+01 -0.56858134977E+01 -0.10638907986E+02  0.12257035982E+02  0.00000000000E+00 0.  1.
</event>
<event>
 8    1  0.1269154E-006  0.9118800E+02  0.7816164E-02  0.1184000E+00
        -11   -1    0    0    0    0  0.00000000000E+00  0.00000000000E+00  0.45593999997E+02  0.45594000000E+02  0.51100000000E-03 0.  1.
         11   -1    0    0    0    0 -0.00000000000E+00 -0.00000000000E+00 -0.45593999997E+02  0.45594000000E+02  0.51100000000E-03 0. -1.
         23    2    1    2    0    0  0.00000000000E+00 -0.71054273576E-14  0.17763568394E-14  0.91188000000E+02  0.91188000000E+02 0.  0.
    9900012    2    3    3    0    0  0.10960316579E+02  0.34425808020E+02 -0.71074261338E+01  0.54367077910E+02  0.39999985710E+02 0.  0.
        -12    1    3    3    0    0 -0.10960316579E+02 -0.34425808020E+02  0.71074261338E+01  0.36820922090E+02  0.00000000000E+00 0.  1.
         11    1    4    4    0    0  0.83631241578E+01  0.24294385967E+02 -0.12416714916E+02  0.28536535262E+02  0.51100000000E-03 0. -1.
        -11    1    4    4    0    0  0.12492371880E+02  0.72241431109E+01  0.56851346629E+01  0.15510266125E+02  0.51100000000E-03 0.  1.
         12    1    4    4    0    0 -0.98951794591E+01  0.29072789420E+01 -0.37584588091E+00  0.10320276522E+02  0.00000000000E+00 0. -1.
</event>
<event>
 8    1  0.1269154E-006  0.9118800E+02  0.7816164E-02  0.1184000E+00
        -11   -1    0    0    0    0  0.00000000000E+00  0.00000000000E+00  0.45593999997E+02  0.45594000000E+02  0.51100000000E-03 0.  1.
         11   -1    0    0    0    0 -0.00000000000E+00 -0.00000000000E+00 -0.45593999997E+02  0.45594000000E+02  0.51100000000E-03 0. -1.
         23    2    1    2    0    0  0.00000000000E+00  0.00000000000E+00  0.71054273576E-14  0.91188000000E+02  0.91188000000E+02 0.  0.
    9900012    2    3    3    0    0  0.18375759700E+02  0.51320022388E+01  0.31492451677E+02  0.54367075186E+02  0.39999979502E+02 0.  0.
         12    1    3    3    0    0 -0.18375759700E+02 -0.51320022388E+01 -0.31492451677E+02  0.36820924814E+02  0.00000000000E+00 0. -1.
         11    1    4    4    0    0  0.12559696968E+02 -0.42748131421E+01 -0.26376077955E+01  0.13526898775E+02  0.51100000000E-03 0. -1.
        -11    1    4    4    0    0  0.10251549958E+02  0.12236971070E+02  0.18970452379E+02  0.24793462874E+02  0.51100000000E-03 0.  1.
         12    1    4    4    0    0 -0.44354872260E+01 -0.28301556896E+01  0.15159607093E+02  0.16046713538E+02  0.00000000000E+00 0. -1.
</event>
<event>
 8    1  0.1269154E-006  0.9118800E+02  0.7816164E-02  0.1184000E+00
        -11   -1    0    0    0    0  0.00000000000E+00  0.00000000000E+00  0.45593999997E+02  0.45594000000E+02  0.51100000000E-03 0.  1.
         11   -1    0    0    0    0 -0.00000000000E+00 -0.00000000000E+00 -0.45593999997E+02  0.45594000000E+02  0.51100000000E-03 0. -1.
         23    2    1    2    0    0  0.00000000000E+00  0.00000000000E+00  0.00000000000E+00  0.91188000000E+02  0.91188000000E+02 0.  0.
    9900012    2    3    3    0    0 -0.30356217231E+02 -0.11168049008E+02  0.17594156182E+02  0.54367087804E+02  0.40000008266E+02 0.  0.
         12    1    3    3    0    0  0.30356217231E+02  0.11168049008E+02 -0.17594156182E+02  0.36820912196E+02  0.00000000000E+00 0. -1.
         11    1    4    4    0    0  0.22838755646E+01  0.11608087634E+01  0.31451316820E+01  0.40565278426E+01  0.51100000000E-03 0. -1.
        -11    1    4    4    0    0 -0.30697874091E+02  0.42098375122E+01  0.12978177645E+02  0.33593381801E+02  0.51100000000E-03 0.  1.
        -12    1    4    4    0    0 -0.19422187049E+01 -0.16538695283E+02  0.14708468554E+01  0.16717178160E+02  0.00000000000E+00 0.  1.
</event>
<event>
 8    1  0.1269154E-006  0.9118800E+02  0.7816164E-02  0.1184000E+00
        -11   -1    0    0    0    0  0.00000000000E+00  0.00000000000E+00  0.45593999997E+02  0.45594000000E+02  0.51100000000E-03 0. -1.
         11   -1    0    0    0    0 -0.00000000000E+00 -0.00000000000E+00 -0.45593999997E+02  0.45594000000E+02  0.51100000000E-03 0.  1.
         23    2    1    2    0    0  0.71054273576E-14  0.44408920985E-15  0.53290705182E-14  0.91188000000E+02  0.91188000000E+02 0.  0.
    9900012    2    3    3    0    0  0.33846763535E+02  0.26256426722E+01  0.14257742175E+02  0.54367073706E+02  0.39999976127E+02 0.  0.
         12    1    3    3    0    0 -0.33846763535E+02 -0.26256426722E+01 -0.14257742175E+02  0.36820926294E+02  0.00000000000E+00 0. -1.
         11    1    4    4    0    0 -0.37040368290E+01  0.54484687797E+01 -0.19886301566E+01  0.68818857179E+01  0.51100000000E-03 0. -1.
        -11    1    4    4    0    0  0.21759713300E+02 -0.96327840093E+00  0.21631832310E+02  0.30697706714E+02  0.51100000000E-03 0.  1.
         12    1    4    4    0    0  0.15791087064E+02 -0.18595477065E+01 -0.53854599779E+01  0.16787481273E+02  0.00000000000E+00 0. -1.
</event>
<event>
 8    1  0.1269154E-006  0.9118800E+02  0.7816164E-02  0.1184000E+00
        -11   -1    0    0    0    0  0.00000000000E+00  0.00000000000E+00  0.45593999997E+02  0.45594000000E+02  0.51100000000E-03 0.  1.
         11   -1    0    0    0    0 -0.00000000000E+00 -0.00000000000E+00 -0.45593999997E+02  0.45594000000E+02  0.51100000000E-03 0. -1.
         23    2    1    2    0    0  0.00000000000E+00  0.35527136788E-14  0.00000000000E+00  0.91188000000E+02  0.91188000000E+02 0.  0.
    9900012    2    3    3    0    0 -0.20224706663E+02 -0.29559182516E+02 -0.85437335383E+01  0.54367089998E+02  0.40000013269E+02 0.  0.
        -12    1    3    3    0    0  0.20224706663E+02  0.29559182516E+02  0.85437335383E+01  0.36820910002E+02  0.00000000000E+00 0.  1.
         11    1    4    4    0    0 -0.51381462494E+01  0.42550938591E+01 -0.45729822272E+01  0.80881726825E+01  0.51100000000E-03 0.  1.
        -11    1    4    4    0    0  0.40364971214E+00 -0.23663661549E+02 -0.11467987650E+02  0.26299173979E+02  0.51100000000E-03 0. -1.
        -12    1    4    4    0    0 -0.15490210125E+02 -0.10150614826E+02  0.74972363388E+01  0.19979743337E+02  0.00000000000E+00 0.  1.
</event>
<event>
 8    1  0.1269154E-006  0.9118800E+02  0.7816164E-02  0.1184000E+00
        -11   -1    0    0    0    0  0.00000000000E+00  0.00000000000E+00  0.45593999997E+02  0.45594000000E+02  0.51100000000E-03 0.  1.
         11   -1    0    0    0    0 -0.00000000000E+00 -0.00000000000E+00 -0.45593999997E+02  0.45594000000E+02  0.51100000000E-03 0. -1.
         23    2    1    2    0    0  0.00000000000E+00  0.88817841970E-15  0.00000000000E+00  0.91188000000E+02  0.91188000000E+02 0.  0.
    9900012    2    3    3    0    0 -0.33373494640E+02  0.13316587682E+01  0.15498903564E+02  0.54367089212E+02  0.40000011476E+02 0.  0.
         12    1    3    3    0    0  0.33373494640E+02 -0.13316587682E+01 -0.15498903564E+02  0.36820910788E+02  0.00000000000E+00 0. -1.
         11    1    4    4    0    0 -0.24485000054E+01  0.11518348132E+02  0.54303755643E+01  0.12967516146E+02  0.51100000000E-03 0. -1.
        -11    1    4    4    0    0 -0.95344850313E+01  0.54925674110E+01 -0.35813236871E+01  0.11571541867E+02  0.51100000000E-03 0.  1.
        -12    1    4    4    0    0 -0.21390509604E+02 -0.15679256775E+02  0.13649851686E+02  0.29828031199E+02  0.00000000000E+00 0.  1.
</event>
<event>
 8    1  0.1269154E-006  0.9118800E+02  0.7816164E-02  0.1184000E+00
        -11   -1    0    0    0    0  0.00000000000E+00  0.00000000000E+00  0.45593999997E+02  0.45594000000E+02  0.51100000000E-03 0.  1.
         11   -1    0    0    0    0 -0.00000000000E+00 -0.00000000000E+00 -0.45593999997E+02  0.45594000000E+02  0.51100000000E-03 0. -1.
         23    2    1    2    0    0  0.00000000000E+00  0.00000000000E+00  0.00000000000E+00  0.91188000000E+02  0.91188000000E+02 0.  0.
    9900012    2    3    3    0    0  0.88659038008E+01 -0.23502292436E+02 -0.26922444631E+02  0.54367081695E+02  0.39999994339E+02 0.  0.
        -12    1    3    3    0    0 -0.88659038008E+01  0.23502292436E+02  0.26922444631E+02  0.36820918305E+02  0.00000000000E+00 0.  1.
         11    1    4    4    0    0  0.14695476748E+02 -0.23922654648E+02 -0.18840825760E+02  0.33811642342E+02  0.51100000000E-03 0. -1.
        -11    1    4    4    0    0 -0.25247147226E+01  0.33184431370E+00 -0.13755189858E+02  0.13988908226E+02  0.51100000000E-03 0.  1.
        -12    1    4    4    0    0 -0.33048582242E+01  0.88517899172E-01  0.56735709863E+01  0.65665311267E+01  0.00000000000E+00 0.  1.
</event>
<event>
 8    1  0.1269154E-006  0.9118800E+02  0.7816164E-02  0.1184000E+00
        -11   -1    0    0    0    0  0.00000000000E+00  0.00000000000E+00  0.45593999997E+02  0.45594000000E+02  0.51100000000E-03 0. -1.
         11   -1    0    0    0    0 -0.00000000000E+00 -0.00000000000E+00 -0.45593999997E+02  0.45594000000E+02  0.51100000000E-03 0.  1.
         23    2    1    2    0    0  0.00000000000E+00  0.00000000000E+00  0.00000000000E+00  0.91188000000E+02  0.91188000000E+02 0.  0.
    9900012    2    3    3    0    0  0.16337849898E+02 -0.17800298274E+02 -0.27784948594E+02  0.54367091180E+02  0.40000015963E+02 0.  0.
         12    1    3    3    0    0 -0.16337849898E+02  0.17800298274E+02  0.27784948594E+02  0.36820908820E+02  0.00000000000E+00 0. -1.
         11    1    4    4    0    0  0.69672515102E+01 -0.24891892601E+02 -0.12325178585E+02  0.28636671215E+02  0.51100000000E-03 0. -1.
        -11    1    4    4    0    0  0.27178238659E+01 -0.43850398951E+01 -0.10256660826E+02  0.11481037976E+02  0.51100000000E-03 0.  1.
         12    1    4    4    0    0  0.66527745222E+01  0.11476634222E+02 -0.52031091836E+01  0.14249381990E+02  0.00000000000E+00 0. -1.
</event>
<event>
 8    1  0.1269154E-006  0.9118800E+02  0.7816164E-02  0.1184000E+00
        -11   -1    0    0    0    0  0.00000000000E+00  0.00000000000E+00  0.45593999997E+02  0.45594000000E+02  0.51100000000E-03 0.  1.
         11   -1    0    0    0    0 -0.00000000000E+00 -0.00000000000E+00 -0.45593999997E+02  0.45594000000E+02  0.51100000000E-03 0. -1.
         23    2    1    2    0    0  0.00000000000E+00  0.00000000000E+00  0.88817841970E-15  0.91188000000E+02  0.91188000000E+02 0.  0.
    9900012    2    3    3    0    0 -0.27964976653E+02  0.22803956346E+02  0.73287015260E+01  0.54367214969E+02  0.40000298165E+02 0.  0.
         12    1    3    3    0    0  0.27964976653E+02 -0.22803956346E+02 -0.73287015260E+01  0.36820785031E+02  0.00000000000E+00 0. -1.
         11    1    4    4    0    0 -0.14336329877E+02  0.11208045001E+02  0.61218343780E+01  0.19199674046E+02  0.51100000000E-03 0. -1.
        -11    1    4    4    0    0 -0.32416874108E+01 -0.81126045615E+01  0.80319594646E+01  0.11867403387E+02  0.51100000000E-03 0.  1.
         12    1    4    4    0    0 -0.10386959365E+02  0.19708515906E+02 -0.68250923165E+01  0.23300137536E+02  0.00000000000E+00 0. -1.
</event>
<event>
 8    1  0.1269154E-006  0.9118800E+02  0.7816164E-02  0.1184000E+00
        -11   -1    0    0    0    0  0.00000000000E+00  0.00000000000E+00  0.45593999997E+02  0.45594000000E+02  0.51100000000E-03 0. -1.
         11   -1    0    0    0    0 -0.00000000000E+00 -0.00000000000E+00 -0.45593999997E+02  0.45594000000E+02  0.51100000000E-03 0.  1.
         23    2    1    2    0    0  0.00000000000E+00  0.00000000000E+00  0.35527136788E-14  0.91188000000E+02  0.91188000000E+02 0.  0.
    9900012    2    3    3    0    0 -0.25399693607E+02 -0.17005477105E+02 -0.20529265111E+02  0.54367062846E+02  0.39999951370E+02 0.  0.
         12    1    3    3    0    0  0.25399693607E+02  0.17005477105E+02  0.20529265111E+02  0.36820937154E+02  0.00000000000E+00 0. -1.
         11    1    4    4    0    0 -0.78178397854E+01  0.28153831830E+01  0.57060516337E+01  0.10079882285E+02  0.51100000000E-03 0. -1.
        -11    1    4    4    0    0 -0.53005108506E+01  0.47467603708E+01 -0.10344213770E+02  0.12555074993E+02  0.51100000000E-03 0.  1.
         12    1    4    4    0    0 -0.12281342971E+02 -0.24567620659E+02 -0.15891102975E+02  0.31732105568E+02  0.00000000000E+00 0. -1.
</event>
<event>
 8    1  0.1269154E-006  0.9118800E+02  0.7816164E-02  0.1184000E+00
        -11   -1    0    0    0    0  0.00000000000E+00  0.00000000000E+00  0.45593999997E+02  0.45594000000E+02  0.51100000000E-03 0. -1.
         11   -1    0    0    0    0 -0.00000000000E+00 -0.00000000000E+00 -0.45593999997E+02  0.45594000000E+02  0.51100000000E-03 0.  1.
         23    2    1    2    0    0  0.00000000000E+00  0.17763568394E-14  0.17763568394E-14  0.91188000000E+02  0.91188000000E+02 0.  0.
    9900012    2    3    3    0    0 -0.30814475364E+02  0.12675616507E+02  0.15670888372E+02  0.54367083550E+02  0.39999998570E+02 0.  0.
         12    1    3    3    0    0  0.30814475364E+02 -0.12675616507E+02 -0.15670888372E+02  0.36820916450E+02  0.00000000000E+00 0. -1.
         11    1    4    4    0    0  0.38585550868E+01  0.42847736908E+01 -0.27206008854E+01  0.63756883847E+01  0.51100000000E-03 0. -1.
        -11    1    4    4    0    0 -0.28475294831E+02  0.13082206771E+02  0.23075482161E+02  0.38916120399E+02  0.51100000000E-03 0.  1.
         12    1    4    4    0    0 -0.61977356204E+01 -0.46913639542E+01 -0.46839929032E+01  0.90752747665E+01  0.00000000000E+00 0. -1.
</event>
<event>
 8    1  0.1269154E-006  0.9118800E+02  0.7816164E-02  0.1184000E+00
        -11   -1    0    0    0    0  0.00000000000E+00  0.00000000000E+00  0.45593999997E+02  0.45594000000E+02  0.51100000000E-03 0. -1.
         11   -1    0    0    0    0 -0.00000000000E+00 -0.00000000000E+00 -0.45593999997E+02  0.45594000000E+02  0.51100000000E-03 0.  1.
         23    2    1    2    0    0 -0.88817841970E-15  0.00000000000E+00  0.00000000000E+00  0.91188000000E+02  0.91188000000E+02 0.  0.
    9900012    2    3    3    0    0  0.59327669232E+01  0.36125340488E+02  0.39419145767E+01  0.54367127669E+02  0.40000099146E+02 0.  0.
        -12    1    3    3    0    0 -0.59327669232E+01 -0.36125340488E+02 -0.39419145767E+01  0.36820872331E+02  0.00000000000E+00 0.  1.
         11    1    4    4    0    0 -0.14177836352E+01  0.21806536166E+02  0.10700130250E+01  0.21878758148E+02  0.51100000000E-03 0. -1.
        -11    1    4    4    0    0  0.83889876027E+01 -0.61850265706E+01 -0.34961625147E+01  0.10993307931E+02  0.51100000000E-03 0.  1.
        -12    1    4    4    0    0 -0.10384370443E+01  0.20503830893E+02  0.63680640663E+01  0.21495061589E+02  0.00000000000E+00 0.  1.
</event>
<event>
 8    1  0.1269154E-006  0.9118800E+02  0.7816164E-02  0.1184000E+00
        -11   -1    0    0    0    0  0.00000000000E+00  0.00000000000E+00  0.45593999997E+02  0.45594000000E+02  0.51100000000E-03 0. -1.
         11   -1    0    0    0    0 -0.00000000000E+00 -0.00000000000E+00 -0.45593999997E+02  0.45594000000E+02  0.51100000000E-03 0.  1.
         23    2    1    2    0    0 -0.35527136788E-14 -0.44408920985E-15  0.00000000000E+00  0.91188000000E+02  0.91188000000E+02 0.  0.
    9900012    2    3    3    0    0 -0.24401265683E+02 -0.28046625312E+01 -0.27431629422E+02  0.54367052272E+02  0.39999927265E+02 0.  0.
         12    1    3    3    0    0  0.24401265683E+02  0.28046625312E+01  0.27431629422E+02  0.36820947728E+02  0.00000000000E+00 0. -1.
         11    1    4    4    0    0 -0.57168064045E+01  0.14456398803E+01  0.46248739911E+00  0.59148664385E+01  0.51100000000E-03 0. -1.
        -11    1    4    4    0    0 -0.19770163101E+02 -0.79421382961E+01 -0.34650538679E+02  0.40676734637E+02  0.51100000000E-03 0.  1.
        -12    1    4    4    0    0  0.10857038220E+01  0.36918358846E+01  0.67564218580E+01  0.77754511967E+01  0.00000000000E+00 0.  1.
</event>
<event>
 8    1  0.1269154E-006  0.9118800E+02  0.7816164E-02  0.1184000E+00
        -11   -1    0    0    0    0  0.00000000000E+00  0.00000000000E+00  0.45593999997E+02  0.45594000000E+02  0.51100000000E-03 0.  1.
         11   -1    0    0    0    0 -0.00000000000E+00 -0.00000000000E+00 -0.45593999997E+02  0.45594000000E+02  0.51100000000E-03 0. -1.
         23    2    1    2    0    0  0.00000000000E+00  0.00000000000E+00  0.00000000000E+00  0.91188000000E+02  0.91188000000E+02 0.  0.
    9900012    2    3    3    0    0  0.15460360152E+02  0.26790637650E+02  0.19975405943E+02  0.54367111305E+02  0.40000061842E+02 0.  0.
         12    1    3    3    0    0 -0.15460360152E+02 -0.26790637650E+02 -0.19975405943E+02  0.36820888695E+02  0.00000000000E+00 0. -1.
         11    1    4    4    0    0  0.18697670815E+02  0.17395101097E+02  0.11235721812E+02  0.27900427971E+02  0.51100000000E-03 0. -1.
        -11    1    4    4    0    0  0.78583845972E+01 -0.10559315801E+00  0.88799397531E+01  0.11858275114E+02  0.51100000000E-03 0.  1.
         12    1    4    4    0    0 -0.11095695260E+02  0.95011297108E+01 -0.14025562194E+00  0.14608408220E+02  0.00000000000E+00 0. -1.
</event>
<event>
 8    1  0.1269154E-006  0.9118800E+02  0.7816164E-02  0.1184000E+00
        -11   -1    0    0    0    0  0.00000000000E+00  0.00000000000E+00  0.45593999997E+02  0.45594000000E+02  0.51100000000E-03 0.  1.
         11   -1    0    0    0    0 -0.00000000000E+00 -0.00000000000E+00 -0.45593999997E+02  0.45594000000E+02  0.51100000000E-03 0. -1.
         23    2    1    2    0    0  0.00000000000E+00 -0.44408920985E-15 -0.35527136788E-14  0.91188000000E+02  0.91188000000E+02 0.  0.
    9900012    2    3    3    0    0  0.32782499981E+02 -0.32263513460E+01  0.16452307928E+02  0.54367080889E+02  0.39999992503E+02 0.  0.
         12    1    3    3    0    0 -0.32782499981E+02  0.32263513460E+01 -0.16452307928E+02  0.36820919111E+02  0.00000000000E+00 0. -1.
         11    1    4    4    0    0  0.51073951738E+01  0.38522089132E+01 -0.28603805269E+01  0.70076227062E+01  0.51100000000E-03 0. -1.
        -11    1    4    4    0    0  0.20296384361E+02  0.86473638438E+01  0.94993278872E+00  0.22082175892E+02  0.51100000000E-03 0.  1.
        -12    1    4    4    0    0  0.73787204459E+01 -0.15725924103E+02  0.18362755667E+02  0.25277282290E+02  0.00000000000E+00 0.  1.
</event>
<event>
 8    1  0.1269154E-006  0.9118800E+02  0.7816164E-02  0.1184000E+00
        -11   -1    0    0    0    0  0.00000000000E+00  0.00000000000E+00  0.45593999997E+02  0.45594000000E+02  0.51100000000E-03 0.  1.
         11   -1    0    0    0    0 -0.00000000000E+00 -0.00000000000E+00 -0.45593999997E+02  0.45594000000E+02  0.51100000000E-03 0. -1.
         23    2    1    2    0    0  0.00000000000E+00  0.00000000000E+00  0.88817841970E-15  0.91188000000E+02  0.91188000000E+02 0.  0.
    9900012    2    3    3    0    0  0.23126660539E+02  0.28628539849E+02 -0.11594126610E+01  0.54367082584E+02  0.39999996367E+02 0.  0.
         12    1    3    3    0    0 -0.23126660539E+02 -0.28628539849E+02  0.11594126610E+01  0.36820917416E+02  0.00000000000E+00 0. -1.
         11    1    4    4    0    0  0.64656050350E+01  0.12487136564E+02  0.15196214188E+02  0.20704046801E+02  0.51100000000E-03 0. -1.
        -11    1    4    4    0    0  0.40543026698E+01  0.35875507221E+01  0.39233820970E+01  0.66858670090E+01  0.51100000000E-03 0.  1.
         12    1    4    4    0    0  0.12606752835E+02  0.12553852563E+02 -0.20279008946E+02  0.26977168774E+02  0.00000000000E+00 0. -1.
</event>
<event>
 8    1  0.1269154E-006  0.9118800E+02  0.7816164E-02  0.1184000E+00
        -11   -1    0    0    0    0  0.00000000000E+00  0.00000000000E+00  0.45593999997E+02  0.45594000000E+02  0.51100000000E-03 0.  1.
         11   -1    0    0    0    0 -0.00000000000E+00 -0.00000000000E+00 -0.45593999997E+02  0.45594000000E+02  0.51100000000E-03 0. -1.
         23    2    1    2    0    0  0.88817841970E-15 -0.35527136788E-14  0.00000000000E+00  0.91188000000E+02  0.91188000000E+02 0.  0.
    9900012    2    3    3    0    0  0.63320012694E+01 -0.24736046119E+02 -0.26529509479E+02  0.54367067219E+02  0.39999961338E+02 0.  0.
        -12    1    3    3    0    0 -0.63320012694E+01  0.24736046119E+02  0.26529509479E+02  0.36820932781E+02  0.00000000000E+00 0.  1.
         11    1    4    4    0    0 -0.24555595695E+01 -0.52211341840E+01 -0.30416813864E+02  0.30959208337E+02  0.51100000000E-03 0. -1.
        -11    1    4    4    0    0 -0.14774916320E+01 -0.55960538408E+01  0.10289630346E+01  0.58785683036E+01  0.51100000000E-03 0.  1.
         12    1    4    4    0    0  0.10265052471E+02 -0.13918858095E+02  0.28583413503E+01  0.17529290578E+02  0.00000000000E+00 0. -1.
</event>
<event>
 8    1  0.1269154E-006  0.9118800E+02  0.7816164E-02  0.1184000E+00
        -11   -1    0    0    0    0  0.00000000000E+00  0.00000000000E+00  0.45593999997E+02  0.45594000000E+02  0.51100000000E-03 0.  1.
         11   -1    0    0    0    0 -0.00000000000E+00 -0.00000000000E+00 -0.45593999997E+02  0.45594000000E+02  0.51100000000E-03 0. -1.
         23    2    1    2    0    0  0.00000000000E+00  0.88817841970E-15  0.00000000000E+00  0.91188000000E+02  0.91188000000E+02 0.  0.
    9900012    2    3    3    0    0  0.53550875374E+01 -0.79223520443E+01  0.35557565853E+02  0.54367066907E+02  0.39999960628E+02 0.  0.
         12    1    3    3    0    0 -0.53550875374E+01  0.79223520443E+01 -0.35557565853E+02  0.36820933093E+02  0.00000000000E+00 0. -1.
         11    1    4    4    0    0 -0.36399951342E+01 -0.30637959111E+01 -0.29263629917E+01  0.55856969647E+01  0.51100000000E-03 0. -1.
        -11    1    4    4    0    0  0.60889464995E+01 -0.20593447449E+01  0.42561914360E+02  0.43044543493E+02  0.51100000000E-03 0.  1.
        -12    1    4    4    0    0  0.29061361721E+01 -0.27992113883E+01 -0.40779855155E+01  0.57368264495E+01  0.00000000000E+00 0.  1.
</event>
<event>
 8    1  0.1269154E-006  0.9118800E+02  0.7816164E-02  0.1184000E+00
        -11   -1    0    0    0    0  0.00000000000E+00  0.00000000000E+00  0.45593999997E+02  0.45594000000E+02  0.51100000000E-03 0.  1.
         11   -1    0    0    0    0 -0.00000000000E+00 -0.00000000000E+00 -0.45593999997E+02  0.45594000000E+02  0.51100000000E-03 0. -1.
         23    2    1    2    0    0  0.00000000000E+00 -0.71054273576E-14  0.00000000000E+00  0.91188000000E+02  0.91188000000E+02 0.  0.
    9900012    2    3    3    0    0 -0.20726729267E+02  0.24938529312E+02  0.17442846056E+02  0.54367076208E+02  0.39999981832E+02 0.  0.
         12    1    3    3    0    0  0.20726729267E+02 -0.24938529312E+02 -0.17442846056E+02  0.36820923792E+02  0.00000000000E+00 0. -1.
         11    1    4    4    0    0 -0.20092599398E+01 -0.53628743043E+01  0.10964949466E+02  0.12370435052E+02  0.51100000000E-03 0. -1.
        -11    1    4    4    0    0 -0.13143452819E+02  0.19936070438E+02  0.14330030336E+02  0.27848644962E+02  0.51100000000E-03 0.  1.
         12    1    4    4    0    0 -0.55740165076E+01  0.10365333179E+02 -0.78521337470E+01  0.14147996195E+02  0.00000000000E+00 0. -1.
</event>
<event>
 8    1  0.1269154E-006  0.9118800E+02  0.7816164E-02  0.1184000E+00
        -11   -1    0    0    0    0  0.00000000000E+00  0.00000000000E+00  0.45593999997E+02  0.45594000000E+02  0.51100000000E-03 0.  1.
         11   -1    0    0    0    0 -0.00000000000E+00 -0.00000000000E+00 -0.45593999997E+02  0.45594000000E+02  0.51100000000E-03 0. -1.
         23    2    1    2    0    0  0.00000000000E+00  0.00000000000E+00  0.00000000000E+00  0.91188000000E+02  0.91188000000E+02 0.  0.
    9900012    2    3    3    0    0 -0.32024529303E+02  0.40765100569E+01  0.17708522274E+02  0.54367079690E+02  0.39999989770E+02 0.  0.
         12    1    3    3    0    0  0.32024529303E+02 -0.40765100569E+01 -0.17708522274E+02  0.36820920310E+02  0.00000000000E+00 0. -1.
         11    1    4    4    0    0 -0.28924412585E+02 -0.59287203436E-01  0.87486426609E+01  0.30218602004E+02  0.51100000000E-03 0. -1.
        -11    1    4    4    0    0 -0.11321411860E+02  0.69083359770E+01  0.78232226855E+01  0.15398126052E+02  0.51100000000E-03 0.  1.
        -12    1    4    4    0    0  0.82212951426E+01 -0.27725387167E+01  0.11366569279E+01  0.87503516346E+01  0.00000000000E+00 0.  1.
</event>
<event>
 8    1  0.1269154E-006  0.9118800E+02  0.7816164E-02  0.1184000E+00
        -11   -1    0    0    0    0  0.00000000000E+00  0.00000000000E+00  0.45593999997E+02  0.45594000000E+02  0.51100000000E-03 0.  1.
         11   -1    0    0    0    0 -0.00000000000E+00 -0.00000000000E+00 -0.45593999997E+02  0.45594000000E+02  0.51100000000E-03 0. -1.
         23    2    1    2    0    0  0.00000000000E+00  0.88817841970E-15  0.35527136788E-14  0.91188000000E+02  0.91188000000E+02 0.  0.
    9900012    2    3    3    0    0  0.24977631675E+02  0.22632250116E+01 -0.26958791308E+02  0.54367072522E+02  0.39999973428E+02 0.  0.
        -12    1    3    3    0    0 -0.24977631675E+02 -0.22632250116E+01  0.26958791308E+02  0.36820927478E+02  0.00000000000E+00 0.  1.
         11    1    4    4    0    0  0.55619492606E+01 -0.59513628340E+00  0.12335610208E+01  0.57281008917E+01  0.51100000000E-03 0. -1.
        -11    1    4    4    0    0  0.42644111187E+01  0.95680911818E+01  0.49492192594E+01  0.11585695602E+02  0.51100000000E-03 0.  1.
         12    1    4    4    0    0  0.15151271296E+02 -0.67097298868E+01 -0.33141571589E+02  0.37053276028E+02  0.00000000000E+00 0. -1.
</event>
<event>
 8    1  0.1269154E-006  0.9118800E+02  0.7816164E-02  0.1184000E+00
        -11   -1    0    0    0    0  0.00000000000E+00  0.00000000000E+00  0.45593999997E+02  0.45594000000E+02  0.51100000000E-03 0.  1.
         11   -1    0    0    0    0 -0.00000000000E+00 -0.00000000000E+00 -0.45593999997E+02  0.45594000000E+02  0.51100000000E-03 0. -1.
         23    2    1    2    0    0  0.00000000000E+00  0.00000000000E+00  0.00000000000E+00  0.91188000000E+02  0.91188000000E+02 0.  0.
    9900012    2    3    3    0    0 -0.22928038463E+02 -0.28159650867E+02 -0.60925766480E+01  0.54367076941E+02  0.39999983503E+02 0.  0.
        -12    1    3    3    0    0  0.22928038463E+02  0.28159650867E+02  0.60925766480E+01  0.36820923059E+02  0.00000000000E+00 0.  1.
         11    1    4    4    0    0  0.55363749345E+01 -0.83992729102E+00  0.97305061642E+00  0.56836390660E+01  0.51100000000E-03 0. -1.
        -11    1    4    4    0    0  0.21083947016E+01  0.36429856027E+01 -0.25868466153E+01  0.49404906630E+01  0.51100000000E-03 0.  1.
         12    1    4    4    0    0 -0.30572808099E+02 -0.30962709178E+02 -0.44787806491E+01  0.43742947212E+02  0.00000000000E+00 0. -1.
</event>
<event>
 8    1  0.1269154E-006  0.9118800E+02  0.7816164E-02  0.1184000E+00
        -11   -1    0    0    0    0  0.00000000000E+00  0.00000000000E+00  0.45593999997E+02  0.45594000000E+02  0.51100000000E-03 0.  1.
         11   -1    0    0    0    0 -0.00000000000E+00 -0.00000000000E+00 -0.45593999997E+02  0.45594000000E+02  0.51100000000E-03 0. -1.
         23    2    1    2    0    0 -0.35527136788E-14 -0.35527136788E-14 -0.35527136788E-14  0.91188000000E+02  0.91188000000E+02 0.  0.
    9900012    2    3    3    0    0 -0.22341843572E+02 -0.18608124872E+02 -0.22591129620E+02  0.54367089868E+02  0.40000012972E+02 0.  0.
        -12    1    3    3    0    0  0.22341843572E+02  0.18608124872E+02  0.22591129620E+02  0.36820910132E+02  0.00000000000E+00 0.  1.
         11    1    4    4    0    0  0.19239470898E+01  0.17805913170E+01 -0.24822210875E+01  0.36101938495E+01  0.51100000000E-03 0. -1.
        -11    1    4    4    0    0 -0.22567911654E+02  0.97494497429E+00 -0.19604238817E+01  0.22673870780E+02  0.51100000000E-03 0.  1.
         12    1    4    4    0    0 -0.16978790082E+01 -0.21363661163E+02 -0.18148484650E+02  0.28083025238E+02  0.00000000000E+00 0. -1.
</event>
<event>
 8    1  0.1269154E-006  0.9118800E+02  0.7816164E-02  0.1184000E+00
        -11   -1    0    0    0    0  0.00000000000E+00  0.00000000000E+00  0.45593999997E+02  0.45594000000E+02  0.51100000000E-03 0. -1.
         11   -1    0    0    0    0 -0.00000000000E+00 -0.00000000000E+00 -0.45593999997E+02  0.45594000000E+02  0.51100000000E-03 0.  1.
         23    2    1    2    0    0 -0.71054273576E-14  0.22204460493E-15  0.00000000000E+00  0.91188000000E+02  0.91188000000E+02 0.  0.
    9900012    2    3    3    0    0 -0.36301243340E+02  0.15831734652E+01  0.59574672679E+01  0.54367107527E+02  0.40000053230E+02 0.  0.
         12    1    3    3    0    0  0.36301243340E+02 -0.15831734652E+01 -0.59574672679E+01  0.36820892473E+02  0.00000000000E+00 0. -1.
         11    1    4    4    0    0 -0.58417034065E+00  0.89859816031E+01  0.11560018197E+02  0.14653434455E+02  0.51100000000E-03 0. -1.
        -11    1    4    4    0    0 -0.15106033709E+02  0.31487187335E+01 -0.59978626466E+01  0.16555393100E+02  0.51100000000E-03 0.  1.
         12    1    4    4    0    0 -0.20611039290E+02 -0.10551526871E+02  0.39531171748E+00  0.23158279972E+02  0.00000000000E+00 0. -1.
</event>
<event>
 8    1  0.1269154E-006  0.9118800E+02  0.7816164E-02  0.1184000E+00
        -11   -1    0    0    0    0  0.00000000000E+00  0.00000000000E+00  0.45593999997E+02  0.45594000000E+02  0.51100000000E-03 0. -1.
         11   -1    0    0    0    0 -0.00000000000E+00 -0.00000000000E+00 -0.45593999997E+02  0.45594000000E+02  0.51100000000E-03 0.  1.
         23    2    1    2    0    0  0.88817841970E-15  0.88817841970E-15  0.00000000000E+00  0.91188000000E+02  0.91188000000E+02 0.  0.
    9900012    2    3    3    0    0 -0.62316546228E+01  0.62279651287E+01 -0.35751330704E+02  0.54367099467E+02  0.40000034855E+02 0.  0.
         12    1    3    3    0    0  0.62316546228E+01 -0.62279651287E+01  0.35751330704E+02  0.36820900533E+02  0.00000000000E+00 0. -1.
         11    1    4    4    0    0 -0.35578965064E+01 -0.18344973502E+01 -0.66616119839E+01  0.77718133382E+01  0.51100000000E-03 0. -1.
        -11    1    4    4    0    0 -0.10373726540E+02  0.49311311352E+01 -0.34710082233E+02  0.36561182495E+02  0.51100000000E-03 0.  1.
         12    1    4    4    0    0  0.76999684232E+01  0.31313313437E+01  0.56203635131E+01  0.10034103633E+02  0.00000000000E+00 0. -1.
</event>
<event>
 8    1  0.1269154E-006  0.9118800E+02  0.7816164E-02  0.1184000E+00
        -11   -1    0    0    0    0  0.00000000000E+00  0.00000000000E+00  0.45593999997E+02  0.45594000000E+02  0.51100000000E-03 0.  1.
         11   -1    0    0    0    0 -0.00000000000E+00 -0.00000000000E+00 -0.45593999997E+02  0.45594000000E+02  0.51100000000E-03 0. -1.
         23    2    1    2    0    0  0.00000000000E+00 -0.35527136788E-14 -0.17763568394E-14  0.91188000000E+02  0.91188000000E+02 0.  0.
    9900012    2    3    3    0    0  0.22473649982E+02  0.27947238544E+02 -0.83466718743E+01  0.54367081800E+02  0.39999994578E+02 0.  0.
        -12    1    3    3    0    0 -0.22473649982E+02 -0.27947238544E+02  0.83466718743E+01  0.36820918200E+02  0.00000000000E+00 0.  1.
         11    1    4    4    0    0  0.42701125572E+01 -0.16673720016E+01 -0.76102609192E+01  0.88842592355E+01  0.51100000000E-03 0. -1.
        -11    1    4    4    0    0 -0.42491304321E+01 -0.27605239545E+01  0.30306333166E+01  0.59042646022E+01  0.51100000000E-03 0.  1.
         12    1    4    4    0    0  0.22452667856E+02  0.32375134500E+02 -0.37670442717E+01  0.39578557962E+02  0.00000000000E+00 0. -1.
</event>
<event>
 8    1  0.1269154E-006  0.9118800E+02  0.7816164E-02  0.1184000E+00
        -11   -1    0    0    0    0  0.00000000000E+00  0.00000000000E+00  0.45593999997E+02  0.45594000000E+02  0.51100000000E-03 0. -1.
         11   -1    0    0    0    0 -0.00000000000E+00 -0.00000000000E+00 -0.45593999997E+02  0.45594000000E+02  0.51100000000E-03 0.  1.
         23    2    1    2    0    0  0.00000000000E+00  0.00000000000E+00  0.00000000000E+00  0.91188000000E+02  0.91188000000E+02 0.  0.
    9900012    2    3    3    0    0  0.10214630323E+02 -0.25287100078E+02 -0.24738711666E+02  0.54367082604E+02  0.39999996412E+02 0.  0.
         12    1    3    3    0    0 -0.10214630323E+02  0.25287100078E+02  0.24738711666E+02  0.36820917396E+02  0.00000000000E+00 0. -1.
         11    1    4    4    0    0  0.48905336666E+00  0.84107620748E+01 -0.38332885088E+01  0.92560354865E+01  0.51100000000E-03 0.  1.
        -11    1    4    4    0    0 -0.32940134811E+01  0.52964935187E+00 -0.13767484316E+01  0.36092228740E+01  0.51100000000E-03 0. -1.
        -12    1    4    4    0    0  0.13019590438E+02 -0.34227511505E+02 -0.19528674725E+02  0.41501824243E+02  0.00000000000E+00 0.  1.
</event>
<event>
 8    1  0.1269154E-006  0.9118800E+02  0.7816164E-02  0.1184000E+00
        -11   -1    0    0    0    0  0.00000000000E+00  0.00000000000E+00  0.45593999997E+02  0.45594000000E+02  0.51100000000E-03 0. -1.
         11   -1    0    0    0    0 -0.00000000000E+00 -0.00000000000E+00 -0.45593999997E+02  0.45594000000E+02  0.51100000000E-03 0.  1.
         23    2    1    2    0    0  0.17763568394E-14  0.35527136788E-14  0.00000000000E+00  0.91188000000E+02  0.91188000000E+02 0.  0.
    9900012    2    3    3    0    0  0.54594324641E+01  0.28772972159E+02  0.22317954301E+02  0.54367076412E+02  0.39999982298E+02 0.  0.
        -12    1    3    3    0    0 -0.54594324641E+01 -0.28772972159E+02 -0.22317954301E+02  0.36820923588E+02  0.00000000000E+00 0.  1.
         11    1    4    4    0    0  0.90505830960E+01  0.12513389276E+02  0.57266893602E+01  0.16470972553E+02  0.51100000000E-03 0.  1.
        -11    1    4    4    0    0 -0.62342864375E+01  0.23031008595E+02  0.18714128232E+02  0.30323460885E+02  0.51100000000E-03 0. -1.
        -12    1    4    4    0    0  0.26431358056E+01 -0.67714257122E+01 -0.21228632921E+01  0.75726429745E+01  0.00000000000E+00 0.  1.
</event>
<event>
 8    1  0.1269154E-006  0.9118800E+02  0.7816164E-02  0.1184000E+00
        -11   -1    0    0    0    0  0.00000000000E+00  0.00000000000E+00  0.45593999997E+02  0.45594000000E+02  0.51100000000E-03 0.  1.
         11   -1    0    0    0    0 -0.00000000000E+00 -0.00000000000E+00 -0.45593999997E+02  0.45594000000E+02  0.51100000000E-03 0. -1.
         23    2    1    2    0    0  0.00000000000E+00  0.00000000000E+00  0.35527136788E-14  0.91188000000E+02  0.91188000000E+02 0.  0.
    9900012    2    3    3    0    0 -0.12724301144E+02  0.22839279437E+02  0.25927591591E+02  0.54367074828E+02  0.39999978685E+02 0.  0.
         12    1    3    3    0    0  0.12724301144E+02 -0.22839279437E+02 -0.25927591591E+02  0.36820925172E+02  0.00000000000E+00 0. -1.
         11    1    4    4    0    0 -0.67838224432E+01 -0.30559779225E+01  0.20396467623E+02  0.21711175458E+02  0.51100000000E-03 0. -1.
        -11    1    4    4    0    0 -0.10981821272E+02  0.10028672871E+02 -0.67822005023E+00  0.14887399394E+02  0.51100000000E-03 0.  1.
        -12    1    4    4    0    0  0.50413425716E+01  0.15866584489E+02  0.62093440181E+01  0.17768499976E+02  0.00000000000E+00 0.  1.
</event>
<event>
 8    1  0.1269154E-006  0.9118800E+02  0.7816164E-02  0.1184000E+00
        -11   -1    0    0    0    0  0.00000000000E+00  0.00000000000E+00  0.45593999997E+02  0.45594000000E+02  0.51100000000E-03 0.  1.
         11   -1    0    0    0    0 -0.00000000000E+00 -0.00000000000E+00 -0.45593999997E+02  0.45594000000E+02  0.51100000000E-03 0. -1.
         23    2    1    2    0    0  0.17763568394E-14 -0.66613381478E-15 -0.71054273576E-14  0.91188000000E+02  0.91188000000E+02 0.  0.
    9900012    2    3    3    0    0  0.68536528349E+01  0.13825264851E+01  0.36151004787E+02  0.54367094474E+02  0.40000023472E+02 0.  0.
         12    1    3    3    0    0 -0.68536528349E+01 -0.13825264851E+01 -0.36151004787E+02  0.36820905526E+02  0.00000000000E+00 0. -1.
         11    1    4    4    0    0  0.36526158230E+01 -0.78697601828E+01  0.19613236663E+02  0.21446533061E+02  0.51100000000E-03 0. -1.
        -11    1    4    4    0    0  0.75577932139E+01  0.55564670697E+01  0.22673154531E+02  0.24537043448E+02  0.51100000000E-03 0.  1.
         12    1    4    4    0    0 -0.43567562020E+01  0.36958195982E+01 -0.61353864066E+01  0.83835179647E+01  0.00000000000E+00 0. -1.
</event>
<event>
 8    1  0.1269154E-006  0.9118800E+02  0.7816164E-02  0.1184000E+00
        -11   -1    0    0    0    0  0.00000000000E+00  0.00000000000E+00  0.45593999997E+02  0.45594000000E+02  0.51100000000E-03 0. -1.
         11   -1    0    0    0    0 -0.00000000000E+00 -0.00000000000E+00 -0.45593999997E+02  0.45594000000E+02  0.51100000000E-03 0.  1.
         23    2    1    2    0    0  0.00000000000E+00  0.00000000000E+00  0.35527136788E-14  0.91188000000E+02  0.91188000000E+02 0.  0.
    9900012    2    3    3    0    0 -0.21246181610E+02  0.84061191487E+01 -0.28874124292E+02  0.54367107482E+02  0.40000053127E+02 0.  0.
         12    1    3    3    0    0  0.21246181610E+02 -0.84061191487E+01  0.28874124292E+02  0.36820892518E+02  0.00000000000E+00 0. -1.
         11    1    4    4    0    0 -0.20558500652E+02  0.15166284825E+01 -0.13139393988E+02  0.24445772347E+02  0.51100000000E-03 0. -1.
        -11    1    4    4    0    0 -0.59497495240E+01  0.67840955275E+01 -0.20765050452E+02  0.22640909700E+02  0.51100000000E-03 0.  1.
         12    1    4    4    0    0  0.52620685653E+01  0.10539513868E+00  0.50303201477E+01  0.72804254347E+01  0.00000000000E+00 0. -1.
</event>
<event>
 8    1  0.1269154E-006  0.9118800E+02  0.7816164E-02  0.1184000E+00
        -11   -1    0    0    0    0  0.00000000000E+00  0.00000000000E+00  0.45593999997E+02  0.45594000000E+02  0.51100000000E-03 0. -1.
         11   -1    0    0    0    0 -0.00000000000E+00 -0.00000000000E+00 -0.45593999997E+02  0.45594000000E+02  0.51100000000E-03 0.  1.
         23    2    1    2    0    0  0.00000000000E+00 -0.88817841970E-15  0.35527136788E-14  0.91188000000E+02  0.91188000000E+02 0.  0.
    9900012    2    3    3    0    0 -0.19179287527E+02 -0.67956589235E+01  0.30688004385E+02  0.54367086603E+02  0.40000005528E+02 0.  0.
        -12    1    3    3    0    0  0.19179287527E+02  0.67956589235E+01 -0.30688004385E+02  0.36820913397E+02  0.00000000000E+00 0.  1.
         11    1    4    4    0    0 -0.20748012050E+02 -0.14414699299E+02  0.14021565719E+02  0.28894080110E+02  0.51100000000E-03 0. -1.
        -11    1    4    4    0    0 -0.59093328937E+01 -0.29452316364E+00  0.44106668096E+00  0.59330851351E+01  0.51100000000E-03 0.  1.
         12    1    4    4    0    0  0.74780574163E+01  0.79135635392E+01  0.16225371985E+02  0.19539921358E+02  0.00000000000E+00 0. -1.
</event>
<event>
 8    1  0.1269154E-006  0.9118800E+02  0.7816164E-02  0.1184000E+00
        -11   -1    0    0    0    0  0.00000000000E+00  0.00000000000E+00  0.45593999997E+02  0.45594000000E+02  0.51100000000E-03 0.  1.
         11   -1    0    0    0    0 -0.00000000000E+00 -0.00000000000E+00 -0.45593999997E+02  0.45594000000E+02  0.51100000000E-03 0. -1.
         23    2    1    2    0    0  0.00000000000E+00  0.00000000000E+00  0.00000000000E+00  0.91188000000E+02  0.91188000000E+02 0.  0.
    9900012    2    3    3    0    0 -0.28391633672E+02 -0.10642834314E+02  0.20890767526E+02  0.54367096254E+02  0.40000027531E+02 0.  0.
         12    1    3    3    0    0  0.28391633672E+02  0.10642834314E+02 -0.20890767526E+02  0.36820903746E+02  0.00000000000E+00 0. -1.
         11    1    4    4    0    0 -0.21683219915E+02 -0.73817133825E+01  0.23079669147E+02  0.32516501143E+02  0.51100000000E-03 0.  1.
        -11    1    4    4    0    0 -0.56844294369E+01 -0.39451652939E+01 -0.10977451352E+02  0.12976189952E+02  0.51100000000E-03 0. -1.
         12    1    4    4    0    0 -0.10239843207E+01  0.68404436253E+00  0.87885497305E+01  0.88744051601E+01  0.00000000000E+00 0. -1.
</event>
<event>
 8    1  0.1269154E-006  0.9118800E+02  0.7816164E-02  0.1184000E+00
        -11   -1    0    0    0    0  0.00000000000E+00  0.00000000000E+00  0.45593999997E+02  0.45594000000E+02  0.51100000000E-03 0.  1.
         11   -1    0    0    0    0 -0.00000000000E+00 -0.00000000000E+00 -0.45593999997E+02  0.45594000000E+02  0.51100000000E-03 0. -1.
         23    2    1    2    0    0  0.00000000000E+00 -0.44408920985E-15 -0.17763568394E-14  0.91188000000E+02  0.91188000000E+02 0.  0.
    9900012    2    3    3    0    0 -0.34121331097E+02  0.14715220198E+01 -0.13760445477E+02  0.54367075615E+02  0.39999980479E+02 0.  0.
        -12    1    3    3    0    0  0.34121331097E+02 -0.14715220198E+01  0.13760445477E+02  0.36820924385E+02  0.00000000000E+00 0.  1.
         11    1    4    4    0    0 -0.88560271508E+01  0.84685563723E-01 -0.78913817824E+01  0.11862137043E+02  0.51100000000E-03 0. -1.
        -11    1    4    4    0    0 -0.25730570411E+02 -0.12218650511E+02 -0.39840044988E+01  0.28761605763E+02  0.51100000000E-03 0.  1.
         12    1    4    4    0    0  0.46526646481E+00  0.13605486967E+02 -0.18850591960E+01  0.13743332808E+02  0.00000000000E+00 0. -1.
</event>
<event>
 8    1  0.1269154E-006  0.9118800E+02  0.7816164E-02  0.1184000E+00
        -11   -1    0    0    0    0  0.00000000000E+00  0.00000000000E+00  0.45593999997E+02  0.45594000000E+02  0.51100000000E-03 0.  1.
         11   -1    0    0    0    0 -0.00000000000E+00 -0.00000000000E+00 -0.45593999997E+02  0.45594000000E+02  0.51100000000E-03 0. -1.
         23    2    1    2    0    0  0.17763568394E-14 -0.71054273576E-14  0.35527136788E-14  0.91188000000E+02  0.91188000000E+02 0.  0.
    9900012    2    3    3    0    0 -0.65696327651E+01  0.29264599050E+02 -0.21358902602E+02  0.54367088108E+02  0.40000008959E+02 0.  0.
        -12    1    3    3    0    0  0.65696327651E+01 -0.29264599050E+02  0.21358902602E+02  0.36820911892E+02  0.00000000000E+00 0.  1.
         11    1    4    4    0    0  0.40260689348E+01  0.19027794839E+02 -0.77300128261E+01  0.20928910771E+02  0.51100000000E-03 0. -1.
        -11    1    4    4    0    0  0.80269493939E+01  0.74473152358E+01 -0.86679634524E+01  0.13965242979E+02  0.51100000000E-03 0.  1.
         12    1    4    4    0    0 -0.18622651094E+02  0.27894889752E+01 -0.49609263238E+01  0.19472934358E+02  0.00000000000E+00 0. -1.
</event>
<event>
 8    1  0.1269154E-006  0.9118800E+02  0.7816164E-02  0.1184000E+00
        -11   -1    0    0    0    0  0.00000000000E+00  0.00000000000E+00  0.45593999997E+02  0.45594000000E+02  0.51100000000E-03 0. -1.
         11   -1    0    0    0    0 -0.00000000000E+00 -0.00000000000E+00 -0.45593999997E+02  0.45594000000E+02  0.51100000000E-03 0.  1.
         23    2    1    2    0    0  0.00000000000E+00  0.00000000000E+00  0.00000000000E+00  0.91188000000E+02  0.91188000000E+02 0.  0.
    9900012    2    3    3    0    0  0.16233680218E+02  0.32931186825E+02 -0.27904065295E+01  0.54367057484E+02  0.39999939147E+02 0.  0.
        -12    1    3    3    0    0 -0.16233680218E+02 -0.32931186825E+02  0.27904065295E+01  0.36820942516E+02  0.00000000000E+00 0.  1.
         11    1    4    4    0    0  0.86097437871E+01  0.50179091853E+01 -0.11027822324E+02  0.14863376674E+02  0.51100000000E-03 0. -1.
        -11    1    4    4    0    0  0.77877146130E+01  0.17468743230E+02 -0.75591970560E+01  0.20565674055E+02  0.51100000000E-03 0.  1.
         12    1    4    4    0    0 -0.16377818200E+00  0.10444534410E+02  0.15796612850E+02  0.18938006756E+02  0.00000000000E+00 0. -1.
</event>
<event>
 8    1  0.1269154E-006  0.9118800E+02  0.7816164E-02  0.1184000E+00
        -11   -1    0    0    0    0  0.00000000000E+00  0.00000000000E+00  0.45593999997E+02  0.45594000000E+02  0.51100000000E-03 0.  1.
         11   -1    0    0    0    0 -0.00000000000E+00 -0.00000000000E+00 -0.45593999997E+02  0.45594000000E+02  0.51100000000E-03 0. -1.
         23    2    1    2    0    0 -0.88817841970E-15  0.00000000000E+00  0.00000000000E+00  0.91188000000E+02  0.91188000000E+02 0.  0.
    9900012    2    3    3    0    0 -0.52952004921E+01  0.10312796016E+02 -0.34948197898E+02  0.54367225344E+02  0.40000321816E+02 0.  0.
        -12    1    3    3    0    0  0.52952004921E+01 -0.10312796016E+02  0.34948197898E+02  0.36820774656E+02  0.00000000000E+00 0.  1.
         11    1    4    4    0    0  0.74960711499E+01  0.59677931124E+01 -0.18018238414E+02  0.20407414170E+02  0.51100000000E-03 0. -1.
        -11    1    4    4    0    0 -0.19934573529E+01 -0.10453200700E+02 -0.92365765405E+01  0.14091047638E+02  0.51100000000E-03 0.  1.
         12    1    4    4    0    0 -0.10797814289E+02  0.14798203604E+02 -0.76933829437E+01  0.19868763536E+02  0.00000000000E+00 0. -1.
</event>
<event>
 8    1  0.1269154E-006  0.9118800E+02  0.7816164E-02  0.1184000E+00
        -11   -1    0    0    0    0  0.00000000000E+00  0.00000000000E+00  0.45593999997E+02  0.45594000000E+02  0.51100000000E-03 0.  1.
         11   -1    0    0    0    0 -0.00000000000E+00 -0.00000000000E+00 -0.45593999997E+02  0.45594000000E+02  0.51100000000E-03 0. -1.
         23    2    1    2    0    0 -0.88817841970E-15 -0.35527136788E-14  0.35527136788E-14  0.91188000000E+02  0.91188000000E+02 0.  0.
    9900012    2    3    3    0    0 -0.14967213936E+01  0.23228290003E+02 -0.28530445980E+02  0.54367082314E+02  0.39999995751E+02 0.  0.
        -12    1    3    3    0    0  0.14967213936E+01 -0.23228290003E+02  0.28530445980E+02  0.36820917686E+02  0.00000000000E+00 0.  1.
         11    1    4    4    0    0 -0.79811178082E+01  0.30357950187E+02 -0.25474698202E+02  0.40426026639E+02  0.51100000000E-03 0. -1.
        -11    1    4    4    0    0  0.86348310136E+01 -0.35515204875E+01 -0.13601797138E+01  0.94352368026E+01  0.51100000000E-03 0.  1.
         12    1    4    4    0    0 -0.21504345990E+01 -0.35781396965E+01 -0.16955680647E+01  0.45058188728E+01  0.00000000000E+00 0. -1.
</event>
<event>
 8    1  0.1269154E-006  0.9118800E+02  0.7816164E-02  0.1184000E+00
        -11   -1    0    0    0    0  0.00000000000E+00  0.00000000000E+00  0.45593999997E+02  0.45594000000E+02  0.51100000000E-03 0. -1.
         11   -1    0    0    0    0 -0.00000000000E+00 -0.00000000000E+00 -0.45593999997E+02  0.45594000000E+02  0.51100000000E-03 0.  1.
         23    2    1    2    0    0  0.00000000000E+00  0.00000000000E+00 -0.71054273576E-14  0.91188000000E+02  0.91188000000E+02 0.  0.
    9900012    2    3    3    0    0 -0.67672188146E+01  0.12257712213E+02  0.34054879486E+02  0.54367060632E+02  0.39999946322E+02 0.  0.
        -12    1    3    3    0    0  0.67672188146E+01 -0.12257712213E+02 -0.34054879486E+02  0.36820939368E+02  0.00000000000E+00 0.  1.
         11    1    4    4    0    0 -0.12623680935E+02  0.12121918929E+01  0.14748676305E+02  0.19451225733E+02  0.51100000000E-03 0. -1.
        -11    1    4    4    0    0 -0.62243657364E+01  0.22716131890E+01 -0.36246135360E+01  0.75525345975E+01  0.51100000000E-03 0.  1.
        -12    1    4    4    0    0  0.12080827856E+02  0.87739071314E+01  0.22930816717E+02  0.27363300301E+02  0.00000000000E+00 0.  1.
</event>
<event>
 8    1  0.1269154E-006  0.9118800E+02  0.7816164E-02  0.1184000E+00
        -11   -1    0    0    0    0  0.00000000000E+00  0.00000000000E+00  0.45593999997E+02  0.45594000000E+02  0.51100000000E-03 0. -1.
         11   -1    0    0    0    0 -0.00000000000E+00 -0.00000000000E+00 -0.45593999997E+02  0.45594000000E+02  0.51100000000E-03 0.  1.
         23    2    1    2    0    0 -0.66613381478E-15 -0.88817841970E-15  0.00000000000E+00  0.91188000000E+02  0.91188000000E+02 0.  0.
    9900012    2    3    3    0    0  0.16077473571E+01 -0.37285957465E+01 -0.36596352528E+02  0.54367078011E+02  0.39999985941E+02 0.  0.
         12    1    3    3    0    0 -0.16077473571E+01  0.37285957465E+01  0.36596352528E+02  0.36820921989E+02  0.00000000000E+00 0. -1.
         11    1    4    4    0    0  0.12354551936E+02  0.34182272237E+01  0.95647024211E+00  0.12854340375E+02  0.51100000000E-03 0. -1.
        -11    1    4    4    0    0  0.19292927456E+01 -0.42470016448E+01 -0.10936638402E+02  0.11889880288E+02  0.51100000000E-03 0.  1.
         12    1    4    4    0    0 -0.12676097325E+02 -0.28998213254E+01 -0.26616184368E+02  0.29622857347E+02  0.00000000000E+00 0. -1.
</event>
<event>
 8    1  0.1269154E-006  0.9118800E+02  0.7816164E-02  0.1184000E+00
        -11   -1    0    0    0    0  0.00000000000E+00  0.00000000000E+00  0.45593999997E+02  0.45594000000E+02  0.51100000000E-03 0.  1.
         11   -1    0    0    0    0 -0.00000000000E+00 -0.00000000000E+00 -0.45593999997E+02  0.45594000000E+02  0.51100000000E-03 0. -1.
         23    2    1    2    0    0  0.17763568394E-14 -0.35527136788E-14 -0.71054273576E-14  0.91188000000E+02  0.91188000000E+02 0.  0.
    9900012    2    3    3    0    0  0.13892128621E+02 -0.26073541313E+02 -0.21976333779E+02  0.54367081481E+02  0.39999993852E+02 0.  0.
        -12    1    3    3    0    0 -0.13892128621E+02  0.26073541313E+02  0.21976333779E+02  0.36820918519E+02  0.00000000000E+00 0.  1.
         11    1    4    4    0    0 -0.63418119033E-01  0.17301923110E+00 -0.80818166295E-01  0.20121965430E+00  0.51100000000E-03 0. -1.
        -11    1    4    4    0    0 -0.98701490962E+01 -0.17108629295E+02 -0.20712520362E+02  0.28620509072E+02  0.51100000000E-03 0.  1.
         12    1    4    4    0    0  0.23825695836E+02 -0.91379312494E+01 -0.11829952502E+01  0.25545352755E+02  0.00000000000E+00 0. -1.
</event>
<event>
 8    1  0.1269154E-006  0.9118800E+02  0.7816164E-02  0.1184000E+00
        -11   -1    0    0    0    0  0.00000000000E+00  0.00000000000E+00  0.45593999997E+02  0.45594000000E+02  0.51100000000E-03 0.  1.
         11   -1    0    0    0    0 -0.00000000000E+00 -0.00000000000E+00 -0.45593999997E+02  0.45594000000E+02  0.51100000000E-03 0. -1.
         23    2    1    2    0    0  0.00000000000E+00  0.88817841970E-15  0.35527136788E-14  0.91188000000E+02  0.91188000000E+02 0.  0.
    9900012    2    3    3    0    0 -0.30868804606E+02 -0.22813952870E+01 -0.19942206199E+02  0.54367089496E+02  0.40000012124E+02 0.  0.
        -12    1    3    3    0    0  0.30868804606E+02  0.22813952870E+01  0.19942206199E+02  0.36820910504E+02  0.00000000000E+00 0.  1.
         11    1    4    4    0    0 -0.16602669320E+02  0.10375963817E+02 -0.21856288092E+02  0.29342913677E+02  0.51100000000E-03 0. -1.
        -11    1    4    4    0    0 -0.44442065152E+00  0.32535254268E+01  0.21889115499E+01  0.39464251485E+01  0.51100000000E-03 0.  1.
         12    1    4    4    0    0 -0.13821714635E+02 -0.15910884530E+02 -0.27482965705E+00  0.21077750670E+02  0.00000000000E+00 0. -1.
</event>
<event>
 8    1  0.1269154E-006  0.9118800E+02  0.7816164E-02  0.1184000E+00
        -11   -1    0    0    0    0  0.00000000000E+00  0.00000000000E+00  0.45593999997E+02  0.45594000000E+02  0.51100000000E-03 0.  1.
         11   -1    0    0    0    0 -0.00000000000E+00 -0.00000000000E+00 -0.45593999997E+02  0.45594000000E+02  0.51100000000E-03 0. -1.
         23    2    1    2    0    0 -0.17763568394E-14  0.35527136788E-14  0.35527136788E-14  0.91188000000E+02  0.91188000000E+02 0.  0.
    9900012    2    3    3    0    0 -0.14167267554E+02  0.25081640496E+02  0.22934251341E+02  0.54367081428E+02  0.39999993731E+02 0.  0.
        -12    1    3    3    0    0  0.14167267554E+02 -0.25081640496E+02 -0.22934251341E+02  0.36820918572E+02  0.00000000000E+00 0.  1.
         11    1    4    4    0    0 -0.13992402874E+02  0.19422295963E+02  0.30897789372E+01  0.24136272554E+02  0.51100000000E-03 0. -1.
        -11    1    4    4    0    0  0.53679409967E+01 -0.64046982586E+01  0.32202100005E+01  0.89557078467E+01  0.51100000000E-03 0.  1.
         12    1    4    4    0    0 -0.55428056765E+01  0.12064042792E+02  0.16624262403E+02  0.21275101027E+02  0.00000000000E+00 0. -1.
</event>
<event>
 8    1  0.1269154E-006  0.9118800E+02  0.7816164E-02  0.1184000E+00
        -11   -1    0    0    0    0  0.00000000000E+00  0.00000000000E+00  0.45593999997E+02  0.45594000000E+02  0.51100000000E-03 0.  1.
         11   -1    0    0    0    0 -0.00000000000E+00 -0.00000000000E+00 -0.45593999997E+02  0.45594000000E+02  0.51100000000E-03 0. -1.
         23    2    1    2    0    0  0.35527136788E-14 -0.71054273576E-14  0.00000000000E+00  0.91188000000E+02  0.91188000000E+02 0.  0.
    9900012    2    3    3    0    0 -0.25492091276E+02  0.25896928682E+02  0.59399075634E+01  0.54367080204E+02  0.39999990940E+02 0.  0.
         12    1    3    3    0    0  0.25492091276E+02 -0.25896928682E+02 -0.59399075634E+01  0.36820919796E+02  0.00000000000E+00 0. -1.
         11    1    4    4    0    0 -0.80371926374E+00 -0.14583166604E+01  0.42605632779E+01  0.45743908712E+01  0.51100000000E-03 0. -1.
        -11    1    4    4    0    0  0.28989239256E+00 -0.18188963805E+01  0.10272897298E+02  0.10436706416E+02  0.51100000000E-03 0.  1.
         12    1    4    4    0    0 -0.24978264405E+02  0.29174141723E+02 -0.85935530129E+01  0.39355982917E+02  0.00000000000E+00 0. -1.
</event>
<event>
 8    1  0.1269154E-006  0.9118800E+02  0.7816164E-02  0.1184000E+00
        -11   -1    0    0    0    0  0.00000000000E+00  0.00000000000E+00  0.45593999997E+02  0.45594000000E+02  0.51100000000E-03 0.  1.
         11   -1    0    0    0    0 -0.00000000000E+00 -0.00000000000E+00 -0.45593999997E+02  0.45594000000E+02  0.51100000000E-03 0. -1.
         23    2    1    2    0    0 -0.71054273576E-14 -0.17763568394E-14  0.71054273576E-14  0.91188000000E+02  0.91188000000E+02 0.  0.
    9900012    2    3    3    0    0  0.16311040042E+02  0.83749923780E+01 -0.31931020371E+02  0.54367074067E+02  0.39999976951E+02 0.  0.
        -12    1    3    3    0    0 -0.16311040042E+02 -0.83749923780E+01  0.31931020371E+02  0.36820925933E+02  0.00000000000E+00 0.  1.
         11    1    4    4    0    0 -0.14380220251E+01  0.42519858852E+01 -0.26110934788E+02  0.26493927740E+02  0.51100000000E-03 0. -1.
        -11    1    4    4    0    0 -0.38367224491E+01  0.38507520260E+01 -0.26727521892E+01  0.60574198173E+01  0.51100000000E-03 0.  1.
        -12    1    4    4    0    0  0.21585784516E+02  0.27225446690E+00 -0.31473333941E+01  0.21815726510E+02  0.00000000000E+00 0.  1.
</event>
<event>
 8    1  0.1269154E-006  0.9118800E+02  0.7816164E-02  0.1184000E+00
        -11   -1    0    0    0    0  0.00000000000E+00  0.00000000000E+00  0.45593999997E+02  0.45594000000E+02  0.51100000000E-03 0.  1.
         11   -1    0    0    0    0 -0.00000000000E+00 -0.00000000000E+00 -0.45593999997E+02  0.45594000000E+02  0.51100000000E-03 0. -1.
         23    2    1    2    0    0  0.00000000000E+00  0.00000000000E+00  0.00000000000E+00  0.91188000000E+02  0.91188000000E+02 0.  0.
    9900012    2    3    3    0    0  0.32541662264E+02  0.11277731976E+02  0.13024280069E+02  0.54367097068E+02  0.40000029386E+02 0.  0.
         12    1    3    3    0    0 -0.32541662264E+02 -0.11277731976E+02 -0.13024280069E+02  0.36820902932E+02  0.00000000000E+00 0. -1.
         11    1    4    4    0    0  0.12157546312E+02  0.11542703109E+02  0.10996445849E+02  0.20048983739E+02  0.51100000000E-03 0. -1.
        -11    1    4    4    0    0  0.20915400161E+01 -0.60095120920E+01  0.11339804726E+02  0.13003074509E+02  0.51100000000E-03 0.  1.
         12    1    4    4    0    0  0.18292575936E+02  0.57445409589E+01 -0.93119705055E+01  0.21315038820E+02  0.00000000000E+00 0. -1.
</event>
<event>
 8    1  0.1269154E-006  0.9118800E+02  0.7816164E-02  0.1184000E+00
        -11   -1    0    0    0    0  0.00000000000E+00  0.00000000000E+00  0.45593999997E+02  0.45594000000E+02  0.51100000000E-03 0.  1.
         11   -1    0    0    0    0 -0.00000000000E+00 -0.00000000000E+00 -0.45593999997E+02  0.45594000000E+02  0.51100000000E-03 0. -1.
         23    2    1    2    0    0  0.00000000000E+00  0.00000000000E+00  0.88817841970E-15  0.91188000000E+02  0.91188000000E+02 0.  0.
    9900012    2    3    3    0    0 -0.36070814522E+02  0.72608687544E+01 -0.14013927385E+01  0.54366976427E+02  0.39999754359E+02 0.  0.
        -12    1    3    3    0    0  0.36070814522E+02 -0.72608687544E+01  0.14013927385E+01  0.36821023573E+02  0.00000000000E+00 0.  1.
         11    1    4    4    0    0 -0.23022246154E+02  0.61169915033E+01 -0.84829091792E+01  0.25286382727E+02  0.51100000000E-03 0. -1.
        -11    1    4    4    0    0  0.54701353028E+01  0.89754924934E+00  0.88852611670E+01  0.10472623413E+02  0.51100000000E-03 0.  1.
         12    1    4    4    0    0 -0.18518703671E+02  0.24632800176E+00 -0.18037447262E+01  0.18607970287E+02  0.00000000000E+00 0. -1.
</event>
<event>
 8    1  0.1269154E-006  0.9118800E+02  0.7816164E-02  0.1184000E+00
        -11   -1    0    0    0    0  0.00000000000E+00  0.00000000000E+00  0.45593999997E+02  0.45594000000E+02  0.51100000000E-03 0.  1.
         11   -1    0    0    0    0 -0.00000000000E+00 -0.00000000000E+00 -0.45593999997E+02  0.45594000000E+02  0.51100000000E-03 0. -1.
         23    2    1    2    0    0  0.00000000000E+00  0.00000000000E+00 -0.35527136788E-14  0.91188000000E+02  0.91188000000E+02 0.  0.
    9900012    2    3    3    0    0 -0.24742376382E+02 -0.96351177212E+01 -0.25509966614E+02  0.54367094536E+02  0.40000023613E+02 0.  0.
        -12    1    3    3    0    0  0.24742376382E+02  0.96351177212E+01  0.25509966614E+02  0.36820905464E+02  0.00000000000E+00 0.  1.
         11    1    4    4    0    0 -0.27618840000E+02  0.18073154005E+01 -0.18890345084E+02  0.33509876896E+02  0.51100000000E-03 0. -1.
        -11    1    4    4    0    0 -0.51078240967E+01 -0.60599414700E+01 -0.78436720376E+01  0.11150603074E+02  0.51100000000E-03 0.  1.
        -12    1    4    4    0    0  0.79842877141E+01 -0.53824916517E+01  0.12240505078E+01  0.97066145657E+01  0.00000000000E+00 0.  1.
</event>
<event>
 8    1  0.1269154E-006  0.9118800E+02  0.7816164E-02  0.1184000E+00
        -11   -1    0    0    0    0  0.00000000000E+00  0.00000000000E+00  0.45593999997E+02  0.45594000000E+02  0.51100000000E-03 0. -1.
         11   -1    0    0    0    0 -0.00000000000E+00 -0.00000000000E+00 -0.45593999997E+02  0.45594000000E+02  0.51100000000E-03 0.  1.
         23    2    1    2    0    0 -0.17763568394E-14  0.00000000000E+00 -0.99920072216E-15  0.91188000000E+02  0.91188000000E+02 0.  0.
    9900012    2    3    3    0    0 -0.12373595390E+02 -0.34679013340E+02 -0.19726740938E+00  0.54367099094E+02  0.40000034003E+02 0.  0.
         12    1    3    3    0    0  0.12373595390E+02  0.34679013340E+02  0.19726740938E+00  0.36820900906E+02  0.00000000000E+00 0. -1.
         11    1    4    4    0    0 -0.43644751415E+01 -0.43663962896E+01 -0.15568076744E+02  0.16747509474E+02  0.51100000000E-03 0. -1.
        -11    1    4    4    0    0 -0.21747715180E+01  0.10587896455E+01  0.12943700980E+01  0.27433667054E+01  0.51100000000E-03 0.  1.
        -12    1    4    4    0    0 -0.58343487309E+01 -0.31371406696E+02  0.14076439236E+02  0.34876222914E+02  0.00000000000E+00 0.  1.
</event>
<event>
 8    1  0.1269154E-006  0.9118800E+02  0.7816164E-02  0.1184000E+00
        -11   -1    0    0    0    0  0.00000000000E+00  0.00000000000E+00  0.45593999997E+02  0.45594000000E+02  0.51100000000E-03 0.  1.
         11   -1    0    0    0    0 -0.00000000000E+00 -0.00000000000E+00 -0.45593999997E+02  0.45594000000E+02  0.51100000000E-03 0. -1.
         23    2    1    2    0    0  0.88817841970E-15  0.71054273576E-14  0.00000000000E+00  0.91188000000E+02  0.91188000000E+02 0.  0.
    9900012    2    3    3    0    0 -0.41938510982E+01 -0.35399487885E+02 -0.92232532526E+01  0.54367074833E+02  0.39999978698E+02 0.  0.
         12    1    3    3    0    0  0.41938510982E+01  0.35399487885E+02  0.92232532526E+01  0.36820925167E+02  0.00000000000E+00 0. -1.
         11    1    4    4    0    0  0.16948591717E+02 -0.15794706740E+02 -0.68924655709E+01  0.24170924767E+02  0.51100000000E-03 0. -1.
        -11    1    4    4    0    0 -0.83963253716E+01 -0.63547086721E+01  0.31848650045E+01  0.11001089374E+02  0.51100000000E-03 0.  1.
         12    1    4    4    0    0 -0.12746117444E+02 -0.13250072473E+02 -0.55156526863E+01  0.19195060693E+02  0.00000000000E+00 0. -1.
</event>
<event>
 8    1  0.1269154E-006  0.9118800E+02  0.7816164E-02  0.1184000E+00
        -11   -1    0    0    0    0  0.00000000000E+00  0.00000000000E+00  0.45593999997E+02  0.45594000000E+02  0.51100000000E-03 0.  1.
         11   -1    0    0    0    0 -0.00000000000E+00 -0.00000000000E+00 -0.45593999997E+02  0.45594000000E+02  0.51100000000E-03 0. -1.
         23    2    1    2    0    0  0.00000000000E+00  0.00000000000E+00  0.00000000000E+00  0.91188000000E+02  0.91188000000E+02 0.  0.
    9900012    2    3    3    0    0 -0.88687035701E+01  0.24704582309E+02  0.25822669498E+02  0.54367074562E+02  0.39999978080E+02 0.  0.
         12    1    3    3    0    0  0.88687035701E+01 -0.24704582309E+02 -0.25822669498E+02  0.36820925438E+02  0.00000000000E+00 0. -1.
         11    1    4    4    0    0  0.32652979438E+01  0.39605792363E+01 -0.73470764648E+01  0.89625828526E+01  0.51100000000E-03 0. -1.
        -11    1    4    4    0    0  0.15215391967E+01 -0.15667179313E+01  0.10700294398E+02  0.10920896807E+02  0.51100000000E-03 0.  1.
        -12    1    4    4    0    0 -0.13655540711E+02  0.22310721004E+02  0.22469451565E+02  0.34483594903E+02  0.00000000000E+00 0.  1.
</event>
<event>
 8    1  0.1269154E-006  0.9118800E+02  0.7816164E-02  0.1184000E+00
        -11   -1    0    0    0    0  0.00000000000E+00  0.00000000000E+00  0.45593999997E+02  0.45594000000E+02  0.51100000000E-03 0.  1.
         11   -1    0    0    0    0 -0.00000000000E+00 -0.00000000000E+00 -0.45593999997E+02  0.45594000000E+02  0.51100000000E-03 0. -1.
         23    2    1    2    0    0  0.00000000000E+00  0.00000000000E+00  0.00000000000E+00  0.91188000000E+02  0.91188000000E+02 0.  0.
    9900012    2    3    3    0    0  0.35648298476E+02  0.91287101777E+01  0.12825733556E+01  0.54367088439E+02  0.40000009715E+02 0.  0.
         12    1    3    3    0    0 -0.35648298476E+02 -0.91287101777E+01 -0.12825733556E+01  0.36820911561E+02  0.00000000000E+00 0. -1.
         11    1    4    4    0    0  0.10339762048E+00  0.17562993115E-01  0.89478510844E+01  0.89484657242E+01  0.51100000000E-03 0. -1.
        -11    1    4    4    0    0  0.36807188861E+01  0.78248344702E+01  0.62044813183E+01  0.10642899732E+02  0.51100000000E-03 0.  1.
         12    1    4    4    0    0  0.31864181970E+02  0.12863127144E+01 -0.13869759047E+02  0.34775722983E+02  0.00000000000E+00 0. -1.
</event>
<event>
 8    1  0.1269154E-006  0.9118800E+02  0.7816164E-02  0.1184000E+00
        -11   -1    0    0    0    0  0.00000000000E+00  0.00000000000E+00  0.45593999997E+02  0.45594000000E+02  0.51100000000E-03 0.  1.
         11   -1    0    0    0    0 -0.00000000000E+00 -0.00000000000E+00 -0.45593999997E+02  0.45594000000E+02  0.51100000000E-03 0. -1.
         23    2    1    2    0    0  0.00000000000E+00  0.35527136788E-14  0.00000000000E+00  0.91188000000E+02  0.91188000000E+02 0.  0.
    9900012    2    3    3    0    0  0.33650354849E+02  0.14876304680E+02 -0.14591275355E+01  0.54367083722E+02  0.39999998962E+02 0.  0.
         12    1    3    3    0    0 -0.33650354849E+02 -0.14876304680E+02  0.14591275355E+01  0.36820916278E+02  0.00000000000E+00 0. -1.
         11    1    4    4    0    0  0.35379844921E+01 -0.55861952738E+01 -0.12080359612E+02  0.13771637539E+02  0.51100000000E-03 0. -1.
        -11    1    4    4    0    0  0.15307243184E+01 -0.15890081818E+01  0.29600536974E+01  0.36918805632E+01  0.51100000000E-03 0.  1.
         12    1    4    4    0    0  0.28581646038E+02  0.22051508136E+02  0.76611783787E+01  0.36903565620E+02  0.00000000000E+00 0. -1.
</event>
<event>
 8    1  0.1269154E-006  0.9118800E+02  0.7816164E-02  0.1184000E+00
        -11   -1    0    0    0    0  0.00000000000E+00  0.00000000000E+00  0.45593999997E+02  0.45594000000E+02  0.51100000000E-03 0. -1.
         11   -1    0    0    0    0 -0.00000000000E+00 -0.00000000000E+00 -0.45593999997E+02  0.45594000000E+02  0.51100000000E-03 0.  1.
         23    2    1    2    0    0  0.00000000000E+00  0.88817841970E-15 -0.17763568394E-14  0.91188000000E+02  0.91188000000E+02 0.  0.
    9900012    2    3    3    0    0 -0.34895838179E+02 -0.61333598013E+01 -0.10022082586E+02  0.54367085236E+02  0.40000002413E+02 0.  0.
        -12    1    3    3    0    0  0.34895838179E+02  0.61333598013E+01  0.10022082586E+02  0.36820914764E+02  0.00000000000E+00 0.  1.
         11    1    4    4    0    0 -0.18903705481E+02 -0.11498428161E+01  0.92901858891E+01  0.21094543691E+02  0.51100000000E-03 0.  1.
        -11    1    4    4    0    0 -0.19349840181E+02 -0.62050969294E+01 -0.21085757993E+02  0.29283591538E+02  0.51100000000E-03 0. -1.
        -12    1    4    4    0    0  0.33577074822E+01  0.12215799443E+01  0.17734895180E+01  0.39889500080E+01  0.00000000000E+00 0.  1.
</event>
<event>
 8    1  0.1269154E-006  0.9118800E+02  0.7816164E-02  0.1184000E+00
        -11   -1    0    0    0    0  0.00000000000E+00  0.00000000000E+00  0.45593999997E+02  0.45594000000E+02  0.51100000000E-03 0. -1.
         11   -1    0    0    0    0 -0.00000000000E+00 -0.00000000000E+00 -0.45593999997E+02  0.45594000000E+02  0.51100000000E-03 0.  1.
         23    2    1    2    0    0  0.00000000000E+00  0.27755575616E-16  0.00000000000E+00  0.91188000000E+02  0.91188000000E+02 0.  0.
    9900012    2    3    3    0    0 -0.46306954732E+01  0.13470867758E+00 -0.36528328065E+02  0.54367078797E+02  0.39999987733E+02 0.  0.
         12    1    3    3    0    0  0.46306954732E+01 -0.13470867758E+00  0.36528328065E+02  0.36820921203E+02  0.00000000000E+00 0. -1.
         11    1    4    4    0    0 -0.76632689548E+01 -0.89066261890E+00 -0.63164537323E+01  0.99707852744E+01  0.51100000000E-03 0. -1.
        -11    1    4    4    0    0  0.12151501795E+02  0.19095991924E+01 -0.32671353127E+02  0.34910211692E+02  0.51100000000E-03 0.  1.
         12    1    4    4    0    0 -0.91189283139E+01 -0.88422789596E+00  0.24594787937E+01  0.94860818309E+01  0.00000000000E+00 0. -1.
</event>
<event>
 8    1  0.1269154E-006  0.9118800E+02  0.7816164E-02  0.1184000E+00
        -11   -1    0    0    0    0  0.00000000000E+00  0.00000000000E+00  0.45593999997E+02  0.45594000000E+02  0.51100000000E-03 0.  1.
         11   -1    0    0    0    0 -0.00000000000E+00 -0.00000000000E+00 -0.45593999997E+02  0.45594000000E+02  0.51100000000E-03 0. -1.
         23    2    1    2    0    0  0.17763568394E-14  0.00000000000E+00  0.00000000000E+00  0.91188000000E+02  0.91188000000E+02 0.  0.
    9900012    2    3    3    0    0  0.49785225628E+01 -0.32042081794E+02 -0.17444169717E+02  0.54367085431E+02  0.40000002857E+02 0.  0.
        -12    1    3    3    0    0 -0.49785225628E+01  0.32042081794E+02  0.17444169717E+02  0.36820914569E+02  0.00000000000E+00 0.  1.
         11    1    4    4    0    0 -0.15778717694E+02 -0.13971397377E+02  0.14486156839E+00  0.21075788523E+02  0.51100000000E-03 0. -1.
        -11    1    4    4    0    0  0.12847247895E+02 -0.10222985764E+02 -0.67663345080E+01  0.17757941867E+02  0.51100000000E-03 0.  1.
        -12    1    4    4    0    0  0.79099923611E+01 -0.78476986530E+01 -0.10822696777E+02  0.15533355041E+02  0.00000000000E+00 0.  1.
</event>
<event>
 8    1  0.1269154E-006  0.9118800E+02  0.7816164E-02  0.1184000E+00
        -11   -1    0    0    0    0  0.00000000000E+00  0.00000000000E+00  0.45593999997E+02  0.45594000000E+02  0.51100000000E-03 0.  1.
         11   -1    0    0    0    0 -0.00000000000E+00 -0.00000000000E+00 -0.45593999997E+02  0.45594000000E+02  0.51100000000E-03 0. -1.
         23    2    1    2    0    0  0.00000000000E+00  0.35527136788E-14  0.00000000000E+00  0.91188000000E+02  0.91188000000E+02 0.  0.
    9900012    2    3    3    0    0  0.18792368267E+02 -0.18171481941E+02  0.25931151862E+02  0.54367075271E+02  0.39999979695E+02 0.  0.
         12    1    3    3    0    0 -0.18792368267E+02  0.18171481941E+02 -0.25931151862E+02  0.36820924729E+02  0.00000000000E+00 0. -1.
         11    1    4    4    0    0  0.95920333161E+01 -0.11369310923E+02  0.29147552651E+01  0.15157972573E+02  0.51100000000E-03 0. -1.
        -11    1    4    4    0    0  0.15736884475E+02 -0.80367328470E+01  0.27551263213E+01  0.17883772788E+02  0.51100000000E-03 0.  1.
        -12    1    4    4    0    0 -0.65365495243E+01  0.12345618289E+01  0.20261270276E+02  0.21325329910E+02  0.00000000000E+00 0.  1.
</event>
<event>
 8    1  0.1269154E-006  0.9118800E+02  0.7816164E-02  0.1184000E+00
        -11   -1    0    0    0    0  0.00000000000E+00  0.00000000000E+00  0.45593999997E+02  0.45594000000E+02  0.51100000000E-03 0. -1.
         11   -1    0    0    0    0 -0.00000000000E+00 -0.00000000000E+00 -0.45593999997E+02  0.45594000000E+02  0.51100000000E-03 0.  1.
         23    2    1    2    0    0 -0.35527136788E-14  0.71054273576E-14  0.17763568394E-14  0.91188000000E+02  0.91188000000E+02 0.  0.
    9900012    2    3    3    0    0 -0.14608444638E+02  0.33025390951E+02  0.71900565945E+01  0.54367081814E+02  0.39999994612E+02 0.  0.
        -12    1    3    3    0    0  0.14608444638E+02 -0.33025390951E+02 -0.71900565945E+01  0.36820918186E+02  0.00000000000E+00 0.  1.
         11    1    4    4    0    0 -0.18539398763E+01  0.68778698830E+01 -0.64681371005E+01  0.96217973895E+01  0.51100000000E-03 0. -1.
        -11    1    4    4    0    0  0.37877932878E+00  0.19871656583E+02 -0.55587876284E+01  0.20637982684E+02  0.51100000000E-03 0.  1.
         12    1    4    4    0    0 -0.13133284090E+02  0.62758644856E+01  0.19216981323E+02  0.24107301741E+02  0.00000000000E+00 0. -1.
</event>
<event>
 8    1  0.1269154E-006  0.9118800E+02  0.7816164E-02  0.1184000E+00
        -11   -1    0    0    0    0  0.00000000000E+00  0.00000000000E+00  0.45593999997E+02  0.45594000000E+02  0.51100000000E-03 0.  1.
         11   -1    0    0    0    0 -0.00000000000E+00 -0.00000000000E+00 -0.45593999997E+02  0.45594000000E+02  0.51100000000E-03 0. -1.
         23    2    1    2    0    0  0.00000000000E+00  0.00000000000E+00 -0.35527136788E-14  0.91188000000E+02  0.91188000000E+02 0.  0.
    9900012    2    3    3    0    0  0.94767959783E+01 -0.28992406686E+02  0.20625559025E+02  0.54367041396E+02  0.39999902469E+02 0.  0.
         12    1    3    3    0    0 -0.94767959783E+01  0.28992406686E+02 -0.20625559025E+02  0.36820958604E+02  0.00000000000E+00 0. -1.
         11    1    4    4    0    0  0.12531686680E+02 -0.15653625884E+02 -0.15462159756E+01  0.20111438498E+02  0.51100000000E-03 0. -1.
        -11    1    4    4    0    0  0.56248428475E+01 -0.32652013537E+01  0.19680150552E+02  0.20727004678E+02  0.51100000000E-03 0.  1.
         12    1    4    4    0    0 -0.86797335489E+01 -0.10073579448E+02  0.24916244487E+01  0.13528598219E+02  0.00000000000E+00 0. -1.
</event>
<event>
 8    1  0.1269154E-006  0.9118800E+02  0.7816164E-02  0.1184000E+00
        -11   -1    0    0    0    0  0.00000000000E+00  0.00000000000E+00  0.45593999997E+02  0.45594000000E+02  0.51100000000E-03 0.  1.
         11   -1    0    0    0    0 -0.00000000000E+00 -0.00000000000E+00 -0.45593999997E+02  0.45594000000E+02  0.51100000000E-03 0. -1.
         23    2    1    2    0    0  0.00000000000E+00  0.00000000000E+00  0.88817841970E-15  0.91188000000E+02  0.91188000000E+02 0.  0.
    9900012    2    3    3    0    0  0.75156419801E+01 -0.35864307936E+02 -0.36119029989E+01  0.54367091519E+02  0.40000016737E+02 0.  0.
        -12    1    3    3    0    0 -0.75156419801E+01  0.35864307936E+02  0.36119029989E+01  0.36820908481E+02  0.00000000000E+00 0.  1.
         11    1    4    4    0    0 -0.66658924885E+01 -0.19998977695E+02  0.22210866444E+01  0.21197321945E+02  0.51100000000E-03 0. -1.
        -11    1    4    4    0    0  0.87366362999E+01 -0.19688029365E+02  0.33829085420E+01  0.21803471847E+02  0.51100000000E-03 0.  1.
         12    1    4    4    0    0  0.54448981688E+01  0.38226991242E+01 -0.92158981853E+01  0.11366297727E+02  0.00000000000E+00 0. -1.
</event>
<event>
 8    1  0.1269154E-006  0.9118800E+02  0.7816164E-02  0.1184000E+00
        -11   -1    0    0    0    0  0.00000000000E+00  0.00000000000E+00  0.45593999997E+02  0.45594000000E+02  0.51100000000E-03 0.  1.
         11   -1    0    0    0    0 -0.00000000000E+00 -0.00000000000E+00 -0.45593999997E+02  0.45594000000E+02  0.51100000000E-03 0. -1.
         23    2    1    2    0    0  0.00000000000E+00  0.00000000000E+00  0.17763568394E-14  0.91188000000E+02  0.91188000000E+02 0.  0.
    9900012    2    3    3    0    0 -0.32064582041E+02  0.16205750972E+02 -0.80633118762E+01  0.54367071380E+02  0.39999970826E+02 0.  0.
         12    1    3    3    0    0  0.32064582041E+02 -0.16205750972E+02  0.80633118762E+01  0.36820928620E+02  0.00000000000E+00 0. -1.
         11    1    4    4    0    0 -0.19604848572E+02  0.57280496312E+01 -0.20158923974E+02  0.28697436404E+02  0.51100000000E-03 0. -1.
        -11    1    4    4    0    0 -0.79476452859E+01  0.52697705586E-01  0.11897947006E+02  0.14308353709E+02  0.51100000000E-03 0.  1.
         12    1    4    4    0    0 -0.45120881832E+01  0.10425003635E+02  0.19766509251E+00  0.11361281268E+02  0.00000000000E+00 0. -1.
</event>
<event>
 8    1  0.1269154E-006  0.9118800E+02  0.7816164E-02  0.1184000E+00
        -11   -1    0    0    0    0  0.00000000000E+00  0.00000000000E+00  0.45593999997E+02  0.45594000000E+02  0.51100000000E-03 0. -1.
         11   -1    0    0    0    0 -0.00000000000E+00 -0.00000000000E+00 -0.45593999997E+02  0.45594000000E+02  0.51100000000E-03 0.  1.
         23    2    1    2    0    0  0.35527136788E-14 -0.17763568394E-14 -0.35527136788E-14  0.91188000000E+02  0.91188000000E+02 0.  0.
    9900012    2    3    3    0    0 -0.21104003047E+02 -0.13500568510E+02 -0.26983992611E+02  0.54367079969E+02  0.39999990405E+02 0.  0.
         12    1    3    3    0    0  0.21104003047E+02  0.13500568510E+02  0.26983992611E+02  0.36820920031E+02  0.00000000000E+00 0. -1.
         11    1    4    4    0    0  0.68582917402E+01 -0.70673657885E+01 -0.59331367470E+01  0.11497214302E+02  0.51100000000E-03 0. -1.
        -11    1    4    4    0    0 -0.17188063963E+02 -0.14763442763E+02 -0.17939276405E+02  0.28899938117E+02  0.51100000000E-03 0.  1.
         12    1    4    4    0    0 -0.10774230825E+02  0.83302400417E+01 -0.31115794593E+01  0.13969927550E+02  0.00000000000E+00 0. -1.
</event>
<event>
 8    1  0.1269154E-006  0.9118800E+02  0.7816164E-02  0.1184000E+00
        -11   -1    0    0    0    0  0.00000000000E+00  0.00000000000E+00  0.45593999997E+02  0.45594000000E+02  0.51100000000E-03 0.  1.
         11   -1    0    0    0    0 -0.00000000000E+00 -0.00000000000E+00 -0.45593999997E+02  0.45594000000E+02  0.51100000000E-03 0. -1.
         23    2    1    2    0    0 -0.35527136788E-14 -0.71054273576E-14  0.44408920985E-15  0.91188000000E+02  0.91188000000E+02 0.  0.
    9900012    2    3    3    0    0  0.26179199176E+02  0.25800127801E+02 -0.21866388750E+01  0.54367103031E+02  0.40000042980E+02 0.  0.
        -12    1    3    3    0    0 -0.26179199176E+02 -0.25800127801E+02  0.21866388750E+01  0.36820896969E+02  0.00000000000E+00 0.  1.
         11    1    4    4    0    0  0.76227448782E+01  0.16579965141E+02  0.26824166961E+01  0.18444425801E+02  0.51100000000E-03 0. -1.
        -11    1    4    4    0    0  0.11218142433E+01  0.19699803308E+01 -0.14534746863E+02  0.14710477773E+02  0.51100000000E-03 0.  1.
        -12    1    4    4    0    0  0.17434640054E+02  0.72501823298E+01  0.96656912916E+01  0.21212199456E+02  0.00000000000E+00 0.  1.
</event>
<event>
 8    1  0.1269154E-006  0.9118800E+02  0.7816164E-02  0.1184000E+00
        -11   -1    0    0    0    0  0.00000000000E+00  0.00000000000E+00  0.45593999997E+02  0.45594000000E+02  0.51100000000E-03 0.  1.
         11   -1    0    0    0    0 -0.00000000000E+00 -0.00000000000E+00 -0.45593999997E+02  0.45594000000E+02  0.51100000000E-03 0. -1.
         23    2    1    2    0    0  0.26645352591E-14  0.00000000000E+00  0.17763568394E-14  0.91188000000E+02  0.91188000000E+02 0.  0.
    9900012    2    3    3    0    0 -0.17902774084E+01 -0.34456007114E+02 -0.12859161963E+02  0.54367087928E+02  0.40000008550E+02 0.  0.
        -12    1    3    3    0    0  0.17902774084E+01  0.34456007114E+02  0.12859161963E+02  0.36820912072E+02  0.00000000000E+00 0.  1.
         11    1    4    4    0    0  0.13504593452E+02 -0.93285707190E+01 -0.73371749665E+01  0.17978609866E+02  0.51100000000E-03 0.  1.
        -11    1    4    4    0    0 -0.59132883703E+01 -0.47189078581E+01 -0.10922603266E+02  0.13286772863E+02  0.51100000000E-03 0. -1.
         12    1    4    4    0    0 -0.93815824900E+01 -0.20408528537E+02  0.54006162697E+01  0.23101705200E+02  0.00000000000E+00 0. -1.
</event>
<event>
 8    1  0.1269154E-006  0.9118800E+02  0.7816164E-02  0.1184000E+00
        -11   -1    0    0    0    0  0.00000000000E+00  0.00000000000E+00  0.45593999997E+02  0.45594000000E+02  0.51100000000E-03 0. -1.
         11   -1    0    0    0    0 -0.00000000000E+00 -0.00000000000E+00 -0.45593999997E+02  0.45594000000E+02  0.51100000000E-03 0.  1.
         23    2    1    2    0    0  0.00000000000E+00 -0.35527136788E-14  0.00000000000E+00  0.91188000000E+02  0.91188000000E+02 0.  0.
    9900012    2    3    3    0    0 -0.12712991158E+02 -0.30876503400E+02  0.15517638906E+02  0.54367140102E+02  0.40000127490E+02 0.  0.
        -12    1    3    3    0    0  0.12712991158E+02  0.30876503400E+02 -0.15517638906E+02  0.36820859898E+02  0.00000000000E+00 0.  1.
         11    1    4    4    0    0 -0.37625814439E+01 -0.28176098880E+02  0.46077418015E+01  0.28797236881E+02  0.51100000000E-03 0. -1.
        -11    1    4    4    0    0 -0.14711166069E+02 -0.39028858953E+01  0.12246278616E+02  0.19535154610E+02  0.51100000000E-03 0.  1.
         12    1    4    4    0    0  0.57607563559E+01  0.12024813752E+01 -0.13363815110E+01  0.60347486105E+01  0.00000000000E+00 0. -1.
</event>
<event>
 8    1  0.1269154E-006  0.9118800E+02  0.7816164E-02  0.1184000E+00
        -11   -1    0    0    0    0  0.00000000000E+00  0.00000000000E+00  0.45593999997E+02  0.45594000000E+02  0.51100000000E-03 0. -1.
         11   -1    0    0    0    0 -0.00000000000E+00 -0.00000000000E+00 -0.45593999997E+02  0.45594000000E+02  0.51100000000E-03 0.  1.
         23    2    1    2    0    0  0.35527136788E-14 -0.35527136788E-14 -0.17763568394E-14  0.91188000000E+02  0.91188000000E+02 0.  0.
    9900012    2    3    3    0    0 -0.30200637794E+02  0.16624556409E+02 -0.12934801728E+02  0.54367306162E+02  0.40000506055E+02 0.  0.
         12    1    3    3    0    0  0.30200637794E+02 -0.16624556409E+02  0.12934801728E+02  0.36820693838E+02  0.00000000000E+00 0. -1.
         11    1    4    4    0    0 -0.78063595829E+01 -0.24941981125E+01 -0.12750786482E+02  0.15157269884E+02  0.51100000000E-03 0. -1.
        -11    1    4    4    0    0 -0.65180227773E+01 -0.48414997038E+01  0.56361569572E+01  0.98838760522E+01  0.51100000000E-03 0.  1.
         12    1    4    4    0    0 -0.15876255434E+02  0.23960254225E+02 -0.58201722026E+01  0.29326160226E+02  0.00000000000E+00 0. -1.
</event>
<event>
 8    1  0.1269154E-006  0.9118800E+02  0.7816164E-02  0.1184000E+00
        -11   -1    0    0    0    0  0.00000000000E+00  0.00000000000E+00  0.45593999997E+02  0.45594000000E+02  0.51100000000E-03 0.  1.
         11   -1    0    0    0    0 -0.00000000000E+00 -0.00000000000E+00 -0.45593999997E+02  0.45594000000E+02  0.51100000000E-03 0. -1.
         23    2    1    2    0    0 -0.88817841970E-15  0.00000000000E+00 -0.17763568394E-14  0.91188000000E+02  0.91188000000E+02 0.  0.
    9900012    2    3    3    0    0 -0.29739293417E+01 -0.33071184583E+02 -0.15913486537E+02  0.54366992963E+02  0.39999792058E+02 0.  0.
        -12    1    3    3    0    0  0.29739293417E+01  0.33071184583E+02  0.15913486537E+02  0.36821007037E+02  0.00000000000E+00 0.  1.
         11    1    4    4    0    0 -0.89141995432E+01 -0.21012581219E+02 -0.15384250899E+02  0.27525746111E+02  0.51100000000E-03 0. -1.
        -11    1    4    4    0    0 -0.25623893935E+01  0.55014299054E+01  0.33749491997E+01  0.69441956171E+01  0.51100000000E-03 0.  1.
        -12    1    4    4    0    0  0.85026595950E+01 -0.17560033269E+02 -0.39041848374E+01  0.19897051235E+02  0.00000000000E+00 0.  1.
</event>
<event>
 8    1  0.1269154E-006  0.9118800E+02  0.7816164E-02  0.1184000E+00
        -11   -1    0    0    0    0  0.00000000000E+00  0.00000000000E+00  0.45593999997E+02  0.45594000000E+02  0.51100000000E-03 0. -1.
         11   -1    0    0    0    0 -0.00000000000E+00 -0.00000000000E+00 -0.45593999997E+02  0.45594000000E+02  0.51100000000E-03 0.  1.
         23    2    1    2    0    0  0.00000000000E+00  0.00000000000E+00  0.00000000000E+00  0.91188000000E+02  0.91188000000E+02 0.  0.
    9900012    2    3    3    0    0 -0.66748408950E+01 -0.48940084106E+01 -0.35878599163E+02  0.54367099723E+02  0.40000035438E+02 0.  0.
         12    1    3    3    0    0  0.66748408950E+01  0.48940084106E+01  0.35878599163E+02  0.36820900277E+02  0.00000000000E+00 0. -1.
         11    1    4    4    0    0 -0.44623907158E+01  0.11899458321E+01  0.11884188590E+01  0.47687777920E+01  0.51100000000E-03 0. -1.
        -11    1    4    4    0    0  0.78140709479E+01 -0.25127639959E+01 -0.38035256332E+02  0.38910852113E+02  0.51100000000E-03 0.  1.
        -12    1    4    4    0    0 -0.10026521127E+02 -0.35711902468E+01  0.96823830922E+00  0.10687469818E+02  0.00000000000E+00 0.  1.
</event>
<event>
 8    1  0.1269154E-006  0.9118800E+02  0.7816164E-02  0.1184000E+00
        -11   -1    0    0    0    0  0.00000000000E+00  0.00000000000E+00  0.45593999997E+02  0.45594000000E+02  0.51100000000E-03 0. -1.
         11   -1    0    0    0    0 -0.00000000000E+00 -0.00000000000E+00 -0.45593999997E+02  0.45594000000E+02  0.51100000000E-03 0.  1.
         23    2    1    2    0    0  0.26645352591E-14  0.00000000000E+00 -0.35527136788E-14  0.91188000000E+02  0.91188000000E+02 0.  0.
    9900012    2    3    3    0    0 -0.77451534965E+01  0.17630824487E+02  0.31383857829E+02  0.54367083295E+02  0.39999997988E+02 0.  0.
        -12    1    3    3    0    0  0.77451534965E+01 -0.17630824487E+02 -0.31383857829E+02  0.36820916705E+02  0.00000000000E+00 0.  1.
         11    1    4    4    0    0 -0.16381180780E+02  0.90126787616E+01  0.25776048297E+02  0.31842991824E+02  0.51100000000E-03 0. -1.
        -11    1    4    4    0    0  0.12092143157E+02  0.11730598014E+02  0.27635708454E+01  0.17072322044E+02  0.51100000000E-03 0.  1.
        -12    1    4    4    0    0 -0.34561158733E+01 -0.31124522895E+01  0.28442386863E+01  0.54517694273E+01  0.00000000000E+00 0.  1.
</event>
<event>
 8    1  0.1269154E-006  0.9118800E+02  0.7816164E-02  0.1184000E+00
        -11   -1    0    0    0    0  0.00000000000E+00  0.00000000000E+00  0.45593999997E+02  0.45594000000E+02  0.51100000000E-03 0.  1.
         11   -1    0    0    0    0 -0.00000000000E+00 -0.00000000000E+00 -0.45593999997E+02  0.45594000000E+02  0.51100000000E-03 0. -1.
         23    2    1    2    0    0  0.88817841970E-15 -0.88817841970E-15  0.71054273576E-14  0.91188000000E+02  0.91188000000E+02 0.  0.
    9900012    2    3    3    0    0 -0.72204507958E+01  0.59691086838E+01 -0.35609190327E+02  0.54367087411E+02  0.40000007370E+02 0.  0.
        -12    1    3    3    0    0  0.72204507958E+01 -0.59691086838E+01  0.35609190327E+02  0.36820912589E+02  0.00000000000E+00 0.  1.
         11    1    4    4    0    0  0.36466493836E+00  0.26958324987E+01  0.50988639235E+01  0.57791787435E+01  0.51100000000E-03 0. -1.
        -11    1    4    4    0    0  0.18170004005E+01 -0.39337494666E+01  0.16255450053E+01  0.46279879156E+01  0.51100000000E-03 0.  1.
         12    1    4    4    0    0 -0.94021161346E+01  0.72070256518E+01 -0.42333599256E+02  0.43959920752E+02  0.00000000000E+00 0. -1.
</event>
<event>
 8    1  0.1269154E-006  0.9118800E+02  0.7816164E-02  0.1184000E+00
        -11   -1    0    0    0    0  0.00000000000E+00  0.00000000000E+00  0.45593999997E+02  0.45594000000E+02  0.51100000000E-03 0.  1.
         11   -1    0    0    0    0 -0.00000000000E+00 -0.00000000000E+00 -0.45593999997E+02  0.45594000000E+02  0.51100000000E-03 0. -1.
         23    2    1    2    0    0  0.00000000000E+00  0.00000000000E+00  0.00000000000E+00  0.91188000000E+02  0.91188000000E+02 0.  0.
    9900012    2    3    3    0    0 -0.17524076909E+02 -0.32342809560E+02  0.16189339580E+01  0.54367196791E+02  0.40000256724E+02 0.  0.
        -12    1    3    3    0    0  0.17524076909E+02  0.32342809560E+02 -0.16189339580E+01  0.36820803209E+02  0.00000000000E+00 0.  1.
         11    1    4    4    0    0 -0.78019816503E+01 -0.22117039227E+02 -0.13081820885E+02  0.26854578377E+02  0.51100000000E-03 0. -1.
        -11    1    4    4    0    0 -0.23255017953E+01  0.38221625972E+01  0.99998209156E+01  0.10955058381E+02  0.51100000000E-03 0.  1.
         12    1    4    4    0    0 -0.73965934636E+01 -0.14047932930E+02  0.47009339278E+01  0.16557560034E+02  0.00000000000E+00 0. -1.
</event>
<event>
 8    1  0.1269154E-006  0.9118800E+02  0.7816164E-02  0.1184000E+00
        -11   -1    0    0    0    0  0.00000000000E+00  0.00000000000E+00  0.45593999997E+02  0.45594000000E+02  0.51100000000E-03 0. -1.
         11   -1    0    0    0    0 -0.00000000000E+00 -0.00000000000E+00 -0.45593999997E+02  0.45594000000E+02  0.51100000000E-03 0.  1.
         23    2    1    2    0    0  0.00000000000E+00 -0.35527136788E-14 -0.17763568394E-14  0.91188000000E+02  0.91188000000E+02 0.  0.
    9900012    2    3    3    0    0  0.13620712030E+02 -0.30405653551E+02  0.15676475785E+02  0.54367089404E+02  0.40000011915E+02 0.  0.
         12    1    3    3    0    0 -0.13620712030E+02  0.30405653551E+02 -0.15676475785E+02  0.36820910596E+02  0.00000000000E+00 0. -1.
         11    1    4    4    0    0  0.14463463851E+02 -0.37846656912E+01  0.13824014267E+02  0.20362191721E+02  0.51100000000E-03 0. -1.
        -11    1    4    4    0    0 -0.88050734715E+01 -0.40711788973E+01 -0.16354471481E+01  0.98376066239E+01  0.51100000000E-03 0.  1.
         12    1    4    4    0    0  0.79623216504E+01 -0.22549808962E+02  0.34879086666E+01  0.24167291060E+02  0.00000000000E+00 0. -1.
</event>
<event>
 8    1  0.1269154E-006  0.9118800E+02  0.7816164E-02  0.1184000E+00
        -11   -1    0    0    0    0  0.00000000000E+00  0.00000000000E+00  0.45593999997E+02  0.45594000000E+02  0.51100000000E-03 0.  1.
         11   -1    0    0    0    0 -0.00000000000E+00 -0.00000000000E+00 -0.45593999997E+02  0.45594000000E+02  0.51100000000E-03 0. -1.
         23    2    1    2    0    0  0.00000000000E+00  0.00000000000E+00  0.00000000000E+00  0.91188000000E+02  0.91188000000E+02 0.  0.
    9900012    2    3    3    0    0 -0.32854766709E+02  0.98076960893E+01  0.13422082069E+02  0.54367097171E+02  0.40000029621E+02 0.  0.
         12    1    3    3    0    0  0.32854766709E+02 -0.98076960893E+01 -0.13422082069E+02  0.36820902829E+02  0.00000000000E+00 0. -1.
         11    1    4    4    0    0 -0.11195558626E+02  0.63682686277E+01  0.17950103038E+02  0.22093021015E+02  0.51100000000E-03 0. -1.
        -11    1    4    4    0    0 -0.77090115052E+01  0.10170991152E+01  0.95447153673E+01  0.12311171378E+02  0.51100000000E-03 0.  1.
         12    1    4    4    0    0 -0.13950196578E+02  0.24223283464E+01 -0.14072736336E+02  0.19962904778E+02  0.00000000000E+00 0. -1.
</event>
<event>
 8    1  0.1269154E-006  0.9118800E+02  0.7816164E-02  0.1184000E+00
        -11   -1    0    0    0    0  0.00000000000E+00  0.00000000000E+00  0.45593999997E+02  0.45594000000E+02  0.51100000000E-03 0.  1.
         11   -1    0    0    0    0 -0.00000000000E+00 -0.00000000000E+00 -0.45593999997E+02  0.45594000000E+02  0.51100000000E-03 0. -1.
         23    2    1    2    0    0 -0.22204460493E-15  0.71054273576E-14  0.00000000000E+00  0.91188000000E+02  0.91188000000E+02 0.  0.
    9900012    2    3    3    0    0  0.18622151964E+01 -0.33795315941E+02 -0.14498052786E+02  0.54367017401E+02  0.39999847768E+02 0.  0.
        -12    1    3    3    0    0 -0.18622151964E+01  0.33795315941E+02  0.14498052786E+02  0.36820982599E+02  0.00000000000E+00 0.  1.
         11    1    4    4    0    0 -0.51746883080E+01  0.75646400691E+00  0.10320749992E+01  0.53305549377E+01  0.51100000000E-03 0.  1.
        -11    1    4    4    0    0  0.50609079844E+01  0.47558240195E+01 -0.40482217201E+01  0.80385789221E+01  0.51100000000E-03 0. -1.
        -12    1    4    4    0    0  0.19759955200E+01 -0.39307603967E+02 -0.11481906066E+02  0.40997883541E+02  0.00000000000E+00 0.  1.
</event>
<event>
 8    1  0.1269154E-006  0.9118800E+02  0.7816164E-02  0.1184000E+00
        -11   -1    0    0    0    0  0.00000000000E+00  0.00000000000E+00  0.45593999997E+02  0.45594000000E+02  0.51100000000E-03 0.  1.
         11   -1    0    0    0    0 -0.00000000000E+00 -0.00000000000E+00 -0.45593999997E+02  0.45594000000E+02  0.51100000000E-03 0. -1.
         23    2    1    2    0    0  0.17763568394E-14  0.00000000000E+00  0.11657341759E-14  0.91188000000E+02  0.91188000000E+02 0.  0.
    9900012    2    3    3    0    0  0.10555064719E+02  0.35275384502E+02 -0.13394488313E+00  0.54367080889E+02  0.39999992502E+02 0.  0.
        -12    1    3    3    0    0 -0.10555064719E+02 -0.35275384502E+02  0.13394488313E+00  0.36820919111E+02  0.00000000000E+00 0.  1.
         11    1    4    4    0    0  0.64279708364E+00  0.25774600211E+01  0.64240792955E+01  0.69516388936E+01  0.51100000000E-03 0. -1.
        -11    1    4    4    0    0  0.85483067713E+01  0.86649061721E+01  0.11945150887E+02  0.17054054580E+02  0.51100000000E-03 0.  1.
         12    1    4    4    0    0  0.13639608642E+01  0.24033018309E+02 -0.18503175066E+02  0.30361387415E+02  0.00000000000E+00 0. -1.
</event>
<event>
 8    1  0.1269154E-006  0.9118800E+02  0.7816164E-02  0.1184000E+00
        -11   -1    0    0    0    0  0.00000000000E+00  0.00000000000E+00  0.45593999997E+02  0.45594000000E+02  0.51100000000E-03 0.  1.
         11   -1    0    0    0    0 -0.00000000000E+00 -0.00000000000E+00 -0.45593999997E+02  0.45594000000E+02  0.51100000000E-03 0. -1.
         23    2    1    2    0    0  0.00000000000E+00  0.35527136788E-14 -0.71054273576E-14  0.91188000000E+02  0.91188000000E+02 0.  0.
    9900012    2    3    3    0    0  0.52885291446E+01 -0.16665675951E+02  0.32404734544E+02  0.54367080453E+02  0.39999991509E+02 0.  0.
         12    1    3    3    0    0 -0.52885291446E+01  0.16665675951E+02 -0.32404734544E+02  0.36820919547E+02  0.00000000000E+00 0. -1.
         11    1    4    4    0    0 -0.10836737188E+02 -0.14073782274E+01 -0.24944214843E+01  0.11208823540E+02  0.51100000000E-03 0. -1.
        -11    1    4    4    0    0  0.42722180320E+01 -0.12420130278E+02  0.19677142141E+02  0.23658009344E+02  0.51100000000E-03 0.  1.
        -12    1    4    4    0    0  0.11853048300E+02 -0.28381674453E+01  0.15222013888E+02  0.19500247569E+02  0.00000000000E+00 0.  1.
</event>
<event>
 8    1  0.1269154E-006  0.9118800E+02  0.7816164E-02  0.1184000E+00
        -11   -1    0    0    0    0  0.00000000000E+00  0.00000000000E+00  0.45593999997E+02  0.45594000000E+02  0.51100000000E-03 0.  1.
         11   -1    0    0    0    0 -0.00000000000E+00 -0.00000000000E+00 -0.45593999997E+02  0.45594000000E+02  0.51100000000E-03 0. -1.
         23    2    1    2    0    0  0.71054273576E-14  0.17763568394E-14  0.88817841970E-15  0.91188000000E+02  0.91188000000E+02 0.  0.
    9900012    2    3    3    0    0 -0.34137955893E+02 -0.13646885668E+02  0.20351659918E+01  0.54367089886E+02  0.40000013014E+02 0.  0.
        -12    1    3    3    0    0  0.34137955893E+02  0.13646885668E+02 -0.20351659918E+01  0.36820910114E+02  0.00000000000E+00 0.  1.
         11    1    4    4    0    0 -0.92504453211E+00  0.23953147700E+01 -0.51431709992E+01  0.57485170628E+01  0.51100000000E-03 0. -1.
        -11    1    4    4    0    0 -0.81701757063E+00 -0.68793865813E+01  0.12734000362E+02  0.14496490710E+02  0.51100000000E-03 0.  1.
         12    1    4    4    0    0 -0.32395893790E+02 -0.91628138572E+01 -0.55556633707E+01  0.34122082113E+02  0.00000000000E+00 0. -1.
</event>
<event>
 8    1  0.1269154E-006  0.9118800E+02  0.7816164E-02  0.1184000E+00
        -11   -1    0    0    0    0  0.00000000000E+00  0.00000000000E+00  0.45593999997E+02  0.45594000000E+02  0.51100000000E-03 0. -1.
         11   -1    0    0    0    0 -0.00000000000E+00 -0.00000000000E+00 -0.45593999997E+02  0.45594000000E+02  0.51100000000E-03 0.  1.
         23    2    1    2    0    0 -0.17763568394E-14  0.00000000000E+00  0.00000000000E+00  0.91188000000E+02  0.91188000000E+02 0.  0.
    9900012    2    3    3    0    0 -0.97299652216E+01 -0.29914011479E+02 -0.19137907111E+02  0.54367084822E+02  0.40000001468E+02 0.  0.
         12    1    3    3    0    0  0.97299652216E+01  0.29914011479E+02  0.19137907111E+02  0.36820915178E+02  0.00000000000E+00 0. -1.
         11    1    4    4    0    0 -0.20228732669E+02 -0.14046621216E+02 -0.12132114427E+02  0.27453549747E+02  0.51100000000E-03 0. -1.
        -11    1    4    4    0    0 -0.42386789034E+01 -0.69409678206E+01  0.43727598929E+00  0.81446082586E+01  0.51100000000E-03 0.  1.
         12    1    4    4    0    0  0.14737446351E+02 -0.89264224424E+01 -0.74430686728E+01  0.18768926816E+02  0.00000000000E+00 0. -1.
</event>
<event>
 8    1  0.1269154E-006  0.9118800E+02  0.7816164E-02  0.1184000E+00
        -11   -1    0    0    0    0  0.00000000000E+00  0.00000000000E+00  0.45593999997E+02  0.45594000000E+02  0.51100000000E-03 0. -1.
         11   -1    0    0    0    0 -0.00000000000E+00 -0.00000000000E+00 -0.45593999997E+02  0.45594000000E+02  0.51100000000E-03 0.  1.
         23    2    1    2    0    0  0.00000000000E+00  0.00000000000E+00 -0.17763568394E-14  0.91188000000E+02  0.91188000000E+02 0.  0.
    9900012    2    3    3    0    0 -0.19419226080E+02  0.30397438878E+02  0.73938969466E+01  0.54367077361E+02  0.39999984461E+02 0.  0.
        -12    1    3    3    0    0  0.19419226080E+02 -0.30397438878E+02 -0.73938969466E+01  0.36820922639E+02  0.00000000000E+00 0.  1.
         11    1    4    4    0    0 -0.21508865462E+02  0.17019147092E+02 -0.68682270956E+01  0.28274638899E+02  0.51100000000E-03 0. -1.
        -11    1    4    4    0    0 -0.41516606739E+01  0.29370119107E+01 -0.22684103217E+01  0.55684837221E+01  0.51100000000E-03 0.  1.
         12    1    4    4    0    0  0.62413000552E+01  0.10441279876E+02  0.16530534364E+02  0.20523954740E+02  0.00000000000E+00 0. -1.
</event>
<event>
 8    1  0.1269154E-006  0.9118800E+02  0.7816164E-02  0.1184000E+00
        -11   -1    0    0    0    0  0.00000000000E+00  0.00000000000E+00  0.45593999997E+02  0.45594000000E+02  0.51100000000E-03 0. -1.
         11   -1    0    0    0    0 -0.00000000000E+00 -0.00000000000E+00 -0.45593999997E+02  0.45594000000E+02  0.51100000000E-03 0.  1.
         23    2    1    2    0    0 -0.35527136788E-14  0.35527136788E-14 -0.71054273576E-14  0.91188000000E+02  0.91188000000E+02 0.  0.
    9900012    2    3    3    0    0  0.26607227392E+02 -0.62067494408E+01  0.24684250990E+02  0.54367074766E+02  0.39999978545E+02 0.  0.
        -12    1    3    3    0    0 -0.26607227392E+02  0.62067494408E+01 -0.24684250990E+02  0.36820925234E+02  0.00000000000E+00 0.  1.
         11    1    4    4    0    0  0.54526731653E+01 -0.11969257821E+01  0.12980834219E+02  0.14130333798E+02  0.51100000000E-03 0. -1.
        -11    1    4    4    0    0  0.54060679647E+01  0.13003946483E+02  0.74580751887E+01  0.15935842643E+02  0.51100000000E-03 0.  1.
         12    1    4    4    0    0  0.15748486262E+02 -0.18013770141E+02  0.42453415833E+01  0.24300898325E+02  0.00000000000E+00 0. -1.
</event>
<event>
 8    1  0.1269154E-006  0.9118800E+02  0.7816164E-02  0.1184000E+00
        -11   -1    0    0    0    0  0.00000000000E+00  0.00000000000E+00  0.45593999997E+02  0.45594000000E+02  0.51100000000E-03 0.  1.
         11   -1    0    0    0    0 -0.00000000000E+00 -0.00000000000E+00 -0.45593999997E+02  0.45594000000E+02  0.51100000000E-03 0. -1.
         23    2    1    2    0    0  0.00000000000E+00 -0.17763568394E-14 -0.35527136788E-14  0.91188000000E+02  0.91188000000E+02 0.  0.
    9900012    2    3    3    0    0  0.16619032799E+02  0.14000644882E+02 -0.29724946702E+02  0.54367044489E+02  0.39999909521E+02 0.  0.
         12    1    3    3    0    0 -0.16619032799E+02 -0.14000644882E+02  0.29724946702E+02  0.36820955511E+02  0.00000000000E+00 0. -1.
         11    1    4    4    0    0 -0.44646056536E+00 -0.58508548236E+01  0.47459672222E+01  0.75469221765E+01  0.51100000000E-03 0. -1.
        -11    1    4    4    0    0  0.19817762216E+01  0.36406789497E+01  0.16425414072E+01  0.44586906982E+01  0.51100000000E-03 0.  1.
         12    1    4    4    0    0  0.15083717143E+02  0.16210820756E+02 -0.36113455331E+02  0.42361431614E+02  0.00000000000E+00 0. -1.
</event>
<event>
 8    1  0.1269154E-006  0.9118800E+02  0.7816164E-02  0.1184000E+00
        -11   -1    0    0    0    0  0.00000000000E+00  0.00000000000E+00  0.45593999997E+02  0.45594000000E+02  0.51100000000E-03 0.  1.
         11   -1    0    0    0    0 -0.00000000000E+00 -0.00000000000E+00 -0.45593999997E+02  0.45594000000E+02  0.51100000000E-03 0. -1.
         23    2    1    2    0    0  0.00000000000E+00  0.00000000000E+00 -0.35527136788E-14  0.91188000000E+02  0.91188000000E+02 0.  0.
    9900012    2    3    3    0    0  0.11885923486E+02 -0.21048551390E+02 -0.27775271613E+02  0.54367049361E+02  0.39999920629E+02 0.  0.
        -12    1    3    3    0    0 -0.11885923486E+02  0.21048551390E+02  0.27775271613E+02  0.36820950639E+02  0.00000000000E+00 0.  1.
         11    1    4    4    0    0  0.98757213608E+01 -0.22741232671E+02 -0.20451931249E+02  0.32139928872E+02  0.51100000000E-03 0. -1.
        -11    1    4    4    0    0  0.93426818549E+01  0.68335828818E+01 -0.18232718644E+01  0.11717844503E+02  0.51100000000E-03 0.  1.
        -12    1    4    4    0    0 -0.73324797301E+01 -0.51409016010E+01 -0.55000684999E+01  0.10509275987E+02  0.00000000000E+00 0.  1.
</event>
<event>
 8    1  0.1269154E-006  0.9118800E+02  0.7816164E-02  0.1184000E+00
        -11   -1    0    0    0    0  0.00000000000E+00  0.00000000000E+00  0.45593999997E+02  0.45594000000E+02  0.51100000000E-03 0. -1.
         11   -1    0    0    0    0 -0.00000000000E+00 -0.00000000000E+00 -0.45593999997E+02  0.45594000000E+02  0.51100000000E-03 0.  1.
         23    2    1    2    0    0  0.00000000000E+00  0.71054273576E-14  0.00000000000E+00  0.91188000000E+02  0.91188000000E+02 0.  0.
    9900012    2    3    3    0    0 -0.24142224698E+02  0.27667647577E+02 -0.27265787499E+01  0.54367082473E+02  0.39999996114E+02 0.  0.
         12    1    3    3    0    0  0.24142224698E+02 -0.27667647577E+02  0.27265787499E+01  0.36820917527E+02  0.00000000000E+00 0. -1.
         11    1    4    4    0    0 -0.71224446663E+01 -0.13962463148E+01  0.10496499839E+02  0.12761474481E+02  0.51100000000E-03 0. -1.
        -11    1    4    4    0    0  0.32776747750E+01  0.33753042735E+01 -0.67567025523E+01  0.82333990861E+01  0.51100000000E-03 0.  1.
         12    1    4    4    0    0 -0.20297454807E+02  0.25688589618E+02 -0.64663760368E+01  0.33372208906E+02  0.00000000000E+00 0. -1.
</event>
<event>
 8    1  0.1269154E-006  0.9118800E+02  0.7816164E-02  0.1184000E+00
        -11   -1    0    0    0    0  0.00000000000E+00  0.00000000000E+00  0.45593999997E+02  0.45594000000E+02  0.51100000000E-03 0. -1.
         11   -1    0    0    0    0 -0.00000000000E+00 -0.00000000000E+00 -0.45593999997E+02  0.45594000000E+02  0.51100000000E-03 0.  1.
         23    2    1    2    0    0 -0.88817841970E-15 -0.88817841970E-15  0.00000000000E+00  0.91188000000E+02  0.91188000000E+02 0.  0.
    9900012    2    3    3    0    0 -0.78290839971E+01  0.44895797699E+01  0.35697718235E+02  0.54367109599E+02  0.40000057952E+02 0.  0.
        -12    1    3    3    0    0  0.78290839971E+01 -0.44895797699E+01 -0.35697718235E+02  0.36820890401E+02  0.00000000000E+00 0.  1.
         11    1    4    4    0    0 -0.12500518631E+02  0.11186717787E+01  0.37852445498E+02  0.39878841796E+02  0.51100000000E-03 0. -1.
        -11    1    4    4    0    0  0.32981262465E+01  0.83745126077E+01 -0.23279085398E+01  0.92967336514E+01  0.51100000000E-03 0.  1.
         12    1    4    4    0    0  0.13733083878E+01 -0.50036046164E+01  0.17318127738E+00  0.51915341509E+01  0.00000000000E+00 0. -1.
</event>
<event>
 8    1  0.1269154E-006  0.9118800E+02  0.7816164E-02  0.1184000E+00
        -11   -1    0    0    0    0  0.00000000000E+00  0.00000000000E+00  0.45593999997E+02  0.45594000000E+02  0.51100000000E-03 0.  1.
         11   -1    0    0    0    0 -0.00000000000E+00 -0.00000000000E+00 -0.45593999997E+02  0.45594000000E+02  0.51100000000E-03 0. -1.
         23    2    1    2    0    0 -0.35527136788E-14  0.17763568394E-14  0.35527136788E-14  0.91188000000E+02  0.91188000000E+02 0.  0.
    9900012    2    3    3    0    0 -0.17332943957E+02 -0.13116936000E+02  0.29720295774E+02  0.54367069306E+02  0.39999966098E+02 0.  0.
        -12    1    3    3    0    0  0.17332943957E+02  0.13116936000E+02 -0.29720295774E+02  0.36820930694E+02  0.00000000000E+00 0.  1.
         11    1    4    4    0    0 -0.41299373327E+01  0.11622613765E+01  0.85757917278E+00  0.43752344141E+01  0.51100000000E-03 0. -1.
        -11    1    4    4    0    0  0.35705091263E+01  0.81804729884E+01  0.17692187601E+02  0.19816209933E+02  0.51100000000E-03 0.  1.
         12    1    4    4    0    0 -0.16773515750E+02 -0.22459670365E+02  0.11170529000E+02  0.30175624959E+02  0.00000000000E+00 0. -1.
</event>
<event>
 8    1  0.1269154E-006  0.9118800E+02  0.7816164E-02  0.1184000E+00
        -11   -1    0    0    0    0  0.00000000000E+00  0.00000000000E+00  0.45593999997E+02  0.45594000000E+02  0.51100000000E-03 0.  1.
         11   -1    0    0    0    0 -0.00000000000E+00 -0.00000000000E+00 -0.45593999997E+02  0.45594000000E+02  0.51100000000E-03 0. -1.
         23    2    1    2    0    0  0.00000000000E+00  0.17763568394E-14 -0.17763568394E-14  0.91188000000E+02  0.91188000000E+02 0.  0.
    9900012    2    3    3    0    0  0.31554205883E+02 -0.13479972340E+02  0.13356754395E+02  0.54367075905E+02  0.39999981142E+02 0.  0.
         12    1    3    3    0    0 -0.31554205883E+02  0.13479972340E+02 -0.13356754395E+02  0.36820924095E+02  0.00000000000E+00 0. -1.
         11    1    4    4    0    0 -0.72153909733E+00 -0.33361350680E+01  0.34947189630E+01  0.48850257679E+01  0.51100000000E-03 0. -1.
        -11    1    4    4    0    0  0.19661798118E+01 -0.13408043408E+02  0.13072026225E+02  0.18828684526E+02  0.51100000000E-03 0.  1.
         12    1    4    4    0    0  0.30309565169E+02  0.32642061369E+01 -0.32099907924E+01  0.30653365612E+02  0.00000000000E+00 0. -1.
</event>
<event>
 8    1  0.1269154E-006  0.9118800E+02  0.7816164E-02  0.1184000E+00
        -11   -1    0    0    0    0  0.00000000000E+00  0.00000000000E+00  0.45593999997E+02  0.45594000000E+02  0.51100000000E-03 0.  1.
         11   -1    0    0    0    0 -0.00000000000E+00 -0.00000000000E+00 -0.45593999997E+02  0.45594000000E+02  0.51100000000E-03 0. -1.
         23    2    1    2    0    0  0.00000000000E+00  0.35527136788E-14 -0.17763568394E-14  0.91188000000E+02  0.91188000000E+02 0.  0.
    9900012    2    3    3    0    0  0.32306466395E+02 -0.13766507220E+02  0.11070483872E+02  0.54367080604E+02  0.39999991854E+02 0.  0.
         12    1    3    3    0    0 -0.32306466395E+02  0.13766507220E+02 -0.11070483872E+02  0.36820919396E+02  0.00000000000E+00 0. -1.
         11    1    4    4    0    0 -0.39185445725E+01 -0.22989478148E+01 -0.89219766561E+01  0.10012083716E+02  0.51100000000E-03 0. -1.
        -11    1    4    4    0    0  0.87403740077E+01 -0.11243830627E+01 -0.29680944688E-01  0.88124489380E+01  0.51100000000E-03 0.  1.
        -12    1    4    4    0    0  0.27484636960E+02 -0.10343176342E+02  0.20022141472E+02  0.35542547950E+02  0.00000000000E+00 0.  1.
</event>
<event>
 8    1  0.1269154E-006  0.9118800E+02  0.7816164E-02  0.1184000E+00
        -11   -1    0    0    0    0  0.00000000000E+00  0.00000000000E+00  0.45593999997E+02  0.45594000000E+02  0.51100000000E-03 0. -1.
         11   -1    0    0    0    0 -0.00000000000E+00 -0.00000000000E+00 -0.45593999997E+02  0.45594000000E+02  0.51100000000E-03 0.  1.
         23    2    1    2    0    0 -0.17763568394E-14  0.00000000000E+00 -0.35527136788E-14  0.91188000000E+02  0.91188000000E+02 0.  0.
    9900012    2    3    3    0    0 -0.11025719425E+02  0.18010819884E+02 -0.30163277414E+02  0.54367089825E+02  0.40000012874E+02 0.  0.
         12    1    3    3    0    0  0.11025719425E+02 -0.18010819884E+02  0.30163277414E+02  0.36820910175E+02  0.00000000000E+00 0. -1.
         11    1    4    4    0    0  0.96524833144E+00 -0.11480293451E+00 -0.45258534541E+01  0.46290640312E+01  0.51100000000E-03 0. -1.
        -11    1    4    4    0    0 -0.20540269162E+01  0.33207217383E+01 -0.30901076267E+02  0.31146793321E+02  0.51100000000E-03 0.  1.
        -12    1    4    4    0    0 -0.99369408401E+01  0.14804901081E+02  0.52636523067E+01  0.18591232473E+02  0.00000000000E+00 0.  1.
</event>
<event>
 8    1  0.1269154E-006  0.9118800E+02  0.7816164E-02  0.1184000E+00
        -11   -1    0    0    0    0  0.00000000000E+00  0.00000000000E+00  0.45593999997E+02  0.45594000000E+02  0.51100000000E-03 0.  1.
         11   -1    0    0    0    0 -0.00000000000E+00 -0.00000000000E+00 -0.45593999997E+02  0.45594000000E+02  0.51100000000E-03 0. -1.
         23    2    1    2    0    0 -0.17763568394E-14 -0.88817841970E-15  0.00000000000E+00  0.91188000000E+02  0.91188000000E+02 0.  0.
    9900012    2    3    3    0    0 -0.10167863053E+02 -0.22648314418E+01  0.35316640163E+02  0.54367082400E+02  0.39999995947E+02 0.  0.
         12    1    3    3    0    0  0.10167863053E+02  0.22648314418E+01 -0.35316640163E+02  0.36820917600E+02  0.00000000000E+00 0. -1.
         11    1    4    4    0    0  0.69844653256E+01  0.56245390046E+01 -0.39696311107E+01  0.98069448002E+01  0.51100000000E-03 0. -1.
        -11    1    4    4    0    0 -0.39009356859E+01 -0.59655929293E+01  0.92779081269E+01  0.11699793917E+02  0.51100000000E-03 0.  1.
         12    1    4    4    0    0 -0.13251392693E+02 -0.19237775171E+01  0.30008363146E+02  0.32860343683E+02  0.00000000000E+00 0. -1.
</event>
<event>
 8    1  0.1269154E-006  0.9118800E+02  0.7816164E-02  0.1184000E+00
        -11   -1    0    0    0    0  0.00000000000E+00  0.00000000000E+00  0.45593999997E+02  0.45594000000E+02  0.51100000000E-03 0.  1.
         11   -1    0    0    0    0 -0.00000000000E+00 -0.00000000000E+00 -0.45593999997E+02  0.45594000000E+02  0.51100000000E-03 0. -1.
         23    2    1    2    0    0 -0.22204460493E-15 -0.71054273576E-14  0.35527136788E-14  0.91188000000E+02  0.91188000000E+02 0.  0.
    9900012    2    3    3    0    0  0.17942848000E+01 -0.26393253270E+02  0.25611814890E+02  0.54366968808E+02  0.39999736990E+02 0.  0.
         12    1    3    3    0    0 -0.17942848000E+01  0.26393253270E+02 -0.25611814890E+02  0.36821031192E+02  0.00000000000E+00 0. -1.
         11    1    4    4    0    0 -0.54629359323E+01  0.10517475509E+01 -0.75434104031E+01  0.93729868602E+01  0.51100000000E-03 0. -1.
        -11    1    4    4    0    0 -0.19853675973E+01 -0.15014897049E+01  0.51268349755E+01  0.56991747611E+01  0.51100000000E-03 0.  1.
        -12    1    4    4    0    0  0.92425883295E+01 -0.25943511116E+02  0.28028390317E+02  0.39294807187E+02  0.00000000000E+00 0.  1.
</event>
<event>
 8    1  0.1269154E-006  0.9118800E+02  0.7816164E-02  0.1184000E+00
        -11   -1    0    0    0    0  0.00000000000E+00  0.00000000000E+00  0.45593999997E+02  0.45594000000E+02  0.51100000000E-03 0.  1.
         11   -1    0    0    0    0 -0.00000000000E+00 -0.00000000000E+00 -0.45593999997E+02  0.45594000000E+02  0.51100000000E-03 0. -1.
         23    2    1    2    0    0  0.88817841970E-15 -0.44408920985E-15  0.00000000000E+00  0.91188000000E+02  0.91188000000E+02 0.  0.
    9900012    2    3    3    0    0  0.60992724038E+01 -0.26634871954E+01 -0.36214427177E+02  0.54367081711E+02  0.39999994377E+02 0.  0.
        -12    1    3    3    0    0 -0.60992724038E+01  0.26634871954E+01  0.36214427177E+02  0.36820918289E+02  0.00000000000E+00 0.  1.
         11    1    4    4    0    0  0.12514414973E+02 -0.15452018373E+02 -0.31356896000E+02  0.37129912212E+02  0.51100000000E-03 0. -1.
        -11    1    4    4    0    0 -0.63876640894E+01  0.60852997413E+01 -0.56663551663E+01  0.10485261398E+02  0.51100000000E-03 0.  1.
         12    1    4    4    0    0 -0.27478479598E-01  0.67032314360E+01  0.80882398954E+00  0.67519081005E+01  0.00000000000E+00 0. -1.
</event>
<event>
 8    1  0.1269154E-006  0.9118800E+02  0.7816164E-02  0.1184000E+00
        -11   -1    0    0    0    0  0.00000000000E+00  0.00000000000E+00  0.45593999997E+02  0.45594000000E+02  0.51100000000E-03 0. -1.
         11   -1    0    0    0    0 -0.00000000000E+00 -0.00000000000E+00 -0.45593999997E+02  0.45594000000E+02  0.51100000000E-03 0.  1.
         23    2    1    2    0    0  0.00000000000E+00 -0.35527136788E-14 -0.17763568394E-14  0.91188000000E+02  0.91188000000E+02 0.  0.
    9900012    2    3    3    0    0  0.32110955646E+02 -0.17253068918E+02 -0.51961064713E+01  0.54367063265E+02  0.39999952325E+02 0.  0.
         12    1    3    3    0    0 -0.32110955646E+02  0.17253068918E+02  0.51961064713E+01  0.36820936735E+02  0.00000000000E+00 0. -1.
         11    1    4    4    0    0  0.11076101566E+02 -0.74070202951E+01 -0.11032970359E+02  0.17299433828E+02  0.51100000000E-03 0. -1.
        -11    1    4    4    0    0  0.89156475126E+01 -0.59236027186E+01 -0.11398043182E+02  0.15636279237E+02  0.51100000000E-03 0.  1.
         12    1    4    4    0    0  0.12119206567E+02 -0.39224459048E+01  0.17234907070E+02  0.21431350200E+02  0.00000000000E+00 0. -1.
</event>
<event>
 8    1  0.1269154E-006  0.9118800E+02  0.7816164E-02  0.1184000E+00
        -11   -1    0    0    0    0  0.00000000000E+00  0.00000000000E+00  0.45593999997E+02  0.45594000000E+02  0.51100000000E-03 0. -1.
         11   -1    0    0    0    0 -0.00000000000E+00 -0.00000000000E+00 -0.45593999997E+02  0.45594000000E+02  0.51100000000E-03 0.  1.
         23    2    1    2    0    0  0.00000000000E+00 -0.35527136788E-14  0.17763568394E-14  0.91188000000E+02  0.91188000000E+02 0.  0.
    9900012    2    3    3    0    0 -0.25394920115E+02 -0.25180357124E+02  0.87649803368E+01  0.54367119608E+02  0.40000080771E+02 0.  0.
         12    1    3    3    0    0  0.25394920115E+02  0.25180357124E+02 -0.87649803368E+01  0.36820880392E+02  0.00000000000E+00 0. -1.
         11    1    4    4    0    0  0.53131986088E+01 -0.43472802272E+01  0.75941727476E+01  0.10237205908E+02  0.51100000000E-03 0. -1.
        -11    1    4    4    0    0 -0.25470612497E+02 -0.24349357215E+02 -0.46548236352E+01  0.35543082042E+02  0.51100000000E-03 0.  1.
         12    1    4    4    0    0 -0.52375062268E+01  0.35162803180E+01  0.58256312245E+01  0.85868316575E+01  0.00000000000E+00 0. -1.
</event>
<event>
 8    1  0.1269154E-006  0.9118800E+02  0.7816164E-02  0.1184000E+00
        -11   -1    0    0    0    0  0.00000000000E+00  0.00000000000E+00  0.45593999997E+02  0.45594000000E+02  0.51100000000E-03 0.  1.
         11   -1    0    0    0    0 -0.00000000000E+00 -0.00000000000E+00 -0.45593999997E+02  0.45594000000E+02  0.51100000000E-03 0. -1.
         23    2    1    2    0    0  0.00000000000E+00  0.00000000000E+00  0.00000000000E+00  0.91188000000E+02  0.91188000000E+02 0.  0.
    9900012    2    3    3    0    0  0.16627380974E+02 -0.34689229968E+01 -0.32669197735E+02  0.54367086031E+02  0.40000004226E+02 0.  0.
        -12    1    3    3    0    0 -0.16627380974E+02  0.34689229968E+01  0.32669197735E+02  0.36820913969E+02  0.00000000000E+00 0.  1.
         11    1    4    4    0    0 -0.45205541720E+01  0.81073785494E+01  0.31292147033E+01  0.97957634662E+01  0.51100000000E-03 0.  1.
        -11    1    4    4    0    0  0.14880127437E+02 -0.12099241033E+02 -0.31745850867E+02  0.37089201577E+02  0.51100000000E-03 0. -1.
        -12    1    4    4    0    0  0.62678077095E+01  0.52293948687E+00 -0.40525615719E+01  0.74821209883E+01  0.00000000000E+00 0.  1.
</event>
<event>
 8    1  0.1269154E-006  0.9118800E+02  0.7816164E-02  0.1184000E+00
        -11   -1    0    0    0    0  0.00000000000E+00  0.00000000000E+00  0.45593999997E+02  0.45594000000E+02  0.51100000000E-03 0.  1.
         11   -1    0    0    0    0 -0.00000000000E+00 -0.00000000000E+00 -0.45593999997E+02  0.45594000000E+02  0.51100000000E-03 0. -1.
         23    2    1    2    0    0 -0.35527136788E-14  0.00000000000E+00  0.17763568394E-14  0.91188000000E+02  0.91188000000E+02 0.  0.
    9900012    2    3    3    0    0 -0.24538206886E+02  0.25787345795E+02 -0.94164571881E+01  0.54367075700E+02  0.39999980673E+02 0.  0.
         12    1    3    3    0    0  0.24538206886E+02 -0.25787345795E+02  0.94164571881E+01  0.36820924300E+02  0.00000000000E+00 0. -1.
         11    1    4    4    0    0  0.29616856776E+01 -0.34342113078E+01  0.84145700845E+01  0.95587854525E+01  0.51100000000E-03 0. -1.
        -11    1    4    4    0    0 -0.24874545162E+02  0.22560472441E+02 -0.12308583807E+02  0.35766173256E+02  0.51100000000E-03 0.  1.
         12    1    4    4    0    0 -0.26253474020E+01  0.66610846623E+01 -0.55224434653E+01  0.90421169915E+01  0.00000000000E+00 0. -1.
</event>
<event>
 8    1  0.1269154E-006  0.9118800E+02  0.7816164E-02  0.1184000E+00
        -11   -1    0    0    0    0  0.00000000000E+00  0.00000000000E+00  0.45593999997E+02  0.45594000000E+02  0.51100000000E-03 0.  1.
         11   -1    0    0    0    0 -0.00000000000E+00 -0.00000000000E+00 -0.45593999997E+02  0.45594000000E+02  0.51100000000E-03 0. -1.
         23    2    1    2    0    0  0.00000000000E+00  0.00000000000E+00  0.00000000000E+00  0.91188000000E+02  0.91188000000E+02 0.  0.
    9900012    2    3    3    0    0 -0.84389730851E+01 -0.35719957825E+02  0.29408334477E+01  0.54367079926E+02  0.39999990307E+02 0.  0.
         12    1    3    3    0    0  0.84389730851E+01  0.35719957825E+02 -0.29408334477E+01  0.36820920074E+02  0.00000000000E+00 0. -1.
         11    1    4    4    0    0 -0.64194707853E+01 -0.44722902495E+01 -0.23868752183E+01  0.81797407543E+01  0.51100000000E-03 0. -1.
        -11    1    4    4    0    0 -0.83837966577E+01 -0.19973155717E+02  0.17930296546E+02  0.28119575569E+02  0.51100000000E-03 0.  1.
         12    1    4    4    0    0  0.63642943579E+01 -0.11274511859E+02 -0.12602587880E+02  0.18067763603E+02  0.00000000000E+00 0. -1.
</event>
<event>
 8    1  0.1269154E-006  0.9118800E+02  0.7816164E-02  0.1184000E+00
        -11   -1    0    0    0    0  0.00000000000E+00  0.00000000000E+00  0.45593999997E+02  0.45594000000E+02  0.51100000000E-03 0. -1.
         11   -1    0    0    0    0 -0.00000000000E+00 -0.00000000000E+00 -0.45593999997E+02  0.45594000000E+02  0.51100000000E-03 0.  1.
         23    2    1    2    0    0  0.00000000000E+00  0.00000000000E+00  0.11171619185E-14  0.91188000000E+02  0.91188000000E+02 0.  0.
    9900012    2    3    3    0    0 -0.11693529055E+02 -0.34914758643E+02 -0.33383776426E-01  0.54367080574E+02  0.39999991785E+02 0.  0.
         12    1    3    3    0    0  0.11693529055E+02  0.34914758643E+02  0.33383776426E-01  0.36820919426E+02  0.00000000000E+00 0. -1.
         11    1    4    4    0    0  0.22427537107E+00 -0.28098818403E+01  0.16938440948E+01  0.32885929327E+01  0.51100000000E-03 0. -1.
        -11    1    4    4    0    0 -0.17196719807E+02 -0.27099525693E+02  0.13019139340E+02  0.34635378651E+02  0.51100000000E-03 0.  1.
        -12    1    4    4    0    0  0.52789153808E+01 -0.50053511102E+01 -0.14746367211E+02  0.16443108990E+02  0.00000000000E+00 0.  1.
</event>
<event>
 8    1  0.1269154E-006  0.9118800E+02  0.7816164E-02  0.1184000E+00
        -11   -1    0    0    0    0  0.00000000000E+00  0.00000000000E+00  0.45593999997E+02  0.45594000000E+02  0.51100000000E-03 0.  1.
         11   -1    0    0    0    0 -0.00000000000E+00 -0.00000000000E+00 -0.45593999997E+02  0.45594000000E+02  0.51100000000E-03 0. -1.
         23    2    1    2    0    0  0.35527136788E-14 -0.35527136788E-14  0.00000000000E+00  0.91188000000E+02  0.91188000000E+02 0.  0.
    9900012    2    3    3    0    0 -0.18183643344E+02 -0.24544597134E+02  0.20559627531E+02  0.54367076357E+02  0.39999982171E+02 0.  0.
         12    1    3    3    0    0  0.18183643344E+02  0.24544597134E+02 -0.20559627531E+02  0.36820923643E+02  0.00000000000E+00 0. -1.
         11    1    4    4    0    0  0.15070467786E+01 -0.22140009240E+01  0.83364544961E+01  0.87561100901E+01  0.51100000000E-03 0. -1.
        -11    1    4    4    0    0 -0.38986113258E+01 -0.27140531387E+02  0.82090943846E+01  0.28621614998E+02  0.51100000000E-03 0.  1.
         12    1    4    4    0    0 -0.15792078797E+02  0.48099351770E+01  0.40140786503E+01  0.16989351269E+02  0.00000000000E+00 0. -1.
</event>
<event>
 8    1  0.1269154E-006  0.9118800E+02  0.7816164E-02  0.1184000E+00
        -11   -1    0    0    0    0  0.00000000000E+00  0.00000000000E+00  0.45593999997E+02  0.45594000000E+02  0.51100000000E-03 0.  1.
         11   -1    0    0    0    0 -0.00000000000E+00 -0.00000000000E+00 -0.45593999997E+02  0.45594000000E+02  0.51100000000E-03 0. -1.
         23    2    1    2    0    0  0.00000000000E+00  0.00000000000E+00  0.00000000000E+00  0.91188000000E+02  0.91188000000E+02 0.  0.
    9900012    2    3    3    0    0 -0.22000178240E+02 -0.22932302985E+02  0.18597910091E+02  0.54367073579E+02  0.39999975838E+02 0.  0.
         12    1    3    3    0    0  0.22000178240E+02  0.22932302985E+02 -0.18597910091E+02  0.36820926421E+02  0.00000000000E+00 0. -1.
         11    1    4    4    0    0 -0.76438706836E+01 -0.85038254854E+00  0.82609307174E+00  0.77352659638E+01  0.51100000000E-03 0. -1.
        -11    1    4    4    0    0 -0.20013691204E+02 -0.27006956751E+02  0.19600275227E+02  0.38911365150E+02  0.51100000000E-03 0.  1.
         12    1    4    4    0    0  0.56573836483E+01  0.49250363148E+01 -0.18284582080E+01  0.77204424656E+01  0.00000000000E+00 0. -1.
</event>
<event>
 8    1  0.1269154E-006  0.9118800E+02  0.7816164E-02  0.1184000E+00
        -11   -1    0    0    0    0  0.00000000000E+00  0.00000000000E+00  0.45593999997E+02  0.45594000000E+02  0.51100000000E-03 0.  1.
         11   -1    0    0    0    0 -0.00000000000E+00 -0.00000000000E+00 -0.45593999997E+02  0.45594000000E+02  0.51100000000E-03 0. -1.
         23    2    1    2    0    0  0.00000000000E+00  0.00000000000E+00 -0.35527136788E-14  0.91188000000E+02  0.91188000000E+02 0.  0.
    9900012    2    3    3    0    0  0.11816944476E+02 -0.28426328034E+02 -0.20201142758E+02  0.54367048478E+02  0.39999918616E+02 0.  0.
        -12    1    3    3    0    0 -0.11816944476E+02  0.28426328034E+02  0.20201142758E+02  0.36820951522E+02  0.00000000000E+00 0.  1.
         11    1    4    4    0    0  0.24188689392E+01  0.14769454940E+00 -0.11349178691E+02  0.11605024681E+02  0.51100000000E-03 0. -1.
        -11    1    4    4    0    0  0.10655224116E+02 -0.19472144033E+02  0.79781960566E+01  0.23587068635E+02  0.51100000000E-03 0.  1.
        -12    1    4    4    0    0 -0.12571485799E+01 -0.91018785506E+01 -0.16830160123E+02  0.19174955162E+02  0.00000000000E+00 0.  1.
</event>
<event>
 8    1  0.1269154E-006  0.9118800E+02  0.7816164E-02  0.1184000E+00
        -11   -1    0    0    0    0  0.00000000000E+00  0.00000000000E+00  0.45593999997E+02  0.45594000000E+02  0.51100000000E-03 0.  1.
         11   -1    0    0    0    0 -0.00000000000E+00 -0.00000000000E+00 -0.45593999997E+02  0.45594000000E+02  0.51100000000E-03 0. -1.
         23    2    1    2    0    0  0.00000000000E+00  0.00000000000E+00  0.00000000000E+00  0.91188000000E+02  0.91188000000E+02 0.  0.
    9900012    2    3    3    0    0 -0.16966384425E+02  0.24412936116E+02 -0.21723968535E+02  0.54367075797E+02  0.39999980894E+02 0.  0.
        -12    1    3    3    0    0  0.16966384425E+02 -0.24412936116E+02  0.21723968535E+02  0.36820924203E+02  0.00000000000E+00 0.  1.
         11    1    4    4    0    0  0.92129718745E+01  0.35024093290E+00  0.91608754233E+00  0.92650275832E+01  0.51100000000E-03 0. -1.
        -11    1    4    4    0    0  0.16916191160E+01  0.22097383673E+01  0.45599959547E+00  0.28200097123E+01  0.51100000000E-03 0.  1.
         12    1    4    4    0    0 -0.27870975416E+02  0.21852956816E+02 -0.23096055672E+02  0.42282038501E+02  0.00000000000E+00 0. -1.
</event>
<event>
 8    1  0.1269154E-006  0.9118800E+02  0.7816164E-02  0.1184000E+00
        -11   -1    0    0    0    0  0.00000000000E+00  0.00000000000E+00  0.45593999997E+02  0.45594000000E+02  0.51100000000E-03 0. -1.
         11   -1    0    0    0    0 -0.00000000000E+00 -0.00000000000E+00 -0.45593999997E+02  0.45594000000E+02  0.51100000000E-03 0.  1.
         23    2    1    2    0    0  0.00000000000E+00  0.00000000000E+00 -0.44408920985E-15  0.91188000000E+02  0.91188000000E+02 0.  0.
    9900012    2    3    3    0    0  0.25233200657E+02 -0.26701987296E+02 -0.24639188767E+01  0.54367062516E+02  0.39999950618E+02 0.  0.
         12    1    3    3    0    0 -0.25233200657E+02  0.26701987296E+02  0.24639188767E+01  0.36820937484E+02  0.00000000000E+00 0. -1.
         11    1    4    4    0    0  0.71519274223E+01 -0.46283551880E+01  0.13895768937E+02  0.16299206490E+02  0.51100000000E-03 0.  1.
        -11    1    4    4    0    0  0.12119787609E+02 -0.11341857513E+02 -0.19287946175E+02  0.25447040132E+02  0.51100000000E-03 0. -1.
         12    1    4    4    0    0  0.59614856255E+01 -0.10731774594E+02  0.29282583612E+01  0.12620815894E+02  0.00000000000E+00 0. -1.
</event>
<event>
 8    1  0.1269154E-006  0.9118800E+02  0.7816164E-02  0.1184000E+00
        -11   -1    0    0    0    0  0.00000000000E+00  0.00000000000E+00  0.45593999997E+02  0.45594000000E+02  0.51100000000E-03 0. -1.
         11   -1    0    0    0    0 -0.00000000000E+00 -0.00000000000E+00 -0.45593999997E+02  0.45594000000E+02  0.51100000000E-03 0.  1.
         23    2    1    2    0    0 -0.17763568394E-14  0.00000000000E+00  0.00000000000E+00  0.91188000000E+02  0.91188000000E+02 0.  0.
    9900012    2    3    3    0    0  0.14845573708E+02 -0.58874940952E+01 -0.33177108337E+02  0.54367161293E+02  0.40000175800E+02 0.  0.
         12    1    3    3    0    0 -0.14845573708E+02  0.58874940952E+01  0.33177108337E+02  0.36820838707E+02  0.00000000000E+00 0. -1.
         11    1    4    4    0    0  0.45253019019E+01 -0.58179194026E+01  0.48234035359E+01  0.88086188139E+01  0.51100000000E-03 0. -1.
        -11    1    4    4    0    0  0.38804771411E+01 -0.93650653994E+01 -0.30106957629E+02  0.31767773777E+02  0.51100000000E-03 0.  1.
         12    1    4    4    0    0  0.64397946655E+01  0.92954907068E+01 -0.78935542438E+01  0.13790768703E+02  0.00000000000E+00 0. -1.
</event>
<event>
 8    1  0.1269154E-006  0.9118800E+02  0.7816164E-02  0.1184000E+00
        -11   -1    0    0    0    0  0.00000000000E+00  0.00000000000E+00  0.45593999997E+02  0.45594000000E+02  0.51100000000E-03 0. -1.
         11   -1    0    0    0    0 -0.00000000000E+00 -0.00000000000E+00 -0.45593999997E+02  0.45594000000E+02  0.51100000000E-03 0.  1.
         23    2    1    2    0    0 -0.35527136788E-14  0.00000000000E+00  0.00000000000E+00  0.91188000000E+02  0.91188000000E+02 0.  0.
    9900012    2    3    3    0    0 -0.24204385993E+02 -0.27465321988E+02  0.39475576581E+01  0.54367089845E+02  0.40000012919E+02 0.  0.
        -12    1    3    3    0    0  0.24204385993E+02  0.27465321988E+02 -0.39475576581E+01  0.36820910155E+02  0.00000000000E+00 0.  1.
         11    1    4    4    0    0  0.48759773100E+01 -0.54771562435E+01 -0.49712595243E+01  0.88593350068E+01  0.51100000000E-03 0. -1.
        -11    1    4    4    0    0 -0.44245641744E+00 -0.14149246856E+02 -0.10308145037E+01  0.14193644108E+02  0.51100000000E-03 0.  1.
         12    1    4    4    0    0 -0.28637906886E+02 -0.78389188885E+01  0.99496316862E+01  0.31314110730E+02  0.00000000000E+00 0. -1.
</event>
<event>
 8    1  0.1269154E-006  0.9118800E+02  0.7816164E-02  0.1184000E+00
        -11   -1    0    0    0    0  0.00000000000E+00  0.00000000000E+00  0.45593999997E+02  0.45594000000E+02  0.51100000000E-03 0. -1.
         11   -1    0    0    0    0 -0.00000000000E+00 -0.00000000000E+00 -0.45593999997E+02  0.45594000000E+02  0.51100000000E-03 0.  1.
         23    2    1    2    0    0 -0.35527136788E-14  0.00000000000E+00  0.00000000000E+00  0.91188000000E+02  0.91188000000E+02 0.  0.
    9900012    2    3    3    0    0  0.16072486244E+02  0.17008496155E+02  0.28428268148E+02  0.54367079514E+02  0.39999989368E+02 0.  0.
        -12    1    3    3    0    0 -0.16072486244E+02 -0.17008496155E+02 -0.28428268148E+02  0.36820920486E+02  0.00000000000E+00 0.  1.
         11    1    4    4    0    0  0.85093136663E+01  0.17367214913E+02  0.10164752322E+01  0.19366512207E+02  0.51100000000E-03 0. -1.
        -11    1    4    4    0    0 -0.92402893197E-01 -0.20020087367E+01  0.27089965622E+02  0.27163998507E+02  0.51100000000E-03 0.  1.
        -12    1    4    4    0    0  0.76555754711E+01  0.16432899788E+01  0.32182729440E+00  0.78365687999E+01  0.00000000000E+00 0.  1.
</event>
<event>
 8    1  0.1269154E-006  0.9118800E+02  0.7816164E-02  0.1184000E+00
        -11   -1    0    0    0    0  0.00000000000E+00  0.00000000000E+00  0.45593999997E+02  0.45594000000E+02  0.51100000000E-03 0.  1.
         11   -1    0    0    0    0 -0.00000000000E+00 -0.00000000000E+00 -0.45593999997E+02  0.45594000000E+02  0.51100000000E-03 0. -1.
         23    2    1    2    0    0  0.13322676296E-14  0.00000000000E+00 -0.35527136788E-14  0.91188000000E+02  0.91188000000E+02 0.  0.
    9900012    2    3    3    0    0  0.34993677653E+01 -0.21457796218E+02 -0.29716949915E+02  0.54367086031E+02  0.40000004224E+02 0.  0.
        -12    1    3    3    0    0 -0.34993677653E+01  0.21457796218E+02  0.29716949915E+02  0.36820913969E+02  0.00000000000E+00 0.  1.
         11    1    4    4    0    0 -0.29221057056E+01 -0.16356119085E+02 -0.22671947817E+02  0.28108335976E+02  0.51100000000E-03 0. -1.
        -11    1    4    4    0    0  0.10602467220E+02 -0.12443676502E+02 -0.21354660542E+01  0.16486892114E+02  0.51100000000E-03 0.  1.
         12    1    4    4    0    0 -0.41809937493E+01  0.73419993681E+01 -0.49095360435E+01  0.97718579408E+01  0.00000000000E+00 0. -1.
</event>
<event>
 8    1  0.1269154E-006  0.9118800E+02  0.7816164E-02  0.1184000E+00
        -11   -1    0    0    0    0  0.00000000000E+00  0.00000000000E+00  0.45593999997E+02  0.45594000000E+02  0.51100000000E-03 0. -1.
         11   -1    0    0    0    0 -0.00000000000E+00 -0.00000000000E+00 -0.45593999997E+02  0.45594000000E+02  0.51100000000E-03 0.  1.
         23    2    1    2    0    0  0.00000000000E+00  0.00000000000E+00  0.00000000000E+00  0.91188000000E+02  0.91188000000E+02 0.  0.
    9900012    2    3    3    0    0  0.22401406367E+02 -0.18112471804E+02  0.22932395430E+02  0.54367090149E+02  0.40000013612E+02 0.  0.
        -12    1    3    3    0    0 -0.22401406367E+02  0.18112471804E+02 -0.22932395430E+02  0.36820909851E+02  0.00000000000E+00 0.  1.
         11    1    4    4    0    0 -0.84320217813E+01 -0.30925949593E+01  0.85240386443E+01  0.12382341054E+02  0.51100000000E-03 0.  1.
        -11    1    4    4    0    0 -0.18770766827E+01  0.53244069331E+00  0.37539082913E+01  0.42306899774E+01  0.51100000000E-03 0. -1.
        -12    1    4    4    0    0  0.32710504831E+02 -0.15552317538E+02  0.10654448495E+02  0.37754059118E+02  0.00000000000E+00 0.  1.
</event>
<event>
 8    1  0.1269154E-006  0.9118800E+02  0.7816164E-02  0.1184000E+00
        -11   -1    0    0    0    0  0.00000000000E+00  0.00000000000E+00  0.45593999997E+02  0.45594000000E+02  0.51100000000E-03 0. -1.
         11   -1    0    0    0    0 -0.00000000000E+00 -0.00000000000E+00 -0.45593999997E+02  0.45594000000E+02  0.51100000000E-03 0.  1.
         23    2    1    2    0    0 -0.35527136788E-14  0.17763568394E-14  0.35527136788E-14  0.91188000000E+02  0.91188000000E+02 0.  0.
    9900012    2    3    3    0    0  0.29244163751E+02  0.12031204999E+02 -0.18862868687E+02  0.54367098024E+02  0.40000031566E+02 0.  0.
         12    1    3    3    0    0 -0.29244163751E+02 -0.12031204999E+02  0.18862868687E+02  0.36820901976E+02  0.00000000000E+00 0. -1.
         11    1    4    4    0    0  0.19566068971E+02  0.19731827899E+02 -0.20670416997E+01  0.27864829962E+02  0.51100000000E-03 0.  1.
        -11    1    4    4    0    0  0.15925379149E+01 -0.83409099141E+01 -0.75206014771E+00  0.85248196422E+01  0.51100000000E-03 0. -1.
        -12    1    4    4    0    0  0.80855568655E+01  0.64028701459E+00 -0.16043766839E+02  0.17977448419E+02  0.00000000000E+00 0.  1.
</event>
<event>
 8    1  0.1269154E-006  0.9118800E+02  0.7816164E-02  0.1184000E+00
        -11   -1    0    0    0    0  0.00000000000E+00  0.00000000000E+00  0.45593999997E+02  0.45594000000E+02  0.51100000000E-03 0. -1.
         11   -1    0    0    0    0 -0.00000000000E+00 -0.00000000000E+00 -0.45593999997E+02  0.45594000000E+02  0.51100000000E-03 0.  1.
         23    2    1    2    0    0  0.35527136788E-14  0.00000000000E+00  0.35527136788E-14  0.91188000000E+02  0.91188000000E+02 0.  0.
    9900012    2    3    3    0    0 -0.24936948123E+02  0.88493785384E+01 -0.25605013189E+02  0.54367087700E+02  0.40000008029E+02 0.  0.
         12    1    3    3    0    0  0.24936948123E+02 -0.88493785384E+01  0.25605013189E+02  0.36820912300E+02  0.00000000000E+00 0. -1.
         11    1    4    4    0    0  0.12409573503E+00 -0.46395474374E+01  0.66261765001E+01  0.80899329693E+01  0.51100000000E-03 0. -1.
        -11    1    4    4    0    0 -0.66713445722E+01 -0.12723801318E+01 -0.16733295994E+02  0.18059041633E+02  0.51100000000E-03 0.  1.
         12    1    4    4    0    0 -0.18389699286E+02  0.14761306108E+02 -0.15497893695E+02  0.28218113098E+02  0.00000000000E+00 0. -1.
</event>
<event>
 8    1  0.1269154E-006  0.9118800E+02  0.7816164E-02  0.1184000E+00
        -11   -1    0    0    0    0  0.00000000000E+00  0.00000000000E+00  0.45593999997E+02  0.45594000000E+02  0.51100000000E-03 0.  1.
         11   -1    0    0    0    0 -0.00000000000E+00 -0.00000000000E+00 -0.45593999997E+02  0.45594000000E+02  0.51100000000E-03 0. -1.
         23    2    1    2    0    0  0.17763568394E-14 -0.35527136788E-14  0.35527136788E-14  0.91188000000E+02  0.91188000000E+02 0.  0.
    9900012    2    3    3    0    0  0.46179888749E+01  0.23500582394E+02 -0.27967419736E+02  0.54367085280E+02  0.40000002514E+02 0.  0.
        -12    1    3    3    0    0 -0.46179888749E+01 -0.23500582394E+02  0.27967419736E+02  0.36820914720E+02  0.00000000000E+00 0.  1.
         11    1    4    4    0    0 -0.18983458945E+01 -0.26994952285E+01 -0.10103824535E+02  0.10629123299E+02  0.51100000000E-03 0. -1.
        -11    1    4    4    0    0 -0.91805813358E+01  0.19383661547E+02 -0.15500079756E+02  0.26462461740E+02  0.51100000000E-03 0.  1.
        -12    1    4    4    0    0  0.15696916105E+02  0.68164160756E+01 -0.23635154454E+01  0.17275500241E+02  0.00000000000E+00 0.  1.
</event>
<event>
 8    1  0.1269154E-006  0.9118800E+02  0.7816164E-02  0.1184000E+00
        -11   -1    0    0    0    0  0.00000000000E+00  0.00000000000E+00  0.45593999997E+02  0.45594000000E+02  0.51100000000E-03 0.  1.
         11   -1    0    0    0    0 -0.00000000000E+00 -0.00000000000E+00 -0.45593999997E+02  0.45594000000E+02  0.51100000000E-03 0. -1.
         23    2    1    2    0    0 -0.53290705182E-14 -0.35527136788E-14  0.00000000000E+00  0.91188000000E+02  0.91188000000E+02 0.  0.
    9900012    2    3    3    0    0  0.10022964588E+02  0.28414898420E+02 -0.21163972279E+02  0.54367082114E+02  0.39999995294E+02 0.  0.
        -12    1    3    3    0    0 -0.10022964588E+02 -0.28414898420E+02  0.21163972279E+02  0.36820917886E+02  0.00000000000E+00 0.  1.
         11    1    4    4    0    0 -0.77126868632E+01  0.60006810273E+01 -0.19574953850E+01  0.99662179329E+01  0.51100000000E-03 0. -1.
        -11    1    4    4    0    0  0.14060857545E+02  0.26790495728E+02 -0.71959499207E+01  0.31100161925E+02  0.51100000000E-03 0.  1.
         12    1    4    4    0    0  0.36747939070E+01 -0.43762783347E+01 -0.12010526973E+02  0.13300702256E+02  0.00000000000E+00 0. -1.
</event>
<event>
 8    1  0.1269154E-006  0.9118800E+02  0.7816164E-02  0.1184000E+00
        -11   -1    0    0    0    0  0.00000000000E+00  0.00000000000E+00  0.45593999997E+02  0.45594000000E+02  0.51100000000E-03 0.  1.
         11   -1    0    0    0    0 -0.00000000000E+00 -0.00000000000E+00 -0.45593999997E+02  0.45594000000E+02  0.51100000000E-03 0. -1.
         23    2    1    2    0    0  0.00000000000E+00  0.00000000000E+00  0.00000000000E+00  0.91188000000E+02  0.91188000000E+02 0.  0.
    9900012    2    3    3    0    0  0.61079109355E+01 -0.34308162432E+02  0.11891835972E+02  0.54367185938E+02  0.40000231982E+02 0.  0.
         12    1    3    3    0    0 -0.61079109355E+01  0.34308162432E+02 -0.11891835972E+02  0.36820814062E+02  0.00000000000E+00 0. -1.
         11    1    4    4    0    0  0.19892822477E+01  0.21897466827E+01 -0.33542175412E+01  0.44724724672E+01  0.51100000000E-03 0. -1.
        -11    1    4    4    0    0  0.69770127459E+00 -0.18605957899E+02  0.23427954780E+02  0.29925532942E+02  0.51100000000E-03 0.  1.
        -12    1    4    4    0    0  0.34209274132E+01 -0.17891951215E+02 -0.81819012671E+01  0.19969180529E+02  0.00000000000E+00 0.  1.
</event>
<event>
 8    1  0.1269154E-006  0.9118800E+02  0.7816164E-02  0.1184000E+00
        -11   -1    0    0    0    0  0.00000000000E+00  0.00000000000E+00  0.45593999997E+02  0.45594000000E+02  0.51100000000E-03 0. -1.
         11   -1    0    0    0    0 -0.00000000000E+00 -0.00000000000E+00 -0.45593999997E+02  0.45594000000E+02  0.51100000000E-03 0.  1.
         23    2    1    2    0    0  0.00000000000E+00  0.00000000000E+00  0.00000000000E+00  0.91188000000E+02  0.91188000000E+02 0.  0.
    9900012    2    3    3    0    0 -0.26042287287E+02  0.20960109261E+02  0.15435449738E+02  0.54367081815E+02  0.39999994614E+02 0.  0.
        -12    1    3    3    0    0  0.26042287287E+02 -0.20960109261E+02 -0.15435449738E+02  0.36820918185E+02  0.00000000000E+00 0.  1.
         11    1    4    4    0    0 -0.14772287417E+02  0.17335864527E+02  0.12238836975E+02  0.25856175378E+02  0.51100000000E-03 0. -1.
        -11    1    4    4    0    0 -0.11655549954E+01 -0.10365790860E+02 -0.17079450089E+01  0.10570014902E+02  0.51100000000E-03 0.  1.
        -12    1    4    4    0    0 -0.10104444874E+02  0.13990035594E+02  0.49045577723E+01  0.17940891535E+02  0.00000000000E+00 0.  1.
</event>
<event>
 8    1  0.1269154E-006  0.9118800E+02  0.7816164E-02  0.1184000E+00
        -11   -1    0    0    0    0  0.00000000000E+00  0.00000000000E+00  0.45593999997E+02  0.45594000000E+02  0.51100000000E-03 0. -1.
         11   -1    0    0    0    0 -0.00000000000E+00 -0.00000000000E+00 -0.45593999997E+02  0.45594000000E+02  0.51100000000E-03 0.  1.
         23    2    1    2    0    0  0.17763568394E-14  0.00000000000E+00 -0.88817841970E-15  0.91188000000E+02  0.91188000000E+02 0.  0.
    9900012    2    3    3    0    0 -0.80388325776E+01  0.35448505196E+02  0.58789281228E+01  0.54367066474E+02  0.39999959642E+02 0.  0.
        -12    1    3    3    0    0  0.80388325776E+01 -0.35448505196E+02 -0.58789281228E+01  0.36820933526E+02  0.00000000000E+00 0.  1.
         11    1    4    4    0    0 -0.65303250673E+01  0.10422380830E+02  0.31333214277E+01  0.12692079069E+02  0.51100000000E-03 0. -1.
        -11    1    4    4    0    0 -0.13354422555E+02 -0.56443585698E+00  0.14681281234E+01  0.13446731575E+02  0.51100000000E-03 0.  1.
         12    1    4    4    0    0  0.11845915044E+02  0.25590560222E+02  0.12774785716E+01  0.28228255830E+02  0.00000000000E+00 0. -1.
</event>
<event>
 8    1  0.1269154E-006  0.9118800E+02  0.7816164E-02  0.1184000E+00
        -11   -1    0    0    0    0  0.00000000000E+00  0.00000000000E+00  0.45593999997E+02  0.45594000000E+02  0.51100000000E-03 0. -1.
         11   -1    0    0    0    0 -0.00000000000E+00 -0.00000000000E+00 -0.45593999997E+02  0.45594000000E+02  0.51100000000E-03 0.  1.
         23    2    1    2    0    0 -0.71054273576E-14  0.00000000000E+00  0.00000000000E+00  0.91188000000E+02  0.91188000000E+02 0.  0.
    9900012    2    3    3    0    0 -0.35337560413E+02 -0.41680680807E+01 -0.94692196193E+01  0.54367053683E+02  0.39999930482E+02 0.  0.
         12    1    3    3    0    0  0.35337560413E+02  0.41680680807E+01  0.94692196193E+01  0.36820946317E+02  0.00000000000E+00 0. -1.
         11    1    4    4    0    0  0.19967768932E+01 -0.45797220368E+01  0.46325481719E+01  0.68133306629E+01  0.51100000000E-03 0. -1.
        -11    1    4    4    0    0 -0.10605386127E+02 -0.93290722318E+01 -0.12822024352E+02  0.19076428186E+02  0.51100000000E-03 0.  1.
         12    1    4    4    0    0 -0.26728951179E+02  0.97407261880E+01 -0.12797434396E+01  0.28477294834E+02  0.00000000000E+00 0. -1.
</event>
<event>
 8    1  0.1269154E-006  0.9118800E+02  0.7816164E-02  0.1184000E+00
        -11   -1    0    0    0    0  0.00000000000E+00  0.00000000000E+00  0.45593999997E+02  0.45594000000E+02  0.51100000000E-03 0.  1.
         11   -1    0    0    0    0 -0.00000000000E+00 -0.00000000000E+00 -0.45593999997E+02  0.45594000000E+02  0.51100000000E-03 0. -1.
         23    2    1    2    0    0  0.00000000000E+00  0.17763568394E-14  0.00000000000E+00  0.91188000000E+02  0.91188000000E+02 0.  0.
    9900012    2    3    3    0    0  0.25920692866E+02  0.11417870903E+02  0.23527209790E+02  0.54367086172E+02  0.40000004546E+02 0.  0.
         12    1    3    3    0    0 -0.25920692866E+02 -0.11417870903E+02 -0.23527209790E+02  0.36820913828E+02  0.00000000000E+00 0. -1.
         11    1    4    4    0    0 -0.42615632868E+01  0.13894315647E+02  0.14079582705E+01  0.14601208022E+02  0.51100000000E-03 0. -1.
        -11    1    4    4    0    0  0.18086854404E+02 -0.78424420578E+01  0.11704984223E+02  0.22926946059E+02  0.51100000000E-03 0.  1.
         12    1    4    4    0    0  0.12095401749E+02  0.53659973140E+01  0.10414267296E+02  0.16838932091E+02  0.00000000000E+00 0. -1.
</event>
<event>
 8    1  0.1269154E-006  0.9118800E+02  0.7816164E-02  0.1184000E+00
        -11   -1    0    0    0    0  0.00000000000E+00  0.00000000000E+00  0.45593999997E+02  0.45594000000E+02  0.51100000000E-03 0.  1.
         11   -1    0    0    0    0 -0.00000000000E+00 -0.00000000000E+00 -0.45593999997E+02  0.45594000000E+02  0.51100000000E-03 0. -1.
         23    2    1    2    0    0  0.00000000000E+00 -0.35527136788E-14  0.00000000000E+00  0.91188000000E+02  0.91188000000E+02 0.  0.
    9900012    2    3    3    0    0  0.77773642274E+01 -0.28806588045E+02  0.21574867356E+02  0.54367057446E+02  0.39999939059E+02 0.  0.
         12    1    3    3    0    0 -0.77773642274E+01  0.28806588045E+02 -0.21574867356E+02  0.36820942554E+02  0.00000000000E+00 0. -1.
         11    1    4    4    0    0 -0.63473616503E+01 -0.23941002782E+02  0.27725275410E+02  0.37177298327E+02  0.51100000000E-03 0. -1.
        -11    1    4    4    0    0  0.42687815762E+01 -0.25426712311E+01  0.62245691302E+00  0.50075069650E+01  0.51100000000E-03 0.  1.
         12    1    4    4    0    0  0.98559443014E+01 -0.23229140325E+01 -0.67728649665E+01  0.12182252153E+02  0.00000000000E+00 0. -1.
</event>
<event>
 8    1  0.1269154E-006  0.9118800E+02  0.7816164E-02  0.1184000E+00
        -11   -1    0    0    0    0  0.00000000000E+00  0.00000000000E+00  0.45593999997E+02  0.45594000000E+02  0.51100000000E-03 0. -1.
         11   -1    0    0    0    0 -0.00000000000E+00 -0.00000000000E+00 -0.45593999997E+02  0.45594000000E+02  0.51100000000E-03 0.  1.
         23    2    1    2    0    0  0.00000000000E+00  0.00000000000E+00 -0.35527136788E-14  0.91188000000E+02  0.91188000000E+02 0.  0.
    9900012    2    3    3    0    0  0.15913344519E+02 -0.26376911620E+02  0.20169349452E+02  0.54367100259E+02  0.40000036662E+02 0.  0.
        -12    1    3    3    0    0 -0.15913344519E+02  0.26376911620E+02 -0.20169349452E+02  0.36820899741E+02  0.00000000000E+00 0.  1.
         11    1    4    4    0    0  0.21759287253E+02 -0.69471313790E+01  0.32675601807E+01  0.23073928273E+02  0.51100000000E-03 0.  1.
        -11    1    4    4    0    0 -0.16709238294E+01 -0.21146373056E+02  0.11096591843E+02  0.23939411661E+02  0.51100000000E-03 0. -1.
        -12    1    4    4    0    0 -0.41750189045E+01  0.17165928153E+01  0.58051974283E+01  0.73537603257E+01  0.00000000000E+00 0.  1.
</event>
<event>
 8    1  0.1269154E-006  0.9118800E+02  0.7816164E-02  0.1184000E+00
        -11   -1    0    0    0    0  0.00000000000E+00  0.00000000000E+00  0.45593999997E+02  0.45594000000E+02  0.51100000000E-03 0. -1.
         11   -1    0    0    0    0 -0.00000000000E+00 -0.00000000000E+00 -0.45593999997E+02  0.45594000000E+02  0.51100000000E-03 0.  1.
         23    2    1    2    0    0  0.00000000000E+00  0.35527136788E-14  0.71054273576E-14  0.91188000000E+02  0.91188000000E+02 0.  0.
    9900012    2    3    3    0    0 -0.12279311484E+02  0.18071411365E+02  0.29638144643E+02  0.54367122537E+02  0.40000087447E+02 0.  0.
        -12    1    3    3    0    0  0.12279311484E+02 -0.18071411365E+02 -0.29638144643E+02  0.36820877463E+02  0.00000000000E+00 0.  1.
         11    1    4    4    0    0 -0.15164482248E+02  0.10938882822E+02  0.24129014742E+02  0.30525891173E+02  0.51100000000E-03 0. -1.
        -11    1    4    4    0    0 -0.83224677680E+01 -0.15562714921E+01 -0.40458535193E+00  0.84763872183E+01  0.51100000000E-03 0.  1.
        -12    1    4    4    0    0  0.11207638532E+02  0.86888000352E+01  0.59137152538E+01  0.15364844146E+02  0.00000000000E+00 0.  1.
</event>
<event>
 8    1  0.1269154E-006  0.9118800E+02  0.7816164E-02  0.1184000E+00
        -11   -1    0    0    0    0  0.00000000000E+00  0.00000000000E+00  0.45593999997E+02  0.45594000000E+02  0.51100000000E-03 0.  1.
         11   -1    0    0    0    0 -0.00000000000E+00 -0.00000000000E+00 -0.45593999997E+02  0.45594000000E+02  0.51100000000E-03 0. -1.
         23    2    1    2    0    0  0.17763568394E-14  0.17763568394E-14  0.00000000000E+00  0.91188000000E+02  0.91188000000E+02 0.  0.
    9900012    2    3    3    0    0  0.66073575991E+01  0.10954274677E+02  0.34527181839E+02  0.54367087547E+02  0.40000007681E+02 0.  0.
         12    1    3    3    0    0 -0.66073575991E+01 -0.10954274677E+02 -0.34527181839E+02  0.36820912453E+02  0.00000000000E+00 0. -1.
         11    1    4    4    0    0 -0.39675478762E+01  0.16477095214E+02  0.26981523169E+02  0.31862810542E+02  0.51100000000E-03 0.  1.
        -11    1    4    4    0    0  0.13423720583E+02 -0.84559764975E+01  0.89074389817E+01  0.18194567384E+02  0.51100000000E-03 0. -1.
         12    1    4    4    0    0 -0.28488151075E+01  0.29331559601E+01 -0.13617803117E+01  0.43097096213E+01  0.00000000000E+00 0. -1.
</event>
<event>
 8    1  0.1269154E-006  0.9118800E+02  0.7816164E-02  0.1184000E+00
        -11   -1    0    0    0    0  0.00000000000E+00  0.00000000000E+00  0.45593999997E+02  0.45594000000E+02  0.51100000000E-03 0.  1.
         11   -1    0    0    0    0 -0.00000000000E+00 -0.00000000000E+00 -0.45593999997E+02  0.45594000000E+02  0.51100000000E-03 0. -1.
         23    2    1    2    0    0 -0.35527136788E-14  0.00000000000E+00  0.35527136788E-14  0.91188000000E+02  0.91188000000E+02 0.  0.
    9900012    2    3    3    0    0  0.21543659459E+02 -0.14058759714E+02  0.26343898653E+02  0.54367095831E+02  0.40000026566E+02 0.  0.
        -12    1    3    3    0    0 -0.21543659459E+02  0.14058759714E+02 -0.26343898653E+02  0.36820904169E+02  0.00000000000E+00 0.  1.
         11    1    4    4    0    0  0.19204387958E+02  0.64923559991E+00  0.18220712297E+02  0.26480641620E+02  0.51100000000E-03 0. -1.
        -11    1    4    4    0    0 -0.79446913590E+01 -0.87894592134E+01  0.10446556578E+02  0.15795672150E+02  0.51100000000E-03 0.  1.
        -12    1    4    4    0    0  0.10283962860E+02 -0.59185361008E+01 -0.23233702227E+01  0.12090782062E+02  0.00000000000E+00 0.  1.
</event>
<event>
 8    1  0.1269154E-006  0.9118800E+02  0.7816164E-02  0.1184000E+00
        -11   -1    0    0    0    0  0.00000000000E+00  0.00000000000E+00  0.45593999997E+02  0.45594000000E+02  0.51100000000E-03 0. -1.
         11   -1    0    0    0    0 -0.00000000000E+00 -0.00000000000E+00 -0.45593999997E+02  0.45594000000E+02  0.51100000000E-03 0.  1.
         23    2    1    2    0    0  0.00000000000E+00  0.35527136788E-14 -0.88817841970E-15  0.91188000000E+02  0.91188000000E+02 0.  0.
    9900012    2    3    3    0    0  0.20316125728E+02 -0.30235455328E+02 -0.53714276497E+01  0.54367082596E+02  0.39999996395E+02 0.  0.
         12    1    3    3    0    0 -0.20316125728E+02  0.30235455328E+02  0.53714276497E+01  0.36820917404E+02  0.00000000000E+00 0. -1.
         11    1    4    4    0    0  0.70404676580E+01 -0.33161156700E+02 -0.13728788411E+02  0.36574719821E+02  0.51100000000E-03 0. -1.
        -11    1    4    4    0    0  0.85180589399E+01 -0.21136689215E+01  0.47505180364E+01  0.99795964993E+01  0.51100000000E-03 0.  1.
         12    1    4    4    0    0  0.47575991302E+01  0.50393702935E+01  0.36068427248E+01  0.78127662758E+01  0.00000000000E+00 0. -1.
</event>
<event>
 8    1  0.1269154E-006  0.9118800E+02  0.7816164E-02  0.1184000E+00
        -11   -1    0    0    0    0  0.00000000000E+00  0.00000000000E+00  0.45593999997E+02  0.45594000000E+02  0.51100000000E-03 0. -1.
         11   -1    0    0    0    0 -0.00000000000E+00 -0.00000000000E+00 -0.45593999997E+02  0.45594000000E+02  0.51100000000E-03 0.  1.
         23    2    1    2    0    0  0.35527136788E-14  0.00000000000E+00  0.17763568394E-14  0.91188000000E+02  0.91188000000E+02 0.  0.
    9900012    2    3    3    0    0 -0.23279769424E+02  0.23655522738E+02 -0.15945199409E+02  0.54367071105E+02  0.39999970199E+02 0.  0.
         12    1    3    3    0    0  0.23279769424E+02 -0.23655522738E+02  0.15945199409E+02  0.36820928895E+02  0.00000000000E+00 0. -1.
         11    1    4    4    0    0 -0.19959585419E+01  0.38011578261E+01  0.96691427783E+00  0.44008606887E+01  0.51100000000E-03 0. -1.
        -11    1    4    4    0    0 -0.14138891656E+02  0.29559515082E+02 -0.18785479813E+02  0.37769927736E+02  0.51100000000E-03 0.  1.
         12    1    4    4    0    0 -0.71449192265E+01 -0.97051501699E+01  0.18733661261E+01  0.12196282680E+02  0.00000000000E+00 0. -1.
</event>
<event>
 8    1  0.1269154E-006  0.9118800E+02  0.7816164E-02  0.1184000E+00
        -11   -1    0    0    0    0  0.00000000000E+00  0.00000000000E+00  0.45593999997E+02  0.45594000000E+02  0.51100000000E-03 0.  1.
         11   -1    0    0    0    0 -0.00000000000E+00 -0.00000000000E+00 -0.45593999997E+02  0.45594000000E+02  0.51100000000E-03 0. -1.
         23    2    1    2    0    0  0.35527136788E-14  0.00000000000E+00  0.00000000000E+00  0.91188000000E+02  0.91188000000E+02 0.  0.
    9900012    2    3    3    0    0  0.27978841212E+02  0.82559612347E+01 -0.22467832182E+02  0.54367082922E+02  0.39999997138E+02 0.  0.
        -12    1    3    3    0    0 -0.27978841212E+02 -0.82559612347E+01  0.22467832182E+02  0.36820917078E+02  0.00000000000E+00 0.  1.
         11    1    4    4    0    0  0.21230023652E+02 -0.66911987478E+01 -0.24835192374E+02  0.33350754496E+02  0.51100000000E-03 0. -1.
        -11    1    4    4    0    0  0.90948342904E+01  0.44571169650E+01  0.91592973952E+00  0.10169603235E+02  0.51100000000E-03 0.  1.
         12    1    4    4    0    0 -0.23460167301E+01  0.10490043017E+02  0.14514304529E+01  0.10846725191E+02  0.00000000000E+00 0. -1.
</event>
<event>
 8    1  0.1269154E-006  0.9118800E+02  0.7816164E-02  0.1184000E+00
        -11   -1    0    0    0    0  0.00000000000E+00  0.00000000000E+00  0.45593999997E+02  0.45594000000E+02  0.51100000000E-03 0. -1.
         11   -1    0    0    0    0 -0.00000000000E+00 -0.00000000000E+00 -0.45593999997E+02  0.45594000000E+02  0.51100000000E-03 0.  1.
         23    2    1    2    0    0  0.00000000000E+00  0.35527136788E-14  0.00000000000E+00  0.91188000000E+02  0.91188000000E+02 0.  0.
    9900012    2    3    3    0    0  0.29078275111E+02 -0.22440112176E+02 -0.25835223200E+01  0.54367091463E+02  0.40000016609E+02 0.  0.
         12    1    3    3    0    0 -0.29078275111E+02  0.22440112176E+02  0.25835223200E+01  0.36820908537E+02  0.00000000000E+00 0. -1.
         11    1    4    4    0    0 -0.29347236900E+01  0.23051619685E+01 -0.36068044600E+01  0.51899338639E+01  0.51100000000E-03 0. -1.
        -11    1    4    4    0    0  0.18600002119E+02  0.25184670164E+01 -0.14237897132E+00  0.18770269763E+02  0.51100000000E-03 0.  1.
        -12    1    4    4    0    0  0.13412996682E+02 -0.27263741161E+02  0.11656611113E+01  0.30406887836E+02  0.00000000000E+00 0.  1.
</event>
<event>
 8    1  0.1269154E-006  0.9118800E+02  0.7816164E-02  0.1184000E+00
        -11   -1    0    0    0    0  0.00000000000E+00  0.00000000000E+00  0.45593999997E+02  0.45594000000E+02  0.51100000000E-03 0.  1.
         11   -1    0    0    0    0 -0.00000000000E+00 -0.00000000000E+00 -0.45593999997E+02  0.45594000000E+02  0.51100000000E-03 0. -1.
         23    2    1    2    0    0  0.00000000000E+00 -0.17763568394E-14 -0.17763568394E-14  0.91188000000E+02  0.91188000000E+02 0.  0.
    9900012    2    3    3    0    0 -0.30656340512E+02  0.15983950555E+02  0.12668122009E+02  0.54367092839E+02  0.40000019745E+02 0.  0.
        -12    1    3    3    0    0  0.30656340512E+02 -0.15983950555E+02 -0.12668122009E+02  0.36820907161E+02  0.00000000000E+00 0.  1.
         11    1    4    4    0    0  0.52348296637E+01  0.44086354998E+00 -0.21107168649E+01  0.56615305547E+01  0.51100000000E-03 0. -1.
        -11    1    4    4    0    0  0.15619117158E+01  0.48195158919E+01 -0.29941537357E+01  0.58849178834E+01  0.51100000000E-03 0.  1.
         12    1    4    4    0    0 -0.37453081892E+02  0.10723571113E+02  0.17772992610E+02  0.42820644401E+02  0.00000000000E+00 0. -1.
</event>
<event>
 8    1  0.1269154E-006  0.9118800E+02  0.7816164E-02  0.1184000E+00
        -11   -1    0    0    0    0  0.00000000000E+00  0.00000000000E+00  0.45593999997E+02  0.45594000000E+02  0.51100000000E-03 0. -1.
         11   -1    0    0    0    0 -0.00000000000E+00 -0.00000000000E+00 -0.45593999997E+02  0.45594000000E+02  0.51100000000E-03 0.  1.
         23    2    1    2    0    0  0.00000000000E+00  0.44408920985E-15 -0.14210854715E-13  0.91188000000E+02  0.91188000000E+02 0.  0.
    9900012    2    3    3    0    0 -0.39161652030E+01  0.34468527595E+01  0.36449441062E+02  0.54367097002E+02  0.40000029236E+02 0.  0.
        -12    1    3    3    0    0  0.39161652030E+01 -0.34468527595E+01 -0.36449441062E+02  0.36820902998E+02  0.00000000000E+00 0.  1.
         11    1    4    4    0    0 -0.14848749667E+02  0.14185283421E+00  0.42477859156E+01  0.15445037208E+02  0.51100000000E-03 0. -1.
        -11    1    4    4    0    0  0.10597928841E+02  0.54323660971E+01  0.73868880606E+01  0.14014022000E+02  0.51100000000E-03 0.  1.
         12    1    4    4    0    0  0.33465562312E+00 -0.21273661718E+01  0.24814767086E+02  0.24908037794E+02  0.00000000000E+00 0. -1.
</event>
<event>
 8    1  0.1269154E-006  0.9118800E+02  0.7816164E-02  0.1184000E+00
        -11   -1    0    0    0    0  0.00000000000E+00  0.00000000000E+00  0.45593999997E+02  0.45594000000E+02  0.51100000000E-03 0. -1.
         11   -1    0    0    0    0 -0.00000000000E+00 -0.00000000000E+00 -0.45593999997E+02  0.45594000000E+02  0.51100000000E-03 0.  1.
         23    2    1    2    0    0  0.00000000000E+00  0.00000000000E+00  0.88817841970E-15  0.91188000000E+02  0.91188000000E+02 0.  0.
    9900012    2    3    3    0    0 -0.35973560769E+02  0.36414704902E+01 -0.69586224600E+01  0.54367084636E+02  0.40000001044E+02 0.  0.
         12    1    3    3    0    0  0.35973560769E+02 -0.36414704902E+01  0.69586224600E+01  0.36820915364E+02  0.00000000000E+00 0. -1.
         11    1    4    4    0    0 -0.14860904592E+02 -0.36589016195E+01  0.14368980738E+02  0.20992895323E+02  0.51100000000E-03 0. -1.
        -11    1    4    4    0    0 -0.72613598164E+01  0.64325740514E+01 -0.15578730277E+02  0.18352171332E+02  0.51100000000E-03 0.  1.
        -12    1    4    4    0    0 -0.13851296361E+02  0.86779805826E+00 -0.57488729212E+01  0.15022017981E+02  0.00000000000E+00 0.  1.
</event>
<event>
 8    1  0.1269154E-006  0.9118800E+02  0.7816164E-02  0.1184000E+00
        -11   -1    0    0    0    0  0.00000000000E+00  0.00000000000E+00  0.45593999997E+02  0.45594000000E+02  0.51100000000E-03 0.  1.
         11   -1    0    0    0    0 -0.00000000000E+00 -0.00000000000E+00 -0.45593999997E+02  0.45594000000E+02  0.51100000000E-03 0. -1.
         23    2    1    2    0    0 -0.17763568394E-14  0.00000000000E+00  0.00000000000E+00  0.91188000000E+02  0.91188000000E+02 0.  0.
    9900012    2    3    3    0    0 -0.13778060516E+02 -0.82438237075E+01  0.33135971307E+02  0.54366971017E+02  0.39999742027E+02 0.  0.
         12    1    3    3    0    0  0.13778060516E+02  0.82438237075E+01 -0.33135971307E+02  0.36821028983E+02  0.00000000000E+00 0. -1.
         11    1    4    4    0    0 -0.22111709660E+01  0.11522067883E+02  0.12098493595E+02  0.16852918824E+02  0.51100000000E-03 0. -1.
        -11    1    4    4    0    0 -0.16393418194E+02 -0.16537606435E+02  0.10632681699E+02  0.25598642680E+02  0.51100000000E-03 0.  1.
         12    1    4    4    0    0  0.48265286444E+01 -0.32282851558E+01  0.10404796013E+02  0.11915409513E+02  0.00000000000E+00 0. -1.
</event>
<event>
 8    1  0.1269154E-006  0.9118800E+02  0.7816164E-02  0.1184000E+00
        -11   -1    0    0    0    0  0.00000000000E+00  0.00000000000E+00  0.45593999997E+02  0.45594000000E+02  0.51100000000E-03 0. -1.
         11   -1    0    0    0    0 -0.00000000000E+00 -0.00000000000E+00 -0.45593999997E+02  0.45594000000E+02  0.51100000000E-03 0.  1.
         23    2    1    2    0    0  0.17763568394E-14 -0.35527136788E-14  0.35527136788E-14  0.91188000000E+02  0.91188000000E+02 0.  0.
    9900012    2    3    3    0    0 -0.14793804059E+02  0.19261283814E+02 -0.27675377713E+02  0.54367078987E+02  0.39999988166E+02 0.  0.
         12    1    3    3    0    0  0.14793804059E+02 -0.19261283814E+02  0.27675377713E+02  0.36820921013E+02  0.00000000000E+00 0. -1.
         11    1    4    4    0    0 -0.10442947906E+02  0.23806411763E+01 -0.87422613936E+01  0.13825691589E+02  0.51100000000E-03 0. -1.
        -11    1    4    4    0    0  0.51124002970E+01 -0.69282126104E+01  0.12273633524E+00  0.86111457565E+01  0.51100000000E-03 0.  1.
        -12    1    4    4    0    0 -0.94632564497E+01  0.23808855248E+02 -0.19055852655E+02  0.31930241641E+02  0.00000000000E+00 0.  1.
</event>
<event>
 8    1  0.1269154E-006  0.9118800E+02  0.7816164E-02  0.1184000E+00
        -11   -1    0    0    0    0  0.00000000000E+00  0.00000000000E+00  0.45593999997E+02  0.45594000000E+02  0.51100000000E-03 0.  1.
         11   -1    0    0    0    0 -0.00000000000E+00 -0.00000000000E+00 -0.45593999997E+02  0.45594000000E+02  0.51100000000E-03 0. -1.
         23    2    1    2    0    0  0.44408920985E-15  0.44408920985E-15  0.00000000000E+00  0.91188000000E+02  0.91188000000E+02 0.  0.
    9900012    2    3    3    0    0  0.36122429888E+01 -0.25325499909E+01  0.36555699410E+02  0.54367064810E+02  0.39999955848E+02 0.  0.
         12    1    3    3    0    0 -0.36122429888E+01  0.25325499909E+01 -0.36555699410E+02  0.36820935190E+02  0.00000000000E+00 0. -1.
         11    1    4    4    0    0 -0.10327535355E+02 -0.61327104428E+01  0.22119153335E+02  0.25169923886E+02  0.51100000000E-03 0. -1.
        -11    1    4    4    0    0  0.10649214197E+02 -0.29178201069E+01 -0.19912361182E+01  0.11219824362E+02  0.51100000000E-03 0.  1.
        -12    1    4    4    0    0  0.32905641477E+01  0.65179805589E+01  0.16427782194E+02  0.17977316562E+02  0.00000000000E+00 0.  1.
</event>
<event>
 8    1  0.1269154E-006  0.9118800E+02  0.7816164E-02  0.1184000E+00
        -11   -1    0    0    0    0  0.00000000000E+00  0.00000000000E+00  0.45593999997E+02  0.45594000000E+02  0.51100000000E-03 0. -1.
         11   -1    0    0    0    0 -0.00000000000E+00 -0.00000000000E+00 -0.45593999997E+02  0.45594000000E+02  0.51100000000E-03 0.  1.
         23    2    1    2    0    0  0.71054273576E-14  0.00000000000E+00 -0.44408920985E-14  0.91188000000E+02  0.91188000000E+02 0.  0.
    9900012    2    3    3    0    0  0.34798755628E+02 -0.10816454285E+02  0.52755188339E+01  0.54367079649E+02  0.39999989675E+02 0.  0.
        -12    1    3    3    0    0 -0.34798755628E+02  0.10816454285E+02 -0.52755188339E+01  0.36820920351E+02  0.00000000000E+00 0.  1.
         11    1    4    4    0    0  0.13422670858E+02 -0.48085743352E+01  0.13855171309E+02  0.19881052597E+02  0.51100000000E-03 0. -1.
        -11    1    4    4    0    0  0.15197579460E+02 -0.78315552191E+01 -0.16848763467E+02  0.24003760315E+02  0.51100000000E-03 0.  1.
        -12    1    4    4    0    0  0.61785053097E+01  0.18236752691E+01  0.82691109923E+01  0.10482266737E+02  0.00000000000E+00 0.  1.
</event>
<event>
 8    1  0.1269154E-006  0.9118800E+02  0.7816164E-02  0.1184000E+00
        -11   -1    0    0    0    0  0.00000000000E+00  0.00000000000E+00  0.45593999997E+02  0.45594000000E+02  0.51100000000E-03 0. -1.
         11   -1    0    0    0    0 -0.00000000000E+00 -0.00000000000E+00 -0.45593999997E+02  0.45594000000E+02  0.51100000000E-03 0.  1.
         23    2    1    2    0    0  0.00000000000E+00  0.00000000000E+00  0.88817841970E-15  0.91188000000E+02  0.91188000000E+02 0.  0.
    9900012    2    3    3    0    0  0.88109957747E+01  0.35612361579E+02 -0.31472697197E+01  0.54367092210E+02  0.40000018311E+02 0.  0.
         12    1    3    3    0    0 -0.88109957747E+01 -0.35612361579E+02  0.31472697197E+01  0.36820907790E+02  0.00000000000E+00 0. -1.
         11    1    4    4    0    0  0.11131206891E+01  0.14888833605E+02  0.22805742902E+01  0.15103556638E+02  0.51100000000E-03 0. -1.
        -11    1    4    4    0    0  0.11725784813E+02  0.26533827987E+02 -0.10181468967E+02  0.30744111106E+02  0.51100000000E-03 0.  1.
         12    1    4    4    0    0 -0.40279097273E+01 -0.58103000118E+01  0.47536249568E+01  0.85194244658E+01  0.00000000000E+00 0. -1.
</event>
<event>
 8    1  0.1269154E-006  0.9118800E+02  0.7816164E-02  0.1184000E+00
        -11   -1    0    0    0    0  0.00000000000E+00  0.00000000000E+00  0.45593999997E+02  0.45594000000E+02  0.51100000000E-03 0.  1.
         11   -1    0    0    0    0 -0.00000000000E+00 -0.00000000000E+00 -0.45593999997E+02  0.45594000000E+02  0.51100000000E-03 0. -1.
         23    2    1    2    0    0  0.00000000000E+00  0.00000000000E+00 -0.17763568394E-14  0.91188000000E+02  0.91188000000E+02 0.  0.
    9900012    2    3    3    0    0  0.81042984959E+01  0.34270626135E+02  0.10752867510E+02  0.54367087063E+02  0.40000006578E+02 0.  0.
         12    1    3    3    0    0 -0.81042984959E+01 -0.34270626135E+02 -0.10752867510E+02  0.36820912937E+02  0.00000000000E+00 0. -1.
         11    1    4    4    0    0 -0.37808485800E+01 -0.31220505674E+01 -0.10320773402E+01  0.50107084956E+01  0.51100000000E-03 0. -1.
        -11    1    4    4    0    0  0.31729730389E+01  0.49945576273E+01 -0.83461593013E+01  0.10230920738E+02  0.51100000000E-03 0.  1.
        -12    1    4    4    0    0  0.87121740370E+01  0.32398119075E+02  0.20131104151E+02  0.39125457830E+02  0.00000000000E+00 0.  1.
</event>
<event>
 8    1  0.1269154E-006  0.9118800E+02  0.7816164E-02  0.1184000E+00
        -11   -1    0    0    0    0  0.00000000000E+00  0.00000000000E+00  0.45593999997E+02  0.45594000000E+02  0.51100000000E-03 0. -1.
         11   -1    0    0    0    0 -0.00000000000E+00 -0.00000000000E+00 -0.45593999997E+02  0.45594000000E+02  0.51100000000E-03 0.  1.
         23    2    1    2    0    0  0.00000000000E+00  0.17763568394E-14  0.00000000000E+00  0.91188000000E+02  0.91188000000E+02 0.  0.
    9900012    2    3    3    0    0  0.34272566869E+02  0.96903324059E+01  0.93417335795E+01  0.54367090612E+02  0.40000014668E+02 0.  0.
        -12    1    3    3    0    0 -0.34272566869E+02 -0.96903324059E+01 -0.93417335795E+01  0.36820909388E+02  0.00000000000E+00 0.  1.
         11    1    4    4    0    0  0.31209116172E+02  0.90907099377E+01  0.96831995087E+01  0.33917757774E+02  0.51100000000E-03 0. -1.
        -11    1    4    4    0    0  0.61975997776E+01  0.92374682904E+01 -0.13490002809E+01  0.11205394479E+02  0.51100000000E-03 0.  1.
         12    1    4    4    0    0 -0.31341490811E+01 -0.86378458222E+01  0.10075343517E+01  0.92439383588E+01  0.00000000000E+00 0. -1.
</event>
<event>
 8    1  0.1269154E-006  0.9118800E+02  0.7816164E-02  0.1184000E+00
        -11   -1    0    0    0    0  0.00000000000E+00  0.00000000000E+00  0.45593999997E+02  0.45594000000E+02  0.51100000000E-03 0.  1.
         11   -1    0    0    0    0 -0.00000000000E+00 -0.00000000000E+00 -0.45593999997E+02  0.45594000000E+02  0.51100000000E-03 0. -1.
         23    2    1    2    0    0  0.35527136788E-14  0.71054273576E-14  0.35527136788E-14  0.91188000000E+02  0.91188000000E+02 0.  0.
    9900012    2    3    3    0    0  0.25043292080E+02  0.25026495780E+02  0.10114170196E+02  0.54366967858E+02  0.39999734825E+02 0.  0.
         12    1    3    3    0    0 -0.25043292080E+02 -0.25026495780E+02 -0.10114170196E+02  0.36821032142E+02  0.00000000000E+00 0. -1.
         11    1    4    4    0    0 -0.78406971519E+01  0.55730107536E+01 -0.65509573644E+01  0.11638299847E+02  0.51100000000E-03 0. -1.
        -11    1    4    4    0    0  0.20709638661E+02  0.17084474576E+02  0.10004426118E+02  0.28650601167E+02  0.51100000000E-03 0.  1.
         12    1    4    4    0    0  0.12174350571E+02  0.23690104505E+01  0.66607014432E+01  0.14078066844E+02  0.00000000000E+00 0. -1.
</event>
<event>
 8    1  0.1269154E-006  0.9118800E+02  0.7816164E-02  0.1184000E+00
        -11   -1    0    0    0    0  0.00000000000E+00  0.00000000000E+00  0.45593999997E+02  0.45594000000E+02  0.51100000000E-03 0.  1.
         11   -1    0    0    0    0 -0.00000000000E+00 -0.00000000000E+00 -0.45593999997E+02  0.45594000000E+02  0.51100000000E-03 0. -1.
         23    2    1    2    0    0  0.00000000000E+00 -0.17763568394E-14  0.35527136788E-14  0.91188000000E+02  0.91188000000E+02 0.  0.
    9900012    2    3    3    0    0 -0.19980791323E+02  0.55539292455E+01 -0.30425388197E+02  0.54367049457E+02  0.39999920847E+02 0.  0.
        -12    1    3    3    0    0  0.19980791323E+02 -0.55539292455E+01  0.30425388197E+02  0.36820950543E+02  0.00000000000E+00 0.  1.
         11    1    4    4    0    0 -0.61356853983E+01 -0.12739681159E+02 -0.13955698909E+02  0.19867250530E+02  0.51100000000E-03 0. -1.
        -11    1    4    4    0    0  0.47412883274E-01 -0.37191630459E+01 -0.42588012182E-01  0.37197090939E+01  0.51100000000E-03 0.  1.
        -12    1    4    4    0    0 -0.13892518808E+02  0.22012773450E+02 -0.16427101276E+02  0.30780089833E+02  0.00000000000E+00 0.  1.
</event>
<event>
 8    1  0.1269154E-006  0.9118800E+02  0.7816164E-02  0.1184000E+00
        -11   -1    0    0    0    0  0.00000000000E+00  0.00000000000E+00  0.45593999997E+02  0.45594000000E+02  0.51100000000E-03 0.  1.
         11   -1    0    0    0    0 -0.00000000000E+00 -0.00000000000E+00 -0.45593999997E+02  0.45594000000E+02  0.51100000000E-03 0. -1.
         23    2    1    2    0    0 -0.35527136788E-14  0.00000000000E+00  0.00000000000E+00  0.91188000000E+02  0.91188000000E+02 0.  0.
    9900012    2    3    3    0    0 -0.17489355258E+02 -0.16320461616E+02  0.27991990461E+02  0.54366993160E+02  0.39999792507E+02 0.  0.
         12    1    3    3    0    0  0.17489355258E+02  0.16320461616E+02 -0.27991990461E+02  0.36821006840E+02  0.00000000000E+00 0. -1.
         11    1    4    4    0    0  0.84513847051E+01  0.42038868304E+00  0.13681032204E+02  0.16086431317E+02  0.51100000000E-03 0. -1.
        -11    1    4    4    0    0 -0.10246956868E+02 -0.15685502814E+01  0.12698368197E+02  0.16392346695E+02  0.51100000000E-03 0.  1.
        -12    1    4    4    0    0 -0.15693783096E+02 -0.15172300018E+02  0.16125900594E+01  0.21888215149E+02  0.00000000000E+00 0.  1.
</event>
<event>
 8    1  0.1269154E-006  0.9118800E+02  0.7816164E-02  0.1184000E+00
        -11   -1    0    0    0    0  0.00000000000E+00  0.00000000000E+00  0.45593999997E+02  0.45594000000E+02  0.51100000000E-03 0.  1.
         11   -1    0    0    0    0 -0.00000000000E+00 -0.00000000000E+00 -0.45593999997E+02  0.45594000000E+02  0.51100000000E-03 0. -1.
         23    2    1    2    0    0 -0.35527136788E-14  0.35527136788E-14  0.35527136788E-14  0.91188000000E+02  0.91188000000E+02 0.  0.
    9900012    2    3    3    0    0  0.16683026008E+02 -0.24760713845E+02 -0.21549181079E+02  0.54367034341E+02  0.39999886387E+02 0.  0.
        -12    1    3    3    0    0 -0.16683026008E+02  0.24760713845E+02  0.21549181079E+02  0.36820965659E+02  0.00000000000E+00 0.  1.
         11    1    4    4    0    0  0.11605947200E+02 -0.27324961843E+02 -0.10239682175E+02  0.31403863480E+02  0.51100000000E-03 0. -1.
        -11    1    4    4    0    0  0.30440293647E+01 -0.41469053366E+01  0.37400512883E+01  0.63601039727E+01  0.51100000000E-03 0.  1.
        -12    1    4    4    0    0  0.20330494426E+01  0.67111533347E+01 -0.15049550192E+02  0.16603066889E+02  0.00000000000E+00 0.  1.
</event>
<event>
 8    1  0.1269154E-006  0.9118800E+02  0.7816164E-02  0.1184000E+00
        -11   -1    0    0    0    0  0.00000000000E+00  0.00000000000E+00  0.45593999997E+02  0.45594000000E+02  0.51100000000E-03 0. -1.
         11   -1    0    0    0    0 -0.00000000000E+00 -0.00000000000E+00 -0.45593999997E+02  0.45594000000E+02  0.51100000000E-03 0.  1.
         23    2    1    2    0    0  0.00000000000E+00  0.00000000000E+00 -0.35527136788E-14  0.91188000000E+02  0.91188000000E+02 0.  0.
    9900012    2    3    3    0    0 -0.19684536473E+02 -0.24565665721E+02 -0.19100847763E+02  0.54366874356E+02  0.39999521666E+02 0.  0.
         12    1    3    3    0    0  0.19684536473E+02  0.24565665721E+02  0.19100847763E+02  0.36821125644E+02  0.00000000000E+00 0. -1.
         11    1    4    4    0    0 -0.12315700607E+02 -0.17332893976E+02 -0.93156458010E+01  0.23213938743E+02  0.51100000000E-03 0. -1.
        -11    1    4    4    0    0 -0.19139861632E+01 -0.97816479937E+01 -0.18232754800E+02  0.20779252353E+02  0.51100000000E-03 0.  1.
         12    1    4    4    0    0 -0.54548497025E+01  0.25488762489E+01  0.84475528380E+01  0.10373683259E+02  0.00000000000E+00 0. -1.
</event>
<event>
 8    1  0.1269154E-006  0.9118800E+02  0.7816164E-02  0.1184000E+00
        -11   -1    0    0    0    0  0.00000000000E+00  0.00000000000E+00  0.45593999997E+02  0.45594000000E+02  0.51100000000E-03 0.  1.
         11   -1    0    0    0    0 -0.00000000000E+00 -0.00000000000E+00 -0.45593999997E+02  0.45594000000E+02  0.51100000000E-03 0. -1.
         23    2    1    2    0    0  0.17763568394E-14 -0.35527136788E-14 -0.35527136788E-14  0.91188000000E+02  0.91188000000E+02 0.  0.
    9900012    2    3    3    0    0 -0.14965115343E+02  0.19118072881E+02 -0.27682584766E+02  0.54367069984E+02  0.39999967643E+02 0.  0.
        -12    1    3    3    0    0  0.14965115343E+02 -0.19118072881E+02  0.27682584766E+02  0.36820930016E+02  0.00000000000E+00 0.  1.
         11    1    4    4    0    0 -0.80825995501E+01 -0.74696702482E+01 -0.97819752782E+01  0.14724517979E+02  0.51100000000E-03 0. -1.
        -11    1    4    4    0    0  0.50206698859E+01  0.16132199274E+00  0.88911441132E+00  0.51013405675E+01  0.51100000000E-03 0.  1.
         12    1    4    4    0    0 -0.11903185679E+02  0.26426421136E+02 -0.18789723899E+02  0.34541211438E+02  0.00000000000E+00 0. -1.
</event>
<event>
 8    1  0.1269154E-006  0.9118800E+02  0.7816164E-02  0.1184000E+00
        -11   -1    0    0    0    0  0.00000000000E+00  0.00000000000E+00  0.45593999997E+02  0.45594000000E+02  0.51100000000E-03 0.  1.
         11   -1    0    0    0    0 -0.00000000000E+00 -0.00000000000E+00 -0.45593999997E+02  0.45594000000E+02  0.51100000000E-03 0. -1.
         23    2    1    2    0    0  0.00000000000E+00  0.00000000000E+00  0.00000000000E+00  0.91188000000E+02  0.91188000000E+02 0.  0.
    9900012    2    3    3    0    0 -0.25797414989E+02 -0.17151486350E+02 -0.19902250143E+02  0.54367086583E+02  0.40000005483E+02 0.  0.
         12    1    3    3    0    0  0.25797414989E+02  0.17151486350E+02  0.19902250143E+02  0.36820913417E+02  0.00000000000E+00 0. -1.
         11    1    4    4    0    0 -0.16429428125E+02 -0.11878989326E+02 -0.24929178212E+02  0.32132544601E+02  0.51100000000E-03 0. -1.
        -11    1    4    4    0    0 -0.14831788600E+02 -0.13440765950E+01  0.40592239445E+01  0.15435860659E+02  0.51100000000E-03 0.  1.
         12    1    4    4    0    0  0.54638017358E+01 -0.39284204285E+01  0.96770412499E+00  0.67986813239E+01  0.00000000000E+00 0. -1.
</event>
<event>
 8    1  0.1269154E-006  0.9118800E+02  0.7816164E-02  0.1184000E+00
        -11   -1    0    0    0    0  0.00000000000E+00  0.00000000000E+00  0.45593999997E+02  0.45594000000E+02  0.51100000000E-03 0. -1.
         11   -1    0    0    0    0 -0.00000000000E+00 -0.00000000000E+00 -0.45593999997E+02  0.45594000000E+02  0.51100000000E-03 0.  1.
         23    2    1    2    0    0  0.35527136788E-14  0.00000000000E+00  0.00000000000E+00  0.91188000000E+02  0.91188000000E+02 0.  0.
    9900012    2    3    3    0    0  0.25842583517E+02 -0.25639750142E+02  0.55266908703E+01  0.54367079016E+02  0.39999988233E+02 0.  0.
         12    1    3    3    0    0 -0.25842583517E+02  0.25639750142E+02 -0.55266908703E+01  0.36820920984E+02  0.00000000000E+00 0. -1.
         11    1    4    4    0    0 -0.21174957580E+01 -0.22426975046E+02 -0.21390718017E+01  0.22628049550E+02  0.51100000000E-03 0. -1.
        -11    1    4    4    0    0  0.51412120993E+01  0.35194878870E+01 -0.12084591900E+01  0.63465920549E+01  0.51100000000E-03 0.  1.
        -12    1    4    4    0    0  0.22818867175E+02 -0.67322629831E+01  0.88742218620E+01  0.25392437411E+02  0.00000000000E+00 0.  1.
</event>
<event>
 8    1  0.1269154E-006  0.9118800E+02  0.7816164E-02  0.1184000E+00
        -11   -1    0    0    0    0  0.00000000000E+00  0.00000000000E+00  0.45593999997E+02  0.45594000000E+02  0.51100000000E-03 0.  1.
         11   -1    0    0    0    0 -0.00000000000E+00 -0.00000000000E+00 -0.45593999997E+02  0.45594000000E+02  0.51100000000E-03 0. -1.
         23    2    1    2    0    0  0.35527136788E-14  0.17763568394E-14  0.35527136788E-14  0.91188000000E+02  0.91188000000E+02 0.  0.
    9900012    2    3    3    0    0  0.25459602686E+02 -0.15014933875E+02  0.21957720536E+02  0.54367067104E+02  0.39999961077E+02 0.  0.
         12    1    3    3    0    0 -0.25459602686E+02  0.15014933875E+02 -0.21957720536E+02  0.36820932896E+02  0.00000000000E+00 0. -1.
         11    1    4    4    0    0  0.12864824078E+02 -0.41270325739E+01  0.29244890221E+01  0.13823484825E+02  0.51100000000E-03 0. -1.
        -11    1    4    4    0    0  0.12783160183E+02  0.74260068879E+01  0.96313436475E+00  0.14814938091E+02  0.51100000000E-03 0.  1.
        -12    1    4    4    0    0 -0.18838157449E+00 -0.18313908189E+02  0.18070097149E+02  0.25728644188E+02  0.00000000000E+00 0.  1.
</event>
<event>
 8    1  0.1269154E-006  0.9118800E+02  0.7816164E-02  0.1184000E+00
        -11   -1    0    0    0    0  0.00000000000E+00  0.00000000000E+00  0.45593999997E+02  0.45594000000E+02  0.51100000000E-03 0. -1.
         11   -1    0    0    0    0 -0.00000000000E+00 -0.00000000000E+00 -0.45593999997E+02  0.45594000000E+02  0.51100000000E-03 0.  1.
         23    2    1    2    0    0  0.00000000000E+00  0.88817841970E-15  0.00000000000E+00  0.91188000000E+02  0.91188000000E+02 0.  0.
    9900012    2    3    3    0    0 -0.22575897352E+02 -0.53853176112E+01 -0.28585072882E+02  0.54367093184E+02  0.40000020532E+02 0.  0.
         12    1    3    3    0    0  0.22575897352E+02  0.53853176112E+01  0.28585072882E+02  0.36820906816E+02  0.00000000000E+00 0. -1.
         11    1    4    4    0    0 -0.77703557241E+01  0.43433350823E+01  0.26320186622E+01  0.92828072379E+01  0.51100000000E-03 0. -1.
        -11    1    4    4    0    0 -0.12005953228E+02  0.26915808372E+01 -0.10597518578E+01  0.12349517990E+02  0.51100000000E-03 0.  1.
        -12    1    4    4    0    0 -0.27995883998E+01 -0.12420233531E+02 -0.30157339687E+02  0.32734767956E+02  0.00000000000E+00 0.  1.
</event>
<event>
 8    1  0.1269154E-006  0.9118800E+02  0.7816164E-02  0.1184000E+00
        -11   -1    0    0    0    0  0.00000000000E+00  0.00000000000E+00  0.45593999997E+02  0.45594000000E+02  0.51100000000E-03 0.  1.
         11   -1    0    0    0    0 -0.00000000000E+00 -0.00000000000E+00 -0.45593999997E+02  0.45594000000E+02  0.51100000000E-03 0. -1.
         23    2    1    2    0    0  0.00000000000E+00  0.00000000000E+00  0.00000000000E+00  0.91188000000E+02  0.91188000000E+02 0.  0.
    9900012    2    3    3    0    0  0.21019942469E+02 -0.48807357567E+01  0.29834890128E+02  0.54367078883E+02  0.39999987930E+02 0.  0.
         12    1    3    3    0    0 -0.21019942469E+02  0.48807357567E+01 -0.29834890128E+02  0.36820921117E+02  0.00000000000E+00 0. -1.
         11    1    4    4    0    0 -0.71804519648E+01  0.72253964923E+01  0.92320690960E+00  0.10228272393E+02  0.51100000000E-03 0. -1.
        -11    1    4    4    0    0  0.26459479173E+02 -0.10757341038E+02  0.19774135995E+02  0.34739615411E+02  0.51100000000E-03 0.  1.
         12    1    4    4    0    0  0.17409152607E+01 -0.13487912114E+01  0.91375472233E+01  0.93991910787E+01  0.00000000000E+00 0. -1.
</event>
<event>
 8    1  0.1269154E-006  0.9118800E+02  0.7816164E-02  0.1184000E+00
        -11   -1    0    0    0    0  0.00000000000E+00  0.00000000000E+00  0.45593999997E+02  0.45594000000E+02  0.51100000000E-03 0. -1.
         11   -1    0    0    0    0 -0.00000000000E+00 -0.00000000000E+00 -0.45593999997E+02  0.45594000000E+02  0.51100000000E-03 0.  1.
         23    2    1    2    0    0  0.17763568394E-14 -0.17763568394E-14  0.00000000000E+00  0.91188000000E+02  0.91188000000E+02 0.  0.
    9900012    2    3    3    0    0  0.96813728569E+01 -0.15327161951E+02 -0.32048832830E+02  0.54367101592E+02  0.40000039699E+02 0.  0.
         12    1    3    3    0    0 -0.96813728569E+01  0.15327161951E+02  0.32048832830E+02  0.36820898408E+02  0.00000000000E+00 0. -1.
         11    1    4    4    0    0  0.99081228275E+01  0.11435083864E+01  0.32621195257E+00  0.99792246139E+01  0.51100000000E-03 0. -1.
        -11    1    4    4    0    0 -0.11195111764E+02 -0.90853260162E+00 -0.10336598040E+02  0.15264377426E+02  0.51100000000E-03 0.  1.
        -12    1    4    4    0    0  0.10968361794E+02 -0.15562137735E+02 -0.22038446743E+02  0.29123499552E+02  0.00000000000E+00 0.  1.
</event>
<event>
 8    1  0.1269154E-006  0.9118800E+02  0.7816164E-02  0.1184000E+00
        -11   -1    0    0    0    0  0.00000000000E+00  0.00000000000E+00  0.45593999997E+02  0.45594000000E+02  0.51100000000E-03 0. -1.
         11   -1    0    0    0    0 -0.00000000000E+00 -0.00000000000E+00 -0.45593999997E+02  0.45594000000E+02  0.51100000000E-03 0.  1.
         23    2    1    2    0    0 -0.17763568394E-14  0.00000000000E+00  0.00000000000E+00  0.91188000000E+02  0.91188000000E+02 0.  0.
    9900012    2    3    3    0    0  0.44946662178E+01 -0.32874552688E+02  0.15963749108E+02  0.54367088490E+02  0.40000009831E+02 0.  0.
         12    1    3    3    0    0 -0.44946662178E+01  0.32874552688E+02 -0.15963749108E+02  0.36820911510E+02  0.00000000000E+00 0. -1.
         11    1    4    4    0    0 -0.55014164084E+01 -0.13938590255E+02  0.25562643089E+02  0.29631041203E+02  0.51100000000E-03 0. -1.
        -11    1    4    4    0    0  0.57138083622E+01 -0.17213262194E+02 -0.82660282311E+01  0.19931663862E+02  0.51100000000E-03 0.  1.
         12    1    4    4    0    0  0.42822742640E+01 -0.17227002390E+01 -0.13328657498E+01  0.48043834248E+01  0.00000000000E+00 0. -1.
</event>
<event>
 8    1  0.1269154E-006  0.9118800E+02  0.7816164E-02  0.1184000E+00
        -11   -1    0    0    0    0  0.00000000000E+00  0.00000000000E+00  0.45593999997E+02  0.45594000000E+02  0.51100000000E-03 0.  1.
         11   -1    0    0    0    0 -0.00000000000E+00 -0.00000000000E+00 -0.45593999997E+02  0.45594000000E+02  0.51100000000E-03 0. -1.
         23    2    1    2    0    0  0.00000000000E+00  0.00000000000E+00  0.17763568394E-14  0.91188000000E+02  0.91188000000E+02 0.  0.
    9900012    2    3    3    0    0 -0.31303687541E+02 -0.14732448309E+02  0.12602527607E+02  0.54366951821E+02  0.39999698266E+02 0.  0.
         12    1    3    3    0    0  0.31303687541E+02  0.14732448309E+02 -0.12602527607E+02  0.36821048179E+02  0.00000000000E+00 0. -1.
         11    1    4    4    0    0 -0.16941424469E+02 -0.18959478283E+02 -0.17809508623E+01  0.25488143637E+02  0.51100000000E-03 0.  1.
        -11    1    4    4    0    0 -0.18076550764E+02  0.33202163732E+01  0.54632933139E+01  0.19173760674E+02  0.51100000000E-03 0. -1.
         12    1    4    4    0    0  0.37142876921E+01  0.90681360018E+00  0.89201851558E+01  0.97050475104E+01  0.00000000000E+00 0. -1.
</event>
<event>
 8    1  0.1269154E-006  0.9118800E+02  0.7816164E-02  0.1184000E+00
        -11   -1    0    0    0    0  0.00000000000E+00  0.00000000000E+00  0.45593999997E+02  0.45594000000E+02  0.51100000000E-03 0.  1.
         11   -1    0    0    0    0 -0.00000000000E+00 -0.00000000000E+00 -0.45593999997E+02  0.45594000000E+02  0.51100000000E-03 0. -1.
         23    2    1    2    0    0  0.17763568394E-14  0.00000000000E+00  0.35527136788E-14  0.91188000000E+02  0.91188000000E+02 0.  0.
    9900012    2    3    3    0    0 -0.15354423674E+02  0.26699593105E+02  0.20178053200E+02  0.54367076203E+02  0.39999981821E+02 0.  0.
         12    1    3    3    0    0  0.15354423674E+02 -0.26699593105E+02 -0.20178053200E+02  0.36820923797E+02  0.00000000000E+00 0. -1.
         11    1    4    4    0    0  0.12797973157E+02  0.50355620176E+01  0.94441919542E+01  0.16683457786E+02  0.51100000000E-03 0. -1.
        -11    1    4    4    0    0 -0.87973186261E+01  0.10085037875E+02  0.21667283397E+01  0.13557120488E+02  0.51100000000E-03 0.  1.
         12    1    4    4    0    0 -0.19355078205E+02  0.11578993212E+02  0.85671329059E+01  0.24126497930E+02  0.00000000000E+00 0. -1.
</event>
<event>
 8    1  0.1269154E-006  0.9118800E+02  0.7816164E-02  0.1184000E+00
        -11   -1    0    0    0    0  0.00000000000E+00  0.00000000000E+00  0.45593999997E+02  0.45594000000E+02  0.51100000000E-03 0. -1.
         11   -1    0    0    0    0 -0.00000000000E+00 -0.00000000000E+00 -0.45593999997E+02  0.45594000000E+02  0.51100000000E-03 0.  1.
         23    2    1    2    0    0  0.00000000000E+00  0.00000000000E+00  0.00000000000E+00  0.91188000000E+02  0.91188000000E+02 0.  0.
    9900012    2    3    3    0    0  0.97543409374E+01  0.61512228372E+01  0.34968494902E+02  0.54367077344E+02  0.39999984421E+02 0.  0.
        -12    1    3    3    0    0 -0.97543409374E+01 -0.61512228372E+01 -0.34968494902E+02  0.36820922656E+02  0.00000000000E+00 0.  1.
         11    1    4    4    0    0  0.48089411409E+01  0.20542850678E+01  0.39871418589E+02  0.40212883789E+02  0.51100000000E-03 0. -1.
        -11    1    4    4    0    0 -0.24341390893E+01  0.14813847670E+01 -0.56108071458E+01  0.62929079941E+01  0.51100000000E-03 0.  1.
         12    1    4    4    0    0  0.73795388859E+01  0.26155530023E+01  0.70788345875E+00  0.78612855607E+01  0.00000000000E+00 0. -1.
</event>
<event>
 8    1  0.1269154E-006  0.9118800E+02  0.7816164E-02  0.1184000E+00
        -11   -1    0    0    0    0  0.00000000000E+00  0.00000000000E+00  0.45593999997E+02  0.45594000000E+02  0.51100000000E-03 0.  1.
         11   -1    0    0    0    0 -0.00000000000E+00 -0.00000000000E+00 -0.45593999997E+02  0.45594000000E+02  0.51100000000E-03 0. -1.
         23    2    1    2    0    0  0.35527136788E-14 -0.35527136788E-14  0.44408920985E-15  0.91188000000E+02  0.91188000000E+02 0.  0.
    9900012    2    3    3    0    0 -0.23265515634E+02  0.28468606838E+02 -0.20073820629E+01  0.54367144826E+02  0.40000138259E+02 0.  0.
         12    1    3    3    0    0  0.23265515634E+02 -0.28468606838E+02  0.20073820629E+01  0.36820855174E+02  0.00000000000E+00 0. -1.
         11    1    4    4    0    0  0.55715327594E+00  0.12740618946E+02 -0.42886657057E+01  0.13454606821E+02  0.51100000000E-03 0. -1.
        -11    1    4    4    0    0 -0.27948057015E+02  0.97571832668E+01 -0.56773178752E+01  0.30141805764E+02  0.51100000000E-03 0.  1.
         12    1    4    4    0    0  0.41253881047E+01  0.59708046254E+01  0.79586015181E+01  0.10770732241E+02  0.00000000000E+00 0. -1.
</event>
<event>
 8    1  0.1269154E-006  0.9118800E+02  0.7816164E-02  0.1184000E+00
        -11   -1    0    0    0    0  0.00000000000E+00  0.00000000000E+00  0.45593999997E+02  0.45594000000E+02  0.51100000000E-03 0. -1.
         11   -1    0    0    0    0 -0.00000000000E+00 -0.00000000000E+00 -0.45593999997E+02  0.45594000000E+02  0.51100000000E-03 0.  1.
         23    2    1    2    0    0  0.88817841970E-15 -0.17763568394E-14  0.00000000000E+00  0.91188000000E+02  0.91188000000E+02 0.  0.
    9900012    2    3    3    0    0  0.76783792635E+01  0.11948905147E+02  0.33971249220E+02  0.54367087248E+02  0.40000006999E+02 0.  0.
        -12    1    3    3    0    0 -0.76783792635E+01 -0.11948905147E+02 -0.33971249220E+02  0.36820912752E+02  0.00000000000E+00 0.  1.
         11    1    4    4    0    0  0.55500915558E-01 -0.59432617777E+00  0.31017075125E+02  0.31022818272E+02  0.51100000000E-03 0. -1.
        -11    1    4    4    0    0  0.55058987419E+01 -0.28356297587E+01  0.46266346225E+01  0.77305540083E+01  0.51100000000E-03 0.  1.
        -12    1    4    4    0    0  0.21169796061E+01  0.15378861083E+02 -0.16724605275E+01  0.15613714968E+02  0.00000000000E+00 0.  1.
</event>
<event>
 8    1  0.1269154E-006  0.9118800E+02  0.7816164E-02  0.1184000E+00
        -11   -1    0    0    0    0  0.00000000000E+00  0.00000000000E+00  0.45593999997E+02  0.45594000000E+02  0.51100000000E-03 0.  1.
         11   -1    0    0    0    0 -0.00000000000E+00 -0.00000000000E+00 -0.45593999997E+02  0.45594000000E+02  0.51100000000E-03 0. -1.
         23    2    1    2    0    0  0.00000000000E+00  0.00000000000E+00  0.00000000000E+00  0.91188000000E+02  0.91188000000E+02 0.  0.
    9900012    2    3    3    0    0  0.27804864548E+02  0.48212496159E+01 -0.23652146189E+02  0.54367096158E+02  0.40000027312E+02 0.  0.
        -12    1    3    3    0    0 -0.27804864548E+02 -0.48212496159E+01  0.23652146189E+02  0.36820903842E+02  0.00000000000E+00 0.  1.
         11    1    4    4    0    0  0.32701753798E+01 -0.52189756117E+01 -0.95581661457E+01  0.11370588981E+02  0.51100000000E-03 0. -1.
        -11    1    4    4    0    0  0.98509964314E+01 -0.34579265757E+01  0.80581140085E+01  0.13188350486E+02  0.51100000000E-03 0.  1.
        -12    1    4    4    0    0  0.14683692736E+02  0.13498151803E+02 -0.22152094052E+02  0.29808156692E+02  0.00000000000E+00 0.  1.
</event>
<event>
 8    1  0.1269154E-006  0.9118800E+02  0.7816164E-02  0.1184000E+00
        -11   -1    0    0    0    0  0.00000000000E+00  0.00000000000E+00  0.45593999997E+02  0.45594000000E+02  0.51100000000E-03 0. -1.
         11   -1    0    0    0    0 -0.00000000000E+00 -0.00000000000E+00 -0.45593999997E+02  0.45594000000E+02  0.51100000000E-03 0.  1.
         23    2    1    2    0    0 -0.88817841970E-15  0.00000000000E+00 -0.88817841970E-15  0.91188000000E+02  0.91188000000E+02 0.  0.
    9900012    2    3    3    0    0 -0.64716799839E+01 -0.35891468289E+02 -0.50695739573E+01  0.54367072284E+02  0.39999972886E+02 0.  0.
         12    1    3    3    0    0  0.64716799839E+01  0.35891468289E+02  0.50695739573E+01  0.36820927716E+02  0.00000000000E+00 0. -1.
         11    1    4    4    0    0  0.12538458022E+01 -0.26903243273E+02 -0.15150843310E+02  0.30901532020E+02  0.51100000000E-03 0.  1.
        -11    1    4    4    0    0  0.38303351587E+01  0.17155442947E+01 -0.86353957682E+00  0.42848874567E+01  0.51100000000E-03 0. -1.
        -12    1    4    4    0    0 -0.11555860945E+02 -0.10703769311E+02  0.10944808929E+02  0.19180652808E+02  0.00000000000E+00 0.  1.
</event>
<event>
 8    1  0.1269154E-006  0.9118800E+02  0.7816164E-02  0.1184000E+00
        -11   -1    0    0    0    0  0.00000000000E+00  0.00000000000E+00  0.45593999997E+02  0.45594000000E+02  0.51100000000E-03 0. -1.
         11   -1    0    0    0    0 -0.00000000000E+00 -0.00000000000E+00 -0.45593999997E+02  0.45594000000E+02  0.51100000000E-03 0.  1.
         23    2    1    2    0    0  0.00000000000E+00  0.35527136788E-14 -0.88817841970E-15  0.91188000000E+02  0.91188000000E+02 0.  0.
    9900012    2    3    3    0    0  0.32588994214E+02  0.16574230706E+02  0.43626062256E+01  0.54367082026E+02  0.39999995095E+02 0.  0.
        -12    1    3    3    0    0 -0.32588994214E+02 -0.16574230706E+02 -0.43626062256E+01  0.36820917974E+02  0.00000000000E+00 0.  1.
         11    1    4    4    0    0  0.36630296598E+01  0.14749847820E+02  0.11404853325E+02  0.19001223030E+02  0.51100000000E-03 0. -1.
        -11    1    4    4    0    0 -0.14045737581E+01  0.34452744357E+01  0.11721849812E+01  0.39008667333E+01  0.51100000000E-03 0.  1.
         12    1    4    4    0    0  0.30330538312E+02 -0.16208915504E+01 -0.82144320805E+01  0.31464992263E+02  0.00000000000E+00 0. -1.
</event>
<event>
 8    1  0.1269154E-006  0.9118800E+02  0.7816164E-02  0.1184000E+00
        -11   -1    0    0    0    0  0.00000000000E+00  0.00000000000E+00  0.45593999997E+02  0.45594000000E+02  0.51100000000E-03 0.  1.
         11   -1    0    0    0    0 -0.00000000000E+00 -0.00000000000E+00 -0.45593999997E+02  0.45594000000E+02  0.51100000000E-03 0. -1.
         23    2    1    2    0    0 -0.35527136788E-14  0.00000000000E+00  0.00000000000E+00  0.91188000000E+02  0.91188000000E+02 0.  0.
    9900012    2    3    3    0    0 -0.21723083472E+02  0.20340584043E+02 -0.21682909211E+02  0.54367078412E+02  0.39999986856E+02 0.  0.
        -12    1    3    3    0    0  0.21723083472E+02 -0.20340584043E+02  0.21682909211E+02  0.36820921588E+02  0.00000000000E+00 0.  1.
         11    1    4    4    0    0 -0.75274380497E+01 -0.98719240180E+01 -0.78607624018E+01  0.14693835211E+02  0.51100000000E-03 0. -1.
        -11    1    4    4    0    0 -0.36920349611E+01  0.17039337658E+02 -0.14696364751E+02  0.22802484232E+02  0.51100000000E-03 0.  1.
        -12    1    4    4    0    0 -0.10503610462E+02  0.13173170402E+02  0.87421794191E+00  0.16870758969E+02  0.00000000000E+00 0.  1.
</event>
<event>
 8    1  0.1269154E-006  0.9118800E+02  0.7816164E-02  0.1184000E+00
        -11   -1    0    0    0    0  0.00000000000E+00  0.00000000000E+00  0.45593999997E+02  0.45594000000E+02  0.51100000000E-03 0. -1.
         11   -1    0    0    0    0 -0.00000000000E+00 -0.00000000000E+00 -0.45593999997E+02  0.45594000000E+02  0.51100000000E-03 0.  1.
         23    2    1    2    0    0 -0.17763568394E-14 -0.35527136788E-14  0.00000000000E+00  0.91188000000E+02  0.91188000000E+02 0.  0.
    9900012    2    3    3    0    0  0.14968986711E+02 -0.22890424627E+02  0.24652368388E+02  0.54367063430E+02  0.39999952702E+02 0.  0.
        -12    1    3    3    0    0 -0.14968986711E+02  0.22890424627E+02 -0.24652368388E+02  0.36820936570E+02  0.00000000000E+00 0.  1.
         11    1    4    4    0    0  0.12846904657E+02  0.31199430696E+01  0.13548075634E+02  0.18929536647E+02  0.51100000000E-03 0. -1.
        -11    1    4    4    0    0  0.77052003813E+00 -0.15836711132E+02  0.17286159816E+02  0.23456479745E+02  0.51100000000E-03 0.  1.
        -12    1    4    4    0    0  0.13515620158E+01 -0.10173656565E+02 -0.61818670613E+01  0.11981047039E+02  0.00000000000E+00 0.  1.
</event>
<event>
 8    1  0.1269154E-006  0.9118800E+02  0.7816164E-02  0.1184000E+00
        -11   -1    0    0    0    0  0.00000000000E+00  0.00000000000E+00  0.45593999997E+02  0.45594000000E+02  0.51100000000E-03 0. -1.
         11   -1    0    0    0    0 -0.00000000000E+00 -0.00000000000E+00 -0.45593999997E+02  0.45594000000E+02  0.51100000000E-03 0.  1.
         23    2    1    2    0    0 -0.13322676296E-14  0.00000000000E+00  0.17763568394E-14  0.91188000000E+02  0.91188000000E+02 0.  0.
    9900012    2    3    3    0    0 -0.23683451913E+01  0.34958927585E+02  0.11315631553E+02  0.54367092973E+02  0.40000020051E+02 0.  0.
        -12    1    3    3    0    0  0.23683451913E+01 -0.34958927585E+02 -0.11315631553E+02  0.36820907027E+02  0.00000000000E+00 0.  1.
         11    1    4    4    0    0 -0.78212639359E+01 -0.28502326168E+01 -0.62026857769E+01  0.10381199672E+02  0.51100000000E-03 0.  1.
        -11    1    4    4    0    0  0.64604271054E+01  0.11587913044E+02  0.17761720023E+01  0.13385500900E+02  0.51100000000E-03 0. -1.
        -12    1    4    4    0    0 -0.10075083607E+01  0.26221247158E+02  0.15742145328E+02  0.30600392401E+02  0.00000000000E+00 0.  1.
</event>
<event>
 8    1  0.1269154E-006  0.9118800E+02  0.7816164E-02  0.1184000E+00
        -11   -1    0    0    0    0  0.00000000000E+00  0.00000000000E+00  0.45593999997E+02  0.45594000000E+02  0.51100000000E-03 0.  1.
         11   -1    0    0    0    0 -0.00000000000E+00 -0.00000000000E+00 -0.45593999997E+02  0.45594000000E+02  0.51100000000E-03 0. -1.
         23    2    1    2    0    0  0.35527136788E-14 -0.35527136788E-14  0.00000000000E+00  0.91188000000E+02  0.91188000000E+02 0.  0.
    9900012    2    3    3    0    0 -0.24296944868E+02  0.24980209248E+02 -0.11892595358E+02  0.54366997727E+02  0.39999802919E+02 0.  0.
        -12    1    3    3    0    0  0.24296944868E+02 -0.24980209248E+02  0.11892595358E+02  0.36821002273E+02  0.00000000000E+00 0.  1.
         11    1    4    4    0    0 -0.16069017430E+01  0.15030078349E+01 -0.29136961388E+01  0.36511356061E+01  0.51100000000E-03 0. -1.
        -11    1    4    4    0    0  0.84150615430E+00  0.22389884568E+02  0.54926637574E+01  0.23069122632E+02  0.51100000000E-03 0.  1.
         12    1    4    4    0    0 -0.23531549279E+02  0.10873168449E+01 -0.14471562977E+02  0.27646739489E+02  0.00000000000E+00 0. -1.
</event>
<event>
 8    1  0.1269154E-006  0.9118800E+02  0.7816164E-02  0.1184000E+00
        -11   -1    0    0    0    0  0.00000000000E+00  0.00000000000E+00  0.45593999997E+02  0.45594000000E+02  0.51100000000E-03 0. -1.
         11   -1    0    0    0    0 -0.00000000000E+00 -0.00000000000E+00 -0.45593999997E+02  0.45594000000E+02  0.51100000000E-03 0.  1.
         23    2    1    2    0    0  0.00000000000E+00 -0.35527136788E-14  0.17763568394E-14  0.91188000000E+02  0.91188000000E+02 0.  0.
    9900012    2    3    3    0    0  0.20703689252E+02  0.27488386518E+02 -0.13096773568E+02  0.54367087193E+02  0.40000006875E+02 0.  0.
         12    1    3    3    0    0 -0.20703689252E+02 -0.27488386518E+02  0.13096773568E+02  0.36820912807E+02  0.00000000000E+00 0. -1.
         11    1    4    4    0    0  0.19030257639E+02  0.10334969639E+02  0.75036029267E+01  0.22918690198E+02  0.51100000000E-03 0. -1.
        -11    1    4    4    0    0  0.46632751393E+01  0.11264599387E+02 -0.28657658767E+01  0.12523974956E+02  0.51100000000E-03 0.  1.
         12    1    4    4    0    0 -0.29898435258E+01  0.58888174923E+01 -0.17734610618E+02  0.18924422040E+02  0.00000000000E+00 0. -1.
</event>
<event>
 8    1  0.1269154E-006  0.9118800E+02  0.7816164E-02  0.1184000E+00
        -11   -1    0    0    0    0  0.00000000000E+00  0.00000000000E+00  0.45593999997E+02  0.45594000000E+02  0.51100000000E-03 0. -1.
         11   -1    0    0    0    0 -0.00000000000E+00 -0.00000000000E+00 -0.45593999997E+02  0.45594000000E+02  0.51100000000E-03 0.  1.
         23    2    1    2    0    0  0.00000000000E+00 -0.99920072216E-15  0.00000000000E+00  0.91188000000E+02  0.91188000000E+02 0.  0.
    9900012    2    3    3    0    0  0.36741301866E+02 -0.76349087772E+00  0.22965759412E+01  0.54367076027E+02  0.39999981420E+02 0.  0.
        -12    1    3    3    0    0 -0.36741301866E+02  0.76349087772E+00 -0.22965759412E+01  0.36820923973E+02  0.00000000000E+00 0.  1.
         11    1    4    4    0    0  0.70145217767E+01 -0.15056855626E+02  0.32196779510E+01  0.16919773742E+02  0.51100000000E-03 0. -1.
        -11    1    4    4    0    0  0.13265646977E+01  0.62700602153E+01  0.39609618476E+01  0.75340990185E+01  0.51100000000E-03 0.  1.
         12    1    4    4    0    0  0.28400215392E+02  0.80233045332E+01 -0.48840638574E+01  0.29913203267E+02  0.00000000000E+00 0. -1.
</event>
<event>
 8    1  0.1269154E-006  0.9118800E+02  0.7816164E-02  0.1184000E+00
        -11   -1    0    0    0    0  0.00000000000E+00  0.00000000000E+00  0.45593999997E+02  0.45594000000E+02  0.51100000000E-03 0. -1.
         11   -1    0    0    0    0 -0.00000000000E+00 -0.00000000000E+00 -0.45593999997E+02  0.45594000000E+02  0.51100000000E-03 0.  1.
         23    2    1    2    0    0  0.35527136788E-14  0.17763568394E-14  0.00000000000E+00  0.91188000000E+02  0.91188000000E+02 0.  0.
    9900012    2    3    3    0    0 -0.31461962775E+02 -0.15719826408E+02  0.10900080230E+02  0.54367084844E+02  0.40000001518E+02 0.  0.
         12    1    3    3    0    0  0.31461962775E+02  0.15719826408E+02 -0.10900080230E+02  0.36820915156E+02  0.00000000000E+00 0. -1.
         11    1    4    4    0    0 -0.13451184686E+01 -0.41865188552E+01  0.73485301548E+01  0.85637129515E+01  0.51100000000E-03 0. -1.
        -11    1    4    4    0    0 -0.30786933841E+02 -0.17729714786E+02  0.99266173834E+01  0.36887881677E+02  0.51100000000E-03 0.  1.
        -12    1    4    4    0    0  0.67008953494E+00  0.61964072336E+01 -0.63750673080E+01  0.89154902148E+01  0.00000000000E+00 0.  1.
</event>
<event>
 8    1  0.1269154E-006  0.9118800E+02  0.7816164E-02  0.1184000E+00
        -11   -1    0    0    0    0  0.00000000000E+00  0.00000000000E+00  0.45593999997E+02  0.45594000000E+02  0.51100000000E-03 0.  1.
         11   -1    0    0    0    0 -0.00000000000E+00 -0.00000000000E+00 -0.45593999997E+02  0.45594000000E+02  0.51100000000E-03 0. -1.
         23    2    1    2    0    0  0.00000000000E+00  0.17763568394E-14  0.00000000000E+00  0.91188000000E+02  0.91188000000E+02 0.  0.
    9900012    2    3    3    0    0 -0.27061674882E+02 -0.14424370296E+02  0.20380935336E+02  0.54367092474E+02  0.40000018913E+02 0.  0.
         12    1    3    3    0    0  0.27061674882E+02  0.14424370296E+02 -0.20380935336E+02  0.36820907526E+02  0.00000000000E+00 0. -1.
         11    1    4    4    0    0 -0.15085371901E+02 -0.10496023833E+02 -0.28788718771E+01  0.18601689849E+02  0.51100000000E-03 0. -1.
        -11    1    4    4    0    0 -0.58376270010E+00 -0.12702181685E+02  0.12233734600E+02  0.17645125700E+02  0.51100000000E-03 0.  1.
         12    1    4    4    0    0 -0.11392540282E+02  0.87738352225E+01  0.11026072612E+02  0.18120276925E+02  0.00000000000E+00 0. -1.
</event>
<event>
 8    1  0.1269154E-006  0.9118800E+02  0.7816164E-02  0.1184000E+00
        -11   -1    0    0    0    0  0.00000000000E+00  0.00000000000E+00  0.45593999997E+02  0.45594000000E+02  0.51100000000E-03 0. -1.
         11   -1    0    0    0    0 -0.00000000000E+00 -0.00000000000E+00 -0.45593999997E+02  0.45594000000E+02  0.51100000000E-03 0.  1.
         23    2    1    2    0    0  0.35527136788E-14  0.00000000000E+00 -0.35527136788E-14  0.91188000000E+02  0.91188000000E+02 0.  0.
    9900012    2    3    3    0    0  0.27483353834E+02 -0.13671657126E+02 -0.20335494086E+02  0.54367064838E+02  0.39999955910E+02 0.  0.
         12    1    3    3    0    0 -0.27483353834E+02  0.13671657126E+02  0.20335494086E+02  0.36820935162E+02  0.00000000000E+00 0. -1.
         11    1    4    4    0    0  0.27785068605E+01 -0.21144645770E+01  0.24042241163E+01  0.42392634600E+01  0.51100000000E-03 0. -1.
        -11    1    4    4    0    0  0.26168091576E+02  0.25609732776E+01 -0.24358232208E+02  0.35842029482E+02  0.51100000000E-03 0.  1.
         12    1    4    4    0    0 -0.14632446023E+01 -0.14118165826E+02  0.16185140054E+01  0.14285771896E+02  0.00000000000E+00 0. -1.
</event>
<event>
 8    1  0.1269154E-006  0.9118800E+02  0.7816164E-02  0.1184000E+00
        -11   -1    0    0    0    0  0.00000000000E+00  0.00000000000E+00  0.45593999997E+02  0.45594000000E+02  0.51100000000E-03 0.  1.
         11   -1    0    0    0    0 -0.00000000000E+00 -0.00000000000E+00 -0.45593999997E+02  0.45594000000E+02  0.51100000000E-03 0. -1.
         23    2    1    2    0    0  0.46629367034E-14  0.35527136788E-14 -0.35527136788E-14  0.91188000000E+02  0.91188000000E+02 0.  0.
    9900012    2    3    3    0    0  0.51119474317E+00  0.28577421357E+02 -0.23213075252E+02  0.54367120134E+02  0.40000081969E+02 0.  0.
        -12    1    3    3    0    0 -0.51119474317E+00 -0.28577421357E+02  0.23213075252E+02  0.36820879866E+02  0.00000000000E+00 0.  1.
         11    1    4    4    0    0 -0.12740263579E+02 -0.35817525631E+00 -0.78486432215E+00  0.12769440780E+02  0.51100000000E-03 0. -1.
        -11    1    4    4    0    0 -0.18675257493E+01  0.12387524075E+02 -0.66189664729E+01  0.14168596351E+02  0.51100000000E-03 0.  1.
         12    1    4    4    0    0  0.15118984071E+02  0.16548072538E+02 -0.15809244457E+02  0.27429083002E+02  0.00000000000E+00 0. -1.
</event>
<event>
 8    1  0.1269154E-006  0.9118800E+02  0.7816164E-02  0.1184000E+00
        -11   -1    0    0    0    0  0.00000000000E+00  0.00000000000E+00  0.45593999997E+02  0.45594000000E+02  0.51100000000E-03 0. -1.
         11   -1    0    0    0    0 -0.00000000000E+00 -0.00000000000E+00 -0.45593999997E+02  0.45594000000E+02  0.51100000000E-03 0.  1.
         23    2    1    2    0    0  0.17763568394E-14  0.00000000000E+00  0.17763568394E-14  0.91188000000E+02  0.91188000000E+02 0.  0.
    9900012    2    3    3    0    0  0.10303527084E+02 -0.34084961184E+02  0.93718954053E+01  0.54367086476E+02  0.40000005239E+02 0.  0.
        -12    1    3    3    0    0 -0.10303527084E+02  0.34084961184E+02 -0.93718954053E+01  0.36820913524E+02  0.00000000000E+00 0.  1.
         11    1    4    4    0    0  0.18646563952E+02 -0.10397914569E+02  0.11083805913E+02  0.24055388760E+02  0.51100000000E-03 0. -1.
        -11    1    4    4    0    0  0.21890488621E+01  0.17017954058E+01 -0.16701718813E-01  0.27727823089E+01  0.51100000000E-03 0.  1.
        -12    1    4    4    0    0 -0.10532085730E+02 -0.25388842021E+02 -0.16952087892E+01  0.27538915407E+02  0.00000000000E+00 0.  1.
</event>
<event>
 8    1  0.1269154E-006  0.9118800E+02  0.7816164E-02  0.1184000E+00
        -11   -1    0    0    0    0  0.00000000000E+00  0.00000000000E+00  0.45593999997E+02  0.45594000000E+02  0.51100000000E-03 0.  1.
         11   -1    0    0    0    0 -0.00000000000E+00 -0.00000000000E+00 -0.45593999997E+02  0.45594000000E+02  0.51100000000E-03 0. -1.
         23    2    1    2    0    0 -0.17763568394E-14  0.00000000000E+00  0.00000000000E+00  0.91188000000E+02  0.91188000000E+02 0.  0.
    9900012    2    3    3    0    0 -0.66202056292E+01 -0.94957612147E+01  0.34953951056E+02  0.54367145881E+02  0.40000140665E+02 0.  0.
         12    1    3    3    0    0  0.66202056292E+01  0.94957612147E+01 -0.34953951056E+02  0.36820854119E+02  0.00000000000E+00 0. -1.
         11    1    4    4    0    0 -0.29178312177E+01 -0.29408325252E+01  0.58355350204E+01  0.71565148077E+01  0.51100000000E-03 0.  1.
        -11    1    4    4    0    0  0.16018172870E+02 -0.68296067474E+01  0.14527160450E+02  0.22677384801E+02  0.51100000000E-03 0. -1.
         12    1    4    4    0    0 -0.19720547281E+02  0.27467805789E+00  0.14591255586E+02  0.24533246273E+02  0.00000000000E+00 0. -1.
</event>
<event>
 8    1  0.1269154E-006  0.9118800E+02  0.7816164E-02  0.1184000E+00
        -11   -1    0    0    0    0  0.00000000000E+00  0.00000000000E+00  0.45593999997E+02  0.45594000000E+02  0.51100000000E-03 0. -1.
         11   -1    0    0    0    0 -0.00000000000E+00 -0.00000000000E+00 -0.45593999997E+02  0.45594000000E+02  0.51100000000E-03 0.  1.
         23    2    1    2    0    0  0.35527136788E-14  0.35527136788E-14 -0.17763568394E-14  0.91188000000E+02  0.91188000000E+02 0.  0.
    9900012    2    3    3    0    0  0.30840646224E+02  0.14981654510E+02 -0.13423038062E+02  0.54367171897E+02  0.40000199973E+02 0.  0.
         12    1    3    3    0    0 -0.30840646224E+02 -0.14981654510E+02  0.13423038062E+02  0.36820828103E+02  0.00000000000E+00 0. -1.
         11    1    4    4    0    0  0.42134884642E+01  0.16667953849E+02 -0.14326000966E+01  0.17251855374E+02  0.51100000000E-03 0.  1.
        -11    1    4    4    0    0  0.28848683874E+02  0.36530211474E+01 -0.11638272580E+02  0.31321566271E+02  0.51100000000E-03 0. -1.
         12    1    4    4    0    0 -0.22215261142E+01 -0.53393204858E+01 -0.35216538578E+00  0.57937502522E+01  0.00000000000E+00 0. -1.
</event>
<event>
 8    1  0.1269154E-006  0.9118800E+02  0.7816164E-02  0.1184000E+00
        -11   -1    0    0    0    0  0.00000000000E+00  0.00000000000E+00  0.45593999997E+02  0.45594000000E+02  0.51100000000E-03 0. -1.
         11   -1    0    0    0    0 -0.00000000000E+00 -0.00000000000E+00 -0.45593999997E+02  0.45594000000E+02  0.51100000000E-03 0.  1.
         23    2    1    2    0    0  0.00000000000E+00  0.00000000000E+00 -0.35527136788E-14  0.91188000000E+02  0.91188000000E+02 0.  0.
    9900012    2    3    3    0    0 -0.13258979646E+02 -0.28472147062E+02 -0.19217605434E+02  0.54367081242E+02  0.39999993306E+02 0.  0.
         12    1    3    3    0    0  0.13258979646E+02  0.28472147062E+02  0.19217605434E+02  0.36820918758E+02  0.00000000000E+00 0. -1.
         11    1    4    4    0    0 -0.48120183321E+01  0.18895414004E+01 -0.16362028416E+02  0.17159308298E+02  0.51100000000E-03 0.  1.
        -11    1    4    4    0    0 -0.76233615394E+01 -0.19114724308E+02  0.74944758591E+01  0.21901038679E+02  0.51100000000E-03 0. -1.
        -12    1    4    4    0    0 -0.82359977463E+00 -0.11246964155E+02 -0.10350052877E+02  0.15306734265E+02  0.00000000000E+00 0.  1.
</event>
<event>
 8    1  0.1269154E-006  0.9118800E+02  0.7816164E-02  0.1184000E+00
        -11   -1    0    0    0    0  0.00000000000E+00  0.00000000000E+00  0.45593999997E+02  0.45594000000E+02  0.51100000000E-03 0. -1.
         11   -1    0    0    0    0 -0.00000000000E+00 -0.00000000000E+00 -0.45593999997E+02  0.45594000000E+02  0.51100000000E-03 0.  1.
         23    2    1    2    0    0 -0.35527136788E-14  0.00000000000E+00  0.00000000000E+00  0.91188000000E+02  0.91188000000E+02 0.  0.
    9900012    2    3    3    0    0 -0.20061106090E+02  0.17323616275E+02  0.25558244265E+02  0.54367088709E+02  0.40000010330E+02 0.  0.
        -12    1    3    3    0    0  0.20061106090E+02 -0.17323616275E+02 -0.25558244265E+02  0.36820911291E+02  0.00000000000E+00 0.  1.
         11    1    4    4    0    0 -0.21745902386E+02  0.11369190905E+02  0.15576276659E+02  0.29064809775E+02  0.51100000000E-03 0. -1.
        -11    1    4    4    0    0  0.41469755455E+01  0.90615608451E+01  0.15548728080E+02  0.18468141117E+02  0.51100000000E-03 0.  1.
         12    1    4    4    0    0 -0.24621792502E+01 -0.31071354753E+01 -0.55667604751E+01  0.68341378175E+01  0.00000000000E+00 0. -1.
</event>
<event>
 8    1  0.1269154E-006  0.9118800E+02  0.7816164E-02  0.1184000E+00
        -11   -1    0    0    0    0  0.00000000000E+00  0.00000000000E+00  0.45593999997E+02  0.45594000000E+02  0.51100000000E-03 0. -1.
         11   -1    0    0    0    0 -0.00000000000E+00 -0.00000000000E+00 -0.45593999997E+02  0.45594000000E+02  0.51100000000E-03 0.  1.
         23    2    1    2    0    0  0.71054273576E-14  0.00000000000E+00 -0.88817841970E-15  0.91188000000E+02  0.91188000000E+02 0.  0.
    9900012    2    3    3    0    0 -0.36104298089E+02 -0.64796518203E+01  0.32050664749E+01  0.54367099966E+02  0.40000035993E+02 0.  0.
        -12    1    3    3    0    0  0.36104298089E+02  0.64796518203E+01 -0.32050664749E+01  0.36820900034E+02  0.00000000000E+00 0.  1.
         11    1    4    4    0    0 -0.12724781552E+02 -0.34089553555E+01 -0.75001862597E+01  0.15158952350E+02  0.51100000000E-03 0. -1.
        -11    1    4    4    0    0 -0.25943133849E+01 -0.11313800101E+02 -0.41905619508E+01  0.12340718957E+02  0.51100000000E-03 0.  1.
        -12    1    4    4    0    0 -0.20785203151E+02  0.82431036359E+01  0.14895814685E+02  0.26867428659E+02  0.00000000000E+00 0.  1.
</event>
<event>
 8    1  0.1269154E-006  0.9118800E+02  0.7816164E-02  0.1184000E+00
        -11   -1    0    0    0    0  0.00000000000E+00  0.00000000000E+00  0.45593999997E+02  0.45594000000E+02  0.51100000000E-03 0. -1.
         11   -1    0    0    0    0 -0.00000000000E+00 -0.00000000000E+00 -0.45593999997E+02  0.45594000000E+02  0.51100000000E-03 0.  1.
         23    2    1    2    0    0  0.35527136788E-14  0.00000000000E+00  0.00000000000E+00  0.91188000000E+02  0.91188000000E+02 0.  0.
    9900012    2    3    3    0    0  0.23225122585E+02 -0.27001310179E+02 -0.93435833887E+01  0.54367087179E+02  0.40000006841E+02 0.  0.
         12    1    3    3    0    0 -0.23225122585E+02  0.27001310179E+02  0.93435833887E+01  0.36820912821E+02  0.00000000000E+00 0. -1.
         11    1    4    4    0    0  0.37732272273E+01  0.15468699380E+01  0.32007973599E+01  0.51841252217E+01  0.51100000000E-03 0. -1.
        -11    1    4    4    0    0  0.23168997462E+02 -0.32994427557E+02 -0.14823673083E+02  0.42955511604E+02  0.51100000000E-03 0.  1.
        -12    1    4    4    0    0 -0.37171021045E+01  0.44462474402E+01  0.22792923344E+01  0.62274503531E+01  0.00000000000E+00 0.  1.
</event>
<event>
 8    1  0.1269154E-006  0.9118800E+02  0.7816164E-02  0.1184000E+00
        -11   -1    0    0    0    0  0.00000000000E+00  0.00000000000E+00  0.45593999997E+02  0.45594000000E+02  0.51100000000E-03 0.  1.
         11   -1    0    0    0    0 -0.00000000000E+00 -0.00000000000E+00 -0.45593999997E+02  0.45594000000E+02  0.51100000000E-03 0. -1.
         23    2    1    2    0    0 -0.88817841970E-15 -0.17763568394E-14  0.00000000000E+00  0.91188000000E+02  0.91188000000E+02 0.  0.
    9900012    2    3    3    0    0  0.74730830227E+01  0.50244509675E+01 -0.35702776747E+02  0.54367077350E+02  0.39999984434E+02 0.  0.
        -12    1    3    3    0    0 -0.74730830227E+01 -0.50244509675E+01  0.35702776747E+02  0.36820922650E+02  0.00000000000E+00 0.  1.
         11    1    4    4    0    0 -0.46618332656E+01  0.44827978184E+01  0.24871435210E+01  0.69292170432E+01  0.51100000000E-03 0. -1.
        -11    1    4    4    0    0  0.96983474283E+01 -0.11935374619E+02 -0.22290154047E+02  0.27080658740E+02  0.51100000000E-03 0.  1.
        -12    1    4    4    0    0  0.24365688600E+01  0.12477027768E+02 -0.15899766221E+02  0.20357201566E+02  0.00000000000E+00 0.  1.
</event>
<event>
 8    1  0.1269154E-006  0.9118800E+02  0.7816164E-02  0.1184000E+00
        -11   -1    0    0    0    0  0.00000000000E+00  0.00000000000E+00  0.45593999997E+02  0.45594000000E+02  0.51100000000E-03 0.  1.
         11   -1    0    0    0    0 -0.00000000000E+00 -0.00000000000E+00 -0.45593999997E+02  0.45594000000E+02  0.51100000000E-03 0. -1.
         23    2    1    2    0    0 -0.17763568394E-14 -0.71054273576E-14  0.35527136788E-14  0.91188000000E+02  0.91188000000E+02 0.  0.
    9900012    2    3    3    0    0  0.15039789983E+02  0.29550976880E+02 -0.16010127825E+02  0.54367085967E+02  0.40000004078E+02 0.  0.
        -12    1    3    3    0    0 -0.15039789983E+02 -0.29550976880E+02  0.16010127825E+02  0.36820914033E+02  0.00000000000E+00 0.  1.
         11    1    4    4    0    0 -0.43723868436E+01  0.35217498879E+01 -0.29181854841E+01  0.63274241017E+01  0.51100000000E-03 0.  1.
        -11    1    4    4    0    0 -0.58289881754E+01  0.12972990115E+02 -0.13513404165E+02  0.19618554178E+02  0.51100000000E-03 0. -1.
        -12    1    4    4    0    0  0.25241165002E+02  0.13056236877E+02  0.42146182421E+00  0.28421107686E+02  0.00000000000E+00 0.  1.
</event>
<event>
 8    1  0.1269154E-006  0.9118800E+02  0.7816164E-02  0.1184000E+00
        -11   -1    0    0    0    0  0.00000000000E+00  0.00000000000E+00  0.45593999997E+02  0.45594000000E+02  0.51100000000E-03 0.  1.
         11   -1    0    0    0    0 -0.00000000000E+00 -0.00000000000E+00 -0.45593999997E+02  0.45594000000E+02  0.51100000000E-03 0. -1.
         23    2    1    2    0    0  0.00000000000E+00  0.00000000000E+00  0.88817841970E-15  0.91188000000E+02  0.91188000000E+02 0.  0.
    9900012    2    3    3    0    0 -0.26489063568E+02  0.25236377036E+02  0.41514714570E+01  0.54367082984E+02  0.39999997280E+02 0.  0.
         12    1    3    3    0    0  0.26489063568E+02 -0.25236377036E+02 -0.41514714570E+01  0.36820917016E+02  0.00000000000E+00 0. -1.
         11    1    4    4    0    0 -0.74096436277E+00 -0.22887929654E+01 -0.11249735572E+02  0.11504092842E+02  0.51100000000E-03 0. -1.
        -11    1    4    4    0    0 -0.11913019993E+02  0.48906202785E+01  0.16509906849E+01  0.12983219269E+02  0.51100000000E-03 0.  1.
         12    1    4    4    0    0 -0.13835079212E+02  0.22634549723E+02  0.13750216344E+02  0.29879770874E+02  0.00000000000E+00 0. -1.
</event>
<event>
 8    1  0.1269154E-006  0.9118800E+02  0.7816164E-02  0.1184000E+00
        -11   -1    0    0    0    0  0.00000000000E+00  0.00000000000E+00  0.45593999997E+02  0.45594000000E+02  0.51100000000E-03 0. -1.
         11   -1    0    0    0    0 -0.00000000000E+00 -0.00000000000E+00 -0.45593999997E+02  0.45594000000E+02  0.51100000000E-03 0.  1.
         23    2    1    2    0    0  0.00000000000E+00 -0.35527136788E-14  0.00000000000E+00  0.91188000000E+02  0.91188000000E+02 0.  0.
    9900012    2    3    3    0    0  0.26187494326E+02 -0.20083843476E+02 -0.16328962389E+02  0.54367073334E+02  0.39999975280E+02 0.  0.
         12    1    3    3    0    0 -0.26187494326E+02  0.20083843476E+02  0.16328962389E+02  0.36820926666E+02  0.00000000000E+00 0. -1.
         11    1    4    4    0    0  0.54044875896E+01 -0.10426275192E+02 -0.61072969791E+01  0.13236871879E+02  0.51100000000E-03 0.  1.
        -11    1    4    4    0    0  0.12496719478E+02  0.18387952817E+01  0.10226000993E+02  0.16251777207E+02  0.51100000000E-03 0. -1.
        -12    1    4    4    0    0  0.82862872582E+01 -0.11496363566E+02 -0.20447666404E+02  0.24878424249E+02  0.00000000000E+00 0.  1.
</event>
<event>
 8    1  0.1269154E-006  0.9118800E+02  0.7816164E-02  0.1184000E+00
        -11   -1    0    0    0    0  0.00000000000E+00  0.00000000000E+00  0.45593999997E+02  0.45594000000E+02  0.51100000000E-03 0. -1.
         11   -1    0    0    0    0 -0.00000000000E+00 -0.00000000000E+00 -0.45593999997E+02  0.45594000000E+02  0.51100000000E-03 0.  1.
         23    2    1    2    0    0  0.00000000000E+00  0.00000000000E+00  0.00000000000E+00  0.91188000000E+02  0.91188000000E+02 0.  0.
    9900012    2    3    3    0    0 -0.18778066929E+02  0.28696072054E+02 -0.13405205389E+02  0.54367083655E+02  0.39999998809E+02 0.  0.
        -12    1    3    3    0    0  0.18778066929E+02 -0.28696072054E+02  0.13405205389E+02  0.36820916345E+02  0.00000000000E+00 0.  1.
         11    1    4    4    0    0 -0.85064164086E-01 -0.16481203205E+01  0.67776842966E+01  0.69757108017E+01  0.51100000000E-03 0. -1.
        -11    1    4    4    0    0 -0.18081962661E+02  0.82522640134E+01 -0.47497251807E+01  0.20435682631E+02  0.51100000000E-03 0.  1.
        -12    1    4    4    0    0 -0.61104010369E+00  0.22091928362E+02 -0.15433164505E+02  0.26955690223E+02  0.00000000000E+00 0.  1.
</event>
<event>
 8    1  0.1269154E-006  0.9118800E+02  0.7816164E-02  0.1184000E+00
        -11   -1    0    0    0    0  0.00000000000E+00  0.00000000000E+00  0.45593999997E+02  0.45594000000E+02  0.51100000000E-03 0.  1.
         11   -1    0    0    0    0 -0.00000000000E+00 -0.00000000000E+00 -0.45593999997E+02  0.45594000000E+02  0.51100000000E-03 0. -1.
         23    2    1    2    0    0 -0.35527136788E-14  0.00000000000E+00 -0.35527136788E-14  0.91188000000E+02  0.91188000000E+02 0.  0.
    9900012    2    3    3    0    0 -0.95409319915E+01  0.18261549978E+02  0.30516665609E+02  0.54367075640E+02  0.39999980536E+02 0.  0.
         12    1    3    3    0    0  0.95409319915E+01 -0.18261549978E+02 -0.30516665609E+02  0.36820924360E+02  0.00000000000E+00 0. -1.
         11    1    4    4    0    0 -0.86548703296E+01 -0.15598328864E+00  0.57686146342E+01  0.10402308699E+02  0.51100000000E-03 0. -1.
        -11    1    4    4    0    0  0.12664892343E+02  0.87197807929E+01  0.22351473843E+02  0.27129733842E+02  0.51100000000E-03 0.  1.
        -12    1    4    4    0    0 -0.13550954005E+02  0.96977524733E+01  0.23965771317E+01  0.16835033098E+02  0.00000000000E+00 0.  1.
</event>
<event>
 8    1  0.1269154E-006  0.9118800E+02  0.7816164E-02  0.1184000E+00
        -11   -1    0    0    0    0  0.00000000000E+00  0.00000000000E+00  0.45593999997E+02  0.45594000000E+02  0.51100000000E-03 0. -1.
         11   -1    0    0    0    0 -0.00000000000E+00 -0.00000000000E+00 -0.45593999997E+02  0.45594000000E+02  0.51100000000E-03 0.  1.
         23    2    1    2    0    0  0.00000000000E+00  0.00000000000E+00  0.00000000000E+00  0.91188000000E+02  0.91188000000E+02 0.  0.
    9900012    2    3    3    0    0 -0.14210952514E+02  0.13748300851E+02  0.31061416619E+02  0.54367101722E+02  0.40000039995E+02 0.  0.
        -12    1    3    3    0    0  0.14210952514E+02 -0.13748300851E+02 -0.31061416619E+02  0.36820898278E+02  0.00000000000E+00 0.  1.
         11    1    4    4    0    0 -0.19687494368E+02  0.16713077312E+02  0.97999608114E+01  0.27621796102E+02  0.51100000000E-03 0. -1.
        -11    1    4    4    0    0 -0.11121366788E+01 -0.70145872552E+01  0.48421932329E+01  0.85958197933E+01  0.51100000000E-03 0.  1.
         12    1    4    4    0    0  0.65886785327E+01  0.40498107940E+01  0.16419262574E+02  0.18149485826E+02  0.00000000000E+00 0. -1.
</event>
<event>
 8    1  0.1269154E-006  0.9118800E+02  0.7816164E-02  0.1184000E+00
        -11   -1    0    0    0    0  0.00000000000E+00  0.00000000000E+00  0.45593999997E+02  0.45594000000E+02  0.51100000000E-03 0.  1.
         11   -1    0    0    0    0 -0.00000000000E+00 -0.00000000000E+00 -0.45593999997E+02  0.45594000000E+02  0.51100000000E-03 0. -1.
         23    2    1    2    0    0  0.00000000000E+00  0.00000000000E+00  0.00000000000E+00  0.91188000000E+02  0.91188000000E+02 0.  0.
    9900012    2    3    3    0    0 -0.24734498648E+02 -0.51357674568E+01 -0.26788237078E+02  0.54367066056E+02  0.39999958689E+02 0.  0.
        -12    1    3    3    0    0  0.24734498648E+02  0.51357674568E+01  0.26788237078E+02  0.36820933944E+02  0.00000000000E+00 0.  1.
         11    1    4    4    0    0 -0.31964696146E+01 -0.13545858774E+01 -0.14198379937E+02  0.14616645101E+02  0.51100000000E-03 0. -1.
        -11    1    4    4    0    0 -0.29037284194E+02 -0.17629445314E+01 -0.13230275636E+02  0.31957973035E+02  0.51100000000E-03 0.  1.
        -12    1    4    4    0    0  0.74992551611E+01 -0.20182370480E+01  0.64041849574E+00  0.77924479210E+01  0.00000000000E+00 0.  1.
</event>
<event>
 8    1  0.1269154E-006  0.9118800E+02  0.7816164E-02  0.1184000E+00
        -11   -1    0    0    0    0  0.00000000000E+00  0.00000000000E+00  0.45593999997E+02  0.45594000000E+02  0.51100000000E-03 0. -1.
         11   -1    0    0    0    0 -0.00000000000E+00 -0.00000000000E+00 -0.45593999997E+02  0.45594000000E+02  0.51100000000E-03 0.  1.
         23    2    1    2    0    0  0.66613381478E-15  0.00000000000E+00  0.00000000000E+00  0.91188000000E+02  0.91188000000E+02 0.  0.
    9900012    2    3    3    0    0  0.12691041863E+01  0.87183152347E+01  0.35751356746E+02  0.54367093504E+02  0.40000021262E+02 0.  0.
        -12    1    3    3    0    0 -0.12691041863E+01 -0.87183152347E+01 -0.35751356746E+02  0.36820906496E+02  0.00000000000E+00 0.  1.
         11    1    4    4    0    0  0.78885535646E+01 -0.53351487047E+01  0.16590906493E+02  0.19129852784E+02  0.51100000000E-03 0. -1.
        -11    1    4    4    0    0  0.93147818306E+01  0.85687179051E+01  0.93737012864E+01  0.15749741685E+02  0.51100000000E-03 0.  1.
        -12    1    4    4    0    0 -0.15934231209E+02  0.54847460344E+01  0.97867489672E+01  0.19487499035E+02  0.00000000000E+00 0.  1.
</event>
<event>
 8    1  0.1269154E-006  0.9118800E+02  0.7816164E-02  0.1184000E+00
        -11   -1    0    0    0    0  0.00000000000E+00  0.00000000000E+00  0.45593999997E+02  0.45594000000E+02  0.51100000000E-03 0.  1.
         11   -1    0    0    0    0 -0.00000000000E+00 -0.00000000000E+00 -0.45593999997E+02  0.45594000000E+02  0.51100000000E-03 0. -1.
         23    2    1    2    0    0  0.35527136788E-14 -0.35527136788E-14 -0.44408920985E-15  0.91188000000E+02  0.91188000000E+02 0.  0.
    9900012    2    3    3    0    0 -0.20019249273E+02 -0.30738726508E+02  0.31844648309E+01  0.54367075717E+02  0.39999980712E+02 0.  0.
         12    1    3    3    0    0  0.20019249273E+02  0.30738726508E+02 -0.31844648309E+01  0.36820924283E+02  0.00000000000E+00 0. -1.
         11    1    4    4    0    0 -0.48316700174E+01 -0.24494603173E+02 -0.55024235062E+01  0.25565744356E+02  0.51100000000E-03 0. -1.
        -11    1    4    4    0    0  0.57729626366E+01 -0.11207153638E+01  0.19921437005E+01  0.62090045349E+01  0.51100000000E-03 0.  1.
        -12    1    4    4    0    0 -0.20960541892E+02 -0.51234079709E+01  0.66947446366E+01  0.22592326826E+02  0.00000000000E+00 0.  1.
</event>
<event>
 8    1  0.1269154E-006  0.9118800E+02  0.7816164E-02  0.1184000E+00
        -11   -1    0    0    0    0  0.00000000000E+00  0.00000000000E+00  0.45593999997E+02  0.45594000000E+02  0.51100000000E-03 0. -1.
         11   -1    0    0    0    0 -0.00000000000E+00 -0.00000000000E+00 -0.45593999997E+02  0.45594000000E+02  0.51100000000E-03 0.  1.
         23    2    1    2    0    0  0.00000000000E+00  0.00000000000E+00  0.00000000000E+00  0.91188000000E+02  0.91188000000E+02 0.  0.
    9900012    2    3    3    0    0  0.19780169297E+02 -0.24753914956E+02 -0.18755469588E+02  0.54367095033E+02  0.40000024747E+02 0.  0.
         12    1    3    3    0    0 -0.19780169297E+02  0.24753914956E+02  0.18755469588E+02  0.36820904967E+02  0.00000000000E+00 0. -1.
         11    1    4    4    0    0 -0.65222444189E+01 -0.12729855729E+02 -0.15809964607E+02  0.21320034715E+02  0.51100000000E-03 0. -1.
        -11    1    4    4    0    0  0.29501509306E+01 -0.72713954645E+01 -0.47078786716E+01  0.91509947198E+01  0.51100000000E-03 0.  1.
         12    1    4    4    0    0  0.23352262785E+02 -0.47526637632E+01  0.17623736903E+01  0.23896065598E+02  0.00000000000E+00 0. -1.
</event>
<event>
 8    1  0.1269154E-006  0.9118800E+02  0.7816164E-02  0.1184000E+00
        -11   -1    0    0    0    0  0.00000000000E+00  0.00000000000E+00  0.45593999997E+02  0.45594000000E+02  0.51100000000E-03 0.  1.
         11   -1    0    0    0    0 -0.00000000000E+00 -0.00000000000E+00 -0.45593999997E+02  0.45594000000E+02  0.51100000000E-03 0. -1.
         23    2    1    2    0    0  0.15543122345E-14  0.00000000000E+00  0.00000000000E+00  0.91188000000E+02  0.91188000000E+02 0.  0.
    9900012    2    3    3    0    0 -0.16007208740E+01  0.90256075952E+01 -0.35661677899E+02  0.54367093298E+02  0.40000020792E+02 0.  0.
        -12    1    3    3    0    0  0.16007208740E+01 -0.90256075952E+01  0.35661677899E+02  0.36820906702E+02  0.00000000000E+00 0.  1.
         11    1    4    4    0    0 -0.11415969424E+02  0.17707969850E+01 -0.45118588220E+01  0.12402296164E+02  0.51100000000E-03 0. -1.
        -11    1    4    4    0    0 -0.80746434628E+01  0.29052679817E+01 -0.48378699701E+01  0.98511641548E+01  0.51100000000E-03 0.  1.
         12    1    4    4    0    0  0.17889892013E+02  0.43495426285E+01 -0.26311949107E+02  0.32113632979E+02  0.00000000000E+00 0. -1.
</event>
<event>
 8    1  0.1269154E-006  0.9118800E+02  0.7816164E-02  0.1184000E+00
        -11   -1    0    0    0    0  0.00000000000E+00  0.00000000000E+00  0.45593999997E+02  0.45594000000E+02  0.51100000000E-03 0.  1.
         11   -1    0    0    0    0 -0.00000000000E+00 -0.00000000000E+00 -0.45593999997E+02  0.45594000000E+02  0.51100000000E-03 0. -1.
         23    2    1    2    0    0  0.88817841970E-15  0.35527136788E-14 -0.71054273576E-14  0.91188000000E+02  0.91188000000E+02 0.  0.
    9900012    2    3    3    0    0  0.72162854801E+01 -0.19300576148E+02 -0.30515446391E+02  0.54367089036E+02  0.40000011076E+02 0.  0.
        -12    1    3    3    0    0 -0.72162854801E+01  0.19300576148E+02  0.30515446391E+02  0.36820910964E+02  0.00000000000E+00 0.  1.
         11    1    4    4    0    0  0.76348719584E+01  0.64387379943E+01 -0.11919558594E+02  0.15550707190E+02  0.51100000000E-03 0. -1.
        -11    1    4    4    0    0 -0.28144064903E+00 -0.18025443371E+02  0.69385987257E+00  0.18040988314E+02  0.51100000000E-03 0.  1.
         12    1    4    4    0    0 -0.13714582929E+00 -0.77138707714E+01 -0.19289747669E+02  0.20775393532E+02  0.00000000000E+00 0. -1.
</event>
<event>
 8    1  0.1269154E-006  0.9118800E+02  0.7816164E-02  0.1184000E+00
        -11   -1    0    0    0    0  0.00000000000E+00  0.00000000000E+00  0.45593999997E+02  0.45594000000E+02  0.51100000000E-03 0.  1.
         11   -1    0    0    0    0 -0.00000000000E+00 -0.00000000000E+00 -0.45593999997E+02  0.45594000000E+02  0.51100000000E-03 0. -1.
         23    2    1    2    0    0 -0.35527136788E-14 -0.44408920985E-15  0.00000000000E+00  0.91188000000E+02  0.91188000000E+02 0.  0.
    9900012    2    3    3    0    0  0.30571171460E+02  0.29363653914E+01 -0.20311573242E+02  0.54367098685E+02  0.40000033071E+02 0.  0.
         12    1    3    3    0    0 -0.30571171460E+02 -0.29363653914E+01  0.20311573242E+02  0.36820901315E+02  0.00000000000E+00 0. -1.
         11    1    4    4    0    0  0.23300686804E+02  0.42275187490E+01 -0.69233753304E+01  0.24672394422E+02  0.51100000000E-03 0. -1.
        -11    1    4    4    0    0  0.64515739646E+01 -0.13049532097E+02 -0.90156547731E+01  0.17122941506E+02  0.51100000000E-03 0.  1.
        -12    1    4    4    0    0  0.81891069094E+00  0.11758378739E+02 -0.43725431385E+01  0.12571762756E+02  0.00000000000E+00 0.  1.
</event>
<event>
 8    1  0.1269154E-006  0.9118800E+02  0.7816164E-02  0.1184000E+00
        -11   -1    0    0    0    0  0.00000000000E+00  0.00000000000E+00  0.45593999997E+02  0.45594000000E+02  0.51100000000E-03 0.  1.
         11   -1    0    0    0    0 -0.00000000000E+00 -0.00000000000E+00 -0.45593999997E+02  0.45594000000E+02  0.51100000000E-03 0. -1.
         23    2    1    2    0    0  0.17763568394E-14  0.00000000000E+00  0.00000000000E+00  0.91188000000E+02  0.91188000000E+02 0.  0.
    9900012    2    3    3    0    0  0.56374578950E+01  0.16972748936E+02 -0.32185781344E+02  0.54367086666E+02  0.40000005673E+02 0.  0.
        -12    1    3    3    0    0 -0.56374578950E+01 -0.16972748936E+02  0.32185781344E+02  0.36820913334E+02  0.00000000000E+00 0.  1.
         11    1    4    4    0    0  0.10933928947E+02 -0.30900942846E+01 -0.30402632846E+02  0.32456425699E+02  0.51100000000E-03 0. -1.
        -11    1    4    4    0    0  0.68543102575E+00  0.53308596691E+01 -0.26386597226E+01  0.59875208472E+01  0.51100000000E-03 0.  1.
        -12    1    4    4    0    0 -0.59819020775E+01  0.14731983552E+02  0.85551122433E+00  0.15923140120E+02  0.00000000000E+00 0.  1.
</event>
<event>
 8    1  0.1269154E-006  0.9118800E+02  0.7816164E-02  0.1184000E+00
        -11   -1    0    0    0    0  0.00000000000E+00  0.00000000000E+00  0.45593999997E+02  0.45594000000E+02  0.51100000000E-03 0. -1.
         11   -1    0    0    0    0 -0.00000000000E+00 -0.00000000000E+00 -0.45593999997E+02  0.45594000000E+02  0.51100000000E-03 0.  1.
         23    2    1    2    0    0  0.00000000000E+00 -0.35527136788E-14  0.88817841970E-15  0.91188000000E+02  0.91188000000E+02 0.  0.
    9900012    2    3    3    0    0  0.23729816452E+02  0.28002571236E+02  0.29210746471E+01  0.54367070330E+02  0.39999968432E+02 0.  0.
         12    1    3    3    0    0 -0.23729816452E+02 -0.28002571236E+02 -0.29210746471E+01  0.36820929670E+02  0.00000000000E+00 0. -1.
         11    1    4    4    0    0 -0.17224068940E+01 -0.88927225102E+00  0.44870970790E+00  0.19896812077E+01  0.51100000000E-03 0. -1.
        -11    1    4    4    0    0  0.30519737356E+02  0.20347612507E+02  0.12019114630E+02  0.38599725643E+02  0.51100000000E-03 0.  1.
         12    1    4    4    0    0 -0.50675140100E+01  0.85442309799E+01 -0.95467496911E+01  0.13777663479E+02  0.00000000000E+00 0. -1.
</event>
<event>
 8    1  0.1269154E-006  0.9118800E+02  0.7816164E-02  0.1184000E+00
        -11   -1    0    0    0    0  0.00000000000E+00  0.00000000000E+00  0.45593999997E+02  0.45594000000E+02  0.51100000000E-03 0. -1.
         11   -1    0    0    0    0 -0.00000000000E+00 -0.00000000000E+00 -0.45593999997E+02  0.45594000000E+02  0.51100000000E-03 0.  1.
         23    2    1    2    0    0  0.00000000000E+00  0.88817841970E-15  0.00000000000E+00  0.91188000000E+02  0.91188000000E+02 0.  0.
    9900012    2    3    3    0    0 -0.10491087332E+02  0.76503455423E+01 -0.34455628528E+02  0.54367067942E+02  0.39999962988E+02 0.  0.
         12    1    3    3    0    0  0.10491087332E+02 -0.76503455423E+01  0.34455628528E+02  0.36820932058E+02  0.00000000000E+00 0. -1.
         11    1    4    4    0    0  0.15591401349E+01 -0.38416290301E+01 -0.53256157676E+01  0.67491640320E+01  0.51100000000E-03 0. -1.
        -11    1    4    4    0    0  0.66787015774E+01  0.98192633309E+01 -0.25962494652E+02  0.28549502902E+02  0.51100000000E-03 0.  1.
         12    1    4    4    0    0 -0.18728929045E+02  0.16727112415E+01 -0.31675181086E+01  0.19068401009E+02  0.00000000000E+00 0. -1.
</event>
<event>
 8    1  0.1269154E-006  0.9118800E+02  0.7816164E-02  0.1184000E+00
        -11   -1    0    0    0    0  0.00000000000E+00  0.00000000000E+00  0.45593999997E+02  0.45594000000E+02  0.51100000000E-03 0.  1.
         11   -1    0    0    0    0 -0.00000000000E+00 -0.00000000000E+00 -0.45593999997E+02  0.45594000000E+02  0.51100000000E-03 0. -1.
         23    2    1    2    0    0  0.17763568394E-14 -0.26645352591E-14  0.00000000000E+00  0.91188000000E+02  0.91188000000E+02 0.  0.
    9900012    2    3    3    0    0 -0.14934864941E+02 -0.53235866900E+01  0.33232376508E+02  0.54367060109E+02  0.39999945131E+02 0.  0.
         12    1    3    3    0    0  0.14934864941E+02  0.53235866900E+01 -0.33232376508E+02  0.36820939891E+02  0.00000000000E+00 0. -1.
         11    1    4    4    0    0  0.65390222266E+01 -0.90320164044E+01  0.10599138619E+01  0.11200872719E+02  0.51100000000E-03 0. -1.
        -11    1    4    4    0    0 -0.21553465667E+02  0.90700719276E+01  0.26953629746E+02  0.35683557051E+02  0.51100000000E-03 0.  1.
        -12    1    4    4    0    0  0.79578499715E-01 -0.53616422133E+01  0.52188329003E+01  0.74826303398E+01  0.00000000000E+00 0.  1.
</event>
<event>
 8    1  0.1269154E-006  0.9118800E+02  0.7816164E-02  0.1184000E+00
        -11   -1    0    0    0    0  0.00000000000E+00  0.00000000000E+00  0.45593999997E+02  0.45594000000E+02  0.51100000000E-03 0. -1.
         11   -1    0    0    0    0 -0.00000000000E+00 -0.00000000000E+00 -0.45593999997E+02  0.45594000000E+02  0.51100000000E-03 0.  1.
         23    2    1    2    0    0  0.00000000000E+00 -0.35527136788E-14  0.00000000000E+00  0.91188000000E+02  0.91188000000E+02 0.  0.
    9900012    2    3    3    0    0  0.23509720814E+02  0.28143022768E+02  0.33230936451E+01  0.54367086722E+02  0.40000005800E+02 0.  0.
        -12    1    3    3    0    0 -0.23509720814E+02 -0.28143022768E+02 -0.33230936451E+01  0.36820913278E+02  0.00000000000E+00 0.  1.
         11    1    4    4    0    0 -0.25372721975E+01  0.12961206651E+02 -0.86113121700E+01  0.15766588902E+02  0.51100000000E-03 0.  1.
        -11    1    4    4    0    0  0.12015282328E+02  0.39388604294E+01  0.15772392527E+02  0.20215093302E+02  0.51100000000E-03 0. -1.
        -12    1    4    4    0    0  0.14031710683E+02  0.11242955687E+02 -0.38379867123E+01  0.18385404518E+02  0.00000000000E+00 0.  1.
</event>
<event>
 8    1  0.1269154E-006  0.9118800E+02  0.7816164E-02  0.1184000E+00
        -11   -1    0    0    0    0  0.00000000000E+00  0.00000000000E+00  0.45593999997E+02  0.45594000000E+02  0.51100000000E-03 0. -1.
         11   -1    0    0    0    0 -0.00000000000E+00 -0.00000000000E+00 -0.45593999997E+02  0.45594000000E+02  0.51100000000E-03 0.  1.
         23    2    1    2    0    0  0.00000000000E+00  0.17763568394E-14 -0.17763568394E-14  0.91188000000E+02  0.91188000000E+02 0.  0.
    9900012    2    3    3    0    0 -0.32201285888E+02 -0.14102254681E+02 -0.10953759950E+02  0.54367064964E+02  0.39999956197E+02 0.  0.
         12    1    3    3    0    0  0.32201285888E+02  0.14102254681E+02  0.10953759950E+02  0.36820935036E+02  0.00000000000E+00 0. -1.
         11    1    4    4    0    0  0.52690510790E+01  0.75211728092E+01  0.11888331439E+01  0.92598198797E+01  0.51100000000E-03 0. -1.
        -11    1    4    4    0    0 -0.22524658505E+02 -0.10955463795E+02 -0.61480214612E+01  0.25791095283E+02  0.51100000000E-03 0.  1.
         12    1    4    4    0    0 -0.14945678461E+02 -0.10667963695E+02 -0.59945716324E+01  0.19316149801E+02  0.00000000000E+00 0. -1.
</event>
<event>
 8    1  0.1269154E-006  0.9118800E+02  0.7816164E-02  0.1184000E+00
        -11   -1    0    0    0    0  0.00000000000E+00  0.00000000000E+00  0.45593999997E+02  0.45594000000E+02  0.51100000000E-03 0.  1.
         11   -1    0    0    0    0 -0.00000000000E+00 -0.00000000000E+00 -0.45593999997E+02  0.45594000000E+02  0.51100000000E-03 0. -1.
         23    2    1    2    0    0 -0.71054273576E-14  0.00000000000E+00 -0.17763568394E-14  0.91188000000E+02  0.91188000000E+02 0.  0.
    9900012    2    3    3    0    0  0.34667869938E+02 -0.10658011337E+02 -0.63502342118E+01  0.54367083577E+02  0.39999998630E+02 0.  0.
         12    1    3    3    0    0 -0.34667869938E+02  0.10658011337E+02  0.63502342118E+01  0.36820916423E+02  0.00000000000E+00 0. -1.
         11    1    4    4    0    0  0.16760314943E+02  0.72507557698E+01  0.37369561807E+01  0.18639915718E+02  0.51100000000E-03 0. -1.
        -11    1    4    4    0    0  0.10151899506E+02 -0.11773325067E+02 -0.17470647873E+02  0.23385803046E+02  0.51100000000E-03 0.  1.
        -12    1    4    4    0    0  0.77556554894E+01 -0.61354420395E+01  0.73834574807E+01  0.12341364813E+02  0.00000000000E+00 0.  1.
</event>
<event>
 8    1  0.1269154E-006  0.9118800E+02  0.7816164E-02  0.1184000E+00
        -11   -1    0    0    0    0  0.00000000000E+00  0.00000000000E+00  0.45593999997E+02  0.45594000000E+02  0.51100000000E-03 0.  1.
         11   -1    0    0    0    0 -0.00000000000E+00 -0.00000000000E+00 -0.45593999997E+02  0.45594000000E+02  0.51100000000E-03 0. -1.
         23    2    1    2    0    0  0.00000000000E+00  0.00000000000E+00  0.00000000000E+00  0.91188000000E+02  0.91188000000E+02 0.  0.
    9900012    2    3    3    0    0  0.15961654056E+02 -0.16526101827E+02 -0.28773102897E+02  0.54367110656E+02  0.40000060361E+02 0.  0.
        -12    1    3    3    0    0 -0.15961654056E+02  0.16526101827E+02  0.28773102897E+02  0.36820889344E+02  0.00000000000E+00 0.  1.
         11    1    4    4    0    0 -0.49506096141E+01  0.92975901752E+01 -0.28360521189E+00  0.10537274353E+02  0.51100000000E-03 0. -1.
        -11    1    4    4    0    0  0.16363645293E+02 -0.19646362512E+02 -0.23062516366E+02  0.34432950914E+02  0.51100000000E-03 0.  1.
         12    1    4    4    0    0  0.45486183767E+01 -0.61773294905E+01 -0.54269813189E+01  0.93968853886E+01  0.00000000000E+00 0. -1.
</event>
<event>
 8    1  0.1269154E-006  0.9118800E+02  0.7816164E-02  0.1184000E+00
        -11   -1    0    0    0    0  0.00000000000E+00  0.00000000000E+00  0.45593999997E+02  0.45594000000E+02  0.51100000000E-03 0. -1.
         11   -1    0    0    0    0 -0.00000000000E+00 -0.00000000000E+00 -0.45593999997E+02  0.45594000000E+02  0.51100000000E-03 0.  1.
         23    2    1    2    0    0 -0.35527136788E-14 -0.35527136788E-14 -0.17763568394E-14  0.91188000000E+02  0.91188000000E+02 0.  0.
    9900012    2    3    3    0    0 -0.17818160006E+02 -0.28407170064E+02 -0.15209400124E+02  0.54367082180E+02  0.39999995445E+02 0.  0.
         12    1    3    3    0    0  0.17818160006E+02  0.28407170064E+02  0.15209400124E+02  0.36820917820E+02  0.00000000000E+00 0. -1.
         11    1    4    4    0    0  0.50849267444E+01  0.28167926248E+01 -0.52197399537E+01  0.78125851120E+01  0.51100000000E-03 0. -1.
        -11    1    4    4    0    0 -0.21977131004E+02 -0.17656551322E+02  0.22200853325E+01  0.28278558501E+02  0.51100000000E-03 0.  1.
        -12    1    4    4    0    0 -0.92595574568E+00 -0.13567411366E+02 -0.12209745503E+02  0.18275938566E+02  0.00000000000E+00 0.  1.
</event>
<event>
 8    1  0.1269154E-006  0.9118800E+02  0.7816164E-02  0.1184000E+00
        -11   -1    0    0    0    0  0.00000000000E+00  0.00000000000E+00  0.45593999997E+02  0.45594000000E+02  0.51100000000E-03 0.  1.
         11   -1    0    0    0    0 -0.00000000000E+00 -0.00000000000E+00 -0.45593999997E+02  0.45594000000E+02  0.51100000000E-03 0. -1.
         23    2    1    2    0    0  0.00000000000E+00  0.17763568394E-14 -0.35527136788E-14  0.91188000000E+02  0.91188000000E+02 0.  0.
    9900012    2    3    3    0    0  0.20636672387E+02 -0.99140969242E+01  0.28837790592E+02  0.54367085682E+02  0.40000003428E+02 0.  0.
         12    1    3    3    0    0 -0.20636672387E+02  0.99140969242E+01 -0.28837790592E+02  0.36820914318E+02  0.00000000000E+00 0. -1.
         11    1    4    4    0    0 -0.86117050889E+01 -0.29867257974E+01  0.60292190501E+01  0.10928562492E+02  0.51100000000E-03 0. -1.
        -11    1    4    4    0    0  0.33929216101E+01  0.66588270123E+01  0.69383955143E+01  0.10197706939E+02  0.51100000000E-03 0.  1.
        -12    1    4    4    0    0  0.25855455865E+02 -0.13586198139E+02  0.15870176028E+02  0.33240816251E+02  0.00000000000E+00 0.  1.
</event>
<event>
 8    1  0.1269154E-006  0.9118800E+02  0.7816164E-02  0.1184000E+00
        -11   -1    0    0    0    0  0.00000000000E+00  0.00000000000E+00  0.45593999997E+02  0.45594000000E+02  0.51100000000E-03 0.  1.
         11   -1    0    0    0    0 -0.00000000000E+00 -0.00000000000E+00 -0.45593999997E+02  0.45594000000E+02  0.51100000000E-03 0. -1.
         23    2    1    2    0    0 -0.88817841970E-15 -0.35527136788E-14  0.35527136788E-14  0.91188000000E+02  0.91188000000E+02 0.  0.
    9900012    2    3    3    0    0  0.62026848986E+01  0.17691505614E+02 -0.31690963789E+02  0.54367083978E+02  0.39999999544E+02 0.  0.
        -12    1    3    3    0    0 -0.62026848986E+01 -0.17691505614E+02  0.31690963789E+02  0.36820916022E+02  0.00000000000E+00 0.  1.
         11    1    4    4    0    0  0.20210052171E+02  0.10751777881E+02 -0.20105801008E+02  0.30467854713E+02  0.51100000000E-03 0. -1.
        -11    1    4    4    0    0  0.89354007553E+00 -0.28708442573E+01 -0.10754855707E+01  0.31932475774E+01  0.51100000000E-03 0.  1.
        -12    1    4    4    0    0 -0.14900907348E+02  0.98105719903E+01 -0.10509677210E+02  0.20705981687E+02  0.00000000000E+00 0.  1.
</event>
<event>
 8    1  0.1269154E-006  0.9118800E+02  0.7816164E-02  0.1184000E+00
        -11   -1    0    0    0    0  0.00000000000E+00  0.00000000000E+00  0.45593999997E+02  0.45594000000E+02  0.51100000000E-03 0.  1.
         11   -1    0    0    0    0 -0.00000000000E+00 -0.00000000000E+00 -0.45593999997E+02  0.45594000000E+02  0.51100000000E-03 0. -1.
         23    2    1    2    0    0  0.00000000000E+00  0.00000000000E+00  0.00000000000E+00  0.91188000000E+02  0.91188000000E+02 0.  0.
    9900012    2    3    3    0    0  0.20672438955E+02  0.30389194495E+02 -0.22195384078E+01  0.54367092554E+02  0.40000019095E+02 0.  0.
         12    1    3    3    0    0 -0.20672438955E+02 -0.30389194495E+02  0.22195384078E+01  0.36820907446E+02  0.00000000000E+00 0. -1.
         11    1    4    4    0    0  0.11573516366E+01 -0.67487938044E+01  0.37203744894E+01  0.77927445247E+01  0.51100000000E-03 0. -1.
        -11    1    4    4    0    0  0.17472323274E+02  0.30323470260E+02  0.30274479297E+01  0.35127772067E+02  0.51100000000E-03 0.  1.
        -12    1    4    4    0    0  0.20427640444E+01  0.68145180398E+01 -0.89673608269E+01  0.11446575962E+02  0.00000000000E+00 0.  1.
</event>
<event>
 8    1  0.1269154E-006  0.9118800E+02  0.7816164E-02  0.1184000E+00
        -11   -1    0    0    0    0  0.00000000000E+00  0.00000000000E+00  0.45593999997E+02  0.45594000000E+02  0.51100000000E-03 0. -1.
         11   -1    0    0    0    0 -0.00000000000E+00 -0.00000000000E+00 -0.45593999997E+02  0.45594000000E+02  0.51100000000E-03 0.  1.
         23    2    1    2    0    0  0.71054273576E-14  0.00000000000E+00  0.17763568394E-14  0.91188000000E+02  0.91188000000E+02 0.  0.
    9900012    2    3    3    0    0  0.33776033815E+02  0.11355674556E+02 -0.92742834299E+01  0.54367025841E+02  0.39999867008E+02 0.  0.
         12    1    3    3    0    0 -0.33776033815E+02 -0.11355674556E+02  0.92742834299E+01  0.36820974159E+02  0.00000000000E+00 0. -1.
         11    1    4    4    0    0  0.13990339442E+02 -0.94967404894E+00  0.98297204856E+01  0.17124686379E+02  0.51100000000E-03 0. -1.
        -11    1    4    4    0    0  0.22695247457E+02  0.11424086278E+02 -0.21568783110E+02  0.33328612476E+02  0.51100000000E-03 0.  1.
         12    1    4    4    0    0 -0.29095530845E+01  0.88126232707E+00  0.24647791944E+01  0.39137269855E+01  0.00000000000E+00 0. -1.
</event>
<event>
 8    1  0.1269154E-006  0.9118800E+02  0.7816164E-02  0.1184000E+00
        -11   -1    0    0    0    0  0.00000000000E+00  0.00000000000E+00  0.45593999997E+02  0.45594000000E+02  0.51100000000E-03 0.  1.
         11   -1    0    0    0    0 -0.00000000000E+00 -0.00000000000E+00 -0.45593999997E+02  0.45594000000E+02  0.51100000000E-03 0. -1.
         23    2    1    2    0    0  0.00000000000E+00  0.00000000000E+00  0.00000000000E+00  0.91188000000E+02  0.91188000000E+02 0.  0.
    9900012    2    3    3    0    0 -0.37404411338E+01 -0.26703147955E+02  0.25074517643E+02  0.54367075981E+02  0.39999981314E+02 0.  0.
         12    1    3    3    0    0  0.37404411338E+01  0.26703147955E+02 -0.25074517643E+02  0.36820924019E+02  0.00000000000E+00 0. -1.
         11    1    4    4    0    0 -0.77586353618E+01 -0.53075977411E+01  0.18895010809E+01  0.95883904308E+01  0.51100000000E-03 0. -1.
        -11    1    4    4    0    0 -0.44501213498E+01  0.70473892078E+01  0.28719965334E+01  0.88157608306E+01  0.51100000000E-03 0.  1.
        -12    1    4    4    0    0  0.84683155777E+01 -0.28442939422E+02  0.20313020029E+02  0.35962924719E+02  0.00000000000E+00 0.  1.
</event>
<event>
 8    1  0.1269154E-006  0.9118800E+02  0.7816164E-02  0.1184000E+00
        -11   -1    0    0    0    0  0.00000000000E+00  0.00000000000E+00  0.45593999997E+02  0.45594000000E+02  0.51100000000E-03 0.  1.
         11   -1    0    0    0    0 -0.00000000000E+00 -0.00000000000E+00 -0.45593999997E+02  0.45594000000E+02  0.51100000000E-03 0. -1.
         23    2    1    2    0    0  0.88817841970E-15 -0.71054273576E-14  0.00000000000E+00  0.91188000000E+02  0.91188000000E+02 0.  0.
    9900012    2    3    3    0    0 -0.68045040454E+01 -0.34590519292E+02 -0.10628923297E+02  0.54367091393E+02  0.40000016449E+02 0.  0.
        -12    1    3    3    0    0  0.68045040454E+01  0.34590519292E+02  0.10628923297E+02  0.36820908607E+02  0.00000000000E+00 0.  1.
         11    1    4    4    0    0 -0.14962281548E-02 -0.25621330273E+02 -0.67850155871E+01  0.26504509125E+02  0.51100000000E-03 0. -1.
        -11    1    4    4    0    0 -0.11858481287E+01 -0.16956735293E+02  0.86796991159E+00  0.17020296109E+02  0.51100000000E-03 0.  1.
        -12    1    4    4    0    0 -0.56171596886E+01  0.79875462744E+01 -0.47118776211E+01  0.10842286160E+02  0.00000000000E+00 0.  1.
</event>
<event>
 8    1  0.1269154E-006  0.9118800E+02  0.7816164E-02  0.1184000E+00
        -11   -1    0    0    0    0  0.00000000000E+00  0.00000000000E+00  0.45593999997E+02  0.45594000000E+02  0.51100000000E-03 0. -1.
         11   -1    0    0    0    0 -0.00000000000E+00 -0.00000000000E+00 -0.45593999997E+02  0.45594000000E+02  0.51100000000E-03 0.  1.
         23    2    1    2    0    0  0.35527136788E-14  0.22204460493E-14  0.00000000000E+00  0.91188000000E+02  0.91188000000E+02 0.  0.
    9900012    2    3    3    0    0 -0.30671047977E+02  0.31291725111E+01 -0.20131436903E+02  0.54367086698E+02  0.40000005745E+02 0.  0.
         12    1    3    3    0    0  0.30671047977E+02 -0.31291725111E+01  0.20131436903E+02  0.36820913302E+02  0.00000000000E+00 0. -1.
         11    1    4    4    0    0  0.39830525994E+01  0.10664390269E+02 -0.69285244382E+00  0.11404997702E+02  0.51100000000E-03 0. -1.
        -11    1    4    4    0    0 -0.14631651011E+02 -0.72536692015E+01 -0.20832699049E+01  0.16463321109E+02  0.51100000000E-03 0.  1.
         12    1    4    4    0    0 -0.20022449566E+02 -0.28154855647E+00 -0.17355314554E+02  0.26498767886E+02  0.00000000000E+00 0. -1.
</event>
<event>
 8    1  0.1269154E-006  0.9118800E+02  0.7816164E-02  0.1184000E+00
        -11   -1    0    0    0    0  0.00000000000E+00  0.00000000000E+00  0.45593999997E+02  0.45594000000E+02  0.51100000000E-03 0.  1.
         11   -1    0    0    0    0 -0.00000000000E+00 -0.00000000000E+00 -0.45593999997E+02  0.45594000000E+02  0.51100000000E-03 0. -1.
         23    2    1    2    0    0  0.17763568394E-14  0.00000000000E+00  0.00000000000E+00  0.91188000000E+02  0.91188000000E+02 0.  0.
    9900012    2    3    3    0    0  0.12473912731E+02  0.33311321940E+02 -0.95150895336E+01  0.54367087504E+02  0.40000007582E+02 0.  0.
        -12    1    3    3    0    0 -0.12473912731E+02 -0.33311321940E+02  0.95150895336E+01  0.36820912496E+02  0.00000000000E+00 0.  1.
         11    1    4    4    0    0  0.24399999822E+02  0.16913981082E+02 -0.37403317960E+01  0.29923783678E+02  0.51100000000E-03 0. -1.
        -11    1    4    4    0    0 -0.42925858862E+01  0.40547081123E+01  0.38320009800E+01  0.70392601343E+01  0.51100000000E-03 0.  1.
         12    1    4    4    0    0 -0.76335012055E+01  0.12342632746E+02 -0.96067587177E+01  0.17404043691E+02  0.00000000000E+00 0. -1.
</event>
<event>
 8    1  0.1269154E-006  0.9118800E+02  0.7816164E-02  0.1184000E+00
        -11   -1    0    0    0    0  0.00000000000E+00  0.00000000000E+00  0.45593999997E+02  0.45594000000E+02  0.51100000000E-03 0. -1.
         11   -1    0    0    0    0 -0.00000000000E+00 -0.00000000000E+00 -0.45593999997E+02  0.45594000000E+02  0.51100000000E-03 0.  1.
         23    2    1    2    0    0  0.00000000000E+00  0.00000000000E+00  0.00000000000E+00  0.91188000000E+02  0.91188000000E+02 0.  0.
    9900012    2    3    3    0    0  0.33375915251E+02 -0.11482311525E+02  0.10487360315E+02  0.54367083075E+02  0.39999997486E+02 0.  0.
         12    1    3    3    0    0 -0.33375915251E+02  0.11482311525E+02 -0.10487360315E+02  0.36820916925E+02  0.00000000000E+00 0. -1.
         11    1    4    4    0    0  0.18388806815E+02  0.16125156840E+01  0.27491432623E+01  0.18662963641E+02  0.51100000000E-03 0. -1.
        -11    1    4    4    0    0  0.22364813786E+02 -0.10610839484E+02  0.37734513388E-01  0.24754317490E+02  0.51100000000E-03 0.  1.
         12    1    4    4    0    0 -0.73777053505E+01 -0.24839877253E+01  0.77004825398E+01  0.10949801944E+02  0.00000000000E+00 0. -1.
</event>
<event>
 8    1  0.1269154E-006  0.9118800E+02  0.7816164E-02  0.1184000E+00
        -11   -1    0    0    0    0  0.00000000000E+00  0.00000000000E+00  0.45593999997E+02  0.45594000000E+02  0.51100000000E-03 0. -1.
         11   -1    0    0    0    0 -0.00000000000E+00 -0.00000000000E+00 -0.45593999997E+02  0.45594000000E+02  0.51100000000E-03 0.  1.
         23    2    1    2    0    0  0.88817841970E-15  0.35527136788E-14  0.35527136788E-14  0.91188000000E+02  0.91188000000E+02 0.  0.
    9900012    2    3    3    0    0 -0.38447975776E+01 -0.29091971188E+02 -0.22240957036E+02  0.54367008353E+02  0.39999827142E+02 0.  0.
         12    1    3    3    0    0  0.38447975776E+01  0.29091971188E+02  0.22240957036E+02  0.36820991647E+02  0.00000000000E+00 0. -1.
         11    1    4    4    0    0 -0.64297406109E+01  0.59288875128E+01 -0.14708471070E+02  0.17112346214E+02  0.51100000000E-03 0. -1.
        -11    1    4    4    0    0  0.10156291765E+01 -0.29720679900E+02 -0.97547524254E+01  0.31297052761E+02  0.51100000000E-03 0.  1.
        -12    1    4    4    0    0  0.15693138568E+01 -0.53001787999E+01  0.22222664596E+01  0.59576093787E+01  0.00000000000E+00 0.  1.
</event>
<event>
 8    1  0.1269154E-006  0.9118800E+02  0.7816164E-02  0.1184000E+00
        -11   -1    0    0    0    0  0.00000000000E+00  0.00000000000E+00  0.45593999997E+02  0.45594000000E+02  0.51100000000E-03 0.  1.
         11   -1    0    0    0    0 -0.00000000000E+00 -0.00000000000E+00 -0.45593999997E+02  0.45594000000E+02  0.51100000000E-03 0. -1.
         23    2    1    2    0    0  0.00000000000E+00  0.88817841970E-15  0.00000000000E+00  0.91188000000E+02  0.91188000000E+02 0.  0.
    9900012    2    3    3    0    0 -0.79099944626E+01  0.72371805070E+01 -0.35225495407E+02  0.54367077677E+02  0.39999985179E+02 0.  0.
        -12    1    3    3    0    0  0.79099944626E+01 -0.72371805070E+01  0.35225495407E+02  0.36820922323E+02  0.00000000000E+00 0.  1.
         11    1    4    4    0    0  0.69575521723E+01  0.75897719616E+01 -0.18138977246E+02  0.20857484663E+02  0.51100000000E-03 0. -1.
        -11    1    4    4    0    0 -0.30727976709E+01  0.49861551303E+01 -0.19481771167E+02  0.20343137333E+02  0.51100000000E-03 0.  1.
        -12    1    4    4    0    0 -0.11794748964E+02 -0.53387465849E+01  0.23952530060E+01  0.13166455680E+02  0.00000000000E+00 0.  1.
</event>
<event>
 8    1  0.1269154E-006  0.9118800E+02  0.7816164E-02  0.1184000E+00
        -11   -1    0    0    0    0  0.00000000000E+00  0.00000000000E+00  0.45593999997E+02  0.45594000000E+02  0.51100000000E-03 0. -1.
         11   -1    0    0    0    0 -0.00000000000E+00 -0.00000000000E+00 -0.45593999997E+02  0.45594000000E+02  0.51100000000E-03 0.  1.
         23    2    1    2    0    0  0.55511151231E-16 -0.88817841970E-15  0.00000000000E+00  0.91188000000E+02  0.91188000000E+02 0.  0.
    9900012    2    3    3    0    0 -0.34245332231E+00 -0.52464422871E+01  0.36443609919E+02  0.54367093780E+02  0.40000021890E+02 0.  0.
        -12    1    3    3    0    0  0.34245332231E+00  0.52464422871E+01 -0.36443609919E+02  0.36820906220E+02  0.00000000000E+00 0.  1.
         11    1    4    4    0    0 -0.12972781564E+01  0.85511632954E+01 -0.58606709342E+00  0.86688407079E+01  0.51100000000E-03 0. -1.
        -11    1    4    4    0    0 -0.19684786849E-01  0.35607998972E+01 -0.11537165426E+01  0.37430930419E+01  0.51100000000E-03 0.  1.
         12    1    4    4    0    0  0.97450962094E+00 -0.17358405480E+02  0.38183393555E+02  0.41955160030E+02  0.00000000000E+00 0. -1.
</event>
<event>
 8    1  0.1269154E-006  0.9118800E+02  0.7816164E-02  0.1184000E+00
        -11   -1    0    0    0    0  0.00000000000E+00  0.00000000000E+00  0.45593999997E+02  0.45594000000E+02  0.51100000000E-03 0. -1.
         11   -1    0    0    0    0 -0.00000000000E+00 -0.00000000000E+00 -0.45593999997E+02  0.45594000000E+02  0.51100000000E-03 0.  1.
         23    2    1    2    0    0 -0.17763568394E-14  0.00000000000E+00  0.00000000000E+00  0.91188000000E+02  0.91188000000E+02 0.  0.
    9900012    2    3    3    0    0 -0.11747057423E+02 -0.21930716300E+02  0.27144612823E+02  0.54367086366E+02  0.40000004989E+02 0.  0.
        -12    1    3    3    0    0  0.11747057423E+02  0.21930716300E+02 -0.27144612823E+02  0.36820913634E+02  0.00000000000E+00 0.  1.
         11    1    4    4    0    0 -0.10601978401E+02 -0.14386530369E+02  0.24913249206E+01  0.18043860513E+02  0.51100000000E-03 0. -1.
        -11    1    4    4    0    0  0.12061136990E+02 -0.31799121168E+01  0.89868199557E+01  0.15373542199E+02  0.51100000000E-03 0.  1.
        -12    1    4    4    0    0 -0.13206216012E+02 -0.43642738139E+01  0.15666467947E+02  0.20949683654E+02  0.00000000000E+00 0.  1.
</event>
<event>
 8    1  0.1269154E-006  0.9118800E+02  0.7816164E-02  0.1184000E+00
        -11   -1    0    0    0    0  0.00000000000E+00  0.00000000000E+00  0.45593999997E+02  0.45594000000E+02  0.51100000000E-03 0.  1.
         11   -1    0    0    0    0 -0.00000000000E+00 -0.00000000000E+00 -0.45593999997E+02  0.45594000000E+02  0.51100000000E-03 0. -1.
         23    2    1    2    0    0 -0.71054273576E-14  0.00000000000E+00  0.17763568394E-14  0.91188000000E+02  0.91188000000E+02 0.  0.
    9900012    2    3    3    0    0  0.34406364693E+02  0.70574999852E+01 -0.11053239646E+02  0.54367077359E+02  0.39999984456E+02 0.  0.
         12    1    3    3    0    0 -0.34406364693E+02 -0.70574999852E+01  0.11053239646E+02  0.36820922641E+02  0.00000000000E+00 0. -1.
         11    1    4    4    0    0 -0.46884417490E+01 -0.10429452204E+01  0.21115417268E+01  0.52466970078E+01  0.51100000000E-03 0. -1.
        -11    1    4    4    0    0  0.32137864567E+02 -0.49343807732E+01 -0.99074699450E+01  0.33990416496E+02  0.51100000000E-03 0.  1.
        -12    1    4    4    0    0  0.69569418748E+01  0.13034825979E+02 -0.32573114276E+01  0.15129963856E+02  0.00000000000E+00 0.  1.
</event>
<event>
 8    1  0.1269154E-006  0.9118800E+02  0.7816164E-02  0.1184000E+00
        -11   -1    0    0    0    0  0.00000000000E+00  0.00000000000E+00  0.45593999997E+02  0.45594000000E+02  0.51100000000E-03 0. -1.
         11   -1    0    0    0    0 -0.00000000000E+00 -0.00000000000E+00 -0.45593999997E+02  0.45594000000E+02  0.51100000000E-03 0.  1.
         23    2    1    2    0    0  0.00000000000E+00  0.00000000000E+00  0.00000000000E+00  0.91188000000E+02  0.91188000000E+02 0.  0.
    9900012    2    3    3    0    0 -0.29199950578E+02 -0.16367799111E+02 -0.15337434487E+02  0.54367097537E+02  0.40000030456E+02 0.  0.
         12    1    3    3    0    0  0.29199950578E+02  0.16367799111E+02  0.15337434487E+02  0.36820902463E+02  0.00000000000E+00 0. -1.
         11    1    4    4    0    0 -0.10534308737E+02 -0.70352088941E+01 -0.11813141472E+00  0.12668061416E+02  0.51100000000E-03 0. -1.
        -11    1    4    4    0    0 -0.22257848341E+02 -0.16651813988E+02 -0.43873032132E+01  0.28141484531E+02  0.51100000000E-03 0.  1.
        -12    1    4    4    0    0  0.35922065004E+01  0.73192237711E+01 -0.10831999859E+02  0.13557551590E+02  0.00000000000E+00 0.  1.
</event>
<event>
 8    1  0.1269154E-006  0.9118800E+02  0.7816164E-02  0.1184000E+00
        -11   -1    0    0    0    0  0.00000000000E+00  0.00000000000E+00  0.45593999997E+02  0.45594000000E+02  0.51100000000E-03 0.  1.
         11   -1    0    0    0    0 -0.00000000000E+00 -0.00000000000E+00 -0.45593999997E+02  0.45594000000E+02  0.51100000000E-03 0. -1.
         23    2    1    2    0    0  0.00000000000E+00  0.00000000000E+00  0.00000000000E+00  0.91188000000E+02  0.91188000000E+02 0.  0.
    9900012    2    3    3    0    0 -0.51944468262E+01 -0.28240638577E+02 -0.23049166503E+02  0.54367081740E+02  0.39999994442E+02 0.  0.
        -12    1    3    3    0    0  0.51944468262E+01  0.28240638577E+02  0.23049166503E+02  0.36820918260E+02  0.00000000000E+00 0.  1.
         11    1    4    4    0    0 -0.42307560587E+01 -0.46049156369E+00 -0.17635439382E+02  0.18141666731E+02  0.51100000000E-03 0. -1.
        -11    1    4    4    0    0 -0.66794165679E+01 -0.28380199717E+02 -0.75109933774E+01  0.30107563227E+02  0.51100000000E-03 0.  1.
        -12    1    4    4    0    0  0.57157258005E+01  0.60005270417E+00  0.20972662565E+01  0.61178517818E+01  0.00000000000E+00 0.  1.
</event>
<event>
 8    1  0.1269154E-006  0.9118800E+02  0.7816164E-02  0.1184000E+00
        -11   -1    0    0    0    0  0.00000000000E+00  0.00000000000E+00  0.45593999997E+02  0.45594000000E+02  0.51100000000E-03 0.  1.
         11   -1    0    0    0    0 -0.00000000000E+00 -0.00000000000E+00 -0.45593999997E+02  0.45594000000E+02  0.51100000000E-03 0. -1.
         23    2    1    2    0    0  0.00000000000E+00 -0.19984014443E-14  0.00000000000E+00  0.91188000000E+02  0.91188000000E+02 0.  0.
    9900012    2    3    3    0    0  0.16524080005E+02  0.11749988041E+01 -0.32883974555E+02  0.54367059969E+02  0.39999944812E+02 0.  0.
        -12    1    3    3    0    0 -0.16524080005E+02 -0.11749988041E+01  0.32883974555E+02  0.36820940031E+02  0.00000000000E+00 0.  1.
         11    1    4    4    0    0  0.95413681727E+01 -0.95048965462E+01 -0.10252740544E+02  0.16926294748E+02  0.51100000000E-03 0. -1.
        -11    1    4    4    0    0 -0.16532666654E+01  0.15362943582E+02 -0.22885591746E+02  0.27613468380E+02  0.51100000000E-03 0.  1.
        -12    1    4    4    0    0  0.86359784980E+01 -0.46830482314E+01  0.25435773477E+00  0.98272968416E+01  0.00000000000E+00 0.  1.
</event>
<event>
 8    1  0.1269154E-006  0.9118800E+02  0.7816164E-02  0.1184000E+00
        -11   -1    0    0    0    0  0.00000000000E+00  0.00000000000E+00  0.45593999997E+02  0.45594000000E+02  0.51100000000E-03 0.  1.
         11   -1    0    0    0    0 -0.00000000000E+00 -0.00000000000E+00 -0.45593999997E+02  0.45594000000E+02  0.51100000000E-03 0. -1.
         23    2    1    2    0    0 -0.17763568394E-14  0.00000000000E+00  0.00000000000E+00  0.91188000000E+02  0.91188000000E+02 0.  0.
    9900012    2    3    3    0    0 -0.14167210237E+02 -0.33867624358E+02  0.28380221825E+01  0.54367079378E+02  0.39999989059E+02 0.  0.
         12    1    3    3    0    0  0.14167210237E+02  0.33867624358E+02 -0.28380221825E+01  0.36820920622E+02  0.00000000000E+00 0. -1.
         11    1    4    4    0    0 -0.51987651781E+00  0.31394021126E+01 -0.43002098500E+01  0.53495721543E+01  0.51100000000E-03 0. -1.
        -11    1    4    4    0    0 -0.53989975200E+01 -0.36472581766E+02 -0.17093750050E+01  0.36909624193E+02  0.51100000000E-03 0.  1.
        -12    1    4    4    0    0 -0.82483361989E+01 -0.53444470380E+00  0.88476070376E+01  0.12107883031E+02  0.00000000000E+00 0.  1.
</event>
<event>
 8    1  0.1269154E-006  0.9118800E+02  0.7816164E-02  0.1184000E+00
        -11   -1    0    0    0    0  0.00000000000E+00  0.00000000000E+00  0.45593999997E+02  0.45594000000E+02  0.51100000000E-03 0. -1.
         11   -1    0    0    0    0 -0.00000000000E+00 -0.00000000000E+00 -0.45593999997E+02  0.45594000000E+02  0.51100000000E-03 0.  1.
         23    2    1    2    0    0 -0.35527136788E-14 -0.35527136788E-14  0.00000000000E+00  0.91188000000E+02  0.91188000000E+02 0.  0.
    9900012    2    3    3    0    0  0.21446783920E+02 -0.29839154548E+02  0.23323888795E+01  0.54367085800E+02  0.40000003698E+02 0.  0.
         12    1    3    3    0    0 -0.21446783920E+02  0.29839154548E+02 -0.23323888795E+01  0.36820914200E+02  0.00000000000E+00 0. -1.
         11    1    4    4    0    0  0.42827875305E+01 -0.28651356588E+02  0.14801843059E+01  0.29007472300E+02  0.51100000000E-03 0.  1.
        -11    1    4    4    0    0  0.16475793385E+02  0.34887619520E+01  0.64491013611E+01  0.18033694470E+02  0.51100000000E-03 0. -1.
         12    1    4    4    0    0  0.68820300401E+00 -0.46765599115E+01 -0.55968967875E+01  0.73259190298E+01  0.00000000000E+00 0. -1.
</event>
<event>
 8    1  0.1269154E-006  0.9118800E+02  0.7816164E-02  0.1184000E+00
        -11   -1    0    0    0    0  0.00000000000E+00  0.00000000000E+00  0.45593999997E+02  0.45594000000E+02  0.51100000000E-03 0. -1.
         11   -1    0    0    0    0 -0.00000000000E+00 -0.00000000000E+00 -0.45593999997E+02  0.45594000000E+02  0.51100000000E-03 0.  1.
         23    2    1    2    0    0  0.00000000000E+00 -0.26645352591E-14  0.00000000000E+00  0.91188000000E+02  0.91188000000E+02 0.  0.
    9900012    2    3    3    0    0 -0.19248095003E+02  0.72318144813E+01 -0.30544907600E+02  0.54367086347E+02  0.40000004945E+02 0.  0.
         12    1    3    3    0    0  0.19248095003E+02 -0.72318144813E+01  0.30544907600E+02  0.36820913653E+02  0.00000000000E+00 0. -1.
         11    1    4    4    0    0  0.15506351015E+01 -0.73095715687E+01 -0.17120266083E+02  0.18679877321E+02  0.51100000000E-03 0. -1.
        -11    1    4    4    0    0 -0.87980172749E+01  0.12086272209E+02 -0.17276626852E+02  0.22846551589E+02  0.51100000000E-03 0.  1.
         12    1    4    4    0    0 -0.12000712829E+02  0.24551138412E+01  0.38519853342E+01  0.12840657437E+02  0.00000000000E+00 0. -1.
</event>
<event>
 8    1  0.1269154E-006  0.9118800E+02  0.7816164E-02  0.1184000E+00
        -11   -1    0    0    0    0  0.00000000000E+00  0.00000000000E+00  0.45593999997E+02  0.45594000000E+02  0.51100000000E-03 0.  1.
         11   -1    0    0    0    0 -0.00000000000E+00 -0.00000000000E+00 -0.45593999997E+02  0.45594000000E+02  0.51100000000E-03 0. -1.
         23    2    1    2    0    0 -0.88817841970E-15 -0.35527136788E-14  0.35527136788E-14  0.91188000000E+02  0.91188000000E+02 0.  0.
    9900012    2    3    3    0    0 -0.71765006435E+01 -0.20671642907E+02  0.29613529615E+02  0.54367080427E+02  0.39999991449E+02 0.  0.
         12    1    3    3    0    0  0.71765006435E+01  0.20671642907E+02 -0.29613529615E+02  0.36820919573E+02  0.00000000000E+00 0. -1.
         11    1    4    4    0    0 -0.29895177566E+01  0.78382509255E+01  0.75757962969E+00  0.84231419996E+01  0.51100000000E-03 0. -1.
        -11    1    4    4    0    0 -0.40191886255E+01 -0.19992449444E+02  0.55565300056E+01  0.21135915830E+02  0.51100000000E-03 0.  1.
        -12    1    4    4    0    0 -0.16779426134E+00 -0.85174443884E+01  0.23299419980E+02  0.24808022598E+02  0.00000000000E+00 0.  1.
</event>
<event>
 8    1  0.1269154E-006  0.9118800E+02  0.7816164E-02  0.1184000E+00
        -11   -1    0    0    0    0  0.00000000000E+00  0.00000000000E+00  0.45593999997E+02  0.45594000000E+02  0.51100000000E-03 0.  1.
         11   -1    0    0    0    0 -0.00000000000E+00 -0.00000000000E+00 -0.45593999997E+02  0.45594000000E+02  0.51100000000E-03 0. -1.
         23    2    1    2    0    0  0.44408920985E-15  0.71054273576E-14  0.35527136788E-14  0.91188000000E+02  0.91188000000E+02 0.  0.
    9900012    2    3    3    0    0  0.16098857016E+01  0.26128325939E+02  0.25893993109E+02  0.54367081659E+02  0.39999994258E+02 0.  0.
         12    1    3    3    0    0 -0.16098857016E+01 -0.26128325939E+02 -0.25893993109E+02  0.36820918341E+02  0.00000000000E+00 0. -1.
         11    1    4    4    0    0 -0.14999127115E+01 -0.61630908012E+01 -0.59198998909E+01  0.86763264891E+01  0.51100000000E-03 0. -1.
        -11    1    4    4    0    0  0.35091013013E+01  0.23796189564E+02  0.25808129360E+02  0.35279341987E+02  0.51100000000E-03 0.  1.
         12    1    4    4    0    0 -0.39930288825E+00  0.84952271763E+01  0.60057636393E+01  0.10411413183E+02  0.00000000000E+00 0. -1.
</event>
<event>
 8    1  0.1269154E-006  0.9118800E+02  0.7816164E-02  0.1184000E+00
        -11   -1    0    0    0    0  0.00000000000E+00  0.00000000000E+00  0.45593999997E+02  0.45594000000E+02  0.51100000000E-03 0. -1.
         11   -1    0    0    0    0 -0.00000000000E+00 -0.00000000000E+00 -0.45593999997E+02  0.45594000000E+02  0.51100000000E-03 0.  1.
         23    2    1    2    0    0  0.00000000000E+00 -0.35527136788E-14 -0.88817841970E-15  0.91188000000E+02  0.91188000000E+02 0.  0.
    9900012    2    3    3    0    0 -0.21198093769E+02 -0.29429748952E+02 -0.63490260068E+01  0.54367089717E+02  0.40000012628E+02 0.  0.
         12    1    3    3    0    0  0.21198093769E+02  0.29429748952E+02  0.63490260068E+01  0.36820910283E+02  0.00000000000E+00 0. -1.
         11    1    4    4    0    0 -0.19496949679E+01  0.48606026360E+01  0.43703996855E+01  0.68210821814E+01  0.51100000000E-03 0. -1.
        -11    1    4    4    0    0 -0.18549656736E+02 -0.35904513808E+02 -0.40120314990E+01  0.40611824310E+02  0.51100000000E-03 0.  1.
        -12    1    4    4    0    0 -0.69874206561E+00  0.16141622192E+01 -0.67073941933E+01  0.69341832258E+01  0.00000000000E+00 0.  1.
</event>
<event>
 8    1  0.1269154E-006  0.9118800E+02  0.7816164E-02  0.1184000E+00
        -11   -1    0    0    0    0  0.00000000000E+00  0.00000000000E+00  0.45593999997E+02  0.45594000000E+02  0.51100000000E-03 0. -1.
         11   -1    0    0    0    0 -0.00000000000E+00 -0.00000000000E+00 -0.45593999997E+02  0.45594000000E+02  0.51100000000E-03 0.  1.
         23    2    1    2    0    0  0.00000000000E+00  0.00000000000E+00 -0.88817841970E-15  0.91188000000E+02  0.91188000000E+02 0.  0.
    9900012    2    3    3    0    0  0.89531965993E+01 -0.35549180236E+02  0.34456427104E+01  0.54367130938E+02  0.40000106599E+02 0.  0.
         12    1    3    3    0    0 -0.89531965993E+01  0.35549180236E+02 -0.34456427104E+01  0.36820869062E+02  0.00000000000E+00 0. -1.
         11    1    4    4    0    0 -0.39600297496E+01 -0.21287854652E+02 -0.73668789045E+01  0.22871936874E+02  0.51100000000E-03 0. -1.
        -11    1    4    4    0    0  0.39902415773E+01  0.23775887749E+01 -0.50313966545E+01  0.68476206659E+01  0.51100000000E-03 0.  1.
        -12    1    4    4    0    0  0.89229847717E+01 -0.16638914359E+02  0.15843918269E+02  0.24647573398E+02  0.00000000000E+00 0.  1.
</event>
<event>
 8    1  0.1269154E-006  0.9118800E+02  0.7816164E-02  0.1184000E+00
        -11   -1    0    0    0    0  0.00000000000E+00  0.00000000000E+00  0.45593999997E+02  0.45594000000E+02  0.51100000000E-03 0.  1.
         11   -1    0    0    0    0 -0.00000000000E+00 -0.00000000000E+00 -0.45593999997E+02  0.45594000000E+02  0.51100000000E-03 0. -1.
         23    2    1    2    0    0 -0.17763568394E-14  0.00000000000E+00  0.00000000000E+00  0.91188000000E+02  0.91188000000E+02 0.  0.
    9900012    2    3    3    0    0  0.93201128556E+00 -0.21977440451E+02 -0.29528000515E+02  0.54367090882E+02  0.40000015284E+02 0.  0.
        -12    1    3    3    0    0 -0.93201128556E+00  0.21977440451E+02  0.29528000515E+02  0.36820909118E+02  0.00000000000E+00 0.  1.
         11    1    4    4    0    0 -0.14412414881E+02 -0.93777446304E+01 -0.12438593808E+02  0.21222120847E+02  0.51100000000E-03 0. -1.
        -11    1    4    4    0    0  0.37776720928E+01 -0.11235730239E+02  0.70845046882E+00  0.11874946011E+02  0.51100000000E-03 0.  1.
         12    1    4    4    0    0  0.11566754074E+02 -0.13639655818E+01 -0.17797857176E+02  0.21270024024E+02  0.00000000000E+00 0. -1.
</event>
<event>
 8    1  0.1269154E-006  0.9118800E+02  0.7816164E-02  0.1184000E+00
        -11   -1    0    0    0    0  0.00000000000E+00  0.00000000000E+00  0.45593999997E+02  0.45594000000E+02  0.51100000000E-03 0.  1.
         11   -1    0    0    0    0 -0.00000000000E+00 -0.00000000000E+00 -0.45593999997E+02  0.45594000000E+02  0.51100000000E-03 0. -1.
         23    2    1    2    0    0 -0.17763568394E-14  0.00000000000E+00  0.00000000000E+00  0.91188000000E+02  0.91188000000E+02 0.  0.
    9900012    2    3    3    0    0 -0.11145806877E+02  0.28958997963E+01 -0.34973778936E+02  0.54367075791E+02  0.39999980880E+02 0.  0.
        -12    1    3    3    0    0  0.11145806877E+02 -0.28958997963E+01  0.34973778936E+02  0.36820924209E+02  0.00000000000E+00 0.  1.
         11    1    4    4    0    0  0.69898487202E+01  0.47258403967E+00 -0.31852656615E+02  0.32614000897E+02  0.51100000000E-03 0. -1.
        -11    1    4    4    0    0 -0.31033079950E+01 -0.21968974707E+01  0.30347545433E+01  0.48648344687E+01  0.51100000000E-03 0.  1.
         12    1    4    4    0    0 -0.15032347602E+02  0.46202132274E+01 -0.61558768644E+01  0.16888240426E+02  0.00000000000E+00 0. -1.
</event>
<event>
 8    1  0.1269154E-006  0.9118800E+02  0.7816164E-02  0.1184000E+00
        -11   -1    0    0    0    0  0.00000000000E+00  0.00000000000E+00  0.45593999997E+02  0.45594000000E+02  0.51100000000E-03 0.  1.
         11   -1    0    0    0    0 -0.00000000000E+00 -0.00000000000E+00 -0.45593999997E+02  0.45594000000E+02  0.51100000000E-03 0. -1.
         23    2    1    2    0    0  0.00000000000E+00  0.00000000000E+00  0.00000000000E+00  0.91188000000E+02  0.91188000000E+02 0.  0.
    9900012    2    3    3    0    0  0.10844927798E+02  0.14385941744E+02 -0.32112463241E+02  0.54367108183E+02  0.40000054724E+02 0.  0.
        -12    1    3    3    0    0 -0.10844927798E+02 -0.14385941744E+02  0.32112463241E+02  0.36820891817E+02  0.00000000000E+00 0.  1.
         11    1    4    4    0    0  0.17651682569E+02  0.10932713135E+02 -0.99608094435E+01  0.23028761127E+02  0.51100000000E-03 0. -1.
        -11    1    4    4    0    0 -0.10885310990E+02  0.16085900383E+00 -0.23523267695E+02  0.25920262234E+02  0.51100000000E-03 0.  1.
        -12    1    4    4    0    0  0.40785562186E+01  0.32923696051E+01  0.13716138971E+01  0.54180848210E+01  0.00000000000E+00 0.  1.
</event>
<event>
 8    1  0.1269154E-006  0.9118800E+02  0.7816164E-02  0.1184000E+00
        -11   -1    0    0    0    0  0.00000000000E+00  0.00000000000E+00  0.45593999997E+02  0.45594000000E+02  0.51100000000E-03 0.  1.
         11   -1    0    0    0    0 -0.00000000000E+00 -0.00000000000E+00 -0.45593999997E+02  0.45594000000E+02  0.51100000000E-03 0. -1.
         23    2    1    2    0    0  0.00000000000E+00 -0.30253577421E-14  0.00000000000E+00  0.91188000000E+02  0.91188000000E+02 0.  0.
    9900012    2    3    3    0    0 -0.24723412615E+02 -0.20476350164E+00  0.27285396720E+02  0.54367055776E+02  0.39999935252E+02 0.  0.
         12    1    3    3    0    0  0.24723412615E+02  0.20476350164E+00 -0.27285396720E+02  0.36820944224E+02  0.00000000000E+00 0. -1.
         11    1    4    4    0    0 -0.40399201847E+01  0.62098373954E+01 -0.63624048030E+00  0.74355791830E+01  0.51100000000E-03 0. -1.
        -11    1    4    4    0    0 -0.23458089976E+01  0.10028888359E+02  0.17244915739E+02  0.20086526346E+02  0.51100000000E-03 0.  1.
        -12    1    4    4    0    0 -0.18337683432E+02 -0.16443489256E+02  0.10676721462E+02  0.26844950247E+02  0.00000000000E+00 0.  1.
</event>
<event>
 8    1  0.1269154E-006  0.9118800E+02  0.7816164E-02  0.1184000E+00
        -11   -1    0    0    0    0  0.00000000000E+00  0.00000000000E+00  0.45593999997E+02  0.45594000000E+02  0.51100000000E-03 0.  1.
         11   -1    0    0    0    0 -0.00000000000E+00 -0.00000000000E+00 -0.45593999997E+02  0.45594000000E+02  0.51100000000E-03 0. -1.
         23    2    1    2    0    0 -0.71054273576E-14  0.17763568394E-14  0.88817841970E-15  0.91188000000E+02  0.91188000000E+02 0.  0.
    9900012    2    3    3    0    0 -0.33114104684E+02  0.14079037136E+02 -0.78112127364E+01  0.54367105658E+02  0.40000048969E+02 0.  0.
         12    1    3    3    0    0  0.33114104684E+02 -0.14079037136E+02  0.78112127364E+01  0.36820894342E+02  0.00000000000E+00 0. -1.
         11    1    4    4    0    0 -0.92891201835E+01  0.39087642923E+01 -0.82049363302E+01  0.12995659757E+02  0.51100000000E-03 0. -1.
        -11    1    4    4    0    0  0.18258730791E+01  0.14236556410E+02  0.45775778569E+01  0.15065442915E+02  0.51100000000E-03 0.  1.
        -12    1    4    4    0    0 -0.25650857580E+02 -0.40662835663E+01 -0.41838542632E+01  0.26306002986E+02  0.00000000000E+00 0.  1.
</event>
<event>
 8    1  0.1269154E-006  0.9118800E+02  0.7816164E-02  0.1184000E+00
        -11   -1    0    0    0    0  0.00000000000E+00  0.00000000000E+00  0.45593999997E+02  0.45594000000E+02  0.51100000000E-03 0. -1.
         11   -1    0    0    0    0 -0.00000000000E+00 -0.00000000000E+00 -0.45593999997E+02  0.45594000000E+02  0.51100000000E-03 0.  1.
         23    2    1    2    0    0  0.00000000000E+00 -0.11102230246E-14  0.71054273576E-14  0.91188000000E+02  0.91188000000E+02 0.  0.
    9900012    2    3    3    0    0 -0.11316837014E+02  0.15002220743E+01 -0.35006555722E+02  0.54367076468E+02  0.39999982423E+02 0.  0.
         12    1    3    3    0    0  0.11316837014E+02 -0.15002220743E+01  0.35006555722E+02  0.36820923532E+02  0.00000000000E+00 0. -1.
         11    1    4    4    0    0 -0.11228124990E+02 -0.43910340190E+01 -0.43381744113E+01  0.12812951574E+02  0.51100000000E-03 0. -1.
        -11    1    4    4    0    0  0.89220296133E+01  0.13543100331E+02 -0.17745337881E+02  0.24039866800E+02  0.51100000000E-03 0.  1.
        -12    1    4    4    0    0 -0.90107416370E+01 -0.76518442377E+01 -0.12923043430E+02  0.17514258094E+02  0.00000000000E+00 0.  1.
</event>
<event>
 8    1  0.1269154E-006  0.9118800E+02  0.7816164E-02  0.1184000E+00
        -11   -1    0    0    0    0  0.00000000000E+00  0.00000000000E+00  0.45593999997E+02  0.45594000000E+02  0.51100000000E-03 0.  1.
         11   -1    0    0    0    0 -0.00000000000E+00 -0.00000000000E+00 -0.45593999997E+02  0.45594000000E+02  0.51100000000E-03 0. -1.
         23    2    1    2    0    0  0.00000000000E+00  0.17763568394E-14  0.00000000000E+00  0.91188000000E+02  0.91188000000E+02 0.  0.
    9900012    2    3    3    0    0  0.31387741667E+02 -0.92154892737E+01  0.16901604416E+02  0.54367084730E+02  0.40000001259E+02 0.  0.
         12    1    3    3    0    0 -0.31387741667E+02  0.92154892737E+01 -0.16901604416E+02  0.36820915270E+02  0.00000000000E+00 0. -1.
         11    1    4    4    0    0  0.17499771758E+02  0.11650345052E+02  0.17409973382E+01  0.21095108993E+02  0.51100000000E-03 0. -1.
        -11    1    4    4    0    0  0.76996614126E+01 -0.12737221492E+02 -0.12803385544E+00  0.14884152315E+02  0.51100000000E-03 0.  1.
         12    1    4    4    0    0  0.61883084964E+01 -0.81286128344E+01  0.15288640933E+02  0.18387823423E+02  0.00000000000E+00 0. -1.
</event>
<event>
 8    1  0.1269154E-006  0.9118800E+02  0.7816164E-02  0.1184000E+00
        -11   -1    0    0    0    0  0.00000000000E+00  0.00000000000E+00  0.45593999997E+02  0.45594000000E+02  0.51100000000E-03 0.  1.
         11   -1    0    0    0    0 -0.00000000000E+00 -0.00000000000E+00 -0.45593999997E+02  0.45594000000E+02  0.51100000000E-03 0. -1.
         23    2    1    2    0    0  0.00000000000E+00  0.00000000000E+00 -0.35527136788E-14  0.91188000000E+02  0.91188000000E+02 0.  0.
    9900012    2    3    3    0    0  0.18801480067E+02  0.19928865581E+02 -0.24599281314E+02  0.54367082342E+02  0.39999995814E+02 0.  0.
        -12    1    3    3    0    0 -0.18801480067E+02 -0.19928865581E+02  0.24599281314E+02  0.36820917658E+02  0.00000000000E+00 0.  1.
         11    1    4    4    0    0  0.71558866211E+01 -0.28028708912E+01 -0.11120192314E+02  0.13517450792E+02  0.51100000000E-03 0. -1.
        -11    1    4    4    0    0  0.13394440718E+02  0.26860767408E+02 -0.17570211775E+02  0.34779652240E+02  0.51100000000E-03 0.  1.
        -12    1    4    4    0    0 -0.17488472728E+01 -0.41290309351E+01  0.40911227754E+01  0.60699793089E+01  0.00000000000E+00 0.  1.
</event>
<event>
 8    1  0.1269154E-006  0.9118800E+02  0.7816164E-02  0.1184000E+00
        -11   -1    0    0    0    0  0.00000000000E+00  0.00000000000E+00  0.45593999997E+02  0.45594000000E+02  0.51100000000E-03 0.  1.
         11   -1    0    0    0    0 -0.00000000000E+00 -0.00000000000E+00 -0.45593999997E+02  0.45594000000E+02  0.51100000000E-03 0. -1.
         23    2    1    2    0    0  0.00000000000E+00  0.00000000000E+00  0.88817841970E-15  0.91188000000E+02  0.91188000000E+02 0.  0.
    9900012    2    3    3    0    0 -0.22865788745E+02  0.28121927627E+02 -0.64878314442E+01  0.54367094726E+02  0.40000024046E+02 0.  0.
        -12    1    3    3    0    0  0.22865788745E+02 -0.28121927627E+02  0.64878314442E+01  0.36820905274E+02  0.00000000000E+00 0.  1.
         11    1    4    4    0    0  0.44661818790E+01  0.33328108656E+01 -0.41090023756E+01  0.69237496796E+01  0.51100000000E-03 0. -1.
        -11    1    4    4    0    0 -0.19477002790E+02  0.21491345715E+02  0.11465400689E+02  0.31187930222E+02  0.51100000000E-03 0.  1.
        -12    1    4    4    0    0 -0.78549678336E+01  0.32977710468E+01 -0.13844229757E+02  0.16255414824E+02  0.00000000000E+00 0.  1.
</event>
<event>
 8    1  0.1269154E-006  0.9118800E+02  0.7816164E-02  0.1184000E+00
        -11   -1    0    0    0    0  0.00000000000E+00  0.00000000000E+00  0.45593999997E+02  0.45594000000E+02  0.51100000000E-03 0.  1.
         11   -1    0    0    0    0 -0.00000000000E+00 -0.00000000000E+00 -0.45593999997E+02  0.45594000000E+02  0.51100000000E-03 0. -1.
         23    2    1    2    0    0 -0.88817841970E-15  0.00000000000E+00  0.71054273576E-14  0.91188000000E+02  0.91188000000E+02 0.  0.
    9900012    2    3    3    0    0  0.63617418018E+01 -0.67681456553E+01  0.35630058108E+02  0.54367073951E+02  0.39999976686E+02 0.  0.
         12    1    3    3    0    0 -0.63617418018E+01  0.67681456553E+01 -0.35630058108E+02  0.36820926049E+02  0.00000000000E+00 0. -1.
         11    1    4    4    0    0  0.98210995684E+01 -0.68622277952E+01  0.94132187620E+01  0.15236563089E+02  0.51100000000E-03 0. -1.
        -11    1    4    4    0    0  0.11783668203E+02  0.47915676470E+01  0.85415328185E+01  0.15322262887E+02  0.51100000000E-03 0.  1.
         12    1    4    4    0    0 -0.15243025969E+02 -0.46974855071E+01  0.17675306527E+02  0.23808247975E+02  0.00000000000E+00 0. -1.
</event>
<event>
 8    1  0.1269154E-006  0.9118800E+02  0.7816164E-02  0.1184000E+00
        -11   -1    0    0    0    0  0.00000000000E+00  0.00000000000E+00  0.45593999997E+02  0.45594000000E+02  0.51100000000E-03 0. -1.
         11   -1    0    0    0    0 -0.00000000000E+00 -0.00000000000E+00 -0.45593999997E+02  0.45594000000E+02  0.51100000000E-03 0.  1.
         23    2    1    2    0    0  0.00000000000E+00  0.71054273576E-14  0.17763568394E-14  0.91188000000E+02  0.91188000000E+02 0.  0.
    9900012    2    3    3    0    0 -0.13948952313E+02  0.33242224116E+02 -0.74940157063E+01  0.54367095527E+02  0.40000025872E+02 0.  0.
         12    1    3    3    0    0  0.13948952313E+02 -0.33242224116E+02  0.74940157063E+01  0.36820904473E+02  0.00000000000E+00 0. -1.
         11    1    4    4    0    0 -0.51787297080E+01  0.20754642619E+01  0.21404082844E+01  0.59756289356E+01  0.51100000000E-03 0. -1.
        -11    1    4    4    0    0 -0.37817359850E+01  0.16514745896E+01 -0.17058620655E+02  0.17550653386E+02  0.51100000000E-03 0.  1.
         12    1    4    4    0    0 -0.49884866195E+01  0.29515285265E+02  0.74241966641E+01  0.30840813205E+02  0.00000000000E+00 0. -1.
</event>
<event>
 8    1  0.1269154E-006  0.9118800E+02  0.7816164E-02  0.1184000E+00
        -11   -1    0    0    0    0  0.00000000000E+00  0.00000000000E+00  0.45593999997E+02  0.45594000000E+02  0.51100000000E-03 0.  1.
         11   -1    0    0    0    0 -0.00000000000E+00 -0.00000000000E+00 -0.45593999997E+02  0.45594000000E+02  0.51100000000E-03 0. -1.
         23    2    1    2    0    0 -0.35527136788E-14  0.00000000000E+00  0.35527136788E-14  0.91188000000E+02  0.91188000000E+02 0.  0.
    9900012    2    3    3    0    0  0.16080368955E+02  0.17319307719E+02  0.28235495714E+02  0.54367083338E+02  0.39999998085E+02 0.  0.
         12    1    3    3    0    0 -0.16080368955E+02 -0.17319307719E+02 -0.28235495714E+02  0.36820916662E+02  0.00000000000E+00 0. -1.
         11    1    4    4    0    0  0.20574749942E+02  0.18307470725E+01  0.11092238950E+02  0.23445889516E+02  0.51100000000E-03 0. -1.
        -11    1    4    4    0    0  0.72173405948E+01  0.10715995731E+02  0.10421161447E+02  0.16598890804E+02  0.51100000000E-03 0.  1.
        -12    1    4    4    0    0 -0.11711721581E+02  0.47725649157E+01  0.67220953184E+01  0.14322303018E+02  0.00000000000E+00 0.  1.
</event>
<event>
 8    1  0.1269154E-006  0.9118800E+02  0.7816164E-02  0.1184000E+00
        -11   -1    0    0    0    0  0.00000000000E+00  0.00000000000E+00  0.45593999997E+02  0.45594000000E+02  0.51100000000E-03 0.  1.
         11   -1    0    0    0    0 -0.00000000000E+00 -0.00000000000E+00 -0.45593999997E+02  0.45594000000E+02  0.51100000000E-03 0. -1.
         23    2    1    2    0    0  0.00000000000E+00 -0.71054273576E-14 -0.35527136788E-14  0.91188000000E+02  0.91188000000E+02 0.  0.
    9900012    2    3    3    0    0 -0.11317794856E+02 -0.27188976947E+02 -0.22100815610E+02  0.54367095633E+02  0.40000026114E+02 0.  0.
        -12    1    3    3    0    0  0.11317794856E+02  0.27188976947E+02  0.22100815610E+02  0.36820904367E+02  0.00000000000E+00 0.  1.
         11    1    4    4    0    0 -0.35977063606E+01  0.48324455582E+01  0.25590885402E+01  0.65456058198E+01  0.51100000000E-03 0. -1.
        -11    1    4    4    0    0  0.85015142581E+01 -0.68952122342E+01 -0.82555407695E+01  0.13710348285E+02  0.51100000000E-03 0.  1.
        -12    1    4    4    0    0 -0.16221602753E+02 -0.25126210271E+02 -0.16404363380E+02  0.34111141528E+02  0.00000000000E+00 0.  1.
</event>
<event>
 8    1  0.1269154E-006  0.9118800E+02  0.7816164E-02  0.1184000E+00
        -11   -1    0    0    0    0  0.00000000000E+00  0.00000000000E+00  0.45593999997E+02  0.45594000000E+02  0.51100000000E-03 0.  1.
         11   -1    0    0    0    0 -0.00000000000E+00 -0.00000000000E+00 -0.45593999997E+02  0.45594000000E+02  0.51100000000E-03 0. -1.
         23    2    1    2    0    0  0.88817841970E-15  0.00000000000E+00  0.00000000000E+00  0.91188000000E+02  0.91188000000E+02 0.  0.
    9900012    2    3    3    0    0  0.79178501592E+01 -0.32654586913E+02  0.15058740972E+02  0.54367080983E+02  0.39999992716E+02 0.  0.
        -12    1    3    3    0    0 -0.79178501592E+01  0.32654586913E+02 -0.15058740972E+02  0.36820919017E+02  0.00000000000E+00 0.  1.
         11    1    4    4    0    0  0.33139686281E+01 -0.16759021074E+01 -0.24953494856E+01  0.44741262005E+01  0.51100000000E-03 0. -1.
        -11    1    4    4    0    0  0.15917827542E+02 -0.93243251807E+01 -0.20594036734E+01  0.18562365622E+02  0.51100000000E-03 0.  1.
        -12    1    4    4    0    0 -0.11313946011E+02 -0.21654359625E+02  0.19613494131E+02  0.31330589160E+02  0.00000000000E+00 0.  1.
</event>
<event>
 8    1  0.1269154E-006  0.9118800E+02  0.7816164E-02  0.1184000E+00
        -11   -1    0    0    0    0  0.00000000000E+00  0.00000000000E+00  0.45593999997E+02  0.45594000000E+02  0.51100000000E-03 0.  1.
         11   -1    0    0    0    0 -0.00000000000E+00 -0.00000000000E+00 -0.45593999997E+02  0.45594000000E+02  0.51100000000E-03 0. -1.
         23    2    1    2    0    0  0.00000000000E+00  0.00000000000E+00  0.00000000000E+00  0.91188000000E+02  0.91188000000E+02 0.  0.
    9900012    2    3    3    0    0  0.27820647913E+02 -0.23286896976E+02 -0.62858904733E+01  0.54367076056E+02  0.39999981485E+02 0.  0.
         12    1    3    3    0    0 -0.27820647913E+02  0.23286896976E+02  0.62858904733E+01  0.36820923944E+02  0.00000000000E+00 0. -1.
         11    1    4    4    0    0  0.32859213214E+01 -0.15123219484E+02  0.23365829998E+01  0.15651474910E+02  0.51100000000E-03 0. -1.
        -11    1    4    4    0    0 -0.24961561496E+01 -0.56125075165E+01  0.53809104884E+01  0.81661027481E+01  0.51100000000E-03 0.  1.
         12    1    4    4    0    0  0.27030882741E+02 -0.25511699752E+01 -0.14003383962E+02  0.30549498398E+02  0.00000000000E+00 0. -1.
</event>
<event>
 8    1  0.1269154E-006  0.9118800E+02  0.7816164E-02  0.1184000E+00
        -11   -1    0    0    0    0  0.00000000000E+00  0.00000000000E+00  0.45593999997E+02  0.45594000000E+02  0.51100000000E-03 0. -1.
         11   -1    0    0    0    0 -0.00000000000E+00 -0.00000000000E+00 -0.45593999997E+02  0.45594000000E+02  0.51100000000E-03 0.  1.
         23    2    1    2    0    0  0.00000000000E+00  0.00000000000E+00  0.00000000000E+00  0.91188000000E+02  0.91188000000E+02 0.  0.
    9900012    2    3    3    0    0  0.10402295601E+02 -0.24712394572E+02 -0.25236282547E+02  0.54367079914E+02  0.39999990279E+02 0.  0.
        -12    1    3    3    0    0 -0.10402295601E+02  0.24712394572E+02  0.25236282547E+02  0.36820920086E+02  0.00000000000E+00 0.  1.
         11    1    4    4    0    0  0.58744367261E+00 -0.20504469103E+02 -0.17078557869E+02  0.26691861726E+02  0.51100000000E-03 0. -1.
        -11    1    4    4    0    0  0.11020094763E+02  0.47454100884E+01  0.38930267326E+01  0.12614161205E+02  0.51100000000E-03 0.  1.
        -12    1    4    4    0    0 -0.12052428342E+01 -0.89533355568E+01 -0.12050751411E+02  0.15061056983E+02  0.00000000000E+00 0.  1.
</event>
<event>
 8    1  0.1269154E-006  0.9118800E+02  0.7816164E-02  0.1184000E+00
        -11   -1    0    0    0    0  0.00000000000E+00  0.00000000000E+00  0.45593999997E+02  0.45594000000E+02  0.51100000000E-03 0.  1.
         11   -1    0    0    0    0 -0.00000000000E+00 -0.00000000000E+00 -0.45593999997E+02  0.45594000000E+02  0.51100000000E-03 0. -1.
         23    2    1    2    0    0  0.00000000000E+00  0.17763568394E-14 -0.35527136788E-14  0.91188000000E+02  0.91188000000E+02 0.  0.
    9900012    2    3    3    0    0 -0.22358293333E+02 -0.12417590515E+02  0.26489436436E+02  0.54367080977E+02  0.39999992704E+02 0.  0.
         12    1    3    3    0    0  0.22358293333E+02  0.12417590515E+02 -0.26489436436E+02  0.36820919023E+02  0.00000000000E+00 0. -1.
         11    1    4    4    0    0 -0.41163851347E+01 -0.16582691239E+02  0.15137378716E+02  0.22826968917E+02  0.51100000000E-03 0. -1.
        -11    1    4    4    0    0 -0.86554953575E+01  0.11507764407E+02  0.12941643275E+02  0.19360588122E+02  0.51100000000E-03 0.  1.
         12    1    4    4    0    0 -0.95864128412E+01 -0.73426636834E+01 -0.15895855544E+01  0.12179523938E+02  0.00000000000E+00 0. -1.
</event>
<event>
 8    1  0.1269154E-006  0.9118800E+02  0.7816164E-02  0.1184000E+00
        -11   -1    0    0    0    0  0.00000000000E+00  0.00000000000E+00  0.45593999997E+02  0.45594000000E+02  0.51100000000E-03 0.  1.
         11   -1    0    0    0    0 -0.00000000000E+00 -0.00000000000E+00 -0.45593999997E+02  0.45594000000E+02  0.51100000000E-03 0. -1.
         23    2    1    2    0    0  0.88817841970E-15 -0.17763568394E-14  0.00000000000E+00  0.91188000000E+02  0.91188000000E+02 0.  0.
    9900012    2    3    3    0    0  0.71314245114E+01 -0.43037345619E+01 -0.35866453545E+02  0.54367057092E+02  0.39999938253E+02 0.  0.
        -12    1    3    3    0    0 -0.71314245114E+01  0.43037345619E+01  0.35866453545E+02  0.36820942908E+02  0.00000000000E+00 0.  1.
         11    1    4    4    0    0  0.30724977493E+01 -0.13269737723E+02 -0.24716043278E+02  0.28220718936E+02  0.51100000000E-03 0. -1.
        -11    1    4    4    0    0 -0.42720504268E+01 -0.47534944076E+01 -0.71786071501E+01  0.96113747617E+01  0.51100000000E-03 0.  1.
        -12    1    4    4    0    0  0.83309771889E+01  0.13719497569E+02 -0.39718031169E+01  0.16534963395E+02  0.00000000000E+00 0.  1.
</event>
<event>
 8    1  0.1269154E-006  0.9118800E+02  0.7816164E-02  0.1184000E+00
        -11   -1    0    0    0    0  0.00000000000E+00  0.00000000000E+00  0.45593999997E+02  0.45594000000E+02  0.51100000000E-03 0.  1.
         11   -1    0    0    0    0 -0.00000000000E+00 -0.00000000000E+00 -0.45593999997E+02  0.45594000000E+02  0.51100000000E-03 0. -1.
         23    2    1    2    0    0 -0.44408920985E-15  0.00000000000E+00  0.00000000000E+00  0.91188000000E+02  0.91188000000E+02 0.  0.
    9900012    2    3    3    0    0 -0.27839595325E+01 -0.13553893365E+02  0.34122214247E+02  0.54367028243E+02  0.39999872486E+02 0.  0.
         12    1    3    3    0    0  0.27839595325E+01  0.13553893365E+02 -0.34122214247E+02  0.36820971757E+02  0.00000000000E+00 0. -1.
         11    1    4    4    0    0 -0.49783319330E+01 -0.57217481981E+00  0.23150443684E+00  0.50164496833E+01  0.51100000000E-03 0. -1.
        -11    1    4    4    0    0 -0.14831038875E+02 -0.82534531319E+00  0.12277895378E+02  0.19271419880E+02  0.51100000000E-03 0.  1.
        -12    1    4    4    0    0  0.17025411275E+02 -0.12156373232E+02  0.21612814431E+02  0.30079158680E+02  0.00000000000E+00 0.  1.
</event>
<event>
 8    1  0.1269154E-006  0.9118800E+02  0.7816164E-02  0.1184000E+00
        -11   -1    0    0    0    0  0.00000000000E+00  0.00000000000E+00  0.45593999997E+02  0.45594000000E+02  0.51100000000E-03 0.  1.
         11   -1    0    0    0    0 -0.00000000000E+00 -0.00000000000E+00 -0.45593999997E+02  0.45594000000E+02  0.51100000000E-03 0. -1.
         23    2    1    2    0    0  0.00000000000E+00  0.00000000000E+00  0.17763568394E-14  0.91188000000E+02  0.91188000000E+02 0.  0.
    9900012    2    3    3    0    0  0.33430374467E+02  0.12221757093E+02 -0.94243503387E+01  0.54367086612E+02  0.40000005548E+02 0.  0.
        -12    1    3    3    0    0 -0.33430374467E+02 -0.12221757093E+02  0.94243503387E+01  0.36820913388E+02  0.00000000000E+00 0.  1.
         11    1    4    4    0    0  0.25263587418E+02  0.76518582980E+01  0.12121525331E+01  0.26424781903E+02  0.51100000000E-03 0. -1.
        -11    1    4    4    0    0  0.15978666719E+01 -0.19501433177E+01 -0.16692429130E+02  0.16881748351E+02  0.51100000000E-03 0.  1.
        -12    1    4    4    0    0  0.65689203775E+01  0.65200421131E+01  0.60559262584E+01  0.11060556357E+02  0.00000000000E+00 0.  1.
</event>
<event>
 8    1  0.1269154E-006  0.9118800E+02  0.7816164E-02  0.1184000E+00
        -11   -1    0    0    0    0  0.00000000000E+00  0.00000000000E+00  0.45593999997E+02  0.45594000000E+02  0.51100000000E-03 0. -1.
         11   -1    0    0    0    0 -0.00000000000E+00 -0.00000000000E+00 -0.45593999997E+02  0.45594000000E+02  0.51100000000E-03 0.  1.
         23    2    1    2    0    0  0.00000000000E+00  0.00000000000E+00  0.44408920985E-15  0.91188000000E+02  0.91188000000E+02 0.  0.
    9900012    2    3    3    0    0  0.35900300921E+02  0.75550480466E+01  0.31414415718E+01  0.54367095444E+02  0.40000025683E+02 0.  0.
        -12    1    3    3    0    0 -0.35900300921E+02 -0.75550480466E+01 -0.31414415718E+01  0.36820904556E+02  0.00000000000E+00 0.  1.
         11    1    4    4    0    0  0.26820193548E+02  0.18749934170E+01  0.15807319252E+02  0.31188294670E+02  0.51100000000E-03 0. -1.
        -11    1    4    4    0    0 -0.69699337575E+00 -0.44352957564E+01 -0.38809500363E+00  0.45064693726E+01  0.51100000000E-03 0.  1.
         12    1    4    4    0    0  0.97771007487E+01  0.10115350386E+02 -0.12277782676E+02  0.18672331401E+02  0.00000000000E+00 0. -1.
</event>
<event>
 8    1  0.1269154E-006  0.9118800E+02  0.7816164E-02  0.1184000E+00
        -11   -1    0    0    0    0  0.00000000000E+00  0.00000000000E+00  0.45593999997E+02  0.45594000000E+02  0.51100000000E-03 0.  1.
         11   -1    0    0    0    0 -0.00000000000E+00 -0.00000000000E+00 -0.45593999997E+02  0.45594000000E+02  0.51100000000E-03 0. -1.
         23    2    1    2    0    0  0.00000000000E+00  0.00000000000E+00  0.00000000000E+00  0.91188000000E+02  0.91188000000E+02 0.  0.
    9900012    2    3    3    0    0  0.28819844391E+02 -0.15193350258E+02  0.17156864594E+02  0.54367091192E+02  0.40000015990E+02 0.  0.
        -12    1    3    3    0    0 -0.28819844391E+02  0.15193350258E+02 -0.17156864594E+02  0.36820908808E+02  0.00000000000E+00 0.  1.
         11    1    4    4    0    0  0.17443348771E+02 -0.39935757236E+01  0.23524685210E+02  0.29557230552E+02  0.51100000000E-03 0.  1.
        -11    1    4    4    0    0 -0.19202417388E+01  0.15699581265E+01  0.31925420623E+01  0.40428235102E+01  0.51100000000E-03 0. -1.
         12    1    4    4    0    0  0.13296737359E+02 -0.12769732661E+02 -0.95603626779E+01  0.20767037130E+02  0.00000000000E+00 0. -1.
</event>
<event>
 8    1  0.1269154E-006  0.9118800E+02  0.7816164E-02  0.1184000E+00
        -11   -1    0    0    0    0  0.00000000000E+00  0.00000000000E+00  0.45593999997E+02  0.45594000000E+02  0.51100000000E-03 0.  1.
         11   -1    0    0    0    0 -0.00000000000E+00 -0.00000000000E+00 -0.45593999997E+02  0.45594000000E+02  0.51100000000E-03 0. -1.
         23    2    1    2    0    0  0.00000000000E+00  0.16653345369E-15  0.00000000000E+00  0.91188000000E+02  0.91188000000E+02 0.  0.
    9900012    2    3    3    0    0  0.33146222623E+02 -0.46404291362E+00 -0.16027944532E+02  0.54367049226E+02  0.39999920320E+02 0.  0.
        -12    1    3    3    0    0 -0.33146222623E+02  0.46404291362E+00  0.16027944532E+02  0.36820950774E+02  0.00000000000E+00 0.  1.
         11    1    4    4    0    0  0.59528226981E+01 -0.99588186950E+01 -0.13011093246E+01  0.11675061182E+02  0.51100000000E-03 0.  1.
        -11    1    4    4    0    0 -0.24182332407E+01  0.90535906011E+01  0.51470973612E+00  0.93851095439E+01  0.51100000000E-03 0. -1.
         12    1    4    4    0    0  0.29611633166E+02  0.44118518035E+00 -0.15241544944E+02  0.33306878499E+02  0.00000000000E+00 0. -1.
</event>
<event>
 8    1  0.1269154E-006  0.9118800E+02  0.7816164E-02  0.1184000E+00
        -11   -1    0    0    0    0  0.00000000000E+00  0.00000000000E+00  0.45593999997E+02  0.45594000000E+02  0.51100000000E-03 0. -1.
         11   -1    0    0    0    0 -0.00000000000E+00 -0.00000000000E+00 -0.45593999997E+02  0.45594000000E+02  0.51100000000E-03 0.  1.
         23    2    1    2    0    0 -0.35527136788E-14  0.44408920985E-15  0.71054273576E-14  0.91188000000E+02  0.91188000000E+02 0.  0.
    9900012    2    3    3    0    0 -0.20586925405E+02  0.20733975665E+01 -0.30457502246E+02  0.54367083143E+02  0.39999997641E+02 0.  0.
         12    1    3    3    0    0  0.20586925405E+02 -0.20733975665E+01  0.30457502246E+02  0.36820916857E+02  0.00000000000E+00 0. -1.
         11    1    4    4    0    0 -0.69506919936E+01 -0.64434263832E+01  0.23813186344E+01  0.97724378456E+01  0.51100000000E-03 0. -1.
        -11    1    4    4    0    0 -0.62606151736E+01  0.36193440012E+01 -0.34785832504E+02  0.35529552441E+02  0.51100000000E-03 0.  1.
         12    1    4    4    0    0 -0.73756182381E+01  0.48974799484E+01  0.19470116237E+01  0.90650928568E+01  0.00000000000E+00 0. -1.
</event>
<event>
 8    1  0.1269154E-006  0.9118800E+02  0.7816164E-02  0.1184000E+00
        -11   -1    0    0    0    0  0.00000000000E+00  0.00000000000E+00  0.45593999997E+02  0.45594000000E+02  0.51100000000E-03 0.  1.
         11   -1    0    0    0    0 -0.00000000000E+00 -0.00000000000E+00 -0.45593999997E+02  0.45594000000E+02  0.51100000000E-03 0. -1.
         23    2    1    2    0    0  0.00000000000E+00  0.00000000000E+00  0.00000000000E+00  0.91188000000E+02  0.91188000000E+02 0.  0.
    9900012    2    3    3    0    0  0.24451857962E+02 -0.90178430840E+01 -0.26010885374E+02  0.54367068323E+02  0.39999963855E+02 0.  0.
        -12    1    3    3    0    0 -0.24451857962E+02  0.90178430840E+01  0.26010885374E+02  0.36820931677E+02  0.00000000000E+00 0.  1.
         11    1    4    4    0    0  0.18026731021E+02  0.47825531972E+00 -0.28822245214E+02  0.33998729078E+02  0.51100000000E-03 0. -1.
        -11    1    4    4    0    0  0.17981834862E+01  0.20256870847E+01 -0.50091050510E+01  0.56945593059E+01  0.51100000000E-03 0.  1.
        -12    1    4    4    0    0  0.46269434540E+01 -0.11521785488E+02  0.78204648914E+01  0.14673779939E+02  0.00000000000E+00 0.  1.
</event>
<event>
 8    1  0.1269154E-006  0.9118800E+02  0.7816164E-02  0.1184000E+00
        -11   -1    0    0    0    0  0.00000000000E+00  0.00000000000E+00  0.45593999997E+02  0.45594000000E+02  0.51100000000E-03 0.  1.
         11   -1    0    0    0    0 -0.00000000000E+00 -0.00000000000E+00 -0.45593999997E+02  0.45594000000E+02  0.51100000000E-03 0. -1.
         23    2    1    2    0    0 -0.66613381478E-15  0.00000000000E+00  0.00000000000E+00  0.91188000000E+02  0.91188000000E+02 0.  0.
    9900012    2    3    3    0    0 -0.52895279103E+00 -0.14384057832E+02  0.33890982524E+02  0.54367087366E+02  0.40000007268E+02 0.  0.
         12    1    3    3    0    0  0.52895279103E+00  0.14384057832E+02 -0.33890982524E+02  0.36820912634E+02  0.00000000000E+00 0. -1.
         11    1    4    4    0    0  0.11285634028E+02 -0.84927514518E+01  0.92924165268E+01  0.16906843815E+02  0.51100000000E-03 0. -1.
        -11    1    4    4    0    0 -0.15360557754E+02 -0.12638700598E+02  0.13670381370E+02  0.24136338048E+02  0.51100000000E-03 0.  1.
         12    1    4    4    0    0  0.35459709354E+01  0.67473942171E+01  0.10928184627E+02  0.13323905502E+02  0.00000000000E+00 0. -1.
</event>
<event>
 8    1  0.1269154E-006  0.9118800E+02  0.7816164E-02  0.1184000E+00
        -11   -1    0    0    0    0  0.00000000000E+00  0.00000000000E+00  0.45593999997E+02  0.45594000000E+02  0.51100000000E-03 0.  1.
         11   -1    0    0    0    0 -0.00000000000E+00 -0.00000000000E+00 -0.45593999997E+02  0.45594000000E+02  0.51100000000E-03 0. -1.
         23    2    1    2    0    0 -0.35527136788E-14  0.35527136788E-14  0.44408920985E-15  0.91188000000E+02  0.91188000000E+02 0.  0.
    9900012    2    3    3    0    0  0.29611215990E+02  0.21650272797E+02 -0.31970677327E+01  0.54367086559E+02  0.40000005427E+02 0.  0.
        -12    1    3    3    0    0 -0.29611215990E+02 -0.21650272797E+02  0.31970677327E+01  0.36820913441E+02  0.00000000000E+00 0.  1.
         11    1    4    4    0    0  0.15508822569E+02  0.12590329902E+02 -0.31170428553E+01  0.20217713543E+02  0.51100000000E-03 0. -1.
        -11    1    4    4    0    0  0.76730013237E+01  0.16231013156E+02 -0.98100561409E+01  0.20458688598E+02  0.51100000000E-03 0.  1.
        -12    1    4    4    0    0  0.64293920975E+01 -0.71710702609E+01  0.97300312635E+01  0.13690684417E+02  0.00000000000E+00 0.  1.
</event>
<event>
 8    1  0.1269154E-006  0.9118800E+02  0.7816164E-02  0.1184000E+00
        -11   -1    0    0    0    0  0.00000000000E+00  0.00000000000E+00  0.45593999997E+02  0.45594000000E+02  0.51100000000E-03 0.  1.
         11   -1    0    0    0    0 -0.00000000000E+00 -0.00000000000E+00 -0.45593999997E+02  0.45594000000E+02  0.51100000000E-03 0. -1.
         23    2    1    2    0    0  0.17763568394E-14 -0.71054273576E-14  0.00000000000E+00  0.91188000000E+02  0.91188000000E+02 0.  0.
    9900012    2    3    3    0    0 -0.68077433015E+01  0.32955812499E+02  0.14944889268E+02  0.54367073049E+02  0.39999974629E+02 0.  0.
        -12    1    3    3    0    0  0.68077433015E+01 -0.32955812499E+02 -0.14944889268E+02  0.36820926951E+02  0.00000000000E+00 0.  1.
         11    1    4    4    0    0 -0.15005129302E+01  0.14084309554E+02  0.17746206882E+02  0.22705663911E+02  0.51100000000E-03 0. -1.
        -11    1    4    4    0    0  0.55544941367E+01 -0.35596260671E+01 -0.15827030124E+00  0.65991205930E+01  0.51100000000E-03 0.  1.
         12    1    4    4    0    0 -0.10861724508E+02  0.22431129011E+02 -0.26430473124E+01  0.25062288545E+02  0.00000000000E+00 0. -1.
</event>
<event>
 8    1  0.1269154E-006  0.9118800E+02  0.7816164E-02  0.1184000E+00
        -11   -1    0    0    0    0  0.00000000000E+00  0.00000000000E+00  0.45593999997E+02  0.45594000000E+02  0.51100000000E-03 0. -1.
         11   -1    0    0    0    0 -0.00000000000E+00 -0.00000000000E+00 -0.45593999997E+02  0.45594000000E+02  0.51100000000E-03 0.  1.
         23    2    1    2    0    0 -0.35527136788E-14  0.00000000000E+00  0.71054273576E-14  0.91188000000E+02  0.91188000000E+02 0.  0.
    9900012    2    3    3    0    0  0.22829932828E+02  0.17934741375E+02 -0.22647517245E+02  0.54367206711E+02  0.40000279337E+02 0.  0.
         12    1    3    3    0    0 -0.22829932828E+02 -0.17934741375E+02  0.22647517245E+02  0.36820793289E+02  0.00000000000E+00 0. -1.
         11    1    4    4    0    0  0.41470876622E+01  0.11568473104E+01  0.66801983917E+01  0.79474324528E+01  0.51100000000E-03 0. -1.
        -11    1    4    4    0    0  0.67794699002E+01  0.12836853358E+01  0.38610276480E+01  0.79067436362E+01  0.51100000000E-03 0.  1.
        -12    1    4    4    0    0  0.11903375266E+02  0.15494208729E+02 -0.33188743285E+02  0.38513030621E+02  0.00000000000E+00 0.  1.
</event>
<event>
 8    1  0.1269154E-006  0.9118800E+02  0.7816164E-02  0.1184000E+00
        -11   -1    0    0    0    0  0.00000000000E+00  0.00000000000E+00  0.45593999997E+02  0.45594000000E+02  0.51100000000E-03 0. -1.
         11   -1    0    0    0    0 -0.00000000000E+00 -0.00000000000E+00 -0.45593999997E+02  0.45594000000E+02  0.51100000000E-03 0.  1.
         23    2    1    2    0    0  0.00000000000E+00  0.00000000000E+00  0.00000000000E+00  0.91188000000E+02  0.91188000000E+02 0.  0.
    9900012    2    3    3    0    0 -0.39993445592E+01 -0.15289767927E+02 -0.33256720475E+02  0.54367065507E+02  0.39999957437E+02 0.  0.
         12    1    3    3    0    0  0.39993445592E+01  0.15289767927E+02  0.33256720475E+02  0.36820934493E+02  0.00000000000E+00 0. -1.
         11    1    4    4    0    0 -0.21498223325E+01  0.35713178511E+01 -0.23703277508E+02  0.24067019178E+02  0.51100000000E-03 0. -1.
        -11    1    4    4    0    0 -0.83086175744E+01 -0.16922834106E+01 -0.83760641249E+01  0.11918699578E+02  0.51100000000E-03 0.  1.
        -12    1    4    4    0    0  0.64590953477E+01 -0.17168802368E+02 -0.11773788423E+01  0.18381346751E+02  0.00000000000E+00 0.  1.
</event>
<event>
 8    1  0.1269154E-006  0.9118800E+02  0.7816164E-02  0.1184000E+00
        -11   -1    0    0    0    0  0.00000000000E+00  0.00000000000E+00  0.45593999997E+02  0.45594000000E+02  0.51100000000E-03 0.  1.
         11   -1    0    0    0    0 -0.00000000000E+00 -0.00000000000E+00 -0.45593999997E+02  0.45594000000E+02  0.51100000000E-03 0. -1.
         23    2    1    2    0    0  0.17763568394E-14  0.00000000000E+00 -0.35527136788E-14  0.91188000000E+02  0.91188000000E+02 0.  0.
    9900012    2    3    3    0    0  0.12130069481E+02 -0.32795644800E+02 -0.11536306425E+02  0.54367091953E+02  0.40000017726E+02 0.  0.
        -12    1    3    3    0    0 -0.12130069481E+02  0.32795644800E+02  0.11536306425E+02  0.36820908047E+02  0.00000000000E+00 0.  1.
         11    1    4    4    0    0  0.11696316570E+02 -0.34407994201E+02 -0.15949422953E+02  0.39687504067E+02  0.51100000000E-03 0. -1.
        -11    1    4    4    0    0 -0.76110543234E+00  0.26638730625E+01  0.92141225531E+01  0.96216191910E+01  0.51100000000E-03 0.  1.
        -12    1    4    4    0    0  0.11948583439E+01 -0.10515236613E+01 -0.48010060251E+01  0.50579686955E+01  0.00000000000E+00 0.  1.
</event>
<event>
 8    1  0.1269154E-006  0.9118800E+02  0.7816164E-02  0.1184000E+00
        -11   -1    0    0    0    0  0.00000000000E+00  0.00000000000E+00  0.45593999997E+02  0.45594000000E+02  0.51100000000E-03 0.  1.
         11   -1    0    0    0    0 -0.00000000000E+00 -0.00000000000E+00 -0.45593999997E+02  0.45594000000E+02  0.51100000000E-03 0. -1.
         23    2    1    2    0    0  0.00000000000E+00 -0.17763568394E-14  0.71054273576E-14  0.91188000000E+02  0.91188000000E+02 0.  0.
    9900012    2    3    3    0    0  0.11195486776E+02 -0.13112400092E+02  0.32534692370E+02  0.54367079751E+02  0.39999989909E+02 0.  0.
        -12    1    3    3    0    0 -0.11195486776E+02  0.13112400092E+02 -0.32534692370E+02  0.36820920249E+02  0.00000000000E+00 0.  1.
         11    1    4    4    0    0  0.12813725814E+02 -0.10168644547E+01  0.40179098282E+01  0.13467337606E+02  0.51100000000E-03 0. -1.
        -11    1    4    4    0    0  0.92898645195E+01 -0.15016683525E+02  0.14161327356E+02  0.22635051571E+02  0.51100000000E-03 0.  1.
        -12    1    4    4    0    0 -0.10908103557E+02  0.29211478870E+01  0.14355455186E+02  0.18264690575E+02  0.00000000000E+00 0.  1.
</event>
<event>
 8    1  0.1269154E-006  0.9118800E+02  0.7816164E-02  0.1184000E+00
        -11   -1    0    0    0    0  0.00000000000E+00  0.00000000000E+00  0.45593999997E+02  0.45594000000E+02  0.51100000000E-03 0.  1.
         11   -1    0    0    0    0 -0.00000000000E+00 -0.00000000000E+00 -0.45593999997E+02  0.45594000000E+02  0.51100000000E-03 0. -1.
         23    2    1    2    0    0 -0.88817841970E-15  0.00000000000E+00  0.35527136788E-14  0.91188000000E+02  0.91188000000E+02 0.  0.
    9900012    2    3    3    0    0 -0.53024963002E+01 -0.25934431884E+02 -0.25594363310E+02  0.54367045947E+02  0.39999912845E+02 0.  0.
        -12    1    3    3    0    0  0.53024963002E+01  0.25934431884E+02  0.25594363310E+02  0.36820954053E+02  0.00000000000E+00 0.  1.
         11    1    4    4    0    0  0.48818955795E+01  0.75098583095E+01 -0.11238567041E+02  0.14371369652E+02  0.51100000000E-03 0.  1.
        -11    1    4    4    0    0 -0.83609881617E+00 -0.13905820937E+02  0.14215624930E+00  0.13931659120E+02  0.51100000000E-03 0. -1.
         12    1    4    4    0    0 -0.93482930635E+01 -0.19538469257E+02 -0.14497952519E+02  0.26064017175E+02  0.00000000000E+00 0. -1.
</event>
<event>
 8    1  0.1269154E-006  0.9118800E+02  0.7816164E-02  0.1184000E+00
        -11   -1    0    0    0    0  0.00000000000E+00  0.00000000000E+00  0.45593999997E+02  0.45594000000E+02  0.51100000000E-03 0.  1.
         11   -1    0    0    0    0 -0.00000000000E+00 -0.00000000000E+00 -0.45593999997E+02  0.45594000000E+02  0.51100000000E-03 0. -1.
         23    2    1    2    0    0  0.00000000000E+00  0.24424906542E-14 -0.71054273576E-14  0.91188000000E+02  0.91188000000E+02 0.  0.
    9900012    2    3    3    0    0  0.16836700566E+02  0.19302021929E+01 -0.32689138196E+02  0.54367083086E+02  0.39999997510E+02 0.  0.
        -12    1    3    3    0    0 -0.16836700566E+02 -0.19302021929E+01  0.32689138196E+02  0.36820916914E+02  0.00000000000E+00 0.  1.
         11    1    4    4    0    0 -0.13110014429E+01 -0.96807757886E+01 -0.21406305274E+01  0.10000922156E+02  0.51100000000E-03 0. -1.
        -11    1    4    4    0    0 -0.19363855457E+01  0.10838715654E+02 -0.56739840054E+01  0.12386340895E+02  0.51100000000E-03 0.  1.
        -12    1    4    4    0    0  0.20084087554E+02  0.77226232709E+00 -0.24874523663E+02  0.31979820035E+02  0.00000000000E+00 0.  1.
</event>
<event>
 8    1  0.1269154E-006  0.9118800E+02  0.7816164E-02  0.1184000E+00
        -11   -1    0    0    0    0  0.00000000000E+00  0.00000000000E+00  0.45593999997E+02  0.45594000000E+02  0.51100000000E-03 0.  1.
         11   -1    0    0    0    0 -0.00000000000E+00 -0.00000000000E+00 -0.45593999997E+02  0.45594000000E+02  0.51100000000E-03 0. -1.
         23    2    1    2    0    0 -0.35527136788E-14  0.00000000000E+00  0.71054273576E-14  0.91188000000E+02  0.91188000000E+02 0.  0.
    9900012    2    3    3    0    0  0.12772371154E+02  0.12077288775E+02 -0.32354042992E+02  0.54367102849E+02  0.40000042566E+02 0.  0.
        -12    1    3    3    0    0 -0.12772371154E+02 -0.12077288775E+02  0.32354042992E+02  0.36820897151E+02  0.00000000000E+00 0.  1.
         11    1    4    4    0    0 -0.11458450715E+02  0.30304081217E+01 -0.15971991585E+02  0.19889293141E+02  0.51100000000E-03 0. -1.
        -11    1    4    4    0    0  0.17588654416E+02  0.77364853515E+01 -0.29554744130E+01  0.19440905303E+02  0.51100000000E-03 0.  1.
         12    1    4    4    0    0  0.66421674534E+01  0.13103953017E+01 -0.13426576994E+02  0.15036904406E+02  0.00000000000E+00 0. -1.
</event>
<event>
 8    1  0.1269154E-006  0.9118800E+02  0.7816164E-02  0.1184000E+00
        -11   -1    0    0    0    0  0.00000000000E+00  0.00000000000E+00  0.45593999997E+02  0.45594000000E+02  0.51100000000E-03 0. -1.
         11   -1    0    0    0    0 -0.00000000000E+00 -0.00000000000E+00 -0.45593999997E+02  0.45594000000E+02  0.51100000000E-03 0.  1.
         23    2    1    2    0    0  0.00000000000E+00  0.00000000000E+00  0.00000000000E+00  0.91188000000E+02  0.91188000000E+02 0.  0.
    9900012    2    3    3    0    0  0.36509253774E+02 -0.19377423761E+01 -0.43702893846E+01  0.54367083580E+02  0.39999998638E+02 0.  0.
        -12    1    3    3    0    0 -0.36509253774E+02  0.19377423761E+01  0.43702893846E+01  0.36820916420E+02  0.00000000000E+00 0.  1.
         11    1    4    4    0    0  0.40595581696E+02  0.51195700521E+01 -0.75431296389E-01  0.40917196151E+02  0.51100000000E-03 0. -1.
        -11    1    4    4    0    0 -0.18401954738E+01 -0.64689184263E+01 -0.71191637397E+01  0.97936570086E+01  0.51100000000E-03 0.  1.
         12    1    4    4    0    0 -0.22461324476E+01 -0.58839400194E+00  0.28243056515E+01  0.36562304204E+01  0.00000000000E+00 0. -1.
</event>
<event>
 8    1  0.1269154E-006  0.9118800E+02  0.7816164E-02  0.1184000E+00
        -11   -1    0    0    0    0  0.00000000000E+00  0.00000000000E+00  0.45593999997E+02  0.45594000000E+02  0.51100000000E-03 0.  1.
         11   -1    0    0    0    0 -0.00000000000E+00 -0.00000000000E+00 -0.45593999997E+02  0.45594000000E+02  0.51100000000E-03 0. -1.
         23    2    1    2    0    0  0.00000000000E+00  0.00000000000E+00  0.00000000000E+00  0.91188000000E+02  0.91188000000E+02 0.  0.
    9900012    2    3    3    0    0 -0.31767521920E+02  0.40217785236E+01 -0.18177731791E+02  0.54367080885E+02  0.39999992493E+02 0.  0.
         12    1    3    3    0    0  0.31767521920E+02 -0.40217785236E+01  0.18177731791E+02  0.36820919115E+02  0.00000000000E+00 0. -1.
         11    1    4    4    0    0 -0.27679139627E+02  0.52993077538E+01 -0.69820898256E+01  0.29033894189E+02  0.51100000000E-03 0. -1.
        -11    1    4    4    0    0 -0.13055418705E+02 -0.28483297690E+01 -0.47620097687E+01  0.14185685649E+02  0.51100000000E-03 0.  1.
         12    1    4    4    0    0  0.89670364122E+01  0.15708005388E+01 -0.64336321969E+01  0.11147501047E+02  0.00000000000E+00 0. -1.
</event>
<event>
 8    1  0.1269154E-006  0.9118800E+02  0.7816164E-02  0.1184000E+00
        -11   -1    0    0    0    0  0.00000000000E+00  0.00000000000E+00  0.45593999997E+02  0.45594000000E+02  0.51100000000E-03 0. -1.
         11   -1    0    0    0    0 -0.00000000000E+00 -0.00000000000E+00 -0.45593999997E+02  0.45594000000E+02  0.51100000000E-03 0.  1.
         23    2    1    2    0    0  0.00000000000E+00  0.35527136788E-14  0.00000000000E+00  0.91188000000E+02  0.91188000000E+02 0.  0.
    9900012    2    3    3    0    0  0.16504610321E+02 -0.26840024885E+02 -0.19052338944E+02  0.54367072297E+02  0.39999972915E+02 0.  0.
         12    1    3    3    0    0 -0.16504610321E+02  0.26840024885E+02  0.19052338944E+02  0.36820927703E+02  0.00000000000E+00 0. -1.
         11    1    4    4    0    0 -0.11012568980E+01 -0.15740310781E+01  0.18882426280E+01  0.26936594205E+01  0.51100000000E-03 0. -1.
        -11    1    4    4    0    0  0.60838181079E+01 -0.30736963650E+02 -0.22844869156E+02  0.38777078593E+02  0.51100000000E-03 0.  1.
        -12    1    4    4    0    0  0.11522049111E+02  0.54709698433E+01  0.19042875840E+01  0.12896334283E+02  0.00000000000E+00 0.  1.
</event>
<event>
 8    1  0.1269154E-006  0.9118800E+02  0.7816164E-02  0.1184000E+00
        -11   -1    0    0    0    0  0.00000000000E+00  0.00000000000E+00  0.45593999997E+02  0.45594000000E+02  0.51100000000E-03 0.  1.
         11   -1    0    0    0    0 -0.00000000000E+00 -0.00000000000E+00 -0.45593999997E+02  0.45594000000E+02  0.51100000000E-03 0. -1.
         23    2    1    2    0    0 -0.71054273576E-14 -0.88817841970E-15 -0.44408920985E-15  0.91188000000E+02  0.91188000000E+02 0.  0.
    9900012    2    3    3    0    0 -0.36023436522E+02  0.68374637126E+01 -0.33676152535E+01  0.54367085816E+02  0.40000003734E+02 0.  0.
         12    1    3    3    0    0  0.36023436522E+02 -0.68374637126E+01  0.33676152535E+01  0.36820914184E+02  0.00000000000E+00 0. -1.
         11    1    4    4    0    0 -0.10691466364E+02 -0.94365822485E+01 -0.93930387330E+01  0.17075881074E+02  0.51100000000E-03 0.  1.
        -11    1    4    4    0    0 -0.67957723638E+01  0.20189642662E+01 -0.74651658285E+01  0.10295020148E+02  0.51100000000E-03 0. -1.
        -12    1    4    4    0    0 -0.18536197794E+02  0.14255081695E+02  0.13490589308E+02  0.26996184594E+02  0.00000000000E+00 0.  1.
</event>
<event>
 8    1  0.1269154E-006  0.9118800E+02  0.7816164E-02  0.1184000E+00
        -11   -1    0    0    0    0  0.00000000000E+00  0.00000000000E+00  0.45593999997E+02  0.45594000000E+02  0.51100000000E-03 0. -1.
         11   -1    0    0    0    0 -0.00000000000E+00 -0.00000000000E+00 -0.45593999997E+02  0.45594000000E+02  0.51100000000E-03 0.  1.
         23    2    1    2    0    0  0.58113236445E-15  0.00000000000E+00 -0.88817841970E-15  0.91188000000E+02  0.91188000000E+02 0.  0.
    9900012    2    3    3    0    0  0.42476515756E-02 -0.36369377522E+02 -0.57486813846E+01  0.54367095923E+02  0.40000026777E+02 0.  0.
         12    1    3    3    0    0 -0.42476515756E-02  0.36369377522E+02  0.57486813846E+01  0.36820904077E+02  0.00000000000E+00 0. -1.
         11    1    4    4    0    0  0.40847500607E+01 -0.14795801983E+02  0.61222703947E+01  0.16525227212E+02  0.51100000000E-03 0. -1.
        -11    1    4    4    0    0 -0.20763503083E+01 -0.28495955978E+02 -0.80447286439E+01  0.29682459415E+02  0.51100000000E-03 0.  1.
        -12    1    4    4    0    0 -0.20041521008E+01  0.69223804389E+01 -0.38262231354E+01  0.81594092964E+01  0.00000000000E+00 0.  1.
</event>
<event>
 8    1  0.1269154E-006  0.9118800E+02  0.7816164E-02  0.1184000E+00
        -11   -1    0    0    0    0  0.00000000000E+00  0.00000000000E+00  0.45593999997E+02  0.45594000000E+02  0.51100000000E-03 0. -1.
         11   -1    0    0    0    0 -0.00000000000E+00 -0.00000000000E+00 -0.45593999997E+02  0.45594000000E+02  0.51100000000E-03 0.  1.
         23    2    1    2    0    0  0.00000000000E+00  0.00000000000E+00  0.00000000000E+00  0.91188000000E+02  0.91188000000E+02 0.  0.
    9900012    2    3    3    0    0 -0.87994148907E+01  0.26661545170E+02 -0.23822516434E+02  0.54367082269E+02  0.39999995650E+02 0.  0.
         12    1    3    3    0    0  0.87994148907E+01 -0.26661545170E+02  0.23822516434E+02  0.36820917731E+02  0.00000000000E+00 0. -1.
         11    1    4    4    0    0 -0.90384297612E+00  0.10946016629E+02 -0.18979800064E+02  0.21928634771E+02  0.51100000000E-03 0. -1.
        -11    1    4    4    0    0 -0.11933504599E+02  0.13176517671E+02 -0.13656228826E+02  0.22416996586E+02  0.51100000000E-03 0.  1.
         12    1    4    4    0    0  0.40379326846E+01  0.25390108700E+01  0.88135124564E+01  0.10021450912E+02  0.00000000000E+00 0. -1.
</event>
<event>
 8    1  0.1269154E-006  0.9118800E+02  0.7816164E-02  0.1184000E+00
        -11   -1    0    0    0    0  0.00000000000E+00  0.00000000000E+00  0.45593999997E+02  0.45594000000E+02  0.51100000000E-03 0.  1.
         11   -1    0    0    0    0 -0.00000000000E+00 -0.00000000000E+00 -0.45593999997E+02  0.45594000000E+02  0.51100000000E-03 0. -1.
         23    2    1    2    0    0 -0.35527136788E-14  0.00000000000E+00  0.00000000000E+00  0.91188000000E+02  0.91188000000E+02 0.  0.
    9900012    2    3    3    0    0  0.30358515755E+02  0.98155063041E+01 -0.18379240576E+02  0.54367080308E+02  0.39999991177E+02 0.  0.
        -12    1    3    3    0    0 -0.30358515755E+02 -0.98155063041E+01  0.18379240576E+02  0.36820919692E+02  0.00000000000E+00 0.  1.
         11    1    4    4    0    0  0.22396030319E+02  0.15846332781E+02 -0.14760743191E+02  0.31153939983E+02  0.51100000000E-03 0. -1.
        -11    1    4    4    0    0 -0.73072649053E+00 -0.78538458508E+01  0.61560406933E+01  0.10005683042E+02  0.51100000000E-03 0.  1.
        -12    1    4    4    0    0  0.86932119271E+01  0.18230193738E+01 -0.97745380783E+01  0.13207457283E+02  0.00000000000E+00 0.  1.
</event>
<event>
 8    1  0.1269154E-006  0.9118800E+02  0.7816164E-02  0.1184000E+00
        -11   -1    0    0    0    0  0.00000000000E+00  0.00000000000E+00  0.45593999997E+02  0.45594000000E+02  0.51100000000E-03 0. -1.
         11   -1    0    0    0    0 -0.00000000000E+00 -0.00000000000E+00 -0.45593999997E+02  0.45594000000E+02  0.51100000000E-03 0.  1.
         23    2    1    2    0    0 -0.10658141036E-13 -0.88817841970E-15 -0.35527136788E-14  0.91188000000E+02  0.91188000000E+02 0.  0.
    9900012    2    3    3    0    0  0.28459276508E+02  0.59214177272E+01  0.22600172710E+02  0.54367334419E+02  0.40000570472E+02 0.  0.
        -12    1    3    3    0    0 -0.28459276508E+02 -0.59214177272E+01 -0.22600172710E+02  0.36820665581E+02  0.00000000000E+00 0.  1.
         11    1    4    4    0    0  0.19531283575E+01 -0.43336626829E+01  0.17859297212E+01  0.50778822220E+01  0.51100000000E-03 0. -1.
        -11    1    4    4    0    0  0.11910476808E+01  0.96481532266E+01  0.21882334494E+02  0.23944561354E+02  0.51100000000E-03 0.  1.
         12    1    4    4    0    0  0.25315100470E+02  0.60692718344E+00 -0.10680915050E+01  0.25344890843E+02  0.00000000000E+00 0. -1.
</event>
<event>
 8    1  0.1269154E-006  0.9118800E+02  0.7816164E-02  0.1184000E+00
        -11   -1    0    0    0    0  0.00000000000E+00  0.00000000000E+00  0.45593999997E+02  0.45594000000E+02  0.51100000000E-03 0.  1.
         11   -1    0    0    0    0 -0.00000000000E+00 -0.00000000000E+00 -0.45593999997E+02  0.45594000000E+02  0.51100000000E-03 0. -1.
         23    2    1    2    0    0  0.00000000000E+00  0.00000000000E+00  0.00000000000E+00  0.91188000000E+02  0.91188000000E+02 0.  0.
    9900012    2    3    3    0    0  0.23544072534E+02 -0.16608695246E+02  0.22926147103E+02  0.54367077548E+02  0.39999984886E+02 0.  0.
         12    1    3    3    0    0 -0.23544072534E+02  0.16608695246E+02 -0.22926147103E+02  0.36820922452E+02  0.00000000000E+00 0. -1.
         11    1    4    4    0    0 -0.59120083161E+00  0.59537313313E+01  0.14527418751E+01  0.61568575106E+01  0.51100000000E-03 0.  1.
        -11    1    4    4    0    0  0.53864270511E+01 -0.10320020313E+02 -0.57312075165E+01  0.12975482862E+02  0.51100000000E-03 0. -1.
         12    1    4    4    0    0  0.18748846314E+02 -0.12242406265E+02  0.27204612744E+02  0.35234737175E+02  0.00000000000E+00 0. -1.
</event>
<event>
 8    1  0.1269154E-006  0.9118800E+02  0.7816164E-02  0.1184000E+00
        -11   -1    0    0    0    0  0.00000000000E+00  0.00000000000E+00  0.45593999997E+02  0.45594000000E+02  0.51100000000E-03 0. -1.
         11   -1    0    0    0    0 -0.00000000000E+00 -0.00000000000E+00 -0.45593999997E+02  0.45594000000E+02  0.51100000000E-03 0.  1.
         23    2    1    2    0    0  0.35527136788E-14  0.35527136788E-14 -0.17763568394E-14  0.91188000000E+02  0.91188000000E+02 0.  0.
    9900012    2    3    3    0    0 -0.28019940663E+02 -0.18471279577E+02 -0.15148419610E+02  0.54367083924E+02  0.39999999422E+02 0.  0.
         12    1    3    3    0    0  0.28019940663E+02  0.18471279577E+02  0.15148419610E+02  0.36820916076E+02  0.00000000000E+00 0. -1.
         11    1    4    4    0    0 -0.20507994604E+02 -0.31436765926E+01  0.89825586039E+01  0.22608558214E+02  0.51100000000E-03 0. -1.
        -11    1    4    4    0    0 -0.96137238093E+01 -0.14037421778E+02 -0.16351693563E+02  0.23597685868E+02  0.51100000000E-03 0.  1.
         12    1    4    4    0    0  0.21017777500E+01 -0.12901812057E+01 -0.77792846511E+01  0.81608398427E+01  0.00000000000E+00 0. -1.
</event>
<event>
 8    1  0.1269154E-006  0.9118800E+02  0.7816164E-02  0.1184000E+00
        -11   -1    0    0    0    0  0.00000000000E+00  0.00000000000E+00  0.45593999997E+02  0.45594000000E+02  0.51100000000E-03 0.  1.
         11   -1    0    0    0    0 -0.00000000000E+00 -0.00000000000E+00 -0.45593999997E+02  0.45594000000E+02  0.51100000000E-03 0. -1.
         23    2    1    2    0    0  0.00000000000E+00  0.00000000000E+00 -0.35527136788E-14  0.91188000000E+02  0.91188000000E+02 0.  0.
    9900012    2    3    3    0    0 -0.83504731481E+01  0.16440784916E+02 -0.31870878800E+02  0.54367045016E+02  0.39999910722E+02 0.  0.
        -12    1    3    3    0    0  0.83504731481E+01 -0.16440784916E+02  0.31870878800E+02  0.36820954984E+02  0.00000000000E+00 0.  1.
         11    1    4    4    0    0 -0.13293507507E+02 -0.17183177522E+01 -0.78397141598E+01  0.15528395800E+02  0.51100000000E-03 0. -1.
        -11    1    4    4    0    0  0.93334162973E+01 -0.13143678684E+01 -0.12919160332E+02  0.15992026970E+02  0.51100000000E-03 0.  1.
         12    1    4    4    0    0 -0.43903819380E+01  0.19473470536E+02 -0.11112004309E+02  0.22846622246E+02  0.00000000000E+00 0. -1.
</event>
<event>
 8    1  0.1269154E-006  0.9118800E+02  0.7816164E-02  0.1184000E+00
        -11   -1    0    0    0    0  0.00000000000E+00  0.00000000000E+00  0.45593999997E+02  0.45594000000E+02  0.51100000000E-03 0. -1.
         11   -1    0    0    0    0 -0.00000000000E+00 -0.00000000000E+00 -0.45593999997E+02  0.45594000000E+02  0.51100000000E-03 0.  1.
         23    2    1    2    0    0 -0.10658141036E-13  0.44408920985E-15  0.35527136788E-14  0.91188000000E+02  0.91188000000E+02 0.  0.
    9900012    2    3    3    0    0 -0.29833529320E+02 -0.33281544383E+01  0.21322839482E+02  0.54367087909E+02  0.40000008505E+02 0.  0.
        -12    1    3    3    0    0  0.29833529320E+02  0.33281544383E+01 -0.21322839482E+02  0.36820912091E+02  0.00000000000E+00 0.  1.
         11    1    4    4    0    0  0.21934783337E+01  0.57599883476E+01  0.19451621394E+01  0.64631624593E+01  0.51100000000E-03 0. -1.
        -11    1    4    4    0    0  0.31421254505E+01 -0.89642251211E-01 -0.37249405147E+01  0.48740301783E+01  0.51100000000E-03 0.  1.
        -12    1    4    4    0    0 -0.35169133104E+02 -0.89985005348E+01  0.23102617858E+02  0.43029895271E+02  0.00000000000E+00 0.  1.
</event>
<event>
 8    1  0.1269154E-006  0.9118800E+02  0.7816164E-02  0.1184000E+00
        -11   -1    0    0    0    0  0.00000000000E+00  0.00000000000E+00  0.45593999997E+02  0.45594000000E+02  0.51100000000E-03 0.  1.
         11   -1    0    0    0    0 -0.00000000000E+00 -0.00000000000E+00 -0.45593999997E+02  0.45594000000E+02  0.51100000000E-03 0. -1.
         23    2    1    2    0    0  0.88817841970E-15 -0.35527136788E-14  0.00000000000E+00  0.91188000000E+02  0.91188000000E+02 0.  0.
    9900012    2    3    3    0    0  0.26616099692E+01 -0.15759180935E+02  0.33171431555E+02  0.54367084439E+02  0.40000000596E+02 0.  0.
         12    1    3    3    0    0 -0.26616099692E+01  0.15759180935E+02 -0.33171431555E+02  0.36820915561E+02  0.00000000000E+00 0. -1.
         11    1    4    4    0    0 -0.40559639568E+01  0.93165438193E+01  0.93856626077E+01  0.13832552013E+02  0.51100000000E-03 0. -1.
        -11    1    4    4    0    0  0.84257624932E+01 -0.22978859086E+01  0.19793270741E+01  0.89549700820E+01  0.51100000000E-03 0.  1.
        -12    1    4    4    0    0 -0.17081885672E+01 -0.22777838846E+02  0.21806441873E+02  0.31579562344E+02  0.00000000000E+00 0.  1.
</event>
<event>
 8    1  0.1269154E-006  0.9118800E+02  0.7816164E-02  0.1184000E+00
        -11   -1    0    0    0    0  0.00000000000E+00  0.00000000000E+00  0.45593999997E+02  0.45594000000E+02  0.51100000000E-03 0.  1.
         11   -1    0    0    0    0 -0.00000000000E+00 -0.00000000000E+00 -0.45593999997E+02  0.45594000000E+02  0.51100000000E-03 0. -1.
         23    2    1    2    0    0  0.00000000000E+00  0.44408920985E-15  0.00000000000E+00  0.91188000000E+02  0.91188000000E+02 0.  0.
    9900012    2    3    3    0    0  0.30564602097E+02  0.38861820604E+01  0.20161407253E+02  0.54367086720E+02  0.40000005795E+02 0.  0.
         12    1    3    3    0    0 -0.30564602097E+02 -0.38861820604E+01 -0.20161407253E+02  0.36820913280E+02  0.00000000000E+00 0. -1.
         11    1    4    4    0    0  0.15124648475E+02  0.91729424480E+01 -0.68229504189E+01  0.18959180291E+02  0.51100000000E-03 0. -1.
        -11    1    4    4    0    0  0.16565547064E+02  0.77152023605E+00  0.21548169393E+02  0.27190737347E+02  0.51100000000E-03 0.  1.
        -12    1    4    4    0    0 -0.11255934419E+01 -0.60582806237E+01  0.54361882792E+01  0.82171690818E+01  0.00000000000E+00 0.  1.
</event>
<event>
 8    1  0.1269154E-006  0.9118800E+02  0.7816164E-02  0.1184000E+00
        -11   -1    0    0    0    0  0.00000000000E+00  0.00000000000E+00  0.45593999997E+02  0.45594000000E+02  0.51100000000E-03 0.  1.
         11   -1    0    0    0    0 -0.00000000000E+00 -0.00000000000E+00 -0.45593999997E+02  0.45594000000E+02  0.51100000000E-03 0. -1.
         23    2    1    2    0    0  0.00000000000E+00  0.00000000000E+00 -0.44408920985E-15  0.91188000000E+02  0.91188000000E+02 0.  0.
    9900012    2    3    3    0    0  0.31882225443E+02 -0.18373866511E+02 -0.13059437797E+01  0.54367071727E+02  0.39999971615E+02 0.  0.
        -12    1    3    3    0    0 -0.31882225443E+02  0.18373866511E+02  0.13059437797E+01  0.36820928273E+02  0.00000000000E+00 0.  1.
         11    1    4    4    0    0  0.55291119388E+01 -0.90966084786E+01 -0.32081596008E+01  0.11118077753E+02  0.51100000000E-03 0. -1.
        -11    1    4    4    0    0  0.11849800686E+02 -0.98323932527E+01 -0.14636856061E+02  0.21244559044E+02  0.51100000000E-03 0.  1.
         12    1    4    4    0    0  0.14503312819E+02  0.55513522072E+00  0.16539071882E+02  0.22004434929E+02  0.00000000000E+00 0. -1.
</event>
<event>
 8    1  0.1269154E-006  0.9118800E+02  0.7816164E-02  0.1184000E+00
        -11   -1    0    0    0    0  0.00000000000E+00  0.00000000000E+00  0.45593999997E+02  0.45594000000E+02  0.51100000000E-03 0.  1.
         11   -1    0    0    0    0 -0.00000000000E+00 -0.00000000000E+00 -0.45593999997E+02  0.45594000000E+02  0.51100000000E-03 0. -1.
         23    2    1    2    0    0  0.35527136788E-14  0.71054273576E-14  0.00000000000E+00  0.91188000000E+02  0.91188000000E+02 0.  0.
    9900012    2    3    3    0    0 -0.28963985117E+02 -0.18358386245E+02  0.13410272097E+02  0.54367106786E+02  0.40000051540E+02 0.  0.
        -12    1    3    3    0    0  0.28963985117E+02  0.18358386245E+02 -0.13410272097E+02  0.36820893214E+02  0.00000000000E+00 0.  1.
         11    1    4    4    0    0 -0.95032067027E+01 -0.29650415188E+01  0.39797375419E+01  0.10721040994E+02  0.51100000000E-03 0. -1.
        -11    1    4    4    0    0 -0.13286652161E+02  0.95982182606E+01  0.68829280054E+01  0.17777390630E+02  0.51100000000E-03 0.  1.
         12    1    4    4    0    0 -0.61741262536E+01 -0.24991562986E+02  0.25476065495E+01  0.25868675162E+02  0.00000000000E+00 0. -1.
</event>
<event>
 8    1  0.1269154E-006  0.9118800E+02  0.7816164E-02  0.1184000E+00
        -11   -1    0    0    0    0  0.00000000000E+00  0.00000000000E+00  0.45593999997E+02  0.45594000000E+02  0.51100000000E-03 0. -1.
         11   -1    0    0    0    0 -0.00000000000E+00 -0.00000000000E+00 -0.45593999997E+02  0.45594000000E+02  0.51100000000E-03 0.  1.
         23    2    1    2    0    0  0.88817841970E-15  0.00000000000E+00  0.00000000000E+00  0.91188000000E+02  0.91188000000E+02 0.  0.
    9900012    2    3    3    0    0 -0.49471776070E+01 -0.32385383915E+02  0.16807403254E+02  0.54367130079E+02  0.40000104641E+02 0.  0.
         12    1    3    3    0    0  0.49471776070E+01  0.32385383915E+02 -0.16807403254E+02  0.36820869921E+02  0.00000000000E+00 0. -1.
         11    1    4    4    0    0 -0.96263760028E+01 -0.17731491406E+02  0.24802470254E+02  0.31972416759E+02  0.51100000000E-03 0. -1.
        -11    1    4    4    0    0 -0.91075380074E+00 -0.13705250249E+02 -0.15688555805E+01  0.13824784446E+02  0.51100000000E-03 0.  1.
         12    1    4    4    0    0  0.55899521966E+01 -0.94864225951E+00 -0.64262114199E+01  0.85699288742E+01  0.00000000000E+00 0. -1.
</event>
<event>
 8    1  0.1269154E-006  0.9118800E+02  0.7816164E-02  0.1184000E+00
        -11   -1    0    0    0    0  0.00000000000E+00  0.00000000000E+00  0.45593999997E+02  0.45594000000E+02  0.51100000000E-03 0.  1.
         11   -1    0    0    0    0 -0.00000000000E+00 -0.00000000000E+00 -0.45593999997E+02  0.45594000000E+02  0.51100000000E-03 0. -1.
         23    2    1    2    0    0 -0.35527136788E-14  0.00000000000E+00  0.35527136788E-14  0.91188000000E+02  0.91188000000E+02 0.  0.
    9900012    2    3    3    0    0 -0.25890934755E+02  0.19343373033E+02  0.17642963992E+02  0.54367071695E+02  0.39999971544E+02 0.  0.
         12    1    3    3    0    0  0.25890934755E+02 -0.19343373033E+02 -0.17642963992E+02  0.36820928305E+02  0.00000000000E+00 0. -1.
         11    1    4    4    0    0 -0.42049117631E+01 -0.58832017816E+01 -0.10994713215E+01  0.73145186845E+01  0.51100000000E-03 0. -1.
        -11    1    4    4    0    0 -0.34487812538E+01  0.19436869101E+01  0.16968571313E+02  0.17424248151E+02  0.51100000000E-03 0.  1.
         12    1    4    4    0    0 -0.18237241738E+02  0.23282887904E+02  0.17738640004E+01  0.29628304860E+02  0.00000000000E+00 0. -1.
</event>
<event>
 8    1  0.1269154E-006  0.9118800E+02  0.7816164E-02  0.1184000E+00
        -11   -1    0    0    0    0  0.00000000000E+00  0.00000000000E+00  0.45593999997E+02  0.45594000000E+02  0.51100000000E-03 0.  1.
         11   -1    0    0    0    0 -0.00000000000E+00 -0.00000000000E+00 -0.45593999997E+02  0.45594000000E+02  0.51100000000E-03 0. -1.
         23    2    1    2    0    0  0.00000000000E+00  0.00000000000E+00 -0.88817841970E-15  0.91188000000E+02  0.91188000000E+02 0.  0.
    9900012    2    3    3    0    0 -0.17995120986E+02 -0.31649982847E+02  0.54985683083E+01  0.54367081395E+02  0.39999993655E+02 0.  0.
         12    1    3    3    0    0  0.17995120986E+02  0.31649982847E+02 -0.54985683083E+01  0.36820918605E+02  0.00000000000E+00 0. -1.
         11    1    4    4    0    0  0.72638544294E+01 -0.37683058858E+01 -0.39990345927E+00  0.81929014066E+01  0.51100000000E-03 0. -1.
        -11    1    4    4    0    0 -0.21033712988E+02 -0.13240404463E+02  0.14400076443E+02  0.28724338012E+02  0.51100000000E-03 0.  1.
         12    1    4    4    0    0 -0.42252624274E+01 -0.14641272498E+02 -0.85016046751E+01  0.17449841976E+02  0.00000000000E+00 0. -1.
</event>
<event>
 8    1  0.1269154E-006  0.9118800E+02  0.7816164E-02  0.1184000E+00
        -11   -1    0    0    0    0  0.00000000000E+00  0.00000000000E+00  0.45593999997E+02  0.45594000000E+02  0.51100000000E-03 0. -1.
         11   -1    0    0    0    0 -0.00000000000E+00 -0.00000000000E+00 -0.45593999997E+02  0.45594000000E+02  0.51100000000E-03 0.  1.
         23    2    1    2    0    0  0.00000000000E+00  0.00000000000E+00  0.00000000000E+00  0.91188000000E+02  0.91188000000E+02 0.  0.
    9900012    2    3    3    0    0  0.70785697722E+01  0.31520119972E+02 -0.17668202778E+02  0.54366952996E+02  0.39999700944E+02 0.  0.
         12    1    3    3    0    0 -0.70785697722E+01 -0.31520119972E+02  0.17668202778E+02  0.36821047004E+02  0.00000000000E+00 0. -1.
         11    1    4    4    0    0 -0.11055598547E+01  0.22325189431E+02  0.54237484943E+01  0.23001160704E+02  0.51100000000E-03 0. -1.
        -11    1    4    4    0    0  0.85675304509E+01  0.13782403845E+02 -0.20271100983E+02  0.25966801287E+02  0.51100000000E-03 0.  1.
         12    1    4    4    0    0 -0.38340082396E+00 -0.45874733048E+01 -0.28208502898E+01  0.53989910049E+01  0.00000000000E+00 0. -1.
</event>
<event>
 8    1  0.1269154E-006  0.9118800E+02  0.7816164E-02  0.1184000E+00
        -11   -1    0    0    0    0  0.00000000000E+00  0.00000000000E+00  0.45593999997E+02  0.45594000000E+02  0.51100000000E-03 0. -1.
         11   -1    0    0    0    0 -0.00000000000E+00 -0.00000000000E+00 -0.45593999997E+02  0.45594000000E+02  0.51100000000E-03 0.  1.
         23    2    1    2    0    0  0.00000000000E+00  0.00000000000E+00  0.35527136788E-14  0.91188000000E+02  0.91188000000E+02 0.  0.
    9900012    2    3    3    0    0 -0.34332304263E+02  0.26203128990E+01 -0.13046096495E+02  0.54367166367E+02  0.40000187367E+02 0.  0.
        -12    1    3    3    0    0  0.34332304263E+02 -0.26203128990E+01  0.13046096495E+02  0.36820833633E+02  0.00000000000E+00 0.  1.
         11    1    4    4    0    0 -0.23361681152E+02  0.94920296750E+01 -0.22107210302E+02  0.33534989507E+02  0.51100000000E-03 0. -1.
        -11    1    4    4    0    0 -0.36789661112E+01 -0.84241048239E+01  0.12316772972E+00  0.91932314386E+01  0.51100000000E-03 0.  1.
         12    1    4    4    0    0 -0.72916569995E+01  0.15523880479E+01  0.89379460779E+01  0.11638945422E+02  0.00000000000E+00 0. -1.
</event>
<event>
 8    1  0.1269154E-006  0.9118800E+02  0.7816164E-02  0.1184000E+00
        -11   -1    0    0    0    0  0.00000000000E+00  0.00000000000E+00  0.45593999997E+02  0.45594000000E+02  0.51100000000E-03 0. -1.
         11   -1    0    0    0    0 -0.00000000000E+00 -0.00000000000E+00 -0.45593999997E+02  0.45594000000E+02  0.51100000000E-03 0.  1.
         23    2    1    2    0    0  0.00000000000E+00 -0.35527136788E-14 -0.17763568394E-14  0.91188000000E+02  0.91188000000E+02 0.  0.
    9900012    2    3    3    0    0  0.28863315485E+02  0.20001823138E+02  0.11073186152E+02  0.54367090706E+02  0.40000014884E+02 0.  0.
        -12    1    3    3    0    0 -0.28863315485E+02 -0.20001823138E+02 -0.11073186152E+02  0.36820909294E+02  0.00000000000E+00 0.  1.
         11    1    4    4    0    0  0.19620885463E+02  0.24016736754E+02 -0.36513394062E+01  0.31226832539E+02  0.51100000000E-03 0. -1.
        -11    1    4    4    0    0 -0.30672595516E+01 -0.18585196405E+01  0.84006924601E+01  0.91342109940E+01  0.51100000000E-03 0.  1.
        -12    1    4    4    0    0  0.12309689574E+02 -0.21563939759E+01  0.63238330980E+01  0.14006047174E+02  0.00000000000E+00 0.  1.
</event>
<event>
 8    1  0.1269154E-006  0.9118800E+02  0.7816164E-02  0.1184000E+00
        -11   -1    0    0    0    0  0.00000000000E+00  0.00000000000E+00  0.45593999997E+02  0.45594000000E+02  0.51100000000E-03 0.  1.
         11   -1    0    0    0    0 -0.00000000000E+00 -0.00000000000E+00 -0.45593999997E+02  0.45594000000E+02  0.51100000000E-03 0. -1.
         23    2    1    2    0    0  0.00000000000E+00  0.00000000000E+00 -0.35527136788E-14  0.91188000000E+02  0.91188000000E+02 0.  0.
    9900012    2    3    3    0    0  0.23094954134E+01 -0.23841239241E+02  0.27965008032E+02  0.54367080242E+02  0.39999991027E+02 0.  0.
         12    1    3    3    0    0 -0.23094954134E+01  0.23841239241E+02 -0.27965008032E+02  0.36820919758E+02  0.00000000000E+00 0. -1.
         11    1    4    4    0    0  0.62990166813E+01 -0.17006101693E+02 -0.46741156657E+00  0.18141212192E+02  0.51100000000E-03 0. -1.
        -11    1    4    4    0    0 -0.58546532228E+01 -0.47902555809E+01  0.31323239574E+02  0.32223731171E+02  0.51100000000E-03 0.  1.
         12    1    4    4    0    0  0.18651319550E+01 -0.20448819668E+01 -0.28908199754E+01  0.40021368790E+01  0.00000000000E+00 0. -1.
</event>
<event>
 8    1  0.1269154E-006  0.9118800E+02  0.7816164E-02  0.1184000E+00
        -11   -1    0    0    0    0  0.00000000000E+00  0.00000000000E+00  0.45593999997E+02  0.45594000000E+02  0.51100000000E-03 0. -1.
         11   -1    0    0    0    0 -0.00000000000E+00 -0.00000000000E+00 -0.45593999997E+02  0.45594000000E+02  0.51100000000E-03 0.  1.
         23    2    1    2    0    0  0.00000000000E+00  0.00000000000E+00  0.35527136788E-14  0.91188000000E+02  0.91188000000E+02 0.  0.
    9900012    2    3    3    0    0  0.86093339574E+01 -0.26561908818E+02 -0.24002572963E+02  0.54367093709E+02  0.40000021728E+02 0.  0.
         12    1    3    3    0    0 -0.86093339574E+01  0.26561908818E+02  0.24002572963E+02  0.36820906291E+02  0.00000000000E+00 0. -1.
         11    1    4    4    0    0  0.28796278490E+01 -0.71877891820E+01 -0.11700710760E+02  0.14030794789E+02  0.51100000000E-03 0. -1.
        -11    1    4    4    0    0 -0.67239854882E+01 -0.18727688605E+02 -0.17809039973E+02  0.26703936158E+02  0.51100000000E-03 0.  1.
         12    1    4    4    0    0  0.12453691597E+02 -0.64643103124E+00  0.55071777702E+01  0.13632362761E+02  0.00000000000E+00 0. -1.
</event>
<event>
 8    1  0.1269154E-006  0.9118800E+02  0.7816164E-02  0.1184000E+00
        -11   -1    0    0    0    0  0.00000000000E+00  0.00000000000E+00  0.45593999997E+02  0.45594000000E+02  0.51100000000E-03 0.  1.
         11   -1    0    0    0    0 -0.00000000000E+00 -0.00000000000E+00 -0.45593999997E+02  0.45594000000E+02  0.51100000000E-03 0. -1.
         23    2    1    2    0    0 -0.35527136788E-14  0.35527136788E-14 -0.17763568394E-14  0.91188000000E+02  0.91188000000E+02 0.  0.
    9900012    2    3    3    0    0  0.21454950037E+02 -0.25694730198E+02  0.15337699865E+02  0.54367094549E+02  0.40000023644E+02 0.  0.
         12    1    3    3    0    0 -0.21454950037E+02  0.25694730198E+02 -0.15337699865E+02  0.36820905451E+02  0.00000000000E+00 0. -1.
         11    1    4    4    0    0  0.24057164229E+02 -0.68972513729E+01  0.86275241760E+01  0.26471747220E+02  0.51100000000E-03 0.  1.
        -11    1    4    4    0    0 -0.47452682027E+00  0.40337793079E+01  0.18139227006E+01  0.44482431400E+01  0.51100000000E-03 0. -1.
         12    1    4    4    0    0 -0.21276873714E+01 -0.22831258133E+02  0.48962529885E+01  0.23447104189E+02  0.00000000000E+00 0. -1.
</event>
<event>
 8    1  0.1269154E-006  0.9118800E+02  0.7816164E-02  0.1184000E+00
        -11   -1    0    0    0    0  0.00000000000E+00  0.00000000000E+00  0.45593999997E+02  0.45594000000E+02  0.51100000000E-03 0.  1.
         11   -1    0    0    0    0 -0.00000000000E+00 -0.00000000000E+00 -0.45593999997E+02  0.45594000000E+02  0.51100000000E-03 0. -1.
         23    2    1    2    0    0  0.35527136788E-14 -0.71054273576E-14  0.00000000000E+00  0.91188000000E+02  0.91188000000E+02 0.  0.
    9900012    2    3    3    0    0  0.31389893398E+02 -0.17290945207E+02  0.84545255414E+01  0.54367065794E+02  0.39999958090E+02 0.  0.
        -12    1    3    3    0    0 -0.31389893398E+02  0.17290945207E+02 -0.84545255414E+01  0.36820934206E+02  0.00000000000E+00 0.  1.
         11    1    4    4    0    0  0.31961130601E+01 -0.47417146834E+01  0.21936226518E+01  0.61246205949E+01  0.51100000000E-03 0. -1.
        -11    1    4    4    0    0 -0.60185579308E+01  0.49182530865E+01  0.60150160254E+01  0.98281570518E+01  0.51100000000E-03 0.  1.
        -12    1    4    4    0    0  0.34212338269E+02 -0.17467483611E+02  0.24588686428E+00  0.38414288147E+02  0.00000000000E+00 0.  1.
</event>
<event>
 8    1  0.1269154E-006  0.9118800E+02  0.7816164E-02  0.1184000E+00
        -11   -1    0    0    0    0  0.00000000000E+00  0.00000000000E+00  0.45593999997E+02  0.45594000000E+02  0.51100000000E-03 0.  1.
         11   -1    0    0    0    0 -0.00000000000E+00 -0.00000000000E+00 -0.45593999997E+02  0.45594000000E+02  0.51100000000E-03 0. -1.
         23    2    1    2    0    0  0.13322676296E-14  0.71054273576E-14 -0.35527136788E-14  0.91188000000E+02  0.91188000000E+02 0.  0.
    9900012    2    3    3    0    0 -0.29270104843E+01 -0.31903797188E+02  0.18148257879E+02  0.54367096570E+02  0.40000028250E+02 0.  0.
         12    1    3    3    0    0  0.29270104843E+01  0.31903797188E+02 -0.18148257879E+02  0.36820903430E+02  0.00000000000E+00 0. -1.
         11    1    4    4    0    0 -0.53526413245E+01 -0.13506302617E+02  0.21770211329E+02  0.26172754557E+02  0.51100000000E-03 0. -1.
        -11    1    4    4    0    0 -0.42313732185E+00  0.46844762428E+01 -0.63418198354E+00  0.47461089233E+01  0.51100000000E-03 0.  1.
        -12    1    4    4    0    0  0.28487681620E+01 -0.23081970814E+02 -0.29877714668E+01  0.23448233090E+02  0.00000000000E+00 0.  1.
</event>
<event>
 8    1  0.1269154E-006  0.9118800E+02  0.7816164E-02  0.1184000E+00
        -11   -1    0    0    0    0  0.00000000000E+00  0.00000000000E+00  0.45593999997E+02  0.45594000000E+02  0.51100000000E-03 0.  1.
         11   -1    0    0    0    0 -0.00000000000E+00 -0.00000000000E+00 -0.45593999997E+02  0.45594000000E+02  0.51100000000E-03 0. -1.
         23    2    1    2    0    0 -0.17763568394E-14  0.44408920985E-15  0.00000000000E+00  0.91188000000E+02  0.91188000000E+02 0.  0.
    9900012    2    3    3    0    0  0.92734081378E+01  0.28390441161E+01  0.35520742303E+02  0.54367090129E+02  0.40000013567E+02 0.  0.
         12    1    3    3    0    0 -0.92734081378E+01 -0.28390441161E+01 -0.35520742303E+02  0.36820909871E+02  0.00000000000E+00 0. -1.
         11    1    4    4    0    0 -0.35863714225E+01 -0.27556716651E+00  0.24919568090E+01  0.43758252070E+01  0.51100000000E-03 0. -1.
        -11    1    4    4    0    0 -0.61968853600E+01  0.35269851524E+00  0.29833309592E+02  0.30472153614E+02  0.51100000000E-03 0.  1.
         12    1    4    4    0    0  0.19056664920E+02  0.27619127674E+01  0.31954759023E+01  0.19519111308E+02  0.00000000000E+00 0. -1.
</event>
<event>
 8    1  0.1269154E-006  0.9118800E+02  0.7816164E-02  0.1184000E+00
        -11   -1    0    0    0    0  0.00000000000E+00  0.00000000000E+00  0.45593999997E+02  0.45594000000E+02  0.51100000000E-03 0. -1.
         11   -1    0    0    0    0 -0.00000000000E+00 -0.00000000000E+00 -0.45593999997E+02  0.45594000000E+02  0.51100000000E-03 0.  1.
         23    2    1    2    0    0  0.00000000000E+00  0.00000000000E+00  0.00000000000E+00  0.91188000000E+02  0.91188000000E+02 0.  0.
    9900012    2    3    3    0    0 -0.23534552039E+02 -0.21578349243E+02 -0.18337915858E+02  0.54367089450E+02  0.40000012018E+02 0.  0.
         12    1    3    3    0    0  0.23534552039E+02  0.21578349243E+02  0.18337915858E+02  0.36820910550E+02  0.00000000000E+00 0. -1.
         11    1    4    4    0    0 -0.26327862283E+01 -0.35123042987E+00  0.70240414830E+00  0.27474166025E+01  0.51100000000E-03 0. -1.
        -11    1    4    4    0    0 -0.29203141435E+02 -0.50153233600E+01 -0.98965955720E+01  0.31239710982E+02  0.51100000000E-03 0.  1.
        -12    1    4    4    0    0  0.83013756243E+01 -0.16211795453E+02 -0.91437244347E+01  0.20379961865E+02  0.00000000000E+00 0.  1.
</event>
<event>
 8    1  0.1269154E-006  0.9118800E+02  0.7816164E-02  0.1184000E+00
        -11   -1    0    0    0    0  0.00000000000E+00  0.00000000000E+00  0.45593999997E+02  0.45594000000E+02  0.51100000000E-03 0. -1.
         11   -1    0    0    0    0 -0.00000000000E+00 -0.00000000000E+00 -0.45593999997E+02  0.45594000000E+02  0.51100000000E-03 0.  1.
         23    2    1    2    0    0  0.35527136788E-14  0.00000000000E+00  0.00000000000E+00  0.91188000000E+02  0.91188000000E+02 0.  0.
    9900012    2    3    3    0    0 -0.16932177623E+02  0.16210590768E+02  0.28395408415E+02  0.54367066944E+02  0.39999960711E+02 0.  0.
        -12    1    3    3    0    0  0.16932177623E+02 -0.16210590768E+02 -0.28395408415E+02  0.36820933056E+02  0.00000000000E+00 0.  1.
         11    1    4    4    0    0 -0.52191663713E+01 -0.62205200612E+01 -0.41370271654E+01  0.91131532123E+01  0.51100000000E-03 0.  1.
        -11    1    4    4    0    0  0.37036953297E+01  0.60943184641E+01  0.15507035527E+02  0.17068281335E+02  0.51100000000E-03 0. -1.
        -12    1    4    4    0    0 -0.15416706581E+02  0.16336792365E+02  0.17025400053E+02  0.28185632396E+02  0.00000000000E+00 0.  1.
</event>
<event>
 8    1  0.1269154E-006  0.9118800E+02  0.7816164E-02  0.1184000E+00
        -11   -1    0    0    0    0  0.00000000000E+00  0.00000000000E+00  0.45593999997E+02  0.45594000000E+02  0.51100000000E-03 0. -1.
         11   -1    0    0    0    0 -0.00000000000E+00 -0.00000000000E+00 -0.45593999997E+02  0.45594000000E+02  0.51100000000E-03 0.  1.
         23    2    1    2    0    0  0.00000000000E+00  0.00000000000E+00 -0.17763568394E-14  0.91188000000E+02  0.91188000000E+02 0.  0.
    9900012    2    3    3    0    0  0.32773212025E+02 -0.11822285665E+02  0.11913633989E+02  0.54367020388E+02  0.39999854579E+02 0.  0.
        -12    1    3    3    0    0 -0.32773212025E+02  0.11822285665E+02 -0.11913633989E+02  0.36820979612E+02  0.00000000000E+00 0.  1.
         11    1    4    4    0    0  0.20070253028E+02 -0.12252620970E+02 -0.11419977107E+01  0.23542428427E+02  0.51100000000E-03 0. -1.
        -11    1    4    4    0    0  0.40955156674E+01  0.52068396051E+01 -0.62795121051E+01  0.91277981898E+01  0.51100000000E-03 0.  1.
         12    1    4    4    0    0  0.86074433295E+01 -0.47765043001E+01  0.19335143805E+02  0.21696793771E+02  0.00000000000E+00 0. -1.
</event>
<event>
 8    1  0.1269154E-006  0.9118800E+02  0.7816164E-02  0.1184000E+00
        -11   -1    0    0    0    0  0.00000000000E+00  0.00000000000E+00  0.45593999997E+02  0.45594000000E+02  0.51100000000E-03 0. -1.
         11   -1    0    0    0    0 -0.00000000000E+00 -0.00000000000E+00 -0.45593999997E+02  0.45594000000E+02  0.51100000000E-03 0.  1.
         23    2    1    2    0    0 -0.35527136788E-14 -0.35527136788E-14  0.35527136788E-14  0.91188000000E+02  0.91188000000E+02 0.  0.
    9900012    2    3    3    0    0  0.31585906995E+02  0.16644204017E+02 -0.90045006104E+01  0.54367080955E+02  0.39999992654E+02 0.  0.
         12    1    3    3    0    0 -0.31585906995E+02 -0.16644204017E+02  0.90045006104E+01  0.36820919045E+02  0.00000000000E+00 0. -1.
         11    1    4    4    0    0  0.28428875082E+02  0.12539169757E+02  0.25595533685E+01  0.31176642384E+02  0.51100000000E-03 0. -1.
        -11    1    4    4    0    0 -0.20900957503E+01  0.24209979048E+01  0.48871891464E+01  0.58407490199E+01  0.51100000000E-03 0.  1.
        -12    1    4    4    0    0  0.52471276630E+01  0.16840363552E+01 -0.16451243125E+02  0.17349689551E+02  0.00000000000E+00 0.  1.
</event>
<event>
 8    1  0.1269154E-006  0.9118800E+02  0.7816164E-02  0.1184000E+00
        -11   -1    0    0    0    0  0.00000000000E+00  0.00000000000E+00  0.45593999997E+02  0.45594000000E+02  0.51100000000E-03 0.  1.
         11   -1    0    0    0    0 -0.00000000000E+00 -0.00000000000E+00 -0.45593999997E+02  0.45594000000E+02  0.51100000000E-03 0. -1.
         23    2    1    2    0    0 -0.17763568394E-14 -0.35527136788E-14  0.00000000000E+00  0.91188000000E+02  0.91188000000E+02 0.  0.
    9900012    2    3    3    0    0 -0.14392413321E+02  0.18310576774E+02 -0.28519456439E+02  0.54367106766E+02  0.40000051494E+02 0.  0.
        -12    1    3    3    0    0  0.14392413321E+02 -0.18310576774E+02  0.28519456439E+02  0.36820893234E+02  0.00000000000E+00 0.  1.
         11    1    4    4    0    0 -0.59821040037E+01  0.88758002410E+01  0.20046180044E+01  0.10889623126E+02  0.51100000000E-03 0. -1.
        -11    1    4    4    0    0 -0.10181686331E+00 -0.26207266149E+01  0.46718497806E+01  0.53576818959E+01  0.51100000000E-03 0.  1.
         12    1    4    4    0    0 -0.83084924536E+01  0.12055503148E+02 -0.35195924224E+02  0.38119801744E+02  0.00000000000E+00 0. -1.
</event>
<event>
 8    1  0.1269154E-006  0.9118800E+02  0.7816164E-02  0.1184000E+00
        -11   -1    0    0    0    0  0.00000000000E+00  0.00000000000E+00  0.45593999997E+02  0.45594000000E+02  0.51100000000E-03 0. -1.
         11   -1    0    0    0    0 -0.00000000000E+00 -0.00000000000E+00 -0.45593999997E+02  0.45594000000E+02  0.51100000000E-03 0.  1.
         23    2    1    2    0    0 -0.13322676296E-14  0.00000000000E+00  0.00000000000E+00  0.91188000000E+02  0.91188000000E+02 0.  0.
    9900012    2    3    3    0    0 -0.19476525872E+01 -0.16067468230E+02  0.33072990804E+02  0.54367087373E+02  0.40000007284E+02 0.  0.
        -12    1    3    3    0    0  0.19476525872E+01  0.16067468230E+02 -0.33072990804E+02  0.36820912627E+02  0.00000000000E+00 0.  1.
         11    1    4    4    0    0 -0.65920562026E+01  0.56016204554E+01  0.10805812032E+02  0.13841926551E+02  0.51100000000E-03 0. -1.
        -11    1    4    4    0    0  0.86827768452E+01  0.48836823134E+00 -0.21896865962E+00  0.86992565664E+01  0.51100000000E-03 0.  1.
         12    1    4    4    0    0 -0.40383732298E+01 -0.22157456917E+02  0.22486147432E+02  0.31825904256E+02  0.00000000000E+00 0. -1.
</event>
<event>
 8    1  0.1269154E-006  0.9118800E+02  0.7816164E-02  0.1184000E+00
        -11   -1    0    0    0    0  0.00000000000E+00  0.00000000000E+00  0.45593999997E+02  0.45594000000E+02  0.51100000000E-03 0.  1.
         11   -1    0    0    0    0 -0.00000000000E+00 -0.00000000000E+00 -0.45593999997E+02  0.45594000000E+02  0.51100000000E-03 0. -1.
         23    2    1    2    0    0  0.00000000000E+00  0.17763568394E-14  0.00000000000E+00  0.91188000000E+02  0.91188000000E+02 0.  0.
    9900012    2    3    3    0    0  0.32178889566E+02 -0.11533907736E+02 -0.13684586130E+02  0.54367083948E+02  0.39999999477E+02 0.  0.
        -12    1    3    3    0    0 -0.32178889566E+02  0.11533907736E+02  0.13684586130E+02  0.36820916052E+02  0.00000000000E+00 0.  1.
         11    1    4    4    0    0  0.12628422550E+02 -0.13756727498E+01 -0.16778078584E+02  0.21044558747E+02  0.51100000000E-03 0. -1.
        -11    1    4    4    0    0  0.22726154148E+02 -0.14548489599E+02  0.52513307781E+01  0.27490236580E+02  0.51100000000E-03 0.  1.
        -12    1    4    4    0    0 -0.31756871326E+01  0.43902546134E+01 -0.21578383239E+01  0.58322886217E+01  0.00000000000E+00 0.  1.
</event>
<event>
 8    1  0.1269154E-006  0.9118800E+02  0.7816164E-02  0.1184000E+00
        -11   -1    0    0    0    0  0.00000000000E+00  0.00000000000E+00  0.45593999997E+02  0.45594000000E+02  0.51100000000E-03 0. -1.
         11   -1    0    0    0    0 -0.00000000000E+00 -0.00000000000E+00 -0.45593999997E+02  0.45594000000E+02  0.51100000000E-03 0.  1.
         23    2    1    2    0    0  0.88817841970E-15  0.00000000000E+00  0.35527136788E-14  0.91188000000E+02  0.91188000000E+02 0.  0.
    9900012    2    3    3    0    0 -0.51787971813E+01  0.23690769277E+02  0.27707573585E+02  0.54367053201E+02  0.39999929383E+02 0.  0.
        -12    1    3    3    0    0  0.51787971813E+01 -0.23690769277E+02 -0.27707573585E+02  0.36820946799E+02  0.00000000000E+00 0.  1.
         11    1    4    4    0    0  0.35822268463E+01  0.14419279158E+01 -0.71757921375E+01  0.81488341715E+01  0.51100000000E-03 0. -1.
        -11    1    4    4    0    0 -0.12964418401E+01  0.12694781460E+01 -0.22680000930E+01  0.29045069962E+01  0.51100000000E-03 0.  1.
         12    1    4    4    0    0 -0.74645821876E+01  0.20979363215E+02  0.37151365816E+02  0.43313712034E+02  0.00000000000E+00 0. -1.
</event>
<event>
 8    1  0.1269154E-006  0.9118800E+02  0.7816164E-02  0.1184000E+00
        -11   -1    0    0    0    0  0.00000000000E+00  0.00000000000E+00  0.45593999997E+02  0.45594000000E+02  0.51100000000E-03 0. -1.
         11   -1    0    0    0    0 -0.00000000000E+00 -0.00000000000E+00 -0.45593999997E+02  0.45594000000E+02  0.51100000000E-03 0.  1.
         23    2    1    2    0    0  0.17763568394E-14  0.00000000000E+00  0.11102230246E-14  0.91188000000E+02  0.91188000000E+02 0.  0.
    9900012    2    3    3    0    0  0.11300689302E+02  0.35023737224E+02  0.11887875246E+01  0.54367068947E+02  0.39999965279E+02 0.  0.
         12    1    3    3    0    0 -0.11300689302E+02 -0.35023737224E+02 -0.11887875246E+01  0.36820931053E+02  0.00000000000E+00 0. -1.
         11    1    4    4    0    0 -0.85791196206E+01  0.32840421819E+01 -0.33720989649E+01  0.97855647873E+01  0.51100000000E-03 0. -1.
        -11    1    4    4    0    0 -0.35050493691E+01  0.15425222997E+02  0.21972788627E+01  0.15970313405E+02  0.51100000000E-03 0.  1.
         12    1    4    4    0    0  0.23384858292E+02  0.16314472044E+02  0.23636076269E+01  0.28611190755E+02  0.00000000000E+00 0. -1.
</event>
<event>
 8    1  0.1269154E-006  0.9118800E+02  0.7816164E-02  0.1184000E+00
        -11   -1    0    0    0    0  0.00000000000E+00  0.00000000000E+00  0.45593999997E+02  0.45594000000E+02  0.51100000000E-03 0.  1.
         11   -1    0    0    0    0 -0.00000000000E+00 -0.00000000000E+00 -0.45593999997E+02  0.45594000000E+02  0.51100000000E-03 0. -1.
         23    2    1    2    0    0  0.71054273576E-14  0.00000000000E+00  0.00000000000E+00  0.91188000000E+02  0.91188000000E+02 0.  0.
    9900012    2    3    3    0    0  0.35876382463E+02 -0.60327930324E+01  0.56807103525E+01  0.54367083654E+02  0.39999998806E+02 0.  0.
        -12    1    3    3    0    0 -0.35876382463E+02  0.60327930324E+01 -0.56807103525E+01  0.36820916346E+02  0.00000000000E+00 0.  1.
         11    1    4    4    0    0  0.20615181068E+01 -0.63759580878E+01  0.21897043691E+01  0.70496456597E+01  0.51100000000E-03 0. -1.
        -11    1    4    4    0    0  0.15775158371E+02  0.43131851829E+01  0.17636294137E+02  0.24051986595E+02  0.51100000000E-03 0.  1.
         12    1    4    4    0    0  0.18039705986E+02 -0.39700201276E+01 -0.14145288153E+02  0.23265451399E+02  0.00000000000E+00 0. -1.
</event>
<event>
 8    1  0.1269154E-006  0.9118800E+02  0.7816164E-02  0.1184000E+00
        -11   -1    0    0    0    0  0.00000000000E+00  0.00000000000E+00  0.45593999997E+02  0.45594000000E+02  0.51100000000E-03 0. -1.
         11   -1    0    0    0    0 -0.00000000000E+00 -0.00000000000E+00 -0.45593999997E+02  0.45594000000E+02  0.51100000000E-03 0.  1.
         23    2    1    2    0    0  0.00000000000E+00 -0.35527136788E-14  0.00000000000E+00  0.91188000000E+02  0.91188000000E+02 0.  0.
    9900012    2    3    3    0    0 -0.13186820136E+02  0.21581472013E+02 -0.26760554523E+02  0.54367089664E+02  0.40000012508E+02 0.  0.
         12    1    3    3    0    0  0.13186820136E+02 -0.21581472013E+02  0.26760554523E+02  0.36820910336E+02  0.00000000000E+00 0. -1.
         11    1    4    4    0    0 -0.65544482421E-01 -0.39643105307E+01 -0.11422380471E+01  0.41261073763E+01  0.51100000000E-03 0. -1.
        -11    1    4    4    0    0  0.22937463587E+01  0.24933834411E+02 -0.68760163686E+01  0.25966073484E+02  0.51100000000E-03 0.  1.
         12    1    4    4    0    0 -0.15415022012E+02  0.61194813294E+00 -0.18742300108E+02  0.24274908804E+02  0.00000000000E+00 0. -1.
</event>
<event>
 8    1  0.1269154E-006  0.9118800E+02  0.7816164E-02  0.1184000E+00
        -11   -1    0    0    0    0  0.00000000000E+00  0.00000000000E+00  0.45593999997E+02  0.45594000000E+02  0.51100000000E-03 0. -1.
         11   -1    0    0    0    0 -0.00000000000E+00 -0.00000000000E+00 -0.45593999997E+02  0.45594000000E+02  0.51100000000E-03 0.  1.
         23    2    1    2    0    0  0.00000000000E+00  0.88817841970E-15  0.17763568394E-14  0.91188000000E+02  0.91188000000E+02 0.  0.
    9900012    2    3    3    0    0  0.36180530246E+02  0.28271105547E+01  0.62254457079E+01  0.54367088859E+02  0.40000010672E+02 0.  0.
        -12    1    3    3    0    0 -0.36180530246E+02 -0.28271105547E+01 -0.62254457079E+01  0.36820911141E+02  0.00000000000E+00 0.  1.
         11    1    4    4    0    0  0.21836072695E+02  0.10474798708E+02  0.81397492058E+01  0.25549774873E+02  0.51100000000E-03 0. -1.
        -11    1    4    4    0    0  0.15633066518E+01  0.48494172408E+01  0.71462291265E+01  0.87766375254E+01  0.51100000000E-03 0.  1.
        -12    1    4    4    0    0  0.12781150900E+02 -0.12497105394E+02 -0.90605326243E+01  0.20040676460E+02  0.00000000000E+00 0.  1.
</event>
<event>
 8    1  0.1269154E-006  0.9118800E+02  0.7816164E-02  0.1184000E+00
        -11   -1    0    0    0    0  0.00000000000E+00  0.00000000000E+00  0.45593999997E+02  0.45594000000E+02  0.51100000000E-03 0.  1.
         11   -1    0    0    0    0 -0.00000000000E+00 -0.00000000000E+00 -0.45593999997E+02  0.45594000000E+02  0.51100000000E-03 0. -1.
         23    2    1    2    0    0  0.88817841970E-15 -0.35527136788E-14  0.00000000000E+00  0.91188000000E+02  0.91188000000E+02 0.  0.
    9900012    2    3    3    0    0  0.53091852447E+01 -0.23763942594E+02 -0.27620053397E+02  0.54367085220E+02  0.40000002377E+02 0.  0.
        -12    1    3    3    0    0 -0.53091852447E+01  0.23763942594E+02  0.27620053397E+02  0.36820914780E+02  0.00000000000E+00 0.  1.
         11    1    4    4    0    0 -0.68862880477E+01  0.53934928636E+01 -0.13537952657E+02  0.16117905904E+02  0.51100000000E-03 0. -1.
        -11    1    4    4    0    0  0.40146664915E+01 -0.43392854869E+01  0.33898647932E+01  0.68145527478E+01  0.51100000000E-03 0.  1.
        -12    1    4    4    0    0  0.81808068009E+01 -0.24818149970E+02 -0.17471965533E+02  0.31434626568E+02  0.00000000000E+00 0.  1.
</event>
<event>
 8    1  0.1269154E-006  0.9118800E+02  0.7816164E-02  0.1184000E+00
        -11   -1    0    0    0    0  0.00000000000E+00  0.00000000000E+00  0.45593999997E+02  0.45594000000E+02  0.51100000000E-03 0.  1.
         11   -1    0    0    0    0 -0.00000000000E+00 -0.00000000000E+00 -0.45593999997E+02  0.45594000000E+02  0.51100000000E-03 0. -1.
         23    2    1    2    0    0  0.38857805862E-15 -0.44408920985E-15  0.71054273576E-14  0.91188000000E+02  0.91188000000E+02 0.  0.
    9900012    2    3    3    0    0  0.19311696021E+00 -0.39404656881E+01  0.36608946344E+02  0.54367088599E+02  0.40000010079E+02 0.  0.
         12    1    3    3    0    0 -0.19311696021E+00  0.39404656881E+01 -0.36608946344E+02  0.36820911401E+02  0.00000000000E+00 0. -1.
         11    1    4    4    0    0  0.14246285976E+02 -0.58618994668E+00  0.51567941821E+01  0.15162216503E+02  0.51100000000E-03 0. -1.
        -11    1    4    4    0    0  0.21775194959E+00 -0.65366867612E+01  0.29577056131E+01  0.71780019839E+01  0.51100000000E-03 0.  1.
         12    1    4    4    0    0 -0.14270920966E+02  0.31824110198E+01  0.28494446548E+02  0.32026870113E+02  0.00000000000E+00 0. -1.
</event>
<event>
 8    1  0.1269154E-006  0.9118800E+02  0.7816164E-02  0.1184000E+00
        -11   -1    0    0    0    0  0.00000000000E+00  0.00000000000E+00  0.45593999997E+02  0.45594000000E+02  0.51100000000E-03 0.  1.
         11   -1    0    0    0    0 -0.00000000000E+00 -0.00000000000E+00 -0.45593999997E+02  0.45594000000E+02  0.51100000000E-03 0. -1.
         23    2    1    2    0    0 -0.35527136788E-14  0.35527136788E-14 -0.35527136788E-14  0.91188000000E+02  0.91188000000E+02 0.  0.
    9900012    2    3    3    0    0  0.16443615924E+02  0.25621558248E+02  0.20710376847E+02  0.54367130090E+02  0.40000104667E+02 0.  0.
         12    1    3    3    0    0 -0.16443615924E+02 -0.25621558248E+02 -0.20710376847E+02  0.36820869910E+02  0.00000000000E+00 0. -1.
         11    1    4    4    0    0  0.64710216928E+01 -0.63116917719E+01  0.21596782803E+01  0.92938573966E+01  0.51100000000E-03 0. -1.
        -11    1    4    4    0    0  0.32741751045E+01  0.22632818657E+01 -0.51529097723E+01  0.65111555657E+01  0.51100000000E-03 0.  1.
        -12    1    4    4    0    0  0.66984191268E+01  0.29669968155E+02  0.23703608339E+02  0.38562117128E+02  0.00000000000E+00 0.  1.
</event>
<event>
 8    1  0.1269154E-006  0.9118800E+02  0.7816164E-02  0.1184000E+00
        -11   -1    0    0    0    0  0.00000000000E+00  0.00000000000E+00  0.45593999997E+02  0.45594000000E+02  0.51100000000E-03 0. -1.
         11   -1    0    0    0    0 -0.00000000000E+00 -0.00000000000E+00 -0.45593999997E+02  0.45594000000E+02  0.51100000000E-03 0.  1.
         23    2    1    2    0    0  0.00000000000E+00  0.00000000000E+00  0.71054273576E-14  0.91188000000E+02  0.91188000000E+02 0.  0.
    9900012    2    3    3    0    0 -0.22488780621E+02  0.17479331290E+02 -0.23334708188E+02  0.54367070050E+02  0.39999967793E+02 0.  0.
         12    1    3    3    0    0  0.22488780621E+02 -0.17479331290E+02  0.23334708188E+02  0.36820929950E+02  0.00000000000E+00 0. -1.
         11    1    4    4    0    0 -0.15195254637E+02  0.62220490628E+01 -0.96336726369E+01  0.19037261010E+02  0.51100000000E-03 0. -1.
        -11    1    4    4    0    0 -0.14783278265E+02  0.86708919962E+01  0.24759458243E+01  0.17316465929E+02  0.51100000000E-03 0.  1.
        -12    1    4    4    0    0  0.74897522805E+01  0.25863902309E+01 -0.16176981375E+02  0.18013343112E+02  0.00000000000E+00 0.  1.
</event>
<event>
 8    1  0.1269154E-006  0.9118800E+02  0.7816164E-02  0.1184000E+00
        -11   -1    0    0    0    0  0.00000000000E+00  0.00000000000E+00  0.45593999997E+02  0.45594000000E+02  0.51100000000E-03 0. -1.
         11   -1    0    0    0    0 -0.00000000000E+00 -0.00000000000E+00 -0.45593999997E+02  0.45594000000E+02  0.51100000000E-03 0.  1.
         23    2    1    2    0    0  0.00000000000E+00  0.35527136788E-14 -0.88817841970E-15  0.91188000000E+02  0.91188000000E+02 0.  0.
    9900012    2    3    3    0    0  0.24982538912E+02 -0.26881852197E+02  0.30027871059E+01  0.54367109754E+02  0.40000058307E+02 0.  0.
        -12    1    3    3    0    0 -0.24982538912E+02  0.26881852197E+02 -0.30027871059E+01  0.36820890246E+02  0.00000000000E+00 0.  1.
         11    1    4    4    0    0 -0.33154688241E+01  0.96311061500E+00  0.10923849272E+01  0.36212181197E+01  0.51100000000E-03 0. -1.
        -11    1    4    4    0    0  0.89936908776E-01 -0.10732630927E+02 -0.10952069915E+02  0.15334447853E+02  0.51100000000E-03 0.  1.
         12    1    4    4    0    0  0.28208070828E+02 -0.17112331885E+02  0.12862472094E+02  0.35411443782E+02  0.00000000000E+00 0. -1.
</event>
<event>
 8    1  0.1269154E-006  0.9118800E+02  0.7816164E-02  0.1184000E+00
        -11   -1    0    0    0    0  0.00000000000E+00  0.00000000000E+00  0.45593999997E+02  0.45594000000E+02  0.51100000000E-03 0.  1.
         11   -1    0    0    0    0 -0.00000000000E+00 -0.00000000000E+00 -0.45593999997E+02  0.45594000000E+02  0.51100000000E-03 0. -1.
         23    2    1    2    0    0  0.17763568394E-14  0.22204460493E-15 -0.71054273576E-14  0.91188000000E+02  0.91188000000E+02 0.  0.
    9900012    2    3    3    0    0  0.97797588197E+01  0.16832837919E+01 -0.35458470826E+02  0.54367078227E+02  0.39999986435E+02 0.  0.
        -12    1    3    3    0    0 -0.97797588197E+01 -0.16832837919E+01  0.35458470826E+02  0.36820921773E+02  0.00000000000E+00 0.  1.
         11    1    4    4    0    0 -0.68668057642E+01  0.43532087806E+01 -0.13605964885E+02  0.15850101855E+02  0.51100000000E-03 0. -1.
        -11    1    4    4    0    0 -0.36198416713E+01 -0.63012447599E+01  0.14620578545E+01  0.74125941937E+01  0.51100000000E-03 0.  1.
         12    1    4    4    0    0  0.20266406255E+02  0.36313197712E+01 -0.23314563795E+02  0.31104382179E+02  0.00000000000E+00 0. -1.
</event>
<event>
 8    1  0.1269154E-006  0.9118800E+02  0.7816164E-02  0.1184000E+00
        -11   -1    0    0    0    0  0.00000000000E+00  0.00000000000E+00  0.45593999997E+02  0.45594000000E+02  0.51100000000E-03 0. -1.
         11   -1    0    0    0    0 -0.00000000000E+00 -0.00000000000E+00 -0.45593999997E+02  0.45594000000E+02  0.51100000000E-03 0.  1.
         23    2    1    2    0    0  0.35527136788E-14 -0.17763568394E-14 -0.71054273576E-14  0.91188000000E+02  0.91188000000E+02 0.  0.
    9900012    2    3    3    0    0  0.20888627346E+02 -0.94644792694E+01 -0.28807437572E+02  0.54367087740E+02  0.40000008120E+02 0.  0.
         12    1    3    3    0    0 -0.20888627346E+02  0.94644792694E+01  0.28807437572E+02  0.36820912260E+02  0.00000000000E+00 0. -1.
         11    1    4    4    0    0  0.50413605528E+01  0.32722510555E+01 -0.91719504913E+01  0.10965747547E+02  0.51100000000E-03 0. -1.
        -11    1    4    4    0    0  0.23555263042E+02 -0.11767228483E+02 -0.49565565861E+01  0.26793386060E+02  0.51100000000E-03 0.  1.
         12    1    4    4    0    0 -0.77079962487E+01 -0.96950184218E+00 -0.14678930494E+02  0.16607954132E+02  0.00000000000E+00 0. -1.
</event>
<event>
 8    1  0.1269154E-006  0.9118800E+02  0.7816164E-02  0.1184000E+00
        -11   -1    0    0    0    0  0.00000000000E+00  0.00000000000E+00  0.45593999997E+02  0.45594000000E+02  0.51100000000E-03 0.  1.
         11   -1    0    0    0    0 -0.00000000000E+00 -0.00000000000E+00 -0.45593999997E+02  0.45594000000E+02  0.51100000000E-03 0. -1.
         23    2    1    2    0    0  0.00000000000E+00 -0.44408920985E-15  0.00000000000E+00  0.91188000000E+02  0.91188000000E+02 0.  0.
    9900012    2    3    3    0    0  0.18565634617E+02 -0.32022861687E+01 -0.31636140013E+02  0.54367044277E+02  0.39999909038E+02 0.  0.
        -12    1    3    3    0    0 -0.18565634617E+02  0.32022861687E+01  0.31636140013E+02  0.36820955723E+02  0.00000000000E+00 0.  1.
         11    1    4    4    0    0 -0.61054955448E+01 -0.26946279160E+01 -0.12962455081E+02  0.14579552032E+02  0.51100000000E-03 0. -1.
        -11    1    4    4    0    0  0.24379337640E+02  0.73632178083E+01 -0.83471609095E+01  0.26800077906E+02  0.51100000000E-03 0.  1.
        -12    1    4    4    0    0  0.29179252206E+00 -0.78708760610E+01 -0.10326524022E+02  0.12987414339E+02  0.00000000000E+00 0.  1.
</event>
<event>
 8    1  0.1269154E-006  0.9118800E+02  0.7816164E-02  0.1184000E+00
        -11   -1    0    0    0    0  0.00000000000E+00  0.00000000000E+00  0.45593999997E+02  0.45594000000E+02  0.51100000000E-03 0. -1.
         11   -1    0    0    0    0 -0.00000000000E+00 -0.00000000000E+00 -0.45593999997E+02  0.45594000000E+02  0.51100000000E-03 0.  1.
         23    2    1    2    0    0 -0.35527136788E-14  0.17763568394E-14 -0.35527136788E-14  0.91188000000E+02  0.91188000000E+02 0.  0.
    9900012    2    3    3    0    0 -0.18948955457E+02 -0.29791455817E+01  0.31429891378E+02  0.54367132366E+02  0.40000109855E+02 0.  0.
        -12    1    3    3    0    0  0.18948955457E+02  0.29791455817E+01 -0.31429891378E+02  0.36820867634E+02  0.00000000000E+00 0.  1.
         11    1    4    4    0    0 -0.10475400485E+02 -0.83388715257E+01 -0.23698414717E+01  0.13597313797E+02  0.51100000000E-03 0. -1.
        -11    1    4    4    0    0 -0.12989524586E+02  0.74366904175E+01  0.14496993025E+02  0.20837344369E+02  0.51100000000E-03 0.  1.
         12    1    4    4    0    0  0.45159696139E+01 -0.20769644735E+01  0.19302739825E+02  0.19932474200E+02  0.00000000000E+00 0. -1.
</event>
<event>
 8    1  0.1269154E-006  0.9118800E+02  0.7816164E-02  0.1184000E+00
        -11   -1    0    0    0    0  0.00000000000E+00  0.00000000000E+00  0.45593999997E+02  0.45594000000E+02  0.51100000000E-03 0.  1.
         11   -1    0    0    0    0 -0.00000000000E+00 -0.00000000000E+00 -0.45593999997E+02  0.45594000000E+02  0.51100000000E-03 0. -1.
         23    2    1    2    0    0  0.22204460493E-14  0.00000000000E+00  0.00000000000E+00  0.91188000000E+02  0.91188000000E+02 0.  0.
    9900012    2    3    3    0    0  0.24349702489E+01 -0.19277451143E+02  0.31276683216E+02  0.54367080461E+02  0.39999991527E+02 0.  0.
         12    1    3    3    0    0 -0.24349702489E+01  0.19277451143E+02 -0.31276683216E+02  0.36820919539E+02  0.00000000000E+00 0. -1.
         11    1    4    4    0    0  0.15462047486E+02 -0.69890485398E+01  0.35283587093E+01  0.17331215404E+02  0.51100000000E-03 0. -1.
        -11    1    4    4    0    0 -0.72495361741E+01 -0.78678495999E+01  0.27771673410E+02  0.29761126933E+02  0.51100000000E-03 0.  1.
         12    1    4    4    0    0 -0.57775410631E+01 -0.44205530037E+01 -0.23348903600E-01  0.72747381235E+01  0.00000000000E+00 0. -1.
</event>
<event>
 8    1  0.1269154E-006  0.9118800E+02  0.7816164E-02  0.1184000E+00
        -11   -1    0    0    0    0  0.00000000000E+00  0.00000000000E+00  0.45593999997E+02  0.45594000000E+02  0.51100000000E-03 0.  1.
         11   -1    0    0    0    0 -0.00000000000E+00 -0.00000000000E+00 -0.45593999997E+02  0.45594000000E+02  0.51100000000E-03 0. -1.
         23    2    1    2    0    0  0.00000000000E+00 -0.44408920985E-15  0.00000000000E+00  0.91188000000E+02  0.91188000000E+02 0.  0.
    9900012    2    3    3    0    0 -0.11506214253E+02  0.13838234352E+01 -0.34949549141E+02  0.54367096713E+02  0.40000028576E+02 0.  0.
        -12    1    3    3    0    0  0.11506214253E+02 -0.13838234352E+01  0.34949549141E+02  0.36820903287E+02  0.00000000000E+00 0.  1.
         11    1    4    4    0    0  0.15202320351E+01  0.47311047321E+01 -0.22336065600E+02  0.22882182679E+02  0.51100000000E-03 0. -1.
        -11    1    4    4    0    0  0.33264576126E+01  0.57021583817E+01 -0.10865218262E+02  0.12713492778E+02  0.51100000000E-03 0.  1.
        -12    1    4    4    0    0 -0.16352903901E+02 -0.90494396786E+01 -0.17482652789E+01  0.18771421256E+02  0.00000000000E+00 0.  1.
</event>
<event>
 8    1  0.1269154E-006  0.9118800E+02  0.7816164E-02  0.1184000E+00
        -11   -1    0    0    0    0  0.00000000000E+00  0.00000000000E+00  0.45593999997E+02  0.45594000000E+02  0.51100000000E-03 0.  1.
         11   -1    0    0    0    0 -0.00000000000E+00 -0.00000000000E+00 -0.45593999997E+02  0.45594000000E+02  0.51100000000E-03 0. -1.
         23    2    1    2    0    0 -0.35527136788E-14 -0.17763568394E-14  0.00000000000E+00  0.91188000000E+02  0.91188000000E+02 0.  0.
    9900012    2    3    3    0    0 -0.15508840288E+02 -0.98679572222E+01  0.31904257952E+02  0.54367049682E+02  0.39999921361E+02 0.  0.
         12    1    3    3    0    0  0.15508840288E+02  0.98679572222E+01 -0.31904257952E+02  0.36820950318E+02  0.00000000000E+00 0. -1.
         11    1    4    4    0    0  0.94536369664E+01 -0.58793277100E-01  0.36858951139E+00  0.94610024326E+01  0.51100000000E-03 0. -1.
        -11    1    4    4    0    0 -0.38544941569E+01 -0.94546594669E+01  0.14730165112E+02  0.17922764166E+02  0.51100000000E-03 0.  1.
         12    1    4    4    0    0 -0.21107983098E+02 -0.35450447819E+00  0.16805503328E+02  0.26983283084E+02  0.00000000000E+00 0. -1.
</event>
<event>
 8    1  0.1269154E-006  0.9118800E+02  0.7816164E-02  0.1184000E+00
        -11   -1    0    0    0    0  0.00000000000E+00  0.00000000000E+00  0.45593999997E+02  0.45594000000E+02  0.51100000000E-03 0. -1.
         11   -1    0    0    0    0 -0.00000000000E+00 -0.00000000000E+00 -0.45593999997E+02  0.45594000000E+02  0.51100000000E-03 0.  1.
         23    2    1    2    0    0  0.00000000000E+00  0.00000000000E+00  0.00000000000E+00  0.91188000000E+02  0.91188000000E+02 0.  0.
    9900012    2    3    3    0    0 -0.35298852580E+02  0.76826539728E+01 -0.71230711577E+01  0.54367213639E+02  0.40000295131E+02 0.  0.
        -12    1    3    3    0    0  0.35298852580E+02 -0.76826539728E+01  0.71230711577E+01  0.36820786361E+02  0.00000000000E+00 0.  1.
         11    1    4    4    0    0 -0.49543301647E+01  0.76182966018E+01 -0.12626233528E+02  0.15556529300E+02  0.51100000000E-03 0. -1.
        -11    1    4    4    0    0 -0.23492946207E+01 -0.78127880893E+01  0.52979098678E+01  0.97276252072E+01  0.51100000000E-03 0.  1.
         12    1    4    4    0    0 -0.27995227795E+02  0.78771454603E+01  0.20525250221E+00  0.29083059132E+02  0.00000000000E+00 0. -1.
</event>
<event>
 8    1  0.1269154E-006  0.9118800E+02  0.7816164E-02  0.1184000E+00
        -11   -1    0    0    0    0  0.00000000000E+00  0.00000000000E+00  0.45593999997E+02  0.45594000000E+02  0.51100000000E-03 0.  1.
         11   -1    0    0    0    0 -0.00000000000E+00 -0.00000000000E+00 -0.45593999997E+02  0.45594000000E+02  0.51100000000E-03 0. -1.
         23    2    1    2    0    0  0.44408920985E-15  0.00000000000E+00  0.35527136788E-14  0.91188000000E+02  0.91188000000E+02 0.  0.
    9900012    2    3    3    0    0  0.14740398900E+01 -0.22620734717E+02 -0.29015677242E+02  0.54367082595E+02  0.39999996392E+02 0.  0.
        -12    1    3    3    0    0 -0.14740398900E+01  0.22620734717E+02  0.29015677242E+02  0.36820917405E+02  0.00000000000E+00 0.  1.
         11    1    4    4    0    0  0.20127031023E+01 -0.21417951335E+02 -0.26745831733E+02  0.34323740014E+02  0.51100000000E-03 0. -1.
        -11    1    4    4    0    0  0.80082540436E+01  0.46934850340E+01  0.50342591567E+00  0.92959331164E+01  0.51100000000E-03 0.  1.
         12    1    4    4    0    0 -0.85469172558E+01 -0.58962684157E+01 -0.27732714241E+01  0.10747409465E+02  0.00000000000E+00 0. -1.
</event>
<event>
 8    1  0.1269154E-006  0.9118800E+02  0.7816164E-02  0.1184000E+00
        -11   -1    0    0    0    0  0.00000000000E+00  0.00000000000E+00  0.45593999997E+02  0.45594000000E+02  0.51100000000E-03 0.  1.
         11   -1    0    0    0    0 -0.00000000000E+00 -0.00000000000E+00 -0.45593999997E+02  0.45594000000E+02  0.51100000000E-03 0. -1.
         23    2    1    2    0    0  0.00000000000E+00  0.00000000000E+00  0.17763568394E-14  0.91188000000E+02  0.91188000000E+02 0.  0.
    9900012    2    3    3    0    0  0.32008989048E+02 -0.10298776651E+02 -0.15004660511E+02  0.54367081795E+02  0.39999994569E+02 0.  0.
        -12    1    3    3    0    0 -0.32008989048E+02  0.10298776651E+02  0.15004660511E+02  0.36820918205E+02  0.00000000000E+00 0.  1.
         11    1    4    4    0    0  0.92938454542E+00  0.78957714719E+00 -0.10097847973E+02  0.10171220264E+02  0.51100000000E-03 0. -1.
        -11    1    4    4    0    0  0.11106890153E+02 -0.76161692658E+01 -0.16138958454E+02  0.21019872107E+02  0.51100000000E-03 0.  1.
        -12    1    4    4    0    0  0.19972714350E+02 -0.34721845320E+01  0.11232145916E+02  0.23175989425E+02  0.00000000000E+00 0.  1.
</event>
<event>
 8    1  0.1269154E-006  0.9118800E+02  0.7816164E-02  0.1184000E+00
        -11   -1    0    0    0    0  0.00000000000E+00  0.00000000000E+00  0.45593999997E+02  0.45594000000E+02  0.51100000000E-03 0. -1.
         11   -1    0    0    0    0 -0.00000000000E+00 -0.00000000000E+00 -0.45593999997E+02  0.45594000000E+02  0.51100000000E-03 0.  1.
         23    2    1    2    0    0  0.00000000000E+00  0.00000000000E+00  0.00000000000E+00  0.91188000000E+02  0.91188000000E+02 0.  0.
    9900012    2    3    3    0    0 -0.93360233515E+01 -0.32030869853E+02 -0.15576946036E+02  0.54367092850E+02  0.40000019770E+02 0.  0.
        -12    1    3    3    0    0  0.93360233515E+01  0.32030869853E+02  0.15576946036E+02  0.36820907150E+02  0.00000000000E+00 0.  1.
         11    1    4    4    0    0  0.84021595297E+01 -0.22950039624E+02 -0.13484240719E+02  0.27912816976E+02  0.51100000000E-03 0. -1.
        -11    1    4    4    0    0 -0.24899493880E+01  0.29169844297E+01  0.45458285768E+01  0.59475376274E+01  0.51100000000E-03 0.  1.
         12    1    4    4    0    0 -0.15248233493E+02 -0.11997814659E+02 -0.66385338933E+01  0.20506738246E+02  0.00000000000E+00 0. -1.
</event>
<event>
 8    1  0.1269154E-006  0.9118800E+02  0.7816164E-02  0.1184000E+00
        -11   -1    0    0    0    0  0.00000000000E+00  0.00000000000E+00  0.45593999997E+02  0.45594000000E+02  0.51100000000E-03 0. -1.
         11   -1    0    0    0    0 -0.00000000000E+00 -0.00000000000E+00 -0.45593999997E+02  0.45594000000E+02  0.51100000000E-03 0.  1.
         23    2    1    2    0    0  0.00000000000E+00  0.00000000000E+00  0.88817841970E-15  0.91188000000E+02  0.91188000000E+02 0.  0.
    9900012    2    3    3    0    0 -0.33013010887E+02 -0.15629832819E+02 -0.46497650780E+01  0.54367205915E+02  0.40000277522E+02 0.  0.
         12    1    3    3    0    0  0.33013010887E+02  0.15629832819E+02  0.46497650780E+01  0.36820794085E+02  0.00000000000E+00 0. -1.
         11    1    4    4    0    0 -0.15424411976E+02 -0.23020358974E+02  0.55653082690E+01  0.28263440493E+02  0.51100000000E-03 0. -1.
        -11    1    4    4    0    0 -0.10307022170E+02  0.11530473229E+02 -0.50789576946E+01  0.16278277871E+02  0.51100000000E-03 0.  1.
         12    1    4    4    0    0 -0.72815767411E+01 -0.41399470743E+01 -0.51361156524E+01  0.98254875507E+01  0.00000000000E+00 0. -1.
</event>
<event>
 8    1  0.1269154E-006  0.9118800E+02  0.7816164E-02  0.1184000E+00
        -11   -1    0    0    0    0  0.00000000000E+00  0.00000000000E+00  0.45593999997E+02  0.45594000000E+02  0.51100000000E-03 0.  1.
         11   -1    0    0    0    0 -0.00000000000E+00 -0.00000000000E+00 -0.45593999997E+02  0.45594000000E+02  0.51100000000E-03 0. -1.
         23    2    1    2    0    0 -0.12212453271E-14  0.00000000000E+00  0.00000000000E+00  0.91188000000E+02  0.91188000000E+02 0.  0.
    9900012    2    3    3    0    0  0.90002902766E+00  0.42687327296E+01  0.36561643168E+02  0.54367002152E+02  0.39999813006E+02 0.  0.
         12    1    3    3    0    0 -0.90002902766E+00 -0.42687327296E+01 -0.36561643168E+02  0.36820997848E+02  0.00000000000E+00 0. -1.
         11    1    4    4    0    0 -0.91455289746E+01  0.67594448951E+01  0.20809543886E+01  0.11561192280E+02  0.51100000000E-03 0. -1.
        -11    1    4    4    0    0  0.94480104565E+01  0.38590970998E+01  0.29315340256E+01  0.10618447345E+02  0.51100000000E-03 0.  1.
        -12    1    4    4    0    0  0.59754754580E+00 -0.63498092653E+01  0.31549154754E+02  0.32187362527E+02  0.00000000000E+00 0.  1.
</event>
<event>
 8    1  0.1269154E-006  0.9118800E+02  0.7816164E-02  0.1184000E+00
        -11   -1    0    0    0    0  0.00000000000E+00  0.00000000000E+00  0.45593999997E+02  0.45594000000E+02  0.51100000000E-03 0. -1.
         11   -1    0    0    0    0 -0.00000000000E+00 -0.00000000000E+00 -0.45593999997E+02  0.45594000000E+02  0.51100000000E-03 0.  1.
         23    2    1    2    0    0 -0.17763568394E-14  0.00000000000E+00  0.00000000000E+00  0.91188000000E+02  0.91188000000E+02 0.  0.
    9900012    2    3    3    0    0  0.14153044454E+02 -0.10092739298E+02 -0.32459314957E+02  0.54367093149E+02  0.40000020452E+02 0.  0.
         12    1    3    3    0    0 -0.14153044454E+02  0.10092739298E+02  0.32459314957E+02  0.36820906851E+02  0.00000000000E+00 0. -1.
         11    1    4    4    0    0 -0.23993019939E+01 -0.93627532392E+01 -0.39563624681E+01  0.10443687209E+02  0.51100000000E-03 0. -1.
        -11    1    4    4    0    0  0.20991752925E+02 -0.62792658130E+01 -0.99658055132E+01  0.24070732224E+02  0.51100000000E-03 0.  1.
         12    1    4    4    0    0 -0.44394064776E+01  0.55492797544E+01 -0.18537146976E+02  0.19852673716E+02  0.00000000000E+00 0. -1.
</event>
<event>
 8    1  0.1269154E-006  0.9118800E+02  0.7816164E-02  0.1184000E+00
        -11   -1    0    0    0    0  0.00000000000E+00  0.00000000000E+00  0.45593999997E+02  0.45594000000E+02  0.51100000000E-03 0. -1.
         11   -1    0    0    0    0 -0.00000000000E+00 -0.00000000000E+00 -0.45593999997E+02  0.45594000000E+02  0.51100000000E-03 0.  1.
         23    2    1    2    0    0 -0.35527136788E-14  0.00000000000E+00  0.35527136788E-14  0.91188000000E+02  0.91188000000E+02 0.  0.
    9900012    2    3    3    0    0 -0.19618595135E+02 -0.14962290756E+02  0.27331621486E+02  0.54367123411E+02  0.40000089441E+02 0.  0.
         12    1    3    3    0    0  0.19618595135E+02  0.14962290756E+02 -0.27331621486E+02  0.36820876589E+02  0.00000000000E+00 0. -1.
         11    1    4    4    0    0 -0.11442785342E+01 -0.13770347531E+01  0.21482177108E+02  0.21556658638E+02  0.51100000000E-03 0. -1.
        -11    1    4    4    0    0 -0.30458962703E+01 -0.97984815367E+01 -0.69637058445E+01  0.12400843676E+02  0.51100000000E-03 0.  1.
         12    1    4    4    0    0 -0.15428420330E+02 -0.37867744660E+01  0.12813150222E+02  0.20409621098E+02  0.00000000000E+00 0. -1.
</event>
<event>
 8    1  0.1269154E-006  0.9118800E+02  0.7816164E-02  0.1184000E+00
        -11   -1    0    0    0    0  0.00000000000E+00  0.00000000000E+00  0.45593999997E+02  0.45594000000E+02  0.51100000000E-03 0.  1.
         11   -1    0    0    0    0 -0.00000000000E+00 -0.00000000000E+00 -0.45593999997E+02  0.45594000000E+02  0.51100000000E-03 0. -1.
         23    2    1    2    0    0  0.00000000000E+00 -0.35527136788E-14  0.00000000000E+00  0.91188000000E+02  0.91188000000E+02 0.  0.
    9900012    2    3    3    0    0  0.17514889676E+02  0.20939277118E+02  0.24709385410E+02  0.54367103570E+02  0.40000044208E+02 0.  0.
         12    1    3    3    0    0 -0.17514889676E+02 -0.20939277118E+02 -0.24709385410E+02  0.36820896430E+02  0.00000000000E+00 0. -1.
         11    1    4    4    0    0 -0.36766321723E+01  0.20921906316E+02  0.10780484436E+02  0.23821474198E+02  0.51100000000E-03 0. -1.
        -11    1    4    4    0    0  0.93997424707E+01 -0.57851601262E+01 -0.47455472542E+00  0.11047553514E+02  0.51100000000E-03 0.  1.
         12    1    4    4    0    0  0.11791779377E+02  0.58025309276E+01  0.14403455700E+02  0.19498075858E+02  0.00000000000E+00 0. -1.
</event>
<event>
 8    1  0.1269154E-006  0.9118800E+02  0.7816164E-02  0.1184000E+00
        -11   -1    0    0    0    0  0.00000000000E+00  0.00000000000E+00  0.45593999997E+02  0.45594000000E+02  0.51100000000E-03 0.  1.
         11   -1    0    0    0    0 -0.00000000000E+00 -0.00000000000E+00 -0.45593999997E+02  0.45594000000E+02  0.51100000000E-03 0. -1.
         23    2    1    2    0    0  0.35527136788E-14 -0.17763568394E-14 -0.35527136788E-14  0.91188000000E+02  0.91188000000E+02 0.  0.
    9900012    2    3    3    0    0 -0.29751462888E+02  0.94853434344E+01  0.19510458410E+02  0.54367091925E+02  0.40000017663E+02 0.  0.
         12    1    3    3    0    0  0.29751462888E+02 -0.94853434344E+01 -0.19510458410E+02  0.36820908075E+02  0.00000000000E+00 0. -1.
         11    1    4    4    0    0 -0.89753470972E+01 -0.38809574818E+00  0.82019019823E+01  0.12164648380E+02  0.51100000000E-03 0. -1.
        -11    1    4    4    0    0 -0.14662795689E+02 -0.15057037888E+01  0.21278452792E+02  0.25885078227E+02  0.51100000000E-03 0.  1.
         12    1    4    4    0    0 -0.61133201018E+01  0.11379142971E+02 -0.99698963642E+01  0.16317365319E+02  0.00000000000E+00 0. -1.
</event>
<event>
 8    1  0.1269154E-006  0.9118800E+02  0.7816164E-02  0.1184000E+00
        -11   -1    0    0    0    0  0.00000000000E+00  0.00000000000E+00  0.45593999997E+02  0.45594000000E+02  0.51100000000E-03 0.  1.
         11   -1    0    0    0    0 -0.00000000000E+00 -0.00000000000E+00 -0.45593999997E+02  0.45594000000E+02  0.51100000000E-03 0. -1.
         23    2    1    2    0    0  0.00000000000E+00  0.00000000000E+00  0.17763568394E-14  0.91188000000E+02  0.91188000000E+02 0.  0.
    9900012    2    3    3    0    0  0.26283531790E+02 -0.25058708881E+02 -0.60841564971E+01  0.54367083466E+02  0.39999998377E+02 0.  0.
        -12    1    3    3    0    0 -0.26283531790E+02  0.25058708881E+02  0.60841564971E+01  0.36820916534E+02  0.00000000000E+00 0.  1.
         11    1    4    4    0    0  0.13367202232E+02 -0.98365009696E+01 -0.17518513071E+02  0.24131662755E+02  0.51100000000E-03 0. -1.
        -11    1    4    4    0    0  0.56942004980E+01  0.33351191376E+01 -0.11224929976E+01  0.66937978580E+01  0.51100000000E-03 0.  1.
        -12    1    4    4    0    0  0.72221290605E+01 -0.18557327049E+02  0.12556849572E+02  0.23541622853E+02  0.00000000000E+00 0.  1.
</event>
<event>
 8    1  0.1269154E-006  0.9118800E+02  0.7816164E-02  0.1184000E+00
        -11   -1    0    0    0    0  0.00000000000E+00  0.00000000000E+00  0.45593999997E+02  0.45594000000E+02  0.51100000000E-03 0.  1.
         11   -1    0    0    0    0 -0.00000000000E+00 -0.00000000000E+00 -0.45593999997E+02  0.45594000000E+02  0.51100000000E-03 0. -1.
         23    2    1    2    0    0  0.00000000000E+00  0.17763568394E-14  0.00000000000E+00  0.91188000000E+02  0.91188000000E+02 0.  0.
    9900012    2    3    3    0    0 -0.19955691891E+02  0.12727104620E+02 -0.28205865201E+02  0.54367086614E+02  0.40000005554E+02 0.  0.
        -12    1    3    3    0    0  0.19955691891E+02 -0.12727104620E+02  0.28205865201E+02  0.36820913386E+02  0.00000000000E+00 0.  1.
         11    1    4    4    0    0  0.78003201168E+01 -0.45065463921E+01 -0.77107138443E+01  0.11857869225E+02  0.51100000000E-03 0. -1.
        -11    1    4    4    0    0 -0.17165270215E+02  0.10898319020E+02 -0.22146348823E+01  0.20452981859E+02  0.51100000000E-03 0.  1.
         12    1    4    4    0    0 -0.10590741793E+02  0.63353319920E+01 -0.18280516474E+02  0.22056235530E+02  0.00000000000E+00 0. -1.
</event>
<event>
 8    1  0.1269154E-006  0.9118800E+02  0.7816164E-02  0.1184000E+00
        -11   -1    0    0    0    0  0.00000000000E+00  0.00000000000E+00  0.45593999997E+02  0.45594000000E+02  0.51100000000E-03 0.  1.
         11   -1    0    0    0    0 -0.00000000000E+00 -0.00000000000E+00 -0.45593999997E+02  0.45594000000E+02  0.51100000000E-03 0. -1.
         23    2    1    2    0    0  0.00000000000E+00  0.00000000000E+00  0.00000000000E+00  0.91188000000E+02  0.91188000000E+02 0.  0.
    9900012    2    3    3    0    0 -0.18390278106E+02  0.18243071833E+02  0.26168065723E+02  0.54367086616E+02  0.40000005559E+02 0.  0.
         12    1    3    3    0    0  0.18390278106E+02 -0.18243071833E+02 -0.26168065723E+02  0.36820913384E+02  0.00000000000E+00 0. -1.
         11    1    4    4    0    0 -0.92300199441E-01 -0.69633207540E+00 -0.16683722723E+01  0.18102110336E+01  0.51100000000E-03 0. -1.
        -11    1    4    4    0    0 -0.23374443727E+02  0.97787354381E+01  0.32401445075E+02  0.41132006145E+02  0.51100000000E-03 0.  1.
        -12    1    4    4    0    0  0.50764658199E+01  0.91606684699E+01 -0.45650070795E+01  0.11424869438E+02  0.00000000000E+00 0.  1.
</event>
<event>
 8    1  0.1269154E-006  0.9118800E+02  0.7816164E-02  0.1184000E+00
        -11   -1    0    0    0    0  0.00000000000E+00  0.00000000000E+00  0.45593999997E+02  0.45594000000E+02  0.51100000000E-03 0. -1.
         11   -1    0    0    0    0 -0.00000000000E+00 -0.00000000000E+00 -0.45593999997E+02  0.45594000000E+02  0.51100000000E-03 0.  1.
         23    2    1    2    0    0  0.44408920985E-14  0.00000000000E+00  0.00000000000E+00  0.91188000000E+02  0.91188000000E+02 0.  0.
    9900012    2    3    3    0    0 -0.41818250222E+01  0.13410065683E+02 -0.34036125196E+02  0.54367145305E+02  0.40000139352E+02 0.  0.
         12    1    3    3    0    0  0.41818250222E+01 -0.13410065683E+02  0.34036125196E+02  0.36820854695E+02  0.00000000000E+00 0. -1.
         11    1    4    4    0    0  0.12378261142E+02 -0.26501456372E+01 -0.75002843889E+01  0.14713901148E+02  0.51100000000E-03 0. -1.
        -11    1    4    4    0    0 -0.12067929932E+02  0.16539311264E+02 -0.10532104283E+02  0.23024095439E+02  0.51100000000E-03 0.  1.
         12    1    4    4    0    0 -0.44921562326E+01 -0.47909994325E+00 -0.16003736523E+02  0.16629148718E+02  0.00000000000E+00 0. -1.
</event>
<event>
 8    1  0.1269154E-006  0.9118800E+02  0.7816164E-02  0.1184000E+00
        -11   -1    0    0    0    0  0.00000000000E+00  0.00000000000E+00  0.45593999997E+02  0.45594000000E+02  0.51100000000E-03 0.  1.
         11   -1    0    0    0    0 -0.00000000000E+00 -0.00000000000E+00 -0.45593999997E+02  0.45594000000E+02  0.51100000000E-03 0. -1.
         23    2    1    2    0    0  0.17763568394E-14  0.00000000000E+00  0.00000000000E+00  0.91188000000E+02  0.91188000000E+02 0.  0.
    9900012    2    3    3    0    0  0.10271650909E+02  0.28567143842E+02 -0.20837254081E+02  0.54367086413E+02  0.40000005096E+02 0.  0.
        -12    1    3    3    0    0 -0.10271650909E+02 -0.28567143842E+02  0.20837254081E+02  0.36820913587E+02  0.00000000000E+00 0.  1.
         11    1    4    4    0    0 -0.70304964603E+01  0.11008439902E+02 -0.14132779780E+02  0.19244456192E+02  0.51100000000E-03 0. -1.
        -11    1    4    4    0    0 -0.50019302832E+01  0.33585548595E+01 -0.62454582676E+01  0.86778422742E+01  0.51100000000E-03 0.  1.
        -12    1    4    4    0    0  0.22304077652E+02  0.14200149081E+02 -0.45901603370E+00  0.26444787947E+02  0.00000000000E+00 0.  1.
</event>
<event>
 8    1  0.1269154E-006  0.9118800E+02  0.7816164E-02  0.1184000E+00
        -11   -1    0    0    0    0  0.00000000000E+00  0.00000000000E+00  0.45593999997E+02  0.45594000000E+02  0.51100000000E-03 0. -1.
         11   -1    0    0    0    0 -0.00000000000E+00 -0.00000000000E+00 -0.45593999997E+02  0.45594000000E+02  0.51100000000E-03 0.  1.
         23    2    1    2    0    0 -0.35527136788E-14  0.00000000000E+00  0.00000000000E+00  0.91188000000E+02  0.91188000000E+02 0.  0.
    9900012    2    3    3    0    0 -0.20466999316E+02  0.22175355970E+02 -0.21098246452E+02  0.54367075558E+02  0.39999980350E+02 0.  0.
         12    1    3    3    0    0  0.20466999316E+02 -0.22175355970E+02  0.21098246452E+02  0.36820924442E+02  0.00000000000E+00 0. -1.
         11    1    4    4    0    0 -0.19703593530E+02  0.88165567391E+01 -0.82841443070E+01  0.23121209266E+02  0.51100000000E-03 0. -1.
        -11    1    4    4    0    0 -0.77856887470E+01  0.18033188437E+02 -0.11345137390E+02  0.22683143017E+02  0.51100000000E-03 0.  1.
        -12    1    4    4    0    0  0.70222829614E+01 -0.46743892062E+01 -0.14689647547E+01  0.85627232754E+01  0.00000000000E+00 0.  1.
</event>
<event>
 8    1  0.1269154E-006  0.9118800E+02  0.7816164E-02  0.1184000E+00
        -11   -1    0    0    0    0  0.00000000000E+00  0.00000000000E+00  0.45593999997E+02  0.45594000000E+02  0.51100000000E-03 0. -1.
         11   -1    0    0    0    0 -0.00000000000E+00 -0.00000000000E+00 -0.45593999997E+02  0.45594000000E+02  0.51100000000E-03 0.  1.
         23    2    1    2    0    0 -0.17763568394E-14  0.00000000000E+00  0.17763568394E-14  0.91188000000E+02  0.91188000000E+02 0.  0.
    9900012    2    3    3    0    0 -0.15783679926E+02 -0.29426396399E+02  0.15515881705E+02  0.54367082818E+02  0.39999996900E+02 0.  0.
        -12    1    3    3    0    0  0.15783679926E+02  0.29426396399E+02 -0.15515881705E+02  0.36820917182E+02  0.00000000000E+00 0.  1.
         11    1    4    4    0    0 -0.28006709737E+01  0.95956938438E+01  0.70257103185E+01  0.12218089212E+02  0.51100000000E-03 0.  1.
        -11    1    4    4    0    0 -0.30776960835E+01 -0.14447916277E+02  0.36297118605E+01  0.15211486002E+02  0.51100000000E-03 0. -1.
        -12    1    4    4    0    0 -0.99053128692E+01 -0.24574173966E+02  0.48604595255E+01  0.26937507604E+02  0.00000000000E+00 0.  1.
</event>
<event>
 8    1  0.1269154E-006  0.9118800E+02  0.7816164E-02  0.1184000E+00
        -11   -1    0    0    0    0  0.00000000000E+00  0.00000000000E+00  0.45593999997E+02  0.45594000000E+02  0.51100000000E-03 0.  1.
         11   -1    0    0    0    0 -0.00000000000E+00 -0.00000000000E+00 -0.45593999997E+02  0.45594000000E+02  0.51100000000E-03 0. -1.
         23    2    1    2    0    0  0.53290705182E-14  0.00000000000E+00  0.00000000000E+00  0.91188000000E+02  0.91188000000E+02 0.  0.
    9900012    2    3    3    0    0  0.12966842459E+02 -0.16670543341E+02 -0.30161787694E+02  0.54367089425E+02  0.40000011963E+02 0.  0.
        -12    1    3    3    0    0 -0.12966842459E+02  0.16670543341E+02  0.30161787694E+02  0.36820910575E+02  0.00000000000E+00 0.  1.
         11    1    4    4    0    0  0.23015841969E+02 -0.75730503742E+00 -0.24744287997E+02  0.33802104686E+02  0.51100000000E-03 0. -1.
        -11    1    4    4    0    0 -0.45030672366E+01 -0.50194638817E+01  0.90282764367E+00  0.68035086692E+01  0.51100000000E-03 0.  1.
        -12    1    4    4    0    0 -0.55459322732E+01 -0.10893774422E+02 -0.63203273410E+01  0.13761476071E+02  0.00000000000E+00 0.  1.
</event>
<event>
 8    1  0.1269154E-006  0.9118800E+02  0.7816164E-02  0.1184000E+00
        -11   -1    0    0    0    0  0.00000000000E+00  0.00000000000E+00  0.45593999997E+02  0.45594000000E+02  0.51100000000E-03 0.  1.
         11   -1    0    0    0    0 -0.00000000000E+00 -0.00000000000E+00 -0.45593999997E+02  0.45594000000E+02  0.51100000000E-03 0. -1.
         23    2    1    2    0    0  0.00000000000E+00  0.17763568394E-14 -0.35527136788E-14  0.91188000000E+02  0.91188000000E+02 0.  0.
    9900012    2    3    3    0    0 -0.31474500665E+02  0.75740383696E+01 -0.17543409601E+02  0.54367062074E+02  0.39999949610E+02 0.  0.
        -12    1    3    3    0    0  0.31474500665E+02 -0.75740383696E+01  0.17543409601E+02  0.36820937926E+02  0.00000000000E+00 0.  1.
         11    1    4    4    0    0 -0.18163347409E+02  0.10893897654E+02 -0.96248282110E+01  0.23264168017E+02  0.51100000000E-03 0. -1.
        -11    1    4    4    0    0  0.26714832594E+00  0.97206956491E+01 -0.74854024263E+01  0.12271696781E+02  0.51100000000E-03 0.  1.
        -12    1    4    4    0    0 -0.13578301582E+02 -0.13040554934E+02 -0.43317896387E+00  0.18831197276E+02  0.00000000000E+00 0.  1.
</event>
<event>
 8    1  0.1269154E-006  0.9118800E+02  0.7816164E-02  0.1184000E+00
        -11   -1    0    0    0    0  0.00000000000E+00  0.00000000000E+00  0.45593999997E+02  0.45594000000E+02  0.51100000000E-03 0.  1.
         11   -1    0    0    0    0 -0.00000000000E+00 -0.00000000000E+00 -0.45593999997E+02  0.45594000000E+02  0.51100000000E-03 0. -1.
         23    2    1    2    0    0  0.00000000000E+00  0.00000000000E+00  0.00000000000E+00  0.91188000000E+02  0.91188000000E+02 0.  0.
    9900012    2    3    3    0    0 -0.23274798108E+02 -0.13751558140E+02 -0.24999149026E+02  0.54367095200E+02  0.40000025128E+02 0.  0.
        -12    1    3    3    0    0  0.23274798108E+02  0.13751558140E+02  0.24999149026E+02  0.36820904800E+02  0.00000000000E+00 0.  1.
         11    1    4    4    0    0  0.45368918339E+01 -0.92686121428E+01 -0.17709784784E+01  0.10470287656E+02  0.51100000000E-03 0. -1.
        -11    1    4    4    0    0 -0.19771014176E+02 -0.55385438752E+01 -0.27820831824E+02  0.34576974324E+02  0.51100000000E-03 0.  1.
        -12    1    4    4    0    0 -0.80406757662E+01  0.10555978780E+01  0.45926612757E+01  0.93198332201E+01  0.00000000000E+00 0.  1.
</event>
<event>
 8    1  0.1269154E-006  0.9118800E+02  0.7816164E-02  0.1184000E+00
        -11   -1    0    0    0    0  0.00000000000E+00  0.00000000000E+00  0.45593999997E+02  0.45594000000E+02  0.51100000000E-03 0. -1.
         11   -1    0    0    0    0 -0.00000000000E+00 -0.00000000000E+00 -0.45593999997E+02  0.45594000000E+02  0.51100000000E-03 0.  1.
         23    2    1    2    0    0  0.35527136788E-14  0.35527136788E-14  0.44408920985E-15  0.91188000000E+02  0.91188000000E+02 0.  0.
    9900012    2    3    3    0    0  0.30168601686E+02  0.21023852917E+02  0.19068200534E+01  0.54367042899E+02  0.39999905896E+02 0.  0.
         12    1    3    3    0    0 -0.30168601686E+02 -0.21023852917E+02 -0.19068200534E+01  0.36820957101E+02  0.00000000000E+00 0. -1.
         11    1    4    4    0    0  0.35542737346E+01 -0.37303129795E+01  0.33719019925E+01  0.61577447182E+01  0.51100000000E-03 0. -1.
        -11    1    4    4    0    0  0.13307071530E+02 -0.74829795357E+00 -0.11641808190E+02  0.17696604215E+02  0.51100000000E-03 0.  1.
         12    1    4    4    0    0  0.13307256421E+02  0.25502463850E+02  0.10176726251E+02  0.30512693966E+02  0.00000000000E+00 0. -1.
</event>
<event>
 8    1  0.1269154E-006  0.9118800E+02  0.7816164E-02  0.1184000E+00
        -11   -1    0    0    0    0  0.00000000000E+00  0.00000000000E+00  0.45593999997E+02  0.45594000000E+02  0.51100000000E-03 0. -1.
         11   -1    0    0    0    0 -0.00000000000E+00 -0.00000000000E+00 -0.45593999997E+02  0.45594000000E+02  0.51100000000E-03 0.  1.
         23    2    1    2    0    0  0.00000000000E+00  0.00000000000E+00  0.00000000000E+00  0.91188000000E+02  0.91188000000E+02 0.  0.
    9900012    2    3    3    0    0  0.12804283372E+02 -0.62893821381E+01 -0.33945148914E+02  0.54367093777E+02  0.40000021883E+02 0.  0.
         12    1    3    3    0    0 -0.12804283372E+02  0.62893821381E+01  0.33945148914E+02  0.36820906223E+02  0.00000000000E+00 0. -1.
         11    1    4    4    0    0 -0.73459750828E+01 -0.68201247307E+01 -0.31239120293E+02  0.32807927216E+02  0.51100000000E-03 0. -1.
        -11    1    4    4    0    0  0.10702053273E+02  0.26707288263E+01  0.12380672656E+01  0.11099529159E+02  0.51100000000E-03 0.  1.
         12    1    4    4    0    0  0.94482051812E+01 -0.21399862336E+01 -0.39440958862E+01  0.10459637402E+02  0.00000000000E+00 0. -1.
</event>
<event>
 8    1  0.1269154E-006  0.9118800E+02  0.7816164E-02  0.1184000E+00
        -11   -1    0    0    0    0  0.00000000000E+00  0.00000000000E+00  0.45593999997E+02  0.45594000000E+02  0.51100000000E-03 0.  1.
         11   -1    0    0    0    0 -0.00000000000E+00 -0.00000000000E+00 -0.45593999997E+02  0.45594000000E+02  0.51100000000E-03 0. -1.
         23    2    1    2    0    0  0.35527136788E-14 -0.13322676296E-14  0.00000000000E+00  0.91188000000E+02  0.91188000000E+02 0.  0.
    9900012    2    3    3    0    0  0.30867817954E+02  0.28156464195E+01  0.19875381558E+02  0.54367070597E+02  0.39999969041E+02 0.  0.
         12    1    3    3    0    0 -0.30867817954E+02 -0.28156464195E+01 -0.19875381558E+02  0.36820929403E+02  0.00000000000E+00 0. -1.
         11    1    4    4    0    0 -0.78858109617E+00 -0.61304531497E+01  0.37321836933E-01  0.61810766980E+01  0.51100000000E-03 0. -1.
        -11    1    4    4    0    0  0.26953314668E+02  0.18735726128E+02  0.16971994945E+02  0.36953446630E+02  0.51100000000E-03 0.  1.
        -12    1    4    4    0    0  0.47030843821E+01 -0.97896265588E+01  0.28660647761E+01  0.11232547270E+02  0.00000000000E+00 0.  1.
</event>
<event>
 8    1  0.1269154E-006  0.9118800E+02  0.7816164E-02  0.1184000E+00
        -11   -1    0    0    0    0  0.00000000000E+00  0.00000000000E+00  0.45593999997E+02  0.45594000000E+02  0.51100000000E-03 0. -1.
         11   -1    0    0    0    0 -0.00000000000E+00 -0.00000000000E+00 -0.45593999997E+02  0.45594000000E+02  0.51100000000E-03 0.  1.
         23    2    1    2    0    0  0.00000000000E+00  0.00000000000E+00 -0.44408920985E-15  0.91188000000E+02  0.91188000000E+02 0.  0.
    9900012    2    3    3    0    0  0.34900701516E+02 -0.11368600894E+02 -0.29113578078E+01  0.54367081260E+02  0.39999993348E+02 0.  0.
        -12    1    3    3    0    0 -0.34900701516E+02  0.11368600894E+02  0.29113578078E+01  0.36820918740E+02  0.00000000000E+00 0.  1.
         11    1    4    4    0    0  0.27703665774E+02 -0.91481420045E+01  0.12535670504E+01  0.29201935383E+02  0.51100000000E-03 0. -1.
        -11    1    4    4    0    0 -0.26925183691E+01 -0.10940822837E+02 -0.40695096015E+01  0.11979656430E+02  0.51100000000E-03 0.  1.
        -12    1    4    4    0    0  0.98895541107E+01  0.87203639477E+01 -0.95415256693E-01  0.13185489447E+02  0.00000000000E+00 0.  1.
</event>
<event>
 8    1  0.1269154E-006  0.9118800E+02  0.7816164E-02  0.1184000E+00
        -11   -1    0    0    0    0  0.00000000000E+00  0.00000000000E+00  0.45593999997E+02  0.45594000000E+02  0.51100000000E-03 0. -1.
         11   -1    0    0    0    0 -0.00000000000E+00 -0.00000000000E+00 -0.45593999997E+02  0.45594000000E+02  0.51100000000E-03 0.  1.
         23    2    1    2    0    0 -0.35527136788E-14  0.00000000000E+00 -0.35527136788E-14  0.91188000000E+02  0.91188000000E+02 0.  0.
    9900012    2    3    3    0    0  0.16753049036E+02  0.80632427687E+01  0.31782067542E+02  0.54367077236E+02  0.39999984174E+02 0.  0.
        -12    1    3    3    0    0 -0.16753049036E+02 -0.80632427687E+01 -0.31782067542E+02  0.36820922764E+02  0.00000000000E+00 0.  1.
         11    1    4    4    0    0  0.12544763703E+01  0.16173906449E+02  0.29565996109E+02  0.33724132116E+02  0.51100000000E-03 0.  1.
        -11    1    4    4    0    0  0.19171725491E+01 -0.45855055946E+01  0.41550356634E+01  0.64781736444E+01  0.51100000000E-03 0. -1.
        -12    1    4    4    0    0  0.13581400117E+02 -0.35251580861E+01 -0.19389642300E+01  0.14164771475E+02  0.00000000000E+00 0.  1.
</event>
<event>
 8    1  0.1269154E-006  0.9118800E+02  0.7816164E-02  0.1184000E+00
        -11   -1    0    0    0    0  0.00000000000E+00  0.00000000000E+00  0.45593999997E+02  0.45594000000E+02  0.51100000000E-03 0.  1.
         11   -1    0    0    0    0 -0.00000000000E+00 -0.00000000000E+00 -0.45593999997E+02  0.45594000000E+02  0.51100000000E-03 0. -1.
         23    2    1    2    0    0  0.00000000000E+00 -0.17763568394E-14  0.26645352591E-14  0.91188000000E+02  0.91188000000E+02 0.  0.
    9900012    2    3    3    0    0 -0.35481025975E+02  0.70824220414E+01 -0.68347368690E+01  0.54367115515E+02  0.40000071439E+02 0.  0.
        -12    1    3    3    0    0  0.35481025975E+02 -0.70824220414E+01  0.68347368690E+01  0.36820884485E+02  0.00000000000E+00 0.  1.
         11    1    4    4    0    0 -0.34706775598E+02 -0.31916365735E+01  0.30245513176E+01  0.34984206827E+02  0.51100000000E-03 0. -1.
        -11    1    4    4    0    0 -0.40083082933E+01  0.43034176787E+01  0.15715634640E+01  0.60873435154E+01  0.51100000000E-03 0.  1.
         12    1    4    4    0    0  0.32340579162E+01  0.59706409361E+01 -0.11430851651E+02  0.13295565172E+02  0.00000000000E+00 0. -1.
</event>
<event>
 8    1  0.1269154E-006  0.9118800E+02  0.7816164E-02  0.1184000E+00
        -11   -1    0    0    0    0  0.00000000000E+00  0.00000000000E+00  0.45593999997E+02  0.45594000000E+02  0.51100000000E-03 0. -1.
         11   -1    0    0    0    0 -0.00000000000E+00 -0.00000000000E+00 -0.45593999997E+02  0.45594000000E+02  0.51100000000E-03 0.  1.
         23    2    1    2    0    0  0.00000000000E+00  0.00000000000E+00  0.00000000000E+00  0.91188000000E+02  0.91188000000E+02 0.  0.
    9900012    2    3    3    0    0 -0.25914898273E+02 -0.94396024405E+01 -0.24394656315E+02  0.54366982856E+02  0.39999769017E+02 0.  0.
        -12    1    3    3    0    0  0.25914898273E+02  0.94396024405E+01  0.24394656315E+02  0.36821017144E+02  0.00000000000E+00 0.  1.
         11    1    4    4    0    0 -0.36509635940E+01 -0.11818860847E+02 -0.42075596302E+01  0.13065931470E+02  0.51100000000E-03 0. -1.
        -11    1    4    4    0    0 -0.22515102643E+02  0.31960124852E+01 -0.26506144069E+02  0.34924490211E+02  0.51100000000E-03 0.  1.
        -12    1    4    4    0    0  0.25116796305E+00 -0.81675407873E+00  0.63190473846E+01  0.63765611751E+01  0.00000000000E+00 0.  1.
</event>
<event>
 8    1  0.1269154E-006  0.9118800E+02  0.7816164E-02  0.1184000E+00
        -11   -1    0    0    0    0  0.00000000000E+00  0.00000000000E+00  0.45593999997E+02  0.45594000000E+02  0.51100000000E-03 0. -1.
         11   -1    0    0    0    0 -0.00000000000E+00 -0.00000000000E+00 -0.45593999997E+02  0.45594000000E+02  0.51100000000E-03 0.  1.
         23    2    1    2    0    0  0.00000000000E+00  0.00000000000E+00 -0.88817841970E-15  0.91188000000E+02  0.91188000000E+02 0.  0.
    9900012    2    3    3    0    0 -0.35888037111E+02 -0.25199354825E+01  0.78406577419E+01  0.54367120104E+02  0.40000081901E+02 0.  0.
         12    1    3    3    0    0  0.35888037111E+02  0.25199354825E+01 -0.78406577419E+01  0.36820879896E+02  0.00000000000E+00 0. -1.
         11    1    4    4    0    0 -0.59636974266E+01  0.11421960439E+01 -0.91175165786E+01  0.10954424112E+02  0.51100000000E-03 0. -1.
        -11    1    4    4    0    0  0.49152790673E+01 -0.77664877619E+00  0.26626373162E+01  0.56438275461E+01  0.51100000000E-03 0.  1.
         12    1    4    4    0    0 -0.34839618752E+02 -0.28854827503E+01  0.14295537004E+02  0.37768868446E+02  0.00000000000E+00 0. -1.
</event>
<event>
 8    1  0.1269154E-006  0.9118800E+02  0.7816164E-02  0.1184000E+00
        -11   -1    0    0    0    0  0.00000000000E+00  0.00000000000E+00  0.45593999997E+02  0.45594000000E+02  0.51100000000E-03 0. -1.
         11   -1    0    0    0    0 -0.00000000000E+00 -0.00000000000E+00 -0.45593999997E+02  0.45594000000E+02  0.51100000000E-03 0.  1.
         23    2    1    2    0    0  0.17763568394E-14  0.00000000000E+00  0.00000000000E+00  0.91188000000E+02  0.91188000000E+02 0.  0.
    9900012    2    3    3    0    0 -0.14436472639E+02 -0.26716526482E+02  0.20822942443E+02  0.54367089345E+02  0.40000011779E+02 0.  0.
         12    1    3    3    0    0  0.14436472639E+02  0.26716526482E+02 -0.20822942443E+02  0.36820910655E+02  0.00000000000E+00 0. -1.
         11    1    4    4    0    0  0.93469598352E+01 -0.53963442596E+01 -0.47503134086E+01  0.11792017099E+02  0.51100000000E-03 0. -1.
        -11    1    4    4    0    0 -0.17420549022E+02 -0.12682976457E+02  0.10230230795E+02  0.23853533122E+02  0.51100000000E-03 0.  1.
        -12    1    4    4    0    0 -0.63628834527E+01 -0.86372057650E+01  0.15343025057E+02  0.18721539123E+02  0.00000000000E+00 0.  1.
</event>
<event>
 8    1  0.1269154E-006  0.9118800E+02  0.7816164E-02  0.1184000E+00
        -11   -1    0    0    0    0  0.00000000000E+00  0.00000000000E+00  0.45593999997E+02  0.45594000000E+02  0.51100000000E-03 0. -1.
         11   -1    0    0    0    0 -0.00000000000E+00 -0.00000000000E+00 -0.45593999997E+02  0.45594000000E+02  0.51100000000E-03 0.  1.
         23    2    1    2    0    0  0.00000000000E+00  0.00000000000E+00  0.35527136788E-14  0.91188000000E+02  0.91188000000E+02 0.  0.
    9900012    2    3    3    0    0 -0.66164900062E+01 -0.28430957406E+02  0.22442868801E+02  0.54367086934E+02  0.40000006283E+02 0.  0.
        -12    1    3    3    0    0  0.66164900062E+01  0.28430957406E+02 -0.22442868801E+02  0.36820913066E+02  0.00000000000E+00 0.  1.
         11    1    4    4    0    0 -0.35899049422E+01 -0.20256893231E+02  0.25515163848E+02  0.32775794839E+02  0.51100000000E-03 0. -1.
        -11    1    4    4    0    0 -0.43764894092E+01  0.34170683615E+01  0.49432710199E+01  0.74341068309E+01  0.51100000000E-03 0.  1.
         12    1    4    4    0    0  0.13499043452E+01 -0.11591132537E+02 -0.80155660671E+01  0.14157185264E+02  0.00000000000E+00 0. -1.
</event>
<event>
 8    1  0.1269154E-006  0.9118800E+02  0.7816164E-02  0.1184000E+00
        -11   -1    0    0    0    0  0.00000000000E+00  0.00000000000E+00  0.45593999997E+02  0.45594000000E+02  0.51100000000E-03 0. -1.
         11   -1    0    0    0    0 -0.00000000000E+00 -0.00000000000E+00 -0.45593999997E+02  0.45594000000E+02  0.51100000000E-03 0.  1.
         23    2    1    2    0    0  0.71054273576E-14  0.00000000000E+00  0.00000000000E+00  0.91188000000E+02  0.91188000000E+02 0.  0.
    9900012    2    3    3    0    0 -0.23412904668E+02  0.27403900511E+02  0.75260740327E+01  0.54367086669E+02  0.40000005679E+02 0.  0.
        -12    1    3    3    0    0  0.23412904668E+02 -0.27403900511E+02 -0.75260740327E+01  0.36820913331E+02  0.00000000000E+00 0.  1.
         11    1    4    4    0    0 -0.13415780026E+02  0.11548578841E+02  0.11857935348E+02  0.21306418233E+02  0.51100000000E-03 0. -1.
        -11    1    4    4    0    0  0.55801261195E+01  0.14003524581E+02  0.35767835522E+01  0.15492898019E+02  0.51100000000E-03 0.  1.
        -12    1    4    4    0    0 -0.15577250762E+02  0.18517970895E+01 -0.79086448679E+01  0.17567770416E+02  0.00000000000E+00 0.  1.
</event>
<event>
 8    1  0.1269154E-006  0.9118800E+02  0.7816164E-02  0.1184000E+00
        -11   -1    0    0    0    0  0.00000000000E+00  0.00000000000E+00  0.45593999997E+02  0.45594000000E+02  0.51100000000E-03 0. -1.
         11   -1    0    0    0    0 -0.00000000000E+00 -0.00000000000E+00 -0.45593999997E+02  0.45594000000E+02  0.51100000000E-03 0.  1.
         23    2    1    2    0    0 -0.35527136788E-14  0.35527136788E-14  0.00000000000E+00  0.91188000000E+02  0.91188000000E+02 0.  0.
    9900012    2    3    3    0    0  0.29040285466E+02 -0.15737497285E+02 -0.16271808655E+02  0.54367098902E+02  0.40000033568E+02 0.  0.
         12    1    3    3    0    0 -0.29040285466E+02  0.15737497285E+02  0.16271808655E+02  0.36820901098E+02  0.00000000000E+00 0. -1.
         11    1    4    4    0    0 -0.19437307517E+01 -0.28868635720E+01 -0.14686217817E+02  0.15092947510E+02  0.51100000000E-03 0. -1.
        -11    1    4    4    0    0  0.13286935891E+02  0.28925157578E+01 -0.65184993653E+01  0.15079792672E+02  0.51100000000E-03 0.  1.
        -12    1    4    4    0    0  0.17697080327E+02 -0.15743149471E+02  0.49329085275E+01  0.24194358720E+02  0.00000000000E+00 0.  1.
</event>
<event>
 8    1  0.1269154E-006  0.9118800E+02  0.7816164E-02  0.1184000E+00
        -11   -1    0    0    0    0  0.00000000000E+00  0.00000000000E+00  0.45593999997E+02  0.45594000000E+02  0.51100000000E-03 0. -1.
         11   -1    0    0    0    0 -0.00000000000E+00 -0.00000000000E+00 -0.45593999997E+02  0.45594000000E+02  0.51100000000E-03 0.  1.
         23    2    1    2    0    0 -0.35527136788E-14  0.35527136788E-14  0.17763568394E-14  0.91188000000E+02  0.91188000000E+02 0.  0.
    9900012    2    3    3    0    0 -0.20536836580E+02  0.29562962308E+02  0.77492290247E+01  0.54367069164E+02  0.39999965774E+02 0.  0.
         12    1    3    3    0    0  0.20536836580E+02 -0.29562962308E+02 -0.77492290247E+01  0.36820930836E+02  0.00000000000E+00 0. -1.
         11    1    4    4    0    0 -0.16373326282E+02  0.29808176288E+02  0.13772577542E+02  0.36691921176E+02  0.51100000000E-03 0. -1.
        -11    1    4    4    0    0 -0.49004556054E+01  0.43259664712E+01  0.32575027860E+01  0.73034084996E+01  0.51100000000E-03 0.  1.
        -12    1    4    4    0    0  0.73694530696E+00 -0.45711804518E+01 -0.92808513034E+01  0.10371739489E+02  0.00000000000E+00 0.  1.
</event>
<event>
 8    1  0.1269154E-006  0.9118800E+02  0.7816164E-02  0.1184000E+00
        -11   -1    0    0    0    0  0.00000000000E+00  0.00000000000E+00  0.45593999997E+02  0.45594000000E+02  0.51100000000E-03 0.  1.
         11   -1    0    0    0    0 -0.00000000000E+00 -0.00000000000E+00 -0.45593999997E+02  0.45594000000E+02  0.51100000000E-03 0. -1.
         23    2    1    2    0    0  0.00000000000E+00  0.00000000000E+00 -0.22204460493E-15  0.91188000000E+02  0.91188000000E+02 0.  0.
    9900012    2    3    3    0    0 -0.35861470053E+02 -0.82537593047E+01  0.12687398161E+01  0.54367091839E+02  0.40000017466E+02 0.  0.
         12    1    3    3    0    0  0.35861470053E+02  0.82537593047E+01 -0.12687398161E+01  0.36820908161E+02  0.00000000000E+00 0. -1.
         11    1    4    4    0    0 -0.54727365903E+01 -0.11357206257E+02 -0.10133746774E+02  0.16174974611E+02  0.51100000000E-03 0. -1.
        -11    1    4    4    0    0 -0.17257098061E+01  0.22170138405E+01 -0.45720006390E+01  0.53662291050E+01  0.51100000000E-03 0.  1.
        -12    1    4    4    0    0 -0.28663023657E+02  0.88643311130E+00  0.15974487229E+02  0.32825888123E+02  0.00000000000E+00 0.  1.
</event>
<event>
 8    1  0.1269154E-006  0.9118800E+02  0.7816164E-02  0.1184000E+00
        -11   -1    0    0    0    0  0.00000000000E+00  0.00000000000E+00  0.45593999997E+02  0.45594000000E+02  0.51100000000E-03 0. -1.
         11   -1    0    0    0    0 -0.00000000000E+00 -0.00000000000E+00 -0.45593999997E+02  0.45594000000E+02  0.51100000000E-03 0.  1.
         23    2    1    2    0    0 -0.71054273576E-14 -0.88817841970E-15  0.71054273576E-14  0.91188000000E+02  0.91188000000E+02 0.  0.
    9900012    2    3    3    0    0 -0.22426206575E+02  0.78745042463E+01  0.28121848578E+02  0.54367069459E+02  0.39999966445E+02 0.  0.
        -12    1    3    3    0    0  0.22426206575E+02 -0.78745042463E+01 -0.28121848578E+02  0.36820930541E+02  0.00000000000E+00 0.  1.
         11    1    4    4    0    0 -0.30595701095E+01 -0.10163161688E+02  0.15602212738E+02  0.18870078625E+02  0.51100000000E-03 0. -1.
        -11    1    4    4    0    0  0.36808046607E+01 -0.39739176445E+00  0.14485758125E+01  0.39755018941E+01  0.51100000000E-03 0.  1.
        -12    1    4    4    0    0 -0.23047441126E+02  0.18435057699E+02  0.11071060028E+02  0.31521488939E+02  0.00000000000E+00 0.  1.
</event>
<event>
 8    1  0.1269154E-006  0.9118800E+02  0.7816164E-02  0.1184000E+00
        -11   -1    0    0    0    0  0.00000000000E+00  0.00000000000E+00  0.45593999997E+02  0.45594000000E+02  0.51100000000E-03 0. -1.
         11   -1    0    0    0    0 -0.00000000000E+00 -0.00000000000E+00 -0.45593999997E+02  0.45594000000E+02  0.51100000000E-03 0.  1.
         23    2    1    2    0    0 -0.17763568394E-14  0.00000000000E+00  0.00000000000E+00  0.91188000000E+02  0.91188000000E+02 0.  0.
    9900012    2    3    3    0    0  0.15054084617E+02 -0.20364177313E+02  0.26729283750E+02  0.54367084869E+02  0.40000001576E+02 0.  0.
        -12    1    3    3    0    0 -0.15054084617E+02  0.20364177313E+02 -0.26729283750E+02  0.36820915131E+02  0.00000000000E+00 0.  1.
         11    1    4    4    0    0  0.20658229149E+02 -0.30730265168E+01  0.12274743673E+02  0.24225508376E+02  0.51100000000E-03 0. -1.
        -11    1    4    4    0    0  0.24775946475E+01 -0.56367269234E+01  0.14720894689E+02  0.15956688452E+02  0.51100000000E-03 0.  1.
        -12    1    4    4    0    0 -0.80817391795E+01 -0.11654423873E+02 -0.26635461188E+00  0.14184888041E+02  0.00000000000E+00 0.  1.
</event>
<event>
 8    1  0.1269154E-006  0.9118800E+02  0.7816164E-02  0.1184000E+00
        -11   -1    0    0    0    0  0.00000000000E+00  0.00000000000E+00  0.45593999997E+02  0.45594000000E+02  0.51100000000E-03 0. -1.
         11   -1    0    0    0    0 -0.00000000000E+00 -0.00000000000E+00 -0.45593999997E+02  0.45594000000E+02  0.51100000000E-03 0.  1.
         23    2    1    2    0    0  0.17763568394E-14  0.00000000000E+00  0.00000000000E+00  0.91188000000E+02  0.91188000000E+02 0.  0.
    9900012    2    3    3    0    0  0.96855634174E+01 -0.59269778239E+01  0.35026278608E+02  0.54367090207E+02  0.40000013745E+02 0.  0.
        -12    1    3    3    0    0 -0.96855634174E+01  0.59269778239E+01 -0.35026278608E+02  0.36820909793E+02  0.00000000000E+00 0.  1.
         11    1    4    4    0    0 -0.33168037490E+01  0.17436529068E+01  0.10050756503E+02  0.10726566045E+02  0.51100000000E-03 0. -1.
        -11    1    4    4    0    0  0.23050926860E+02 -0.68667911197E+01  0.11100115326E+02  0.26489820873E+02  0.51100000000E-03 0.  1.
        -12    1    4    4    0    0 -0.10048559693E+02 -0.80383961096E+00  0.13875406778E+02  0.17150703289E+02  0.00000000000E+00 0.  1.
</event>
<event>
 8    1  0.1269154E-006  0.9118800E+02  0.7816164E-02  0.1184000E+00
        -11   -1    0    0    0    0  0.00000000000E+00  0.00000000000E+00  0.45593999997E+02  0.45594000000E+02  0.51100000000E-03 0. -1.
         11   -1    0    0    0    0 -0.00000000000E+00 -0.00000000000E+00 -0.45593999997E+02  0.45594000000E+02  0.51100000000E-03 0.  1.
         23    2    1    2    0    0 -0.88817841970E-15  0.00000000000E+00  0.71054273576E-14  0.91188000000E+02  0.91188000000E+02 0.  0.
    9900012    2    3    3    0    0  0.14439595451E+01  0.10743297589E+02 -0.35189146000E+02  0.54367089386E+02  0.40000011873E+02 0.  0.
         12    1    3    3    0    0 -0.14439595451E+01 -0.10743297589E+02  0.35189146000E+02  0.36820910614E+02  0.00000000000E+00 0. -1.
         11    1    4    4    0    0 -0.58581274040E+01  0.11044716104E+02 -0.88093339407E+01  0.15294043783E+02  0.51100000000E-03 0. -1.
        -11    1    4    4    0    0  0.92411966983E+01  0.31051635659E+01 -0.31299551362E+02  0.32782673365E+02  0.51100000000E-03 0.  1.
         12    1    4    4    0    0 -0.19391097493E+01 -0.34065820804E+01  0.49197393033E+01  0.62903722388E+01  0.00000000000E+00 0. -1.
</event>
<event>
 8    1  0.1269154E-006  0.9118800E+02  0.7816164E-02  0.1184000E+00
        -11   -1    0    0    0    0  0.00000000000E+00  0.00000000000E+00  0.45593999997E+02  0.45594000000E+02  0.51100000000E-03 0. -1.
         11   -1    0    0    0    0 -0.00000000000E+00 -0.00000000000E+00 -0.45593999997E+02  0.45594000000E+02  0.51100000000E-03 0.  1.
         23    2    1    2    0    0  0.00000000000E+00  0.00000000000E+00  0.00000000000E+00  0.91188000000E+02  0.91188000000E+02 0.  0.
    9900012    2    3    3    0    0  0.86460479967E+01 -0.28107848250E+02 -0.22157955031E+02  0.54367078632E+02  0.39999987358E+02 0.  0.
        -12    1    3    3    0    0 -0.86460479967E+01  0.28107848250E+02  0.22157955031E+02  0.36820921368E+02  0.00000000000E+00 0.  1.
         11    1    4    4    0    0 -0.27883129461E+01 -0.29467705533E+02 -0.10809785747E+02  0.31511455482E+02  0.51100000000E-03 0. -1.
        -11    1    4    4    0    0 -0.32667832445E+01 -0.23085764055E+00  0.11738627650E+01  0.34789541631E+01  0.51100000000E-03 0.  1.
         12    1    4    4    0    0  0.14701144187E+02  0.15907149232E+01 -0.12522032049E+02  0.19376668987E+02  0.00000000000E+00 0. -1.
</event>
<event>
 8    1  0.1269154E-006  0.9118800E+02  0.7816164E-02  0.1184000E+00
        -11   -1    0    0    0    0  0.00000000000E+00  0.00000000000E+00  0.45593999997E+02  0.45594000000E+02  0.51100000000E-03 0. -1.
         11   -1    0    0    0    0 -0.00000000000E+00 -0.00000000000E+00 -0.45593999997E+02  0.45594000000E+02  0.51100000000E-03 0.  1.
         23    2    1    2    0    0  0.00000000000E+00 -0.11102230246E-14  0.00000000000E+00  0.91188000000E+02  0.91188000000E+02 0.  0.
    9900012    2    3    3    0    0  0.33006275565E+02  0.89241062519E+00 -0.16296287916E+02  0.54367087149E+02  0.40000006772E+02 0.  0.
         12    1    3    3    0    0 -0.33006275565E+02 -0.89241062519E+00  0.16296287916E+02  0.36820912851E+02  0.00000000000E+00 0. -1.
         11    1    4    4    0    0  0.23032264274E+01  0.99257163945E+01  0.71446180630E+01  0.12444688242E+02  0.51100000000E-03 0. -1.
        -11    1    4    4    0    0  0.83053415712E+01 -0.81169810955E+01 -0.12206882886E+02  0.16848503517E+02  0.51100000000E-03 0.  1.
         12    1    4    4    0    0  0.22397707566E+02 -0.91632467376E+00 -0.11234023093E+02  0.25073895389E+02  0.00000000000E+00 0. -1.
</event>
<event>
 8    1  0.1269154E-006  0.9118800E+02  0.7816164E-02  0.1184000E+00
        -11   -1    0    0    0    0  0.00000000000E+00  0.00000000000E+00  0.45593999997E+02  0.45594000000E+02  0.51100000000E-03 0. -1.
         11   -1    0    0    0    0 -0.00000000000E+00 -0.00000000000E+00 -0.45593999997E+02  0.45594000000E+02  0.51100000000E-03 0.  1.
         23    2    1    2    0    0  0.00000000000E+00  0.00000000000E+00  0.71054273576E-14  0.91188000000E+02  0.91188000000E+02 0.  0.
    9900012    2    3    3    0    0 -0.97463463510E+01 -0.26889728667E+01  0.35405622966E+02  0.54367082305E+02  0.39999995731E+02 0.  0.
        -12    1    3    3    0    0  0.97463463510E+01  0.26889728667E+01 -0.35405622966E+02  0.36820917695E+02  0.00000000000E+00 0.  1.
         11    1    4    4    0    0 -0.14794216027E+02 -0.25279985055E+00  0.63262636302E+01  0.16092058520E+02  0.51100000000E-03 0. -1.
        -11    1    4    4    0    0 -0.35628655796E+01 -0.10083484911E+01 -0.31644189760E+01  0.48707623156E+01  0.51100000000E-03 0.  1.
        -12    1    4    4    0    0  0.86107352560E+01 -0.14278245250E+01  0.32243778312E+02  0.33404261470E+02  0.00000000000E+00 0.  1.
</event>
<event>
 8    1  0.1269154E-006  0.9118800E+02  0.7816164E-02  0.1184000E+00
        -11   -1    0    0    0    0  0.00000000000E+00  0.00000000000E+00  0.45593999997E+02  0.45594000000E+02  0.51100000000E-03 0. -1.
         11   -1    0    0    0    0 -0.00000000000E+00 -0.00000000000E+00 -0.45593999997E+02  0.45594000000E+02  0.51100000000E-03 0.  1.
         23    2    1    2    0    0 -0.35527136788E-14  0.35527136788E-14  0.00000000000E+00  0.91188000000E+02  0.91188000000E+02 0.  0.
    9900012    2    3    3    0    0  0.30419080806E+02 -0.98245693035E+01 -0.18273942320E+02  0.54367087369E+02  0.40000007274E+02 0.  0.
         12    1    3    3    0    0 -0.30419080806E+02  0.98245693035E+01  0.18273942320E+02  0.36820912631E+02  0.00000000000E+00 0. -1.
         11    1    4    4    0    0  0.75458356038E+01 -0.99936497070E+01  0.67605862251E+01  0.14230888792E+02  0.51100000000E-03 0. -1.
        -11    1    4    4    0    0 -0.58852280307E+00 -0.56706933485E+01 -0.55234559099E+00  0.57278449748E+01  0.51100000000E-03 0.  1.
        -12    1    4    4    0    0  0.23461768005E+02  0.58397737520E+01 -0.24482182954E+02  0.34408353602E+02  0.00000000000E+00 0.  1.
</event>
<event>
 8    1  0.1269154E-006  0.9118800E+02  0.7816164E-02  0.1184000E+00
        -11   -1    0    0    0    0  0.00000000000E+00  0.00000000000E+00  0.45593999997E+02  0.45594000000E+02  0.51100000000E-03 0. -1.
         11   -1    0    0    0    0 -0.00000000000E+00 -0.00000000000E+00 -0.45593999997E+02  0.45594000000E+02  0.51100000000E-03 0.  1.
         23    2    1    2    0    0 -0.35527136788E-14  0.00000000000E+00  0.17763568394E-14  0.91188000000E+02  0.91188000000E+02 0.  0.
    9900012    2    3    3    0    0 -0.25177818280E+02  0.23277308811E+02  0.13417337254E+02  0.54367074186E+02  0.39999977221E+02 0.  0.
        -12    1    3    3    0    0  0.25177818280E+02 -0.23277308811E+02 -0.13417337254E+02  0.36820925814E+02  0.00000000000E+00 0.  1.
         11    1    4    4    0    0 -0.17367251959E+01  0.21325889737E+02  0.14113248389E+02  0.25631885764E+02  0.51100000000E-03 0. -1.
        -11    1    4    4    0    0  0.24190437284E+01  0.87761991624E+00  0.10825085316E+01  0.27917403639E+01  0.51100000000E-03 0.  1.
        -12    1    4    4    0    0 -0.25860136813E+02  0.10737991578E+01 -0.17784196658E+01  0.25943448058E+02  0.00000000000E+00 0.  1.
</event>
<event>
 8    1  0.1269154E-006  0.9118800E+02  0.7816164E-02  0.1184000E+00
        -11   -1    0    0    0    0  0.00000000000E+00  0.00000000000E+00  0.45593999997E+02  0.45594000000E+02  0.51100000000E-03 0.  1.
         11   -1    0    0    0    0 -0.00000000000E+00 -0.00000000000E+00 -0.45593999997E+02  0.45594000000E+02  0.51100000000E-03 0. -1.
         23    2    1    2    0    0  0.00000000000E+00 -0.88817841970E-15  0.88817841970E-15  0.91188000000E+02  0.91188000000E+02 0.  0.
    9900012    2    3    3    0    0  0.35722726080E+02 -0.74615615725E+01  0.48981077970E+01  0.54367088554E+02  0.40000009977E+02 0.  0.
         12    1    3    3    0    0 -0.35722726080E+02  0.74615615725E+01 -0.48981077970E+01  0.36820911446E+02  0.00000000000E+00 0. -1.
         11    1    4    4    0    0  0.28550700020E+02 -0.35770701533E+01  0.12107998078E+02  0.31217647577E+02  0.51100000000E-03 0. -1.
        -11    1    4    4    0    0  0.41361134648E+01  0.71636767026E+01  0.19284419877E+01  0.84937969869E+01  0.51100000000E-03 0.  1.
         12    1    4    4    0    0  0.30359125956E+01 -0.11048168122E+02 -0.91383322682E+01  0.14655643991E+02  0.00000000000E+00 0. -1.
</event>
<event>
 8    1  0.1269154E-006  0.9118800E+02  0.7816164E-02  0.1184000E+00
        -11   -1    0    0    0    0  0.00000000000E+00  0.00000000000E+00  0.45593999997E+02  0.45594000000E+02  0.51100000000E-03 0. -1.
         11   -1    0    0    0    0 -0.00000000000E+00 -0.00000000000E+00 -0.45593999997E+02  0.45594000000E+02  0.51100000000E-03 0.  1.
         23    2    1    2    0    0  0.00000000000E+00  0.00000000000E+00  0.88817841970E-15  0.91188000000E+02  0.91188000000E+02 0.  0.
    9900012    2    3    3    0    0 -0.82206617714E+01  0.35717705381E+02  0.35278971370E+01  0.54367084532E+02  0.40000000808E+02 0.  0.
         12    1    3    3    0    0  0.82206617714E+01 -0.35717705381E+02 -0.35278971370E+01  0.36820915468E+02  0.00000000000E+00 0. -1.
         11    1    4    4    0    0  0.67013188002E+00  0.85223040835E+01  0.15175037483E+02  0.17417247386E+02  0.51100000000E-03 0. -1.
        -11    1    4    4    0    0 -0.12116321776E+02  0.27519379245E+02 -0.63381561524E+01  0.30729362361E+02  0.51100000000E-03 0.  1.
        -12    1    4    4    0    0  0.32255281250E+01 -0.32397794717E+00 -0.53089841934E+01  0.62204747858E+01  0.00000000000E+00 0.  1.
</event>
<event>
 8    1  0.1269154E-006  0.9118800E+02  0.7816164E-02  0.1184000E+00
        -11   -1    0    0    0    0  0.00000000000E+00  0.00000000000E+00  0.45593999997E+02  0.45594000000E+02  0.51100000000E-03 0. -1.
         11   -1    0    0    0    0 -0.00000000000E+00 -0.00000000000E+00 -0.45593999997E+02  0.45594000000E+02  0.51100000000E-03 0.  1.
         23    2    1    2    0    0 -0.44408920985E-15  0.35527136788E-14 -0.35527136788E-14  0.91188000000E+02  0.91188000000E+02 0.  0.
    9900012    2    3    3    0    0  0.32648389137E+01 -0.28668408847E+02  0.22874521743E+02  0.54367074103E+02  0.39999977032E+02 0.  0.
         12    1    3    3    0    0 -0.32648389137E+01  0.28668408847E+02 -0.22874521743E+02  0.36820925897E+02  0.00000000000E+00 0. -1.
         11    1    4    4    0    0 -0.10261319706E+01  0.16717912296E+01 -0.20215494895E+01  0.28168236253E+01  0.51100000000E-03 0. -1.
        -11    1    4    4    0    0  0.33411118812E+01 -0.14879433521E+02 -0.64716966800E+01  0.16566334196E+02  0.51100000000E-03 0.  1.
        -12    1    4    4    0    0  0.94985900315E+00 -0.15460766556E+02  0.31367767912E+02  0.34983916282E+02  0.00000000000E+00 0.  1.
</event>
<event>
 8    1  0.1269154E-006  0.9118800E+02  0.7816164E-02  0.1184000E+00
        -11   -1    0    0    0    0  0.00000000000E+00  0.00000000000E+00  0.45593999997E+02  0.45594000000E+02  0.51100000000E-03 0. -1.
         11   -1    0    0    0    0 -0.00000000000E+00 -0.00000000000E+00 -0.45593999997E+02  0.45594000000E+02  0.51100000000E-03 0.  1.
         23    2    1    2    0    0 -0.35527136788E-14 -0.35527136788E-14  0.17763568394E-14  0.91188000000E+02  0.91188000000E+02 0.  0.
    9900012    2    3    3    0    0  0.30272101834E+02  0.19030339440E+02 -0.87878233905E+01  0.54367084631E+02  0.40000001033E+02 0.  0.
        -12    1    3    3    0    0 -0.30272101834E+02 -0.19030339440E+02  0.87878233905E+01  0.36820915369E+02  0.00000000000E+00 0.  1.
         11    1    4    4    0    0 -0.24606114613E+01 -0.16602159782E+01 -0.56221617872E+01  0.63576433747E+01  0.51100000000E-03 0. -1.
        -11    1    4    4    0    0  0.30839139874E+02  0.20020094683E+02 -0.12212117828E+02  0.38742645255E+02  0.51100000000E-03 0.  1.
         12    1    4    4    0    0  0.18935734220E+01  0.67046073545E+00  0.90464562245E+01  0.92667960010E+01  0.00000000000E+00 0. -1.
</event>
<event>
 8    1  0.1269154E-006  0.9118800E+02  0.7816164E-02  0.1184000E+00
        -11   -1    0    0    0    0  0.00000000000E+00  0.00000000000E+00  0.45593999997E+02  0.45594000000E+02  0.51100000000E-03 0. -1.
         11   -1    0    0    0    0 -0.00000000000E+00 -0.00000000000E+00 -0.45593999997E+02  0.45594000000E+02  0.51100000000E-03 0.  1.
         23    2    1    2    0    0  0.00000000000E+00  0.00000000000E+00  0.35527136788E-14  0.91188000000E+02  0.91188000000E+02 0.  0.
    9900012    2    3    3    0    0  0.16178729944E+02  0.19496362357E+02  0.26719299780E+02  0.54367076213E+02  0.39999981843E+02 0.  0.
         12    1    3    3    0    0 -0.16178729944E+02 -0.19496362357E+02 -0.26719299780E+02  0.36820923787E+02  0.00000000000E+00 0. -1.
         11    1    4    4    0    0  0.60627769764E+01 -0.93890716490E+01  0.16929657292E+01  0.11303895980E+02  0.51100000000E-03 0. -1.
        -11    1    4    4    0    0  0.12982531893E+01  0.12622588153E+02  0.20349577281E+02  0.23981669850E+02  0.51100000000E-03 0.  1.
        -12    1    4    4    0    0  0.88176997785E+01  0.16262845853E+02  0.46767567704E+01  0.19081510384E+02  0.00000000000E+00 0.  1.
</event>
<event>
 8    1  0.1269154E-006  0.9118800E+02  0.7816164E-02  0.1184000E+00
        -11   -1    0    0    0    0  0.00000000000E+00  0.00000000000E+00  0.45593999997E+02  0.45594000000E+02  0.51100000000E-03 0.  1.
         11   -1    0    0    0    0 -0.00000000000E+00 -0.00000000000E+00 -0.45593999997E+02  0.45594000000E+02  0.51100000000E-03 0. -1.
         23    2    1    2    0    0  0.35527136788E-14  0.35527136788E-14  0.00000000000E+00  0.91188000000E+02  0.91188000000E+02 0.  0.
    9900012    2    3    3    0    0  0.25262430416E+02  0.18263889672E+02 -0.19596428055E+02  0.54367081366E+02  0.39999993591E+02 0.  0.
        -12    1    3    3    0    0 -0.25262430416E+02 -0.18263889672E+02  0.19596428055E+02  0.36820918634E+02  0.00000000000E+00 0.  1.
         11    1    4    4    0    0  0.13874484337E+02  0.93540022005E+01 -0.24325981010E+00  0.16734928992E+02  0.51100000000E-03 0. -1.
        -11    1    4    4    0    0  0.15833440794E+01  0.59243575875E+01  0.70296484574E+01  0.93285019694E+01  0.51100000000E-03 0.  1.
         12    1    4    4    0    0  0.98046020003E+01  0.29855298843E+01 -0.26382816702E+02  0.28303650405E+02  0.00000000000E+00 0. -1.
</event>
<event>
 8    1  0.1269154E-006  0.9118800E+02  0.7816164E-02  0.1184000E+00
        -11   -1    0    0    0    0  0.00000000000E+00  0.00000000000E+00  0.45593999997E+02  0.45594000000E+02  0.51100000000E-03 0. -1.
         11   -1    0    0    0    0 -0.00000000000E+00 -0.00000000000E+00 -0.45593999997E+02  0.45594000000E+02  0.51100000000E-03 0.  1.
         23    2    1    2    0    0  0.00000000000E+00  0.00000000000E+00 -0.71054273576E-14  0.91188000000E+02  0.91188000000E+02 0.  0.
    9900012    2    3    3    0    0 -0.22811834040E+02  0.56889562277E+01  0.28337890488E+02  0.54367081590E+02  0.39999994100E+02 0.  0.
        -12    1    3    3    0    0  0.22811834040E+02 -0.56889562277E+01 -0.28337890488E+02  0.36820918410E+02  0.00000000000E+00 0.  1.
         11    1    4    4    0    0 -0.11953541697E+02  0.20961422403E+01  0.20148976476E+02  0.23521526836E+02  0.51100000000E-03 0. -1.
        -11    1    4    4    0    0 -0.16389306517E+02 -0.64605492712E+01  0.80536994052E+01  0.19370341746E+02  0.51100000000E-03 0.  1.
         12    1    4    4    0    0  0.55310141728E+01  0.10053363259E+02  0.13521460676E+00  0.11475213008E+02  0.00000000000E+00 0. -1.
</event>
<event>
 8    1  0.1269154E-006  0.9118800E+02  0.7816164E-02  0.1184000E+00
        -11   -1    0    0    0    0  0.00000000000E+00  0.00000000000E+00  0.45593999997E+02  0.45594000000E+02  0.51100000000E-03 0.  1.
         11   -1    0    0    0    0 -0.00000000000E+00 -0.00000000000E+00 -0.45593999997E+02  0.45594000000E+02  0.51100000000E-03 0. -1.
         23    2    1    2    0    0  0.00000000000E+00  0.00000000000E+00  0.00000000000E+00  0.91188000000E+02  0.91188000000E+02 0.  0.
    9900012    2    3    3    0    0  0.22117569499E+02  0.24187330703E+02  0.16779856936E+02  0.54367116715E+02  0.40000074176E+02 0.  0.
         12    1    3    3    0    0 -0.22117569499E+02 -0.24187330703E+02 -0.16779856936E+02  0.36820883285E+02  0.00000000000E+00 0. -1.
         11    1    4    4    0    0  0.14753767577E+02  0.48826113642E+01 -0.34070428291E+01  0.15909792348E+02  0.51100000000E-03 0. -1.
        -11    1    4    4    0    0 -0.27466489412E+01  0.17596049658E+02  0.21721898162E+02  0.28089248904E+02  0.51100000000E-03 0.  1.
        -12    1    4    4    0    0  0.10110450863E+02  0.17086696807E+01 -0.15349983976E+01  0.10368075463E+02  0.00000000000E+00 0.  1.
</event>
<event>
 8    1  0.1269154E-006  0.9118800E+02  0.7816164E-02  0.1184000E+00
        -11   -1    0    0    0    0  0.00000000000E+00  0.00000000000E+00  0.45593999997E+02  0.45594000000E+02  0.51100000000E-03 0. -1.
         11   -1    0    0    0    0 -0.00000000000E+00 -0.00000000000E+00 -0.45593999997E+02  0.45594000000E+02  0.51100000000E-03 0.  1.
         23    2    1    2    0    0  0.35527136788E-14  0.71054273576E-14 -0.35527136788E-14  0.91188000000E+02  0.91188000000E+02 0.  0.
    9900012    2    3    3    0    0  0.64320572142E+01  0.30638573675E+02 -0.19382619592E+02  0.54367088834E+02  0.40000010615E+02 0.  0.
         12    1    3    3    0    0 -0.64320572142E+01 -0.30638573675E+02  0.19382619592E+02  0.36820911166E+02  0.00000000000E+00 0. -1.
         11    1    4    4    0    0  0.18114580465E+02  0.15029393273E+02 -0.77673440730E+01  0.24786131642E+02  0.51100000000E-03 0. -1.
        -11    1    4    4    0    0 -0.94802658383E+01  0.66505092146E+01 -0.15685841346E+02  0.19497444247E+02  0.51100000000E-03 0.  1.
        -12    1    4    4    0    0 -0.22022574124E+01  0.89586711873E+01  0.40705658271E+01  0.10083512945E+02  0.00000000000E+00 0.  1.
</event>
<event>
 8    1  0.1269154E-006  0.9118800E+02  0.7816164E-02  0.1184000E+00
        -11   -1    0    0    0    0  0.00000000000E+00  0.00000000000E+00  0.45593999997E+02  0.45594000000E+02  0.51100000000E-03 0.  1.
         11   -1    0    0    0    0 -0.00000000000E+00 -0.00000000000E+00 -0.45593999997E+02  0.45594000000E+02  0.51100000000E-03 0. -1.
         23    2    1    2    0    0  0.00000000000E+00 -0.35527136788E-14  0.00000000000E+00  0.91188000000E+02  0.91188000000E+02 0.  0.
    9900012    2    3    3    0    0  0.13750359123E+02  0.28483912944E+02  0.18851395589E+02  0.54367071328E+02  0.39999970707E+02 0.  0.
         12    1    3    3    0    0 -0.13750359123E+02 -0.28483912944E+02 -0.18851395589E+02  0.36820928672E+02  0.00000000000E+00 0. -1.
         11    1    4    4    0    0 -0.52987034701E+01  0.77378102674E+01 -0.11225064478E+01  0.94451038736E+01  0.51100000000E-03 0. -1.
        -11    1    4    4    0    0  0.10242058086E+02 -0.53338284422E+01  0.12160404535E+01  0.11611556069E+02  0.51100000000E-03 0.  1.
        -12    1    4    4    0    0  0.88070045075E+01  0.26079931118E+02  0.18757861583E+02  0.33310411386E+02  0.00000000000E+00 0.  1.
</event>
<event>
 8    1  0.1269154E-006  0.9118800E+02  0.7816164E-02  0.1184000E+00
        -11   -1    0    0    0    0  0.00000000000E+00  0.00000000000E+00  0.45593999997E+02  0.45594000000E+02  0.51100000000E-03 0. -1.
         11   -1    0    0    0    0 -0.00000000000E+00 -0.00000000000E+00 -0.45593999997E+02  0.45594000000E+02  0.51100000000E-03 0.  1.
         23    2    1    2    0    0  0.00000000000E+00  0.00000000000E+00 -0.35527136788E-14  0.91188000000E+02  0.91188000000E+02 0.  0.
    9900012    2    3    3    0    0  0.21762908713E+02 -0.22794441490E+02  0.19041210651E+02  0.54367102924E+02  0.40000042735E+02 0.  0.
         12    1    3    3    0    0 -0.21762908713E+02  0.22794441490E+02 -0.19041210651E+02  0.36820897076E+02  0.00000000000E+00 0. -1.
         11    1    4    4    0    0  0.44678149194E+01  0.10221989339E+02  0.52332152833E+00  0.11168003487E+02  0.51100000000E-03 0. -1.
        -11    1    4    4    0    0  0.96945322411E+01 -0.10737834464E+02  0.23852855675E+01  0.14662013227E+02  0.51100000000E-03 0.  1.
         12    1    4    4    0    0  0.76005615521E+01 -0.22278596365E+02  0.16132603555E+02  0.28537086210E+02  0.00000000000E+00 0. -1.
</event>
<event>
 8    1  0.1269154E-006  0.9118800E+02  0.7816164E-02  0.1184000E+00
        -11   -1    0    0    0    0  0.00000000000E+00  0.00000000000E+00  0.45593999997E+02  0.45594000000E+02  0.51100000000E-03 0.  1.
         11   -1    0    0    0    0 -0.00000000000E+00 -0.00000000000E+00 -0.45593999997E+02  0.45594000000E+02  0.51100000000E-03 0. -1.
         23    2    1    2    0    0  0.00000000000E+00  0.00000000000E+00 -0.44408920985E-15  0.91188000000E+02  0.91188000000E+02 0.  0.
    9900012    2    3    3    0    0 -0.35309288853E+02  0.10067445874E+02  0.27712058006E+01  0.54367096598E+02  0.40000028315E+02 0.  0.
         12    1    3    3    0    0  0.35309288853E+02 -0.10067445874E+02 -0.27712058006E+01  0.36820903402E+02  0.00000000000E+00 0. -1.
         11    1    4    4    0    0 -0.14248157853E+01  0.94083763060E+01 -0.17599220757E+01  0.96770331564E+01  0.51100000000E-03 0. -1.
        -11    1    4    4    0    0 -0.22111540212E+01  0.10848603951E+02 -0.26106688093E+00  0.11074726451E+02  0.51100000000E-03 0.  1.
        -12    1    4    4    0    0 -0.31673319047E+02 -0.10189534383E+02  0.47921947572E+01  0.33615336990E+02  0.00000000000E+00 0.  1.
</event>
<event>
 8    1  0.1269154E-006  0.9118800E+02  0.7816164E-02  0.1184000E+00
        -11   -1    0    0    0    0  0.00000000000E+00  0.00000000000E+00  0.45593999997E+02  0.45594000000E+02  0.51100000000E-03 0.  1.
         11   -1    0    0    0    0 -0.00000000000E+00 -0.00000000000E+00 -0.45593999997E+02  0.45594000000E+02  0.51100000000E-03 0. -1.
         23    2    1    2    0    0 -0.17763568394E-14  0.71054273576E-14  0.35527136788E-14  0.91188000000E+02  0.91188000000E+02 0.  0.
    9900012    2    3    3    0    0  0.30937910118E+01  0.32046985349E+02  0.17866130013E+02  0.54367089984E+02  0.40000013236E+02 0.  0.
         12    1    3    3    0    0 -0.30937910118E+01 -0.32046985349E+02 -0.17866130013E+02  0.36820910016E+02  0.00000000000E+00 0. -1.
         11    1    4    4    0    0 -0.71569766225E+01 -0.55066292089E+01  0.58312757551E+01  0.10749374717E+02  0.51100000000E-03 0. -1.
        -11    1    4    4    0    0  0.98468877434E+00  0.53972583809E+01  0.82941826879E+01  0.99445199348E+01  0.51100000000E-03 0.  1.
         12    1    4    4    0    0  0.92660788599E+01  0.32156356177E+02  0.37406715696E+01  0.33673195332E+02  0.00000000000E+00 0. -1.
</event>
<event>
 8    1  0.1269154E-006  0.9118800E+02  0.7816164E-02  0.1184000E+00
        -11   -1    0    0    0    0  0.00000000000E+00  0.00000000000E+00  0.45593999997E+02  0.45594000000E+02  0.51100000000E-03 0. -1.
         11   -1    0    0    0    0 -0.00000000000E+00 -0.00000000000E+00 -0.45593999997E+02  0.45594000000E+02  0.51100000000E-03 0.  1.
         23    2    1    2    0    0  0.00000000000E+00  0.22204460493E-15 -0.71054273576E-14  0.91188000000E+02  0.91188000000E+02 0.  0.
    9900012    2    3    3    0    0  0.96945597058E+01  0.17654457415E+01 -0.35477865265E+02  0.54367079177E+02  0.39999988599E+02 0.  0.
         12    1    3    3    0    0 -0.96945597058E+01 -0.17654457415E+01  0.35477865265E+02  0.36820920823E+02  0.00000000000E+00 0. -1.
         11    1    4    4    0    0  0.11012942611E+02  0.20678853668E+01 -0.31486217322E+02  0.33420696228E+02  0.51100000000E-03 0. -1.
        -11    1    4    4    0    0  0.90869945387E+01 -0.32644341997E+01 -0.28509447741E+01  0.10067665407E+02  0.51100000000E-03 0.  1.
         12    1    4    4    0    0 -0.10405377444E+02  0.29619945743E+01 -0.11407031682E+01  0.10878717541E+02  0.00000000000E+00 0. -1.
</event>
<event>
 8    1  0.1269154E-006  0.9118800E+02  0.7816164E-02  0.1184000E+00
        -11   -1    0    0    0    0  0.00000000000E+00  0.00000000000E+00  0.45593999997E+02  0.45594000000E+02  0.51100000000E-03 0.  1.
         11   -1    0    0    0    0 -0.00000000000E+00 -0.00000000000E+00 -0.45593999997E+02  0.45594000000E+02  0.51100000000E-03 0. -1.
         23    2    1    2    0    0 -0.55511151231E-16 -0.17763568394E-14  0.00000000000E+00  0.91188000000E+02  0.91188000000E+02 0.  0.
    9900012    2    3    3    0    0  0.27300720137E+00  0.11702363298E+02 -0.34910749030E+02  0.54367078807E+02  0.39999987756E+02 0.  0.
        -12    1    3    3    0    0 -0.27300720137E+00 -0.11702363298E+02  0.34910749030E+02  0.36820921193E+02  0.00000000000E+00 0.  1.
         11    1    4    4    0    0  0.16301819156E+02 -0.57369850156E+01 -0.17100835053E+02  0.24312565982E+02  0.51100000000E-03 0. -1.
        -11    1    4    4    0    0 -0.91105888016E+01  0.13370104113E+02 -0.11653175109E+02  0.19938881681E+02  0.51100000000E-03 0.  1.
         12    1    4    4    0    0 -0.69182231528E+01  0.40692441999E+01 -0.61567388671E+01  0.10115631143E+02  0.00000000000E+00 0. -1.
</event>
<event>
 8    1  0.1269154E-006  0.9118800E+02  0.7816164E-02  0.1184000E+00
        -11   -1    0    0    0    0  0.00000000000E+00  0.00000000000E+00  0.45593999997E+02  0.45594000000E+02  0.51100000000E-03 0. -1.
         11   -1    0    0    0    0 -0.00000000000E+00 -0.00000000000E+00 -0.45593999997E+02  0.45594000000E+02  0.51100000000E-03 0.  1.
         23    2    1    2    0    0 -0.35527136788E-14  0.00000000000E+00  0.00000000000E+00  0.91188000000E+02  0.91188000000E+02 0.  0.
    9900012    2    3    3    0    0 -0.23650653640E+02  0.13343722558E+02  0.24867065303E+02  0.54367091726E+02  0.40000017209E+02 0.  0.
        -12    1    3    3    0    0  0.23650653640E+02 -0.13343722558E+02 -0.24867065303E+02  0.36820908274E+02  0.00000000000E+00 0.  1.
         11    1    4    4    0    0 -0.15329565154E+02  0.93563973066E+01  0.10592879569E+02  0.20850583594E+02  0.51100000000E-03 0. -1.
        -11    1    4    4    0    0 -0.16355440337E+01  0.16035960988E+02  0.48872687723E+01  0.16843765773E+02  0.51100000000E-03 0.  1.
         12    1    4    4    0    0 -0.66855444522E+01 -0.12048635737E+02  0.93869169615E+01  0.16672742360E+02  0.00000000000E+00 0. -1.
</event>
<event>
 8    1  0.1269154E-006  0.9118800E+02  0.7816164E-02  0.1184000E+00
        -11   -1    0    0    0    0  0.00000000000E+00  0.00000000000E+00  0.45593999997E+02  0.45594000000E+02  0.51100000000E-03 0. -1.
         11   -1    0    0    0    0 -0.00000000000E+00 -0.00000000000E+00 -0.45593999997E+02  0.45594000000E+02  0.51100000000E-03 0.  1.
         23    2    1    2    0    0 -0.71054273576E-14  0.00000000000E+00  0.00000000000E+00  0.91188000000E+02  0.91188000000E+02 0.  0.
    9900012    2    3    3    0    0  0.35240809848E+02 -0.34851504982E+01 -0.10085342863E+02  0.54367148660E+02  0.40000147000E+02 0.  0.
         12    1    3    3    0    0 -0.35240809848E+02  0.34851504982E+01  0.10085342863E+02  0.36820851340E+02  0.00000000000E+00 0. -1.
         11    1    4    4    0    0  0.25289134621E+02  0.86946365034E+01 -0.56627214320E+01  0.27335022372E+02  0.51100000000E-03 0. -1.
        -11    1    4    4    0    0  0.12285734140E+02 -0.26285185662E+01  0.48973878310E+01  0.13484538592E+02  0.51100000000E-03 0.  1.
        -12    1    4    4    0    0 -0.23340589130E+01 -0.95512684355E+01 -0.93200092622E+01  0.13547587696E+02  0.00000000000E+00 0.  1.
</event>
<event>
 8    1  0.1269154E-006  0.9118800E+02  0.7816164E-02  0.1184000E+00
        -11   -1    0    0    0    0  0.00000000000E+00  0.00000000000E+00  0.45593999997E+02  0.45594000000E+02  0.51100000000E-03 0. -1.
         11   -1    0    0    0    0 -0.00000000000E+00 -0.00000000000E+00 -0.45593999997E+02  0.45594000000E+02  0.51100000000E-03 0.  1.
         23    2    1    2    0    0 -0.35527136788E-14  0.00000000000E+00  0.35527136788E-14  0.91188000000E+02  0.91188000000E+02 0.  0.
    9900012    2    3    3    0    0 -0.21193135096E+02 -0.77689947911E+01  0.29090837212E+02  0.54367040412E+02  0.39999900228E+02 0.  0.
        -12    1    3    3    0    0  0.21193135096E+02  0.77689947911E+01 -0.29090837212E+02  0.36820959588E+02  0.00000000000E+00 0.  1.
         11    1    4    4    0    0  0.70743381789E+01 -0.60956750112E+01  0.88198179573E+01  0.12844948562E+02  0.51100000000E-03 0. -1.
        -11    1    4    4    0    0 -0.22186649967E+01 -0.86959953431E+01  0.28869390914E+01  0.94274719280E+01  0.51100000000E-03 0.  1.
         12    1    4    4    0    0 -0.26048808278E+02  0.70226755633E+01  0.17384080163E+02  0.32094619922E+02  0.00000000000E+00 0. -1.
</event>
<event>
 8    1  0.1269154E-006  0.9118800E+02  0.7816164E-02  0.1184000E+00
        -11   -1    0    0    0    0  0.00000000000E+00  0.00000000000E+00  0.45593999997E+02  0.45594000000E+02  0.51100000000E-03 0.  1.
         11   -1    0    0    0    0 -0.00000000000E+00 -0.00000000000E+00 -0.45593999997E+02  0.45594000000E+02  0.51100000000E-03 0. -1.
         23    2    1    2    0    0  0.00000000000E+00  0.17763568394E-14  0.00000000000E+00  0.91188000000E+02  0.91188000000E+02 0.  0.
    9900012    2    3    3    0    0  0.10447341286E+02 -0.12355238713E+02  0.33075387622E+02  0.54367080267E+02  0.39999991085E+02 0.  0.
         12    1    3    3    0    0 -0.10447341286E+02  0.12355238713E+02 -0.33075387622E+02  0.36820919733E+02  0.00000000000E+00 0. -1.
         11    1    4    4    0    0 -0.41741304390E+01 -0.55127438858E+01  0.18346704404E+02  0.19606510981E+02  0.51100000000E-03 0. -1.
        -11    1    4    4    0    0  0.20383405986E+02 -0.86337741308E+01  0.40628876767E+01  0.22506273611E+02  0.51100000000E-03 0.  1.
        -12    1    4    4    0    0 -0.57619342611E+01  0.17912793035E+01  0.10665795541E+02  0.12254295675E+02  0.00000000000E+00 0.  1.
</event>
<event>
 8    1  0.1269154E-006  0.9118800E+02  0.7816164E-02  0.1184000E+00
        -11   -1    0    0    0    0  0.00000000000E+00  0.00000000000E+00  0.45593999997E+02  0.45594000000E+02  0.51100000000E-03 0.  1.
         11   -1    0    0    0    0 -0.00000000000E+00 -0.00000000000E+00 -0.45593999997E+02  0.45594000000E+02  0.51100000000E-03 0. -1.
         23    2    1    2    0    0  0.35527136788E-14  0.00000000000E+00  0.17763568394E-14  0.91188000000E+02  0.91188000000E+02 0.  0.
    9900012    2    3    3    0    0 -0.10749907431E+02 -0.33721871153E+02  0.10151550719E+02  0.54367094446E+02  0.40000023408E+02 0.  0.
        -12    1    3    3    0    0  0.10749907431E+02  0.33721871153E+02 -0.10151550719E+02  0.36820905554E+02  0.00000000000E+00 0.  1.
         11    1    4    4    0    0 -0.79789760949E+00 -0.91798325446E+01 -0.86135254471E+01  0.12613436765E+02  0.51100000000E-03 0. -1.
        -11    1    4    4    0    0  0.47479194256E+01  0.33030176939E+01  0.35125394178E+01  0.67668750677E+01  0.51100000000E-03 0.  1.
        -12    1    4    4    0    0 -0.14699929248E+02 -0.27845056302E+02  0.15252536748E+02  0.34986782613E+02  0.00000000000E+00 0.  1.
</event>
<event>
 8    1  0.1269154E-006  0.9118800E+02  0.7816164E-02  0.1184000E+00
        -11   -1    0    0    0    0  0.00000000000E+00  0.00000000000E+00  0.45593999997E+02  0.45594000000E+02  0.51100000000E-03 0.  1.
         11   -1    0    0    0    0 -0.00000000000E+00 -0.00000000000E+00 -0.45593999997E+02  0.45594000000E+02  0.51100000000E-03 0. -1.
         23    2    1    2    0    0  0.00000000000E+00  0.00000000000E+00 -0.28865798640E-14  0.91188000000E+02  0.91188000000E+02 0.  0.
    9900012    2    3    3    0    0  0.15833708569E+02 -0.33219380221E+02 -0.12432108155E+01  0.54367093949E+02  0.40000022274E+02 0.  0.
         12    1    3    3    0    0 -0.15833708569E+02  0.33219380221E+02  0.12432108155E+01  0.36820906051E+02  0.00000000000E+00 0. -1.
         11    1    4    4    0    0 -0.15616535144E+01 -0.15277960495E+02 -0.16605875841E+02  0.22618796416E+02  0.51100000000E-03 0. -1.
        -11    1    4    4    0    0  0.40550159615E+00 -0.78706338078E+01  0.29164177580E+01  0.84033803247E+01  0.51100000000E-03 0.  1.
         12    1    4    4    0    0  0.16989860488E+02 -0.10070785918E+02  0.12446247268E+02  0.23344917208E+02  0.00000000000E+00 0. -1.
</event>
<event>
 8    1  0.1269154E-006  0.9118800E+02  0.7816164E-02  0.1184000E+00
        -11   -1    0    0    0    0  0.00000000000E+00  0.00000000000E+00  0.45593999997E+02  0.45594000000E+02  0.51100000000E-03 0. -1.
         11   -1    0    0    0    0 -0.00000000000E+00 -0.00000000000E+00 -0.45593999997E+02  0.45594000000E+02  0.51100000000E-03 0.  1.
         23    2    1    2    0    0  0.00000000000E+00  0.44408920985E-15  0.00000000000E+00  0.91188000000E+02  0.91188000000E+02 0.  0.
    9900012    2    3    3    0    0 -0.33048920234E+02 -0.23308113960E+01 -0.16065991853E+02  0.54367083327E+02  0.39999998061E+02 0.  0.
         12    1    3    3    0    0  0.33048920234E+02  0.23308113960E+01  0.16065991853E+02  0.36820916673E+02  0.00000000000E+00 0. -1.
         11    1    4    4    0    0 -0.11595780804E+02 -0.22689771299E+01  0.38159429059E+01  0.12416594146E+02  0.51100000000E-03 0. -1.
        -11    1    4    4    0    0 -0.28640555907E+02  0.35720005243E+01 -0.16156670166E+02  0.33076859306E+02  0.51100000000E-03 0.  1.
         12    1    4    4    0    0  0.71874164762E+01 -0.36338347904E+01 -0.37252645925E+01  0.88736298757E+01  0.00000000000E+00 0. -1.
</event>
<event>
 8    1  0.1269154E-006  0.9118800E+02  0.7816164E-02  0.1184000E+00
        -11   -1    0    0    0    0  0.00000000000E+00  0.00000000000E+00  0.45593999997E+02  0.45594000000E+02  0.51100000000E-03 0.  1.
         11   -1    0    0    0    0 -0.00000000000E+00 -0.00000000000E+00 -0.45593999997E+02  0.45594000000E+02  0.51100000000E-03 0. -1.
         23    2    1    2    0    0  0.00000000000E+00  0.00000000000E+00  0.00000000000E+00  0.91188000000E+02  0.91188000000E+02 0.  0.
    9900012    2    3    3    0    0 -0.62552793115E+01  0.14265730407E+02 -0.33363741533E+02  0.54367097887E+02  0.40000031254E+02 0.  0.
        -12    1    3    3    0    0  0.62552793115E+01 -0.14265730407E+02  0.33363741533E+02  0.36820902113E+02  0.00000000000E+00 0.  1.
         11    1    4    4    0    0 -0.89691614188E-01 -0.24352499362E+01 -0.16990434116E+02  0.17164304197E+02  0.51100000000E-03 0. -1.
        -11    1    4    4    0    0  0.63318001699E+01  0.98653623279E+01 -0.19375042733E+02  0.22645294178E+02  0.51100000000E-03 0.  1.
        -12    1    4    4    0    0 -0.12497387867E+02  0.68356180151E+01  0.30017353162E+01  0.14557499513E+02  0.00000000000E+00 0.  1.
</event>
<event>
 8    1  0.1269154E-006  0.9118800E+02  0.7816164E-02  0.1184000E+00
        -11   -1    0    0    0    0  0.00000000000E+00  0.00000000000E+00  0.45593999997E+02  0.45594000000E+02  0.51100000000E-03 0. -1.
         11   -1    0    0    0    0 -0.00000000000E+00 -0.00000000000E+00 -0.45593999997E+02  0.45594000000E+02  0.51100000000E-03 0.  1.
         23    2    1    2    0    0 -0.44408920985E-15  0.00000000000E+00  0.00000000000E+00  0.91188000000E+02  0.91188000000E+02 0.  0.
    9900012    2    3    3    0    0 -0.16869469537E+01  0.28639318599E+02 -0.23080804844E+02  0.54367083226E+02  0.39999997829E+02 0.  0.
         12    1    3    3    0    0  0.16869469537E+01 -0.28639318599E+02  0.23080804844E+02  0.36820916774E+02  0.00000000000E+00 0. -1.
         11    1    4    4    0    0 -0.96635938173E+01  0.14836550226E+02  0.77921393784E+01  0.19344914175E+02  0.51100000000E-03 0. -1.
        -11    1    4    4    0    0  0.10434256357E+00  0.34917930621E+01 -0.79357171815E+01  0.86705889999E+01  0.51100000000E-03 0.  1.
         12    1    4    4    0    0  0.78723042999E+01  0.10310975311E+02 -0.22937227041E+02  0.26351580051E+02  0.00000000000E+00 0. -1.
</event>
<event>
 8    1  0.1269154E-006  0.9118800E+02  0.7816164E-02  0.1184000E+00
        -11   -1    0    0    0    0  0.00000000000E+00  0.00000000000E+00  0.45593999997E+02  0.45594000000E+02  0.51100000000E-03 0. -1.
         11   -1    0    0    0    0 -0.00000000000E+00 -0.00000000000E+00 -0.45593999997E+02  0.45594000000E+02  0.51100000000E-03 0.  1.
         23    2    1    2    0    0  0.00000000000E+00  0.00000000000E+00  0.88817841970E-15  0.91188000000E+02  0.91188000000E+02 0.  0.
    9900012    2    3    3    0    0 -0.36427940863E+02  0.46332855780E+01  0.27049859565E+01  0.54367093441E+02  0.40000021118E+02 0.  0.
         12    1    3    3    0    0  0.36427940863E+02 -0.46332855780E+01 -0.27049859565E+01  0.36820906559E+02  0.00000000000E+00 0. -1.
         11    1    4    4    0    0 -0.61808687160E+01  0.12295006053E+02  0.13937959672E+02  0.19586654437E+02  0.51100000000E-03 0. -1.
        -11    1    4    4    0    0 -0.13550543068E+02 -0.34098833277E+01 -0.10601336089E+02  0.17539465467E+02  0.51100000000E-03 0.  1.
         12    1    4    4    0    0 -0.16696529079E+02 -0.42518371475E+01 -0.63163762663E+00  0.17240973537E+02  0.00000000000E+00 0. -1.
</event>
<event>
 8    1  0.1269154E-006  0.9118800E+02  0.7816164E-02  0.1184000E+00
        -11   -1    0    0    0    0  0.00000000000E+00  0.00000000000E+00  0.45593999997E+02  0.45594000000E+02  0.51100000000E-03 0.  1.
         11   -1    0    0    0    0 -0.00000000000E+00 -0.00000000000E+00 -0.45593999997E+02  0.45594000000E+02  0.51100000000E-03 0. -1.
         23    2    1    2    0    0 -0.88817841970E-15 -0.35527136788E-14 -0.35527136788E-14  0.91188000000E+02  0.91188000000E+02 0.  0.
    9900012    2    3    3    0    0  0.41541756598E+01 -0.24315706385E+02 -0.27336226103E+02  0.54367081897E+02  0.39999994800E+02 0.  0.
        -12    1    3    3    0    0 -0.41541756598E+01  0.24315706385E+02  0.27336226103E+02  0.36820918103E+02  0.00000000000E+00 0.  1.
         11    1    4    4    0    0  0.73507658917E+01  0.73889758896E+01 -0.66145180221E+01  0.12344333632E+02  0.51100000000E-03 0.  1.
        -11    1    4    4    0    0 -0.10068110027E+02 -0.13592499732E+02 -0.12219721240E+02  0.20867306389E+02  0.51100000000E-03 0. -1.
        -12    1    4    4    0    0  0.68715197946E+01 -0.18112182542E+02 -0.85019868408E+01  0.21155441876E+02  0.00000000000E+00 0.  1.
</event>
<event>
 8    1  0.1269154E-006  0.9118800E+02  0.7816164E-02  0.1184000E+00
        -11   -1    0    0    0    0  0.00000000000E+00  0.00000000000E+00  0.45593999997E+02  0.45594000000E+02  0.51100000000E-03 0. -1.
         11   -1    0    0    0    0 -0.00000000000E+00 -0.00000000000E+00 -0.45593999997E+02  0.45594000000E+02  0.51100000000E-03 0.  1.
         23    2    1    2    0    0  0.00000000000E+00 -0.35527136788E-14 -0.35527136788E-14  0.91188000000E+02  0.91188000000E+02 0.  0.
    9900012    2    3    3    0    0 -0.11470880793E+02  0.26453394689E+02  0.22900138671E+02  0.54367088171E+02  0.40000009104E+02 0.  0.
        -12    1    3    3    0    0  0.11470880793E+02 -0.26453394689E+02 -0.22900138671E+02  0.36820911829E+02  0.00000000000E+00 0.  1.
         11    1    4    4    0    0  0.37211158832E+01  0.32587901221E+01 -0.16670126219E+01  0.52197076373E+01  0.51100000000E-03 0. -1.
        -11    1    4    4    0    0 -0.18588543707E+02  0.28748162238E+02  0.14543905385E+02  0.37195644548E+02  0.51100000000E-03 0.  1.
        -12    1    4    4    0    0  0.33965470311E+01 -0.55535576712E+01  0.10023245908E+02  0.11951735986E+02  0.00000000000E+00 0.  1.
</event>
<event>
 8    1  0.1269154E-006  0.9118800E+02  0.7816164E-02  0.1184000E+00
        -11   -1    0    0    0    0  0.00000000000E+00  0.00000000000E+00  0.45593999997E+02  0.45594000000E+02  0.51100000000E-03 0. -1.
         11   -1    0    0    0    0 -0.00000000000E+00 -0.00000000000E+00 -0.45593999997E+02  0.45594000000E+02  0.51100000000E-03 0.  1.
         23    2    1    2    0    0  0.00000000000E+00 -0.17763568394E-14  0.00000000000E+00  0.91188000000E+02  0.91188000000E+02 0.  0.
    9900012    2    3    3    0    0 -0.89670689698E+01  0.81799137459E+01  0.34762912755E+02  0.54367089935E+02  0.40000013125E+02 0.  0.
        -12    1    3    3    0    0  0.89670689698E+01 -0.81799137459E+01 -0.34762912755E+02  0.36820910065E+02  0.00000000000E+00 0.  1.
         11    1    4    4    0    0 -0.18178565729E+01  0.51215733913E+01  0.46302901342E+01  0.71396571003E+01  0.51100000000E-03 0. -1.
        -11    1    4    4    0    0  0.78080021977E+01  0.15182019310E+02  0.13060995363E+02  0.21495306669E+02  0.51100000000E-03 0.  1.
        -12    1    4    4    0    0 -0.14957214595E+02 -0.12123678955E+02  0.17071627257E+02  0.25732126166E+02  0.00000000000E+00 0.  1.
</event>
<event>
 8    1  0.1269154E-006  0.9118800E+02  0.7816164E-02  0.1184000E+00
        -11   -1    0    0    0    0  0.00000000000E+00  0.00000000000E+00  0.45593999997E+02  0.45594000000E+02  0.51100000000E-03 0.  1.
         11   -1    0    0    0    0 -0.00000000000E+00 -0.00000000000E+00 -0.45593999997E+02  0.45594000000E+02  0.51100000000E-03 0. -1.
         23    2    1    2    0    0 -0.71054273576E-14  0.17763568394E-14  0.00000000000E+00  0.91188000000E+02  0.91188000000E+02 0.  0.
    9900012    2    3    3    0    0 -0.35683288422E+02 -0.83044834141E+01 -0.36770382533E+01  0.54367053139E+02  0.39999929241E+02 0.  0.
         12    1    3    3    0    0  0.35683288422E+02  0.83044834141E+01  0.36770382533E+01  0.36820946861E+02  0.00000000000E+00 0. -1.
         11    1    4    4    0    0  0.21357111545E+01  0.93614933954E+00  0.18773057480E+01  0.29936457463E+01  0.51100000000E-03 0. -1.
        -11    1    4    4    0    0 -0.94458408956E+01  0.87184950931E+01  0.80234319942E+01  0.15152937938E+02  0.51100000000E-03 0.  1.
        -12    1    4    4    0    0 -0.28373158681E+02 -0.17959127847E+02 -0.13577775996E+02  0.36220469455E+02  0.00000000000E+00 0.  1.
</event>
<event>
 8    1  0.1269154E-006  0.9118800E+02  0.7816164E-02  0.1184000E+00
        -11   -1    0    0    0    0  0.00000000000E+00  0.00000000000E+00  0.45593999997E+02  0.45594000000E+02  0.51100000000E-03 0. -1.
         11   -1    0    0    0    0 -0.00000000000E+00 -0.00000000000E+00 -0.45593999997E+02  0.45594000000E+02  0.51100000000E-03 0.  1.
         23    2    1    2    0    0  0.71054273576E-14 -0.35527136788E-14  0.00000000000E+00  0.91188000000E+02  0.91188000000E+02 0.  0.
    9900012    2    3    3    0    0  0.24844883515E+02 -0.17707814806E+02 -0.20614162243E+02  0.54367100675E+02  0.40000037610E+02 0.  0.
         12    1    3    3    0    0 -0.24844883515E+02  0.17707814806E+02  0.20614162243E+02  0.36820899325E+02  0.00000000000E+00 0. -1.
         11    1    4    4    0    0  0.10368002087E+01 -0.37116709578E+01 -0.22846429985E+02  0.23169178218E+02  0.51100000000E-03 0. -1.
        -11    1    4    4    0    0  0.16181810004E+01 -0.53243701657E+01  0.46493122346E+01  0.72514503327E+01  0.51100000000E-03 0.  1.
         12    1    4    4    0    0  0.22189902306E+02 -0.86717736826E+01 -0.24170444929E+01  0.23946472125E+02  0.00000000000E+00 0. -1.
</event>
<event>
 8    1  0.1269154E-006  0.9118800E+02  0.7816164E-02  0.1184000E+00
        -11   -1    0    0    0    0  0.00000000000E+00  0.00000000000E+00  0.45593999997E+02  0.45594000000E+02  0.51100000000E-03 0. -1.
         11   -1    0    0    0    0 -0.00000000000E+00 -0.00000000000E+00 -0.45593999997E+02  0.45594000000E+02  0.51100000000E-03 0.  1.
         23    2    1    2    0    0  0.88817841970E-15  0.00000000000E+00  0.00000000000E+00  0.91188000000E+02  0.91188000000E+02 0.  0.
    9900012    2    3    3    0    0  0.78317424613E+01  0.29525645948E+02 -0.20559174901E+02  0.54367087040E+02  0.40000006525E+02 0.  0.
        -12    1    3    3    0    0 -0.78317424613E+01 -0.29525645948E+02  0.20559174901E+02  0.36820912960E+02  0.00000000000E+00 0.  1.
         11    1    4    4    0    0  0.86115156535E+01  0.36156057320E+01 -0.38566113453E+01  0.10104665160E+02  0.51100000000E-03 0. -1.
        -11    1    4    4    0    0  0.11270847114E+01  0.33131131683E+02 -0.15852237369E+02  0.36745552607E+02  0.51100000000E-03 0.  1.
         12    1    4    4    0    0 -0.19068579036E+01 -0.72210914672E+01 -0.85032618627E+00  0.75168692729E+01  0.00000000000E+00 0. -1.
</event>
<event>
 8    1  0.1269154E-006  0.9118800E+02  0.7816164E-02  0.1184000E+00
        -11   -1    0    0    0    0  0.00000000000E+00  0.00000000000E+00  0.45593999997E+02  0.45594000000E+02  0.51100000000E-03 0.  1.
         11   -1    0    0    0    0 -0.00000000000E+00 -0.00000000000E+00 -0.45593999997E+02  0.45594000000E+02  0.51100000000E-03 0. -1.
         23    2    1    2    0    0  0.17763568394E-14  0.00000000000E+00  0.00000000000E+00  0.91188000000E+02  0.91188000000E+02 0.  0.
    9900012    2    3    3    0    0 -0.50591338020E+01  0.56972492103E+01 -0.36023963429E+02  0.54367089846E+02  0.40000012923E+02 0.  0.
        -12    1    3    3    0    0  0.50591338020E+01 -0.56972492103E+01  0.36023963429E+02  0.36820910154E+02  0.00000000000E+00 0.  1.
         11    1    4    4    0    0  0.16393772908E+00  0.17706016761E+02 -0.99403772249E+01  0.20306181442E+02  0.51100000000E-03 0. -1.
        -11    1    4    4    0    0  0.51900066910E+01 -0.37437509496E+01 -0.22744160266E+01  0.67915248029E+01  0.51100000000E-03 0.  1.
         12    1    4    4    0    0 -0.10413078222E+02 -0.82650166007E+01 -0.23809170178E+02  0.27269383602E+02  0.00000000000E+00 0. -1.
</event>
<event>
 8    1  0.1269154E-006  0.9118800E+02  0.7816164E-02  0.1184000E+00
        -11   -1    0    0    0    0  0.00000000000E+00  0.00000000000E+00  0.45593999997E+02  0.45594000000E+02  0.51100000000E-03 0.  1.
         11   -1    0    0    0    0 -0.00000000000E+00 -0.00000000000E+00 -0.45593999997E+02  0.45594000000E+02  0.51100000000E-03 0. -1.
         23    2    1    2    0    0  0.71054273576E-14  0.17763568394E-14  0.00000000000E+00  0.91188000000E+02  0.91188000000E+02 0.  0.
    9900012    2    3    3    0    0 -0.32916350887E+02 -0.15141154537E+02  0.65604808935E+01  0.54367073532E+02  0.39999975731E+02 0.  0.
         12    1    3    3    0    0  0.32916350887E+02  0.15141154537E+02 -0.65604808935E+01  0.36820926468E+02  0.00000000000E+00 0. -1.
         11    1    4    4    0    0  0.13258223604E+01 -0.35165932737E+01  0.52349368989E+01  0.64442841170E+01  0.51100000000E-03 0. -1.
        -11    1    4    4    0    0 -0.31096596495E+02  0.10161093944E+01 -0.77289769292E+01  0.32058819013E+02  0.51100000000E-03 0.  1.
        -12    1    4    4    0    0 -0.31455767526E+01 -0.12640670657E+02  0.90545209239E+01  0.15863970403E+02  0.00000000000E+00 0.  1.
</event>
<event>
 8    1  0.1269154E-006  0.9118800E+02  0.7816164E-02  0.1184000E+00
        -11   -1    0    0    0    0  0.00000000000E+00  0.00000000000E+00  0.45593999997E+02  0.45594000000E+02  0.51100000000E-03 0. -1.
         11   -1    0    0    0    0 -0.00000000000E+00 -0.00000000000E+00 -0.45593999997E+02  0.45594000000E+02  0.51100000000E-03 0.  1.
         23    2    1    2    0    0  0.00000000000E+00  0.17763568394E-14  0.00000000000E+00  0.91188000000E+02  0.91188000000E+02 0.  0.
    9900012    2    3    3    0    0 -0.22773271990E+02 -0.84894564064E+01  0.27660184046E+02  0.54367101469E+02  0.40000039418E+02 0.  0.
        -12    1    3    3    0    0  0.22773271990E+02  0.84894564064E+01 -0.27660184046E+02  0.36820898531E+02  0.00000000000E+00 0.  1.
         11    1    4    4    0    0 -0.19465621861E+02 -0.18500321081E+02  0.17937494810E+02  0.32294365373E+02  0.51100000000E-03 0. -1.
        -11    1    4    4    0    0  0.32680110405E+01 -0.34545212179E+01  0.31853821227E+01  0.57236590163E+01  0.51100000000E-03 0.  1.
         12    1    4    4    0    0 -0.65756611697E+01  0.13465385893E+02  0.65373071128E+01  0.16349077079E+02  0.00000000000E+00 0. -1.
</event>
<event>
 8    1  0.1269154E-006  0.9118800E+02  0.7816164E-02  0.1184000E+00
        -11   -1    0    0    0    0  0.00000000000E+00  0.00000000000E+00  0.45593999997E+02  0.45594000000E+02  0.51100000000E-03 0. -1.
         11   -1    0    0    0    0 -0.00000000000E+00 -0.00000000000E+00 -0.45593999997E+02  0.45594000000E+02  0.51100000000E-03 0.  1.
         23    2    1    2    0    0 -0.71054273576E-14  0.00000000000E+00  0.17763568394E-14  0.91188000000E+02  0.91188000000E+02 0.  0.
    9900012    2    3    3    0    0 -0.34950292721E+02  0.13927949708E+01  0.11502906151E+02  0.54367086255E+02  0.40000004735E+02 0.  0.
        -12    1    3    3    0    0  0.34950292721E+02 -0.13927949708E+01 -0.11502906151E+02  0.36820913745E+02  0.00000000000E+00 0.  1.
         11    1    4    4    0    0 -0.58568093061E+01  0.61701523295E+01  0.32310011585E+01  0.91001298762E+01  0.51100000000E-03 0. -1.
        -11    1    4    4    0    0  0.75677247003E+01 -0.12807302045E+01  0.12713429589E+01  0.77799126073E+01  0.51100000000E-03 0.  1.
         12    1    4    4    0    0 -0.36661208115E+02 -0.34966271543E+01  0.70005620333E+01  0.37487043771E+02  0.00000000000E+00 0. -1.
</event>
<event>
 8    1  0.1269154E-006  0.9118800E+02  0.7816164E-02  0.1184000E+00
        -11   -1    0    0    0    0  0.00000000000E+00  0.00000000000E+00  0.45593999997E+02  0.45594000000E+02  0.51100000000E-03 0.  1.
         11   -1    0    0    0    0 -0.00000000000E+00 -0.00000000000E+00 -0.45593999997E+02  0.45594000000E+02  0.51100000000E-03 0. -1.
         23    2    1    2    0    0  0.17763568394E-14  0.00000000000E+00  0.35527136788E-14  0.91188000000E+02  0.91188000000E+02 0.  0.
    9900012    2    3    3    0    0  0.15867026601E+02  0.19635631521E+02  0.26804095514E+02  0.54367080746E+02  0.39999992176E+02 0.  0.
         12    1    3    3    0    0 -0.15867026601E+02 -0.19635631521E+02 -0.26804095514E+02  0.36820919254E+02  0.00000000000E+00 0. -1.
         11    1    4    4    0    0 -0.88567166031E+00  0.12823291059E+02 -0.62895453327E+01  0.14310121894E+02  0.51100000000E-03 0. -1.
        -11    1    4    4    0    0  0.17129764128E+01 -0.12587877151E+01  0.15125294950E+02  0.15273944556E+02  0.51100000000E-03 0.  1.
        -12    1    4    4    0    0  0.15039721849E+02  0.80711281776E+01  0.17968345897E+02  0.24783014296E+02  0.00000000000E+00 0.  1.
</event>
<event>
 8    1  0.1269154E-006  0.9118800E+02  0.7816164E-02  0.1184000E+00
        -11   -1    0    0    0    0  0.00000000000E+00  0.00000000000E+00  0.45593999997E+02  0.45594000000E+02  0.51100000000E-03 0.  1.
         11   -1    0    0    0    0 -0.00000000000E+00 -0.00000000000E+00 -0.45593999997E+02  0.45594000000E+02  0.51100000000E-03 0. -1.
         23    2    1    2    0    0  0.35527136788E-14  0.17763568394E-14  0.35527136788E-14  0.91188000000E+02  0.91188000000E+02 0.  0.
    9900012    2    3    3    0    0  0.29649626036E+02  0.95296257939E+01  0.19643470971E+02  0.54367081439E+02  0.39999993758E+02 0.  0.
         12    1    3    3    0    0 -0.29649626036E+02 -0.95296257939E+01 -0.19643470971E+02  0.36820918561E+02  0.00000000000E+00 0. -1.
         11    1    4    4    0    0  0.23827119043E+02 -0.53771407172E+01  0.99974706960E+01  0.26393079865E+02  0.51100000000E-03 0. -1.
        -11    1    4    4    0    0  0.34926445930E+01 -0.13406850894E+01  0.10888614984E+02  0.11513380880E+02  0.51100000000E-03 0.  1.
        -12    1    4    4    0    0  0.23298624001E+01  0.16247451601E+02 -0.12426147095E+01  0.16460620694E+02  0.00000000000E+00 0.  1.
</event>
<event>
 8    1  0.1269154E-006  0.9118800E+02  0.7816164E-02  0.1184000E+00
        -11   -1    0    0    0    0  0.00000000000E+00  0.00000000000E+00  0.45593999997E+02  0.45594000000E+02  0.51100000000E-03 0.  1.
         11   -1    0    0    0    0 -0.00000000000E+00 -0.00000000000E+00 -0.45593999997E+02  0.45594000000E+02  0.51100000000E-03 0. -1.
         23    2    1    2    0    0  0.00000000000E+00  0.00000000000E+00  0.00000000000E+00  0.91188000000E+02  0.91188000000E+02 0.  0.
    9900012    2    3    3    0    0  0.58208163059E+01 -0.36325673976E+02  0.15310946971E+01  0.54367071939E+02  0.39999972100E+02 0.  0.
         12    1    3    3    0    0 -0.58208163059E+01  0.36325673976E+02 -0.15310946971E+01  0.36820928061E+02  0.00000000000E+00 0. -1.
         11    1    4    4    0    0  0.12988805988E+01  0.74763771048E+01  0.94113801834E+00  0.76465055060E+01  0.51100000000E-03 0. -1.
        -11    1    4    4    0    0  0.94597143969E+01 -0.28279052132E+02 -0.32166160967E+01  0.29992292432E+02  0.51100000000E-03 0.  1.
        -12    1    4    4    0    0 -0.49377786898E+01 -0.15522998949E+02  0.38065727754E+01  0.16728274001E+02  0.00000000000E+00 0.  1.
</event>
<event>
 8    1  0.1269154E-006  0.9118800E+02  0.7816164E-02  0.1184000E+00
        -11   -1    0    0    0    0  0.00000000000E+00  0.00000000000E+00  0.45593999997E+02  0.45594000000E+02  0.51100000000E-03 0. -1.
         11   -1    0    0    0    0 -0.00000000000E+00 -0.00000000000E+00 -0.45593999997E+02  0.45594000000E+02  0.51100000000E-03 0.  1.
         23    2    1    2    0    0 -0.71054273576E-14 -0.35527136788E-14  0.00000000000E+00  0.91188000000E+02  0.91188000000E+02 0.  0.
    9900012    2    3    3    0    0 -0.28793338501E+02 -0.22510222002E+02 -0.44736195864E+01  0.54367085986E+02  0.40000004123E+02 0.  0.
         12    1    3    3    0    0  0.28793338501E+02  0.22510222002E+02  0.44736195864E+01  0.36820914014E+02  0.00000000000E+00 0. -1.
         11    1    4    4    0    0  0.17526887385E+01  0.24887631342E+01 -0.10593400913E+01  0.32230515730E+01  0.51100000000E-03 0.  1.
        -11    1    4    4    0    0  0.13746388124E+01 -0.17873636071E+02  0.18315820149E+01  0.18019744482E+02  0.51100000000E-03 0. -1.
         12    1    4    4    0    0 -0.31920666052E+02 -0.71253490653E+01 -0.52458615100E+01  0.33124289932E+02  0.00000000000E+00 0. -1.
</event>
<event>
 8    1  0.1269154E-006  0.9118800E+02  0.7816164E-02  0.1184000E+00
        -11   -1    0    0    0    0  0.00000000000E+00  0.00000000000E+00  0.45593999997E+02  0.45594000000E+02  0.51100000000E-03 0. -1.
         11   -1    0    0    0    0 -0.00000000000E+00 -0.00000000000E+00 -0.45593999997E+02  0.45594000000E+02  0.51100000000E-03 0.  1.
         23    2    1    2    0    0 -0.88817841970E-15  0.00000000000E+00  0.00000000000E+00  0.91188000000E+02  0.91188000000E+02 0.  0.
    9900012    2    3    3    0    0 -0.50643159997E+01  0.35101426569E+01 -0.36301652779E+02  0.54367103860E+02  0.40000044871E+02 0.  0.
         12    1    3    3    0    0  0.50643159997E+01 -0.35101426569E+01  0.36301652779E+02  0.36820896140E+02  0.00000000000E+00 0. -1.
         11    1    4    4    0    0  0.44496128212E+01  0.31884972660E+01 -0.16467568888E+02  0.17353570077E+02  0.51100000000E-03 0. -1.
        -11    1    4    4    0    0 -0.72923380882E+01  0.14393350384E+02 -0.14827191800E+02  0.21913291560E+02  0.51100000000E-03 0.  1.
         12    1    4    4    0    0 -0.22215907327E+01 -0.14071704993E+02 -0.50068920908E+01  0.15100242223E+02  0.00000000000E+00 0. -1.
</event>
<event>
 8    1  0.1269154E-006  0.9118800E+02  0.7816164E-02  0.1184000E+00
        -11   -1    0    0    0    0  0.00000000000E+00  0.00000000000E+00  0.45593999997E+02  0.45594000000E+02  0.51100000000E-03 0.  1.
         11   -1    0    0    0    0 -0.00000000000E+00 -0.00000000000E+00 -0.45593999997E+02  0.45594000000E+02  0.51100000000E-03 0. -1.
         23    2    1    2    0    0  0.00000000000E+00  0.17763568394E-14  0.71054273576E-14  0.91188000000E+02  0.91188000000E+02 0.  0.
    9900012    2    3    3    0    0 -0.25061094904E+02  0.42828551318E+01  0.26634215170E+02  0.54367044776E+02  0.39999910176E+02 0.  0.
         12    1    3    3    0    0  0.25061094904E+02 -0.42828551318E+01 -0.26634215170E+02  0.36820955224E+02  0.00000000000E+00 0. -1.
         11    1    4    4    0    0 -0.28005843259E+02 -0.23455414552E+01  0.30219911996E+01  0.28265902647E+02  0.51100000000E-03 0. -1.
        -11    1    4    4    0    0  0.52249821883E+01  0.26161991774E+01  0.86136422336E+01  0.10408639190E+02  0.51100000000E-03 0.  1.
         12    1    4    4    0    0 -0.22802338333E+01  0.40121974096E+01  0.14998581737E+02  0.15692502939E+02  0.00000000000E+00 0. -1.
</event>
<event>
 8    1  0.1269154E-006  0.9118800E+02  0.7816164E-02  0.1184000E+00
        -11   -1    0    0    0    0  0.00000000000E+00  0.00000000000E+00  0.45593999997E+02  0.45594000000E+02  0.51100000000E-03 0. -1.
         11   -1    0    0    0    0 -0.00000000000E+00 -0.00000000000E+00 -0.45593999997E+02  0.45594000000E+02  0.51100000000E-03 0.  1.
         23    2    1    2    0    0  0.00000000000E+00  0.88817841970E-15 -0.71054273576E-14  0.91188000000E+02  0.91188000000E+02 0.  0.
    9900012    2    3    3    0    0  0.16476810400E+02  0.74540288836E+01  0.32073863929E+02  0.54367074226E+02  0.39999977313E+02 0.  0.
        -12    1    3    3    0    0 -0.16476810400E+02 -0.74540288836E+01 -0.32073863929E+02  0.36820925774E+02  0.00000000000E+00 0.  1.
         11    1    4    4    0    0  0.99260735297E+01 -0.18551009998E+01 -0.36048202383E+01  0.10722083037E+02  0.51100000000E-03 0. -1.
        -11    1    4    4    0    0  0.71082504264E+01  0.67849147077E+01  0.22041333304E+01  0.10070774335E+02  0.51100000000E-03 0.  1.
         12    1    4    4    0    0 -0.55751355605E+00  0.25242151757E+01  0.33474550837E+02  0.33574216854E+02  0.00000000000E+00 0. -1.
</event>
<event>
 8    1  0.1269154E-006  0.9118800E+02  0.7816164E-02  0.1184000E+00
        -11   -1    0    0    0    0  0.00000000000E+00  0.00000000000E+00  0.45593999997E+02  0.45594000000E+02  0.51100000000E-03 0. -1.
         11   -1    0    0    0    0 -0.00000000000E+00 -0.00000000000E+00 -0.45593999997E+02  0.45594000000E+02  0.51100000000E-03 0.  1.
         23    2    1    2    0    0  0.35527136788E-14  0.71054273576E-14  0.35527136788E-14  0.91188000000E+02  0.91188000000E+02 0.  0.
    9900012    2    3    3    0    0  0.95787186887E+01  0.32657089690E+02  0.14055016782E+02  0.54367070416E+02  0.39999968626E+02 0.  0.
        -12    1    3    3    0    0 -0.95787186887E+01 -0.32657089690E+02 -0.14055016782E+02  0.36820929584E+02  0.00000000000E+00 0.  1.
         11    1    4    4    0    0  0.12117081814E+02  0.30558569774E+02  0.11627940584E+02  0.34869167768E+02  0.51100000000E-03 0. -1.
        -11    1    4    4    0    0 -0.46490413773E+01  0.10000371985E+02  0.23645140190E+00  0.11030726861E+02  0.51100000000E-03 0.  1.
        -12    1    4    4    0    0  0.21106782516E+01 -0.79018520691E+01  0.21906247959E+01  0.84671757865E+01  0.00000000000E+00 0.  1.
</event>
<event>
 8    1  0.1269154E-006  0.9118800E+02  0.7816164E-02  0.1184000E+00
        -11   -1    0    0    0    0  0.00000000000E+00  0.00000000000E+00  0.45593999997E+02  0.45594000000E+02  0.51100000000E-03 0. -1.
         11   -1    0    0    0    0 -0.00000000000E+00 -0.00000000000E+00 -0.45593999997E+02  0.45594000000E+02  0.51100000000E-03 0.  1.
         23    2    1    2    0    0  0.00000000000E+00 -0.35527136788E-14  0.00000000000E+00  0.91188000000E+02  0.91188000000E+02 0.  0.
    9900012    2    3    3    0    0  0.22860702756E+02 -0.17063390176E+02  0.23281092977E+02  0.54367077891E+02  0.39999985667E+02 0.  0.
        -12    1    3    3    0    0 -0.22860702756E+02  0.17063390176E+02 -0.23281092977E+02  0.36820922109E+02  0.00000000000E+00 0.  1.
         11    1    4    4    0    0  0.69567956950E+01 -0.17464570678E+02  0.33274019831E+01  0.19091355099E+02  0.51100000000E-03 0. -1.
        -11    1    4    4    0    0 -0.25875074090E+01  0.69432041576E+01  0.16261414742E+00  0.74114588434E+01  0.51100000000E-03 0.  1.
         12    1    4    4    0    0  0.18491414470E+02 -0.65420236551E+01  0.19791076846E+02  0.27864263948E+02  0.00000000000E+00 0. -1.
</event>
<event>
 8    1  0.1269154E-006  0.9118800E+02  0.7816164E-02  0.1184000E+00
        -11   -1    0    0    0    0  0.00000000000E+00  0.00000000000E+00  0.45593999997E+02  0.45594000000E+02  0.51100000000E-03 0. -1.
         11   -1    0    0    0    0 -0.00000000000E+00 -0.00000000000E+00 -0.45593999997E+02  0.45594000000E+02  0.51100000000E-03 0.  1.
         23    2    1    2    0    0  0.00000000000E+00  0.35527136788E-14  0.00000000000E+00  0.91188000000E+02  0.91188000000E+02 0.  0.
    9900012    2    3    3    0    0  0.20663028324E+02 -0.20556556325E+02  0.22499924134E+02  0.54367091083E+02  0.40000015742E+02 0.  0.
        -12    1    3    3    0    0 -0.20663028324E+02  0.20556556325E+02 -0.22499924134E+02  0.36820908917E+02  0.00000000000E+00 0.  1.
         11    1    4    4    0    0  0.11180971415E+02 -0.11665354234E+02  0.86319260958E+01  0.18319518541E+02  0.51100000000E-03 0. -1.
        -11    1    4    4    0    0  0.14181183965E+02 -0.83399144644E+00 -0.49511189836E+01  0.15043772792E+02  0.51100000000E-03 0.  1.
        -12    1    4    4    0    0 -0.46991270557E+01 -0.80572106442E+01  0.18819117022E+02  0.21003799750E+02  0.00000000000E+00 0.  1.
</event>
<event>
 8    1  0.1269154E-006  0.9118800E+02  0.7816164E-02  0.1184000E+00
        -11   -1    0    0    0    0  0.00000000000E+00  0.00000000000E+00  0.45593999997E+02  0.45594000000E+02  0.51100000000E-03 0. -1.
         11   -1    0    0    0    0 -0.00000000000E+00 -0.00000000000E+00 -0.45593999997E+02  0.45594000000E+02  0.51100000000E-03 0.  1.
         23    2    1    2    0    0  0.17763568394E-14  0.00000000000E+00  0.71054273576E-14  0.91188000000E+02  0.91188000000E+02 0.  0.
    9900012    2    3    3    0    0 -0.34308014313E+01 -0.83783726822E+01  0.35690531866E+02  0.54367060412E+02  0.39999945822E+02 0.  0.
        -12    1    3    3    0    0  0.34308014313E+01  0.83783726822E+01 -0.35690531866E+02  0.36820939588E+02  0.00000000000E+00 0.  1.
         11    1    4    4    0    0  0.92281551956E+01 -0.56222886707E+01  0.10156725259E+02  0.14829971222E+02  0.51100000000E-03 0. -1.
        -11    1    4    4    0    0  0.13588678609E+01  0.98764522651E+01  0.35914225610E+01  0.10596657373E+02  0.51100000000E-03 0.  1.
         12    1    4    4    0    0 -0.14017824488E+02 -0.12632536277E+02  0.21942384046E+02  0.28940431817E+02  0.00000000000E+00 0. -1.
</event>
<event>
 8    1  0.1269154E-006  0.9118800E+02  0.7816164E-02  0.1184000E+00
        -11   -1    0    0    0    0  0.00000000000E+00  0.00000000000E+00  0.45593999997E+02  0.45594000000E+02  0.51100000000E-03 0. -1.
         11   -1    0    0    0    0 -0.00000000000E+00 -0.00000000000E+00 -0.45593999997E+02  0.45594000000E+02  0.51100000000E-03 0.  1.
         23    2    1    2    0    0  0.00000000000E+00  0.35527136788E-14 -0.17763568394E-14  0.91188000000E+02  0.91188000000E+02 0.  0.
    9900012    2    3    3    0    0  0.15658215650E+02 -0.29608652731E+02  0.15294662882E+02  0.54367099053E+02  0.40000033912E+02 0.  0.
        -12    1    3    3    0    0 -0.15658215650E+02  0.29608652731E+02 -0.15294662882E+02  0.36820900947E+02  0.00000000000E+00 0.  1.
         11    1    4    4    0    0  0.87469739481E+01 -0.18938257639E+02  0.18063673615E+02  0.27594627382E+02  0.51100000000E-03 0. -1.
        -11    1    4    4    0    0 -0.49303804427E+01  0.58076532403E+00 -0.81770509955E+01  0.95660913081E+01  0.51100000000E-03 0.  1.
        -12    1    4    4    0    0  0.11841622144E+02 -0.11251160416E+02  0.54080402629E+01  0.17206380363E+02  0.00000000000E+00 0.  1.
</event>
<event>
 8    1  0.1269154E-006  0.9118800E+02  0.7816164E-02  0.1184000E+00
        -11   -1    0    0    0    0  0.00000000000E+00  0.00000000000E+00  0.45593999997E+02  0.45594000000E+02  0.51100000000E-03 0.  1.
         11   -1    0    0    0    0 -0.00000000000E+00 -0.00000000000E+00 -0.45593999997E+02  0.45594000000E+02  0.51100000000E-03 0. -1.
         23    2    1    2    0    0  0.00000000000E+00 -0.12490009027E-14  0.71054273576E-14  0.91188000000E+02  0.91188000000E+02 0.  0.
    9900012    2    3    3    0    0 -0.55536276408E+01 -0.23627111688E+00 -0.36398932782E+02  0.54367069652E+02  0.39999966886E+02 0.  0.
        -12    1    3    3    0    0  0.55536276408E+01  0.23627111688E+00  0.36398932782E+02  0.36820930348E+02  0.00000000000E+00 0.  1.
         11    1    4    4    0    0 -0.10945155853E+02 -0.11016181628E+02 -0.36015430582E+02  0.39220707981E+02  0.51100000000E-03 0. -1.
        -11    1    4    4    0    0  0.64514576822E+01  0.38363139081E+01 -0.23271294493E+01  0.78583803905E+01  0.51100000000E-03 0.  1.
        -12    1    4    4    0    0 -0.10599294700E+01  0.69435966026E+01  0.19436272494E+01  0.72879812805E+01  0.00000000000E+00 0.  1.
</event>
<event>
 8    1  0.1269154E-006  0.9118800E+02  0.7816164E-02  0.1184000E+00
        -11   -1    0    0    0    0  0.00000000000E+00  0.00000000000E+00  0.45593999997E+02  0.45594000000E+02  0.51100000000E-03 0.  1.
         11   -1    0    0    0    0 -0.00000000000E+00 -0.00000000000E+00 -0.45593999997E+02  0.45594000000E+02  0.51100000000E-03 0. -1.
         23    2    1    2    0    0  0.35527136788E-14  0.00000000000E+00  0.35527136788E-14  0.91188000000E+02  0.91188000000E+02 0.  0.
    9900012    2    3    3    0    0 -0.22343848358E+02  0.13100223605E+02  0.26170814840E+02  0.54367150372E+02  0.40000150902E+02 0.  0.
         12    1    3    3    0    0  0.22343848358E+02 -0.13100223605E+02 -0.26170814840E+02  0.36820849628E+02  0.00000000000E+00 0. -1.
         11    1    4    4    0    0  0.10825511298E+02  0.72744418931E+01  0.77281223776E+01  0.15160246550E+02  0.51100000000E-03 0. -1.
        -11    1    4    4    0    0  0.84597711750E-01  0.94994464475E+00  0.23466291350E+00  0.98214996055E+00  0.51100000000E-03 0.  1.
         12    1    4    4    0    0 -0.33253957368E+02  0.48758370673E+01  0.18208029549E+02  0.38224753861E+02  0.00000000000E+00 0. -1.
</event>
<event>
 8    1  0.1269154E-006  0.9118800E+02  0.7816164E-02  0.1184000E+00
        -11   -1    0    0    0    0  0.00000000000E+00  0.00000000000E+00  0.45593999997E+02  0.45594000000E+02  0.51100000000E-03 0.  1.
         11   -1    0    0    0    0 -0.00000000000E+00 -0.00000000000E+00 -0.45593999997E+02  0.45594000000E+02  0.51100000000E-03 0. -1.
         23    2    1    2    0    0  0.00000000000E+00  0.00000000000E+00  0.35527136788E-14  0.91188000000E+02  0.91188000000E+02 0.  0.
    9900012    2    3    3    0    0 -0.12882807023E+02 -0.18909218565E+02 -0.28848809225E+02  0.54367094834E+02  0.40000024294E+02 0.  0.
        -12    1    3    3    0    0  0.12882807023E+02  0.18909218565E+02  0.28848809225E+02  0.36820905166E+02  0.00000000000E+00 0.  1.
         11    1    4    4    0    0 -0.62619493796E+01 -0.10453240867E+02 -0.30967680166E+02  0.33278814128E+02  0.51100000000E-03 0. -1.
        -11    1    4    4    0    0  0.14693219482E+01 -0.51196536743E+01 -0.67702989823E+01  0.86143316225E+01  0.51100000000E-03 0.  1.
        -12    1    4    4    0    0 -0.80901795913E+01 -0.33363240236E+01  0.88891699235E+01  0.12473949084E+02  0.00000000000E+00 0.  1.
</event>
<event>
 8    1  0.1269154E-006  0.9118800E+02  0.7816164E-02  0.1184000E+00
        -11   -1    0    0    0    0  0.00000000000E+00  0.00000000000E+00  0.45593999997E+02  0.45594000000E+02  0.51100000000E-03 0. -1.
         11   -1    0    0    0    0 -0.00000000000E+00 -0.00000000000E+00 -0.45593999997E+02  0.45594000000E+02  0.51100000000E-03 0.  1.
         23    2    1    2    0    0 -0.35527136788E-14  0.00000000000E+00  0.35527136788E-14  0.91188000000E+02  0.91188000000E+02 0.  0.
    9900012    2    3    3    0    0 -0.24129390218E+02 -0.18575625846E+02  0.20700212658E+02  0.54367079969E+02  0.39999990404E+02 0.  0.
        -12    1    3    3    0    0  0.24129390218E+02  0.18575625846E+02 -0.20700212658E+02  0.36820920031E+02  0.00000000000E+00 0.  1.
         11    1    4    4    0    0 -0.15797416296E+02 -0.85337261442E+01  0.11264089843E+02  0.21195814770E+02  0.51100000000E-03 0. -1.
        -11    1    4    4    0    0 -0.11081288185E+02 -0.95308054961E+01  0.18562423290E+02  0.23626145684E+02  0.51100000000E-03 0.  1.
        -12    1    4    4    0    0  0.27493142620E+01 -0.51109420529E+00 -0.91263004741E+01  0.95451195143E+01  0.00000000000E+00 0.  1.
</event>
<event>
 8    1  0.1269154E-006  0.9118800E+02  0.7816164E-02  0.1184000E+00
        -11   -1    0    0    0    0  0.00000000000E+00  0.00000000000E+00  0.45593999997E+02  0.45594000000E+02  0.51100000000E-03 0. -1.
         11   -1    0    0    0    0 -0.00000000000E+00 -0.00000000000E+00 -0.45593999997E+02  0.45594000000E+02  0.51100000000E-03 0.  1.
         23    2    1    2    0    0  0.17763568394E-14  0.17763568394E-14  0.00000000000E+00  0.91188000000E+02  0.91188000000E+02 0.  0.
    9900012    2    3    3    0    0 -0.75048684161E+01 -0.13401050718E+02 -0.33464435315E+02  0.54367086904E+02  0.40000006215E+02 0.  0.
         12    1    3    3    0    0  0.75048684161E+01  0.13401050718E+02  0.33464435315E+02  0.36820913096E+02  0.00000000000E+00 0. -1.
         11    1    4    4    0    0 -0.10197467136E+02  0.20357347697E+01 -0.11419204149E+01  0.10461191831E+02  0.51100000000E-03 0. -1.
        -11    1    4    4    0    0 -0.10401136858E+02 -0.12327224141E+02 -0.19635965797E+02  0.25410927886E+02  0.51100000000E-03 0.  1.
         12    1    4    4    0    0  0.13093735577E+02 -0.31095613462E+01 -0.12686549102E+02  0.18494967187E+02  0.00000000000E+00 0. -1.
</event>
<event>
 8    1  0.1269154E-006  0.9118800E+02  0.7816164E-02  0.1184000E+00
        -11   -1    0    0    0    0  0.00000000000E+00  0.00000000000E+00  0.45593999997E+02  0.45594000000E+02  0.51100000000E-03 0. -1.
         11   -1    0    0    0    0 -0.00000000000E+00 -0.00000000000E+00 -0.45593999997E+02  0.45594000000E+02  0.51100000000E-03 0.  1.
         23    2    1    2    0    0  0.00000000000E+00  0.00000000000E+00  0.00000000000E+00  0.91188000000E+02  0.91188000000E+02 0.  0.
    9900012    2    3    3    0    0 -0.85689508864E+01  0.17178442588E+02  0.31420585880E+02  0.54367095257E+02  0.40000025257E+02 0.  0.
        -12    1    3    3    0    0  0.85689508864E+01 -0.17178442588E+02 -0.31420585880E+02  0.36820904743E+02  0.00000000000E+00 0.  1.
         11    1    4    4    0    0 -0.22245255418E+01  0.42223591774E+01  0.35754214001E+02  0.36071327256E+02  0.51100000000E-03 0. -1.
        -11    1    4    4    0    0 -0.63958043778E+01  0.32304296650E+01  0.94903574426E+00  0.72279083119E+01  0.51100000000E-03 0.  1.
         12    1    4    4    0    0  0.51379033260E-01  0.97256537461E+01 -0.52826638649E+01  0.11067859689E+02  0.00000000000E+00 0. -1.
</event>
<event>
 8    1  0.1269154E-006  0.9118800E+02  0.7816164E-02  0.1184000E+00
        -11   -1    0    0    0    0  0.00000000000E+00  0.00000000000E+00  0.45593999997E+02  0.45594000000E+02  0.51100000000E-03 0. -1.
         11   -1    0    0    0    0 -0.00000000000E+00 -0.00000000000E+00 -0.45593999997E+02  0.45594000000E+02  0.51100000000E-03 0.  1.
         23    2    1    2    0    0  0.00000000000E+00  0.00000000000E+00  0.00000000000E+00  0.91188000000E+02  0.91188000000E+02 0.  0.
    9900012    2    3    3    0    0 -0.21265694256E+02  0.16013752929E+02 -0.25438351465E+02  0.54367085287E+02  0.40000002529E+02 0.  0.
         12    1    3    3    0    0  0.21265694256E+02 -0.16013752929E+02  0.25438351465E+02  0.36820914713E+02  0.00000000000E+00 0. -1.
         11    1    4    4    0    0 -0.18673597137E+02  0.12083364474E+02 -0.29663794255E+01  0.22439035946E+02  0.51100000000E-03 0. -1.
        -11    1    4    4    0    0 -0.32060977292E+01 -0.19870753985E+01  0.35830343352E+01  0.52024673567E+01  0.51100000000E-03 0.  1.
        -12    1    4    4    0    0  0.61400061018E+00  0.59174638540E+01 -0.26055006375E+02  0.26725581984E+02  0.00000000000E+00 0.  1.
</event>
<event>
 8    1  0.1269154E-006  0.9118800E+02  0.7816164E-02  0.1184000E+00
        -11   -1    0    0    0    0  0.00000000000E+00  0.00000000000E+00  0.45593999997E+02  0.45594000000E+02  0.51100000000E-03 0.  1.
         11   -1    0    0    0    0 -0.00000000000E+00 -0.00000000000E+00 -0.45593999997E+02  0.45594000000E+02  0.51100000000E-03 0. -1.
         23    2    1    2    0    0 -0.44408920985E-15  0.17763568394E-14  0.00000000000E+00  0.91188000000E+02  0.91188000000E+02 0.  0.
    9900012    2    3    3    0    0  0.37352332449E+01 -0.15778340531E+02 -0.33058616223E+02  0.54367080621E+02  0.39999991892E+02 0.  0.
        -12    1    3    3    0    0 -0.37352332449E+01  0.15778340531E+02  0.33058616223E+02  0.36820919379E+02  0.00000000000E+00 0.  1.
         11    1    4    4    0    0 -0.39967941070E+01 -0.12738771858E+02  0.13303865039E+01  0.13417175563E+02  0.51100000000E-03 0. -1.
        -11    1    4    4    0    0  0.13010742198E+02 -0.71754190452E+01 -0.18673750770E+02  0.23863675725E+02  0.51100000000E-03 0.  1.
         12    1    4    4    0    0 -0.52787148464E+01  0.41358503721E+01 -0.15715251957E+02  0.17086229332E+02  0.00000000000E+00 0. -1.
</event>
<event>
 8    1  0.1269154E-006  0.9118800E+02  0.7816164E-02  0.1184000E+00
        -11   -1    0    0    0    0  0.00000000000E+00  0.00000000000E+00  0.45593999997E+02  0.45594000000E+02  0.51100000000E-03 0.  1.
         11   -1    0    0    0    0 -0.00000000000E+00 -0.00000000000E+00 -0.45593999997E+02  0.45594000000E+02  0.51100000000E-03 0. -1.
         23    2    1    2    0    0  0.35527136788E-14 -0.17763568394E-14 -0.35527136788E-14  0.91188000000E+02  0.91188000000E+02 0.  0.
    9900012    2    3    3    0    0 -0.15865883657E+02  0.10261220979E+02  0.31603171701E+02  0.54367090427E+02  0.40000014246E+02 0.  0.
         12    1    3    3    0    0  0.15865883657E+02 -0.10261220979E+02 -0.31603171701E+02  0.36820909573E+02  0.00000000000E+00 0. -1.
         11    1    4    4    0    0 -0.14567409080E+01  0.10483589944E+02  0.22690910909E+01  0.10824810706E+02  0.51100000000E-03 0. -1.
        -11    1    4    4    0    0 -0.22044239328E+02 -0.49680131139E+01  0.16990307673E+02  0.28271897653E+02  0.51100000000E-03 0.  1.
         12    1    4    4    0    0  0.76350965785E+01  0.47456441494E+01  0.12343772937E+02  0.15270382067E+02  0.00000000000E+00 0. -1.
</event>
<event>
 8    1  0.1269154E-006  0.9118800E+02  0.7816164E-02  0.1184000E+00
        -11   -1    0    0    0    0  0.00000000000E+00  0.00000000000E+00  0.45593999997E+02  0.45594000000E+02  0.51100000000E-03 0.  1.
         11   -1    0    0    0    0 -0.00000000000E+00 -0.00000000000E+00 -0.45593999997E+02  0.45594000000E+02  0.51100000000E-03 0. -1.
         23    2    1    2    0    0  0.00000000000E+00  0.44408920985E-15  0.00000000000E+00  0.91188000000E+02  0.91188000000E+02 0.  0.
    9900012    2    3    3    0    0 -0.34251402191E+02  0.32304722584E+01 -0.13121952236E+02  0.54367080218E+02  0.39999990974E+02 0.  0.
        -12    1    3    3    0    0  0.34251402191E+02 -0.32304722584E+01  0.13121952236E+02  0.36820919782E+02  0.00000000000E+00 0.  1.
         11    1    4    4    0    0  0.54645870827E+01  0.54908993252E+01 -0.20285144164E+01  0.80079059924E+01  0.51100000000E-03 0. -1.
        -11    1    4    4    0    0 -0.38182622720E+00  0.47501019133E+01 -0.28849552605E+01  0.55706576426E+01  0.51100000000E-03 0.  1.
         12    1    4    4    0    0 -0.39334163047E+02 -0.70105289801E+01 -0.82084825594E+01  0.40788516584E+02  0.00000000000E+00 0. -1.
</event>
<event>
 8    1  0.1269154E-006  0.9118800E+02  0.7816164E-02  0.1184000E+00
        -11   -1    0    0    0    0  0.00000000000E+00  0.00000000000E+00  0.45593999997E+02  0.45594000000E+02  0.51100000000E-03 0.  1.
         11   -1    0    0    0    0 -0.00000000000E+00 -0.00000000000E+00 -0.45593999997E+02  0.45594000000E+02  0.51100000000E-03 0. -1.
         23    2    1    2    0    0  0.00000000000E+00  0.17763568394E-14  0.17763568394E-14  0.91188000000E+02  0.91188000000E+02 0.  0.
    9900012    2    3    3    0    0 -0.34248330421E+02  0.40931462143E+01 -0.12887095348E+02  0.54367092772E+02  0.40000019593E+02 0.  0.
        -12    1    3    3    0    0  0.34248330421E+02 -0.40931462143E+01  0.12887095348E+02  0.36820907228E+02  0.00000000000E+00 0.  1.
         11    1    4    4    0    0 -0.23781566444E+02 -0.90013885799E+01 -0.20612877000E+02  0.32733447685E+02  0.51100000000E-03 0. -1.
        -11    1    4    4    0    0 -0.57785086883E+00  0.12756927722E+01  0.59602750090E+01  0.61225960278E+01  0.51100000000E-03 0.  1.
         12    1    4    4    0    0 -0.98889131083E+01  0.11818842022E+02  0.17655066432E+01  0.15511049059E+02  0.00000000000E+00 0. -1.
</event>
<event>
 8    1  0.1269154E-006  0.9118800E+02  0.7816164E-02  0.1184000E+00
        -11   -1    0    0    0    0  0.00000000000E+00  0.00000000000E+00  0.45593999997E+02  0.45594000000E+02  0.51100000000E-03 0. -1.
         11   -1    0    0    0    0 -0.00000000000E+00 -0.00000000000E+00 -0.45593999997E+02  0.45594000000E+02  0.51100000000E-03 0.  1.
         23    2    1    2    0    0 -0.44408920985E-15 -0.71054273576E-14 -0.88817841970E-15  0.91188000000E+02  0.91188000000E+02 0.  0.
    9900012    2    3    3    0    0 -0.20734061298E+01 -0.36096456038E+02 -0.69660575428E+01  0.54367094129E+02  0.40000022686E+02 0.  0.
         12    1    3    3    0    0  0.20734061298E+01  0.36096456038E+02  0.69660575428E+01  0.36820905871E+02  0.00000000000E+00 0. -1.
         11    1    4    4    0    0  0.48857331263E+01  0.67892484257E+00  0.76990681642E+01  0.91436851423E+01  0.51100000000E-03 0. -1.
        -11    1    4    4    0    0 -0.74241088395E+00 -0.25166244701E+01 -0.97052409671E+01  0.10053669735E+02  0.51100000000E-03 0.  1.
         12    1    4    4    0    0 -0.62167283721E+01 -0.34258756410E+02 -0.49598847399E+01  0.35169739252E+02  0.00000000000E+00 0. -1.
</event>
<event>
 8    1  0.1269154E-006  0.9118800E+02  0.7816164E-02  0.1184000E+00
        -11   -1    0    0    0    0  0.00000000000E+00  0.00000000000E+00  0.45593999997E+02  0.45594000000E+02  0.51100000000E-03 0. -1.
         11   -1    0    0    0    0 -0.00000000000E+00 -0.00000000000E+00 -0.45593999997E+02  0.45594000000E+02  0.51100000000E-03 0.  1.
         23    2    1    2    0    0  0.00000000000E+00  0.35527136788E-14  0.17763568394E-14  0.91188000000E+02  0.91188000000E+02 0.  0.
    9900012    2    3    3    0    0 -0.26222474708E+02 -0.22112511102E+02 -0.13386543136E+02  0.54367070297E+02  0.39999968357E+02 0.  0.
         12    1    3    3    0    0  0.26222474708E+02  0.22112511102E+02  0.13386543136E+02  0.36820929703E+02  0.00000000000E+00 0. -1.
         11    1    4    4    0    0  0.28393045192E+00  0.93675448575E+00  0.86313485117E+00  0.13050392716E+01  0.51100000000E-03 0. -1.
        -11    1    4    4    0    0 -0.12855954301E+02 -0.20886212496E+02 -0.25396969253E+02  0.35306026128E+02  0.51100000000E-03 0.  1.
         12    1    4    4    0    0 -0.13650450859E+02 -0.21630530910E+01  0.11147291267E+02  0.17756004898E+02  0.00000000000E+00 0. -1.
</event>
<event>
 8    1  0.1269154E-006  0.9118800E+02  0.7816164E-02  0.1184000E+00
        -11   -1    0    0    0    0  0.00000000000E+00  0.00000000000E+00  0.45593999997E+02  0.45594000000E+02  0.51100000000E-03 0.  1.
         11   -1    0    0    0    0 -0.00000000000E+00 -0.00000000000E+00 -0.45593999997E+02  0.45594000000E+02  0.51100000000E-03 0. -1.
         23    2    1    2    0    0 -0.53290705182E-14  0.71054273576E-14  0.17763568394E-14  0.91188000000E+02  0.91188000000E+02 0.  0.
    9900012    2    3    3    0    0  0.14567262115E+02 -0.31825041151E+02 -0.11434223541E+02  0.54367084234E+02  0.40000000129E+02 0.  0.
         12    1    3    3    0    0 -0.14567262115E+02  0.31825041151E+02  0.11434223541E+02  0.36820915766E+02  0.00000000000E+00 0. -1.
         11    1    4    4    0    0  0.55724272723E+01  0.42316032165E+01 -0.24458442299E+01  0.74121903473E+01  0.51100000000E-03 0. -1.
        -11    1    4    4    0    0 -0.74538301554E+01 -0.68183832494E+01  0.41570065897E+01  0.10923856378E+02  0.51100000000E-03 0.  1.
        -12    1    4    4    0    0  0.16448664999E+02 -0.29238261118E+02 -0.13145385901E+02  0.36031037509E+02  0.00000000000E+00 0.  1.
</event>
<event>
 8    1  0.1269154E-006  0.9118800E+02  0.7816164E-02  0.1184000E+00
        -11   -1    0    0    0    0  0.00000000000E+00  0.00000000000E+00  0.45593999997E+02  0.45594000000E+02  0.51100000000E-03 0.  1.
         11   -1    0    0    0    0 -0.00000000000E+00 -0.00000000000E+00 -0.45593999997E+02  0.45594000000E+02  0.51100000000E-03 0. -1.
         23    2    1    2    0    0 -0.17763568394E-14  0.00000000000E+00 -0.71054273576E-14  0.91188000000E+02  0.91188000000E+02 0.  0.
    9900012    2    3    3    0    0  0.11205181186E+02 -0.79708738700E+01  0.34156831391E+02  0.54367081402E+02  0.39999993673E+02 0.  0.
         12    1    3    3    0    0 -0.11205181186E+02  0.79708738700E+01 -0.34156831391E+02  0.36820918598E+02  0.00000000000E+00 0. -1.
         11    1    4    4    0    0  0.63090248450E+01 -0.66448614634E+01 -0.60083677656E+00  0.91825368747E+01  0.51100000000E-03 0. -1.
        -11    1    4    4    0    0  0.15650130624E+01  0.10840754419E+02  0.29590666774E+02  0.31552793579E+02  0.51100000000E-03 0.  1.
         12    1    4    4    0    0  0.33311432789E+01 -0.12166766825E+02  0.51670013943E+01  0.13631750949E+02  0.00000000000E+00 0. -1.
</event>
<event>
 8    1  0.1269154E-006  0.9118800E+02  0.7816164E-02  0.1184000E+00
        -11   -1    0    0    0    0  0.00000000000E+00  0.00000000000E+00  0.45593999997E+02  0.45594000000E+02  0.51100000000E-03 0.  1.
         11   -1    0    0    0    0 -0.00000000000E+00 -0.00000000000E+00 -0.45593999997E+02  0.45594000000E+02  0.51100000000E-03 0. -1.
         23    2    1    2    0    0  0.35527136788E-14 -0.35527136788E-14  0.00000000000E+00  0.91188000000E+02  0.91188000000E+02 0.  0.
    9900012    2    3    3    0    0  0.26903722778E+02 -0.16709984450E+02  0.18781309125E+02  0.54367198107E+02  0.40000259723E+02 0.  0.
         12    1    3    3    0    0 -0.26903722778E+02  0.16709984450E+02 -0.18781309125E+02  0.36820801893E+02  0.00000000000E+00 0. -1.
         11    1    4    4    0    0 -0.96437113567E+00  0.42040700526E+01 -0.15464617077E+01  0.45821131335E+01  0.51100000000E-03 0. -1.
        -11    1    4    4    0    0  0.12394600164E+02  0.20046162952E+01 -0.37657511868E+01  0.13108221923E+02  0.51100000000E-03 0.  1.
        -12    1    4    4    0    0  0.15473493750E+02 -0.22918670798E+02  0.24093522019E+02  0.36676863051E+02  0.00000000000E+00 0.  1.
</event>
<event>
 8    1  0.1269154E-006  0.9118800E+02  0.7816164E-02  0.1184000E+00
        -11   -1    0    0    0    0  0.00000000000E+00  0.00000000000E+00  0.45593999997E+02  0.45594000000E+02  0.51100000000E-03 0.  1.
         11   -1    0    0    0    0 -0.00000000000E+00 -0.00000000000E+00 -0.45593999997E+02  0.45594000000E+02  0.51100000000E-03 0. -1.
         23    2    1    2    0    0  0.00000000000E+00 -0.35527136788E-14  0.00000000000E+00  0.91188000000E+02  0.91188000000E+02 0.  0.
    9900012    2    3    3    0    0 -0.68535056495E+01  0.30979369878E+02  0.18683895410E+02  0.54367084131E+02  0.39999999893E+02 0.  0.
         12    1    3    3    0    0  0.68535056495E+01 -0.30979369878E+02 -0.18683895410E+02  0.36820915869E+02  0.00000000000E+00 0. -1.
         11    1    4    4    0    0 -0.12218024529E+02  0.80031871019E+01  0.10963078115E+02  0.18262535673E+02  0.51100000000E-03 0. -1.
        -11    1    4    4    0    0  0.53166430331E+01  0.27365232332E+02  0.11650158394E+02  0.30213388168E+02  0.51100000000E-03 0.  1.
         12    1    4    4    0    0  0.47875846760E-01 -0.43890495552E+01 -0.39293410990E+01  0.58911602903E+01  0.00000000000E+00 0. -1.
</event>
<event>
 8    1  0.1269154E-006  0.9118800E+02  0.7816164E-02  0.1184000E+00
        -11   -1    0    0    0    0  0.00000000000E+00  0.00000000000E+00  0.45593999997E+02  0.45594000000E+02  0.51100000000E-03 0.  1.
         11   -1    0    0    0    0 -0.00000000000E+00 -0.00000000000E+00 -0.45593999997E+02  0.45594000000E+02  0.51100000000E-03 0. -1.
         23    2    1    2    0    0  0.17763568394E-14 -0.35527136788E-14  0.35527136788E-14  0.91188000000E+02  0.91188000000E+02 0.  0.
    9900012    2    3    3    0    0 -0.12307280056E+02  0.20185614250E+02 -0.28228541457E+02  0.54367099443E+02  0.40000034801E+02 0.  0.
        -12    1    3    3    0    0  0.12307280056E+02 -0.20185614250E+02  0.28228541457E+02  0.36820900557E+02  0.00000000000E+00 0.  1.
         11    1    4    4    0    0 -0.22934498305E+02  0.25116814536E+02 -0.21407236875E+02  0.40188498053E+02  0.51100000000E-03 0. -1.
        -11    1    4    4    0    0  0.50805062009E+01 -0.67445255418E+00 -0.13484017970E+01  0.52994921618E+01  0.51100000000E-03 0.  1.
         12    1    4    4    0    0  0.55467120474E+01 -0.42567477319E+01 -0.54729027852E+01  0.88791092282E+01  0.00000000000E+00 0. -1.
</event>
<event>
 8    1  0.1269154E-006  0.9118800E+02  0.7816164E-02  0.1184000E+00
        -11   -1    0    0    0    0  0.00000000000E+00  0.00000000000E+00  0.45593999997E+02  0.45594000000E+02  0.51100000000E-03 0.  1.
         11   -1    0    0    0    0 -0.00000000000E+00 -0.00000000000E+00 -0.45593999997E+02  0.45594000000E+02  0.51100000000E-03 0. -1.
         23    2    1    2    0    0 -0.13322676296E-14  0.00000000000E+00  0.17763568394E-14  0.91188000000E+02  0.91188000000E+02 0.  0.
    9900012    2    3    3    0    0  0.14587748106E+01  0.34310440424E+02  0.13283180062E+02  0.54367119801E+02  0.40000081211E+02 0.  0.
        -12    1    3    3    0    0 -0.14587748106E+01 -0.34310440424E+02 -0.13283180062E+02  0.36820880199E+02  0.00000000000E+00 0.  1.
         11    1    4    4    0    0 -0.67549661424E+01  0.97388716836E+01 -0.86112703721E+01  0.14650227539E+02  0.51100000000E-03 0. -1.
        -11    1    4    4    0    0  0.98594356799E+01  0.91892640298E+01  0.20019475009E+02  0.24133595365E+02  0.51100000000E-03 0.  1.
        -12    1    4    4    0    0 -0.16456947268E+01  0.15382304711E+02  0.18749754246E+01  0.15583296898E+02  0.00000000000E+00 0.  1.
</event>
<event>
 8    1  0.1269154E-006  0.9118800E+02  0.7816164E-02  0.1184000E+00
        -11   -1    0    0    0    0  0.00000000000E+00  0.00000000000E+00  0.45593999997E+02  0.45594000000E+02  0.51100000000E-03 0. -1.
         11   -1    0    0    0    0 -0.00000000000E+00 -0.00000000000E+00 -0.45593999997E+02  0.45594000000E+02  0.51100000000E-03 0.  1.
         23    2    1    2    0    0  0.00000000000E+00  0.00000000000E+00  0.71054273576E-14  0.91188000000E+02  0.91188000000E+02 0.  0.
    9900012    2    3    3    0    0  0.11728595132E+01  0.12569578627E+02  0.34589190346E+02  0.54367054941E+02  0.39999933348E+02 0.  0.
        -12    1    3    3    0    0 -0.11728595132E+01 -0.12569578627E+02 -0.34589190346E+02  0.36820945059E+02  0.00000000000E+00 0.  1.
         11    1    4    4    0    0 -0.44513797717E+01  0.10032626134E+02  0.41843432231E+02  0.43259001262E+02  0.51100000000E-03 0. -1.
        -11    1    4    4    0    0  0.27853876709E+01  0.34941193583E+01 -0.67121822651E+01  0.80635380317E+01  0.51100000000E-03 0.  1.
         12    1    4    4    0    0  0.28388516140E+01 -0.95716686576E+00 -0.54205962025E+00  0.30445156473E+01  0.00000000000E+00 0. -1.
</event>
<event>
 8    1  0.1269154E-006  0.9118800E+02  0.7816164E-02  0.1184000E+00
        -11   -1    0    0    0    0  0.00000000000E+00  0.00000000000E+00  0.45593999997E+02  0.45594000000E+02  0.51100000000E-03 0.  1.
         11   -1    0    0    0    0 -0.00000000000E+00 -0.00000000000E+00 -0.45593999997E+02  0.45594000000E+02  0.51100000000E-03 0. -1.
         23    2    1    2    0    0 -0.35527136788E-14  0.00000000000E+00  0.00000000000E+00  0.91188000000E+02  0.91188000000E+02 0.  0.
    9900012    2    3    3    0    0  0.25190700377E+02 -0.26479391183E+02 -0.44791420233E+01  0.54366915603E+02  0.39999615697E+02 0.  0.
         12    1    3    3    0    0 -0.25190700377E+02  0.26479391183E+02  0.44791420233E+01  0.36821084397E+02  0.00000000000E+00 0. -1.
         11    1    4    4    0    0  0.47909673488E-02 -0.11169669571E+02  0.31397768960E+01  0.11602574736E+02  0.51100000000E-03 0. -1.
        -11    1    4    4    0    0  0.28889096326E+02 -0.20569551987E+02 -0.78705500413E+01  0.36326738275E+02  0.51100000000E-03 0.  1.
        -12    1    4    4    0    0 -0.37031869164E+01  0.52598303748E+01  0.25163112196E+00  0.64376025919E+01  0.00000000000E+00 0.  1.
</event>
<event>
 8    1  0.1269154E-006  0.9118800E+02  0.7816164E-02  0.1184000E+00
        -11   -1    0    0    0    0  0.00000000000E+00  0.00000000000E+00  0.45593999997E+02  0.45594000000E+02  0.51100000000E-03 0.  1.
         11   -1    0    0    0    0 -0.00000000000E+00 -0.00000000000E+00 -0.45593999997E+02  0.45594000000E+02  0.51100000000E-03 0. -1.
         23    2    1    2    0    0  0.00000000000E+00 -0.20469737017E-15  0.00000000000E+00  0.91188000000E+02  0.91188000000E+02 0.  0.
    9900012    2    3    3    0    0  0.31088744676E+02  0.22864774543E-01  0.19729799442E+02  0.54367142400E+02  0.40000132730E+02 0.  0.
         12    1    3    3    0    0 -0.31088744676E+02 -0.22864774543E-01 -0.19729799442E+02  0.36820857600E+02  0.00000000000E+00 0. -1.
         11    1    4    4    0    0  0.11621753637E+02  0.26516253528E+01 -0.10975281828E+01  0.11970833011E+02  0.51100000000E-03 0. -1.
        -11    1    4    4    0    0  0.14818740615E+02  0.11054362158E+02  0.20954943285E+02  0.27944653236E+02  0.51100000000E-03 0.  1.
        -12    1    4    4    0    0  0.46482504244E+01 -0.13683122736E+02 -0.12761566072E+00  0.14451656153E+02  0.00000000000E+00 0.  1.
</event>
<event>
 8    1  0.1269154E-006  0.9118800E+02  0.7816164E-02  0.1184000E+00
        -11   -1    0    0    0    0  0.00000000000E+00  0.00000000000E+00  0.45593999997E+02  0.45594000000E+02  0.51100000000E-03 0. -1.
         11   -1    0    0    0    0 -0.00000000000E+00 -0.00000000000E+00 -0.45593999997E+02  0.45594000000E+02  0.51100000000E-03 0.  1.
         23    2    1    2    0    0 -0.71054273576E-14  0.00000000000E+00  0.15543122345E-14  0.91188000000E+02  0.91188000000E+02 0.  0.
    9900012    2    3    3    0    0  0.35343627932E+02 -0.10317074232E+02  0.40874301629E+00  0.54367066729E+02  0.39999960223E+02 0.  0.
        -12    1    3    3    0    0 -0.35343627932E+02  0.10317074232E+02 -0.40874301629E+00  0.36820933271E+02  0.00000000000E+00 0.  1.
         11    1    4    4    0    0  0.22404388158E+02 -0.10929893811E+02  0.13953635727E+02  0.28567868974E+02  0.51100000000E-03 0. -1.
        -11    1    4    4    0    0 -0.36428955028E+01 -0.31381659298E+01 -0.42817631115E+01  0.64383436264E+01  0.51100000000E-03 0.  1.
         12    1    4    4    0    0  0.16582135276E+02  0.37509855092E+01 -0.92631295996E+01  0.19360854129E+02  0.00000000000E+00 0. -1.
</event>
<event>
 8    1  0.1269154E-006  0.9118800E+02  0.7816164E-02  0.1184000E+00
        -11   -1    0    0    0    0  0.00000000000E+00  0.00000000000E+00  0.45593999997E+02  0.45594000000E+02  0.51100000000E-03 0. -1.
         11   -1    0    0    0    0 -0.00000000000E+00 -0.00000000000E+00 -0.45593999997E+02  0.45594000000E+02  0.51100000000E-03 0.  1.
         23    2    1    2    0    0  0.35527136788E-14  0.71054273576E-14  0.88817841970E-15  0.91188000000E+02  0.91188000000E+02 0.  0.
    9900012    2    3    3    0    0  0.22529988773E+02 -0.28679594717E+02 -0.50663194097E+01  0.54366985082E+02  0.39999774090E+02 0.  0.
        -12    1    3    3    0    0 -0.22529988773E+02  0.28679594717E+02  0.50663194097E+01  0.36821014918E+02  0.00000000000E+00 0.  1.
         11    1    4    4    0    0  0.81264097792E+00 -0.14453467701E+02  0.97606389701E+01  0.17459472710E+02  0.51100000000E-03 0. -1.
        -11    1    4    4    0    0  0.18116632758E+01  0.49662411787E+01 -0.57356333544E+01  0.78002029145E+01  0.51100000000E-03 0.  1.
        -12    1    4    4    0    0  0.19905684520E+02 -0.19192368195E+02 -0.90913250254E+01  0.29107309457E+02  0.00000000000E+00 0.  1.
</event>
<event>
 8    1  0.1269154E-006  0.9118800E+02  0.7816164E-02  0.1184000E+00
        -11   -1    0    0    0    0  0.00000000000E+00  0.00000000000E+00  0.45593999997E+02  0.45594000000E+02  0.51100000000E-03 0.  1.
         11   -1    0    0    0    0 -0.00000000000E+00 -0.00000000000E+00 -0.45593999997E+02  0.45594000000E+02  0.51100000000E-03 0. -1.
         23    2    1    2    0    0 -0.35527136788E-14 -0.35527136788E-14  0.00000000000E+00  0.91188000000E+02  0.91188000000E+02 0.  0.
    9900012    2    3    3    0    0 -0.20968845745E+02 -0.22789015542E+02  0.19918511626E+02  0.54367097966E+02  0.40000031432E+02 0.  0.
         12    1    3    3    0    0  0.20968845745E+02  0.22789015542E+02 -0.19918511626E+02  0.36820902034E+02  0.00000000000E+00 0. -1.
         11    1    4    4    0    0  0.18098102555E+01 -0.15968829397E+02  0.87556761559E+00  0.16094891872E+02  0.51100000000E-03 0. -1.
        -11    1    4    4    0    0 -0.37303566629E+01 -0.12343773418E+02  0.44214386455E+01  0.13632073319E+02  0.51100000000E-03 0.  1.
         12    1    4    4    0    0 -0.19048299337E+02  0.55235872727E+01  0.14621505364E+02  0.24640132774E+02  0.00000000000E+00 0. -1.
</event>
<event>
 8    1  0.1269154E-006  0.9118800E+02  0.7816164E-02  0.1184000E+00
        -11   -1    0    0    0    0  0.00000000000E+00  0.00000000000E+00  0.45593999997E+02  0.45594000000E+02  0.51100000000E-03 0.  1.
         11   -1    0    0    0    0 -0.00000000000E+00 -0.00000000000E+00 -0.45593999997E+02  0.45594000000E+02  0.51100000000E-03 0. -1.
         23    2    1    2    0    0 -0.35527136788E-14  0.00000000000E+00 -0.88817841970E-15  0.91188000000E+02  0.91188000000E+02 0.  0.
    9900012    2    3    3    0    0 -0.29336879194E+02  0.21368643290E+02  0.62054388608E+01  0.54367097399E+02  0.40000030141E+02 0.  0.
         12    1    3    3    0    0  0.29336879194E+02 -0.21368643290E+02 -0.62054388608E+01  0.36820902601E+02  0.00000000000E+00 0. -1.
         11    1    4    4    0    0 -0.14186738189E+02  0.17966622225E+02  0.90416722959E+01  0.24613307230E+02  0.51100000000E-03 0.  1.
        -11    1    4    4    0    0 -0.67863482408E+01  0.52723210374E+01 -0.13542922685E+02  0.16039409175E+02  0.51100000000E-03 0. -1.
         12    1    4    4    0    0 -0.83637927639E+01 -0.18702999729E+01  0.10706689250E+02  0.13714380995E+02  0.00000000000E+00 0. -1.
</event>
<event>
 8    1  0.1269154E-006  0.9118800E+02  0.7816164E-02  0.1184000E+00
        -11   -1    0    0    0    0  0.00000000000E+00  0.00000000000E+00  0.45593999997E+02  0.45594000000E+02  0.51100000000E-03 0. -1.
         11   -1    0    0    0    0 -0.00000000000E+00 -0.00000000000E+00 -0.45593999997E+02  0.45594000000E+02  0.51100000000E-03 0.  1.
         23    2    1    2    0    0  0.00000000000E+00  0.35527136788E-14  0.71054273576E-14  0.91188000000E+02  0.91188000000E+02 0.  0.
    9900012    2    3    3    0    0 -0.83848390904E+01  0.20261653004E+02  0.29579391024E+02  0.54367075481E+02  0.39999980175E+02 0.  0.
        -12    1    3    3    0    0  0.83848390904E+01 -0.20261653004E+02 -0.29579391024E+02  0.36820924519E+02  0.00000000000E+00 0.  1.
         11    1    4    4    0    0  0.10476539620E+01  0.11938847121E+02  0.33153715844E+02  0.35253404431E+02  0.51100000000E-03 0. -1.
        -11    1    4    4    0    0 -0.81648635284E+01  0.34674277882E+01  0.42360467162E+01  0.98301650010E+01  0.51100000000E-03 0.  1.
        -12    1    4    4    0    0 -0.12676295240E+01  0.48553780943E+01 -0.78103715359E+01  0.92835060499E+01  0.00000000000E+00 0.  1.
</event>
<event>
 8    1  0.1269154E-006  0.9118800E+02  0.7816164E-02  0.1184000E+00
        -11   -1    0    0    0    0  0.00000000000E+00  0.00000000000E+00  0.45593999997E+02  0.45594000000E+02  0.51100000000E-03 0.  1.
         11   -1    0    0    0    0 -0.00000000000E+00 -0.00000000000E+00 -0.45593999997E+02  0.45594000000E+02  0.51100000000E-03 0. -1.
         23    2    1    2    0    0 -0.35527136788E-14 -0.95756735874E-15  0.71054273576E-14  0.91188000000E+02  0.91188000000E+02 0.  0.
    9900012    2    3    3    0    0  0.16432516110E+02  0.10032855573E+00 -0.32950574653E+02  0.54367108898E+02  0.40000056356E+02 0.  0.
        -12    1    3    3    0    0 -0.16432516110E+02 -0.10032855573E+00  0.32950574653E+02  0.36820891102E+02  0.00000000000E+00 0.  1.
         11    1    4    4    0    0 -0.51304673318E+01 -0.99822473774E+01 -0.12344662987E+01  0.11291185281E+02  0.51100000000E-03 0. -1.
        -11    1    4    4    0    0  0.85253898350E+01  0.77541854826E+01 -0.37276764352E+01  0.12112193699E+02  0.51100000000E-03 0.  1.
         12    1    4    4    0    0  0.13037593607E+02  0.23283904506E+01 -0.27988431920E+02  0.30963729918E+02  0.00000000000E+00 0. -1.
</event>
<event>
 8    1  0.1269154E-006  0.9118800E+02  0.7816164E-02  0.1184000E+00
        -11   -1    0    0    0    0  0.00000000000E+00  0.00000000000E+00  0.45593999997E+02  0.45594000000E+02  0.51100000000E-03 0. -1.
         11   -1    0    0    0    0 -0.00000000000E+00 -0.00000000000E+00 -0.45593999997E+02  0.45594000000E+02  0.51100000000E-03 0.  1.
         23    2    1    2    0    0  0.00000000000E+00  0.00000000000E+00 -0.35527136788E-14  0.91188000000E+02  0.91188000000E+02 0.  0.
    9900012    2    3    3    0    0 -0.73301311395E+01  0.18621728873E+02  0.30907605386E+02  0.54367086385E+02  0.40000005031E+02 0.  0.
        -12    1    3    3    0    0  0.73301311395E+01 -0.18621728873E+02 -0.30907605386E+02  0.36820913615E+02  0.00000000000E+00 0.  1.
         11    1    4    4    0    0 -0.18958260153E+01 -0.68674216090E+01  0.31644886331E+01  0.77954874387E+01  0.51100000000E-03 0. -1.
        -11    1    4    4    0    0  0.36017987943E+00  0.24611452632E+02  0.31220956231E+02  0.39756778522E+02  0.51100000000E-03 0.  1.
        -12    1    4    4    0    0 -0.57944850036E+01  0.87769785000E+00 -0.34778394778E+01  0.68148204237E+01  0.00000000000E+00 0.  1.
</event>
<event>
 8    1  0.1269154E-006  0.9118800E+02  0.7816164E-02  0.1184000E+00
        -11   -1    0    0    0    0  0.00000000000E+00  0.00000000000E+00  0.45593999997E+02  0.45594000000E+02  0.51100000000E-03 0. -1.
         11   -1    0    0    0    0 -0.00000000000E+00 -0.00000000000E+00 -0.45593999997E+02  0.45594000000E+02  0.51100000000E-03 0.  1.
         23    2    1    2    0    0  0.00000000000E+00  0.00000000000E+00 -0.35527136788E-14  0.91188000000E+02  0.91188000000E+02 0.  0.
    9900012    2    3    3    0    0  0.17856627075E+02 -0.17758065544E+02  0.26862113791E+02  0.54367066012E+02  0.39999958589E+02 0.  0.
         12    1    3    3    0    0 -0.17856627075E+02  0.17758065544E+02 -0.26862113791E+02  0.36820933988E+02  0.00000000000E+00 0. -1.
         11    1    4    4    0    0 -0.14104697689E+01  0.25822847990E+01  0.45638310014E+01  0.54301172569E+01  0.51100000000E-03 0. -1.
        -11    1    4    4    0    0 -0.21768060305E+00 -0.20763679957E+02  0.20798873334E+02  0.29389979967E+02  0.51100000000E-03 0.  1.
         12    1    4    4    0    0  0.19484777447E+02  0.42332961391E+00  0.14994094559E+01  0.19546968789E+02  0.00000000000E+00 0. -1.
</event>
<event>
 8    1  0.1269154E-006  0.9118800E+02  0.7816164E-02  0.1184000E+00
        -11   -1    0    0    0    0  0.00000000000E+00  0.00000000000E+00  0.45593999997E+02  0.45594000000E+02  0.51100000000E-03 0.  1.
         11   -1    0    0    0    0 -0.00000000000E+00 -0.00000000000E+00 -0.45593999997E+02  0.45594000000E+02  0.51100000000E-03 0. -1.
         23    2    1    2    0    0 -0.71054273576E-14  0.88817841970E-15 -0.22204460493E-15  0.91188000000E+02  0.91188000000E+02 0.  0.
    9900012    2    3    3    0    0 -0.36206584322E+02  0.64663159663E+01  0.17463749723E+01  0.54367084531E+02  0.40000000805E+02 0.  0.
         12    1    3    3    0    0  0.36206584322E+02 -0.64663159663E+01 -0.17463749723E+01  0.36820915469E+02  0.00000000000E+00 0. -1.
         11    1    4    4    0    0 -0.38260124068E+00 -0.41145653404E+01 -0.49469956141E+01  0.64458356725E+01  0.51100000000E-03 0. -1.
        -11    1    4    4    0    0 -0.19063567001E+02 -0.86839726122E+01 -0.17627429665E+01  0.21022326944E+02  0.51100000000E-03 0.  1.
         12    1    4    4    0    0 -0.16760416081E+02  0.19264853919E+02  0.84561135529E+01  0.26898921914E+02  0.00000000000E+00 0. -1.
</event>
<event>
 8    1  0.1269154E-006  0.9118800E+02  0.7816164E-02  0.1184000E+00
        -11   -1    0    0    0    0  0.00000000000E+00  0.00000000000E+00  0.45593999997E+02  0.45594000000E+02  0.51100000000E-03 0.  1.
         11   -1    0    0    0    0 -0.00000000000E+00 -0.00000000000E+00 -0.45593999997E+02  0.45594000000E+02  0.51100000000E-03 0. -1.
         23    2    1    2    0    0  0.71054273576E-14 -0.71054273576E-14  0.17763568394E-14  0.91188000000E+02  0.91188000000E+02 0.  0.
    9900012    2    3    3    0    0  0.26742509607E+02 -0.22558409031E+02  0.11477057963E+02  0.54367265385E+02  0.40000413097E+02 0.  0.
         12    1    3    3    0    0 -0.26742509607E+02  0.22558409031E+02 -0.11477057963E+02  0.36820734615E+02  0.00000000000E+00 0. -1.
         11    1    4    4    0    0  0.11636316818E+02  0.15582010439E+01  0.46125617170E+01  0.12613785531E+02  0.51100000000E-03 0.  1.
        -11    1    4    4    0    0 -0.71316068016E+01  0.13831058103E+01  0.18870082027E+00  0.72669392124E+01  0.51100000000E-03 0. -1.
        -12    1    4    4    0    0  0.22237799591E+02 -0.25499715885E+02  0.66757954258E+01  0.34486540642E+02  0.00000000000E+00 0.  1.
</event>
<event>
 8    1  0.1269154E-006  0.9118800E+02  0.7816164E-02  0.1184000E+00
        -11   -1    0    0    0    0  0.00000000000E+00  0.00000000000E+00  0.45593999997E+02  0.45594000000E+02  0.51100000000E-03 0.  1.
         11   -1    0    0    0    0 -0.00000000000E+00 -0.00000000000E+00 -0.45593999997E+02  0.45594000000E+02  0.51100000000E-03 0. -1.
         23    2    1    2    0    0  0.71054273576E-14  0.17763568394E-14  0.00000000000E+00  0.91188000000E+02  0.91188000000E+02 0.  0.
    9900012    2    3    3    0    0 -0.26351431331E+02 -0.10384235413E+02  0.23527636434E+02  0.54367082650E+02  0.39999996517E+02 0.  0.
         12    1    3    3    0    0  0.26351431331E+02  0.10384235413E+02 -0.23527636434E+02  0.36820917350E+02  0.00000000000E+00 0. -1.
         11    1    4    4    0    0 -0.19903238445E+02  0.16851620051E+01 -0.97797471111E+00  0.19998377593E+02  0.51100000000E-03 0. -1.
        -11    1    4    4    0    0 -0.89251154394E+01 -0.14041662827E+02  0.97652470268E+01  0.19292123530E+02  0.51100000000E-03 0.  1.
        -12    1    4    4    0    0  0.24769225528E+01  0.19722654085E+01  0.14740364119E+02  0.15076581526E+02  0.00000000000E+00 0.  1.
</event>
<event>
 8    1  0.1269154E-006  0.9118800E+02  0.7816164E-02  0.1184000E+00
        -11   -1    0    0    0    0  0.00000000000E+00  0.00000000000E+00  0.45593999997E+02  0.45594000000E+02  0.51100000000E-03 0. -1.
         11   -1    0    0    0    0 -0.00000000000E+00 -0.00000000000E+00 -0.45593999997E+02  0.45594000000E+02  0.51100000000E-03 0.  1.
         23    2    1    2    0    0  0.35527136788E-14  0.35527136788E-14  0.00000000000E+00  0.91188000000E+02  0.91188000000E+02 0.  0.
    9900012    2    3    3    0    0 -0.24661943018E+02 -0.25810641493E+02 -0.90210487820E+01  0.54367082455E+02  0.39999996073E+02 0.  0.
         12    1    3    3    0    0  0.24661943018E+02  0.25810641493E+02  0.90210487820E+01  0.36820917545E+02  0.00000000000E+00 0. -1.
         11    1    4    4    0    0 -0.32722939592E+01 -0.29475924516E+02 -0.48739598585E+01  0.30054841853E+02  0.51100000000E-03 0. -1.
        -11    1    4    4    0    0 -0.14535010781E+02 -0.92641544387E+00  0.98178142164E+00  0.14597557296E+02  0.51100000000E-03 0.  1.
         12    1    4    4    0    0 -0.68546382780E+01  0.45916984670E+01 -0.51288703451E+01  0.97146833068E+01  0.00000000000E+00 0. -1.
</event>
<event>
 8    1  0.1269154E-006  0.9118800E+02  0.7816164E-02  0.1184000E+00
        -11   -1    0    0    0    0  0.00000000000E+00  0.00000000000E+00  0.45593999997E+02  0.45594000000E+02  0.51100000000E-03 0. -1.
         11   -1    0    0    0    0 -0.00000000000E+00 -0.00000000000E+00 -0.45593999997E+02  0.45594000000E+02  0.51100000000E-03 0.  1.
         23    2    1    2    0    0  0.00000000000E+00  0.13322676296E-14  0.00000000000E+00  0.91188000000E+02  0.91188000000E+02 0.  0.
    9900012    2    3    3    0    0  0.27248368770E+01 -0.15485148625E+01  0.36687284900E+02  0.54367088718E+02  0.40000010351E+02 0.  0.
        -12    1    3    3    0    0 -0.27248368770E+01  0.15485148625E+01 -0.36687284900E+02  0.36820911282E+02  0.00000000000E+00 0.  1.
         11    1    4    4    0    0  0.80833353149E+01 -0.13710163548E+01  0.17305467587E+02  0.19149391748E+02  0.51100000000E-03 0. -1.
        -11    1    4    4    0    0 -0.12695252135E+02  0.10119774190E+02  0.14143817885E+02  0.21531995752E+02  0.51100000000E-03 0.  1.
        -12    1    4    4    0    0  0.73367536976E+01 -0.10297272698E+02  0.52379994282E+01  0.13685701218E+02  0.00000000000E+00 0.  1.
</event>
<event>
 8    1  0.1269154E-006  0.9118800E+02  0.7816164E-02  0.1184000E+00
        -11   -1    0    0    0    0  0.00000000000E+00  0.00000000000E+00  0.45593999997E+02  0.45594000000E+02  0.51100000000E-03 0. -1.
         11   -1    0    0    0    0 -0.00000000000E+00 -0.00000000000E+00 -0.45593999997E+02  0.45594000000E+02  0.51100000000E-03 0.  1.
         23    2    1    2    0    0  0.00000000000E+00  0.00000000000E+00 -0.35527136788E-14  0.91188000000E+02  0.91188000000E+02 0.  0.
    9900012    2    3    3    0    0  0.26462255423E+02  0.20719839703E+02  0.15040557277E+02  0.54367067332E+02  0.39999961597E+02 0.  0.
        -12    1    3    3    0    0 -0.26462255423E+02 -0.20719839703E+02 -0.15040557277E+02  0.36820932668E+02  0.00000000000E+00 0.  1.
         11    1    4    4    0    0 -0.16232911894E+01  0.93321408234E+01 -0.39414121226E+01  0.10259564144E+02  0.51100000000E-03 0. -1.
        -11    1    4    4    0    0  0.22937529978E+01  0.13302522351E+02  0.97284440062E+01  0.16639141407E+02  0.51100000000E-03 0.  1.
         12    1    4    4    0    0  0.25791793614E+02 -0.19148234718E+01  0.92535253932E+01  0.27468361782E+02  0.00000000000E+00 0. -1.
</event>
<event>
 8    1  0.1269154E-006  0.9118800E+02  0.7816164E-02  0.1184000E+00
        -11   -1    0    0    0    0  0.00000000000E+00  0.00000000000E+00  0.45593999997E+02  0.45594000000E+02  0.51100000000E-03 0.  1.
         11   -1    0    0    0    0 -0.00000000000E+00 -0.00000000000E+00 -0.45593999997E+02  0.45594000000E+02  0.51100000000E-03 0. -1.
         23    2    1    2    0    0 -0.11379786002E-14  0.00000000000E+00  0.35527136788E-14  0.91188000000E+02  0.91188000000E+02 0.  0.
    9900012    2    3    3    0    0  0.14323000531E+00 -0.21087087521E+02  0.30184369512E+02  0.54367055718E+02  0.39999935121E+02 0.  0.
         12    1    3    3    0    0 -0.14323000531E+00  0.21087087521E+02 -0.30184369512E+02  0.36820944282E+02  0.00000000000E+00 0. -1.
         11    1    4    4    0    0  0.42277449151E+01  0.25010198924E+01  0.87980154073E+01  0.10076408236E+02  0.51100000000E-03 0. -1.
        -11    1    4    4    0    0 -0.10159233065E+02  0.37124459251E+01  0.60731409704E+01  0.12404648835E+02  0.51100000000E-03 0.  1.
         12    1    4    4    0    0  0.60747181550E+01 -0.27300553339E+02  0.15313213134E+02  0.31885998648E+02  0.00000000000E+00 0. -1.
</event>
<event>
 8    1  0.1269154E-006  0.9118800E+02  0.7816164E-02  0.1184000E+00
        -11   -1    0    0    0    0  0.00000000000E+00  0.00000000000E+00  0.45593999997E+02  0.45594000000E+02  0.51100000000E-03 0. -1.
         11   -1    0    0    0    0 -0.00000000000E+00 -0.00000000000E+00 -0.45593999997E+02  0.45594000000E+02  0.51100000000E-03 0.  1.
         23    2    1    2    0    0  0.00000000000E+00 -0.17763568394E-14 -0.35527136788E-14  0.91188000000E+02  0.91188000000E+02 0.  0.
    9900012    2    3    3    0    0 -0.28645689201E+02 -0.89920369650E+01 -0.21315394029E+02  0.54367105644E+02  0.40000048936E+02 0.  0.
         12    1    3    3    0    0  0.28645689201E+02  0.89920369650E+01  0.21315394029E+02  0.36820894356E+02  0.00000000000E+00 0. -1.
         11    1    4    4    0    0  0.14863802691E+01  0.64917071877E+01 -0.11305870753E+02  0.13121520577E+02  0.51100000000E-03 0. -1.
        -11    1    4    4    0    0 -0.25208604236E+02 -0.80134844371E+01 -0.15587130722E+02  0.30702578145E+02  0.51100000000E-03 0.  1.
        -12    1    4    4    0    0 -0.49234652339E+01 -0.74702597155E+01  0.55776074456E+01  0.10543006921E+02  0.00000000000E+00 0.  1.
</event>
<event>
 8    1  0.1269154E-006  0.9118800E+02  0.7816164E-02  0.1184000E+00
        -11   -1    0    0    0    0  0.00000000000E+00  0.00000000000E+00  0.45593999997E+02  0.45594000000E+02  0.51100000000E-03 0.  1.
         11   -1    0    0    0    0 -0.00000000000E+00 -0.00000000000E+00 -0.45593999997E+02  0.45594000000E+02  0.51100000000E-03 0. -1.
         23    2    1    2    0    0 -0.88817841970E-15 -0.35527136788E-14  0.00000000000E+00  0.91188000000E+02  0.91188000000E+02 0.  0.
    9900012    2    3    3    0    0  0.44992071905E+01 -0.22651563886E+02 -0.28678319586E+02  0.54367051804E+02  0.39999926196E+02 0.  0.
        -12    1    3    3    0    0 -0.44992071905E+01  0.22651563886E+02  0.28678319586E+02  0.36820948196E+02  0.00000000000E+00 0.  1.
         11    1    4    4    0    0  0.59252613921E+01 -0.24911152072E+02 -0.21199550428E+02  0.33242971569E+02  0.51100000000E-03 0. -1.
        -11    1    4    4    0    0  0.80182467060E+01  0.42817536698E+01 -0.30852942185E+00  0.90951022750E+01  0.51100000000E-03 0.  1.
        -12    1    4    4    0    0 -0.94443009076E+01 -0.20221654834E+01 -0.71702397357E+01  0.12028977959E+02  0.00000000000E+00 0.  1.
</event>
<event>
 8    1  0.1269154E-006  0.9118800E+02  0.7816164E-02  0.1184000E+00
        -11   -1    0    0    0    0  0.00000000000E+00  0.00000000000E+00  0.45593999997E+02  0.45594000000E+02  0.51100000000E-03 0.  1.
         11   -1    0    0    0    0 -0.00000000000E+00 -0.00000000000E+00 -0.45593999997E+02  0.45594000000E+02  0.51100000000E-03 0. -1.
         23    2    1    2    0    0  0.00000000000E+00 -0.27755575616E-15  0.17763568394E-14  0.91188000000E+02  0.91188000000E+02 0.  0.
    9900012    2    3    3    0    0 -0.35657864858E+02 -0.27816381400E+00  0.91770936330E+01  0.54367085442E+02  0.40000002883E+02 0.  0.
         12    1    3    3    0    0  0.35657864858E+02  0.27816381400E+00 -0.91770936330E+01  0.36820914558E+02  0.00000000000E+00 0. -1.
         11    1    4    4    0    0 -0.20253806431E+02 -0.23365873064E+01  0.22418854921E+02  0.30303157780E+02  0.51100000000E-03 0.  1.
        -11    1    4    4    0    0 -0.23234451361E+01  0.52083266033E+01 -0.75330905753E+01  0.94484134744E+01  0.51100000000E-03 0. -1.
         12    1    4    4    0    0 -0.13080613291E+02 -0.31499031109E+01 -0.57086707131E+01  0.14615514188E+02  0.00000000000E+00 0. -1.
</event>
<event>
 8    1  0.1269154E-006  0.9118800E+02  0.7816164E-02  0.1184000E+00
        -11   -1    0    0    0    0  0.00000000000E+00  0.00000000000E+00  0.45593999997E+02  0.45594000000E+02  0.51100000000E-03 0.  1.
         11   -1    0    0    0    0 -0.00000000000E+00 -0.00000000000E+00 -0.45593999997E+02  0.45594000000E+02  0.51100000000E-03 0. -1.
         23    2    1    2    0    0  0.88817841970E-15 -0.88817841970E-15  0.00000000000E+00  0.91188000000E+02  0.91188000000E+02 0.  0.
    9900012    2    3    3    0    0  0.49426620008E+01 -0.79231459026E+01 -0.35617052645E+02  0.54367074051E+02  0.39999976913E+02 0.  0.
        -12    1    3    3    0    0 -0.49426620008E+01  0.79231459026E+01  0.35617052645E+02  0.36820925949E+02  0.00000000000E+00 0.  1.
         11    1    4    4    0    0  0.12912195405E+02 -0.15101465943E+02 -0.21058513614E+02  0.28952375718E+02  0.51100000000E-03 0. -1.
        -11    1    4    4    0    0 -0.53365884922E+01 -0.51843627412E+01 -0.22526677347E+01  0.77737575182E+01  0.51100000000E-03 0.  1.
         12    1    4    4    0    0 -0.26329449121E+01  0.12362682782E+02 -0.12305871296E+02  0.17640940815E+02  0.00000000000E+00 0. -1.
</event>
<event>
 8    1  0.1269154E-006  0.9118800E+02  0.7816164E-02  0.1184000E+00
        -11   -1    0    0    0    0  0.00000000000E+00  0.00000000000E+00  0.45593999997E+02  0.45594000000E+02  0.51100000000E-03 0.  1.
         11   -1    0    0    0    0 -0.00000000000E+00 -0.00000000000E+00 -0.45593999997E+02  0.45594000000E+02  0.51100000000E-03 0. -1.
         23    2    1    2    0    0 -0.71054273576E-14  0.17763568394E-14  0.00000000000E+00  0.91188000000E+02  0.91188000000E+02 0.  0.
    9900012    2    3    3    0    0  0.35266992733E+02  0.41295194128E+01 -0.97451077529E+01  0.54367070732E+02  0.39999969349E+02 0.  0.
        -12    1    3    3    0    0 -0.35266992733E+02 -0.41295194128E+01  0.97451077529E+01  0.36820929268E+02  0.00000000000E+00 0.  1.
         11    1    4    4    0    0  0.24132605156E+02  0.16163079899E+01 -0.99122015566E+01  0.26138990475E+02  0.51100000000E-03 0. -1.
        -11    1    4    4    0    0  0.66959935725E+01 -0.99650630947E+01 -0.62232663311E+01  0.13522864212E+02  0.51100000000E-03 0.  1.
         12    1    4    4    0    0  0.44383940051E+01  0.12478274518E+02  0.63903601347E+01  0.14705216045E+02  0.00000000000E+00 0. -1.
</event>
<event>
 8    1  0.1269154E-006  0.9118800E+02  0.7816164E-02  0.1184000E+00
        -11   -1    0    0    0    0  0.00000000000E+00  0.00000000000E+00  0.45593999997E+02  0.45594000000E+02  0.51100000000E-03 0. -1.
         11   -1    0    0    0    0 -0.00000000000E+00 -0.00000000000E+00 -0.45593999997E+02  0.45594000000E+02  0.51100000000E-03 0.  1.
         23    2    1    2    0    0 -0.35527136788E-14  0.00000000000E+00  0.00000000000E+00  0.91188000000E+02  0.91188000000E+02 0.  0.
    9900012    2    3    3    0    0  0.29068456622E+02 -0.22482564729E+02  0.23106724706E+01  0.54367080749E+02  0.39999992184E+02 0.  0.
         12    1    3    3    0    0 -0.29068456622E+02  0.22482564729E+02 -0.23106724706E+01  0.36820919251E+02  0.00000000000E+00 0. -1.
         11    1    4    4    0    0  0.12712900432E+02  0.39386708055E+01 -0.12946725164E+02  0.18567408485E+02  0.51100000000E-03 0. -1.
        -11    1    4    4    0    0  0.32355357127E+00  0.39015165199E+00 -0.58426841921E+00  0.77348243150E+00  0.51100000000E-03 0.  1.
         12    1    4    4    0    0  0.16032002619E+02 -0.26811387187E+02  0.15841666054E+02  0.35026189833E+02  0.00000000000E+00 0. -1.
</event>
<event>
 8    1  0.1269154E-006  0.9118800E+02  0.7816164E-02  0.1184000E+00
        -11   -1    0    0    0    0  0.00000000000E+00  0.00000000000E+00  0.45593999997E+02  0.45594000000E+02  0.51100000000E-03 0.  1.
         11   -1    0    0    0    0 -0.00000000000E+00 -0.00000000000E+00 -0.45593999997E+02  0.45594000000E+02  0.51100000000E-03 0. -1.
         23    2    1    2    0    0  0.71054273576E-14 -0.35527136788E-14 -0.17763568394E-14  0.91188000000E+02  0.91188000000E+02 0.  0.
    9900012    2    3    3    0    0 -0.29296403638E+02  0.15653371689E+02  0.15889398948E+02  0.54367077819E+02  0.39999985503E+02 0.  0.
        -12    1    3    3    0    0  0.29296403638E+02 -0.15653371689E+02 -0.15889398948E+02  0.36820922181E+02  0.00000000000E+00 0.  1.
         11    1    4    4    0    0  0.14550451180E+01  0.20593136904E+01  0.53310237852E+00  0.25772325425E+01  0.51100000000E-03 0. -1.
        -11    1    4    4    0    0  0.55965000206E+01  0.61836274495E+01  0.11902611145E+02  0.14533761153E+02  0.51100000000E-03 0.  1.
         12    1    4    4    0    0 -0.36347948777E+02  0.74104305495E+01  0.34536854241E+01  0.37256084123E+02  0.00000000000E+00 0. -1.
</event>
<event>
 8    1  0.1269154E-006  0.9118800E+02  0.7816164E-02  0.1184000E+00
        -11   -1    0    0    0    0  0.00000000000E+00  0.00000000000E+00  0.45593999997E+02  0.45594000000E+02  0.51100000000E-03 0.  1.
         11   -1    0    0    0    0 -0.00000000000E+00 -0.00000000000E+00 -0.45593999997E+02  0.45594000000E+02  0.51100000000E-03 0. -1.
         23    2    1    2    0    0  0.35527136788E-14  0.88817841970E-15  0.00000000000E+00  0.91188000000E+02  0.91188000000E+02 0.  0.
    9900012    2    3    3    0    0  0.23002202046E+02  0.20267633293E+01 -0.28680495089E+02  0.54367083837E+02  0.39999999223E+02 0.  0.
        -12    1    3    3    0    0 -0.23002202046E+02 -0.20267633293E+01  0.28680495089E+02  0.36820916163E+02  0.00000000000E+00 0.  1.
         11    1    4    4    0    0  0.54376792697E+01 -0.68820761825E+01 -0.88635812254E+00  0.88157222849E+01  0.51100000000E-03 0. -1.
        -11    1    4    4    0    0  0.14077872889E+02 -0.73681279384E+00  0.18174564861E+01  0.14213815339E+02  0.51100000000E-03 0.  1.
        -12    1    4    4    0    0  0.34866498873E+01  0.96456523057E+01 -0.29611593452E+02  0.31337546213E+02  0.00000000000E+00 0.  1.
</event>
<event>
 8    1  0.1269154E-006  0.9118800E+02  0.7816164E-02  0.1184000E+00
        -11   -1    0    0    0    0  0.00000000000E+00  0.00000000000E+00  0.45593999997E+02  0.45594000000E+02  0.51100000000E-03 0. -1.
         11   -1    0    0    0    0 -0.00000000000E+00 -0.00000000000E+00 -0.45593999997E+02  0.45594000000E+02  0.51100000000E-03 0.  1.
         23    2    1    2    0    0  0.00000000000E+00  0.00000000000E+00  0.00000000000E+00  0.91188000000E+02  0.91188000000E+02 0.  0.
    9900012    2    3    3    0    0 -0.88099155243E+01 -0.17921494769E+02 -0.30935133607E+02  0.54367121716E+02  0.40000085576E+02 0.  0.
         12    1    3    3    0    0  0.88099155243E+01  0.17921494769E+02  0.30935133607E+02  0.36820878284E+02  0.00000000000E+00 0. -1.
         11    1    4    4    0    0 -0.93020816675E+01  0.78578236078E+01 -0.67760237984E+01  0.13935157479E+02  0.51100000000E-03 0. -1.
        -11    1    4    4    0    0 -0.41110890325E+01 -0.26938850340E+02 -0.18012927049E+02  0.32666010650E+02  0.51100000000E-03 0.  1.
        -12    1    4    4    0    0  0.46032551757E+01  0.11595319635E+01 -0.61461827602E+01  0.77659535865E+01  0.00000000000E+00 0.  1.
</event>
<event>
 8    1  0.1269154E-006  0.9118800E+02  0.7816164E-02  0.1184000E+00
        -11   -1    0    0    0    0  0.00000000000E+00  0.00000000000E+00  0.45593999997E+02  0.45594000000E+02  0.51100000000E-03 0. -1.
         11   -1    0    0    0    0 -0.00000000000E+00 -0.00000000000E+00 -0.45593999997E+02  0.45594000000E+02  0.51100000000E-03 0.  1.
         23    2    1    2    0    0  0.00000000000E+00 -0.35527136788E-14  0.44408920985E-15  0.91188000000E+02  0.91188000000E+02 0.  0.
    9900012    2    3    3    0    0 -0.31108359539E+02 -0.19361183491E+02 -0.36323675745E+01  0.54367088094E+02  0.40000008927E+02 0.  0.
        -12    1    3    3    0    0  0.31108359539E+02  0.19361183491E+02  0.36323675745E+01  0.36820911906E+02  0.00000000000E+00 0.  1.
         11    1    4    4    0    0 -0.18841760809E+01  0.43119260819E+01 -0.84505185665E+01  0.96723363436E+01  0.51100000000E-03 0.  1.
        -11    1    4    4    0    0 -0.11719602177E+02 -0.60681731594E+01  0.13029635054E+02  0.18545705448E+02  0.51100000000E-03 0. -1.
         12    1    4    4    0    0 -0.17504581282E+02 -0.17604936414E+02 -0.82114840619E+01  0.26149046302E+02  0.00000000000E+00 0. -1.
</event>
<event>
 8    1  0.1269154E-006  0.9118800E+02  0.7816164E-02  0.1184000E+00
        -11   -1    0    0    0    0  0.00000000000E+00  0.00000000000E+00  0.45593999997E+02  0.45594000000E+02  0.51100000000E-03 0.  1.
         11   -1    0    0    0    0 -0.00000000000E+00 -0.00000000000E+00 -0.45593999997E+02  0.45594000000E+02  0.51100000000E-03 0. -1.
         23    2    1    2    0    0  0.00000000000E+00  0.35527136788E-14  0.35527136788E-14  0.91188000000E+02  0.91188000000E+02 0.  0.
    9900012    2    3    3    0    0 -0.86316233385E+01 -0.27154556808E+02 -0.23321781947E+02  0.54367076735E+02  0.39999983032E+02 0.  0.
        -12    1    3    3    0    0  0.86316233385E+01  0.27154556808E+02  0.23321781947E+02  0.36820923265E+02  0.00000000000E+00 0.  1.
         11    1    4    4    0    0 -0.73320988176E+01 -0.13652578082E+02 -0.62523087252E+01  0.16710593228E+02  0.51100000000E-03 0. -1.
        -11    1    4    4    0    0  0.79308686582E+01 -0.20398862456E+02 -0.12886104647E+02  0.25398109387E+02  0.51100000000E-03 0.  1.
         12    1    4    4    0    0 -0.92303931792E+01  0.68968837308E+01 -0.41833685749E+01  0.12258374120E+02  0.00000000000E+00 0. -1.
</event>
<event>
 8    1  0.1269154E-006  0.9118800E+02  0.7816164E-02  0.1184000E+00
        -11   -1    0    0    0    0  0.00000000000E+00  0.00000000000E+00  0.45593999997E+02  0.45594000000E+02  0.51100000000E-03 0. -1.
         11   -1    0    0    0    0 -0.00000000000E+00 -0.00000000000E+00 -0.45593999997E+02  0.45594000000E+02  0.51100000000E-03 0.  1.
         23    2    1    2    0    0  0.71054273576E-14  0.44408920985E-15  0.17763568394E-14  0.91188000000E+02  0.91188000000E+02 0.  0.
    9900012    2    3    3    0    0  0.35915092088E+02 -0.13764518486E+01  0.79993350584E+01  0.54367111625E+02  0.40000062572E+02 0.  0.
        -12    1    3    3    0    0 -0.35915092088E+02  0.13764518486E+01 -0.79993350584E+01  0.36820888375E+02  0.00000000000E+00 0.  1.
         11    1    4    4    0    0  0.52141890384E+01  0.37376242105E+01  0.79841328366E+01  0.10242264373E+02  0.51100000000E-03 0. -1.
        -11    1    4    4    0    0  0.47630519269E+01  0.80398065462E+01 -0.96936508944E+01  0.13464472544E+02  0.51100000000E-03 0.  1.
         12    1    4    4    0    0  0.25937851122E+02 -0.13153882605E+02  0.97088531162E+01  0.30660374708E+02  0.00000000000E+00 0. -1.
</event>
<event>
 8    1  0.1269154E-006  0.9118800E+02  0.7816164E-02  0.1184000E+00
        -11   -1    0    0    0    0  0.00000000000E+00  0.00000000000E+00  0.45593999997E+02  0.45594000000E+02  0.51100000000E-03 0. -1.
         11   -1    0    0    0    0 -0.00000000000E+00 -0.00000000000E+00 -0.45593999997E+02  0.45594000000E+02  0.51100000000E-03 0.  1.
         23    2    1    2    0    0  0.71054273576E-14 -0.17763568394E-14  0.00000000000E+00  0.91188000000E+02  0.91188000000E+02 0.  0.
    9900012    2    3    3    0    0  0.35758648006E+02  0.57933442526E+01  0.65981744256E+01  0.54367086777E+02  0.40000005924E+02 0.  0.
        -12    1    3    3    0    0 -0.35758648006E+02 -0.57933442526E+01 -0.65981744256E+01  0.36820913223E+02  0.00000000000E+00 0.  1.
         11    1    4    4    0    0  0.15555665218E+02  0.12562662190E+02  0.82496566566E+01  0.21629980048E+02  0.51100000000E-03 0. -1.
        -11    1    4    4    0    0  0.16286774101E+02  0.56972624867E+01 -0.69964128874E+01  0.18619011896E+02  0.51100000000E-03 0.  1.
         12    1    4    4    0    0  0.39162086878E+01 -0.12466580424E+02  0.53449306564E+01  0.14118094832E+02  0.00000000000E+00 0. -1.
</event>
<event>
 8    1  0.1269154E-006  0.9118800E+02  0.7816164E-02  0.1184000E+00
        -11   -1    0    0    0    0  0.00000000000E+00  0.00000000000E+00  0.45593999997E+02  0.45594000000E+02  0.51100000000E-03 0. -1.
         11   -1    0    0    0    0 -0.00000000000E+00 -0.00000000000E+00 -0.45593999997E+02  0.45594000000E+02  0.51100000000E-03 0.  1.
         23    2    1    2    0    0  0.88817841970E-15  0.13322676296E-14  0.00000000000E+00  0.91188000000E+02  0.91188000000E+02 0.  0.
    9900012    2    3    3    0    0  0.33367820893E+01  0.84156031050E+00 -0.36659714240E+02  0.54367122952E+02  0.40000088393E+02 0.  0.
         12    1    3    3    0    0 -0.33367820893E+01 -0.84156031050E+00  0.36659714240E+02  0.36820877048E+02  0.00000000000E+00 0. -1.
         11    1    4    4    0    0 -0.63260709608E+01 -0.10180916084E+02 -0.15687586986E+02  0.19742609043E+02  0.51100000000E-03 0. -1.
        -11    1    4    4    0    0  0.22923547740E+01  0.37220177374E+01 -0.23535869494E+02  0.23938367938E+02  0.51100000000E-03 0.  1.
        -12    1    4    4    0    0  0.73704982761E+01  0.73004586572E+01  0.25637422397E+01  0.10686145971E+02  0.00000000000E+00 0.  1.
</event>
<event>
 8    1  0.1269154E-006  0.9118800E+02  0.7816164E-02  0.1184000E+00
        -11   -1    0    0    0    0  0.00000000000E+00  0.00000000000E+00  0.45593999997E+02  0.45594000000E+02  0.51100000000E-03 0.  1.
         11   -1    0    0    0    0 -0.00000000000E+00 -0.00000000000E+00 -0.45593999997E+02  0.45594000000E+02  0.51100000000E-03 0. -1.
         23    2    1    2    0    0  0.00000000000E+00  0.00000000000E+00  0.00000000000E+00  0.91188000000E+02  0.91188000000E+02 0.  0.
    9900012    2    3    3    0    0 -0.19132607951E+02 -0.26551761647E+02 -0.16873862513E+02  0.54367082444E+02  0.39999996048E+02 0.  0.
        -12    1    3    3    0    0  0.19132607951E+02  0.26551761647E+02  0.16873862513E+02  0.36820917556E+02  0.00000000000E+00 0.  1.
         11    1    4    4    0    0  0.52424033276E+01  0.36221904529E+01 -0.70245928907E+01  0.94840899335E+01  0.51100000000E-03 0. -1.
        -11    1    4    4    0    0 -0.20838775504E+02 -0.30758241797E+02 -0.13722407186E+02  0.39605914484E+02  0.51100000000E-03 0.  1.
        -12    1    4    4    0    0 -0.35362357747E+01  0.58428969677E+00  0.38731375639E+01  0.52770780260E+01  0.00000000000E+00 0.  1.
</event>
<event>
 8    1  0.1269154E-006  0.9118800E+02  0.7816164E-02  0.1184000E+00
        -11   -1    0    0    0    0  0.00000000000E+00  0.00000000000E+00  0.45593999997E+02  0.45594000000E+02  0.51100000000E-03 0.  1.
         11   -1    0    0    0    0 -0.00000000000E+00 -0.00000000000E+00 -0.45593999997E+02  0.45594000000E+02  0.51100000000E-03 0. -1.
         23    2    1    2    0    0  0.17763568394E-14  0.00000000000E+00  0.00000000000E+00  0.91188000000E+02  0.91188000000E+02 0.  0.
    9900012    2    3    3    0    0  0.11977072296E+02 -0.95128356648E+01 -0.33493728039E+02  0.54367161863E+02  0.40000177099E+02 0.  0.
        -12    1    3    3    0    0 -0.11977072296E+02  0.95128356648E+01  0.33493728039E+02  0.36820838137E+02  0.00000000000E+00 0.  1.
         11    1    4    4    0    0  0.12664208763E+02  0.62373927444E+01 -0.24927356419E+02  0.28647170019E+02  0.51100000000E-03 0. -1.
        -11    1    4    4    0    0 -0.64257846949E+01 -0.78417905220E+01 -0.11678517396E+02  0.15465191766E+02  0.51100000000E-03 0.  1.
        -12    1    4    4    0    0  0.57386482277E+01 -0.79084378871E+01  0.31121457760E+01  0.10254800077E+02  0.00000000000E+00 0.  1.
</event>
<event>
 8    1  0.1269154E-006  0.9118800E+02  0.7816164E-02  0.1184000E+00
        -11   -1    0    0    0    0  0.00000000000E+00  0.00000000000E+00  0.45593999997E+02  0.45594000000E+02  0.51100000000E-03 0. -1.
         11   -1    0    0    0    0 -0.00000000000E+00 -0.00000000000E+00 -0.45593999997E+02  0.45594000000E+02  0.51100000000E-03 0.  1.
         23    2    1    2    0    0  0.00000000000E+00  0.00000000000E+00  0.00000000000E+00  0.91188000000E+02  0.91188000000E+02 0.  0.
    9900012    2    3    3    0    0 -0.22099687971E+02  0.27806732235E+02 -0.97041502004E+01  0.54367067134E+02  0.39999961146E+02 0.  0.
        -12    1    3    3    0    0  0.22099687971E+02 -0.27806732235E+02  0.97041502004E+01  0.36820932866E+02  0.00000000000E+00 0.  1.
         11    1    4    4    0    0  0.33903457944E+01  0.10093298716E+00  0.31087599718E+00  0.34060646237E+01  0.51100000000E-03 0. -1.
        -11    1    4    4    0    0  0.14722663129E+01  0.21751815657E+02 -0.67435241966E+00  0.21812010542E+02  0.51100000000E-03 0.  1.
        -12    1    4    4    0    0 -0.26962300079E+02  0.59539835909E+01 -0.93406737779E+01  0.29148991968E+02  0.00000000000E+00 0.  1.
</event>
<event>
 8    1  0.1269154E-006  0.9118800E+02  0.7816164E-02  0.1184000E+00
        -11   -1    0    0    0    0  0.00000000000E+00  0.00000000000E+00  0.45593999997E+02  0.45594000000E+02  0.51100000000E-03 0. -1.
         11   -1    0    0    0    0 -0.00000000000E+00 -0.00000000000E+00 -0.45593999997E+02  0.45594000000E+02  0.51100000000E-03 0.  1.
         23    2    1    2    0    0  0.35527136788E-14  0.35527136788E-14  0.00000000000E+00  0.91188000000E+02  0.91188000000E+02 0.  0.
    9900012    2    3    3    0    0 -0.27472878077E+02  0.16414675660E+02 -0.18209343871E+02  0.54367071019E+02  0.39999970001E+02 0.  0.
         12    1    3    3    0    0  0.27472878077E+02 -0.16414675660E+02  0.18209343871E+02  0.36820928981E+02  0.00000000000E+00 0. -1.
         11    1    4    4    0    0 -0.83677202869E+00 -0.96999521460E+01 -0.24836198780E+01  0.10047767266E+02  0.51100000000E-03 0. -1.
        -11    1    4    4    0    0 -0.22969736149E+02  0.13306079871E+02 -0.15998136838E+02  0.30993562603E+02  0.51100000000E-03 0.  1.
         12    1    4    4    0    0 -0.36663698998E+01  0.12808547935E+02  0.27241284551E+00  0.13325741150E+02  0.00000000000E+00 0. -1.
</event>
<event>
 8    1  0.1269154E-006  0.9118800E+02  0.7816164E-02  0.1184000E+00
        -11   -1    0    0    0    0  0.00000000000E+00  0.00000000000E+00  0.45593999997E+02  0.45594000000E+02  0.51100000000E-03 0. -1.
         11   -1    0    0    0    0 -0.00000000000E+00 -0.00000000000E+00 -0.45593999997E+02  0.45594000000E+02  0.51100000000E-03 0.  1.
         23    2    1    2    0    0 -0.35527136788E-14  0.00000000000E+00 -0.88817841970E-15  0.91188000000E+02  0.91188000000E+02 0.  0.
    9900012    2    3    3    0    0  0.22765923474E+02  0.28577778640E+02  0.45610524282E+01  0.54367083351E+02  0.39999998115E+02 0.  0.
         12    1    3    3    0    0 -0.22765923474E+02 -0.28577778640E+02 -0.45610524282E+01  0.36820916649E+02  0.00000000000E+00 0. -1.
         11    1    4    4    0    0  0.26842421900E+00  0.17436848720E+02  0.13871634321E+02  0.22283132272E+02  0.51100000000E-03 0. -1.
        -11    1    4    4    0    0  0.66976213196E+01  0.12696365475E+02 -0.16283360406E+01  0.14446705719E+02  0.51100000000E-03 0.  1.
         12    1    4    4    0    0  0.15799877936E+02 -0.15554355551E+01 -0.76822458522E+01  0.17637245360E+02  0.00000000000E+00 0. -1.
</event>
<event>
 8    1  0.1269154E-006  0.9118800E+02  0.7816164E-02  0.1184000E+00
        -11   -1    0    0    0    0  0.00000000000E+00  0.00000000000E+00  0.45593999997E+02  0.45594000000E+02  0.51100000000E-03 0.  1.
         11   -1    0    0    0    0 -0.00000000000E+00 -0.00000000000E+00 -0.45593999997E+02  0.45594000000E+02  0.51100000000E-03 0. -1.
         23    2    1    2    0    0  0.17763568394E-14  0.00000000000E+00  0.00000000000E+00  0.91188000000E+02  0.91188000000E+02 0.  0.
    9900012    2    3    3    0    0  0.14111400481E+02  0.59758116250E+01  0.33480418694E+02  0.54367076818E+02  0.39999983221E+02 0.  0.
         12    1    3    3    0    0 -0.14111400481E+02 -0.59758116250E+01 -0.33480418694E+02  0.36820923182E+02  0.00000000000E+00 0. -1.
         11    1    4    4    0    0 -0.31754542552E+01  0.98414312913E+01  0.43626592303E+00  0.10350246751E+02  0.51100000000E-03 0. -1.
        -11    1    4    4    0    0  0.14387254437E+01  0.72199188621E+01  0.23320676609E+01  0.77224153679E+01  0.51100000000E-03 0.  1.
        -12    1    4    4    0    0  0.15848129293E+02 -0.11085538528E+02  0.30712085110E+02  0.36294414699E+02  0.00000000000E+00 0.  1.
</event>
<event>
 8    1  0.1269154E-006  0.9118800E+02  0.7816164E-02  0.1184000E+00
        -11   -1    0    0    0    0  0.00000000000E+00  0.00000000000E+00  0.45593999997E+02  0.45594000000E+02  0.51100000000E-03 0.  1.
         11   -1    0    0    0    0 -0.00000000000E+00 -0.00000000000E+00 -0.45593999997E+02  0.45594000000E+02  0.51100000000E-03 0. -1.
         23    2    1    2    0    0  0.17763568394E-14  0.35527136788E-14  0.00000000000E+00  0.91188000000E+02  0.91188000000E+02 0.  0.
    9900012    2    3    3    0    0 -0.11373267443E+02  0.16266459321E+02  0.31013408721E+02  0.54367076170E+02  0.39999981746E+02 0.  0.
         12    1    3    3    0    0  0.11373267443E+02 -0.16266459321E+02 -0.31013408721E+02  0.36820923830E+02  0.00000000000E+00 0. -1.
         11    1    4    4    0    0 -0.19069652780E+02  0.62045279116E+01  0.57701504261E+01  0.20867258084E+02  0.51100000000E-03 0. -1.
        -11    1    4    4    0    0  0.75492677581E+00  0.12982278275E+02  0.96838579329E+01  0.16213777116E+02  0.51100000000E-03 0.  1.
         12    1    4    4    0    0  0.69414585617E+01 -0.29203468659E+01  0.15559400362E+02  0.17286040970E+02  0.00000000000E+00 0. -1.
</event>
<event>
 8    1  0.1269154E-006  0.9118800E+02  0.7816164E-02  0.1184000E+00
        -11   -1    0    0    0    0  0.00000000000E+00  0.00000000000E+00  0.45593999997E+02  0.45594000000E+02  0.51100000000E-03 0.  1.
         11   -1    0    0    0    0 -0.00000000000E+00 -0.00000000000E+00 -0.45593999997E+02  0.45594000000E+02  0.51100000000E-03 0. -1.
         23    2    1    2    0    0  0.66613381478E-15  0.00000000000E+00  0.00000000000E+00  0.91188000000E+02  0.91188000000E+02 0.  0.
    9900012    2    3    3    0    0 -0.59764063628E+00 -0.30791942206E+02 -0.20181146622E+02  0.54367088032E+02  0.40000008787E+02 0.  0.
        -12    1    3    3    0    0  0.59764063628E+00  0.30791942206E+02  0.20181146622E+02  0.36820911968E+02  0.00000000000E+00 0.  1.
         11    1    4    4    0    0 -0.22500980548E+01 -0.19193037434E+02 -0.12352836759E+02  0.22935304739E+02  0.51100000000E-03 0. -1.
        -11    1    4    4    0    0 -0.79479006623E+01 -0.73202014233E+01 -0.15159985830E+02  0.18616649657E+02  0.51100000000E-03 0.  1.
        -12    1    4    4    0    0  0.96003580808E+01 -0.42787033488E+01  0.73316759671E+01  0.12815133636E+02  0.00000000000E+00 0.  1.
</event>
<event>
 8    1  0.1269154E-006  0.9118800E+02  0.7816164E-02  0.1184000E+00
        -11   -1    0    0    0    0  0.00000000000E+00  0.00000000000E+00  0.45593999997E+02  0.45594000000E+02  0.51100000000E-03 0.  1.
         11   -1    0    0    0    0 -0.00000000000E+00 -0.00000000000E+00 -0.45593999997E+02  0.45594000000E+02  0.51100000000E-03 0. -1.
         23    2    1    2    0    0  0.17763568394E-14 -0.35527136788E-14  0.35527136788E-14  0.91188000000E+02  0.91188000000E+02 0.  0.
    9900012    2    3    3    0    0 -0.95070434094E+01  0.21116047690E+02 -0.28627038362E+02  0.54367100095E+02  0.40000036286E+02 0.  0.
        -12    1    3    3    0    0  0.95070434094E+01 -0.21116047690E+02  0.28627038362E+02  0.36820899905E+02  0.00000000000E+00 0.  1.
         11    1    4    4    0    0 -0.16653433434E+02  0.15487408546E+02 -0.11552803308E+02  0.25508115045E+02  0.51100000000E-03 0.  1.
        -11    1    4    4    0    0  0.12269355289E+02  0.73966044870E+01 -0.18360959342E+02  0.23288874283E+02  0.51100000000E-03 0. -1.
        -12    1    4    4    0    0 -0.51229652651E+01 -0.17679653431E+01  0.12867242880E+01  0.55701107669E+01  0.00000000000E+00 0.  1.
</event>
<event>
 8    1  0.1269154E-006  0.9118800E+02  0.7816164E-02  0.1184000E+00
        -11   -1    0    0    0    0  0.00000000000E+00  0.00000000000E+00  0.45593999997E+02  0.45594000000E+02  0.51100000000E-03 0.  1.
         11   -1    0    0    0    0 -0.00000000000E+00 -0.00000000000E+00 -0.45593999997E+02  0.45594000000E+02  0.51100000000E-03 0. -1.
         23    2    1    2    0    0  0.00000000000E+00  0.17763568394E-14  0.00000000000E+00  0.91188000000E+02  0.91188000000E+02 0.  0.
    9900012    2    3    3    0    0  0.27065961941E+02  0.11764700573E+02  0.22018344390E+02  0.54367055348E+02  0.39999934278E+02 0.  0.
        -12    1    3    3    0    0 -0.27065961941E+02 -0.11764700573E+02 -0.22018344390E+02  0.36820944652E+02  0.00000000000E+00 0.  1.
         11    1    4    4    0    0  0.19324958699E+02  0.18691539315E+01  0.21786794647E+02  0.29182395145E+02  0.51100000000E-03 0. -1.
        -11    1    4    4    0    0 -0.62705664372E+01  0.92269763219E+01  0.12761801208E+00  0.11156763962E+02  0.51100000000E-03 0.  1.
        -12    1    4    4    0    0  0.14011569680E+02  0.66857031922E+00  0.10393173096E+00  0.14027896241E+02  0.00000000000E+00 0.  1.
</event>
<event>
 8    1  0.1269154E-006  0.9118800E+02  0.7816164E-02  0.1184000E+00
        -11   -1    0    0    0    0  0.00000000000E+00  0.00000000000E+00  0.45593999997E+02  0.45594000000E+02  0.51100000000E-03 0.  1.
         11   -1    0    0    0    0 -0.00000000000E+00 -0.00000000000E+00 -0.45593999997E+02  0.45594000000E+02  0.51100000000E-03 0. -1.
         23    2    1    2    0    0  0.35527136788E-14  0.00000000000E+00  0.00000000000E+00  0.91188000000E+02  0.91188000000E+02 0.  0.
    9900012    2    3    3    0    0 -0.26910941482E+02  0.44862740807E+01  0.24727608176E+02  0.54367081588E+02  0.39999994097E+02 0.  0.
         12    1    3    3    0    0  0.26910941482E+02 -0.44862740807E+01 -0.24727608176E+02  0.36820918412E+02  0.00000000000E+00 0. -1.
         11    1    4    4    0    0  0.95202197763E+01 -0.10626029091E+01  0.77755145334E+01  0.12337841629E+02  0.51100000000E-03 0. -1.
        -11    1    4    4    0    0 -0.83710972112E+01  0.52788127071E+01  0.15448273398E+01  0.10016367799E+02  0.51100000000E-03 0.  1.
         12    1    4    4    0    0 -0.28060064047E+02  0.27006428266E+00  0.15407266303E+02  0.32012872161E+02  0.00000000000E+00 0. -1.
</event>
<event>
 8    1  0.1269154E-006  0.9118800E+02  0.7816164E-02  0.1184000E+00
        -11   -1    0    0    0    0  0.00000000000E+00  0.00000000000E+00  0.45593999997E+02  0.45594000000E+02  0.51100000000E-03 0. -1.
         11   -1    0    0    0    0 -0.00000000000E+00 -0.00000000000E+00 -0.45593999997E+02  0.45594000000E+02  0.51100000000E-03 0.  1.
         23    2    1    2    0    0  0.35527136788E-14  0.00000000000E+00 -0.17763568394E-14  0.91188000000E+02  0.91188000000E+02 0.  0.
    9900012    2    3    3    0    0  0.24757731071E+02  0.23715683898E+02 -0.13431369238E+02  0.54367074018E+02  0.39999976839E+02 0.  0.
         12    1    3    3    0    0 -0.24757731071E+02 -0.23715683898E+02  0.13431369238E+02  0.36820925982E+02  0.00000000000E+00 0. -1.
         11    1    4    4    0    0  0.24451666585E+00  0.12189462306E+01  0.39348333636E+01  0.41265642093E+01  0.51100000000E-03 0. -1.
        -11    1    4    4    0    0  0.22622266242E+02  0.23151832841E+02 -0.25912133871E+02  0.41463393203E+02  0.51100000000E-03 0.  1.
        -12    1    4    4    0    0  0.18909481638E+01 -0.65509517363E+00  0.85459312701E+01  0.87771166062E+01  0.00000000000E+00 0.  1.
</event>
<event>
 8    1  0.1269154E-006  0.9118800E+02  0.7816164E-02  0.1184000E+00
        -11   -1    0    0    0    0  0.00000000000E+00  0.00000000000E+00  0.45593999997E+02  0.45594000000E+02  0.51100000000E-03 0. -1.
         11   -1    0    0    0    0 -0.00000000000E+00 -0.00000000000E+00 -0.45593999997E+02  0.45594000000E+02  0.51100000000E-03 0.  1.
         23    2    1    2    0    0  0.00000000000E+00 -0.10658141036E-13 -0.26645352591E-14  0.91188000000E+02  0.91188000000E+02 0.  0.
    9900012    2    3    3    0    0  0.26169807024E+02 -0.24747307495E+02 -0.76473136782E+01  0.54367225505E+02  0.40000322182E+02 0.  0.
         12    1    3    3    0    0 -0.26169807024E+02  0.24747307495E+02  0.76473136782E+01  0.36820774495E+02  0.00000000000E+00 0. -1.
         11    1    4    4    0    0  0.22861375151E+02 -0.18002063430E+02 -0.15082791149E+02  0.32775102603E+02  0.51100000000E-03 0.  1.
        -11    1    4    4    0    0  0.30661899919E+01  0.36385528774E+01  0.98406647843E+01  0.10930657426E+02  0.51100000000E-03 0. -1.
        -12    1    4    4    0    0  0.24224188121E+00 -0.10383796943E+02 -0.24051873134E+01  0.10661465476E+02  0.00000000000E+00 0.  1.
</event>
<event>
 8    1  0.1269154E-006  0.9118800E+02  0.7816164E-02  0.1184000E+00
        -11   -1    0    0    0    0  0.00000000000E+00  0.00000000000E+00  0.45593999997E+02  0.45594000000E+02  0.51100000000E-03 0. -1.
         11   -1    0    0    0    0 -0.00000000000E+00 -0.00000000000E+00 -0.45593999997E+02  0.45594000000E+02  0.51100000000E-03 0.  1.
         23    2    1    2    0    0  0.00000000000E+00  0.35527136788E-14  0.00000000000E+00  0.91188000000E+02  0.91188000000E+02 0.  0.
    9900012    2    3    3    0    0  0.25343643728E+02  0.19788525204E+02 -0.17941392442E+02  0.54367087873E+02  0.40000008423E+02 0.  0.
         12    1    3    3    0    0 -0.25343643728E+02 -0.19788525204E+02  0.17941392442E+02  0.36820912127E+02  0.00000000000E+00 0. -1.
         11    1    4    4    0    0  0.12547215083E+02 -0.26844787181E+01 -0.49834085079E+01  0.13764933452E+02  0.51100000000E-03 0. -1.
        -11    1    4    4    0    0  0.20313877290E+02  0.14156262586E+02 -0.15359567699E+02  0.29137084637E+02  0.51100000000E-03 0.  1.
        -12    1    4    4    0    0 -0.75174486447E+01  0.83167413359E+01  0.24015837655E+01  0.11465069784E+02  0.00000000000E+00 0.  1.
</event>
<event>
 8    1  0.1269154E-006  0.9118800E+02  0.7816164E-02  0.1184000E+00
        -11   -1    0    0    0    0  0.00000000000E+00  0.00000000000E+00  0.45593999997E+02  0.45594000000E+02  0.51100000000E-03 0. -1.
         11   -1    0    0    0    0 -0.00000000000E+00 -0.00000000000E+00 -0.45593999997E+02  0.45594000000E+02  0.51100000000E-03 0.  1.
         23    2    1    2    0    0  0.00000000000E+00  0.00000000000E+00  0.17763568394E-14  0.91188000000E+02  0.91188000000E+02 0.  0.
    9900012    2    3    3    0    0  0.33548584636E+02 -0.11087292586E+02 -0.10360736921E+02  0.54367075819E+02  0.39999980946E+02 0.  0.
         12    1    3    3    0    0 -0.33548584636E+02  0.11087292586E+02  0.10360736921E+02  0.36820924181E+02  0.00000000000E+00 0. -1.
         11    1    4    4    0    0  0.94775821231E+01 -0.15394673984E+02 -0.16015940994E+02  0.24152244537E+02  0.51100000000E-03 0. -1.
        -11    1    4    4    0    0 -0.55052300614E+00 -0.36489244110E+01 -0.16230614664E+00  0.36937878234E+01  0.51100000000E-03 0.  1.
         12    1    4    4    0    0  0.24621525519E+02  0.79563058089E+01  0.58175102199E+01  0.26521043459E+02  0.00000000000E+00 0. -1.
</event>
<event>
 8    1  0.1269154E-006  0.9118800E+02  0.7816164E-02  0.1184000E+00
        -11   -1    0    0    0    0  0.00000000000E+00  0.00000000000E+00  0.45593999997E+02  0.45594000000E+02  0.51100000000E-03 0.  1.
         11   -1    0    0    0    0 -0.00000000000E+00 -0.00000000000E+00 -0.45593999997E+02  0.45594000000E+02  0.51100000000E-03 0. -1.
         23    2    1    2    0    0  0.00000000000E+00  0.00000000000E+00  0.00000000000E+00  0.91188000000E+02  0.91188000000E+02 0.  0.
    9900012    2    3    3    0    0  0.27858976938E+02  0.19210559853E+02  0.14512460138E+02  0.54367086036E+02  0.40000004235E+02 0.  0.
         12    1    3    3    0    0 -0.27858976938E+02 -0.19210559853E+02 -0.14512460138E+02  0.36820913964E+02  0.00000000000E+00 0. -1.
         11    1    4    4    0    0  0.27797246532E+02  0.71026670495E+01  0.97033129035E+01  0.30286780541E+02  0.51100000000E-03 0. -1.
        -11    1    4    4    0    0  0.48935217042E+01  0.15869250577E+02  0.53934342520E+00  0.16615371201E+02  0.51100000000E-03 0.  1.
         12    1    4    4    0    0 -0.48317912973E+01 -0.37613577737E+01  0.42698038090E+01  0.74649342938E+01  0.00000000000E+00 0. -1.
</event>
<event>
 8    1  0.1269154E-006  0.9118800E+02  0.7816164E-02  0.1184000E+00
        -11   -1    0    0    0    0  0.00000000000E+00  0.00000000000E+00  0.45593999997E+02  0.45594000000E+02  0.51100000000E-03 0.  1.
         11   -1    0    0    0    0 -0.00000000000E+00 -0.00000000000E+00 -0.45593999997E+02  0.45594000000E+02  0.51100000000E-03 0. -1.
         23    2    1    2    0    0  0.35527136788E-14 -0.35527136788E-14 -0.38857805862E-15  0.91188000000E+02  0.91188000000E+02 0.  0.
    9900012    2    3    3    0    0  0.21391688211E+02 -0.29966477361E+02 -0.43042610023E+00  0.54367090769E+02  0.40000015026E+02 0.  0.
        -12    1    3    3    0    0 -0.21391688211E+02  0.29966477361E+02  0.43042610023E+00  0.36820909231E+02  0.00000000000E+00 0.  1.
         11    1    4    4    0    0  0.10414387407E+02 -0.22519016914E+02  0.11790956248E+02  0.27469842324E+02  0.51100000000E-03 0. -1.
        -11    1    4    4    0    0 -0.28677629129E+01 -0.37534689617E+01  0.33080849023E+01  0.57668032178E+01  0.51100000000E-03 0.  1.
         12    1    4    4    0    0  0.13845063717E+02 -0.36939914860E+01 -0.15529467250E+02  0.21130445227E+02  0.00000000000E+00 0. -1.
</event>
<event>
 8    1  0.1269154E-006  0.9118800E+02  0.7816164E-02  0.1184000E+00
        -11   -1    0    0    0    0  0.00000000000E+00  0.00000000000E+00  0.45593999997E+02  0.45594000000E+02  0.51100000000E-03 0. -1.
         11   -1    0    0    0    0 -0.00000000000E+00 -0.00000000000E+00 -0.45593999997E+02  0.45594000000E+02  0.51100000000E-03 0.  1.
         23    2    1    2    0    0 -0.35527136788E-14  0.00000000000E+00  0.35527136788E-14  0.91188000000E+02  0.91188000000E+02 0.  0.
    9900012    2    3    3    0    0  0.25196944751E+02 -0.12368646994E+02 -0.23830901137E+02  0.54367064349E+02  0.39999954796E+02 0.  0.
         12    1    3    3    0    0 -0.25196944751E+02  0.12368646994E+02  0.23830901137E+02  0.36820935651E+02  0.00000000000E+00 0. -1.
         11    1    4    4    0    0 -0.27510005143E+01 -0.42879732635E+01 -0.11020641564E+02  0.12141221490E+02  0.51100000000E-03 0. -1.
        -11    1    4    4    0    0  0.29533848464E+02 -0.14979860885E+02 -0.98186726266E+01  0.34540567014E+02  0.51100000000E-03 0.  1.
        -12    1    4    4    0    0 -0.15859031983E+01  0.68991871552E+01 -0.29915869461E+01  0.76852758450E+01  0.00000000000E+00 0.  1.
</event>
<event>
 8    1  0.1269154E-006  0.9118800E+02  0.7816164E-02  0.1184000E+00
        -11   -1    0    0    0    0  0.00000000000E+00  0.00000000000E+00  0.45593999997E+02  0.45594000000E+02  0.51100000000E-03 0.  1.
         11   -1    0    0    0    0 -0.00000000000E+00 -0.00000000000E+00 -0.45593999997E+02  0.45594000000E+02  0.51100000000E-03 0. -1.
         23    2    1    2    0    0  0.00000000000E+00  0.00000000000E+00  0.00000000000E+00  0.91188000000E+02  0.91188000000E+02 0.  0.
    9900012    2    3    3    0    0 -0.29508974846E+02  0.13367878597E+02 -0.17501458506E+02  0.54367070836E+02  0.39999969585E+02 0.  0.
        -12    1    3    3    0    0  0.29508974846E+02 -0.13367878597E+02  0.17501458506E+02  0.36820929164E+02  0.00000000000E+00 0.  1.
         11    1    4    4    0    0 -0.70952818013E+01  0.13557183112E+02 -0.68485775072E+01  0.16764344660E+02  0.51100000000E-03 0. -1.
        -11    1    4    4    0    0  0.45760448793E+01  0.29031449116E+01 -0.88490072177E+01  0.10376577765E+02  0.51100000000E-03 0.  1.
         12    1    4    4    0    0 -0.26989737924E+02 -0.30924494258E+01 -0.18038737809E+01  0.27226148411E+02  0.00000000000E+00 0. -1.
</event>
<event>
 8    1  0.1269154E-006  0.9118800E+02  0.7816164E-02  0.1184000E+00
        -11   -1    0    0    0    0  0.00000000000E+00  0.00000000000E+00  0.45593999997E+02  0.45594000000E+02  0.51100000000E-03 0. -1.
         11   -1    0    0    0    0 -0.00000000000E+00 -0.00000000000E+00 -0.45593999997E+02  0.45594000000E+02  0.51100000000E-03 0.  1.
         23    2    1    2    0    0  0.17763568394E-14  0.00000000000E+00  0.00000000000E+00  0.91188000000E+02  0.91188000000E+02 0.  0.
    9900012    2    3    3    0    0 -0.12267429191E+02  0.44405813748E+01 -0.34432114745E+02  0.54367094148E+02  0.40000022730E+02 0.  0.
         12    1    3    3    0    0  0.12267429191E+02 -0.44405813748E+01  0.34432114745E+02  0.36820905852E+02  0.00000000000E+00 0. -1.
         11    1    4    4    0    0 -0.10926659946E+02  0.58900372685E+00  0.19363857159E+00  0.10944236800E+02  0.51100000000E-03 0. -1.
        -11    1    4    4    0    0 -0.53025561817E+01  0.50371504137E+01  0.11546510635E+01  0.74042694231E+01  0.51100000000E-03 0.  1.
        -12    1    4    4    0    0  0.39617869372E+01 -0.11855727657E+01 -0.35780404381E+02  0.36018587926E+02  0.00000000000E+00 0.  1.
</event>
<event>
 8    1  0.1269154E-006  0.9118800E+02  0.7816164E-02  0.1184000E+00
        -11   -1    0    0    0    0  0.00000000000E+00  0.00000000000E+00  0.45593999997E+02  0.45594000000E+02  0.51100000000E-03 0.  1.
         11   -1    0    0    0    0 -0.00000000000E+00 -0.00000000000E+00 -0.45593999997E+02  0.45594000000E+02  0.51100000000E-03 0. -1.
         23    2    1    2    0    0 -0.35527136788E-14  0.00000000000E+00  0.00000000000E+00  0.91188000000E+02  0.91188000000E+02 0.  0.
    9900012    2    3    3    0    0 -0.22925525185E+02 -0.88643996065E+01  0.27415723905E+02  0.54367092859E+02  0.40000019792E+02 0.  0.
         12    1    3    3    0    0  0.22925525185E+02  0.88643996065E+01 -0.27415723905E+02  0.36820907141E+02  0.00000000000E+00 0. -1.
         11    1    4    4    0    0 -0.18645323094E+02  0.15248442502E+01 -0.45836306740E+01  0.19260916221E+02  0.51100000000E-03 0. -1.
        -11    1    4    4    0    0  0.20075072910E+01 -0.35735348414E+01  0.16872858397E+02  0.17363570702E+02  0.51100000000E-03 0.  1.
        -12    1    4    4    0    0 -0.62877093827E+01 -0.68157090153E+01  0.15126496182E+02  0.17742605936E+02  0.00000000000E+00 0.  1.
</event>
<event>
 8    1  0.1269154E-006  0.9118800E+02  0.7816164E-02  0.1184000E+00
        -11   -1    0    0    0    0  0.00000000000E+00  0.00000000000E+00  0.45593999997E+02  0.45594000000E+02  0.51100000000E-03 0.  1.
         11   -1    0    0    0    0 -0.00000000000E+00 -0.00000000000E+00 -0.45593999997E+02  0.45594000000E+02  0.51100000000E-03 0. -1.
         23    2    1    2    0    0  0.00000000000E+00  0.55511151231E-15  0.61062266354E-15  0.91188000000E+02  0.91188000000E+02 0.  0.
    9900012    2    3    3    0    0 -0.36813961720E+02  0.65625714753E+00  0.28661100974E+00  0.54367073927E+02  0.39999976632E+02 0.  0.
         12    1    3    3    0    0  0.36813961720E+02 -0.65625714753E+00 -0.28661100974E+00  0.36820926073E+02  0.00000000000E+00 0. -1.
         11    1    4    4    0    0 -0.18892106304E+02  0.30635524788E+01  0.53360228927E+01  0.19868824197E+02  0.51100000000E-03 0. -1.
        -11    1    4    4    0    0 -0.11597139071E+02 -0.12700639840E+02 -0.11609948772E+02  0.20750681862E+02  0.51100000000E-03 0.  1.
        -12    1    4    4    0    0 -0.63247163453E+01  0.10293344509E+02  0.65605368894E+01  0.13747567869E+02  0.00000000000E+00 0.  1.
</event>
<event>
 8    1  0.1269154E-006  0.9118800E+02  0.7816164E-02  0.1184000E+00
        -11   -1    0    0    0    0  0.00000000000E+00  0.00000000000E+00  0.45593999997E+02  0.45594000000E+02  0.51100000000E-03 0. -1.
         11   -1    0    0    0    0 -0.00000000000E+00 -0.00000000000E+00 -0.45593999997E+02  0.45594000000E+02  0.51100000000E-03 0.  1.
         23    2    1    2    0    0  0.00000000000E+00 -0.44408920985E-15  0.00000000000E+00  0.91188000000E+02  0.91188000000E+02 0.  0.
    9900012    2    3    3    0    0 -0.86772422739E+01  0.23372969537E+01  0.35707459131E+02  0.54367080292E+02  0.39999991142E+02 0.  0.
        -12    1    3    3    0    0  0.86772422739E+01 -0.23372969537E+01 -0.35707459131E+02  0.36820919708E+02  0.00000000000E+00 0.  1.
         11    1    4    4    0    0  0.89934504340E+01  0.63516667975E+01  0.96059888787E+01  0.14611668091E+02  0.51100000000E-03 0. -1.
        -11    1    4    4    0    0 -0.78961538716E+01 -0.12028650081E+02  0.51429031535E+01  0.15280285398E+02  0.51100000000E-03 0.  1.
         12    1    4    4    0    0 -0.97745388363E+01  0.80142802368E+01  0.20958567099E+02  0.24475126803E+02  0.00000000000E+00 0. -1.
</event>
<event>
 8    1  0.1269154E-006  0.9118800E+02  0.7816164E-02  0.1184000E+00
        -11   -1    0    0    0    0  0.00000000000E+00  0.00000000000E+00  0.45593999997E+02  0.45594000000E+02  0.51100000000E-03 0. -1.
         11   -1    0    0    0    0 -0.00000000000E+00 -0.00000000000E+00 -0.45593999997E+02  0.45594000000E+02  0.51100000000E-03 0.  1.
         23    2    1    2    0    0  0.00000000000E+00 -0.17763568394E-14  0.00000000000E+00  0.91188000000E+02  0.91188000000E+02 0.  0.
    9900012    2    3    3    0    0 -0.89543840122E+01 -0.15786465096E+02 -0.32037270716E+02  0.54367079477E+02  0.39999989284E+02 0.  0.
         12    1    3    3    0    0  0.89543840122E+01  0.15786465096E+02  0.32037270716E+02  0.36820920523E+02  0.00000000000E+00 0. -1.
         11    1    4    4    0    0  0.51485612241E+01 -0.18792181186E+01 -0.25162536691E+01  0.60308105760E+01  0.51100000000E-03 0. -1.
        -11    1    4    4    0    0 -0.78496010056E+01  0.77021453469E+01 -0.22035988227E+02  0.24627709116E+02  0.51100000000E-03 0.  1.
        -12    1    4    4    0    0 -0.62533442307E+01 -0.21609392324E+02 -0.74850288197E+01  0.23708559785E+02  0.00000000000E+00 0.  1.
</event>
<event>
 8    1  0.1269154E-006  0.9118800E+02  0.7816164E-02  0.1184000E+00
        -11   -1    0    0    0    0  0.00000000000E+00  0.00000000000E+00  0.45593999997E+02  0.45594000000E+02  0.51100000000E-03 0. -1.
         11   -1    0    0    0    0 -0.00000000000E+00 -0.00000000000E+00 -0.45593999997E+02  0.45594000000E+02  0.51100000000E-03 0.  1.
         23    2    1    2    0    0  0.00000000000E+00  0.88817841970E-15 -0.71054273576E-14  0.91188000000E+02  0.91188000000E+02 0.  0.
    9900012    2    3    3    0    0 -0.39556745180E+01 -0.53840956019E+01  0.36209730692E+02  0.54367076015E+02  0.39999981391E+02 0.  0.
        -12    1    3    3    0    0  0.39556745180E+01  0.53840956019E+01 -0.36209730692E+02  0.36820923985E+02  0.00000000000E+00 0.  1.
         11    1    4    4    0    0  0.99208498661E+01  0.32583653422E+01  0.11472626438E+02  0.15513264145E+02  0.51100000000E-03 0.  1.
        -11    1    4    4    0    0  0.69398561373E+01 -0.41262111212E+00  0.27468198131E+01  0.74750838614E+01  0.51100000000E-03 0. -1.
        -12    1    4    4    0    0 -0.20816380521E+02 -0.82298398320E+01  0.21990284441E+02  0.31378728009E+02  0.00000000000E+00 0.  1.
</event>
<event>
 8    1  0.1269154E-006  0.9118800E+02  0.7816164E-02  0.1184000E+00
        -11   -1    0    0    0    0  0.00000000000E+00  0.00000000000E+00  0.45593999997E+02  0.45594000000E+02  0.51100000000E-03 0.  1.
         11   -1    0    0    0    0 -0.00000000000E+00 -0.00000000000E+00 -0.45593999997E+02  0.45594000000E+02  0.51100000000E-03 0. -1.
         23    2    1    2    0    0  0.00000000000E+00  0.35527136788E-14  0.00000000000E+00  0.91188000000E+02  0.91188000000E+02 0.  0.
    9900012    2    3    3    0    0 -0.17484408801E+02 -0.20548348033E+02  0.25056746976E+02  0.54367085739E+02  0.40000003560E+02 0.  0.
         12    1    3    3    0    0  0.17484408801E+02  0.20548348033E+02 -0.25056746976E+02  0.36820914261E+02  0.00000000000E+00 0. -1.
         11    1    4    4    0    0  0.20925982592E+01 -0.18906573298E+01 -0.37868872575E+01  0.47216594515E+01  0.51100000000E-03 0. -1.
        -11    1    4    4    0    0 -0.11770700976E+02 -0.26673025144E+02  0.19577881162E+02  0.35118273062E+02  0.51100000000E-03 0.  1.
         12    1    4    4    0    0 -0.78063060845E+01  0.80153344406E+01  0.92657530713E+01  0.14527153226E+02  0.00000000000E+00 0. -1.
</event>
<event>
 8    1  0.1269154E-006  0.9118800E+02  0.7816164E-02  0.1184000E+00
        -11   -1    0    0    0    0  0.00000000000E+00  0.00000000000E+00  0.45593999997E+02  0.45594000000E+02  0.51100000000E-03 0.  1.
         11   -1    0    0    0    0 -0.00000000000E+00 -0.00000000000E+00 -0.45593999997E+02  0.45594000000E+02  0.51100000000E-03 0. -1.
         23    2    1    2    0    0 -0.88817841970E-15  0.00000000000E+00  0.35527136788E-14  0.91188000000E+02  0.91188000000E+02 0.  0.
    9900012    2    3    3    0    0  0.53158432808E+01  0.34340051815E+02 -0.12177167888E+02  0.54367071628E+02  0.39999971390E+02 0.  0.
        -12    1    3    3    0    0 -0.53158432808E+01 -0.34340051815E+02  0.12177167888E+02  0.36820928372E+02  0.00000000000E+00 0.  1.
         11    1    4    4    0    0 -0.97473981029E+01  0.11530649560E+02  0.47729688322E+01  0.15835052283E+02  0.51100000000E-03 0. -1.
        -11    1    4    4    0    0 -0.17704849348E+01 -0.26605366129E+01  0.69365814998E+00  0.32702039483E+01  0.51100000000E-03 0.  1.
         12    1    4    4    0    0  0.16833726319E+02  0.25469938867E+02 -0.17643794870E+02  0.35261815397E+02  0.00000000000E+00 0. -1.
</event>
<event>
 8    1  0.1269154E-006  0.9118800E+02  0.7816164E-02  0.1184000E+00
        -11   -1    0    0    0    0  0.00000000000E+00  0.00000000000E+00  0.45593999997E+02  0.45594000000E+02  0.51100000000E-03 0.  1.
         11   -1    0    0    0    0 -0.00000000000E+00 -0.00000000000E+00 -0.45593999997E+02  0.45594000000E+02  0.51100000000E-03 0. -1.
         23    2    1    2    0    0  0.00000000000E+00  0.00000000000E+00  0.00000000000E+00  0.91188000000E+02  0.91188000000E+02 0.  0.
    9900012    2    3    3    0    0  0.11794392565E+02  0.11243101777E+02  0.33019172877E+02  0.54367071019E+02  0.39999970002E+02 0.  0.
         12    1    3    3    0    0 -0.11794392565E+02 -0.11243101777E+02 -0.33019172877E+02  0.36820928981E+02  0.00000000000E+00 0. -1.
         11    1    4    4    0    0 -0.19718155073E+01  0.80768451217E+01  0.91725183907E+01  0.12379764836E+02  0.51100000000E-03 0. -1.
        -11    1    4    4    0    0 -0.10615476906E+01 -0.10920510496E+02  0.54856588742E+00  0.10985688771E+02  0.51100000000E-03 0.  1.
        -12    1    4    4    0    0  0.14827755763E+02  0.14086767151E+02  0.23298088599E+02  0.31001617411E+02  0.00000000000E+00 0.  1.
</event>
<event>
 8    1  0.1269154E-006  0.9118800E+02  0.7816164E-02  0.1184000E+00
        -11   -1    0    0    0    0  0.00000000000E+00  0.00000000000E+00  0.45593999997E+02  0.45594000000E+02  0.51100000000E-03 0. -1.
         11   -1    0    0    0    0 -0.00000000000E+00 -0.00000000000E+00 -0.45593999997E+02  0.45594000000E+02  0.51100000000E-03 0.  1.
         23    2    1    2    0    0 -0.71054273576E-14  0.22204460493E-14 -0.17763568394E-14  0.91188000000E+02  0.91188000000E+02 0.  0.
    9900012    2    3    3    0    0 -0.33422552453E+02  0.28374826276E+01 -0.15187533595E+02  0.54367088865E+02  0.40000010685E+02 0.  0.
        -12    1    3    3    0    0  0.33422552453E+02 -0.28374826276E+01  0.15187533595E+02  0.36820911135E+02  0.00000000000E+00 0.  1.
         11    1    4    4    0    0 -0.81707329794E+01 -0.52976793137E+01  0.10744847606E+02  0.14500966653E+02  0.51100000000E-03 0. -1.
        -11    1    4    4    0    0 -0.95936333579E+01  0.10699014760E+02 -0.13374340953E+02  0.19631090495E+02  0.51100000000E-03 0.  1.
         12    1    4    4    0    0 -0.15658186115E+02 -0.25638528183E+01 -0.12558040248E+02  0.20235031716E+02  0.00000000000E+00 0. -1.
</event>
<event>
 8    1  0.1269154E-006  0.9118800E+02  0.7816164E-02  0.1184000E+00
        -11   -1    0    0    0    0  0.00000000000E+00  0.00000000000E+00  0.45593999997E+02  0.45594000000E+02  0.51100000000E-03 0.  1.
         11   -1    0    0    0    0 -0.00000000000E+00 -0.00000000000E+00 -0.45593999997E+02  0.45594000000E+02  0.51100000000E-03 0. -1.
         23    2    1    2    0    0  0.17763568394E-14 -0.71054273576E-14  0.00000000000E+00  0.91188000000E+02  0.91188000000E+02 0.  0.
    9900012    2    3    3    0    0  0.12335679409E+02 -0.34555617113E+02  0.30856170746E+01  0.54367072618E+02  0.39999973647E+02 0.  0.
        -12    1    3    3    0    0 -0.12335679409E+02  0.34555617113E+02 -0.30856170746E+01  0.36820927382E+02  0.00000000000E+00 0.  1.
         11    1    4    4    0    0 -0.71562980257E+00 -0.23718055940E+02  0.19800209381E+01  0.23811316359E+02  0.51100000000E-03 0. -1.
        -11    1    4    4    0    0 -0.69344586855E+01 -0.57215461941E+01 -0.30840823077E+01  0.95044395970E+01  0.51100000000E-03 0.  1.
         12    1    4    4    0    0  0.19985767898E+02 -0.51160149790E+01  0.41896784442E+01  0.21051316662E+02  0.00000000000E+00 0. -1.
</event>
<event>
 8    1  0.1269154E-006  0.9118800E+02  0.7816164E-02  0.1184000E+00
        -11   -1    0    0    0    0  0.00000000000E+00  0.00000000000E+00  0.45593999997E+02  0.45594000000E+02  0.51100000000E-03 0.  1.
         11   -1    0    0    0    0 -0.00000000000E+00 -0.00000000000E+00 -0.45593999997E+02  0.45594000000E+02  0.51100000000E-03 0. -1.
         23    2    1    2    0    0  0.88817841970E-15  0.00000000000E+00  0.00000000000E+00  0.91188000000E+02  0.91188000000E+02 0.  0.
    9900012    2    3    3    0    0 -0.15711318508E+01  0.20597367758E+01 -0.36729681909E+02  0.54367075188E+02  0.39999979507E+02 0.  0.
        -12    1    3    3    0    0  0.15711318508E+01 -0.20597367758E+01  0.36729681909E+02  0.36820924812E+02  0.00000000000E+00 0.  1.
         11    1    4    4    0    0 -0.76776526576E+01  0.15563272939E+02 -0.14235264738E+02  0.22445591490E+02  0.51100000000E-03 0. -1.
        -11    1    4    4    0    0  0.58446020677E+01  0.78336943839E+00 -0.80990404429E+00  0.59522252838E+01  0.51100000000E-03 0.  1.
        -12    1    4    4    0    0  0.26191873909E+00 -0.14286905602E+02 -0.21684513126E+02  0.25969258415E+02  0.00000000000E+00 0.  1.
</event>
<event>
 8    1  0.1269154E-006  0.9118800E+02  0.7816164E-02  0.1184000E+00
        -11   -1    0    0    0    0  0.00000000000E+00  0.00000000000E+00  0.45593999997E+02  0.45594000000E+02  0.51100000000E-03 0.  1.
         11   -1    0    0    0    0 -0.00000000000E+00 -0.00000000000E+00 -0.45593999997E+02  0.45594000000E+02  0.51100000000E-03 0. -1.
         23    2    1    2    0    0  0.00000000000E+00 -0.17763568394E-14  0.88817841970E-15  0.91188000000E+02  0.91188000000E+02 0.  0.
    9900012    2    3    3    0    0 -0.35193552902E+02  0.90099879356E+01 -0.60012423479E+01  0.54367069021E+02  0.39999965447E+02 0.  0.
        -12    1    3    3    0    0  0.35193552902E+02 -0.90099879356E+01  0.60012423479E+01  0.36820930979E+02  0.00000000000E+00 0.  1.
         11    1    4    4    0    0 -0.66902523700E+01 -0.10841303304E+02  0.42789916123E+01  0.13438865413E+02  0.51100000000E-03 0.  1.
        -11    1    4    4    0    0 -0.13022715488E+01 -0.30581656538E+01  0.12369493034E+01  0.35465944500E+01  0.51100000000E-03 0. -1.
         12    1    4    4    0    0 -0.27201028983E+02  0.22909456894E+02 -0.11517183264E+02  0.37381609158E+02  0.00000000000E+00 0. -1.
</event>
<event>
 8    1  0.1269154E-006  0.9118800E+02  0.7816164E-02  0.1184000E+00
        -11   -1    0    0    0    0  0.00000000000E+00  0.00000000000E+00  0.45593999997E+02  0.45594000000E+02  0.51100000000E-03 0.  1.
         11   -1    0    0    0    0 -0.00000000000E+00 -0.00000000000E+00 -0.45593999997E+02  0.45594000000E+02  0.51100000000E-03 0. -1.
         23    2    1    2    0    0  0.00000000000E+00  0.00000000000E+00  0.17763568394E-14  0.91188000000E+02  0.91188000000E+02 0.  0.
    9900012    2    3    3    0    0 -0.26861578597E+02 -0.22777197056E+02  0.10744112270E+02  0.54367067653E+02  0.39999962328E+02 0.  0.
         12    1    3    3    0    0  0.26861578597E+02  0.22777197056E+02 -0.10744112270E+02  0.36820932347E+02  0.00000000000E+00 0. -1.
         11    1    4    4    0    0 -0.19817391134E+02 -0.16966421360E+02  0.59477465398E+01  0.26757506130E+02  0.51100000000E-03 0. -1.
        -11    1    4    4    0    0 -0.11448073821E+02 -0.61942315093E+01 -0.71645416825E+01  0.14857912235E+02  0.51100000000E-03 0.  1.
         12    1    4    4    0    0  0.44038863580E+01  0.38345581336E+00  0.11960907413E+02  0.12751649288E+02  0.00000000000E+00 0. -1.
</event>
<event>
 8    1  0.1269154E-006  0.9118800E+02  0.7816164E-02  0.1184000E+00
        -11   -1    0    0    0    0  0.00000000000E+00  0.00000000000E+00  0.45593999997E+02  0.45594000000E+02  0.51100000000E-03 0. -1.
         11   -1    0    0    0    0 -0.00000000000E+00 -0.00000000000E+00 -0.45593999997E+02  0.45594000000E+02  0.51100000000E-03 0.  1.
         23    2    1    2    0    0  0.17763568394E-14  0.71054273576E-14 -0.17763568394E-14  0.91188000000E+02  0.91188000000E+02 0.  0.
    9900012    2    3    3    0    0 -0.12750552704E+02 -0.32214880243E+02  0.12466147998E+02  0.54367082721E+02  0.39999996679E+02 0.  0.
        -12    1    3    3    0    0  0.12750552704E+02  0.32214880243E+02 -0.12466147998E+02  0.36820917279E+02  0.00000000000E+00 0.  1.
         11    1    4    4    0    0 -0.15679110842E+02 -0.28225075603E+02  0.78691020896E+01  0.33232697416E+02  0.51100000000E-03 0. -1.
        -11    1    4    4    0    0  0.10522083650E+02 -0.33159544951E+01 -0.18056102046E+01  0.11178999375E+02  0.51100000000E-03 0.  1.
        -12    1    4    4    0    0 -0.75935255123E+01 -0.67385014556E+00  0.64026561130E+01  0.99553859305E+01  0.00000000000E+00 0.  1.
</event>
<event>
 8    1  0.1269154E-006  0.9118800E+02  0.7816164E-02  0.1184000E+00
        -11   -1    0    0    0    0  0.00000000000E+00  0.00000000000E+00  0.45593999997E+02  0.45594000000E+02  0.51100000000E-03 0.  1.
         11   -1    0    0    0    0 -0.00000000000E+00 -0.00000000000E+00 -0.45593999997E+02  0.45594000000E+02  0.51100000000E-03 0. -1.
         23    2    1    2    0    0  0.71054273576E-14  0.00000000000E+00  0.17763568394E-14  0.91188000000E+02  0.91188000000E+02 0.  0.
    9900012    2    3    3    0    0  0.30415245041E+02 -0.18620952084E+02  0.91625694555E+01  0.54367086561E+02  0.40000005433E+02 0.  0.
        -12    1    3    3    0    0 -0.30415245041E+02  0.18620952084E+02 -0.91625694555E+01  0.36820913439E+02  0.00000000000E+00 0.  1.
         11    1    4    4    0    0 -0.12527219950E+01 -0.12484884354E+02  0.29560386959E+01  0.12891075004E+02  0.51100000000E-03 0. -1.
        -11    1    4    4    0    0  0.19630322570E+01  0.74760803529E+01  0.40584722405E+01  0.87302044806E+01  0.51100000000E-03 0.  1.
         12    1    4    4    0    0  0.29704934779E+02 -0.13612148084E+02  0.21480585192E+01  0.32745807077E+02  0.00000000000E+00 0. -1.
</event>
<event>
 8    1  0.1269154E-006  0.9118800E+02  0.7816164E-02  0.1184000E+00
        -11   -1    0    0    0    0  0.00000000000E+00  0.00000000000E+00  0.45593999997E+02  0.45594000000E+02  0.51100000000E-03 0. -1.
         11   -1    0    0    0    0 -0.00000000000E+00 -0.00000000000E+00 -0.45593999997E+02  0.45594000000E+02  0.51100000000E-03 0.  1.
         23    2    1    2    0    0  0.00000000000E+00  0.00000000000E+00  0.00000000000E+00  0.91188000000E+02  0.91188000000E+02 0.  0.
    9900012    2    3    3    0    0 -0.24802856759E+02  0.20672406774E+02  0.17698772900E+02  0.54367127287E+02  0.40000098276E+02 0.  0.
        -12    1    3    3    0    0  0.24802856759E+02 -0.20672406774E+02 -0.17698772900E+02  0.36820872713E+02  0.00000000000E+00 0.  1.
         11    1    4    4    0    0 -0.20844671205E+02  0.11844792662E+02  0.26986722664E+02  0.36098235847E+02  0.51100000000E-03 0. -1.
        -11    1    4    4    0    0 -0.27243061130E+01 -0.28562137069E+01 -0.28808007995E+01  0.48865953428E+01  0.51100000000E-03 0.  1.
         12    1    4    4    0    0 -0.12338794401E+01  0.11683827819E+02 -0.64071489647E+01  0.13382296097E+02  0.00000000000E+00 0. -1.
</event>
<event>
 8    1  0.1269154E-006  0.9118800E+02  0.7816164E-02  0.1184000E+00
        -11   -1    0    0    0    0  0.00000000000E+00  0.00000000000E+00  0.45593999997E+02  0.45594000000E+02  0.51100000000E-03 0.  1.
         11   -1    0    0    0    0 -0.00000000000E+00 -0.00000000000E+00 -0.45593999997E+02  0.45594000000E+02  0.51100000000E-03 0. -1.
         23    2    1    2    0    0  0.00000000000E+00  0.00000000000E+00  0.00000000000E+00  0.91188000000E+02  0.91188000000E+02 0.  0.
    9900012    2    3    3    0    0 -0.29360668521E+02  0.78173603195E+01 -0.20799481007E+02  0.54367103915E+02  0.40000044994E+02 0.  0.
        -12    1    3    3    0    0  0.29360668521E+02 -0.78173603195E+01  0.20799481007E+02  0.36820896085E+02  0.00000000000E+00 0.  1.
         11    1    4    4    0    0 -0.26336311795E+02  0.29860093689E+01 -0.34188677603E+00  0.26507252927E+02  0.51100000000E-03 0. -1.
        -11    1    4    4    0    0  0.68769996436E+01 -0.74388824691E+00 -0.44344489033E+01  0.82164974995E+01  0.51100000000E-03 0.  1.
         12    1    4    4    0    0 -0.99013563693E+01  0.55752391975E+01 -0.16023145328E+02  0.19643353488E+02  0.00000000000E+00 0. -1.
</event>
<event>
 8    1  0.1269154E-006  0.9118800E+02  0.7816164E-02  0.1184000E+00
        -11   -1    0    0    0    0  0.00000000000E+00  0.00000000000E+00  0.45593999997E+02  0.45594000000E+02  0.51100000000E-03 0.  1.
         11   -1    0    0    0    0 -0.00000000000E+00 -0.00000000000E+00 -0.45593999997E+02  0.45594000000E+02  0.51100000000E-03 0. -1.
         23    2    1    2    0    0 -0.35527136788E-14 -0.17763568394E-14 -0.35527136788E-14  0.91188000000E+02  0.91188000000E+02 0.  0.
    9900012    2    3    3    0    0  0.21391182592E+02  0.14800605262E+02  0.26060288671E+02  0.54367092157E+02  0.40000018189E+02 0.  0.
         12    1    3    3    0    0 -0.21391182592E+02 -0.14800605262E+02 -0.26060288671E+02  0.36820907843E+02  0.00000000000E+00 0. -1.
         11    1    4    4    0    0 -0.69808646647E+01  0.74467278315E+01 -0.17132111226E+01  0.10349942970E+02  0.51100000000E-03 0. -1.
        -11    1    4    4    0    0  0.62091867987E+00 -0.40644751308E+01  0.39536459215E+01  0.57041050507E+01  0.51100000000E-03 0.  1.
        -12    1    4    4    0    0  0.27751128577E+02  0.11418352561E+02  0.23819853872E+02  0.38313044136E+02  0.00000000000E+00 0.  1.
</event>
<event>
 8    1  0.1269154E-006  0.9118800E+02  0.7816164E-02  0.1184000E+00
        -11   -1    0    0    0    0  0.00000000000E+00  0.00000000000E+00  0.45593999997E+02  0.45594000000E+02  0.51100000000E-03 0.  1.
         11   -1    0    0    0    0 -0.00000000000E+00 -0.00000000000E+00 -0.45593999997E+02  0.45594000000E+02  0.51100000000E-03 0. -1.
         23    2    1    2    0    0  0.00000000000E+00 -0.35527136788E-14  0.00000000000E+00  0.91188000000E+02  0.91188000000E+02 0.  0.
    9900012    2    3    3    0    0 -0.22134380052E+02  0.25070115982E+02 -0.15405228560E+02  0.54367318819E+02  0.40000534909E+02 0.  0.
         12    1    3    3    0    0  0.22134380052E+02 -0.25070115982E+02  0.15405228560E+02  0.36820681181E+02  0.00000000000E+00 0. -1.
         11    1    4    4    0    0  0.44912297173E+01  0.10179193281E+02 -0.10480503240E+02  0.15284896750E+02  0.51100000000E-03 0. -1.
        -11    1    4    4    0    0 -0.15847755036E+02  0.86024697641E+01  0.91932855328E+01  0.20240314347E+02  0.51100000000E-03 0.  1.
        -12    1    4    4    0    0 -0.10777854733E+02  0.62884529367E+01 -0.14118010853E+02  0.18842107722E+02  0.00000000000E+00 0.  1.
</event>
<event>
 8    1  0.1269154E-006  0.9118800E+02  0.7816164E-02  0.1184000E+00
        -11   -1    0    0    0    0  0.00000000000E+00  0.00000000000E+00  0.45593999997E+02  0.45594000000E+02  0.51100000000E-03 0. -1.
         11   -1    0    0    0    0 -0.00000000000E+00 -0.00000000000E+00 -0.45593999997E+02  0.45594000000E+02  0.51100000000E-03 0.  1.
         23    2    1    2    0    0  0.00000000000E+00 -0.35527136788E-14  0.00000000000E+00  0.91188000000E+02  0.91188000000E+02 0.  0.
    9900012    2    3    3    0    0 -0.25784895358E+02  0.24416811131E+02  0.97334368228E+01  0.54367064558E+02  0.39999955272E+02 0.  0.
         12    1    3    3    0    0  0.25784895358E+02 -0.24416811131E+02 -0.97334368228E+01  0.36820935442E+02  0.00000000000E+00 0. -1.
         11    1    4    4    0    0 -0.11359929988E+02 -0.41685783536E+01  0.71648507989E+01  0.14062721716E+02  0.51100000000E-03 0. -1.
        -11    1    4    4    0    0 -0.19714292385E+02  0.12746729753E+02  0.53338115092E+00  0.23482268616E+02  0.51100000000E-03 0.  1.
         12    1    4    4    0    0  0.52893270150E+01  0.15838659732E+02  0.20352048729E+01  0.16822074226E+02  0.00000000000E+00 0. -1.
</event>
<event>
 8    1  0.1269154E-006  0.9118800E+02  0.7816164E-02  0.1184000E+00
        -11   -1    0    0    0    0  0.00000000000E+00  0.00000000000E+00  0.45593999997E+02  0.45594000000E+02  0.51100000000E-03 0. -1.
         11   -1    0    0    0    0 -0.00000000000E+00 -0.00000000000E+00 -0.45593999997E+02  0.45594000000E+02  0.51100000000E-03 0.  1.
         23    2    1    2    0    0  0.00000000000E+00 -0.71054273576E-14 -0.44408920985E-15  0.91188000000E+02  0.91188000000E+02 0.  0.
    9900012    2    3    3    0    0  0.26681888825E+02  0.25186220855E+02 -0.30837052285E+01  0.54367107152E+02  0.40000052374E+02 0.  0.
        -12    1    3    3    0    0 -0.26681888825E+02 -0.25186220855E+02  0.30837052285E+01  0.36820892848E+02  0.00000000000E+00 0.  1.
         11    1    4    4    0    0  0.25975484299E+02  0.24123063194E+02 -0.10948130981E+02  0.37101341413E+02  0.51100000000E-03 0. -1.
        -11    1    4    4    0    0 -0.65996765774E+01 -0.11342890282E+01  0.58700596981E+00  0.67221215993E+01  0.51100000000E-03 0.  1.
        -12    1    4    4    0    0  0.73060811033E+01  0.21974466889E+01  0.72774197825E+01  0.10543644139E+02  0.00000000000E+00 0.  1.
</event>
<event>
 8    1  0.1269154E-006  0.9118800E+02  0.7816164E-02  0.1184000E+00
        -11   -1    0    0    0    0  0.00000000000E+00  0.00000000000E+00  0.45593999997E+02  0.45594000000E+02  0.51100000000E-03 0.  1.
         11   -1    0    0    0    0 -0.00000000000E+00 -0.00000000000E+00 -0.45593999997E+02  0.45594000000E+02  0.51100000000E-03 0. -1.
         23    2    1    2    0    0  0.00000000000E+00  0.00000000000E+00  0.00000000000E+00  0.91188000000E+02  0.91188000000E+02 0.  0.
    9900012    2    3    3    0    0 -0.16305178250E+02 -0.29723712313E+02  0.14367449485E+02  0.54367061444E+02  0.39999948174E+02 0.  0.
         12    1    3    3    0    0  0.16305178250E+02  0.29723712313E+02 -0.14367449485E+02  0.36820938556E+02  0.00000000000E+00 0. -1.
         11    1    4    4    0    0  0.89897324367E+01 -0.28230229853E+01  0.50735342354E+01  0.10701658655E+02  0.51100000000E-03 0. -1.
        -11    1    4    4    0    0 -0.10021819373E+02 -0.24592464145E+02  0.21385842290E+01  0.26642066343E+02  0.51100000000E-03 0.  1.
         12    1    4    4    0    0 -0.15273091313E+02 -0.23082251831E+01  0.71553310207E+01  0.17023336446E+02  0.00000000000E+00 0. -1.
</event>
<event>
 8    1  0.1269154E-006  0.9118800E+02  0.7816164E-02  0.1184000E+00
        -11   -1    0    0    0    0  0.00000000000E+00  0.00000000000E+00  0.45593999997E+02  0.45594000000E+02  0.51100000000E-03 0.  1.
         11   -1    0    0    0    0 -0.00000000000E+00 -0.00000000000E+00 -0.45593999997E+02  0.45594000000E+02  0.51100000000E-03 0. -1.
         23    2    1    2    0    0  0.35527136788E-14 -0.26645352591E-14  0.35527136788E-14  0.91188000000E+02  0.91188000000E+02 0.  0.
    9900012    2    3    3    0    0 -0.22054996631E+02 -0.40799789754E+01  0.29201213307E+02  0.54367082529E+02  0.39999996241E+02 0.  0.
         12    1    3    3    0    0  0.22054996631E+02  0.40799789754E+01 -0.29201213307E+02  0.36820917471E+02  0.00000000000E+00 0. -1.
         11    1    4    4    0    0  0.33065005620E+01  0.58580932034E+01 -0.47188418767E+01  0.82169137068E+01  0.51100000000E-03 0. -1.
        -11    1    4    4    0    0 -0.19598361024E+02 -0.99403645357E+01  0.15611537120E+02  0.26956014049E+02  0.51100000000E-03 0.  1.
         12    1    4    4    0    0 -0.57631361691E+01  0.22923568473E-02  0.18308518064E+02  0.19194154773E+02  0.00000000000E+00 0. -1.
</event>
<event>
 8    1  0.1269154E-006  0.9118800E+02  0.7816164E-02  0.1184000E+00
        -11   -1    0    0    0    0  0.00000000000E+00  0.00000000000E+00  0.45593999997E+02  0.45594000000E+02  0.51100000000E-03 0.  1.
         11   -1    0    0    0    0 -0.00000000000E+00 -0.00000000000E+00 -0.45593999997E+02  0.45594000000E+02  0.51100000000E-03 0. -1.
         23    2    1    2    0    0 -0.35527136788E-14  0.00000000000E+00  0.00000000000E+00  0.91188000000E+02  0.91188000000E+02 0.  0.
    9900012    2    3    3    0    0  0.25303693374E+02  0.18335598009E+02 -0.19475771939E+02  0.54367126228E+02  0.40000095861E+02 0.  0.
        -12    1    3    3    0    0 -0.25303693374E+02 -0.18335598009E+02  0.19475771939E+02  0.36820873772E+02  0.00000000000E+00 0.  1.
         11    1    4    4    0    0  0.24237170402E+02  0.10022004227E+02 -0.23346399302E+01  0.26331189523E+02  0.51100000000E-03 0. -1.
        -11    1    4    4    0    0  0.42417335666E+01 -0.25559377451E+00 -0.18333863908E+02  0.18819888361E+02  0.51100000000E-03 0.  1.
        -12    1    4    4    0    0 -0.31752105947E+01  0.85691875562E+01  0.11927318992E+01  0.92160483439E+01  0.00000000000E+00 0.  1.
</event>
<event>
 8    1  0.1269154E-006  0.9118800E+02  0.7816164E-02  0.1184000E+00
        -11   -1    0    0    0    0  0.00000000000E+00  0.00000000000E+00  0.45593999997E+02  0.45594000000E+02  0.51100000000E-03 0.  1.
         11   -1    0    0    0    0 -0.00000000000E+00 -0.00000000000E+00 -0.45593999997E+02  0.45594000000E+02  0.51100000000E-03 0. -1.
         23    2    1    2    0    0  0.00000000000E+00  0.00000000000E+00 -0.17763568394E-14  0.91188000000E+02  0.91188000000E+02 0.  0.
    9900012    2    3    3    0    0  0.30960759879E+02 -0.15700657929E+02 -0.12275332369E+02  0.54367311569E+02  0.40000518381E+02 0.  0.
         12    1    3    3    0    0 -0.30960759879E+02  0.15700657929E+02  0.12275332369E+02  0.36820688431E+02  0.00000000000E+00 0. -1.
         11    1    4    4    0    0  0.17516804301E+02 -0.30906496979E+01 -0.37608171251E+01  0.18180602140E+02  0.51100000000E-03 0. -1.
        -11    1    4    4    0    0  0.16182098238E+02 -0.19405453507E+02 -0.12117204980E+02  0.28022465738E+02  0.51100000000E-03 0.  1.
         12    1    4    4    0    0 -0.27381426598E+01  0.67954452759E+01  0.36026897358E+01  0.81642436916E+01  0.00000000000E+00 0. -1.
</event>
<event>
 8    1  0.1269154E-006  0.9118800E+02  0.7816164E-02  0.1184000E+00
        -11   -1    0    0    0    0  0.00000000000E+00  0.00000000000E+00  0.45593999997E+02  0.45594000000E+02  0.51100000000E-03 0.  1.
         11   -1    0    0    0    0 -0.00000000000E+00 -0.00000000000E+00 -0.45593999997E+02  0.45594000000E+02  0.51100000000E-03 0. -1.
         23    2    1    2    0    0 -0.71054273576E-14 -0.22204460493E-15  0.00000000000E+00  0.91188000000E+02  0.91188000000E+02 0.  0.
    9900012    2    3    3    0    0 -0.36698553921E+02  0.16274698305E+01 -0.25197879976E+01  0.54367056918E+02  0.39999937855E+02 0.  0.
        -12    1    3    3    0    0  0.36698553921E+02 -0.16274698305E+01  0.25197879976E+01  0.36820943082E+02  0.00000000000E+00 0.  1.
         11    1    4    4    0    0 -0.28193712084E+01 -0.72125718482E+01 -0.96789725695E+01  0.12395666861E+02  0.51100000000E-03 0. -1.
        -11    1    4    4    0    0 -0.12883631194E+02 -0.58246510429E+01  0.81916932186E+01  0.16340696147E+02  0.51100000000E-03 0.  1.
         12    1    4    4    0    0 -0.20995551518E+02  0.14664692722E+02 -0.10325086467E+01  0.25630693909E+02  0.00000000000E+00 0. -1.
</event>
<event>
 8    1  0.1269154E-006  0.9118800E+02  0.7816164E-02  0.1184000E+00
        -11   -1    0    0    0    0  0.00000000000E+00  0.00000000000E+00  0.45593999997E+02  0.45594000000E+02  0.51100000000E-03 0. -1.
         11   -1    0    0    0    0 -0.00000000000E+00 -0.00000000000E+00 -0.45593999997E+02  0.45594000000E+02  0.51100000000E-03 0.  1.
         23    2    1    2    0    0  0.00000000000E+00  0.00000000000E+00  0.00000000000E+00  0.91188000000E+02  0.91188000000E+02 0.  0.
    9900012    2    3    3    0    0 -0.19565271240E+02  0.16494390796E+02  0.26474797351E+02  0.54367086633E+02  0.40000005597E+02 0.  0.
        -12    1    3    3    0    0  0.19565271240E+02 -0.16494390796E+02 -0.26474797351E+02  0.36820913367E+02  0.00000000000E+00 0.  1.
         11    1    4    4    0    0  0.21034538928E+00  0.24596292579E+01  0.29081479885E+02  0.29186066775E+02  0.51100000000E-03 0. -1.
        -11    1    4    4    0    0 -0.48091915656E+01  0.11398942831E+01 -0.22297670372E+01  0.54221346159E+01  0.51100000000E-03 0.  1.
         12    1    4    4    0    0 -0.14966425063E+02  0.12894867255E+02 -0.37691549706E+00  0.19758885242E+02  0.00000000000E+00 0. -1.
</event>
<event>
 8    1  0.1269154E-006  0.9118800E+02  0.7816164E-02  0.1184000E+00
        -11   -1    0    0    0    0  0.00000000000E+00  0.00000000000E+00  0.45593999997E+02  0.45594000000E+02  0.51100000000E-03 0. -1.
         11   -1    0    0    0    0 -0.00000000000E+00 -0.00000000000E+00 -0.45593999997E+02  0.45594000000E+02  0.51100000000E-03 0.  1.
         23    2    1    2    0    0 -0.17763568394E-14  0.00000000000E+00  0.00000000000E+00  0.91188000000E+02  0.91188000000E+02 0.  0.
    9900012    2    3    3    0    0  0.11077694255E+02 -0.21402422311E+02 -0.27838843300E+02  0.54367079492E+02  0.39999989317E+02 0.  0.
         12    1    3    3    0    0 -0.11077694255E+02  0.21402422311E+02  0.27838843300E+02  0.36820920508E+02  0.00000000000E+00 0. -1.
         11    1    4    4    0    0  0.91786125371E+01 -0.30870701848E+01 -0.84915297733E+01  0.12879557779E+02  0.51100000000E-03 0. -1.
        -11    1    4    4    0    0 -0.11310364047E+02 -0.19010030175E+02 -0.65187076582E+01  0.23060770411E+02  0.51100000000E-03 0.  1.
        -12    1    4    4    0    0  0.13209445765E+02  0.69467804881E+00 -0.12828605869E+02  0.18426751302E+02  0.00000000000E+00 0.  1.
</event>
<event>
 8    1  0.1269154E-006  0.9118800E+02  0.7816164E-02  0.1184000E+00
        -11   -1    0    0    0    0  0.00000000000E+00  0.00000000000E+00  0.45593999997E+02  0.45594000000E+02  0.51100000000E-03 0.  1.
         11   -1    0    0    0    0 -0.00000000000E+00 -0.00000000000E+00 -0.45593999997E+02  0.45594000000E+02  0.51100000000E-03 0. -1.
         23    2    1    2    0    0  0.00000000000E+00  0.88817841970E-15 -0.71054273576E-14  0.91188000000E+02  0.91188000000E+02 0.  0.
    9900012    2    3    3    0    0  0.12277982147E+02  0.44796250190E+01  0.34423301197E+02  0.54367088126E+02  0.40000009001E+02 0.  0.
         12    1    3    3    0    0 -0.12277982147E+02 -0.44796250190E+01 -0.34423301197E+02  0.36820911874E+02  0.00000000000E+00 0. -1.
         11    1    4    4    0    0 -0.12765027177E+01  0.20367876306E+01  0.19792874765E+00  0.24118746010E+01  0.51100000000E-03 0. -1.
        -11    1    4    4    0    0  0.34706543067E+01  0.17102933071E+02  0.57438043042E+01  0.18372453540E+02  0.51100000000E-03 0.  1.
        -12    1    4    4    0    0  0.10083830558E+02 -0.14660095683E+02  0.28481568145E+02  0.33582759984E+02  0.00000000000E+00 0.  1.
</event>
<event>
 8    1  0.1269154E-006  0.9118800E+02  0.7816164E-02  0.1184000E+00
        -11   -1    0    0    0    0  0.00000000000E+00  0.00000000000E+00  0.45593999997E+02  0.45594000000E+02  0.51100000000E-03 0.  1.
         11   -1    0    0    0    0 -0.00000000000E+00 -0.00000000000E+00 -0.45593999997E+02  0.45594000000E+02  0.51100000000E-03 0. -1.
         23    2    1    2    0    0 -0.71054273576E-14  0.00000000000E+00 -0.35527136788E-14  0.91188000000E+02  0.91188000000E+02 0.  0.
    9900012    2    3    3    0    0  0.30368221989E+02  0.38848142682E+01  0.20456268599E+02  0.54367087279E+02  0.40000007069E+02 0.  0.
         12    1    3    3    0    0 -0.30368221989E+02 -0.38848142682E+01 -0.20456268599E+02  0.36820912721E+02  0.00000000000E+00 0. -1.
         11    1    4    4    0    0  0.85637067294E+01 -0.34315221460E+01 -0.29797605340E+01  0.96949156927E+01  0.51100000000E-03 0. -1.
        -11    1    4    4    0    0  0.55660565377E+01 -0.27599334741E+00 -0.72437184472E+01  0.91393990455E+01  0.51100000000E-03 0.  1.
        -12    1    4    4    0    0  0.16238458721E+02  0.75923297617E+01  0.30679747580E+02  0.35532772541E+02  0.00000000000E+00 0.  1.
</event>
<event>
 8    1  0.1269154E-006  0.9118800E+02  0.7816164E-02  0.1184000E+00
        -11   -1    0    0    0    0  0.00000000000E+00  0.00000000000E+00  0.45593999997E+02  0.45594000000E+02  0.51100000000E-03 0. -1.
         11   -1    0    0    0    0 -0.00000000000E+00 -0.00000000000E+00 -0.45593999997E+02  0.45594000000E+02  0.51100000000E-03 0.  1.
         23    2    1    2    0    0 -0.35527136788E-14  0.35527136788E-14 -0.17763568394E-14  0.91188000000E+02  0.91188000000E+02 0.  0.
    9900012    2    3    3    0    0  0.23786010443E+02 -0.25737320067E+02  0.11295838541E+02  0.54367083317E+02  0.39999998039E+02 0.  0.
        -12    1    3    3    0    0 -0.23786010443E+02  0.25737320067E+02 -0.11295838541E+02  0.36820916683E+02  0.00000000000E+00 0.  1.
         11    1    4    4    0    0  0.15938025296E+02 -0.43525425953E+01  0.60119639106E+01  0.17581495605E+02  0.51100000000E-03 0. -1.
        -11    1    4    4    0    0  0.15399017269E+02 -0.23433873487E+02  0.67106742763E+01  0.28832435016E+02  0.51100000000E-03 0.  1.
        -12    1    4    4    0    0 -0.75510321216E+01  0.20490960161E+01 -0.14267996458E+01  0.79531526965E+01  0.00000000000E+00 0.  1.
</event>
<event>
 8    1  0.1269154E-006  0.9118800E+02  0.7816164E-02  0.1184000E+00
        -11   -1    0    0    0    0  0.00000000000E+00  0.00000000000E+00  0.45593999997E+02  0.45594000000E+02  0.51100000000E-03 0.  1.
         11   -1    0    0    0    0 -0.00000000000E+00 -0.00000000000E+00 -0.45593999997E+02  0.45594000000E+02  0.51100000000E-03 0. -1.
         23    2    1    2    0    0  0.00000000000E+00  0.00000000000E+00  0.00000000000E+00  0.91188000000E+02  0.91188000000E+02 0.  0.
    9900012    2    3    3    0    0  0.14240495941E+02  0.18681872864E+02  0.28354431619E+02  0.54367110674E+02  0.40000060403E+02 0.  0.
         12    1    3    3    0    0 -0.14240495941E+02 -0.18681872864E+02 -0.28354431619E+02  0.36820889326E+02  0.00000000000E+00 0. -1.
         11    1    4    4    0    0 -0.90692177877E+01  0.95207723449E+01 -0.21988572906E+01  0.13331571212E+02  0.51100000000E-03 0. -1.
        -11    1    4    4    0    0  0.10571099866E+02  0.10005022757E+02  0.14787019136E+02  0.20748603999E+02  0.51100000000E-03 0.  1.
        -12    1    4    4    0    0  0.12738613863E+02 -0.84392223821E+00  0.15766269774E+02  0.20286935463E+02  0.00000000000E+00 0.  1.
</event>
<event>
 8    1  0.1269154E-006  0.9118800E+02  0.7816164E-02  0.1184000E+00
        -11   -1    0    0    0    0  0.00000000000E+00  0.00000000000E+00  0.45593999997E+02  0.45594000000E+02  0.51100000000E-03 0.  1.
         11   -1    0    0    0    0 -0.00000000000E+00 -0.00000000000E+00 -0.45593999997E+02  0.45594000000E+02  0.51100000000E-03 0. -1.
         23    2    1    2    0    0  0.00000000000E+00 -0.35527136788E-14  0.00000000000E+00  0.91188000000E+02  0.91188000000E+02 0.  0.
    9900012    2    3    3    0    0  0.17517925314E+02 -0.16892624180E+02 -0.27632247621E+02  0.54367087904E+02  0.40000008495E+02 0.  0.
        -12    1    3    3    0    0 -0.17517925314E+02  0.16892624180E+02  0.27632247621E+02  0.36820912096E+02  0.00000000000E+00 0.  1.
         11    1    4    4    0    0  0.24394716283E+01  0.53022194751E+01 -0.14774189901E+02  0.15885252302E+02  0.51100000000E-03 0. -1.
        -11    1    4    4    0    0  0.42987444388E+00 -0.21590382461E+02 -0.81900361206E+01  0.23095586132E+02  0.51100000000E-03 0.  1.
        -12    1    4    4    0    0  0.14648579241E+02 -0.60446119380E+00 -0.46680215994E+01  0.15386249471E+02  0.00000000000E+00 0.  1.
</event>
<event>
 8    1  0.1269154E-006  0.9118800E+02  0.7816164E-02  0.1184000E+00
        -11   -1    0    0    0    0  0.00000000000E+00  0.00000000000E+00  0.45593999997E+02  0.45594000000E+02  0.51100000000E-03 0. -1.
         11   -1    0    0    0    0 -0.00000000000E+00 -0.00000000000E+00 -0.45593999997E+02  0.45594000000E+02  0.51100000000E-03 0.  1.
         23    2    1    2    0    0 -0.35527136788E-14 -0.88817841970E-15 -0.35527136788E-14  0.91188000000E+02  0.91188000000E+02 0.  0.
    9900012    2    3    3    0    0  0.24341001426E+02 -0.71511314040E+01  0.26686244767E+02  0.54367099814E+02  0.40000035645E+02 0.  0.
        -12    1    3    3    0    0 -0.24341001426E+02  0.71511314040E+01 -0.26686244767E+02  0.36820900186E+02  0.00000000000E+00 0.  1.
         11    1    4    4    0    0  0.39625816456E+01  0.20414736469E+01  0.26761759046E+02  0.27130451810E+02  0.51100000000E-03 0. -1.
        -11    1    4    4    0    0  0.13736036499E+02 -0.13545658420E+02  0.13977107947E+00  0.19292047505E+02  0.51100000000E-03 0.  1.
         12    1    4    4    0    0  0.66423832816E+01  0.43530533689E+01 -0.21528535805E+00  0.79446004983E+01  0.00000000000E+00 0. -1.
</event>
<event>
 8    1  0.1269154E-006  0.9118800E+02  0.7816164E-02  0.1184000E+00
        -11   -1    0    0    0    0  0.00000000000E+00  0.00000000000E+00  0.45593999997E+02  0.45594000000E+02  0.51100000000E-03 0.  1.
         11   -1    0    0    0    0 -0.00000000000E+00 -0.00000000000E+00 -0.45593999997E+02  0.45594000000E+02  0.51100000000E-03 0. -1.
         23    2    1    2    0    0  0.00000000000E+00  0.00000000000E+00  0.00000000000E+00  0.91188000000E+02  0.91188000000E+02 0.  0.
    9900012    2    3    3    0    0  0.76438466113E+01  0.21932228541E+02 -0.28571481279E+02  0.54367074125E+02  0.39999977084E+02 0.  0.
        -12    1    3    3    0    0 -0.76438466113E+01 -0.21932228541E+02  0.28571481279E+02  0.36820925875E+02  0.00000000000E+00 0.  1.
         11    1    4    4    0    0  0.96091658814E+01  0.18429206389E+02 -0.79441826327E+01  0.22250432693E+02  0.51100000000E-03 0. -1.
        -11    1    4    4    0    0  0.24039680608E+01 -0.46070664815E+01  0.35168469238E+01  0.62747379666E+01  0.51100000000E-03 0.  1.
         12    1    4    4    0    0 -0.43692873309E+01  0.81100886335E+01 -0.24144145570E+02  0.25841903466E+02  0.00000000000E+00 0. -1.
</event>
<event>
 8    1  0.1269154E-006  0.9118800E+02  0.7816164E-02  0.1184000E+00
        -11   -1    0    0    0    0  0.00000000000E+00  0.00000000000E+00  0.45593999997E+02  0.45594000000E+02  0.51100000000E-03 0.  1.
         11   -1    0    0    0    0 -0.00000000000E+00 -0.00000000000E+00 -0.45593999997E+02  0.45594000000E+02  0.51100000000E-03 0. -1.
         23    2    1    2    0    0  0.00000000000E+00  0.35527136788E-14 -0.35527136788E-14  0.91188000000E+02  0.91188000000E+02 0.  0.
    9900012    2    3    3    0    0  0.86496183554E+01 -0.18625331769E+02  0.30562417551E+02  0.54367078667E+02  0.39999987438E+02 0.  0.
         12    1    3    3    0    0 -0.86496183554E+01  0.18625331769E+02 -0.30562417551E+02  0.36820921333E+02  0.00000000000E+00 0. -1.
         11    1    4    4    0    0 -0.93410985020E+01 -0.38984776030E+01  0.25703510591E+01  0.10443225252E+02  0.51100000000E-03 0. -1.
        -11    1    4    4    0    0  0.12475898421E+02  0.43770356326E+01  0.15789973795E+02  0.20594410772E+02  0.51100000000E-03 0.  1.
        -12    1    4    4    0    0  0.55148184367E+01 -0.19103889799E+02  0.12202092697E+02  0.23329442643E+02  0.00000000000E+00 0.  1.
</event>
<event>
 8    1  0.1269154E-006  0.9118800E+02  0.7816164E-02  0.1184000E+00
        -11   -1    0    0    0    0  0.00000000000E+00  0.00000000000E+00  0.45593999997E+02  0.45594000000E+02  0.51100000000E-03 0.  1.
         11   -1    0    0    0    0 -0.00000000000E+00 -0.00000000000E+00 -0.45593999997E+02  0.45594000000E+02  0.51100000000E-03 0. -1.
         23    2    1    2    0    0 -0.35527136788E-14 -0.17763568394E-14  0.35527136788E-14  0.91188000000E+02  0.91188000000E+02 0.  0.
    9900012    2    3    3    0    0 -0.26442976624E+02 -0.13191019124E+02  0.21966967742E+02  0.54367059353E+02  0.39999943408E+02 0.  0.
         12    1    3    3    0    0  0.26442976624E+02  0.13191019124E+02 -0.21966967742E+02  0.36820940647E+02  0.00000000000E+00 0. -1.
         11    1    4    4    0    0 -0.14775993507E+02 -0.10745101406E+01  0.78665991646E+01  0.16774025720E+02  0.51100000000E-03 0.  1.
        -11    1    4    4    0    0 -0.97462195953E+00  0.22333722649E+01 -0.84559754384E+01  0.88000773015E+01  0.51100000000E-03 0. -1.
        -12    1    4    4    0    0 -0.10692361158E+02 -0.14349881249E+02  0.22556344016E+02  0.28792956332E+02  0.00000000000E+00 0.  1.
</event>
<event>
 8    1  0.1269154E-006  0.9118800E+02  0.7816164E-02  0.1184000E+00
        -11   -1    0    0    0    0  0.00000000000E+00  0.00000000000E+00  0.45593999997E+02  0.45594000000E+02  0.51100000000E-03 0.  1.
         11   -1    0    0    0    0 -0.00000000000E+00 -0.00000000000E+00 -0.45593999997E+02  0.45594000000E+02  0.51100000000E-03 0. -1.
         23    2    1    2    0    0 -0.35527136788E-14 -0.44408920985E-15  0.00000000000E+00  0.91188000000E+02  0.91188000000E+02 0.  0.
    9900012    2    3    3    0    0 -0.29507401237E+02 -0.32046798154E+01  0.21790432541E+02  0.54367086774E+02  0.40000005919E+02 0.  0.
         12    1    3    3    0    0  0.29507401237E+02  0.32046798154E+01 -0.21790432541E+02  0.36820913226E+02  0.00000000000E+00 0. -1.
         11    1    4    4    0    0  0.60501145201E+01  0.74105425515E+01 -0.14554279662E+01  0.96766883509E+01  0.51100000000E-03 0. -1.
        -11    1    4    4    0    0 -0.17991739132E+02 -0.95130246643E+01  0.10084977502E+02  0.22713588152E+02  0.51100000000E-03 0.  1.
        -12    1    4    4    0    0 -0.17565776625E+02 -0.11021977027E+01  0.13160883005E+02  0.21976810271E+02  0.00000000000E+00 0.  1.
</event>
<event>
 8    1  0.1269154E-006  0.9118800E+02  0.7816164E-02  0.1184000E+00
        -11   -1    0    0    0    0  0.00000000000E+00  0.00000000000E+00  0.45593999997E+02  0.45594000000E+02  0.51100000000E-03 0. -1.
         11   -1    0    0    0    0 -0.00000000000E+00 -0.00000000000E+00 -0.45593999997E+02  0.45594000000E+02  0.51100000000E-03 0.  1.
         23    2    1    2    0    0  0.00000000000E+00  0.44408920985E-15 -0.31086244690E-14  0.91188000000E+02  0.91188000000E+02 0.  0.
    9900012    2    3    3    0    0 -0.36674382764E+02 -0.14493969150E+01 -0.29441815953E+01  0.54367091431E+02  0.40000016536E+02 0.  0.
        -12    1    3    3    0    0  0.36674382764E+02  0.14493969150E+01  0.29441815953E+01  0.36820908569E+02  0.00000000000E+00 0.  1.
         11    1    4    4    0    0  0.50356756866E+01  0.41247768632E+01 -0.82408731204E+01  0.10501609583E+02  0.51100000000E-03 0. -1.
        -11    1    4    4    0    0 -0.26812598239E+02 -0.41746650786E+01  0.87454919497E+01  0.28510118950E+02  0.51100000000E-03 0.  1.
        -12    1    4    4    0    0 -0.14897460212E+02 -0.13995086996E+01 -0.34488004246E+01  0.15355362898E+02  0.00000000000E+00 0.  1.
</event>
<event>
 8    1  0.1269154E-006  0.9118800E+02  0.7816164E-02  0.1184000E+00
        -11   -1    0    0    0    0  0.00000000000E+00  0.00000000000E+00  0.45593999997E+02  0.45594000000E+02  0.51100000000E-03 0. -1.
         11   -1    0    0    0    0 -0.00000000000E+00 -0.00000000000E+00 -0.45593999997E+02  0.45594000000E+02  0.51100000000E-03 0.  1.
         23    2    1    2    0    0  0.35527136788E-14 -0.17763568394E-14  0.00000000000E+00  0.91188000000E+02  0.91188000000E+02 0.  0.
    9900012    2    3    3    0    0 -0.23829185544E+02 -0.12065897024E+02 -0.25344895914E+02  0.54367086058E+02  0.40000004286E+02 0.  0.
         12    1    3    3    0    0  0.23829185544E+02  0.12065897024E+02  0.25344895914E+02  0.36820913942E+02  0.00000000000E+00 0. -1.
         11    1    4    4    0    0 -0.10328786925E+01  0.33743742079E+01 -0.14270401926E+02  0.14700258878E+02  0.51100000000E-03 0. -1.
        -11    1    4    4    0    0 -0.11224089048E+02 -0.11649885344E+02 -0.19140072269E+02  0.25060773535E+02  0.51100000000E-03 0.  1.
         12    1    4    4    0    0 -0.11572217803E+02 -0.37903858881E+01  0.80655782806E+01  0.14606053644E+02  0.00000000000E+00 0. -1.
</event>
<event>
 8    1  0.1269154E-006  0.9118800E+02  0.7816164E-02  0.1184000E+00
        -11   -1    0    0    0    0  0.00000000000E+00  0.00000000000E+00  0.45593999997E+02  0.45594000000E+02  0.51100000000E-03 0.  1.
         11   -1    0    0    0    0 -0.00000000000E+00 -0.00000000000E+00 -0.45593999997E+02  0.45594000000E+02  0.51100000000E-03 0. -1.
         23    2    1    2    0    0  0.00000000000E+00  0.35527136788E-14 -0.35527136788E-14  0.91188000000E+02  0.91188000000E+02 0.  0.
    9900012    2    3    3    0    0  0.41158563632E+01  0.31112308195E+02 -0.19257824969E+02  0.54367084512E+02  0.40000000763E+02 0.  0.
        -12    1    3    3    0    0 -0.41158563632E+01 -0.31112308195E+02  0.19257824969E+02  0.36820915488E+02  0.00000000000E+00 0.  1.
         11    1    4    4    0    0  0.22397680519E+01  0.11460664680E+02  0.19523000494E+00  0.11679105738E+02  0.51100000000E-03 0.  1.
        -11    1    4    4    0    0 -0.12409126110E+01 -0.84028731114E+01 -0.95336327621E+01  0.12768644977E+02  0.51100000000E-03 0. -1.
         12    1    4    4    0    0  0.31170009223E+01  0.28054516626E+02 -0.99194222120E+01  0.29919333798E+02  0.00000000000E+00 0. -1.
</event>
<event>
 8    1  0.1269154E-006  0.9118800E+02  0.7816164E-02  0.1184000E+00
        -11   -1    0    0    0    0  0.00000000000E+00  0.00000000000E+00  0.45593999997E+02  0.45594000000E+02  0.51100000000E-03 0.  1.
         11   -1    0    0    0    0 -0.00000000000E+00 -0.00000000000E+00 -0.45593999997E+02  0.45594000000E+02  0.51100000000E-03 0. -1.
         23    2    1    2    0    0  0.00000000000E+00  0.00000000000E+00  0.35527136788E-14  0.91188000000E+02  0.91188000000E+02 0.  0.
    9900012    2    3    3    0    0 -0.26956871036E+02  0.37822520715E+01 -0.24795258663E+02  0.54367038864E+02  0.39999896698E+02 0.  0.
        -12    1    3    3    0    0  0.26956871036E+02 -0.37822520715E+01  0.24795258663E+02  0.36820961136E+02  0.00000000000E+00 0.  1.
         11    1    4    4    0    0 -0.21446282159E+02 -0.48336944483E+01 -0.23650295706E+02  0.32290000119E+02  0.51100000000E-03 0. -1.
        -11    1    4    4    0    0  0.34554706310E+01 -0.10461868429E+01 -0.68272608781E+01  0.77231001256E+01  0.51100000000E-03 0.  1.
        -12    1    4    4    0    0 -0.89660595081E+01  0.96621333627E+01  0.56822979209E+01  0.14353938619E+02  0.00000000000E+00 0.  1.
</event>
<event>
 8    1  0.1269154E-006  0.9118800E+02  0.7816164E-02  0.1184000E+00
        -11   -1    0    0    0    0  0.00000000000E+00  0.00000000000E+00  0.45593999997E+02  0.45594000000E+02  0.51100000000E-03 0. -1.
         11   -1    0    0    0    0 -0.00000000000E+00 -0.00000000000E+00 -0.45593999997E+02  0.45594000000E+02  0.51100000000E-03 0.  1.
         23    2    1    2    0    0  0.00000000000E+00  0.00000000000E+00  0.35527136788E-14  0.91188000000E+02  0.91188000000E+02 0.  0.
    9900012    2    3    3    0    0 -0.25106876868E+02  0.16573347793E+02 -0.21230807216E+02  0.54367105142E+02  0.40000047792E+02 0.  0.
         12    1    3    3    0    0  0.25106876868E+02 -0.16573347793E+02  0.21230807216E+02  0.36820894858E+02  0.00000000000E+00 0. -1.
         11    1    4    4    0    0 -0.12459590663E+01  0.10515140702E+02 -0.11067497277E+02  0.15316987113E+02  0.51100000000E-03 0. -1.
        -11    1    4    4    0    0 -0.95503043410E+01 -0.35423624998E+01 -0.17557302698E+02  0.20298165518E+02  0.51100000000E-03 0.  1.
         12    1    4    4    0    0 -0.14310613460E+02  0.96005695904E+01  0.73939927586E+01  0.18751952511E+02  0.00000000000E+00 0. -1.
</event>
<event>
 8    1  0.1269154E-006  0.9118800E+02  0.7816164E-02  0.1184000E+00
        -11   -1    0    0    0    0  0.00000000000E+00  0.00000000000E+00  0.45593999997E+02  0.45594000000E+02  0.51100000000E-03 0. -1.
         11   -1    0    0    0    0 -0.00000000000E+00 -0.00000000000E+00 -0.45593999997E+02  0.45594000000E+02  0.51100000000E-03 0.  1.
         23    2    1    2    0    0  0.00000000000E+00  0.35527136788E-14  0.17763568394E-14  0.91188000000E+02  0.91188000000E+02 0.  0.
    9900012    2    3    3    0    0 -0.26087756108E+02 -0.20478419107E+02 -0.15995035489E+02  0.54367111524E+02  0.40000062342E+02 0.  0.
         12    1    3    3    0    0  0.26087756108E+02  0.20478419107E+02  0.15995035489E+02  0.36820888476E+02  0.00000000000E+00 0. -1.
         11    1    4    4    0    0  0.78924527766E+01  0.19858476133E+01  0.13948821716E+01  0.82571240821E+01  0.51100000000E-03 0. -1.
        -11    1    4    4    0    0 -0.43650401235E+01  0.14817240801E+01 -0.21962157849E+01  0.51061184440E+01  0.51100000000E-03 0.  1.
         12    1    4    4    0    0 -0.29615168761E+02 -0.23945990800E+02 -0.15193701875E+02  0.41003868998E+02  0.00000000000E+00 0. -1.
</event>
<event>
 8    1  0.1269154E-006  0.9118800E+02  0.7816164E-02  0.1184000E+00
        -11   -1    0    0    0    0  0.00000000000E+00  0.00000000000E+00  0.45593999997E+02  0.45594000000E+02  0.51100000000E-03 0.  1.
         11   -1    0    0    0    0 -0.00000000000E+00 -0.00000000000E+00 -0.45593999997E+02  0.45594000000E+02  0.51100000000E-03 0. -1.
         23    2    1    2    0    0  0.35527136788E-14 -0.35527136788E-14  0.00000000000E+00  0.91188000000E+02  0.91188000000E+02 0.  0.
    9900012    2    3    3    0    0  0.18728406918E+02 -0.26767717768E+02  0.16985732236E+02  0.54367095070E+02  0.40000024832E+02 0.  0.
         12    1    3    3    0    0 -0.18728406918E+02  0.26767717768E+02 -0.16985732236E+02  0.36820904930E+02  0.00000000000E+00 0. -1.
         11    1    4    4    0    0 -0.47654076369E+01 -0.92757517841E+01  0.73909175307E+01  0.12781797343E+02  0.51100000000E-03 0. -1.
        -11    1    4    4    0    0 -0.16656925766E+01 -0.11662488272E+02  0.10446263600E+02  0.15745240167E+02  0.51100000000E-03 0.  1.
         12    1    4    4    0    0  0.25159507132E+02 -0.58294777124E+01 -0.85144889446E+00  0.25840057561E+02  0.00000000000E+00 0. -1.
</event>
<event>
 8    1  0.1269154E-006  0.9118800E+02  0.7816164E-02  0.1184000E+00
        -11   -1    0    0    0    0  0.00000000000E+00  0.00000000000E+00  0.45593999997E+02  0.45594000000E+02  0.51100000000E-03 0.  1.
         11   -1    0    0    0    0 -0.00000000000E+00 -0.00000000000E+00 -0.45593999997E+02  0.45594000000E+02  0.51100000000E-03 0. -1.
         23    2    1    2    0    0  0.17763568394E-14  0.88817841970E-15  0.00000000000E+00  0.91188000000E+02  0.91188000000E+02 0.  0.
    9900012    2    3    3    0    0 -0.12597001442E+02  0.40795810391E+01  0.34357646550E+02  0.54367145810E+02  0.40000140504E+02 0.  0.
         12    1    3    3    0    0  0.12597001442E+02 -0.40795810391E+01 -0.34357646550E+02  0.36820854190E+02  0.00000000000E+00 0. -1.
         11    1    4    4    0    0 -0.28643440678E+01  0.60831623092E+01  0.10108827068E+02  0.12140746088E+02  0.51100000000E-03 0. -1.
        -11    1    4    4    0    0 -0.17053439099E+02 -0.12939683347E+02  0.15265336637E+02  0.26292312434E+02  0.51100000000E-03 0.  1.
         12    1    4    4    0    0  0.73207817243E+01  0.10936102077E+02  0.89834828449E+01  0.15934087289E+02  0.00000000000E+00 0. -1.
</event>
<event>
 8    1  0.1269154E-006  0.9118800E+02  0.7816164E-02  0.1184000E+00
        -11   -1    0    0    0    0  0.00000000000E+00  0.00000000000E+00  0.45593999997E+02  0.45594000000E+02  0.51100000000E-03 0.  1.
         11   -1    0    0    0    0 -0.00000000000E+00 -0.00000000000E+00 -0.45593999997E+02  0.45594000000E+02  0.51100000000E-03 0. -1.
         23    2    1    2    0    0 -0.71054273576E-14  0.00000000000E+00 -0.17763568394E-14  0.91188000000E+02  0.91188000000E+02 0.  0.
    9900012    2    3    3    0    0 -0.34350846916E+02  0.71696918990E+01 -0.11153181406E+02  0.54367100755E+02  0.40000037791E+02 0.  0.
        -12    1    3    3    0    0  0.34350846916E+02 -0.71696918990E+01  0.11153181406E+02  0.36820899245E+02  0.00000000000E+00 0.  1.
         11    1    4    4    0    0 -0.36823409219E+02  0.15324488158E+01 -0.16330216538E+02  0.40311137894E+02  0.51100000000E-03 0. -1.
        -11    1    4    4    0    0 -0.27710844354E+01  0.74886861116E+00  0.61830666979E+01  0.68168927817E+01  0.51100000000E-03 0.  1.
         12    1    4    4    0    0  0.52436467386E+01  0.48883744720E+01 -0.10060315656E+01  0.72390700790E+01  0.00000000000E+00 0. -1.
</event>
<event>
 8    1  0.1269154E-006  0.9118800E+02  0.7816164E-02  0.1184000E+00
        -11   -1    0    0    0    0  0.00000000000E+00  0.00000000000E+00  0.45593999997E+02  0.45594000000E+02  0.51100000000E-03 0.  1.
         11   -1    0    0    0    0 -0.00000000000E+00 -0.00000000000E+00 -0.45593999997E+02  0.45594000000E+02  0.51100000000E-03 0. -1.
         23    2    1    2    0    0  0.00000000000E+00  0.17763568394E-14  0.35527136788E-14  0.91188000000E+02  0.91188000000E+02 0.  0.
    9900012    2    3    3    0    0  0.27367367179E+02 -0.82046555327E+01 -0.23226949433E+02  0.54367077433E+02  0.39999984625E+02 0.  0.
         12    1    3    3    0    0 -0.27367367179E+02  0.82046555327E+01  0.23226949433E+02  0.36820922567E+02  0.00000000000E+00 0. -1.
         11    1    4    4    0    0  0.14581004293E+02 -0.23056631911E+02 -0.10622334843E+02  0.29275381450E+02  0.51100000000E-03 0. -1.
        -11    1    4    4    0    0  0.56250056548E+01  0.32865879231E+01  0.46567303368E-01  0.65149457072E+01  0.51100000000E-03 0.  1.
         12    1    4    4    0    0  0.71613572311E+01  0.11565388456E+02 -0.12651181893E+02  0.18576750276E+02  0.00000000000E+00 0. -1.
</event>
<event>
 8    1  0.1269154E-006  0.9118800E+02  0.7816164E-02  0.1184000E+00
        -11   -1    0    0    0    0  0.00000000000E+00  0.00000000000E+00  0.45593999997E+02  0.45594000000E+02  0.51100000000E-03 0.  1.
         11   -1    0    0    0    0 -0.00000000000E+00 -0.00000000000E+00 -0.45593999997E+02  0.45594000000E+02  0.51100000000E-03 0. -1.
         23    2    1    2    0    0  0.00000000000E+00 -0.35527136788E-14 -0.17763568394E-14  0.91188000000E+02  0.91188000000E+02 0.  0.
    9900012    2    3    3    0    0 -0.14056429466E+02 -0.31016154890E+02 -0.14006966530E+02  0.54367079522E+02  0.39999989385E+02 0.  0.
        -12    1    3    3    0    0  0.14056429466E+02  0.31016154890E+02  0.14006966530E+02  0.36820920478E+02  0.00000000000E+00 0.  1.
         11    1    4    4    0    0 -0.21031410614E+01  0.12183387600E+01 -0.47617220643E+01  0.53461714279E+01  0.51100000000E-03 0. -1.
        -11    1    4    4    0    0 -0.19837938126E+02 -0.31806425784E+02 -0.84980370900E+00  0.37495528758E+02  0.51100000000E-03 0.  1.
         12    1    4    4    0    0  0.78846497208E+01 -0.42806786541E+00 -0.83954407570E+01  0.11525379335E+02  0.00000000000E+00 0. -1.
</event>
<event>
 8    1  0.1269154E-006  0.9118800E+02  0.7816164E-02  0.1184000E+00
        -11   -1    0    0    0    0  0.00000000000E+00  0.00000000000E+00  0.45593999997E+02  0.45594000000E+02  0.51100000000E-03 0.  1.
         11   -1    0    0    0    0 -0.00000000000E+00 -0.00000000000E+00 -0.45593999997E+02  0.45594000000E+02  0.51100000000E-03 0. -1.
         23    2    1    2    0    0 -0.35527136788E-14  0.35527136788E-14 -0.88817841970E-15  0.91188000000E+02  0.91188000000E+02 0.  0.
    9900012    2    3    3    0    0  0.19375654513E+02  0.30624333125E+02 -0.65202445261E+01  0.54367090779E+02  0.40000015050E+02 0.  0.
         12    1    3    3    0    0 -0.19375654513E+02 -0.30624333125E+02  0.65202445261E+01  0.36820909221E+02  0.00000000000E+00 0. -1.
         11    1    4    4    0    0 -0.48575084039E+01  0.19636471163E+02 -0.40358093481E+01  0.20627024628E+02  0.51100000000E-03 0. -1.
        -11    1    4    4    0    0 -0.20539450480E+01 -0.18676058948E+01 -0.34914193020E+01  0.44605662244E+01  0.51100000000E-03 0.  1.
        -12    1    4    4    0    0  0.26287107965E+02  0.12855467857E+02  0.10069841240E+01  0.29279499927E+02  0.00000000000E+00 0.  1.
</event>
<event>
 8    1  0.1269154E-006  0.9118800E+02  0.7816164E-02  0.1184000E+00
        -11   -1    0    0    0    0  0.00000000000E+00  0.00000000000E+00  0.45593999997E+02  0.45594000000E+02  0.51100000000E-03 0. -1.
         11   -1    0    0    0    0 -0.00000000000E+00 -0.00000000000E+00 -0.45593999997E+02  0.45594000000E+02  0.51100000000E-03 0.  1.
         23    2    1    2    0    0 -0.17763568394E-14  0.00000000000E+00  0.35527136788E-14  0.91188000000E+02  0.91188000000E+02 0.  0.
    9900012    2    3    3    0    0  0.15540066744E+02  0.22727633757E+02 -0.24448644821E+02  0.54367146613E+02  0.40000142333E+02 0.  0.
         12    1    3    3    0    0 -0.15540066744E+02 -0.22727633757E+02  0.24448644821E+02  0.36820853387E+02  0.00000000000E+00 0. -1.
         11    1    4    4    0    0 -0.34774190050E+01  0.90369085313E+01 -0.10215831205E+02  0.14075559180E+02  0.51100000000E-03 0. -1.
        -11    1    4    4    0    0  0.21844625905E+02  0.64169321416E+01 -0.20224241100E+02  0.30452990450E+02  0.51100000000E-03 0.  1.
         12    1    4    4    0    0 -0.28271401557E+01  0.72737930837E+01  0.59914274849E+01  0.98385969828E+01  0.00000000000E+00 0. -1.
</event>
<event>
 8    1  0.1269154E-006  0.9118800E+02  0.7816164E-02  0.1184000E+00
        -11   -1    0    0    0    0  0.00000000000E+00  0.00000000000E+00  0.45593999997E+02  0.45594000000E+02  0.51100000000E-03 0. -1.
         11   -1    0    0    0    0 -0.00000000000E+00 -0.00000000000E+00 -0.45593999997E+02  0.45594000000E+02  0.51100000000E-03 0.  1.
         23    2    1    2    0    0  0.00000000000E+00  0.17763568394E-14  0.35527136788E-14  0.91188000000E+02  0.91188000000E+02 0.  0.
    9900012    2    3    3    0    0 -0.32138660369E+02  0.10942024126E+02  0.14253375541E+02  0.54367080721E+02  0.39999992119E+02 0.  0.
        -12    1    3    3    0    0  0.32138660369E+02 -0.10942024126E+02 -0.14253375541E+02  0.36820919279E+02  0.00000000000E+00 0.  1.
         11    1    4    4    0    0 -0.12285229416E+02  0.17005882842E+02  0.13457625105E+02  0.24924577966E+02  0.51100000000E-03 0. -1.
        -11    1    4    4    0    0 -0.38714290652E+01  0.45843267713E+01 -0.65483910414E+01  0.88817476009E+01  0.51100000000E-03 0.  1.
        -12    1    4    4    0    0 -0.15982001887E+02 -0.10648185486E+02  0.73441414773E+01  0.20560755154E+02  0.00000000000E+00 0.  1.
</event>
<event>
 8    1  0.1269154E-006  0.9118800E+02  0.7816164E-02  0.1184000E+00
        -11   -1    0    0    0    0  0.00000000000E+00  0.00000000000E+00  0.45593999997E+02  0.45594000000E+02  0.51100000000E-03 0. -1.
         11   -1    0    0    0    0 -0.00000000000E+00 -0.00000000000E+00 -0.45593999997E+02  0.45594000000E+02  0.51100000000E-03 0.  1.
         23    2    1    2    0    0  0.00000000000E+00  0.00000000000E+00  0.35527136788E-14  0.91188000000E+02  0.91188000000E+02 0.  0.
    9900012    2    3    3    0    0  0.14392122700E+01  0.32106141777E+02 -0.17969421898E+02  0.54367139131E+02  0.40000125277E+02 0.  0.
         12    1    3    3    0    0 -0.14392122700E+01 -0.32106141777E+02  0.17969421898E+02  0.36820860869E+02  0.00000000000E+00 0. -1.
         11    1    4    4    0    0 -0.64780139338E+01  0.17383706798E+02 -0.11383878643E+02  0.21765813097E+02  0.51100000000E-03 0.  1.
        -11    1    4    4    0    0  0.34151936943E+01  0.17756683776E+02  0.58723990970E+01  0.19011797340E+02  0.51100000000E-03 0. -1.
         12    1    4    4    0    0  0.45020325095E+01 -0.30342487965E+01 -0.12457942352E+02  0.13589528693E+02  0.00000000000E+00 0. -1.
</event>
<event>
 8    1  0.1269154E-006  0.9118800E+02  0.7816164E-02  0.1184000E+00
        -11   -1    0    0    0    0  0.00000000000E+00  0.00000000000E+00  0.45593999997E+02  0.45594000000E+02  0.51100000000E-03 0. -1.
         11   -1    0    0    0    0 -0.00000000000E+00 -0.00000000000E+00 -0.45593999997E+02  0.45594000000E+02  0.51100000000E-03 0.  1.
         23    2    1    2    0    0 -0.71054273576E-14 -0.44408920985E-15  0.17763568394E-14  0.91188000000E+02  0.91188000000E+02 0.  0.
    9900012    2    3    3    0    0  0.35164840694E+02 -0.45924797658E+00 -0.10908882176E+02  0.54367073340E+02  0.39999975294E+02 0.  0.
         12    1    3    3    0    0 -0.35164840694E+02  0.45924797658E+00  0.10908882176E+02  0.36820926660E+02  0.00000000000E+00 0. -1.
         11    1    4    4    0    0 -0.23028572541E+01  0.97750720012E+01  0.30704761030E+01  0.10501571688E+02  0.51100000000E-03 0. -1.
        -11    1    4    4    0    0  0.34374316851E+01 -0.15538079535E+01  0.30345546095E+01  0.48413611397E+01  0.51100000000E-03 0.  1.
         12    1    4    4    0    0  0.34030266263E+02 -0.86805120242E+01 -0.17013912888E+02  0.39024140512E+02  0.00000000000E+00 0. -1.
</event>
<event>
 8    1  0.1269154E-006  0.9118800E+02  0.7816164E-02  0.1184000E+00
        -11   -1    0    0    0    0  0.00000000000E+00  0.00000000000E+00  0.45593999997E+02  0.45594000000E+02  0.51100000000E-03 0. -1.
         11   -1    0    0    0    0 -0.00000000000E+00 -0.00000000000E+00 -0.45593999997E+02  0.45594000000E+02  0.51100000000E-03 0.  1.
         23    2    1    2    0    0  0.00000000000E+00 -0.35527136788E-14  0.35527136788E-14  0.91188000000E+02  0.91188000000E+02 0.  0.
    9900012    2    3    3    0    0  0.12026961809E+02  0.18935618410E+02 -0.29198881206E+02  0.54367080421E+02  0.39999991436E+02 0.  0.
        -12    1    3    3    0    0 -0.12026961809E+02 -0.18935618410E+02  0.29198881206E+02  0.36820919579E+02  0.00000000000E+00 0.  1.
         11    1    4    4    0    0  0.13955018559E+01  0.58930874759E+01 -0.17715350809E+01  0.63098527901E+01  0.51100000000E-03 0. -1.
        -11    1    4    4    0    0  0.18262321752E+02  0.87204624810E+01 -0.10551069228E+01  0.20265046571E+02  0.51100000000E-03 0.  1.
         12    1    4    4    0    0 -0.76308617984E+01  0.43220684526E+01 -0.26372239203E+02  0.27792181060E+02  0.00000000000E+00 0. -1.
</event>
<event>
 8    1  0.1269154E-006  0.9118800E+02  0.7816164E-02  0.1184000E+00
        -11   -1    0    0    0    0  0.00000000000E+00  0.00000000000E+00  0.45593999997E+02  0.45594000000E+02  0.51100000000E-03 0. -1.
         11   -1    0    0    0    0 -0.00000000000E+00 -0.00000000000E+00 -0.45593999997E+02  0.45594000000E+02  0.51100000000E-03 0.  1.
         23    2    1    2    0    0 -0.35527136788E-14 -0.17763568394E-14  0.00000000000E+00  0.91188000000E+02  0.91188000000E+02 0.  0.
    9900012    2    3    3    0    0  0.17948669889E+02 -0.15900140919E+02 -0.27942986234E+02  0.54367085947E+02  0.40000004034E+02 0.  0.
         12    1    3    3    0    0 -0.17948669889E+02  0.15900140919E+02  0.27942986234E+02  0.36820914053E+02  0.00000000000E+00 0. -1.
         11    1    4    4    0    0  0.72828189325E+01  0.84565592194E+01  0.22582748527E+01  0.11386511801E+02  0.51100000000E-03 0. -1.
        -11    1    4    4    0    0  0.70083787120E+01 -0.16912481077E+02 -0.29418361160E+02  0.34649521814E+02  0.51100000000E-03 0.  1.
        -12    1    4    4    0    0  0.36574722446E+01 -0.74442190616E+01 -0.78289992630E+00  0.83310523316E+01  0.00000000000E+00 0.  1.
</event>
<event>
 8    1  0.1269154E-006  0.9118800E+02  0.7816164E-02  0.1184000E+00
        -11   -1    0    0    0    0  0.00000000000E+00  0.00000000000E+00  0.45593999997E+02  0.45594000000E+02  0.51100000000E-03 0.  1.
         11   -1    0    0    0    0 -0.00000000000E+00 -0.00000000000E+00 -0.45593999997E+02  0.45594000000E+02  0.51100000000E-03 0. -1.
         23    2    1    2    0    0  0.35527136788E-14  0.00000000000E+00  0.00000000000E+00  0.91188000000E+02  0.91188000000E+02 0.  0.
    9900012    2    3    3    0    0 -0.16092629175E+02 -0.11462492022E+02  0.31071169004E+02  0.54367095878E+02  0.40000026672E+02 0.  0.
         12    1    3    3    0    0  0.16092629175E+02  0.11462492022E+02 -0.31071169004E+02  0.36820904122E+02  0.00000000000E+00 0. -1.
         11    1    4    4    0    0  0.28887963267E+01 -0.55847074226E+01 -0.25469447410E+01  0.67838800836E+01  0.51100000000E-03 0. -1.
        -11    1    4    4    0    0 -0.20077951573E+02 -0.11127418949E+02  0.13215638436E+02  0.26487670554E+02  0.51100000000E-03 0.  1.
         12    1    4    4    0    0  0.10965260713E+01  0.52496343498E+01  0.20402475309E+02  0.21095545240E+02  0.00000000000E+00 0. -1.
</event>
<event>
 8    1  0.1269154E-006  0.9118800E+02  0.7816164E-02  0.1184000E+00
        -11   -1    0    0    0    0  0.00000000000E+00  0.00000000000E+00  0.45593999997E+02  0.45594000000E+02  0.51100000000E-03 0. -1.
         11   -1    0    0    0    0 -0.00000000000E+00 -0.00000000000E+00 -0.45593999997E+02  0.45594000000E+02  0.51100000000E-03 0.  1.
         23    2    1    2    0    0  0.48849813084E-14 -0.35527136788E-14  0.00000000000E+00  0.91188000000E+02  0.91188000000E+02 0.  0.
    9900012    2    3    3    0    0 -0.21096997493E+01  0.17272560729E+02 -0.32449836858E+02  0.54367026367E+02  0.39999868208E+02 0.  0.
         12    1    3    3    0    0  0.21096997493E+01 -0.17272560729E+02  0.32449836858E+02  0.36820973633E+02  0.00000000000E+00 0. -1.
         11    1    4    4    0    0  0.14095400457E+02 -0.14855893516E+01 -0.72885099487E+01  0.15937680737E+02  0.51100000000E-03 0. -1.
        -11    1    4    4    0    0 -0.66721945230E+01  0.18320096056E+02 -0.17277218478E+02  0.26050842172E+02  0.51100000000E-03 0.  1.
         12    1    4    4    0    0 -0.95329056830E+01  0.43805402403E+00 -0.78841084312E+01  0.12378503457E+02  0.00000000000E+00 0. -1.
</event>
<event>
 8    1  0.1269154E-006  0.9118800E+02  0.7816164E-02  0.1184000E+00
        -11   -1    0    0    0    0  0.00000000000E+00  0.00000000000E+00  0.45593999997E+02  0.45594000000E+02  0.51100000000E-03 0. -1.
         11   -1    0    0    0    0 -0.00000000000E+00 -0.00000000000E+00 -0.45593999997E+02  0.45594000000E+02  0.51100000000E-03 0.  1.
         23    2    1    2    0    0  0.00000000000E+00  0.00000000000E+00  0.00000000000E+00  0.91188000000E+02  0.91188000000E+02 0.  0.
    9900012    2    3    3    0    0  0.28705658629E+02 -0.12440739344E+02  0.19416305242E+02  0.54367085535E+02  0.40000003095E+02 0.  0.
        -12    1    3    3    0    0 -0.28705658629E+02  0.12440739344E+02 -0.19416305242E+02  0.36820914465E+02  0.00000000000E+00 0.  1.
         11    1    4    4    0    0  0.27538872137E+02 -0.17693335486E+02  0.96278641903E+01  0.34119486636E+02  0.51100000000E-03 0. -1.
        -11    1    4    4    0    0 -0.31436483421E+01 -0.53760764705E+01  0.29141985635E+01  0.68758473401E+01  0.51100000000E-03 0.  1.
         12    1    4    4    0    0  0.43104348341E+01  0.10628672613E+02  0.68742424886E+01  0.13371751559E+02  0.00000000000E+00 0. -1.
</event>
<event>
 8    1  0.1269154E-006  0.9118800E+02  0.7816164E-02  0.1184000E+00
        -11   -1    0    0    0    0  0.00000000000E+00  0.00000000000E+00  0.45593999997E+02  0.45594000000E+02  0.51100000000E-03 0. -1.
         11   -1    0    0    0    0 -0.00000000000E+00 -0.00000000000E+00 -0.45593999997E+02  0.45594000000E+02  0.51100000000E-03 0.  1.
         23    2    1    2    0    0 -0.35527136788E-14  0.00000000000E+00  0.00000000000E+00  0.91188000000E+02  0.91188000000E+02 0.  0.
    9900012    2    3    3    0    0  0.24532239054E+02 -0.25333698436E+02  0.10590213213E+02  0.54367086848E+02  0.40000006087E+02 0.  0.
        -12    1    3    3    0    0 -0.24532239054E+02  0.25333698436E+02 -0.10590213213E+02  0.36820913152E+02  0.00000000000E+00 0.  1.
         11    1    4    4    0    0  0.64049338684E+01 -0.10366008105E+02 -0.19121962661E+01  0.12334252985E+02  0.51100000000E-03 0. -1.
        -11    1    4    4    0    0  0.35608739488E+01 -0.13166428665E+00  0.19708411723E+02  0.20027946766E+02  0.51100000000E-03 0.  1.
        -12    1    4    4    0    0  0.14566431237E+02 -0.14836026045E+02 -0.72060022438E+01  0.22004887097E+02  0.00000000000E+00 0.  1.
</event>
<event>
 8    1  0.1269154E-006  0.9118800E+02  0.7816164E-02  0.1184000E+00
        -11   -1    0    0    0    0  0.00000000000E+00  0.00000000000E+00  0.45593999997E+02  0.45594000000E+02  0.51100000000E-03 0. -1.
         11   -1    0    0    0    0 -0.00000000000E+00 -0.00000000000E+00 -0.45593999997E+02  0.45594000000E+02  0.51100000000E-03 0.  1.
         23    2    1    2    0    0 -0.17763568394E-14  0.00000000000E+00  0.00000000000E+00  0.91188000000E+02  0.91188000000E+02 0.  0.
    9900012    2    3    3    0    0 -0.13478570871E+02 -0.32963023450E+02 -0.93566946761E+01  0.54367074930E+02  0.39999978919E+02 0.  0.
         12    1    3    3    0    0  0.13478570871E+02  0.32963023450E+02  0.93566946761E+01  0.36820925070E+02  0.00000000000E+00 0. -1.
         11    1    4    4    0    0  0.50109460447E+01 -0.17725737959E+02 -0.13400281277E+01  0.18469083413E+02  0.51100000000E-03 0. -1.
        -11    1    4    4    0    0  0.77950127745E+00 -0.14865747713E+02 -0.73793932512E+01  0.16614858481E+02  0.51100000000E-03 0.  1.
        -12    1    4    4    0    0 -0.19269018193E+02 -0.37153777771E+00 -0.63727329714E+00  0.19283133037E+02  0.00000000000E+00 0.  1.
</event>
<event>
 8    1  0.1269154E-006  0.9118800E+02  0.7816164E-02  0.1184000E+00
        -11   -1    0    0    0    0  0.00000000000E+00  0.00000000000E+00  0.45593999997E+02  0.45594000000E+02  0.51100000000E-03 0.  1.
         11   -1    0    0    0    0 -0.00000000000E+00 -0.00000000000E+00 -0.45593999997E+02  0.45594000000E+02  0.51100000000E-03 0. -1.
         23    2    1    2    0    0 -0.35527136788E-14 -0.35527136788E-14  0.00000000000E+00  0.91188000000E+02  0.91188000000E+02 0.  0.
    9900012    2    3    3    0    0  0.20230342601E+02 -0.26070093656E+02 -0.16335962852E+02  0.54367078946E+02  0.39999988072E+02 0.  0.
        -12    1    3    3    0    0 -0.20230342601E+02  0.26070093656E+02  0.16335962852E+02  0.36820921054E+02  0.00000000000E+00 0.  1.
         11    1    4    4    0    0 -0.11306688241E+01 -0.13925291211E+02 -0.24701994263E+02  0.28379229520E+02  0.51100000000E-03 0. -1.
        -11    1    4    4    0    0  0.16764817527E+02 -0.89328826095E+01  0.65557204761E+01  0.20095595777E+02  0.51100000000E-03 0.  1.
         12    1    4    4    0    0  0.45961938979E+01 -0.32119198358E+01  0.18103109347E+01  0.58922536486E+01  0.00000000000E+00 0. -1.
</event>
<event>
 8    1  0.1269154E-006  0.9118800E+02  0.7816164E-02  0.1184000E+00
        -11   -1    0    0    0    0  0.00000000000E+00  0.00000000000E+00  0.45593999997E+02  0.45594000000E+02  0.51100000000E-03 0. -1.
         11   -1    0    0    0    0 -0.00000000000E+00 -0.00000000000E+00 -0.45593999997E+02  0.45594000000E+02  0.51100000000E-03 0.  1.
         23    2    1    2    0    0  0.00000000000E+00  0.35527136788E-14 -0.88817841970E-15  0.91188000000E+02  0.91188000000E+02 0.  0.
    9900012    2    3    3    0    0  0.32740172330E+02  0.15992924232E+02  0.52998112268E+01  0.54367075124E+02  0.39999979360E+02 0.  0.
        -12    1    3    3    0    0 -0.32740172330E+02 -0.15992924232E+02 -0.52998112268E+01  0.36820924876E+02  0.00000000000E+00 0.  1.
         11    1    4    4    0    0  0.24049801945E+02  0.16798518678E+02 -0.10430074200E+01  0.29354234245E+02  0.51100000000E-03 0. -1.
        -11    1    4    4    0    0  0.93953249984E+01 -0.40137691297E+01 -0.62646493313E+01  0.11984502741E+02  0.51100000000E-03 0.  1.
        -12    1    4    4    0    0 -0.70495461325E+00  0.32081746841E+01  0.12607467978E+02  0.13028338138E+02  0.00000000000E+00 0.  1.
</event>
<event>
 8    1  0.1269154E-006  0.9118800E+02  0.7816164E-02  0.1184000E+00
        -11   -1    0    0    0    0  0.00000000000E+00  0.00000000000E+00  0.45593999997E+02  0.45594000000E+02  0.51100000000E-03 0. -1.
         11   -1    0    0    0    0 -0.00000000000E+00 -0.00000000000E+00 -0.45593999997E+02  0.45594000000E+02  0.51100000000E-03 0.  1.
         23    2    1    2    0    0  0.00000000000E+00 -0.88817841970E-15  0.00000000000E+00  0.91188000000E+02  0.91188000000E+02 0.  0.
    9900012    2    3    3    0    0 -0.19408777193E+02  0.43709428718E+01 -0.30983450053E+02  0.54367082699E+02  0.39999996629E+02 0.  0.
         12    1    3    3    0    0  0.19408777193E+02 -0.43709428718E+01  0.30983450053E+02  0.36820917301E+02  0.00000000000E+00 0. -1.
         11    1    4    4    0    0  0.85827080208E+00  0.11478596253E+02  0.36621542278E+01  0.12079162825E+02  0.51100000000E-03 0. -1.
        -11    1    4    4    0    0 -0.33304902031E+01 -0.64241988723E+01 -0.90254155487E+01  0.11568086369E+02  0.51100000000E-03 0.  1.
         12    1    4    4    0    0 -0.16936557792E+02 -0.68345450905E+00 -0.25620188732E+02  0.30719833505E+02  0.00000000000E+00 0. -1.
</event>
<event>
 8    1  0.1269154E-006  0.9118800E+02  0.7816164E-02  0.1184000E+00
        -11   -1    0    0    0    0  0.00000000000E+00  0.00000000000E+00  0.45593999997E+02  0.45594000000E+02  0.51100000000E-03 0.  1.
         11   -1    0    0    0    0 -0.00000000000E+00 -0.00000000000E+00 -0.45593999997E+02  0.45594000000E+02  0.51100000000E-03 0. -1.
         23    2    1    2    0    0  0.00000000000E+00  0.00000000000E+00  0.00000000000E+00  0.91188000000E+02  0.91188000000E+02 0.  0.
    9900012    2    3    3    0    0  0.23134995763E+02  0.18630724487E+02 -0.21759122508E+02  0.54366928096E+02  0.39999644178E+02 0.  0.
        -12    1    3    3    0    0 -0.23134995763E+02 -0.18630724487E+02  0.21759122508E+02  0.36821071904E+02  0.00000000000E+00 0.  1.
         11    1    4    4    0    0  0.22149014908E+01 -0.22064975766E+01 -0.63409927865E+01  0.70698380427E+01  0.51100000000E-03 0. -1.
        -11    1    4    4    0    0  0.19222701225E+02  0.12031523511E+02 -0.25284392551E+02  0.33964250431E+02  0.51100000000E-03 0.  1.
        -12    1    4    4    0    0  0.16973930475E+01  0.88056985522E+01  0.98662628302E+01  0.13332839622E+02  0.00000000000E+00 0.  1.
</event>
<event>
 8    1  0.1269154E-006  0.9118800E+02  0.7816164E-02  0.1184000E+00
        -11   -1    0    0    0    0  0.00000000000E+00  0.00000000000E+00  0.45593999997E+02  0.45594000000E+02  0.51100000000E-03 0.  1.
         11   -1    0    0    0    0 -0.00000000000E+00 -0.00000000000E+00 -0.45593999997E+02  0.45594000000E+02  0.51100000000E-03 0. -1.
         23    2    1    2    0    0 -0.17763568394E-14  0.00000000000E+00  0.00000000000E+00  0.91188000000E+02  0.91188000000E+02 0.  0.
    9900012    2    3    3    0    0 -0.15081466196E+02  0.18277792995E+02  0.28182485240E+02  0.54367070982E+02  0.39999969918E+02 0.  0.
         12    1    3    3    0    0  0.15081466196E+02 -0.18277792995E+02 -0.28182485240E+02  0.36820929018E+02  0.00000000000E+00 0. -1.
         11    1    4    4    0    0  0.35931886682E+01 -0.44962432120E+01  0.38765445958E+01  0.69393664042E+01  0.51100000000E-03 0. -1.
        -11    1    4    4    0    0 -0.95361172537E+01  0.27354369232E+02  0.23261492869E+02  0.37152336388E+02  0.51100000000E-03 0.  1.
         12    1    4    4    0    0 -0.91385376107E+01 -0.45803330249E+01  0.10444477759E+01  0.10275368190E+02  0.00000000000E+00 0. -1.
</event>
<event>
 8    1  0.1269154E-006  0.9118800E+02  0.7816164E-02  0.1184000E+00
        -11   -1    0    0    0    0  0.00000000000E+00  0.00000000000E+00  0.45593999997E+02  0.45594000000E+02  0.51100000000E-03 0. -1.
         11   -1    0    0    0    0 -0.00000000000E+00 -0.00000000000E+00 -0.45593999997E+02  0.45594000000E+02  0.51100000000E-03 0.  1.
         23    2    1    2    0    0  0.00000000000E+00  0.00000000000E+00 -0.88817841970E-15  0.91188000000E+02  0.91188000000E+02 0.  0.
    9900012    2    3    3    0    0 -0.34270917667E+02 -0.11609650115E+02  0.68191121178E+01  0.54367081168E+02  0.39999993139E+02 0.  0.
         12    1    3    3    0    0  0.34270917667E+02  0.11609650115E+02 -0.68191121178E+01  0.36820918832E+02  0.00000000000E+00 0. -1.
         11    1    4    4    0    0 -0.11880265398E+02 -0.12087052182E+02  0.12313928069E+02  0.20949232948E+02  0.51100000000E-03 0. -1.
        -11    1    4    4    0    0  0.31936585075E+01 -0.57683417475E+01 -0.49662735963E+00  0.66120995284E+01  0.51100000000E-03 0.  1.
        -12    1    4    4    0    0 -0.25584310776E+02  0.62457438142E+01 -0.49981885915E+01  0.26805748691E+02  0.00000000000E+00 0.  1.
</event>
<event>
 8    1  0.1269154E-006  0.9118800E+02  0.7816164E-02  0.1184000E+00
        -11   -1    0    0    0    0  0.00000000000E+00  0.00000000000E+00  0.45593999997E+02  0.45594000000E+02  0.51100000000E-03 0.  1.
         11   -1    0    0    0    0 -0.00000000000E+00 -0.00000000000E+00 -0.45593999997E+02  0.45594000000E+02  0.51100000000E-03 0. -1.
         23    2    1    2    0    0  0.00000000000E+00  0.00000000000E+00  0.35527136788E-14  0.91188000000E+02  0.91188000000E+02 0.  0.
    9900012    2    3    3    0    0 -0.22677152123E+02 -0.15891055544E+02  0.24269339983E+02  0.54367085591E+02  0.40000003222E+02 0.  0.
         12    1    3    3    0    0  0.22677152123E+02  0.15891055544E+02 -0.24269339983E+02  0.36820914409E+02  0.00000000000E+00 0. -1.
         11    1    4    4    0    0  0.25339292400E+01  0.98808218378E+00  0.34863244917E+00  0.27420154341E+01  0.51100000000E-03 0. -1.
        -11    1    4    4    0    0 -0.55905346757E+01  0.10582715487E+02  0.70813412228E+01  0.13906593358E+02  0.51100000000E-03 0.  1.
        -12    1    4    4    0    0 -0.19620546687E+02 -0.27461853215E+02  0.16839366311E+02  0.37718476799E+02  0.00000000000E+00 0.  1.
</event>
<event>
 8    1  0.1269154E-006  0.9118800E+02  0.7816164E-02  0.1184000E+00
        -11   -1    0    0    0    0  0.00000000000E+00  0.00000000000E+00  0.45593999997E+02  0.45594000000E+02  0.51100000000E-03 0.  1.
         11   -1    0    0    0    0 -0.00000000000E+00 -0.00000000000E+00 -0.45593999997E+02  0.45594000000E+02  0.51100000000E-03 0. -1.
         23    2    1    2    0    0  0.00000000000E+00 -0.44408920985E-15  0.00000000000E+00  0.91188000000E+02  0.91188000000E+02 0.  0.
    9900012    2    3    3    0    0 -0.19358428187E+02 -0.28235310621E+01 -0.31193886352E+02  0.54367087256E+02  0.40000007018E+02 0.  0.
        -12    1    3    3    0    0  0.19358428187E+02  0.28235310621E+01  0.31193886352E+02  0.36820912744E+02  0.00000000000E+00 0.  1.
         11    1    4    4    0    0 -0.49898889004E+01  0.44835074844E+01 -0.90771274612E+01  0.11286942625E+02  0.51100000000E-03 0. -1.
        -11    1    4    4    0    0 -0.13863403805E+02  0.85903842639E+01 -0.59656877170E+00  0.16320066220E+02  0.51100000000E-03 0.  1.
         12    1    4    4    0    0 -0.50513548223E+00 -0.15897422810E+02 -0.21520190119E+02  0.26760078412E+02  0.00000000000E+00 0. -1.
</event>
<event>
 8    1  0.1269154E-006  0.9118800E+02  0.7816164E-02  0.1184000E+00
        -11   -1    0    0    0    0  0.00000000000E+00  0.00000000000E+00  0.45593999997E+02  0.45594000000E+02  0.51100000000E-03 0.  1.
         11   -1    0    0    0    0 -0.00000000000E+00 -0.00000000000E+00 -0.45593999997E+02  0.45594000000E+02  0.51100000000E-03 0. -1.
         23    2    1    2    0    0  0.00000000000E+00  0.00000000000E+00  0.00000000000E+00  0.91188000000E+02  0.91188000000E+02 0.  0.
    9900012    2    3    3    0    0 -0.16611669302E+02 -0.32732052445E+02 -0.29068240413E+01  0.54367021737E+02  0.39999857653E+02 0.  0.
        -12    1    3    3    0    0  0.16611669302E+02  0.32732052445E+02  0.29068240413E+01  0.36820978263E+02  0.00000000000E+00 0.  1.
         11    1    4    4    0    0  0.34198501358E+01 -0.10517910404E+01 -0.25532575111E+00  0.35870364989E+01  0.51100000000E-03 0. -1.
        -11    1    4    4    0    0  0.89045549658E+01 -0.76468020425E+01  0.43523430451E+01  0.12518289454E+02  0.51100000000E-03 0.  1.
         12    1    4    4    0    0 -0.28936074403E+02 -0.24033459362E+02 -0.70038413353E+01  0.38261695784E+02  0.00000000000E+00 0. -1.
</event>
<event>
 8    1  0.1269154E-006  0.9118800E+02  0.7816164E-02  0.1184000E+00
        -11   -1    0    0    0    0  0.00000000000E+00  0.00000000000E+00  0.45593999997E+02  0.45594000000E+02  0.51100000000E-03 0.  1.
         11   -1    0    0    0    0 -0.00000000000E+00 -0.00000000000E+00 -0.45593999997E+02  0.45594000000E+02  0.51100000000E-03 0. -1.
         23    2    1    2    0    0 -0.44408920985E-15 -0.35527136788E-14 -0.35527136788E-14  0.91188000000E+02  0.91188000000E+02 0.  0.
    9900012    2    3    3    0    0  0.12931849079E+01 -0.30626405052E+02 -0.20399231181E+02  0.54367113993E+02  0.40000067969E+02 0.  0.
        -12    1    3    3    0    0 -0.12931849079E+01  0.30626405052E+02  0.20399231181E+02  0.36820886007E+02  0.00000000000E+00 0.  1.
         11    1    4    4    0    0  0.47123263952E+01  0.31126769946E+01  0.98129344710E+00  0.57321649678E+01  0.51100000000E-03 0. -1.
        -11    1    4    4    0    0 -0.92091765832E+01 -0.11560355566E+02  0.30962305961E+01  0.15100907202E+02  0.51100000000E-03 0.  1.
         12    1    4    4    0    0  0.57900350959E+01 -0.22178726480E+02 -0.24476755224E+02  0.33534041823E+02  0.00000000000E+00 0. -1.
</event>
<event>
 8    1  0.1269154E-006  0.9118800E+02  0.7816164E-02  0.1184000E+00
        -11   -1    0    0    0    0  0.00000000000E+00  0.00000000000E+00  0.45593999997E+02  0.45594000000E+02  0.51100000000E-03 0.  1.
         11   -1    0    0    0    0 -0.00000000000E+00 -0.00000000000E+00 -0.45593999997E+02  0.45594000000E+02  0.51100000000E-03 0. -1.
         23    2    1    2    0    0  0.00000000000E+00  0.00000000000E+00  0.88817841970E-15  0.91188000000E+02  0.91188000000E+02 0.  0.
    9900012    2    3    3    0    0 -0.15095900897E+02 -0.33191790610E+02 -0.51179816637E+01  0.54367150959E+02  0.40000152242E+02 0.  0.
         12    1    3    3    0    0  0.15095900897E+02  0.33191790610E+02  0.51179816637E+01  0.36820849041E+02  0.00000000000E+00 0. -1.
         11    1    4    4    0    0 -0.12023670899E+02  0.24805922143E+01 -0.34820266987E+01  0.12761132780E+02  0.51100000000E-03 0. -1.
        -11    1    4    4    0    0  0.62090900667E+01 -0.19144196380E+02 -0.79310134318E+01  0.21632245117E+02  0.51100000000E-03 0.  1.
        -12    1    4    4    0    0 -0.92813200639E+01 -0.16528186444E+02  0.62950584668E+01  0.19973773063E+02  0.00000000000E+00 0.  1.
</event>
<event>
 8    1  0.1269154E-006  0.9118800E+02  0.7816164E-02  0.1184000E+00
        -11   -1    0    0    0    0  0.00000000000E+00  0.00000000000E+00  0.45593999997E+02  0.45594000000E+02  0.51100000000E-03 0. -1.
         11   -1    0    0    0    0 -0.00000000000E+00 -0.00000000000E+00 -0.45593999997E+02  0.45594000000E+02  0.51100000000E-03 0.  1.
         23    2    1    2    0    0 -0.71054273576E-14 -0.19984014443E-14  0.88817841970E-15  0.91188000000E+02  0.91188000000E+02 0.  0.
    9900012    2    3    3    0    0 -0.35979358160E+02 -0.17422911528E+01  0.76312720598E+01  0.54366999126E+02  0.39999806108E+02 0.  0.
         12    1    3    3    0    0  0.35979358160E+02  0.17422911528E+01 -0.76312720598E+01  0.36821000874E+02  0.00000000000E+00 0. -1.
         11    1    4    4    0    0 -0.88854684525E+01 -0.80948443723E+01  0.10892312295E+02  0.16220990180E+02  0.51100000000E-03 0. -1.
        -11    1    4    4    0    0 -0.18058453037E+02  0.16277260358E+02  0.92370000383E-01  0.24311837925E+02  0.51100000000E-03 0.  1.
        -12    1    4    4    0    0 -0.90354366712E+01 -0.99247071386E+01 -0.33534102354E+01  0.13834171021E+02  0.00000000000E+00 0.  1.
</event>
<event>
 8    1  0.1269154E-006  0.9118800E+02  0.7816164E-02  0.1184000E+00
        -11   -1    0    0    0    0  0.00000000000E+00  0.00000000000E+00  0.45593999997E+02  0.45594000000E+02  0.51100000000E-03 0. -1.
         11   -1    0    0    0    0 -0.00000000000E+00 -0.00000000000E+00 -0.45593999997E+02  0.45594000000E+02  0.51100000000E-03 0.  1.
         23    2    1    2    0    0  0.00000000000E+00  0.00000000000E+00  0.00000000000E+00  0.91188000000E+02  0.91188000000E+02 0.  0.
    9900012    2    3    3    0    0  0.20353904529E+02  0.20273766082E+02 -0.23031958891E+02  0.54367107139E+02  0.40000052345E+02 0.  0.
         12    1    3    3    0    0 -0.20353904529E+02 -0.20273766082E+02  0.23031958891E+02  0.36820892861E+02  0.00000000000E+00 0. -1.
         11    1    4    4    0    0  0.80885001019E+01  0.15328752275E+02 -0.20172629900E+01  0.17448891954E+02  0.51100000000E-03 0. -1.
        -11    1    4    4    0    0  0.77783840159E+01 -0.11128357870E+02 -0.10833247216E+02  0.17369595628E+02  0.51100000000E-03 0.  1.
        -12    1    4    4    0    0  0.44870204110E+01  0.16073371677E+02 -0.10181448685E+02  0.19548619557E+02  0.00000000000E+00 0.  1.
</event>
<event>
 8    1  0.1269154E-006  0.9118800E+02  0.7816164E-02  0.1184000E+00
        -11   -1    0    0    0    0  0.00000000000E+00  0.00000000000E+00  0.45593999997E+02  0.45594000000E+02  0.51100000000E-03 0. -1.
         11   -1    0    0    0    0 -0.00000000000E+00 -0.00000000000E+00 -0.45593999997E+02  0.45594000000E+02  0.51100000000E-03 0.  1.
         23    2    1    2    0    0  0.00000000000E+00  0.00000000000E+00 -0.44408920985E-15  0.91188000000E+02  0.91188000000E+02 0.  0.
    9900012    2    3    3    0    0  0.16882096812E+02 -0.32534498509E+02  0.35044313236E+01  0.54367084410E+02  0.40000000529E+02 0.  0.
         12    1    3    3    0    0 -0.16882096812E+02  0.32534498509E+02 -0.35044313236E+01  0.36820915590E+02  0.00000000000E+00 0. -1.
         11    1    4    4    0    0  0.16337757405E+02 -0.23213716526E+01  0.10257837214E+02  0.19430242097E+02  0.51100000000E-03 0. -1.
        -11    1    4    4    0    0 -0.52229693528E+01 -0.12688224211E+02 -0.89121977019E+01  0.16361470307E+02  0.51100000000E-03 0.  1.
         12    1    4    4    0    0  0.57673087597E+01 -0.17524902646E+02  0.21587918115E+01  0.18575372006E+02  0.00000000000E+00 0. -1.
</event>
<event>
 8    1  0.1269154E-006  0.9118800E+02  0.7816164E-02  0.1184000E+00
        -11   -1    0    0    0    0  0.00000000000E+00  0.00000000000E+00  0.45593999997E+02  0.45594000000E+02  0.51100000000E-03 0. -1.
         11   -1    0    0    0    0 -0.00000000000E+00 -0.00000000000E+00 -0.45593999997E+02  0.45594000000E+02  0.51100000000E-03 0.  1.
         23    2    1    2    0    0  0.00000000000E+00  0.88817841970E-15  0.44408920985E-15  0.91188000000E+02  0.91188000000E+02 0.  0.
    9900012    2    3    3    0    0 -0.35843539940E+02  0.77166080283E+01  0.33873787108E+01  0.54367085706E+02  0.40000003484E+02 0.  0.
        -12    1    3    3    0    0  0.35843539940E+02 -0.77166080283E+01 -0.33873787108E+01  0.36820914294E+02  0.00000000000E+00 0.  1.
         11    1    4    4    0    0 -0.19330940986E+02  0.15953852689E+02  0.49770399743E+01  0.25553505086E+02  0.51100000000E-03 0. -1.
        -11    1    4    4    0    0 -0.11406732607E+02 -0.14687898668E+02 -0.59201962790E+01  0.19516573478E+02  0.51100000000E-03 0.  1.
        -12    1    4    4    0    0 -0.51058663469E+01  0.64506540079E+01  0.43305350155E+01  0.92970071422E+01  0.00000000000E+00 0.  1.
</event>
<event>
 8    1  0.1269154E-006  0.9118800E+02  0.7816164E-02  0.1184000E+00
        -11   -1    0    0    0    0  0.00000000000E+00  0.00000000000E+00  0.45593999997E+02  0.45594000000E+02  0.51100000000E-03 0.  1.
         11   -1    0    0    0    0 -0.00000000000E+00 -0.00000000000E+00 -0.45593999997E+02  0.45594000000E+02  0.51100000000E-03 0. -1.
         23    2    1    2    0    0  0.00000000000E+00  0.00000000000E+00  0.00000000000E+00  0.91188000000E+02  0.91188000000E+02 0.  0.
    9900012    2    3    3    0    0  0.36359270058E+02  0.41201370927E+01 -0.40997258173E+01  0.54367084740E+02  0.40000001283E+02 0.  0.
         12    1    3    3    0    0 -0.36359270058E+02 -0.41201370927E+01  0.40997258173E+01  0.36820915260E+02  0.00000000000E+00 0. -1.
         11    1    4    4    0    0  0.15148489039E+02  0.10211479646E+02 -0.14165358970E+02  0.23117275613E+02  0.51100000000E-03 0. -1.
        -11    1    4    4    0    0  0.16373692814E+02  0.51837299817E+01  0.43616804805E+01  0.17719851291E+02  0.51100000000E-03 0.  1.
         12    1    4    4    0    0  0.48370882041E+01 -0.11275072535E+02  0.57039526723E+01  0.13529957837E+02  0.00000000000E+00 0. -1.
</event>
<event>
 8    1  0.1269154E-006  0.9118800E+02  0.7816164E-02  0.1184000E+00
        -11   -1    0    0    0    0  0.00000000000E+00  0.00000000000E+00  0.45593999997E+02  0.45594000000E+02  0.51100000000E-03 0. -1.
         11   -1    0    0    0    0 -0.00000000000E+00 -0.00000000000E+00 -0.45593999997E+02  0.45594000000E+02  0.51100000000E-03 0.  1.
         23    2    1    2    0    0  0.00000000000E+00 -0.22204460493E-15  0.35527136788E-14  0.91188000000E+02  0.91188000000E+02 0.  0.
    9900012    2    3    3    0    0 -0.32233047921E+02 -0.17198847746E+01  0.17715911353E+02  0.54367069852E+02  0.39999967341E+02 0.  0.
        -12    1    3    3    0    0  0.32233047921E+02  0.17198847746E+01 -0.17715911353E+02  0.36820930148E+02  0.00000000000E+00 0.  1.
         11    1    4    4    0    0 -0.98547034347E+01  0.10480999898E+02  0.79706752964E+01  0.16446829591E+02  0.51100000000E-03 0.  1.
        -11    1    4    4    0    0  0.38664684292E+01 -0.30144350659E+01  0.88291456459E+01  0.10099020248E+02  0.51100000000E-03 0. -1.
         12    1    4    4    0    0 -0.26244812915E+02 -0.91864496064E+01  0.91609041100E+00  0.27821220012E+02  0.00000000000E+00 0. -1.
</event>
<event>
 8    1  0.1269154E-006  0.9118800E+02  0.7816164E-02  0.1184000E+00
        -11   -1    0    0    0    0  0.00000000000E+00  0.00000000000E+00  0.45593999997E+02  0.45594000000E+02  0.51100000000E-03 0.  1.
         11   -1    0    0    0    0 -0.00000000000E+00 -0.00000000000E+00 -0.45593999997E+02  0.45594000000E+02  0.51100000000E-03 0. -1.
         23    2    1    2    0    0  0.71054273576E-14  0.44408920985E-15 -0.88817841970E-15  0.91188000000E+02  0.91188000000E+02 0.  0.
    9900012    2    3    3    0    0 -0.36297757127E+02 -0.27938625148E+01 -0.55176690578E+01  0.54367115816E+02  0.40000072126E+02 0.  0.
        -12    1    3    3    0    0  0.36297757127E+02  0.27938625148E+01  0.55176690578E+01  0.36820884184E+02  0.00000000000E+00 0.  1.
         11    1    4    4    0    0 -0.90453312595E+01  0.48370083650E+01 -0.17917617398E+01  0.10412736332E+02  0.51100000000E-03 0. -1.
        -11    1    4    4    0    0  0.56095337024E+01 -0.17341145387E+01 -0.83930575355E+01  0.10242921295E+02  0.51100000000E-03 0.  1.
        -12    1    4    4    0    0 -0.32861959570E+02 -0.58967563411E+01  0.46671502175E+01  0.33711458190E+02  0.00000000000E+00 0.  1.
</event>
<event>
 8    1  0.1269154E-006  0.9118800E+02  0.7816164E-02  0.1184000E+00
        -11   -1    0    0    0    0  0.00000000000E+00  0.00000000000E+00  0.45593999997E+02  0.45594000000E+02  0.51100000000E-03 0. -1.
         11   -1    0    0    0    0 -0.00000000000E+00 -0.00000000000E+00 -0.45593999997E+02  0.45594000000E+02  0.51100000000E-03 0.  1.
         23    2    1    2    0    0 -0.17763568394E-14  0.00000000000E+00  0.00000000000E+00  0.91188000000E+02  0.91188000000E+02 0.  0.
    9900012    2    3    3    0    0 -0.13447718223E+02  0.11145337150E+02  0.32414773081E+02  0.54367120333E+02  0.40000082422E+02 0.  0.
        -12    1    3    3    0    0  0.13447718223E+02 -0.11145337150E+02 -0.32414773081E+02  0.36820879667E+02  0.00000000000E+00 0.  1.
         11    1    4    4    0    0 -0.47534135955E+00  0.11489248538E+02  0.19707556299E+02  0.22817023402E+02  0.51100000000E-03 0. -1.
        -11    1    4    4    0    0  0.60536521421E+01 -0.41186212384E+01 -0.15412654919E+01  0.74823288314E+01  0.51100000000E-03 0.  1.
        -12    1    4    4    0    0 -0.19026029006E+02  0.37747098501E+01  0.14248482274E+02  0.24067768099E+02  0.00000000000E+00 0.  1.
</event>
<event>
 8    1  0.1269154E-006  0.9118800E+02  0.7816164E-02  0.1184000E+00
        -11   -1    0    0    0    0  0.00000000000E+00  0.00000000000E+00  0.45593999997E+02  0.45594000000E+02  0.51100000000E-03 0. -1.
         11   -1    0    0    0    0 -0.00000000000E+00 -0.00000000000E+00 -0.45593999997E+02  0.45594000000E+02  0.51100000000E-03 0.  1.
         23    2    1    2    0    0  0.00000000000E+00 -0.71054273576E-14  0.00000000000E+00  0.91188000000E+02  0.91188000000E+02 0.  0.
    9900012    2    3    3    0    0  0.19521605118E+02  0.30048298463E+02  0.84728898888E+01  0.54367038986E+02  0.39999896977E+02 0.  0.
         12    1    3    3    0    0 -0.19521605118E+02 -0.30048298463E+02 -0.84728898888E+01  0.36820961014E+02  0.00000000000E+00 0. -1.
         11    1    4    4    0    0  0.15652530244E+02 -0.35713104642E+01  0.92397987503E+01  0.18523764269E+02  0.51100000000E-03 0.  1.
        -11    1    4    4    0    0 -0.26019401707E+01  0.13554425068E+02 -0.43220468185E+01  0.14462801268E+02  0.51100000000E-03 0. -1.
        -12    1    4    4    0    0  0.64710150442E+01  0.20065183860E+02  0.35551379570E+01  0.21380473449E+02  0.00000000000E+00 0.  1.
</event>
<event>
 8    1  0.1269154E-006  0.9118800E+02  0.7816164E-02  0.1184000E+00
        -11   -1    0    0    0    0  0.00000000000E+00  0.00000000000E+00  0.45593999997E+02  0.45594000000E+02  0.51100000000E-03 0.  1.
         11   -1    0    0    0    0 -0.00000000000E+00 -0.00000000000E+00 -0.45593999997E+02  0.45594000000E+02  0.51100000000E-03 0. -1.
         23    2    1    2    0    0  0.35527136788E-14  0.00000000000E+00  0.00000000000E+00  0.91188000000E+02  0.91188000000E+02 0.  0.
    9900012    2    3    3    0    0 -0.28011847913E+02 -0.13494841466E+02  0.19723244506E+02  0.54367071936E+02  0.39999972093E+02 0.  0.
         12    1    3    3    0    0  0.28011847913E+02  0.13494841466E+02 -0.19723244506E+02  0.36820928064E+02  0.00000000000E+00 0. -1.
         11    1    4    4    0    0 -0.18659400177E+02 -0.59542080339E+01 -0.21635091591E+00  0.19587562795E+02  0.51100000000E-03 0. -1.
        -11    1    4    4    0    0  0.31266482719E+01 -0.11906969785E+02  0.17403649507E+02  0.21317571985E+02  0.51100000000E-03 0.  1.
        -12    1    4    4    0    0 -0.12479096007E+02  0.43663363535E+01  0.25359459141E+01  0.13461937156E+02  0.00000000000E+00 0.  1.
</event>
<event>
 8    1  0.1269154E-006  0.9118800E+02  0.7816164E-02  0.1184000E+00
        -11   -1    0    0    0    0  0.00000000000E+00  0.00000000000E+00  0.45593999997E+02  0.45594000000E+02  0.51100000000E-03 0. -1.
         11   -1    0    0    0    0 -0.00000000000E+00 -0.00000000000E+00 -0.45593999997E+02  0.45594000000E+02  0.51100000000E-03 0.  1.
         23    2    1    2    0    0  0.00000000000E+00 -0.17763568394E-14  0.00000000000E+00  0.91188000000E+02  0.91188000000E+02 0.  0.
    9900012    2    3    3    0    0  0.10727564700E+02  0.10632610046E+02  0.33580458359E+02  0.54367078985E+02  0.39999988161E+02 0.  0.
        -12    1    3    3    0    0 -0.10727564700E+02 -0.10632610046E+02 -0.33580458359E+02  0.36820921015E+02  0.00000000000E+00 0.  1.
         11    1    4    4    0    0  0.10708601923E+02  0.71692143214E+01  0.37511458928E+02  0.39663350089E+02  0.51100000000E-03 0. -1.
        -11    1    4    4    0    0  0.62534203736E+01  0.23425776093E+01  0.89888572005E+00  0.67380213731E+01  0.51100000000E-03 0.  1.
        -12    1    4    4    0    0 -0.62344575969E+01  0.11208181158E+01 -0.48298862885E+01  0.79657075226E+01  0.00000000000E+00 0.  1.
</event>
<event>
 8    1  0.1269154E-006  0.9118800E+02  0.7816164E-02  0.1184000E+00
        -11   -1    0    0    0    0  0.00000000000E+00  0.00000000000E+00  0.45593999997E+02  0.45594000000E+02  0.51100000000E-03 0. -1.
         11   -1    0    0    0    0 -0.00000000000E+00 -0.00000000000E+00 -0.45593999997E+02  0.45594000000E+02  0.51100000000E-03 0.  1.
         23    2    1    2    0    0 -0.17763568394E-14 -0.35527136788E-14  0.17763568394E-14  0.91188000000E+02  0.91188000000E+02 0.  0.
    9900012    2    3    3    0    0  0.15954679263E+02 -0.31202246624E+02  0.11298186024E+02  0.54367068559E+02  0.39999964394E+02 0.  0.
        -12    1    3    3    0    0 -0.15954679263E+02  0.31202246624E+02 -0.11298186024E+02  0.36820931441E+02  0.00000000000E+00 0.  1.
         11    1    4    4    0    0  0.17121514507E+02 -0.23516737602E+02  0.18553666481E+02  0.34502488991E+02  0.51100000000E-03 0. -1.
        -11    1    4    4    0    0 -0.38079186832E+01 -0.11544259952E+02 -0.12019363660E+01  0.12215352382E+02  0.51100000000E-03 0.  1.
        -12    1    4    4    0    0  0.26410834394E+01  0.38587509305E+01 -0.60535440907E+01  0.76492271855E+01  0.00000000000E+00 0.  1.
</event>
<event>
 8    1  0.1269154E-006  0.9118800E+02  0.7816164E-02  0.1184000E+00
        -11   -1    0    0    0    0  0.00000000000E+00  0.00000000000E+00  0.45593999997E+02  0.45594000000E+02  0.51100000000E-03 0. -1.
         11   -1    0    0    0    0 -0.00000000000E+00 -0.00000000000E+00 -0.45593999997E+02  0.45594000000E+02  0.51100000000E-03 0.  1.
         23    2    1    2    0    0  0.88817841970E-15  0.35527136788E-14  0.00000000000E+00  0.91188000000E+02  0.91188000000E+02 0.  0.
    9900012    2    3    3    0    0  0.74592952480E+01 -0.31472330839E+02  0.17596336362E+02  0.54367085462E+02  0.40000002927E+02 0.  0.
        -12    1    3    3    0    0 -0.74592952480E+01  0.31472330839E+02 -0.17596336362E+02  0.36820914538E+02  0.00000000000E+00 0.  1.
         11    1    4    4    0    0  0.17591914779E+02 -0.14131665264E+02  0.33378068928E+01  0.22810532301E+02  0.51100000000E-03 0.  1.
        -11    1    4    4    0    0 -0.14788829494E+02 -0.90776110095E+01  0.44538260852E+01  0.17915051395E+02  0.51100000000E-03 0. -1.
         12    1    4    4    0    0  0.46562099625E+01 -0.82630545654E+01  0.98047033844E+01  0.13641501766E+02  0.00000000000E+00 0. -1.
</event>
<event>
 8    1  0.1269154E-006  0.9118800E+02  0.7816164E-02  0.1184000E+00
        -11   -1    0    0    0    0  0.00000000000E+00  0.00000000000E+00  0.45593999997E+02  0.45594000000E+02  0.51100000000E-03 0. -1.
         11   -1    0    0    0    0 -0.00000000000E+00 -0.00000000000E+00 -0.45593999997E+02  0.45594000000E+02  0.51100000000E-03 0.  1.
         23    2    1    2    0    0  0.00000000000E+00  0.35527136788E-14  0.35527136788E-14  0.91188000000E+02  0.91188000000E+02 0.  0.
    9900012    2    3    3    0    0  0.27508490737E+02  0.15145591024E+02  0.19226898475E+02  0.54367087259E+02  0.40000007024E+02 0.  0.
         12    1    3    3    0    0 -0.27508490737E+02 -0.15145591024E+02 -0.19226898475E+02  0.36820912741E+02  0.00000000000E+00 0. -1.
         11    1    4    4    0    0  0.23724858054E+02 -0.59049503275E+01  0.98863291726E+00  0.24468647763E+02  0.51100000000E-03 0. -1.
        -11    1    4    4    0    0  0.52112242370E+01  0.12231948669E+02  0.56124544092E+01  0.14431807616E+02  0.51100000000E-03 0.  1.
         12    1    4    4    0    0 -0.14275915543E+01  0.88185926824E+01  0.12625811149E+02  0.15466631880E+02  0.00000000000E+00 0. -1.
</event>
<event>
 8    1  0.1269154E-006  0.9118800E+02  0.7816164E-02  0.1184000E+00
        -11   -1    0    0    0    0  0.00000000000E+00  0.00000000000E+00  0.45593999997E+02  0.45594000000E+02  0.51100000000E-03 0.  1.
         11   -1    0    0    0    0 -0.00000000000E+00 -0.00000000000E+00 -0.45593999997E+02  0.45594000000E+02  0.51100000000E-03 0. -1.
         23    2    1    2    0    0  0.35527136788E-14  0.35527136788E-14  0.00000000000E+00  0.91188000000E+02  0.91188000000E+02 0.  0.
    9900012    2    3    3    0    0 -0.20355478549E+02 -0.30207040463E+02  0.53819625892E+01  0.54367131980E+02  0.40000108974E+02 0.  0.
         12    1    3    3    0    0  0.20355478549E+02  0.30207040463E+02 -0.53819625892E+01  0.36820868020E+02  0.00000000000E+00 0. -1.
         11    1    4    4    0    0 -0.27118132969E+01  0.25986638780E+01 -0.59329827032E+01  0.70219135088E+01  0.51100000000E-03 0. -1.
        -11    1    4    4    0    0 -0.93390997374E+01  0.61399769601E+00  0.87521995468E+01  0.12813928915E+02  0.51100000000E-03 0.  1.
        -12    1    4    4    0    0 -0.83045655142E+01 -0.33419702037E+02  0.25627457457E+01  0.34531289556E+02  0.00000000000E+00 0.  1.
</event>
<event>
 8    1  0.1269154E-006  0.9118800E+02  0.7816164E-02  0.1184000E+00
        -11   -1    0    0    0    0  0.00000000000E+00  0.00000000000E+00  0.45593999997E+02  0.45594000000E+02  0.51100000000E-03 0.  1.
         11   -1    0    0    0    0 -0.00000000000E+00 -0.00000000000E+00 -0.45593999997E+02  0.45594000000E+02  0.51100000000E-03 0. -1.
         23    2    1    2    0    0  0.00000000000E+00  0.00000000000E+00  0.00000000000E+00  0.91188000000E+02  0.91188000000E+02 0.  0.
    9900012    2    3    3    0    0 -0.25551935545E+02  0.50351878434E+01 -0.26029206825E+02  0.54367161679E+02  0.40000176678E+02 0.  0.
        -12    1    3    3    0    0  0.25551935545E+02 -0.50351878434E+01  0.26029206825E+02  0.36820838321E+02  0.00000000000E+00 0.  1.
         11    1    4    4    0    0 -0.13675104281E+02  0.47850765550E+01 -0.35927319891E+02  0.38738582183E+02  0.51100000000E-03 0. -1.
        -11    1    4    4    0    0 -0.58803153184E+01 -0.67620225996E+00  0.59302619625E+01  0.83787448311E+01  0.51100000000E-03 0.  1.
         12    1    4    4    0    0 -0.59965159460E+01  0.92631354841E+00  0.39678511034E+01  0.72498346643E+01  0.00000000000E+00 0. -1.
</event>
<event>
 8    1  0.1269154E-006  0.9118800E+02  0.7816164E-02  0.1184000E+00
        -11   -1    0    0    0    0  0.00000000000E+00  0.00000000000E+00  0.45593999997E+02  0.45594000000E+02  0.51100000000E-03 0.  1.
         11   -1    0    0    0    0 -0.00000000000E+00 -0.00000000000E+00 -0.45593999997E+02  0.45594000000E+02  0.51100000000E-03 0. -1.
         23    2    1    2    0    0  0.00000000000E+00 -0.35527136788E-14  0.00000000000E+00  0.91188000000E+02  0.91188000000E+02 0.  0.
    9900012    2    3    3    0    0  0.24569858780E+02  0.26853520989E+02 -0.55668447467E+01  0.54367091396E+02  0.40000016456E+02 0.  0.
        -12    1    3    3    0    0 -0.24569858780E+02 -0.26853520989E+02  0.55668447467E+01  0.36820908604E+02  0.00000000000E+00 0.  1.
         11    1    4    4    0    0  0.10728766957E+02  0.20509573398E+02 -0.17933313368E+01  0.23215621442E+02  0.51100000000E-03 0. -1.
        -11    1    4    4    0    0 -0.52748882942E+01 -0.28905005855E+01 -0.74824336478E+01  0.96003257083E+01  0.51100000000E-03 0.  1.
         12    1    4    4    0    0  0.19115980118E+02  0.92344481766E+01  0.37089202379E+01  0.21551144246E+02  0.00000000000E+00 0. -1.
</event>
<event>
 8    1  0.1269154E-006  0.9118800E+02  0.7816164E-02  0.1184000E+00
        -11   -1    0    0    0    0  0.00000000000E+00  0.00000000000E+00  0.45593999997E+02  0.45594000000E+02  0.51100000000E-03 0.  1.
         11   -1    0    0    0    0 -0.00000000000E+00 -0.00000000000E+00 -0.45593999997E+02  0.45594000000E+02  0.51100000000E-03 0. -1.
         23    2    1    2    0    0 -0.71054273576E-14  0.44408920985E-15 -0.17763568394E-14  0.91188000000E+02  0.91188000000E+02 0.  0.
    9900012    2    3    3    0    0 -0.33130798888E+02  0.26963780497E+01 -0.15838463973E+02  0.54367119639E+02  0.40000080840E+02 0.  0.
        -12    1    3    3    0    0  0.33130798888E+02 -0.26963780497E+01  0.15838463973E+02  0.36820880361E+02  0.00000000000E+00 0.  1.
         11    1    4    4    0    0 -0.10398623118E+02  0.34699917194E+01 -0.62254249908E+01  0.12606669737E+02  0.51100000000E-03 0. -1.
        -11    1    4    4    0    0  0.41114601403E+01 -0.81744385644E+01 -0.10466423720E+02  0.13902214790E+02  0.51100000000E-03 0.  1.
        -12    1    4    4    0    0 -0.26843635911E+02  0.74008248947E+01  0.85338473721E+00  0.27858235112E+02  0.00000000000E+00 0.  1.
</event>
<event>
 8    1  0.1269154E-006  0.9118800E+02  0.7816164E-02  0.1184000E+00
        -11   -1    0    0    0    0  0.00000000000E+00  0.00000000000E+00  0.45593999997E+02  0.45594000000E+02  0.51100000000E-03 0.  1.
         11   -1    0    0    0    0 -0.00000000000E+00 -0.00000000000E+00 -0.45593999997E+02  0.45594000000E+02  0.51100000000E-03 0. -1.
         23    2    1    2    0    0  0.00000000000E+00 -0.17763568394E-14 -0.17763568394E-14  0.91188000000E+02  0.91188000000E+02 0.  0.
    9900012    2    3    3    0    0  0.32111822143E+02 -0.13514434788E+02  0.11915144707E+02  0.54367085530E+02  0.40000003083E+02 0.  0.
        -12    1    3    3    0    0 -0.32111822143E+02  0.13514434788E+02 -0.11915144707E+02  0.36820914470E+02  0.00000000000E+00 0.  1.
         11    1    4    4    0    0  0.25396102737E+02 -0.55250979818E+01 -0.47273738375E+01  0.26416600947E+02  0.51100000000E-03 0. -1.
        -11    1    4    4    0    0  0.55440737852E+00 -0.13899235757E+02  0.10670844991E+02  0.17531772736E+02  0.51100000000E-03 0.  1.
         12    1    4    4    0    0  0.61613120276E+01  0.59098989513E+01  0.59716735539E+01  0.10418711847E+02  0.00000000000E+00 0. -1.
</event>
<event>
 8    1  0.1269154E-006  0.9118800E+02  0.7816164E-02  0.1184000E+00
        -11   -1    0    0    0    0  0.00000000000E+00  0.00000000000E+00  0.45593999997E+02  0.45594000000E+02  0.51100000000E-03 0. -1.
         11   -1    0    0    0    0 -0.00000000000E+00 -0.00000000000E+00 -0.45593999997E+02  0.45594000000E+02  0.51100000000E-03 0.  1.
         23    2    1    2    0    0 -0.44408920985E-15  0.00000000000E+00  0.00000000000E+00  0.91188000000E+02  0.91188000000E+02 0.  0.
    9900012    2    3    3    0    0 -0.33395965769E+01  0.34806280348E+02  0.11539147293E+02  0.54367055183E+02  0.39999933900E+02 0.  0.
        -12    1    3    3    0    0  0.33395965769E+01 -0.34806280348E+02 -0.11539147293E+02  0.36820944817E+02  0.00000000000E+00 0.  1.
         11    1    4    4    0    0 -0.20163997692E+01  0.14367133073E+02  0.69924527835E+01  0.16105116484E+02  0.51100000000E-03 0. -1.
        -11    1    4    4    0    0 -0.12199916161E+02  0.90382433909E+01  0.13345589794E+02  0.20214662132E+02  0.51100000000E-03 0.  1.
        -12    1    4    4    0    0  0.10876719353E+02  0.11400903884E+02 -0.87988952838E+01  0.18047276567E+02  0.00000000000E+00 0.  1.
</event>
<event>
 8    1  0.1269154E-006  0.9118800E+02  0.7816164E-02  0.1184000E+00
        -11   -1    0    0    0    0  0.00000000000E+00  0.00000000000E+00  0.45593999997E+02  0.45594000000E+02  0.51100000000E-03 0.  1.
         11   -1    0    0    0    0 -0.00000000000E+00 -0.00000000000E+00 -0.45593999997E+02  0.45594000000E+02  0.51100000000E-03 0. -1.
         23    2    1    2    0    0 -0.35527136788E-14  0.00000000000E+00  0.00000000000E+00  0.91188000000E+02  0.91188000000E+02 0.  0.
    9900012    2    3    3    0    0 -0.27709577869E+02  0.22604383127E+02 -0.87750493975E+01  0.54367077494E+02  0.39999984764E+02 0.  0.
        -12    1    3    3    0    0  0.27709577869E+02 -0.22604383127E+02  0.87750493975E+01  0.36820922506E+02  0.00000000000E+00 0.  1.
         11    1    4    4    0    0  0.78592853374E+01  0.11610039459E+02 -0.53351090999E+01  0.15000825698E+02  0.51100000000E-03 0. -1.
        -11    1    4    4    0    0 -0.62616723067E+01 -0.25512492772E+01  0.77670045471E+00  0.68059295330E+01  0.51100000000E-03 0.  1.
         12    1    4    4    0    0 -0.29307190899E+02  0.13545592945E+02 -0.42166407523E+01  0.32560322263E+02  0.00000000000E+00 0. -1.
</event>
<event>
 8    1  0.1269154E-006  0.9118800E+02  0.7816164E-02  0.1184000E+00
        -11   -1    0    0    0    0  0.00000000000E+00  0.00000000000E+00  0.45593999997E+02  0.45594000000E+02  0.51100000000E-03 0.  1.
         11   -1    0    0    0    0 -0.00000000000E+00 -0.00000000000E+00 -0.45593999997E+02  0.45594000000E+02  0.51100000000E-03 0. -1.
         23    2    1    2    0    0  0.35527136788E-14 -0.88817841970E-15  0.00000000000E+00  0.91188000000E+02  0.91188000000E+02 0.  0.
    9900012    2    3    3    0    0  0.12132520250E+02 -0.30195840214E+01  0.34633281982E+02  0.54367079912E+02  0.39999990275E+02 0.  0.
         12    1    3    3    0    0 -0.12132520250E+02  0.30195840214E+01 -0.34633281982E+02  0.36820920088E+02  0.00000000000E+00 0. -1.
         11    1    4    4    0    0  0.22987828246E+02  0.97111851897E+01  0.18560088888E+02  0.31100229341E+02  0.51100000000E-03 0. -1.
        -11    1    4    4    0    0 -0.44131425522E+01 -0.64494100432E+01  0.70681439476E+01  0.10537047794E+02  0.51100000000E-03 0.  1.
         12    1    4    4    0    0 -0.64421654438E+01 -0.62813591680E+01  0.90050491465E+01  0.12729802777E+02  0.00000000000E+00 0. -1.
</event>
<event>
 8    1  0.1269154E-006  0.9118800E+02  0.7816164E-02  0.1184000E+00
        -11   -1    0    0    0    0  0.00000000000E+00  0.00000000000E+00  0.45593999997E+02  0.45594000000E+02  0.51100000000E-03 0.  1.
         11   -1    0    0    0    0 -0.00000000000E+00 -0.00000000000E+00 -0.45593999997E+02  0.45594000000E+02  0.51100000000E-03 0. -1.
         23    2    1    2    0    0 -0.35527136788E-14  0.00000000000E+00  0.00000000000E+00  0.91188000000E+02  0.91188000000E+02 0.  0.
    9900012    2    3    3    0    0 -0.16806786913E+02 -0.32495590722E+02  0.41651182960E+01  0.54367085928E+02  0.40000003989E+02 0.  0.
         12    1    3    3    0    0  0.16806786913E+02  0.32495590722E+02 -0.41651182960E+01  0.36820914072E+02  0.00000000000E+00 0. -1.
         11    1    4    4    0    0  0.94877128253E+01 -0.15234403992E+02  0.44825763408E+01  0.18498574285E+02  0.51100000000E-03 0. -1.
        -11    1    4    4    0    0 -0.17864918765E+02 -0.10646232618E+02  0.80223902955E+01  0.22290274511E+02  0.51100000000E-03 0.  1.
         12    1    4    4    0    0 -0.84295809725E+01 -0.66149541117E+01 -0.83398483403E+01  0.13578237132E+02  0.00000000000E+00 0. -1.
</event>
<event>
 8    1  0.1269154E-006  0.9118800E+02  0.7816164E-02  0.1184000E+00
        -11   -1    0    0    0    0  0.00000000000E+00  0.00000000000E+00  0.45593999997E+02  0.45594000000E+02  0.51100000000E-03 0.  1.
         11   -1    0    0    0    0 -0.00000000000E+00 -0.00000000000E+00 -0.45593999997E+02  0.45594000000E+02  0.51100000000E-03 0. -1.
         23    2    1    2    0    0  0.00000000000E+00 -0.88817841970E-15  0.00000000000E+00  0.91188000000E+02  0.91188000000E+02 0.  0.
    9900012    2    3    3    0    0  0.32643391160E+02 -0.78350784738E+01  0.15126156451E+02  0.54367081352E+02  0.39999993557E+02 0.  0.
         12    1    3    3    0    0 -0.32643391160E+02  0.78350784738E+01 -0.15126156451E+02  0.36820918648E+02  0.00000000000E+00 0. -1.
         11    1    4    4    0    0  0.19052287100E+01 -0.10044769713E+02  0.18944100516E+02  0.21526872501E+02  0.51100000000E-03 0. -1.
        -11    1    4    4    0    0  0.11672347012E+02  0.56881397089E+01 -0.35368762385E+01  0.13457641395E+02  0.51100000000E-03 0.  1.
         12    1    4    4    0    0  0.19065815438E+02 -0.34784484693E+01 -0.28106782676E+00  0.19382567456E+02  0.00000000000E+00 0. -1.
</event>
<event>
 8    1  0.1269154E-006  0.9118800E+02  0.7816164E-02  0.1184000E+00
        -11   -1    0    0    0    0  0.00000000000E+00  0.00000000000E+00  0.45593999997E+02  0.45594000000E+02  0.51100000000E-03 0. -1.
         11   -1    0    0    0    0 -0.00000000000E+00 -0.00000000000E+00 -0.45593999997E+02  0.45594000000E+02  0.51100000000E-03 0.  1.
         23    2    1    2    0    0  0.13322676296E-14  0.00000000000E+00  0.88817841970E-15  0.91188000000E+02  0.91188000000E+02 0.  0.
    9900012    2    3    3    0    0  0.27330041780E+01 -0.36222593483E+02 -0.60194809758E+01  0.54367085540E+02  0.40000003106E+02 0.  0.
         12    1    3    3    0    0 -0.27330041780E+01  0.36222593483E+02  0.60194809758E+01  0.36820914460E+02  0.00000000000E+00 0. -1.
         11    1    4    4    0    0  0.28522120942E+01 -0.75155217175E+01 -0.14437496759E+02  0.16524511897E+02  0.51100000000E-03 0. -1.
        -11    1    4    4    0    0 -0.50060001956E+01 -0.30937829516E+02  0.84914361942E+01  0.32470198984E+02  0.51100000000E-03 0.  1.
        -12    1    4    4    0    0  0.48867922794E+01  0.22307577510E+01 -0.73420411432E-01  0.53723746596E+01  0.00000000000E+00 0.  1.
</event>
<event>
 8    1  0.1269154E-006  0.9118800E+02  0.7816164E-02  0.1184000E+00
        -11   -1    0    0    0    0  0.00000000000E+00  0.00000000000E+00  0.45593999997E+02  0.45594000000E+02  0.51100000000E-03 0.  1.
         11   -1    0    0    0    0 -0.00000000000E+00 -0.00000000000E+00 -0.45593999997E+02  0.45594000000E+02  0.51100000000E-03 0. -1.
         23    2    1    2    0    0  0.35527136788E-14  0.00000000000E+00 -0.35527136788E-14  0.91188000000E+02  0.91188000000E+02 0.  0.
    9900012    2    3    3    0    0 -0.21621528157E+02  0.11617371221E+01 -0.29781555150E+02  0.54367066550E+02  0.39999959813E+02 0.  0.
        -12    1    3    3    0    0  0.21621528157E+02 -0.11617371221E+01  0.29781555150E+02  0.36820933450E+02  0.00000000000E+00 0.  1.
         11    1    4    4    0    0  0.18194815290E+01  0.14881970721E+01 -0.30006901508E+02  0.30098826919E+02  0.51100000000E-03 0. -1.
        -11    1    4    4    0    0 -0.41965354882E+01 -0.24522098132E+01  0.63897167250E+00  0.49022982499E+01  0.51100000000E-03 0.  1.
         12    1    4    4    0    0 -0.19244474198E+02  0.21257498632E+01 -0.41362531478E+00  0.19365941380E+02  0.00000000000E+00 0. -1.
</event>
<event>
 8    1  0.1269154E-006  0.9118800E+02  0.7816164E-02  0.1184000E+00
        -11   -1    0    0    0    0  0.00000000000E+00  0.00000000000E+00  0.45593999997E+02  0.45594000000E+02  0.51100000000E-03 0. -1.
         11   -1    0    0    0    0 -0.00000000000E+00 -0.00000000000E+00 -0.45593999997E+02  0.45594000000E+02  0.51100000000E-03 0.  1.
         23    2    1    2    0    0 -0.35527136788E-14 -0.35527136788E-14  0.35527136788E-14  0.91188000000E+02  0.91188000000E+02 0.  0.
    9900012    2    3    3    0    0 -0.15155705278E+02 -0.16182435359E+02  0.29397527682E+02  0.54367065052E+02  0.39999956399E+02 0.  0.
        -12    1    3    3    0    0  0.15155705278E+02  0.16182435359E+02 -0.29397527682E+02  0.36820934948E+02  0.00000000000E+00 0.  1.
         11    1    4    4    0    0 -0.95509254006E-01 -0.13584949156E+02  0.13240939786E+02  0.18970568054E+02  0.51100000000E-03 0. -1.
        -11    1    4    4    0    0 -0.39693769162E+01  0.12261013973E+02  0.55113115811E+01  0.14016524974E+02  0.51100000000E-03 0.  1.
        -12    1    4    4    0    0 -0.11090819108E+02 -0.14858500176E+02  0.10645276314E+02  0.21379972025E+02  0.00000000000E+00 0.  1.
</event>
<event>
 8    1  0.1269154E-006  0.9118800E+02  0.7816164E-02  0.1184000E+00
        -11   -1    0    0    0    0  0.00000000000E+00  0.00000000000E+00  0.45593999997E+02  0.45594000000E+02  0.51100000000E-03 0.  1.
         11   -1    0    0    0    0 -0.00000000000E+00 -0.00000000000E+00 -0.45593999997E+02  0.45594000000E+02  0.51100000000E-03 0. -1.
         23    2    1    2    0    0  0.35527136788E-14  0.00000000000E+00  0.35527136788E-14  0.91188000000E+02  0.91188000000E+02 0.  0.
    9900012    2    3    3    0    0  0.25529151831E+02  0.15115814573E+02  0.21807212972E+02  0.54367082290E+02  0.39999995697E+02 0.  0.
        -12    1    3    3    0    0 -0.25529151831E+02 -0.15115814573E+02 -0.21807212972E+02  0.36820917710E+02  0.00000000000E+00 0.  1.
         11    1    4    4    0    0  0.16955641302E+02 -0.73220259120E+01  0.11834116390E+02  0.21935180565E+02  0.51100000000E-03 0. -1.
        -11    1    4    4    0    0  0.27411180118E+01 -0.16713805863E+01 -0.30396247446E+01  0.44211491569E+01  0.51100000000E-03 0.  1.
        -12    1    4    4    0    0  0.58323925174E+01  0.24109221071E+02  0.13012721326E+02  0.28010752568E+02  0.00000000000E+00 0.  1.
</event>
<event>
 8    1  0.1269154E-006  0.9118800E+02  0.7816164E-02  0.1184000E+00
        -11   -1    0    0    0    0  0.00000000000E+00  0.00000000000E+00  0.45593999997E+02  0.45594000000E+02  0.51100000000E-03 0. -1.
         11   -1    0    0    0    0 -0.00000000000E+00 -0.00000000000E+00 -0.45593999997E+02  0.45594000000E+02  0.51100000000E-03 0.  1.
         23    2    1    2    0    0  0.17763568394E-14 -0.35527136788E-14 -0.35527136788E-14  0.91188000000E+02  0.91188000000E+02 0.  0.
    9900012    2    3    3    0    0  0.11724297086E+02 -0.17257561448E+02 -0.30339710843E+02  0.54367073568E+02  0.39999975813E+02 0.  0.
         12    1    3    3    0    0 -0.11724297086E+02  0.17257561448E+02  0.30339710843E+02  0.36820926432E+02  0.00000000000E+00 0. -1.
         11    1    4    4    0    0 -0.29373304424E+01  0.72628564805E+01 -0.12433383341E+02  0.14695782250E+02  0.51100000000E-03 0. -1.
        -11    1    4    4    0    0  0.97456553902E+00  0.35633502701E+01 -0.66103790373E-01  0.36948089409E+01  0.51100000000E-03 0.  1.
        -12    1    4    4    0    0  0.13687061990E+02 -0.28083768199E+02 -0.17840223711E+02  0.35976482377E+02  0.00000000000E+00 0.  1.
</event>
<event>
 8    1  0.1269154E-006  0.9118800E+02  0.7816164E-02  0.1184000E+00
        -11   -1    0    0    0    0  0.00000000000E+00  0.00000000000E+00  0.45593999997E+02  0.45594000000E+02  0.51100000000E-03 0.  1.
         11   -1    0    0    0    0 -0.00000000000E+00 -0.00000000000E+00 -0.45593999997E+02  0.45594000000E+02  0.51100000000E-03 0. -1.
         23    2    1    2    0    0  0.00000000000E+00 -0.35527136788E-14  0.00000000000E+00  0.91188000000E+02  0.91188000000E+02 0.  0.
    9900012    2    3    3    0    0  0.16154110959E+02  0.27911471734E+02  0.17770047791E+02  0.54367079945E+02  0.39999990349E+02 0.  0.
         12    1    3    3    0    0 -0.16154110959E+02 -0.27911471734E+02 -0.17770047791E+02  0.36820920055E+02  0.00000000000E+00 0. -1.
         11    1    4    4    0    0 -0.42204807203E+01  0.12091617992E+02 -0.16626586873E+01  0.12914492531E+02  0.51100000000E-03 0. -1.
        -11    1    4    4    0    0  0.81649634455E+01  0.83041933916E+01  0.23773314451E+02  0.26472565728E+02  0.51100000000E-03 0.  1.
        -12    1    4    4    0    0  0.12209628234E+02  0.75156603502E+01 -0.43406079729E+01  0.14980021685E+02  0.00000000000E+00 0.  1.
</event>
<event>
 8    1  0.1269154E-006  0.9118800E+02  0.7816164E-02  0.1184000E+00
        -11   -1    0    0    0    0  0.00000000000E+00  0.00000000000E+00  0.45593999997E+02  0.45594000000E+02  0.51100000000E-03 0.  1.
         11   -1    0    0    0    0 -0.00000000000E+00 -0.00000000000E+00 -0.45593999997E+02  0.45594000000E+02  0.51100000000E-03 0. -1.
         23    2    1    2    0    0  0.35527136788E-14  0.00000000000E+00  0.11102230246E-15  0.91188000000E+02  0.91188000000E+02 0.  0.
    9900012    2    3    3    0    0 -0.31544606258E+02 -0.18986874500E+02  0.46670504924E+00  0.54367063009E+02  0.39999951743E+02 0.  0.
        -12    1    3    3    0    0  0.31544606258E+02  0.18986874500E+02 -0.46670504924E+00  0.36820936991E+02  0.00000000000E+00 0.  1.
         11    1    4    4    0    0 -0.29677603536E+02 -0.36066931887E+01  0.32926601344E+01  0.30076735169E+02  0.51100000000E-03 0. -1.
        -11    1    4    4    0    0 -0.95135164958E+01 -0.12617110519E+02 -0.40467700525E+00  0.15807031274E+02  0.51100000000E-03 0.  1.
        -12    1    4    4    0    0  0.76465137736E+01 -0.27630707921E+01 -0.24212780800E+01  0.84832965663E+01  0.00000000000E+00 0.  1.
</event>
<event>
 8    1  0.1269154E-006  0.9118800E+02  0.7816164E-02  0.1184000E+00
        -11   -1    0    0    0    0  0.00000000000E+00  0.00000000000E+00  0.45593999997E+02  0.45594000000E+02  0.51100000000E-03 0.  1.
         11   -1    0    0    0    0 -0.00000000000E+00 -0.00000000000E+00 -0.45593999997E+02  0.45594000000E+02  0.51100000000E-03 0. -1.
         23    2    1    2    0    0 -0.66613381478E-15  0.35527136788E-14 -0.35527136788E-14  0.91188000000E+02  0.91188000000E+02 0.  0.
    9900012    2    3    3    0    0  0.18922018016E+01 -0.21260556269E+02  0.30003157155E+02  0.54367066826E+02  0.39999960443E+02 0.  0.
         12    1    3    3    0    0 -0.18922018016E+01  0.21260556269E+02 -0.30003157155E+02  0.36820933174E+02  0.00000000000E+00 0. -1.
         11    1    4    4    0    0  0.49642228023E+01  0.10015595175E+02  0.44511243704E+01  0.12031964227E+02  0.51100000000E-03 0. -1.
        -11    1    4    4    0    0  0.45939786810E+01 -0.83989452046E+01  0.61998060140E+01  0.11405459901E+02  0.51100000000E-03 0.  1.
         12    1    4    4    0    0 -0.76659996817E+01 -0.22877206240E+02  0.19352226771E+02  0.30929642698E+02  0.00000000000E+00 0. -1.
</event>
<event>
 8    1  0.1269154E-006  0.9118800E+02  0.7816164E-02  0.1184000E+00
        -11   -1    0    0    0    0  0.00000000000E+00  0.00000000000E+00  0.45593999997E+02  0.45594000000E+02  0.51100000000E-03 0. -1.
         11   -1    0    0    0    0 -0.00000000000E+00 -0.00000000000E+00 -0.45593999997E+02  0.45594000000E+02  0.51100000000E-03 0.  1.
         23    2    1    2    0    0 -0.35527136788E-14 -0.35527136788E-14 -0.35527136788E-14  0.91188000000E+02  0.91188000000E+02 0.  0.
    9900012    2    3    3    0    0 -0.20689495793E+02 -0.89336667191E+01 -0.29118956524E+02  0.54367091995E+02  0.40000017821E+02 0.  0.
         12    1    3    3    0    0  0.20689495793E+02  0.89336667191E+01  0.29118956524E+02  0.36820908005E+02  0.00000000000E+00 0. -1.
         11    1    4    4    0    0 -0.10189284589E+02  0.14076328025E+02 -0.75581553393E+01  0.18949676607E+02  0.51100000000E-03 0. -1.
        -11    1    4    4    0    0  0.26922697611E+01 -0.49114717575E+01 -0.31563366719E+01  0.64291004610E+01  0.51100000000E-03 0.  1.
        -12    1    4    4    0    0 -0.13192480965E+02 -0.18098522987E+02 -0.18404464513E+02  0.28988314927E+02  0.00000000000E+00 0.  1.
</event>
<event>
 8    1  0.1269154E-006  0.9118800E+02  0.7816164E-02  0.1184000E+00
        -11   -1    0    0    0    0  0.00000000000E+00  0.00000000000E+00  0.45593999997E+02  0.45594000000E+02  0.51100000000E-03 0.  1.
         11   -1    0    0    0    0 -0.00000000000E+00 -0.00000000000E+00 -0.45593999997E+02  0.45594000000E+02  0.51100000000E-03 0. -1.
         23    2    1    2    0    0  0.00000000000E+00 -0.35527136788E-14 -0.17763568394E-14  0.91188000000E+02  0.91188000000E+02 0.  0.
    9900012    2    3    3    0    0  0.27572208524E+02  0.19227223237E+02  0.15028803719E+02  0.54367112755E+02  0.40000065147E+02 0.  0.
         12    1    3    3    0    0 -0.27572208524E+02 -0.19227223237E+02 -0.15028803719E+02  0.36820887245E+02  0.00000000000E+00 0. -1.
         11    1    4    4    0    0 -0.40840744886E+01 -0.30801555872E+01 -0.63471306655E+01  0.81518765211E+01  0.51100000000E-03 0. -1.
        -11    1    4    4    0    0  0.57563221889E+00  0.53818326302E+01  0.43416088611E+01  0.69386628881E+01  0.51100000000E-03 0.  1.
        -12    1    4    4    0    0  0.31080650794E+02  0.16925546194E+02  0.17034325523E+02  0.39276573346E+02  0.00000000000E+00 0.  1.
</event>
<event>
 8    1  0.1269154E-006  0.9118800E+02  0.7816164E-02  0.1184000E+00
        -11   -1    0    0    0    0  0.00000000000E+00  0.00000000000E+00  0.45593999997E+02  0.45594000000E+02  0.51100000000E-03 0. -1.
         11   -1    0    0    0    0 -0.00000000000E+00 -0.00000000000E+00 -0.45593999997E+02  0.45594000000E+02  0.51100000000E-03 0.  1.
         23    2    1    2    0    0  0.00000000000E+00  0.00000000000E+00  0.44408920985E-15  0.91188000000E+02  0.91188000000E+02 0.  0.
    9900012    2    3    3    0    0 -0.29255137743E+02  0.22147593889E+02  0.30659155938E+01  0.54367097813E+02  0.40000031085E+02 0.  0.
         12    1    3    3    0    0  0.29255137743E+02 -0.22147593889E+02 -0.30659155938E+01  0.36820902187E+02  0.00000000000E+00 0. -1.
         11    1    4    4    0    0 -0.34122399941E+01 -0.68664707626E+01 -0.20207529026E+01  0.79293912166E+01  0.51100000000E-03 0. -1.
        -11    1    4    4    0    0  0.34429588194E+01  0.51896319967E+01  0.60362366186E+01  0.86730847148E+01  0.51100000000E-03 0.  1.
        -12    1    4    4    0    0 -0.29285856568E+02  0.23824432655E+02 -0.94956812223E+00  0.37764621882E+02  0.00000000000E+00 0.  1.
</event>
<event>
 8    1  0.1269154E-006  0.9118800E+02  0.7816164E-02  0.1184000E+00
        -11   -1    0    0    0    0  0.00000000000E+00  0.00000000000E+00  0.45593999997E+02  0.45594000000E+02  0.51100000000E-03 0. -1.
         11   -1    0    0    0    0 -0.00000000000E+00 -0.00000000000E+00 -0.45593999997E+02  0.45594000000E+02  0.51100000000E-03 0.  1.
         23    2    1    2    0    0 -0.44408920985E-15  0.71054273576E-14  0.00000000000E+00  0.91188000000E+02  0.91188000000E+02 0.  0.
    9900012    2    3    3    0    0 -0.39155586529E+01 -0.34746624239E+02  0.11537794507E+02  0.54367079348E+02  0.39999988990E+02 0.  0.
         12    1    3    3    0    0  0.39155586529E+01  0.34746624239E+02 -0.11537794507E+02  0.36820920652E+02  0.00000000000E+00 0. -1.
         11    1    4    4    0    0 -0.89062641834E+00  0.58726920885E+01  0.38430981734E+01  0.70746824392E+01  0.51100000000E-03 0. -1.
        -11    1    4    4    0    0  0.73524560196E+01 -0.29784423319E+02  0.96552502877E+01  0.32162001498E+02  0.51100000000E-03 0.  1.
         12    1    4    4    0    0 -0.10377388254E+02 -0.10834893009E+02 -0.19605539543E+01  0.15130395411E+02  0.00000000000E+00 0. -1.
</event>
<event>
 8    1  0.1269154E-006  0.9118800E+02  0.7816164E-02  0.1184000E+00
        -11   -1    0    0    0    0  0.00000000000E+00  0.00000000000E+00  0.45593999997E+02  0.45594000000E+02  0.51100000000E-03 0.  1.
         11   -1    0    0    0    0 -0.00000000000E+00 -0.00000000000E+00 -0.45593999997E+02  0.45594000000E+02  0.51100000000E-03 0. -1.
         23    2    1    2    0    0 -0.17763568394E-14 -0.44408920985E-15  0.00000000000E+00  0.91188000000E+02  0.91188000000E+02 0.  0.
    9900012    2    3    3    0    0  0.13886647035E+02  0.32997382660E+01 -0.33941865767E+02  0.54367116113E+02  0.40000072802E+02 0.  0.
        -12    1    3    3    0    0 -0.13886647035E+02 -0.32997382660E+01  0.33941865767E+02  0.36820883887E+02  0.00000000000E+00 0.  1.
         11    1    4    4    0    0  0.33572813706E+01  0.72272431407E+01 -0.16474508968E+01  0.81374735843E+01  0.51100000000E-03 0. -1.
        -11    1    4    4    0    0  0.13597354309E+02  0.30722442683E+01 -0.95608445718E+00  0.13972860366E+02  0.51100000000E-03 0.  1.
         12    1    4    4    0    0 -0.30679886449E+01 -0.69997491430E+01 -0.31338330413E+02  0.32256782163E+02  0.00000000000E+00 0. -1.
</event>
<event>
 8    1  0.1269154E-006  0.9118800E+02  0.7816164E-02  0.1184000E+00
        -11   -1    0    0    0    0  0.00000000000E+00  0.00000000000E+00  0.45593999997E+02  0.45594000000E+02  0.51100000000E-03 0. -1.
         11   -1    0    0    0    0 -0.00000000000E+00 -0.00000000000E+00 -0.45593999997E+02  0.45594000000E+02  0.51100000000E-03 0.  1.
         23    2    1    2    0    0  0.00000000000E+00  0.88817841970E-15 -0.35527136788E-14  0.91188000000E+02  0.91188000000E+02 0.  0.
    9900012    2    3    3    0    0  0.27046184138E+02  0.44939922199E+01 -0.24578204225E+02  0.54367079786E+02  0.39999989987E+02 0.  0.
         12    1    3    3    0    0 -0.27046184138E+02 -0.44939922199E+01  0.24578204225E+02  0.36820920214E+02  0.00000000000E+00 0. -1.
         11    1    4    4    0    0 -0.38718045299E+01 -0.68586038919E+01  0.35119027172E+01  0.86235015290E+01  0.51100000000E-03 0. -1.
        -11    1    4    4    0    0  0.15457691763E+02 -0.19915616574E+01 -0.13809139200E+02  0.20823037199E+02  0.51100000000E-03 0.  1.
        -12    1    4    4    0    0  0.15460296904E+02  0.13344157769E+02 -0.14280967742E+02  0.24920541057E+02  0.00000000000E+00 0.  1.
</event>
<event>
 8    1  0.1269154E-006  0.9118800E+02  0.7816164E-02  0.1184000E+00
        -11   -1    0    0    0    0  0.00000000000E+00  0.00000000000E+00  0.45593999997E+02  0.45594000000E+02  0.51100000000E-03 0.  1.
         11   -1    0    0    0    0 -0.00000000000E+00 -0.00000000000E+00 -0.45593999997E+02  0.45594000000E+02  0.51100000000E-03 0. -1.
         23    2    1    2    0    0  0.88817841970E-15  0.00000000000E+00  0.00000000000E+00  0.91188000000E+02  0.91188000000E+02 0.  0.
    9900012    2    3    3    0    0  0.75870978412E+01  0.23635987606E+02  0.27194744266E+02  0.54367108112E+02  0.40000054562E+02 0.  0.
         12    1    3    3    0    0 -0.75870978412E+01 -0.23635987606E+02 -0.27194744266E+02  0.36820891888E+02  0.00000000000E+00 0. -1.
         11    1    4    4    0    0 -0.11985485800E+02  0.83880717978E+01  0.32108847173E+01  0.14977362894E+02  0.51100000000E-03 0. -1.
        -11    1    4    4    0    0  0.10310736973E+02  0.21663415472E+01  0.20408221868E+02  0.22967364949E+02  0.51100000000E-03 0.  1.
        -12    1    4    4    0    0  0.92618466674E+01  0.13081574261E+02  0.35756376803E+01  0.16422380268E+02  0.00000000000E+00 0.  1.
</event>
<event>
 8    1  0.1269154E-006  0.9118800E+02  0.7816164E-02  0.1184000E+00
        -11   -1    0    0    0    0  0.00000000000E+00  0.00000000000E+00  0.45593999997E+02  0.45594000000E+02  0.51100000000E-03 0.  1.
         11   -1    0    0    0    0 -0.00000000000E+00 -0.00000000000E+00 -0.45593999997E+02  0.45594000000E+02  0.51100000000E-03 0. -1.
         23    2    1    2    0    0 -0.71054273576E-14  0.00000000000E+00  0.00000000000E+00  0.91188000000E+02  0.91188000000E+02 0.  0.
    9900012    2    3    3    0    0 -0.24989531263E+02  0.18510118264E+02 -0.19714968048E+02  0.54367066877E+02  0.39999960560E+02 0.  0.
        -12    1    3    3    0    0  0.24989531263E+02 -0.18510118264E+02  0.19714968048E+02  0.36820933123E+02  0.00000000000E+00 0.  1.
         11    1    4    4    0    0  0.46084322739E+01 -0.28342557516E+01 -0.56881359481E+01  0.78501939157E+01  0.51100000000E-03 0. -1.
        -11    1    4    4    0    0  0.14394367810E+01  0.11752913476E+02 -0.44454246061E+01  0.12647717328E+02  0.51100000000E-03 0.  1.
         12    1    4    4    0    0 -0.31037400318E+02  0.95914605405E+01 -0.95814074933E+01  0.33869155634E+02  0.00000000000E+00 0. -1.
</event>
<event>
 8    1  0.1269154E-006  0.9118800E+02  0.7816164E-02  0.1184000E+00
        -11   -1    0    0    0    0  0.00000000000E+00  0.00000000000E+00  0.45593999997E+02  0.45594000000E+02  0.51100000000E-03 0.  1.
         11   -1    0    0    0    0 -0.00000000000E+00 -0.00000000000E+00 -0.45593999997E+02  0.45594000000E+02  0.51100000000E-03 0. -1.
         23    2    1    2    0    0  0.00000000000E+00  0.00000000000E+00  0.44408920985E-15  0.91188000000E+02  0.91188000000E+02 0.  0.
    9900012    2    3    3    0    0  0.25933091170E+02  0.26111772311E+02 -0.11961674738E+01  0.54367072697E+02  0.39999973826E+02 0.  0.
        -12    1    3    3    0    0 -0.25933091170E+02 -0.26111772311E+02  0.11961674738E+01  0.36820927303E+02  0.00000000000E+00 0.  1.
         11    1    4    4    0    0  0.99857620122E+01  0.15813376328E+02 -0.49999352995E+01  0.19359175270E+02  0.51100000000E-03 0. -1.
        -11    1    4    4    0    0  0.24090388307E+02  0.38149989104E+01  0.27994917494E+01  0.24550726665E+02  0.51100000000E-03 0.  1.
         12    1    4    4    0    0 -0.81430591491E+01  0.64833970724E+01  0.10042760764E+01  0.10457170762E+02  0.00000000000E+00 0. -1.
</event>
<event>
 8    1  0.1269154E-006  0.9118800E+02  0.7816164E-02  0.1184000E+00
        -11   -1    0    0    0    0  0.00000000000E+00  0.00000000000E+00  0.45593999997E+02  0.45594000000E+02  0.51100000000E-03 0.  1.
         11   -1    0    0    0    0 -0.00000000000E+00 -0.00000000000E+00 -0.45593999997E+02  0.45594000000E+02  0.51100000000E-03 0. -1.
         23    2    1    2    0    0 -0.88817841970E-15  0.00000000000E+00  0.00000000000E+00  0.91188000000E+02  0.91188000000E+02 0.  0.
    9900012    2    3    3    0    0 -0.42662992778E+01 -0.35813499351E+02  0.74143228009E+01  0.54367078937E+02  0.39999988053E+02 0.  0.
         12    1    3    3    0    0  0.42662992778E+01  0.35813499351E+02 -0.74143228009E+01  0.36820921063E+02  0.00000000000E+00 0. -1.
         11    1    4    4    0    0 -0.11637973007E+02 -0.10220706515E+02  0.44321350710E+01  0.16110526960E+02  0.51100000000E-03 0. -1.
        -11    1    4    4    0    0  0.33726634149E+01 -0.24366183881E+02  0.12695092933E+02  0.27681242029E+02  0.51100000000E-03 0.  1.
         12    1    4    4    0    0  0.39990103139E+01 -0.12266089550E+01 -0.97129052029E+01  0.10575309948E+02  0.00000000000E+00 0. -1.
</event>
<event>
 8    1  0.1269154E-006  0.9118800E+02  0.7816164E-02  0.1184000E+00
        -11   -1    0    0    0    0  0.00000000000E+00  0.00000000000E+00  0.45593999997E+02  0.45594000000E+02  0.51100000000E-03 0.  1.
         11   -1    0    0    0    0 -0.00000000000E+00 -0.00000000000E+00 -0.45593999997E+02  0.45594000000E+02  0.51100000000E-03 0. -1.
         23    2    1    2    0    0  0.88817841970E-15  0.00000000000E+00  0.00000000000E+00  0.91188000000E+02  0.91188000000E+02 0.  0.
    9900012    2    3    3    0    0  0.75857100406E+01  0.11394868445E+02  0.34181767081E+02  0.54367092564E+02  0.40000019117E+02 0.  0.
         12    1    3    3    0    0 -0.75857100406E+01 -0.11394868445E+02 -0.34181767081E+02  0.36820907436E+02  0.00000000000E+00 0. -1.
         11    1    4    4    0    0  0.10986323625E+02  0.41556517749E+00  0.13016328241E+02  0.17038098555E+02  0.51100000000E-03 0. -1.
        -11    1    4    4    0    0  0.48529503793E+01 -0.80672320321E+00  0.22356319997E+02  0.22891198609E+02  0.51100000000E-03 0.  1.
         12    1    4    4    0    0 -0.82535639641E+01  0.11786026470E+02 -0.11908811572E+01  0.14437795400E+02  0.00000000000E+00 0. -1.
</event>
<event>
 8    1  0.1269154E-006  0.9118800E+02  0.7816164E-02  0.1184000E+00
        -11   -1    0    0    0    0  0.00000000000E+00  0.00000000000E+00  0.45593999997E+02  0.45594000000E+02  0.51100000000E-03 0.  1.
         11   -1    0    0    0    0 -0.00000000000E+00 -0.00000000000E+00 -0.45593999997E+02  0.45594000000E+02  0.51100000000E-03 0. -1.
         23    2    1    2    0    0  0.00000000000E+00 -0.35527136788E-14  0.00000000000E+00  0.91188000000E+02  0.91188000000E+02 0.  0.
    9900012    2    3    3    0    0 -0.13774780489E+02 -0.17341909682E+02  0.29415859584E+02  0.54367092841E+02  0.40000019749E+02 0.  0.
         12    1    3    3    0    0  0.13774780489E+02  0.17341909682E+02 -0.29415859584E+02  0.36820907159E+02  0.00000000000E+00 0. -1.
         11    1    4    4    0    0  0.57623672393E+01 -0.16673280734E+02  0.83632802187E+01  0.19523002405E+02  0.51100000000E-03 0. -1.
        -11    1    4    4    0    0 -0.89216031826E+01 -0.40263879252E+01 -0.12980679218E+01  0.98737927699E+01  0.51100000000E-03 0.  1.
         12    1    4    4    0    0 -0.10615544546E+02  0.33577589767E+01  0.22350647287E+02  0.24970297666E+02  0.00000000000E+00 0. -1.
</event>
<event>
 8    1  0.1269154E-006  0.9118800E+02  0.7816164E-02  0.1184000E+00
        -11   -1    0    0    0    0  0.00000000000E+00  0.00000000000E+00  0.45593999997E+02  0.45594000000E+02  0.51100000000E-03 0.  1.
         11   -1    0    0    0    0 -0.00000000000E+00 -0.00000000000E+00 -0.45593999997E+02  0.45594000000E+02  0.51100000000E-03 0. -1.
         23    2    1    2    0    0  0.00000000000E+00  0.00000000000E+00  0.35527136788E-14  0.91188000000E+02  0.91188000000E+02 0.  0.
    9900012    2    3    3    0    0 -0.13977040889E+02  0.20056761249E+02  0.27534505100E+02  0.54367077756E+02  0.39999985360E+02 0.  0.
         12    1    3    3    0    0  0.13977040889E+02 -0.20056761249E+02 -0.27534505100E+02  0.36820922244E+02  0.00000000000E+00 0. -1.
         11    1    4    4    0    0 -0.69340097608E+01 -0.11425786209E+01  0.15264039400E+01  0.71913758431E+01  0.51100000000E-03 0. -1.
        -11    1    4    4    0    0 -0.84539967187E+01  0.59382875136E+01  0.29670794107E+02  0.31417978011E+02  0.51100000000E-03 0.  1.
        -12    1    4    4    0    0  0.14109655905E+01  0.15261052356E+02 -0.36626929476E+01  0.15757723901E+02  0.00000000000E+00 0.  1.
</event>
<event>
 8    1  0.1269154E-006  0.9118800E+02  0.7816164E-02  0.1184000E+00
        -11   -1    0    0    0    0  0.00000000000E+00  0.00000000000E+00  0.45593999997E+02  0.45594000000E+02  0.51100000000E-03 0. -1.
         11   -1    0    0    0    0 -0.00000000000E+00 -0.00000000000E+00 -0.45593999997E+02  0.45594000000E+02  0.51100000000E-03 0.  1.
         23    2    1    2    0    0  0.88817841970E-15  0.00000000000E+00  0.00000000000E+00  0.91188000000E+02  0.91188000000E+02 0.  0.
    9900012    2    3    3    0    0  0.18649770612E+01 -0.23801703307E+02 -0.28031791023E+02  0.54367074866E+02  0.39999978771E+02 0.  0.
         12    1    3    3    0    0 -0.18649770612E+01  0.23801703307E+02  0.28031791023E+02  0.36820925134E+02  0.00000000000E+00 0. -1.
         11    1    4    4    0    0 -0.12650905959E+02 -0.20801185315E+02 -0.16472659580E+02  0.29395292922E+02  0.51100000000E-03 0. -1.
        -11    1    4    4    0    0  0.17090952575E+02 -0.59160883807E+01 -0.83112492674E+01  0.19904211270E+02  0.51100000000E-03 0.  1.
         12    1    4    4    0    0 -0.25750695546E+01  0.29155703880E+01 -0.32478821761E+01  0.50675706733E+01  0.00000000000E+00 0. -1.
</event>
<event>
 8    1  0.1269154E-006  0.9118800E+02  0.7816164E-02  0.1184000E+00
        -11   -1    0    0    0    0  0.00000000000E+00  0.00000000000E+00  0.45593999997E+02  0.45594000000E+02  0.51100000000E-03 0.  1.
         11   -1    0    0    0    0 -0.00000000000E+00 -0.00000000000E+00 -0.45593999997E+02  0.45594000000E+02  0.51100000000E-03 0. -1.
         23    2    1    2    0    0  0.00000000000E+00  0.00000000000E+00 -0.17763568394E-14  0.91188000000E+02  0.91188000000E+02 0.  0.
    9900012    2    3    3    0    0 -0.36245817755E+02 -0.50790508692E+01  0.40280266150E+01  0.54367067626E+02  0.39999962268E+02 0.  0.
        -12    1    3    3    0    0  0.36245817755E+02  0.50790508692E+01 -0.40280266150E+01  0.36820932374E+02  0.00000000000E+00 0.  1.
         11    1    4    4    0    0 -0.14250161468E+02 -0.70828243254E+01  0.51080521502E+01  0.16713039799E+02  0.51100000000E-03 0. -1.
        -11    1    4    4    0    0 -0.89482893050E+00 -0.43845055263E+00  0.12436619905E+02  0.12476476771E+02  0.51100000000E-03 0.  1.
         12    1    4    4    0    0 -0.21100827356E+02  0.24422240088E+01 -0.13516645440E+02  0.25177551056E+02  0.00000000000E+00 0. -1.
</event>
<event>
 8    1  0.1269154E-006  0.9118800E+02  0.7816164E-02  0.1184000E+00
        -11   -1    0    0    0    0  0.00000000000E+00  0.00000000000E+00  0.45593999997E+02  0.45594000000E+02  0.51100000000E-03 0.  1.
         11   -1    0    0    0    0 -0.00000000000E+00 -0.00000000000E+00 -0.45593999997E+02  0.45594000000E+02  0.51100000000E-03 0. -1.
         23    2    1    2    0    0  0.35527136788E-14  0.00000000000E+00  0.00000000000E+00  0.91188000000E+02  0.91188000000E+02 0.  0.
    9900012    2    3    3    0    0  0.27831670151E+02  0.22732457689E+02  0.80256551664E+01  0.54367114122E+02  0.40000068264E+02 0.  0.
        -12    1    3    3    0    0 -0.27831670151E+02 -0.22732457689E+02 -0.80256551664E+01  0.36820885878E+02  0.00000000000E+00 0.  1.
         11    1    4    4    0    0 -0.56550873179E+01 -0.49157654405E+01  0.30455887449E+01  0.80882861907E+01  0.51100000000E-03 0. -1.
        -11    1    4    4    0    0  0.10174519119E+02  0.92627598628E+01  0.88172351100E+01  0.16342068254E+02  0.51100000000E-03 0.  1.
        -12    1    4    4    0    0  0.23312238350E+02  0.18385463266E+02 -0.38371686886E+01  0.29936759677E+02  0.00000000000E+00 0.  1.
</event>
<event>
 8    1  0.1269154E-006  0.9118800E+02  0.7816164E-02  0.1184000E+00
        -11   -1    0    0    0    0  0.00000000000E+00  0.00000000000E+00  0.45593999997E+02  0.45594000000E+02  0.51100000000E-03 0.  1.
         11   -1    0    0    0    0 -0.00000000000E+00 -0.00000000000E+00 -0.45593999997E+02  0.45594000000E+02  0.51100000000E-03 0. -1.
         23    2    1    2    0    0  0.00000000000E+00  0.35527136788E-14  0.00000000000E+00  0.91188000000E+02  0.91188000000E+02 0.  0.
    9900012    2    3    3    0    0  0.44169358302E+01 -0.16116843691E+02  0.32810336236E+02  0.54367080177E+02  0.39999990880E+02 0.  0.
         12    1    3    3    0    0 -0.44169358302E+01  0.16116843691E+02 -0.32810336236E+02  0.36820919823E+02  0.00000000000E+00 0. -1.
         11    1    4    4    0    0  0.12328614392E+00 -0.97492453944E+01  0.12632532269E+02  0.15957564257E+02  0.51100000000E-03 0. -1.
        -11    1    4    4    0    0  0.11770662581E+01  0.50607661328E+01  0.25063076032E+02  0.25595988343E+02  0.51100000000E-03 0.  1.
        -12    1    4    4    0    0  0.31165834282E+01 -0.11428364430E+02 -0.48852720654E+01  0.12813527576E+02  0.00000000000E+00 0.  1.
</event>
<event>
 8    1  0.1269154E-006  0.9118800E+02  0.7816164E-02  0.1184000E+00
        -11   -1    0    0    0    0  0.00000000000E+00  0.00000000000E+00  0.45593999997E+02  0.45594000000E+02  0.51100000000E-03 0. -1.
         11   -1    0    0    0    0 -0.00000000000E+00 -0.00000000000E+00 -0.45593999997E+02  0.45594000000E+02  0.51100000000E-03 0.  1.
         23    2    1    2    0    0  0.00000000000E+00  0.00000000000E+00 -0.17763568394E-14  0.91188000000E+02  0.91188000000E+02 0.  0.
    9900012    2    3    3    0    0 -0.19528552724E+02 -0.27303641384E+02  0.15130323537E+02  0.54367083463E+02  0.39999998370E+02 0.  0.
         12    1    3    3    0    0  0.19528552724E+02  0.27303641384E+02 -0.15130323537E+02  0.36820916537E+02  0.00000000000E+00 0. -1.
         11    1    4    4    0    0  0.46361025205E+01 -0.92658057756E+00  0.52967286010E+01  0.70998121300E+01  0.51100000000E-03 0. -1.
        -11    1    4    4    0    0 -0.12129130935E+02 -0.55488710591E+01 -0.95247942329E+01  0.16389859447E+02  0.51100000000E-03 0.  1.
        -12    1    4    4    0    0 -0.12035524309E+02 -0.20828189747E+02  0.19358389169E+02  0.30877411886E+02  0.00000000000E+00 0.  1.
</event>
<event>
 8    1  0.1269154E-006  0.9118800E+02  0.7816164E-02  0.1184000E+00
        -11   -1    0    0    0    0  0.00000000000E+00  0.00000000000E+00  0.45593999997E+02  0.45594000000E+02  0.51100000000E-03 0. -1.
         11   -1    0    0    0    0 -0.00000000000E+00 -0.00000000000E+00 -0.45593999997E+02  0.45594000000E+02  0.51100000000E-03 0.  1.
         23    2    1    2    0    0  0.00000000000E+00  0.00000000000E+00  0.00000000000E+00  0.91188000000E+02  0.91188000000E+02 0.  0.
    9900012    2    3    3    0    0  0.35298190766E+01 -0.17137216338E+02  0.32398099961E+02  0.54367072695E+02  0.39999973822E+02 0.  0.
        -12    1    3    3    0    0 -0.35298190766E+01  0.17137216338E+02 -0.32398099961E+02  0.36820927305E+02  0.00000000000E+00 0.  1.
         11    1    4    4    0    0 -0.14226196747E+00 -0.12642941634E+02  0.20689662697E+01  0.12811902018E+02  0.51100000000E-03 0. -1.
        -11    1    4    4    0    0  0.15590305997E+02 -0.51789216433E+01  0.16450013977E+02  0.23248265109E+02  0.51100000000E-03 0.  1.
         12    1    4    4    0    0 -0.11918224953E+02  0.68464693882E+00  0.13879119714E+02  0.18306905568E+02  0.00000000000E+00 0. -1.
</event>
<event>
 8    1  0.1269154E-006  0.9118800E+02  0.7816164E-02  0.1184000E+00
        -11   -1    0    0    0    0  0.00000000000E+00  0.00000000000E+00  0.45593999997E+02  0.45594000000E+02  0.51100000000E-03 0. -1.
         11   -1    0    0    0    0 -0.00000000000E+00 -0.00000000000E+00 -0.45593999997E+02  0.45594000000E+02  0.51100000000E-03 0.  1.
         23    2    1    2    0    0  0.00000000000E+00  0.00000000000E+00  0.88817841970E-15  0.91188000000E+02  0.91188000000E+02 0.  0.
    9900012    2    3    3    0    0 -0.10538383057E+02 -0.34541207021E+02  0.71852385264E+01  0.54367079960E+02  0.39999990385E+02 0.  0.
         12    1    3    3    0    0  0.10538383057E+02  0.34541207021E+02 -0.71852385264E+01  0.36820920040E+02  0.00000000000E+00 0. -1.
         11    1    4    4    0    0 -0.99469512568E+01 -0.93088581183E+01  0.59415363795E+01  0.14862655671E+02  0.51100000000E-03 0. -1.
        -11    1    4    4    0    0 -0.14046017749E+02 -0.45910968781E+01 -0.65846731846E+00  0.14791969599E+02  0.51100000000E-03 0.  1.
         12    1    4    4    0    0  0.13454585948E+02 -0.20641252024E+02  0.19021694654E+01  0.24712454691E+02  0.00000000000E+00 0. -1.
</event>
<event>
 8    1  0.1269154E-006  0.9118800E+02  0.7816164E-02  0.1184000E+00
        -11   -1    0    0    0    0  0.00000000000E+00  0.00000000000E+00  0.45593999997E+02  0.45594000000E+02  0.51100000000E-03 0. -1.
         11   -1    0    0    0    0 -0.00000000000E+00 -0.00000000000E+00 -0.45593999997E+02  0.45594000000E+02  0.51100000000E-03 0.  1.
         23    2    1    2    0    0  0.00000000000E+00  0.00000000000E+00 -0.71054273576E-14  0.91188000000E+02  0.91188000000E+02 0.  0.
    9900012    2    3    3    0    0  0.10808317785E+02  0.40382694014E+01  0.34966422701E+02  0.54367108245E+02  0.40000054867E+02 0.  0.
        -12    1    3    3    0    0 -0.10808317785E+02 -0.40382694014E+01 -0.34966422701E+02  0.36820891755E+02  0.00000000000E+00 0.  1.
         11    1    4    4    0    0  0.59670518006E+01 -0.11019946485E+02  0.15542827959E+02  0.19965581107E+02  0.51100000000E-03 0. -1.
        -11    1    4    4    0    0 -0.79672359948E+01 -0.79635030097E+00  0.57569690622E+01  0.98617298808E+01  0.51100000000E-03 0.  1.
        -12    1    4    4    0    0  0.12808501979E+02  0.15854566188E+02  0.13666625680E+02  0.24539797257E+02  0.00000000000E+00 0.  1.
</event>
<event>
 8    1  0.1269154E-006  0.9118800E+02  0.7816164E-02  0.1184000E+00
        -11   -1    0    0    0    0  0.00000000000E+00  0.00000000000E+00  0.45593999997E+02  0.45594000000E+02  0.51100000000E-03 0. -1.
         11   -1    0    0    0    0 -0.00000000000E+00 -0.00000000000E+00 -0.45593999997E+02  0.45594000000E+02  0.51100000000E-03 0.  1.
         23    2    1    2    0    0  0.00000000000E+00 -0.35527136788E-14 -0.35527136788E-14  0.91188000000E+02  0.91188000000E+02 0.  0.
    9900012    2    3    3    0    0  0.16038341126E+02  0.15138944215E+02  0.29484969827E+02  0.54367089315E+02  0.40000011711E+02 0.  0.
        -12    1    3    3    0    0 -0.16038341126E+02 -0.15138944215E+02 -0.29484969827E+02  0.36820910685E+02  0.00000000000E+00 0.  1.
         11    1    4    4    0    0  0.14492574287E+01 -0.94268464904E+01  0.10367886376E+02  0.14087542370E+02  0.51100000000E-03 0. -1.
        -11    1    4    4    0    0 -0.19372157929E+01  0.11307871483E+02 -0.39099085203E+00  0.11479269864E+02  0.51100000000E-03 0.  1.
         12    1    4    4    0    0  0.16526299490E+02  0.13257919222E+02  0.19508074303E+02  0.28800277081E+02  0.00000000000E+00 0. -1.
</event>
<event>
 8    1  0.1269154E-006  0.9118800E+02  0.7816164E-02  0.1184000E+00
        -11   -1    0    0    0    0  0.00000000000E+00  0.00000000000E+00  0.45593999997E+02  0.45594000000E+02  0.51100000000E-03 0.  1.
         11   -1    0    0    0    0 -0.00000000000E+00 -0.00000000000E+00 -0.45593999997E+02  0.45594000000E+02  0.51100000000E-03 0. -1.
         23    2    1    2    0    0  0.88817841970E-15 -0.35527136788E-14  0.00000000000E+00  0.91188000000E+02  0.91188000000E+02 0.  0.
    9900012    2    3    3    0    0  0.79415270370E+01  0.23050553262E+02  0.27593183819E+02  0.54367086776E+02  0.40000005923E+02 0.  0.
         12    1    3    3    0    0 -0.79415270370E+01 -0.23050553262E+02 -0.27593183819E+02  0.36820913224E+02  0.00000000000E+00 0. -1.
         11    1    4    4    0    0  0.12998580912E+02  0.12227096220E+02 -0.23047250311E+01  0.17993797415E+02  0.51100000000E-03 0.  1.
        -11    1    4    4    0    0 -0.10768461380E+02  0.49616143357E+01  0.22043630514E+02  0.25029962521E+02  0.51100000000E-03 0. -1.
         12    1    4    4    0    0  0.57114075052E+01  0.58618427067E+01  0.78542783364E+01  0.11343326840E+02  0.00000000000E+00 0. -1.
</event>
<event>
 8    1  0.1269154E-006  0.9118800E+02  0.7816164E-02  0.1184000E+00
        -11   -1    0    0    0    0  0.00000000000E+00  0.00000000000E+00  0.45593999997E+02  0.45594000000E+02  0.51100000000E-03 0.  1.
         11   -1    0    0    0    0 -0.00000000000E+00 -0.00000000000E+00 -0.45593999997E+02  0.45594000000E+02  0.51100000000E-03 0. -1.
         23    2    1    2    0    0  0.17763568394E-14 -0.26645352591E-14 -0.71054273576E-14  0.91188000000E+02  0.91188000000E+02 0.  0.
    9900012    2    3    3    0    0 -0.93596867297E+01  0.72624849863E+01  0.34863073651E+02  0.54367063995E+02  0.39999953990E+02 0.  0.
         12    1    3    3    0    0  0.93596867297E+01 -0.72624849863E+01 -0.34863073651E+02  0.36820936005E+02  0.00000000000E+00 0. -1.
         11    1    4    4    0    0 -0.60267269497E+01  0.95778350698E+01 -0.37396420407E+01  0.11918107451E+02  0.51100000000E-03 0. -1.
        -11    1    4    4    0    0  0.12848163427E+01 -0.90032088172E+01  0.15659236546E+02  0.18108567351E+02  0.51100000000E-03 0.  1.
        -12    1    4    4    0    0 -0.46177761227E+01  0.66878587337E+01  0.22943479146E+02  0.24340389193E+02  0.00000000000E+00 0.  1.
</event>
<event>
 8    1  0.1269154E-006  0.9118800E+02  0.7816164E-02  0.1184000E+00
        -11   -1    0    0    0    0  0.00000000000E+00  0.00000000000E+00  0.45593999997E+02  0.45594000000E+02  0.51100000000E-03 0. -1.
         11   -1    0    0    0    0 -0.00000000000E+00 -0.00000000000E+00 -0.45593999997E+02  0.45594000000E+02  0.51100000000E-03 0.  1.
         23    2    1    2    0    0  0.00000000000E+00  0.00000000000E+00  0.00000000000E+00  0.91188000000E+02  0.91188000000E+02 0.  0.
    9900012    2    3    3    0    0  0.12681845999E+01  0.25286309185E+02 -0.26735258659E+02  0.54367085020E+02  0.40000001921E+02 0.  0.
         12    1    3    3    0    0 -0.12681845999E+01 -0.25286309185E+02  0.26735258659E+02  0.36820914980E+02  0.00000000000E+00 0. -1.
         11    1    4    4    0    0  0.38570768936E+01  0.51685997796E+01  0.13903753235E+01  0.65973183678E+01  0.51100000000E-03 0. -1.
        -11    1    4    4    0    0  0.15402076559E+01 -0.64882901310E+01 -0.17669861401E+02  0.18886348261E+02  0.51100000000E-03 0.  1.
         12    1    4    4    0    0 -0.41290999496E+01  0.26605999536E+02 -0.10455772582E+02  0.28883418392E+02  0.00000000000E+00 0. -1.
</event>
<event>
 8    1  0.1269154E-006  0.9118800E+02  0.7816164E-02  0.1184000E+00
        -11   -1    0    0    0    0  0.00000000000E+00  0.00000000000E+00  0.45593999997E+02  0.45594000000E+02  0.51100000000E-03 0. -1.
         11   -1    0    0    0    0 -0.00000000000E+00 -0.00000000000E+00 -0.45593999997E+02  0.45594000000E+02  0.51100000000E-03 0.  1.
         23    2    1    2    0    0 -0.35527136788E-14  0.00000000000E+00 -0.88817841970E-15  0.91188000000E+02  0.91188000000E+02 0.  0.
    9900012    2    3    3    0    0 -0.27464232074E+02  0.23810411566E+02 -0.58789932871E+01  0.54367050739E+02  0.39999923770E+02 0.  0.
        -12    1    3    3    0    0  0.27464232074E+02 -0.23810411566E+02  0.58789932871E+01  0.36820949261E+02  0.00000000000E+00 0.  1.
         11    1    4    4    0    0  0.25497010728E+01 -0.12574942636E+01 -0.21307652583E+01  0.35528056843E+01  0.51100000000E-03 0. -1.
        -11    1    4    4    0    0  0.32184638976E+00 -0.67210579937E+01 -0.76813171277E+00  0.67724613135E+01  0.51100000000E-03 0.  1.
        -12    1    4    4    0    0 -0.30335779537E+02  0.31788963824E+02 -0.29800963160E+01  0.44041783742E+02  0.00000000000E+00 0.  1.
</event>
<event>
 8    1  0.1269154E-006  0.9118800E+02  0.7816164E-02  0.1184000E+00
        -11   -1    0    0    0    0  0.00000000000E+00  0.00000000000E+00  0.45593999997E+02  0.45594000000E+02  0.51100000000E-03 0.  1.
         11   -1    0    0    0    0 -0.00000000000E+00 -0.00000000000E+00 -0.45593999997E+02  0.45594000000E+02  0.51100000000E-03 0. -1.
         23    2    1    2    0    0  0.17763568394E-14 -0.71054273576E-14 -0.35527136788E-14  0.91188000000E+02  0.91188000000E+02 0.  0.
    9900012    2    3    3    0    0 -0.10217582839E+02  0.20294848398E+02  0.28974116396E+02  0.54367091653E+02  0.40000017041E+02 0.  0.
         12    1    3    3    0    0  0.10217582839E+02 -0.20294848398E+02 -0.28974116396E+02  0.36820908347E+02  0.00000000000E+00 0. -1.
         11    1    4    4    0    0  0.53542202548E+01  0.56237859238E+00  0.35325714682E+01  0.64391774053E+01  0.51100000000E-03 0. -1.
        -11    1    4    4    0    0  0.40217256860E+01 -0.25757923990E+01  0.16112855039E+02  0.16805745498E+02  0.51100000000E-03 0.  1.
         12    1    4    4    0    0 -0.19593528780E+02  0.22308262205E+02  0.93286898891E+01  0.31122168750E+02  0.00000000000E+00 0. -1.
</event>
<event>
 8    1  0.1269154E-006  0.9118800E+02  0.7816164E-02  0.1184000E+00
        -11   -1    0    0    0    0  0.00000000000E+00  0.00000000000E+00  0.45593999997E+02  0.45594000000E+02  0.51100000000E-03 0. -1.
         11   -1    0    0    0    0 -0.00000000000E+00 -0.00000000000E+00 -0.45593999997E+02  0.45594000000E+02  0.51100000000E-03 0.  1.
         23    2    1    2    0    0  0.35527136788E-14  0.00000000000E+00  0.71054273576E-14  0.91188000000E+02  0.91188000000E+02 0.  0.
    9900012    2    3    3    0    0 -0.18515469093E+02 -0.11714356255E+02 -0.29592713848E+02  0.54367116645E+02  0.40000074015E+02 0.  0.
         12    1    3    3    0    0  0.18515469093E+02  0.11714356255E+02  0.29592713848E+02  0.36820883355E+02  0.00000000000E+00 0. -1.
         11    1    4    4    0    0  0.66742208327E+01  0.41403779230E+01  0.12265337837E+01  0.79493608833E+01  0.51100000000E-03 0. -1.
        -11    1    4    4    0    0 -0.49135515306E+01  0.39384599528E+01 -0.68445759889E+01  0.93006814897E+01  0.51100000000E-03 0.  1.
        -12    1    4    4    0    0 -0.20276138395E+02 -0.19793194131E+02 -0.23974671643E+02  0.37117074272E+02  0.00000000000E+00 0.  1.
</event>
<event>
 8    1  0.1269154E-006  0.9118800E+02  0.7816164E-02  0.1184000E+00
        -11   -1    0    0    0    0  0.00000000000E+00  0.00000000000E+00  0.45593999997E+02  0.45594000000E+02  0.51100000000E-03 0.  1.
         11   -1    0    0    0    0 -0.00000000000E+00 -0.00000000000E+00 -0.45593999997E+02  0.45594000000E+02  0.51100000000E-03 0. -1.
         23    2    1    2    0    0 -0.17763568394E-14  0.00000000000E+00  0.00000000000E+00  0.91188000000E+02  0.91188000000E+02 0.  0.
    9900012    2    3    3    0    0  0.15748603241E+02 -0.13786354139E+02  0.30293483075E+02  0.54367120308E+02  0.40000082365E+02 0.  0.
         12    1    3    3    0    0 -0.15748603241E+02  0.13786354139E+02 -0.30293483075E+02  0.36820879692E+02  0.00000000000E+00 0. -1.
         11    1    4    4    0    0  0.85229812441E+01 -0.35834773101E+01 -0.28571390702E+01  0.96770740850E+01  0.51100000000E-03 0. -1.
        -11    1    4    4    0    0 -0.56546214119E+01 -0.75351610574E+01  0.29603740950E+02  0.31066619932E+02  0.51100000000E-03 0.  1.
        -12    1    4    4    0    0  0.12880243408E+02 -0.26677157719E+01  0.35468811953E+01  0.13623426291E+02  0.00000000000E+00 0.  1.
</event>
<event>
 8    1  0.1269154E-006  0.9118800E+02  0.7816164E-02  0.1184000E+00
        -11   -1    0    0    0    0  0.00000000000E+00  0.00000000000E+00  0.45593999997E+02  0.45594000000E+02  0.51100000000E-03 0. -1.
         11   -1    0    0    0    0 -0.00000000000E+00 -0.00000000000E+00 -0.45593999997E+02  0.45594000000E+02  0.51100000000E-03 0.  1.
         23    2    1    2    0    0 -0.22204460493E-15 -0.22204460493E-15  0.00000000000E+00  0.91188000000E+02  0.91188000000E+02 0.  0.
    9900012    2    3    3    0    0 -0.97535501776E+00 -0.15868886217E+01  0.36773863253E+02  0.54366993069E+02  0.39999792299E+02 0.  0.
        -12    1    3    3    0    0  0.97535501776E+00  0.15868886217E+01 -0.36773863253E+02  0.36821006931E+02  0.00000000000E+00 0.  1.
         11    1    4    4    0    0 -0.20500767298E+01 -0.26285090621E+01  0.33830996053E+02  0.33994825616E+02  0.51100000000E-03 0. -1.
        -11    1    4    4    0    0  0.19528029229E+00  0.71726021137E+01  0.91336526019E+01  0.11614988833E+02  0.51100000000E-03 0.  1.
        -12    1    4    4    0    0  0.87944141977E+00 -0.61309816733E+01 -0.61907854020E+01  0.87571786200E+01  0.00000000000E+00 0.  1.
</event>
<event>
 8    1  0.1269154E-006  0.9118800E+02  0.7816164E-02  0.1184000E+00
        -11   -1    0    0    0    0  0.00000000000E+00  0.00000000000E+00  0.45593999997E+02  0.45594000000E+02  0.51100000000E-03 0. -1.
         11   -1    0    0    0    0 -0.00000000000E+00 -0.00000000000E+00 -0.45593999997E+02  0.45594000000E+02  0.51100000000E-03 0.  1.
         23    2    1    2    0    0  0.11102230246E-14  0.00000000000E+00  0.00000000000E+00  0.91188000000E+02  0.91188000000E+02 0.  0.
    9900012    2    3    3    0    0 -0.93828195050E+00 -0.17698769255E+02  0.32274657390E+02  0.54367077744E+02  0.39999985332E+02 0.  0.
        -12    1    3    3    0    0  0.93828195050E+00  0.17698769255E+02 -0.32274657390E+02  0.36820922256E+02  0.00000000000E+00 0.  1.
         11    1    4    4    0    0 -0.12979961303E+02  0.33107086836E+01  0.68975498622E+01  0.15067062812E+02  0.51100000000E-03 0. -1.
        -11    1    4    4    0    0  0.28859426231E+01  0.12219329825E+01  0.10658231037E+02  0.11109440766E+02  0.51100000000E-03 0.  1.
        -12    1    4    4    0    0  0.91557367299E+01 -0.22231410921E+02  0.14718876491E+02  0.28190574165E+02  0.00000000000E+00 0.  1.
</event>
<event>
 8    1  0.1269154E-006  0.9118800E+02  0.7816164E-02  0.1184000E+00
        -11   -1    0    0    0    0  0.00000000000E+00  0.00000000000E+00  0.45593999997E+02  0.45594000000E+02  0.51100000000E-03 0.  1.
         11   -1    0    0    0    0 -0.00000000000E+00 -0.00000000000E+00 -0.45593999997E+02  0.45594000000E+02  0.51100000000E-03 0. -1.
         23    2    1    2    0    0  0.88817841970E-15  0.00000000000E+00 -0.17763568394E-14  0.91188000000E+02  0.91188000000E+02 0.  0.
    9900012    2    3    3    0    0 -0.78948034875E+01 -0.33875740937E+02  0.12078328434E+02  0.54367085238E+02  0.40000002417E+02 0.  0.
        -12    1    3    3    0    0  0.78948034875E+01  0.33875740937E+02 -0.12078328434E+02  0.36820914762E+02  0.00000000000E+00 0.  1.
         11    1    4    4    0    0 -0.10245520381E+02 -0.15557281289E+02 -0.74125845113E+01  0.20048593426E+02  0.51100000000E-03 0. -1.
        -11    1    4    4    0    0 -0.50086006666E+01 -0.18128754107E+02  0.19308163975E+02  0.26954461642E+02  0.51100000000E-03 0.  1.
        -12    1    4    4    0    0  0.73593175605E+01 -0.18970554209E+00  0.18274897067E+00  0.73640301694E+01  0.00000000000E+00 0.  1.
</event>
<event>
 8    1  0.1269154E-006  0.9118800E+02  0.7816164E-02  0.1184000E+00
        -11   -1    0    0    0    0  0.00000000000E+00  0.00000000000E+00  0.45593999997E+02  0.45594000000E+02  0.51100000000E-03 0.  1.
         11   -1    0    0    0    0 -0.00000000000E+00 -0.00000000000E+00 -0.45593999997E+02  0.45594000000E+02  0.51100000000E-03 0. -1.
         23    2    1    2    0    0 -0.35527136788E-14  0.35527136788E-14 -0.66613381478E-15  0.91188000000E+02  0.91188000000E+02 0.  0.
    9900012    2    3    3    0    0  0.31571952698E+02 -0.18903944672E+02 -0.12778586100E+01  0.54367078720E+02  0.39999987558E+02 0.  0.
        -12    1    3    3    0    0 -0.31571952698E+02  0.18903944672E+02  0.12778586100E+01  0.36820921280E+02  0.00000000000E+00 0.  1.
         11    1    4    4    0    0  0.10992496253E+02  0.54046746530E+01 -0.62711832138E+00  0.12265347921E+02  0.51100000000E-03 0. -1.
        -11    1    4    4    0    0  0.72099406204E+01 -0.25908058001E+02  0.52507401450E+01  0.27400382944E+02  0.51100000000E-03 0.  1.
        -12    1    4    4    0    0  0.13369515824E+02  0.15994386758E+01 -0.59014804337E+01  0.14701347855E+02  0.00000000000E+00 0.  1.
</event>
<event>
 8    1  0.1269154E-006  0.9118800E+02  0.7816164E-02  0.1184000E+00
        -11   -1    0    0    0    0  0.00000000000E+00  0.00000000000E+00  0.45593999997E+02  0.45594000000E+02  0.51100000000E-03 0. -1.
         11   -1    0    0    0    0 -0.00000000000E+00 -0.00000000000E+00 -0.45593999997E+02  0.45594000000E+02  0.51100000000E-03 0.  1.
         23    2    1    2    0    0 -0.35527136788E-14 -0.17763568394E-14  0.35527136788E-14  0.91188000000E+02  0.91188000000E+02 0.  0.
    9900012    2    3    3    0    0 -0.22176200596E+02  0.11654957526E+02 -0.26984510302E+02  0.54367004575E+02  0.39999818530E+02 0.  0.
         12    1    3    3    0    0  0.22176200596E+02 -0.11654957526E+02  0.26984510302E+02  0.36820995425E+02  0.00000000000E+00 0. -1.
         11    1    4    4    0    0 -0.38980070799E+01 -0.80280627746E+01  0.63203975551E+00  0.89467159127E+01  0.51100000000E-03 0. -1.
        -11    1    4    4    0    0 -0.22747976126E+02  0.11932374092E+02 -0.25564569859E+02  0.36240849903E+02  0.51100000000E-03 0.  1.
         12    1    4    4    0    0  0.44697826098E+01  0.77506462077E+01 -0.20519801983E+01  0.91794387601E+01  0.00000000000E+00 0. -1.
</event>
<event>
 8    1  0.1269154E-006  0.9118800E+02  0.7816164E-02  0.1184000E+00
        -11   -1    0    0    0    0  0.00000000000E+00  0.00000000000E+00  0.45593999997E+02  0.45594000000E+02  0.51100000000E-03 0.  1.
         11   -1    0    0    0    0 -0.00000000000E+00 -0.00000000000E+00 -0.45593999997E+02  0.45594000000E+02  0.51100000000E-03 0. -1.
         23    2    1    2    0    0 -0.88817841970E-15  0.00000000000E+00 -0.35527136788E-14  0.91188000000E+02  0.91188000000E+02 0.  0.
    9900012    2    3    3    0    0  0.52636122823E+01 -0.33040849323E+02 -0.15374522053E+02  0.54367091991E+02  0.40000017811E+02 0.  0.
         12    1    3    3    0    0 -0.52636122823E+01  0.33040849323E+02  0.15374522053E+02  0.36820908009E+02  0.00000000000E+00 0. -1.
         11    1    4    4    0    0  0.45407567162E+01 -0.18266679608E+02  0.70898608327E+01  0.20113582036E+02  0.51100000000E-03 0.  1.
        -11    1    4    4    0    0 -0.98959517744E+01 -0.62025503043E+01 -0.13843162577E+02  0.18111726649E+02  0.51100000000E-03 0. -1.
         12    1    4    4    0    0  0.10618807340E+02 -0.85716194117E+01 -0.86212203084E+01  0.16141783305E+02  0.00000000000E+00 0. -1.
</event>
<event>
 8    1  0.1269154E-006  0.9118800E+02  0.7816164E-02  0.1184000E+00
        -11   -1    0    0    0    0  0.00000000000E+00  0.00000000000E+00  0.45593999997E+02  0.45594000000E+02  0.51100000000E-03 0.  1.
         11   -1    0    0    0    0 -0.00000000000E+00 -0.00000000000E+00 -0.45593999997E+02  0.45594000000E+02  0.51100000000E-03 0. -1.
         23    2    1    2    0    0 -0.11102230246E-14  0.35527136788E-14  0.00000000000E+00  0.91188000000E+02  0.91188000000E+02 0.  0.
    9900012    2    3    3    0    0  0.13260014360E+01  0.26946784852E+02  0.25057659787E+02  0.54367166119E+02  0.40000186801E+02 0.  0.
         12    1    3    3    0    0 -0.13260014360E+01 -0.26946784852E+02 -0.25057659787E+02  0.36820833881E+02  0.00000000000E+00 0. -1.
         11    1    4    4    0    0  0.56743497489E+01 -0.19650000690E+01 -0.12952060258E+01  0.61430472288E+01  0.51100000000E-03 0. -1.
        -11    1    4    4    0    0 -0.12879358083E+02  0.49555449595E+01  0.40032364606E+01  0.14368757528E+02  0.51100000000E-03 0.  1.
        -12    1    4    4    0    0  0.85310097700E+01  0.23956239962E+02  0.22349629352E+02  0.33855361362E+02  0.00000000000E+00 0.  1.
</event>
<event>
 8    1  0.1269154E-006  0.9118800E+02  0.7816164E-02  0.1184000E+00
        -11   -1    0    0    0    0  0.00000000000E+00  0.00000000000E+00  0.45593999997E+02  0.45594000000E+02  0.51100000000E-03 0. -1.
         11   -1    0    0    0    0 -0.00000000000E+00 -0.00000000000E+00 -0.45593999997E+02  0.45594000000E+02  0.51100000000E-03 0.  1.
         23    2    1    2    0    0  0.00000000000E+00  0.00000000000E+00  0.35527136788E-14  0.91188000000E+02  0.91188000000E+02 0.  0.
    9900012    2    3    3    0    0 -0.23081373515E+02 -0.13128120158E+02  0.25508434460E+02  0.54367115018E+02  0.40000070308E+02 0.  0.
        -12    1    3    3    0    0  0.23081373515E+02  0.13128120158E+02 -0.25508434460E+02  0.36820884982E+02  0.00000000000E+00 0.  1.
         11    1    4    4    0    0  0.65896723985E+00 -0.47455824807E+01  0.25555772123E+02  0.26001005364E+02  0.51100000000E-03 0. -1.
        -11    1    4    4    0    0 -0.22467582223E+02 -0.38920977577E+01  0.26818986419E+01  0.22959382755E+02  0.51100000000E-03 0.  1.
        -12    1    4    4    0    0 -0.12727585310E+01 -0.44904399201E+01 -0.27292363044E+01  0.54067268989E+01  0.00000000000E+00 0.  1.
</event>
<event>
 8    1  0.1269154E-006  0.9118800E+02  0.7816164E-02  0.1184000E+00
        -11   -1    0    0    0    0  0.00000000000E+00  0.00000000000E+00  0.45593999997E+02  0.45594000000E+02  0.51100000000E-03 0. -1.
         11   -1    0    0    0    0 -0.00000000000E+00 -0.00000000000E+00 -0.45593999997E+02  0.45594000000E+02  0.51100000000E-03 0.  1.
         23    2    1    2    0    0  0.00000000000E+00  0.35527136788E-14  0.71054273576E-14  0.91188000000E+02  0.91188000000E+02 0.  0.
    9900012    2    3    3    0    0  0.11667119629E+02 -0.18684551931E+02 -0.29505012618E+02  0.54367082971E+02  0.39999997249E+02 0.  0.
         12    1    3    3    0    0 -0.11667119629E+02  0.18684551931E+02  0.29505012618E+02  0.36820917029E+02  0.00000000000E+00 0. -1.
         11    1    4    4    0    0 -0.10021356811E+02 -0.15735829198E+02 -0.17781533736E+02  0.25772598921E+02  0.51100000000E-03 0. -1.
        -11    1    4    4    0    0 -0.12322431551E+01  0.94700096376E+00  0.12282721503E+01  0.19808802980E+01  0.51100000000E-03 0.  1.
        -12    1    4    4    0    0  0.22920719595E+02 -0.38957236966E+01 -0.12951751032E+02  0.26613603752E+02  0.00000000000E+00 0.  1.
</event>
<event>
 8    1  0.1269154E-006  0.9118800E+02  0.7816164E-02  0.1184000E+00
        -11   -1    0    0    0    0  0.00000000000E+00  0.00000000000E+00  0.45593999997E+02  0.45594000000E+02  0.51100000000E-03 0. -1.
         11   -1    0    0    0    0 -0.00000000000E+00 -0.00000000000E+00 -0.45593999997E+02  0.45594000000E+02  0.51100000000E-03 0.  1.
         23    2    1    2    0    0  0.00000000000E+00 -0.71054273576E-14  0.88817841970E-15  0.91188000000E+02  0.91188000000E+02 0.  0.
    9900012    2    3    3    0    0 -0.14634957612E+02  0.33045070166E+02 -0.70442262184E+01  0.54367085160E+02  0.40000002240E+02 0.  0.
         12    1    3    3    0    0  0.14634957612E+02 -0.33045070166E+02  0.70442262184E+01  0.36820914840E+02  0.00000000000E+00 0. -1.
         11    1    4    4    0    0 -0.12989617465E+01  0.57990554557E+01  0.13045818645E+01  0.60842649432E+01  0.51100000000E-03 0. -1.
        -11    1    4    4    0    0 -0.21133113564E+02  0.21272660175E+01 -0.43238533328E+01  0.21675549762E+02  0.51100000000E-03 0.  1.
         12    1    4    4    0    0  0.77971176981E+01  0.25118748693E+02 -0.40249547501E+01  0.26607270455E+02  0.00000000000E+00 0. -1.
</event>
<event>
 8    1  0.1269154E-006  0.9118800E+02  0.7816164E-02  0.1184000E+00
        -11   -1    0    0    0    0  0.00000000000E+00  0.00000000000E+00  0.45593999997E+02  0.45594000000E+02  0.51100000000E-03 0. -1.
         11   -1    0    0    0    0 -0.00000000000E+00 -0.00000000000E+00 -0.45593999997E+02  0.45594000000E+02  0.51100000000E-03 0.  1.
         23    2    1    2    0    0 -0.35527136788E-14 -0.11102230246E-14  0.00000000000E+00  0.91188000000E+02  0.91188000000E+02 0.  0.
    9900012    2    3    3    0    0  0.29017252767E+02  0.52604724833E+00  0.22660576544E+02  0.54367090001E+02  0.40000013275E+02 0.  0.
        -12    1    3    3    0    0 -0.29017252767E+02 -0.52604724833E+00 -0.22660576544E+02  0.36820909999E+02  0.00000000000E+00 0.  1.
         11    1    4    4    0    0  0.10857834031E+02  0.16110778627E+02  0.14349317156E+02  0.24152694485E+02  0.51100000000E-03 0. -1.
        -11    1    4    4    0    0  0.53347335748E+00 -0.17629943354E+01  0.75830820373E+01  0.78035809918E+01  0.51100000000E-03 0.  1.
        -12    1    4    4    0    0  0.17625945378E+02 -0.13821737043E+02  0.72817735150E+00  0.22410814524E+02  0.00000000000E+00 0.  1.
</event>
<event>
 8    1  0.1269154E-006  0.9118800E+02  0.7816164E-02  0.1184000E+00
        -11   -1    0    0    0    0  0.00000000000E+00  0.00000000000E+00  0.45593999997E+02  0.45594000000E+02  0.51100000000E-03 0. -1.
         11   -1    0    0    0    0 -0.00000000000E+00 -0.00000000000E+00 -0.45593999997E+02  0.45594000000E+02  0.51100000000E-03 0.  1.
         23    2    1    2    0    0  0.17763568394E-14  0.00000000000E+00 -0.88817841970E-15  0.91188000000E+02  0.91188000000E+02 0.  0.
    9900012    2    3    3    0    0 -0.12534641262E+02  0.34389148142E+02  0.40061365053E+01  0.54367083781E+02  0.39999999096E+02 0.  0.
        -12    1    3    3    0    0  0.12534641262E+02 -0.34389148142E+02 -0.40061365053E+01  0.36820916219E+02  0.00000000000E+00 0.  1.
         11    1    4    4    0    0 -0.15351074393E+02  0.25858803870E+02  0.19722964508E+01  0.30136741299E+02  0.51100000000E-03 0.  1.
        -11    1    4    4    0    0 -0.35650999997E+01  0.51122461795E+01 -0.90519799609E+01  0.10990147428E+02  0.51100000000E-03 0. -1.
        -12    1    4    4    0    0  0.63815331304E+01  0.34180980925E+01  0.11085820015E+02  0.13240195054E+02  0.00000000000E+00 0.  1.
</event>
<event>
 8    1  0.1269154E-006  0.9118800E+02  0.7816164E-02  0.1184000E+00
        -11   -1    0    0    0    0  0.00000000000E+00  0.00000000000E+00  0.45593999997E+02  0.45594000000E+02  0.51100000000E-03 0. -1.
         11   -1    0    0    0    0 -0.00000000000E+00 -0.00000000000E+00 -0.45593999997E+02  0.45594000000E+02  0.51100000000E-03 0.  1.
         23    2    1    2    0    0  0.00000000000E+00  0.00000000000E+00  0.35527136788E-14  0.91188000000E+02  0.91188000000E+02 0.  0.
    9900012    2    3    3    0    0  0.14356998493E+02 -0.27262012298E+02 -0.20160350883E+02  0.54367075678E+02  0.39999980622E+02 0.  0.
         12    1    3    3    0    0 -0.14356998493E+02  0.27262012298E+02  0.20160350883E+02  0.36820924322E+02  0.00000000000E+00 0. -1.
         11    1    4    4    0    0  0.92528525960E+01 -0.20730484453E+00 -0.17967160001E+02  0.20210816293E+02  0.51100000000E-03 0. -1.
        -11    1    4    4    0    0  0.19889541856E+01 -0.29013755274E+02 -0.50250567318E+01  0.29512796026E+02  0.51100000000E-03 0.  1.
         12    1    4    4    0    0  0.31151917113E+01  0.19590478211E+01  0.28318658506E+01  0.46434633583E+01  0.00000000000E+00 0. -1.
</event>
<event>
 8    1  0.1269154E-006  0.9118800E+02  0.7816164E-02  0.1184000E+00
        -11   -1    0    0    0    0  0.00000000000E+00  0.00000000000E+00  0.45593999997E+02  0.45594000000E+02  0.51100000000E-03 0.  1.
         11   -1    0    0    0    0 -0.00000000000E+00 -0.00000000000E+00 -0.45593999997E+02  0.45594000000E+02  0.51100000000E-03 0. -1.
         23    2    1    2    0    0 -0.26645352591E-14  0.00000000000E+00  0.44408920985E-15  0.91188000000E+02  0.91188000000E+02 0.  0.
    9900012    2    3    3    0    0 -0.53477686939E+01 -0.36392000079E+02 -0.16739575172E+01  0.54367103304E+02  0.40000043602E+02 0.  0.
        -12    1    3    3    0    0  0.53477686939E+01  0.36392000079E+02  0.16739575172E+01  0.36820896696E+02  0.00000000000E+00 0.  1.
         11    1    4    4    0    0 -0.19164665202E+02 -0.30555661413E+02  0.34471651812E+01  0.36232799847E+02  0.51100000000E-03 0. -1.
        -11    1    4    4    0    0  0.32549658602E+01  0.20698881445E+01 -0.27309953668E+01  0.47262644484E+01  0.51100000000E-03 0.  1.
         12    1    4    4    0    0  0.10561930648E+02 -0.79062268101E+01 -0.23901273316E+01  0.13408039008E+02  0.00000000000E+00 0. -1.
</event>
<event>
 8    1  0.1269154E-006  0.9118800E+02  0.7816164E-02  0.1184000E+00
        -11   -1    0    0    0    0  0.00000000000E+00  0.00000000000E+00  0.45593999997E+02  0.45594000000E+02  0.51100000000E-03 0. -1.
         11   -1    0    0    0    0 -0.00000000000E+00 -0.00000000000E+00 -0.45593999997E+02  0.45594000000E+02  0.51100000000E-03 0.  1.
         23    2    1    2    0    0  0.00000000000E+00  0.00000000000E+00 -0.35527136788E-14  0.91188000000E+02  0.91188000000E+02 0.  0.
    9900012    2    3    3    0    0  0.73406651697E+01  0.22680481766E+02 -0.28062251412E+02  0.54367087836E+02  0.40000008340E+02 0.  0.
         12    1    3    3    0    0 -0.73406651697E+01 -0.22680481766E+02  0.28062251412E+02  0.36820912164E+02  0.00000000000E+00 0. -1.
         11    1    4    4    0    0  0.60808269179E+00 -0.12881672600E+01  0.22846742877E+01  0.26923737318E+01  0.51100000000E-03 0. -1.
        -11    1    4    4    0    0 -0.43544901253E+00  0.24495667365E+02 -0.35283542399E+02  0.42955275578E+02  0.51100000000E-03 0.  1.
        -12    1    4    4    0    0  0.71680314904E+01 -0.52701833934E+00  0.49366166993E+01  0.87194385263E+01  0.00000000000E+00 0.  1.
</event>
<event>
 8    1  0.1269154E-006  0.9118800E+02  0.7816164E-02  0.1184000E+00
        -11   -1    0    0    0    0  0.00000000000E+00  0.00000000000E+00  0.45593999997E+02  0.45594000000E+02  0.51100000000E-03 0.  1.
         11   -1    0    0    0    0 -0.00000000000E+00 -0.00000000000E+00 -0.45593999997E+02  0.45594000000E+02  0.51100000000E-03 0. -1.
         23    2    1    2    0    0  0.00000000000E+00  0.00000000000E+00  0.88817841970E-15  0.91188000000E+02  0.91188000000E+02 0.  0.
    9900012    2    3    3    0    0  0.18463804935E+02 -0.31077091323E+02  0.70058835062E+01  0.54367080654E+02  0.39999991967E+02 0.  0.
         12    1    3    3    0    0 -0.18463804935E+02  0.31077091323E+02 -0.70058835062E+01  0.36820919346E+02  0.00000000000E+00 0. -1.
         11    1    4    4    0    0  0.15568165882E+02 -0.14159440789E+02  0.50672527104E+01  0.21645660135E+02  0.51100000000E-03 0. -1.
        -11    1    4    4    0    0  0.61932059374E+01 -0.20150754514E+02 -0.73683946471E+01  0.22331635569E+02  0.51100000000E-03 0.  1.
         12    1    4    4    0    0 -0.32975668849E+01  0.32331039799E+01  0.93070254429E+01  0.10389784950E+02  0.00000000000E+00 0. -1.
</event>
<event>
 8    1  0.1269154E-006  0.9118800E+02  0.7816164E-02  0.1184000E+00
        -11   -1    0    0    0    0  0.00000000000E+00  0.00000000000E+00  0.45593999997E+02  0.45594000000E+02  0.51100000000E-03 0. -1.
         11   -1    0    0    0    0 -0.00000000000E+00 -0.00000000000E+00 -0.45593999997E+02  0.45594000000E+02  0.51100000000E-03 0.  1.
         23    2    1    2    0    0  0.00000000000E+00  0.00000000000E+00  0.00000000000E+00  0.91188000000E+02  0.91188000000E+02 0.  0.
    9900012    2    3    3    0    0 -0.17882851913E+02  0.23835920228E+02 -0.21629446007E+02  0.54367076326E+02  0.39999982100E+02 0.  0.
         12    1    3    3    0    0  0.17882851913E+02 -0.23835920228E+02  0.21629446007E+02  0.36820923674E+02  0.00000000000E+00 0. -1.
         11    1    4    4    0    0  0.29477600258E+01 -0.56052941642E+01  0.19888962344E+01  0.66380961374E+01  0.51100000000E-03 0. -1.
        -11    1    4    4    0    0 -0.17552890682E+02  0.19683363339E+02 -0.26138146860E+02  0.37131408338E+02  0.51100000000E-03 0.  1.
        -12    1    4    4    0    0 -0.32777212568E+01  0.97578510531E+01  0.25198046182E+01  0.10597571850E+02  0.00000000000E+00 0.  1.
</event>
<event>
 8    1  0.1269154E-006  0.9118800E+02  0.7816164E-02  0.1184000E+00
        -11   -1    0    0    0    0  0.00000000000E+00  0.00000000000E+00  0.45593999997E+02  0.45594000000E+02  0.51100000000E-03 0. -1.
         11   -1    0    0    0    0 -0.00000000000E+00 -0.00000000000E+00 -0.45593999997E+02  0.45594000000E+02  0.51100000000E-03 0.  1.
         23    2    1    2    0    0 -0.35527136788E-14 -0.17763568394E-14 -0.35527136788E-14  0.91188000000E+02  0.91188000000E+02 0.  0.
    9900012    2    3    3    0    0 -0.18266934282E+02  0.98692817678E+01 -0.30408818410E+02  0.54367084099E+02  0.39999999821E+02 0.  0.
         12    1    3    3    0    0  0.18266934282E+02 -0.98692817678E+01  0.30408818410E+02  0.36820915901E+02  0.00000000000E+00 0. -1.
         11    1    4    4    0    0  0.20846749154E+01 -0.39225534089E+00  0.13983308340E+01  0.25406816286E+01  0.51100000000E-03 0. -1.
        -11    1    4    4    0    0 -0.12794977443E+02  0.18075563313E+02 -0.47251850115E+01  0.22644310776E+02  0.51100000000E-03 0.  1.
        -12    1    4    4    0    0 -0.75566317541E+01 -0.78140262041E+01 -0.27081964233E+02  0.29182091695E+02  0.00000000000E+00 0.  1.
</event>
<event>
 8    1  0.1269154E-006  0.9118800E+02  0.7816164E-02  0.1184000E+00
        -11   -1    0    0    0    0  0.00000000000E+00  0.00000000000E+00  0.45593999997E+02  0.45594000000E+02  0.51100000000E-03 0. -1.
         11   -1    0    0    0    0 -0.00000000000E+00 -0.00000000000E+00 -0.45593999997E+02  0.45594000000E+02  0.51100000000E-03 0.  1.
         23    2    1    2    0    0  0.00000000000E+00 -0.17763568394E-14  0.00000000000E+00  0.91188000000E+02  0.91188000000E+02 0.  0.
    9900012    2    3    3    0    0  0.24615107852E+02  0.11796229831E+02 -0.24712896743E+02  0.54367057070E+02  0.39999938203E+02 0.  0.
         12    1    3    3    0    0 -0.24615107852E+02 -0.11796229831E+02  0.24712896743E+02  0.36820942930E+02  0.00000000000E+00 0. -1.
         11    1    4    4    0    0  0.40542897438E+01  0.21446563773E+02 -0.12074234501E+02  0.24943526255E+02  0.51100000000E-03 0. -1.
        -11    1    4    4    0    0  0.12415309707E+02 -0.32409930646E+00 -0.11605366235E+02  0.16997925791E+02  0.51100000000E-03 0.  1.
         12    1    4    4    0    0  0.81455084015E+01 -0.93262346354E+01 -0.10332960069E+01  0.12425605025E+02  0.00000000000E+00 0. -1.
</event>
<event>
 8    1  0.1269154E-006  0.9118800E+02  0.7816164E-02  0.1184000E+00
        -11   -1    0    0    0    0  0.00000000000E+00  0.00000000000E+00  0.45593999997E+02  0.45594000000E+02  0.51100000000E-03 0.  1.
         11   -1    0    0    0    0 -0.00000000000E+00 -0.00000000000E+00 -0.45593999997E+02  0.45594000000E+02  0.51100000000E-03 0. -1.
         23    2    1    2    0    0  0.00000000000E+00 -0.35527136788E-14  0.17763568394E-14  0.91188000000E+02  0.91188000000E+02 0.  0.
    9900012    2    3    3    0    0 -0.26007156347E+02 -0.25466694056E+02  0.55545491720E+01  0.54367113212E+02  0.40000066189E+02 0.  0.
        -12    1    3    3    0    0  0.26007156347E+02  0.25466694056E+02 -0.55545491720E+01  0.36820886788E+02  0.00000000000E+00 0.  1.
         11    1    4    4    0    0 -0.18306121759E+02 -0.95139464779E+01 -0.11012694597E+02  0.23386079491E+02  0.51100000000E-03 0. -1.
        -11    1    4    4    0    0 -0.10620147018E+02 -0.15996854143E+02  0.61494601247E+01  0.20161912738E+02  0.51100000000E-03 0.  1.
        -12    1    4    4    0    0  0.29191124301E+01  0.44106565404E-01  0.10417783644E+02  0.10819120982E+02  0.00000000000E+00 0.  1.
</event>
<event>
 8    1  0.1269154E-006  0.9118800E+02  0.7816164E-02  0.1184000E+00
        -11   -1    0    0    0    0  0.00000000000E+00  0.00000000000E+00  0.45593999997E+02  0.45594000000E+02  0.51100000000E-03 0. -1.
         11   -1    0    0    0    0 -0.00000000000E+00 -0.00000000000E+00 -0.45593999997E+02  0.45594000000E+02  0.51100000000E-03 0.  1.
         23    2    1    2    0    0  0.00000000000E+00  0.00000000000E+00  0.22204460493E-15  0.91188000000E+02  0.91188000000E+02 0.  0.
    9900012    2    3    3    0    0  0.33355384537E+02  0.15545396481E+02 -0.12405418555E+01  0.54367082392E+02  0.39999995929E+02 0.  0.
        -12    1    3    3    0    0 -0.33355384537E+02 -0.15545396481E+02  0.12405418555E+01  0.36820917608E+02  0.00000000000E+00 0.  1.
         11    1    4    4    0    0  0.18415977602E+01 -0.39516044968E+01  0.13124987487E+01  0.45529455999E+01  0.51100000000E-03 0. -1.
        -11    1    4    4    0    0  0.27224232335E+00 -0.28508461626E+01 -0.10246801195E+02  0.10639472483E+02  0.51100000000E-03 0.  1.
         12    1    4    4    0    0  0.31241544454E+02  0.22347847141E+02  0.76937605908E+01  0.39174664309E+02  0.00000000000E+00 0. -1.
</event>
<event>
 8    1  0.1269154E-006  0.9118800E+02  0.7816164E-02  0.1184000E+00
        -11   -1    0    0    0    0  0.00000000000E+00  0.00000000000E+00  0.45593999997E+02  0.45594000000E+02  0.51100000000E-03 0. -1.
         11   -1    0    0    0    0 -0.00000000000E+00 -0.00000000000E+00 -0.45593999997E+02  0.45594000000E+02  0.51100000000E-03 0.  1.
         23    2    1    2    0    0  0.00000000000E+00  0.00000000000E+00  0.00000000000E+00  0.91188000000E+02  0.91188000000E+02 0.  0.
    9900012    2    3    3    0    0 -0.50744083674E+01  0.94647666701E+01 -0.35219993234E+02  0.54367090834E+02  0.40000015174E+02 0.  0.
         12    1    3    3    0    0  0.50744083674E+01 -0.94647666701E+01  0.35219993234E+02  0.36820909166E+02  0.00000000000E+00 0. -1.
         11    1    4    4    0    0 -0.92028401312E+00  0.92569356090E+01 -0.12299301124E+02  0.15421108519E+02  0.51100000000E-03 0. -1.
        -11    1    4    4    0    0 -0.57936506319E+01  0.14545805516E+02 -0.17621183663E+02  0.23572292203E+02  0.51100000000E-03 0.  1.
         12    1    4    4    0    0  0.16395262776E+01 -0.14337974455E+02 -0.52995084472E+01  0.15373690112E+02  0.00000000000E+00 0. -1.
</event>
<event>
 8    1  0.1269154E-006  0.9118800E+02  0.7816164E-02  0.1184000E+00
        -11   -1    0    0    0    0  0.00000000000E+00  0.00000000000E+00  0.45593999997E+02  0.45594000000E+02  0.51100000000E-03 0.  1.
         11   -1    0    0    0    0 -0.00000000000E+00 -0.00000000000E+00 -0.45593999997E+02  0.45594000000E+02  0.51100000000E-03 0. -1.
         23    2    1    2    0    0  0.11102230246E-15 -0.17763568394E-14 -0.71054273576E-14  0.91188000000E+02  0.91188000000E+02 0.  0.
    9900012    2    3    3    0    0 -0.70767344826E+00  0.94006834116E+01  0.35593624033E+02  0.54367085805E+02  0.40000003711E+02 0.  0.
         12    1    3    3    0    0  0.70767344826E+00 -0.94006834116E+01 -0.35593624033E+02  0.36820914195E+02  0.00000000000E+00 0. -1.
         11    1    4    4    0    0  0.59036093942E+00  0.20609339918E+01  0.75888151393E+01  0.78858157749E+01  0.51100000000E-03 0. -1.
        -11    1    4    4    0    0 -0.22048032849E+01 -0.10282322880E+02  0.26806302207E+02  0.28795228070E+02  0.51100000000E-03 0.  1.
         12    1    4    4    0    0  0.90676889721E+00  0.17622072299E+02  0.11985066872E+01  0.17686041961E+02  0.00000000000E+00 0. -1.
</event>
<event>
 8    1  0.1269154E-006  0.9118800E+02  0.7816164E-02  0.1184000E+00
        -11   -1    0    0    0    0  0.00000000000E+00  0.00000000000E+00  0.45593999997E+02  0.45594000000E+02  0.51100000000E-03 0.  1.
         11   -1    0    0    0    0 -0.00000000000E+00 -0.00000000000E+00 -0.45593999997E+02  0.45594000000E+02  0.51100000000E-03 0. -1.
         23    2    1    2    0    0  0.00000000000E+00  0.00000000000E+00  0.00000000000E+00  0.91188000000E+02  0.91188000000E+02 0.  0.
    9900012    2    3    3    0    0  0.34285357727E+02  0.10080863210E+02  0.88693558616E+01  0.54367149508E+02  0.40000148934E+02 0.  0.
         12    1    3    3    0    0 -0.34285357727E+02 -0.10080863210E+02 -0.88693558616E+01  0.36820850492E+02  0.00000000000E+00 0. -1.
         11    1    4    4    0    0  0.14056348551E+02 -0.57789737352E-01 -0.64591799103E+01  0.15469495131E+02  0.51100000000E-03 0. -1.
        -11    1    4    4    0    0  0.13831467686E+02 -0.48528916953E+01  0.17076313300E+02  0.22504678010E+02  0.51100000000E-03 0.  1.
        -12    1    4    4    0    0  0.63975414906E+01  0.14991544642E+02 -0.17477775283E+01  0.16392976367E+02  0.00000000000E+00 0.  1.
</event>
<event>
 8    1  0.1269154E-006  0.9118800E+02  0.7816164E-02  0.1184000E+00
        -11   -1    0    0    0    0  0.00000000000E+00  0.00000000000E+00  0.45593999997E+02  0.45594000000E+02  0.51100000000E-03 0.  1.
         11   -1    0    0    0    0 -0.00000000000E+00 -0.00000000000E+00 -0.45593999997E+02  0.45594000000E+02  0.51100000000E-03 0. -1.
         23    2    1    2    0    0  0.00000000000E+00  0.00000000000E+00 -0.88817841970E-15  0.91188000000E+02  0.91188000000E+02 0.  0.
    9900012    2    3    3    0    0 -0.36125299424E+02  0.15051145105E+01  0.69627730306E+01  0.54367043515E+02  0.39999907302E+02 0.  0.
         12    1    3    3    0    0  0.36125299424E+02 -0.15051145105E+01 -0.69627730306E+01  0.36820956485E+02  0.00000000000E+00 0. -1.
         11    1    4    4    0    0 -0.20046026579E+02  0.18398076316E+01 -0.71819375407E+01  0.21373074201E+02  0.51100000000E-03 0. -1.
        -11    1    4    4    0    0 -0.20704906558E+02 -0.35611732891E+01  0.39990296279E+01  0.21386148531E+02  0.51100000000E-03 0.  1.
         12    1    4    4    0    0  0.46256337126E+01  0.32264801679E+01  0.10145680943E+02  0.11607820783E+02  0.00000000000E+00 0. -1.
</event>
<event>
 8    1  0.1269154E-006  0.9118800E+02  0.7816164E-02  0.1184000E+00
        -11   -1    0    0    0    0  0.00000000000E+00  0.00000000000E+00  0.45593999997E+02  0.45594000000E+02  0.51100000000E-03 0.  1.
         11   -1    0    0    0    0 -0.00000000000E+00 -0.00000000000E+00 -0.45593999997E+02  0.45594000000E+02  0.51100000000E-03 0. -1.
         23    2    1    2    0    0 -0.35527136788E-14  0.22204460493E-15 -0.35527136788E-14  0.91188000000E+02  0.91188000000E+02 0.  0.
    9900012    2    3    3    0    0  0.30340308298E+02 -0.36682194087E+00 -0.20859304614E+02  0.54367089434E+02  0.40000011982E+02 0.  0.
        -12    1    3    3    0    0 -0.30340308298E+02  0.36682194087E+00  0.20859304614E+02  0.36820910566E+02  0.00000000000E+00 0.  1.
         11    1    4    4    0    0 -0.58960978057E+01 -0.23886303728E+01 -0.90616612157E+01  0.11071731059E+02  0.51100000000E-03 0. -1.
        -11    1    4    4    0    0  0.18751267693E+01 -0.69537867781E+00  0.46809828467E+01  0.50903096742E+01  0.51100000000E-03 0.  1.
         12    1    4    4    0    0  0.34361279335E+02  0.27171871097E+01 -0.16478626245E+02  0.38205048701E+02  0.00000000000E+00 0. -1.
</event>
<event>
 8    1  0.1269154E-006  0.9118800E+02  0.7816164E-02  0.1184000E+00
        -11   -1    0    0    0    0  0.00000000000E+00  0.00000000000E+00  0.45593999997E+02  0.45594000000E+02  0.51100000000E-03 0. -1.
         11   -1    0    0    0    0 -0.00000000000E+00 -0.00000000000E+00 -0.45593999997E+02  0.45594000000E+02  0.51100000000E-03 0.  1.
         23    2    1    2    0    0 -0.53290705182E-14  0.00000000000E+00  0.00000000000E+00  0.91188000000E+02  0.91188000000E+02 0.  0.
    9900012    2    3    3    0    0 -0.89719041934E+01  0.15337491304E+02  0.32249785576E+02  0.54367049794E+02  0.39999921616E+02 0.  0.
        -12    1    3    3    0    0  0.89719041934E+01 -0.15337491304E+02 -0.32249785576E+02  0.36820950206E+02  0.00000000000E+00 0.  1.
         11    1    4    4    0    0 -0.15664026433E+01  0.13202349069E+01  0.47078504357E+01  0.51342471149E+01  0.51100000000E-03 0. -1.
        -11    1    4    4    0    0  0.90335861106E+01  0.10084222531E+02 -0.34141125614E+01  0.13962570928E+02  0.51100000000E-03 0.  1.
        -12    1    4    4    0    0 -0.16439087661E+02  0.39330338657E+01  0.30956047701E+02  0.35270231751E+02  0.00000000000E+00 0.  1.
</event>
<event>
 8    1  0.1269154E-006  0.9118800E+02  0.7816164E-02  0.1184000E+00
        -11   -1    0    0    0    0  0.00000000000E+00  0.00000000000E+00  0.45593999997E+02  0.45594000000E+02  0.51100000000E-03 0.  1.
         11   -1    0    0    0    0 -0.00000000000E+00 -0.00000000000E+00 -0.45593999997E+02  0.45594000000E+02  0.51100000000E-03 0. -1.
         23    2    1    2    0    0  0.00000000000E+00 -0.35527136788E-14  0.35527136788E-14  0.91188000000E+02  0.91188000000E+02 0.  0.
    9900012    2    3    3    0    0  0.83487086288E+01 -0.19238654014E+02  0.30264717644E+02  0.54367083687E+02  0.39999998881E+02 0.  0.
         12    1    3    3    0    0 -0.83487086288E+01  0.19238654014E+02 -0.30264717644E+02  0.36820916313E+02  0.00000000000E+00 0. -1.
         11    1    4    4    0    0  0.53208450579E+01 -0.20822560961E+02  0.30038590711E+02  0.36935177937E+02  0.51100000000E-03 0. -1.
        -11    1    4    4    0    0  0.68407963111E+00  0.71603494165E+01  0.57742254991E+01  0.92238955482E+01  0.51100000000E-03 0.  1.
         12    1    4    4    0    0  0.23437839399E+01 -0.55764424698E+01 -0.55480985654E+01  0.82080102014E+01  0.00000000000E+00 0. -1.
</event>
<event>
 8    1  0.1269154E-006  0.9118800E+02  0.7816164E-02  0.1184000E+00
        -11   -1    0    0    0    0  0.00000000000E+00  0.00000000000E+00  0.45593999997E+02  0.45594000000E+02  0.51100000000E-03 0. -1.
         11   -1    0    0    0    0 -0.00000000000E+00 -0.00000000000E+00 -0.45593999997E+02  0.45594000000E+02  0.51100000000E-03 0.  1.
         23    2    1    2    0    0  0.00000000000E+00  0.17763568394E-14 -0.35527136788E-14  0.91188000000E+02  0.91188000000E+02 0.  0.
    9900012    2    3    3    0    0  0.31454177428E+02 -0.13122421258E+02  0.13936147189E+02  0.54367089964E+02  0.40000013192E+02 0.  0.
         12    1    3    3    0    0 -0.31454177428E+02  0.13122421258E+02 -0.13936147189E+02  0.36820910036E+02  0.00000000000E+00 0. -1.
         11    1    4    4    0    0  0.12974116523E+02  0.12434801544E+02 -0.11048419622E+01  0.18004795611E+02  0.51100000000E-03 0. -1.
        -11    1    4    4    0    0  0.62821875668E+01 -0.21558324959E+01  0.20679011750E+01  0.69562712645E+01  0.51100000000E-03 0.  1.
         12    1    4    4    0    0  0.12197873338E+02 -0.23401390306E+02  0.12973087976E+02  0.29406023088E+02  0.00000000000E+00 0. -1.
</event>
<event>
 8    1  0.1269154E-006  0.9118800E+02  0.7816164E-02  0.1184000E+00
        -11   -1    0    0    0    0  0.00000000000E+00  0.00000000000E+00  0.45593999997E+02  0.45594000000E+02  0.51100000000E-03 0. -1.
         11   -1    0    0    0    0 -0.00000000000E+00 -0.00000000000E+00 -0.45593999997E+02  0.45594000000E+02  0.51100000000E-03 0.  1.
         23    2    1    2    0    0  0.17763568394E-14 -0.71054273576E-14  0.00000000000E+00  0.91188000000E+02  0.91188000000E+02 0.  0.
    9900012    2    3    3    0    0  0.10256098059E+02 -0.32569115362E+02 -0.13778502809E+02  0.54367055382E+02  0.39999934355E+02 0.  0.
         12    1    3    3    0    0 -0.10256098059E+02  0.32569115362E+02  0.13778502809E+02  0.36820944618E+02  0.00000000000E+00 0. -1.
         11    1    4    4    0    0  0.10788064804E+02 -0.25789035579E+02 -0.16412110952E+02  0.32416262654E+02  0.51100000000E-03 0.  1.
        -11    1    4    4    0    0 -0.69992898173E+01 -0.90420729958E+01  0.73858815382E+01  0.13612508526E+02  0.51100000000E-03 0. -1.
         12    1    4    4    0    0  0.64673230723E+01  0.22619932124E+01 -0.47522733951E+01  0.83382842021E+01  0.00000000000E+00 0. -1.
</event>
<event>
 8    1  0.1269154E-006  0.9118800E+02  0.7816164E-02  0.1184000E+00
        -11   -1    0    0    0    0  0.00000000000E+00  0.00000000000E+00  0.45593999997E+02  0.45594000000E+02  0.51100000000E-03 0.  1.
         11   -1    0    0    0    0 -0.00000000000E+00 -0.00000000000E+00 -0.45593999997E+02  0.45594000000E+02  0.51100000000E-03 0. -1.
         23    2    1    2    0    0  0.17763568394E-14  0.00000000000E+00  0.00000000000E+00  0.91188000000E+02  0.91188000000E+02 0.  0.
    9900012    2    3    3    0    0  0.11826882524E+02  0.10506745311E+02  0.33249323168E+02  0.54367023120E+02  0.39999860806E+02 0.  0.
         12    1    3    3    0    0 -0.11826882524E+02 -0.10506745311E+02 -0.33249323168E+02  0.36820976880E+02  0.00000000000E+00 0. -1.
         11    1    4    4    0    0 -0.68012145928E+01  0.29742879908E+01  0.24934022673E+02  0.26015541431E+02  0.51100000000E-03 0. -1.
        -11    1    4    4    0    0  0.12900605535E+02  0.10173606171E+02 -0.16984045136E+01  0.16517035565E+02  0.51100000000E-03 0.  1.
         12    1    4    4    0    0  0.57274915820E+01 -0.26411488507E+01  0.10013705008E+02  0.11834446124E+02  0.00000000000E+00 0. -1.
</event>
<event>
 8    1  0.1269154E-006  0.9118800E+02  0.7816164E-02  0.1184000E+00
        -11   -1    0    0    0    0  0.00000000000E+00  0.00000000000E+00  0.45593999997E+02  0.45594000000E+02  0.51100000000E-03 0.  1.
         11   -1    0    0    0    0 -0.00000000000E+00 -0.00000000000E+00 -0.45593999997E+02  0.45594000000E+02  0.51100000000E-03 0. -1.
         23    2    1    2    0    0  0.00000000000E+00  0.00000000000E+00  0.35527136788E-14  0.91188000000E+02  0.91188000000E+02 0.  0.
    9900012    2    3    3    0    0  0.15258681859E+02  0.20942398961E+02 -0.26160429221E+02  0.54367088776E+02  0.40000010483E+02 0.  0.
         12    1    3    3    0    0 -0.15258681859E+02 -0.20942398961E+02  0.26160429221E+02  0.36820911224E+02  0.00000000000E+00 0. -1.
         11    1    4    4    0    0 -0.42876059870E+01  0.46741550312E+00 -0.35359596707E+01  0.55771904581E+01  0.51100000000E-03 0. -1.
        -11    1    4    4    0    0  0.16671709422E+01  0.24779343627E+02 -0.13221788178E+02  0.28135582674E+02  0.51100000000E-03 0.  1.
        -12    1    4    4    0    0  0.17879116904E+02 -0.43043601694E+01 -0.94026813728E+01  0.20654315644E+02  0.00000000000E+00 0.  1.
</event>
<event>
 8    1  0.1269154E-006  0.9118800E+02  0.7816164E-02  0.1184000E+00
        -11   -1    0    0    0    0  0.00000000000E+00  0.00000000000E+00  0.45593999997E+02  0.45594000000E+02  0.51100000000E-03 0. -1.
         11   -1    0    0    0    0 -0.00000000000E+00 -0.00000000000E+00 -0.45593999997E+02  0.45594000000E+02  0.51100000000E-03 0.  1.
         23    2    1    2    0    0  0.00000000000E+00  0.00000000000E+00 -0.17763568394E-14  0.91188000000E+02  0.91188000000E+02 0.  0.
    9900012    2    3    3    0    0  0.17810827852E+02 -0.30327604037E+02  0.10899165526E+02  0.54367068934E+02  0.39999965250E+02 0.  0.
         12    1    3    3    0    0 -0.17810827852E+02  0.30327604037E+02 -0.10899165526E+02  0.36820931066E+02  0.00000000000E+00 0. -1.
         11    1    4    4    0    0  0.58902368268E+01 -0.32865495269E+01  0.10713887302E+02  0.12660319074E+02  0.51100000000E-03 0. -1.
        -11    1    4    4    0    0 -0.82320313590E+01 -0.95762364292E+01  0.66426904262E+01  0.14268706347E+02  0.51100000000E-03 0.  1.
        -12    1    4    4    0    0  0.20152622384E+02 -0.17464818081E+02 -0.64574122022E+01  0.27438043514E+02  0.00000000000E+00 0.  1.
</event>
<event>
 8    1  0.1269154E-006  0.9118800E+02  0.7816164E-02  0.1184000E+00
        -11   -1    0    0    0    0  0.00000000000E+00  0.00000000000E+00  0.45593999997E+02  0.45594000000E+02  0.51100000000E-03 0.  1.
         11   -1    0    0    0    0 -0.00000000000E+00 -0.00000000000E+00 -0.45593999997E+02  0.45594000000E+02  0.51100000000E-03 0. -1.
         23    2    1    2    0    0  0.00000000000E+00  0.00000000000E+00 -0.44408920985E-15  0.91188000000E+02  0.91188000000E+02 0.  0.
    9900012    2    3    3    0    0 -0.16059497796E+02 -0.32897044289E+02 -0.39568773675E+01  0.54367083785E+02  0.39999999105E+02 0.  0.
        -12    1    3    3    0    0  0.16059497796E+02  0.32897044289E+02  0.39568773675E+01  0.36820916215E+02  0.00000000000E+00 0.  1.
         11    1    4    4    0    0  0.28734306174E+01 -0.67645288838E+01 -0.47847020411E+00  0.73650789901E+01  0.51100000000E-03 0. -1.
        -11    1    4    4    0    0 -0.27657731581E+02 -0.25980897975E+02 -0.45154403408E+01  0.38214478637E+02  0.51100000000E-03 0.  1.
        -12    1    4    4    0    0  0.87248031675E+01 -0.15161743031E+00  0.10370331774E+01  0.87875261575E+01  0.00000000000E+00 0.  1.
</event>
<event>
 8    1  0.1269154E-006  0.9118800E+02  0.7816164E-02  0.1184000E+00
        -11   -1    0    0    0    0  0.00000000000E+00  0.00000000000E+00  0.45593999997E+02  0.45594000000E+02  0.51100000000E-03 0.  1.
         11   -1    0    0    0    0 -0.00000000000E+00 -0.00000000000E+00 -0.45593999997E+02  0.45594000000E+02  0.51100000000E-03 0. -1.
         23    2    1    2    0    0  0.00000000000E+00  0.35527136788E-14  0.00000000000E+00  0.91188000000E+02  0.91188000000E+02 0.  0.
    9900012    2    3    3    0    0 -0.10912302561E+02  0.26593590137E+02  0.23010444781E+02  0.54367109835E+02  0.40000058490E+02 0.  0.
         12    1    3    3    0    0  0.10912302561E+02 -0.26593590137E+02 -0.23010444781E+02  0.36820890165E+02  0.00000000000E+00 0. -1.
         11    1    4    4    0    0 -0.15182103409E+01  0.25785537756E+00 -0.40796545537E+01  0.43606230717E+01  0.51100000000E-03 0. -1.
        -11    1    4    4    0    0  0.20310011846E+01 -0.59508590586E+01 -0.81786887547E-01  0.62884321339E+01  0.51100000000E-03 0.  1.
         12    1    4    4    0    0 -0.11425093405E+02  0.32286593818E+02  0.27171886223E+02  0.43718054629E+02  0.00000000000E+00 0. -1.
</event>
<event>
 8    1  0.1269154E-006  0.9118800E+02  0.7816164E-02  0.1184000E+00
        -11   -1    0    0    0    0  0.00000000000E+00  0.00000000000E+00  0.45593999997E+02  0.45594000000E+02  0.51100000000E-03 0.  1.
         11   -1    0    0    0    0 -0.00000000000E+00 -0.00000000000E+00 -0.45593999997E+02  0.45594000000E+02  0.51100000000E-03 0. -1.
         23    2    1    2    0    0  0.00000000000E+00 -0.17763568394E-14  0.10658141036E-13  0.91188000000E+02  0.91188000000E+02 0.  0.
    9900012    2    3    3    0    0 -0.22420680671E+02  0.80865905011E+01 -0.28065972698E+02  0.54367099805E+02  0.40000035626E+02 0.  0.
        -12    1    3    3    0    0  0.22420680671E+02 -0.80865905011E+01  0.28065972698E+02  0.36820900195E+02  0.00000000000E+00 0.  1.
         11    1    4    4    0    0 -0.57372475763E+00  0.47081945784E+01 -0.26253024668E+02  0.26678035174E+02  0.51100000000E-03 0. -1.
        -11    1    4    4    0    0 -0.13769817352E+02  0.76699340652E+01  0.47150487690E+01  0.16451973852E+02  0.51100000000E-03 0.  1.
        -12    1    4    4    0    0 -0.80771385615E+01 -0.42915381425E+01 -0.65279967988E+01  0.11237090779E+02  0.00000000000E+00 0.  1.
</event>
<event>
 8    1  0.1269154E-006  0.9118800E+02  0.7816164E-02  0.1184000E+00
        -11   -1    0    0    0    0  0.00000000000E+00  0.00000000000E+00  0.45593999997E+02  0.45594000000E+02  0.51100000000E-03 0. -1.
         11   -1    0    0    0    0 -0.00000000000E+00 -0.00000000000E+00 -0.45593999997E+02  0.45594000000E+02  0.51100000000E-03 0.  1.
         23    2    1    2    0    0  0.88817841970E-15  0.00000000000E+00 -0.35527136788E-14  0.91188000000E+02  0.91188000000E+02 0.  0.
    9900012    2    3    3    0    0 -0.24196450393E+01  0.21402103183E+02  0.29864293219E+02  0.54367072361E+02  0.39999973061E+02 0.  0.
         12    1    3    3    0    0  0.24196450393E+01 -0.21402103183E+02 -0.29864293219E+02  0.36820927639E+02  0.00000000000E+00 0. -1.
         11    1    4    4    0    0  0.25777936755E+00 -0.78402296412E+01  0.54295859114E+01  0.95402334594E+01  0.51100000000E-03 0.  1.
        -11    1    4    4    0    0  0.37640081450E+01  0.75138356738E+01  0.20054625664E+02  0.21744274985E+02  0.51100000000E-03 0. -1.
        -12    1    4    4    0    0 -0.64414325518E+01  0.21728497150E+02  0.43800816430E+01  0.23082563916E+02  0.00000000000E+00 0.  1.
</event>
<event>
 8    1  0.1269154E-006  0.9118800E+02  0.7816164E-02  0.1184000E+00
        -11   -1    0    0    0    0  0.00000000000E+00  0.00000000000E+00  0.45593999997E+02  0.45594000000E+02  0.51100000000E-03 0.  1.
         11   -1    0    0    0    0 -0.00000000000E+00 -0.00000000000E+00 -0.45593999997E+02  0.45594000000E+02  0.51100000000E-03 0. -1.
         23    2    1    2    0    0 -0.35527136788E-14  0.35527136788E-14  0.00000000000E+00  0.91188000000E+02  0.91188000000E+02 0.  0.
    9900012    2    3    3    0    0 -0.19373760381E+02  0.29730722712E+02 -0.98245537041E+01  0.54367077690E+02  0.39999985209E+02 0.  0.
         12    1    3    3    0    0  0.19373760381E+02 -0.29730722712E+02  0.98245537041E+01  0.36820922310E+02  0.00000000000E+00 0. -1.
         11    1    4    4    0    0 -0.29144434056E+01  0.11617957271E+02 -0.66961608173E+01  0.13722590188E+02  0.51100000000E-03 0. -1.
        -11    1    4    4    0    0  0.97682492965E+01  0.65924351018E+01  0.33673605555E+00  0.11789498985E+02  0.51100000000E-03 0.  1.
         12    1    4    4    0    0 -0.26227566272E+02  0.11520330340E+02 -0.34651289423E+01  0.28854988517E+02  0.00000000000E+00 0. -1.
</event>
<event>
 8    1  0.1269154E-006  0.9118800E+02  0.7816164E-02  0.1184000E+00
        -11   -1    0    0    0    0  0.00000000000E+00  0.00000000000E+00  0.45593999997E+02  0.45594000000E+02  0.51100000000E-03 0.  1.
         11   -1    0    0    0    0 -0.00000000000E+00 -0.00000000000E+00 -0.45593999997E+02  0.45594000000E+02  0.51100000000E-03 0. -1.
         23    2    1    2    0    0  0.00000000000E+00  0.00000000000E+00 -0.17763568394E-14  0.91188000000E+02  0.91188000000E+02 0.  0.
    9900012    2    3    3    0    0  0.16678625501E+02  0.32356423577E+02  0.55375925261E+01  0.54367087107E+02  0.40000006677E+02 0.  0.
         12    1    3    3    0    0 -0.16678625501E+02 -0.32356423577E+02 -0.55375925261E+01  0.36820912893E+02  0.00000000000E+00 0. -1.
         11    1    4    4    0    0  0.93144619160E+00  0.34430943156E+01  0.18237799312E+02  0.18583320868E+02  0.51100000000E-03 0. -1.
        -11    1    4    4    0    0  0.37447651804E+01  0.32005090026E+01 -0.70447620306E+00  0.49762245843E+01  0.51100000000E-03 0.  1.
        -12    1    4    4    0    0  0.12002414129E+02  0.25712820259E+02 -0.11995730582E+02  0.30807541655E+02  0.00000000000E+00 0.  1.
</event>
<event>
 8    1  0.1269154E-006  0.9118800E+02  0.7816164E-02  0.1184000E+00
        -11   -1    0    0    0    0  0.00000000000E+00  0.00000000000E+00  0.45593999997E+02  0.45594000000E+02  0.51100000000E-03 0. -1.
         11   -1    0    0    0    0 -0.00000000000E+00 -0.00000000000E+00 -0.45593999997E+02  0.45594000000E+02  0.51100000000E-03 0.  1.
         23    2    1    2    0    0  0.00000000000E+00  0.00000000000E+00  0.71054273576E-14  0.91188000000E+02  0.91188000000E+02 0.  0.
    9900012    2    3    3    0    0  0.15173028219E+02 -0.93062032305E+01  0.32232800338E+02  0.54367087172E+02  0.40000006825E+02 0.  0.
        -12    1    3    3    0    0 -0.15173028219E+02  0.93062032305E+01 -0.32232800338E+02  0.36820912828E+02  0.00000000000E+00 0.  1.
         11    1    4    4    0    0 -0.54895113189E+01  0.17536315878E+01 -0.63831202694E+00  0.57980514632E+01  0.51100000000E-03 0. -1.
        -11    1    4    4    0    0  0.13061764253E+01 -0.20943530016E+01 -0.47317418471E+01  0.53368335666E+01  0.51100000000E-03 0.  1.
         12    1    4    4    0    0  0.19356363113E+02 -0.89654818166E+01  0.37602854212E+02  0.43232202142E+02  0.00000000000E+00 0. -1.
</event>
<event>
 8    1  0.1269154E-006  0.9118800E+02  0.7816164E-02  0.1184000E+00
        -11   -1    0    0    0    0  0.00000000000E+00  0.00000000000E+00  0.45593999997E+02  0.45594000000E+02  0.51100000000E-03 0. -1.
         11   -1    0    0    0    0 -0.00000000000E+00 -0.00000000000E+00 -0.45593999997E+02  0.45594000000E+02  0.51100000000E-03 0.  1.
         23    2    1    2    0    0  0.88817841970E-15  0.00000000000E+00  0.00000000000E+00  0.91188000000E+02  0.91188000000E+02 0.  0.
    9900012    2    3    3    0    0 -0.46072020215E+01  0.29161375713E+02 -0.22003813151E+02  0.54367082886E+02  0.39999997055E+02 0.  0.
         12    1    3    3    0    0  0.46072020215E+01 -0.29161375713E+02  0.22003813151E+02  0.36820917114E+02  0.00000000000E+00 0. -1.
         11    1    4    4    0    0 -0.65244662451E+01  0.38321666270E+01 -0.18513041377E+01  0.77898323546E+01  0.51100000000E-03 0. -1.
        -11    1    4    4    0    0  0.96864841571E+01  0.30912943038E+02 -0.16279365900E+02  0.36255424104E+02  0.51100000000E-03 0.  1.
        -12    1    4    4    0    0 -0.77692199335E+01 -0.55837339518E+01 -0.38731431128E+01  0.10321826427E+02  0.00000000000E+00 0.  1.
</event>
<event>
 8    1  0.1269154E-006  0.9118800E+02  0.7816164E-02  0.1184000E+00
        -11   -1    0    0    0    0  0.00000000000E+00  0.00000000000E+00  0.45593999997E+02  0.45594000000E+02  0.51100000000E-03 0. -1.
         11   -1    0    0    0    0 -0.00000000000E+00 -0.00000000000E+00 -0.45593999997E+02  0.45594000000E+02  0.51100000000E-03 0.  1.
         23    2    1    2    0    0 -0.17763568394E-14 -0.35527136788E-14 -0.71054273576E-14  0.91188000000E+02  0.91188000000E+02 0.  0.
    9900012    2    3    3    0    0 -0.10567124138E+02 -0.13712971888E+02 -0.32497232854E+02  0.54367084019E+02  0.39999999637E+02 0.  0.
         12    1    3    3    0    0  0.10567124138E+02  0.13712971888E+02  0.32497232854E+02  0.36820915981E+02  0.00000000000E+00 0. -1.
         11    1    4    4    0    0 -0.14863006326E+02 -0.21234531040E+02 -0.15171104682E+02  0.30032926648E+02  0.51100000000E-03 0.  1.
        -11    1    4    4    0    0  0.85000616015E+01  0.37365556532E-01 -0.88245101656E+01  0.12252527223E+02  0.51100000000E-03 0. -1.
        -12    1    4    4    0    0 -0.42041794144E+01  0.74841935951E+01 -0.85016180057E+01  0.12081630148E+02  0.00000000000E+00 0.  1.
</event>
<event>
 8    1  0.1269154E-006  0.9118800E+02  0.7816164E-02  0.1184000E+00
        -11   -1    0    0    0    0  0.00000000000E+00  0.00000000000E+00  0.45593999997E+02  0.45594000000E+02  0.51100000000E-03 0.  1.
         11   -1    0    0    0    0 -0.00000000000E+00 -0.00000000000E+00 -0.45593999997E+02  0.45594000000E+02  0.51100000000E-03 0. -1.
         23    2    1    2    0    0  0.00000000000E+00  0.00000000000E+00 -0.88817841970E-15  0.91188000000E+02  0.91188000000E+02 0.  0.
    9900012    2    3    3    0    0 -0.32900969941E+02  0.16285935802E+02 -0.28416661698E+01  0.54367073958E+02  0.39999976702E+02 0.  0.
        -12    1    3    3    0    0  0.32900969941E+02 -0.16285935802E+02  0.28416661698E+01  0.36820926042E+02  0.00000000000E+00 0.  1.
         11    1    4    4    0    0 -0.28636343023E+02  0.64889598536E+01 -0.12968096058E+02  0.32098570955E+02  0.51100000000E-03 0. -1.
        -11    1    4    4    0    0 -0.67109731715E+01 -0.25241605817E+01  0.47749265002E+01  0.86144338696E+01  0.51100000000E-03 0.  1.
         12    1    4    4    0    0  0.24463462540E+01  0.12321136530E+02  0.53515033879E+01  0.13654069133E+02  0.00000000000E+00 0. -1.
</event>
<event>
 8    1  0.1269154E-006  0.9118800E+02  0.7816164E-02  0.1184000E+00
        -11   -1    0    0    0    0  0.00000000000E+00  0.00000000000E+00  0.45593999997E+02  0.45594000000E+02  0.51100000000E-03 0. -1.
         11   -1    0    0    0    0 -0.00000000000E+00 -0.00000000000E+00 -0.45593999997E+02  0.45594000000E+02  0.51100000000E-03 0.  1.
         23    2    1    2    0    0  0.22204460493E-15  0.00000000000E+00 -0.35527136788E-14  0.91188000000E+02  0.91188000000E+02 0.  0.
    9900012    2    3    3    0    0 -0.91666702777E+00 -0.22368835533E+02  0.29233110810E+02  0.54367084080E+02  0.39999999776E+02 0.  0.
        -12    1    3    3    0    0  0.91666702777E+00  0.22368835533E+02 -0.29233110810E+02  0.36820915920E+02  0.00000000000E+00 0.  1.
         11    1    4    4    0    0  0.48179125482E+00 -0.12138610544E+02  0.11405101388E+02  0.16662962722E+02  0.51100000000E-03 0. -1.
        -11    1    4    4    0    0  0.13932995737E+02  0.46843211567E+00  0.11151958362E+02  0.17852562125E+02  0.51100000000E-03 0.  1.
        -12    1    4    4    0    0 -0.15331454019E+02 -0.10698657105E+02  0.66760510598E+01  0.19851559233E+02  0.00000000000E+00 0.  1.
</event>
<event>
 8    1  0.1269154E-006  0.9118800E+02  0.7816164E-02  0.1184000E+00
        -11   -1    0    0    0    0  0.00000000000E+00  0.00000000000E+00  0.45593999997E+02  0.45594000000E+02  0.51100000000E-03 0. -1.
         11   -1    0    0    0    0 -0.00000000000E+00 -0.00000000000E+00 -0.45593999997E+02  0.45594000000E+02  0.51100000000E-03 0.  1.
         23    2    1    2    0    0 -0.17763568394E-14  0.00000000000E+00  0.00000000000E+00  0.91188000000E+02  0.91188000000E+02 0.  0.
    9900012    2    3    3    0    0  0.59807911215E+01 -0.13627120238E+02 -0.33679559620E+02  0.54367068390E+02  0.39999964008E+02 0.  0.
         12    1    3    3    0    0 -0.59807911215E+01  0.13627120238E+02  0.33679559620E+02  0.36820931610E+02  0.00000000000E+00 0. -1.
         11    1    4    4    0    0  0.10135903858E+02 -0.76291900100E+01 -0.20229345876E+02  0.23878180878E+02  0.51100000000E-03 0. -1.
        -11    1    4    4    0    0 -0.83774665634E+01 -0.12520664079E+01 -0.19782404502E+02  0.21519599077E+02  0.51100000000E-03 0.  1.
         12    1    4    4    0    0  0.42223538264E+01 -0.47458638200E+01  0.63321907572E+01  0.89692884344E+01  0.00000000000E+00 0. -1.
</event>
<event>
 8    1  0.1269154E-006  0.9118800E+02  0.7816164E-02  0.1184000E+00
        -11   -1    0    0    0    0  0.00000000000E+00  0.00000000000E+00  0.45593999997E+02  0.45594000000E+02  0.51100000000E-03 0.  1.
         11   -1    0    0    0    0 -0.00000000000E+00 -0.00000000000E+00 -0.45593999997E+02  0.45594000000E+02  0.51100000000E-03 0. -1.
         23    2    1    2    0    0  0.00000000000E+00  0.00000000000E+00  0.00000000000E+00  0.91188000000E+02  0.91188000000E+02 0.  0.
    9900012    2    3    3    0    0  0.35007780411E+02 -0.56503030144E+01  0.99151539203E+01  0.54367069937E+02  0.39999967536E+02 0.  0.
         12    1    3    3    0    0 -0.35007780411E+02  0.56503030144E+01 -0.99151539203E+01  0.36820930063E+02  0.00000000000E+00 0. -1.
         11    1    4    4    0    0  0.97195803395E+01  0.14381001537E+02  0.41132990671E+00  0.17362391533E+02  0.51100000000E-03 0. -1.
        -11    1    4    4    0    0  0.11565801993E+02 -0.16624932344E+02  0.53161666423E+00  0.20259288431E+02  0.51100000000E-03 0.  1.
        -12    1    4    4    0    0  0.13722398078E+02 -0.34063722079E+01  0.89722073493E+01  0.16745389973E+02  0.00000000000E+00 0.  1.
</event>
<event>
 8    1  0.1269154E-006  0.9118800E+02  0.7816164E-02  0.1184000E+00
        -11   -1    0    0    0    0  0.00000000000E+00  0.00000000000E+00  0.45593999997E+02  0.45594000000E+02  0.51100000000E-03 0.  1.
         11   -1    0    0    0    0 -0.00000000000E+00 -0.00000000000E+00 -0.45593999997E+02  0.45594000000E+02  0.51100000000E-03 0. -1.
         23    2    1    2    0    0  0.00000000000E+00  0.35527136788E-14  0.17763568394E-14  0.91188000000E+02  0.91188000000E+02 0.  0.
    9900012    2    3    3    0    0  0.12007357827E+02 -0.31452824483E+02 -0.14910475922E+02  0.54367094224E+02  0.40000022903E+02 0.  0.
        -12    1    3    3    0    0 -0.12007357827E+02  0.31452824483E+02  0.14910475922E+02  0.36820905776E+02  0.00000000000E+00 0.  1.
         11    1    4    4    0    0 -0.17847463021E+01  0.11763050759E+01 -0.24590253652E+01  0.32581925975E+01  0.51100000000E-03 0. -1.
        -11    1    4    4    0    0  0.12707795333E+02 -0.36857717492E+02 -0.11613230625E+01  0.39004205831E+02  0.51100000000E-03 0.  1.
        -12    1    4    4    0    0  0.10843087956E+01  0.42285879337E+01 -0.11290127494E+02  0.12104695796E+02  0.00000000000E+00 0.  1.
</event>
<event>
 8    1  0.1269154E-006  0.9118800E+02  0.7816164E-02  0.1184000E+00
        -11   -1    0    0    0    0  0.00000000000E+00  0.00000000000E+00  0.45593999997E+02  0.45594000000E+02  0.51100000000E-03 0. -1.
         11   -1    0    0    0    0 -0.00000000000E+00 -0.00000000000E+00 -0.45593999997E+02  0.45594000000E+02  0.51100000000E-03 0.  1.
         23    2    1    2    0    0  0.00000000000E+00  0.35527136788E-14  0.00000000000E+00  0.91188000000E+02  0.91188000000E+02 0.  0.
    9900012    2    3    3    0    0  0.16403616320E+02  0.25798894899E+02 -0.20521150809E+02  0.54367092394E+02  0.40000018731E+02 0.  0.
         12    1    3    3    0    0 -0.16403616320E+02 -0.25798894899E+02  0.20521150809E+02  0.36820907606E+02  0.00000000000E+00 0. -1.
         11    1    4    4    0    0  0.23576698463E+01 -0.94295339978E+01 -0.52787148488E+00  0.97341341210E+01  0.51100000000E-03 0. -1.
        -11    1    4    4    0    0  0.19159115566E+01  0.14726255320E+02 -0.13180973812E+02  0.19856268122E+02  0.51100000000E-03 0.  1.
         12    1    4    4    0    0  0.12130034918E+02  0.20502173576E+02 -0.68123055117E+01  0.24776690151E+02  0.00000000000E+00 0. -1.
</event>
<event>
 8    1  0.1269154E-006  0.9118800E+02  0.7816164E-02  0.1184000E+00
        -11   -1    0    0    0    0  0.00000000000E+00  0.00000000000E+00  0.45593999997E+02  0.45594000000E+02  0.51100000000E-03 0.  1.
         11   -1    0    0    0    0 -0.00000000000E+00 -0.00000000000E+00 -0.45593999997E+02  0.45594000000E+02  0.51100000000E-03 0. -1.
         23    2    1    2    0    0  0.00000000000E+00 -0.35527136788E-14  0.00000000000E+00  0.91188000000E+02  0.91188000000E+02 0.  0.
    9900012    2    3    3    0    0 -0.25270582512E+02  0.25353930911E+02  0.86229259087E+01  0.54367095552E+02  0.40000025929E+02 0.  0.
        -12    1    3    3    0    0  0.25270582512E+02 -0.25353930911E+02 -0.86229259087E+01  0.36820904448E+02  0.00000000000E+00 0.  1.
         11    1    4    4    0    0 -0.17058359763E+02  0.11120990844E+02  0.99917040640E+01  0.22682553329E+02  0.51100000000E-03 0.  1.
        -11    1    4    4    0    0 -0.32653103816E+01  0.70488669936E+01 -0.14190153927E+02  0.16177430158E+02  0.51100000000E-03 0. -1.
        -12    1    4    4    0    0 -0.49469123677E+01  0.71840730733E+01  0.12821375772E+02  0.15507112065E+02  0.00000000000E+00 0.  1.
</event>
<event>
 8    1  0.1269154E-006  0.9118800E+02  0.7816164E-02  0.1184000E+00
        -11   -1    0    0    0    0  0.00000000000E+00  0.00000000000E+00  0.45593999997E+02  0.45594000000E+02  0.51100000000E-03 0.  1.
         11   -1    0    0    0    0 -0.00000000000E+00 -0.00000000000E+00 -0.45593999997E+02  0.45594000000E+02  0.51100000000E-03 0. -1.
         23    2    1    2    0    0  0.17763568394E-14  0.00000000000E+00  0.00000000000E+00  0.91188000000E+02  0.91188000000E+02 0.  0.
    9900012    2    3    3    0    0 -0.13374857755E+02  0.17066088329E+02  0.29759726930E+02  0.54367088309E+02  0.40000009418E+02 0.  0.
         12    1    3    3    0    0  0.13374857755E+02 -0.17066088329E+02 -0.29759726930E+02  0.36820911691E+02  0.00000000000E+00 0. -1.
         11    1    4    4    0    0 -0.81423209864E+01 -0.18488184929E+01  0.30276517913E+02  0.31406735871E+02  0.51100000000E-03 0. -1.
        -11    1    4    4    0    0 -0.46698153445E+01  0.86706365782E+01 -0.57906966380E+01  0.11424503571E+02  0.51100000000E-03 0.  1.
        -12    1    4    4    0    0 -0.56272142439E+00  0.10244270244E+02  0.52739056542E+01  0.11535848867E+02  0.00000000000E+00 0.  1.
</event>
<event>
 8    1  0.1269154E-006  0.9118800E+02  0.7816164E-02  0.1184000E+00
        -11   -1    0    0    0    0  0.00000000000E+00  0.00000000000E+00  0.45593999997E+02  0.45594000000E+02  0.51100000000E-03 0. -1.
         11   -1    0    0    0    0 -0.00000000000E+00 -0.00000000000E+00 -0.45593999997E+02  0.45594000000E+02  0.51100000000E-03 0.  1.
         23    2    1    2    0    0  0.00000000000E+00  0.88817841970E-15  0.00000000000E+00  0.91188000000E+02  0.91188000000E+02 0.  0.
    9900012    2    3    3    0    0  0.10205452015E+02  0.69885769896E+01  0.34681128864E+02  0.54367188514E+02  0.40000237855E+02 0.  0.
        -12    1    3    3    0    0 -0.10205452015E+02 -0.69885769896E+01 -0.34681128864E+02  0.36820811486E+02  0.00000000000E+00 0.  1.
         11    1    4    4    0    0  0.10180402842E+02 -0.16589172661E+01  0.23952690236E+02  0.26079186688E+02  0.51100000000E-03 0. -1.
        -11    1    4    4    0    0  0.37269819634E+01 -0.77338720538E+01  0.70180704171E+01  0.11088574486E+02  0.51100000000E-03 0.  1.
        -12    1    4    4    0    0 -0.37019327901E+01  0.16381366309E+02  0.37103682110E+01  0.17199427340E+02  0.00000000000E+00 0.  1.
</event>
<event>
 8    1  0.1269154E-006  0.9118800E+02  0.7816164E-02  0.1184000E+00
        -11   -1    0    0    0    0  0.00000000000E+00  0.00000000000E+00  0.45593999997E+02  0.45594000000E+02  0.51100000000E-03 0.  1.
         11   -1    0    0    0    0 -0.00000000000E+00 -0.00000000000E+00 -0.45593999997E+02  0.45594000000E+02  0.51100000000E-03 0. -1.
         23    2    1    2    0    0  0.00000000000E+00 -0.35527136788E-14  0.35527136788E-14  0.91188000000E+02  0.91188000000E+02 0.  0.
    9900012    2    3    3    0    0  0.18600163595E+02 -0.26456014770E+02 -0.17603790054E+02  0.54367078942E+02  0.39999988064E+02 0.  0.
        -12    1    3    3    0    0 -0.18600163595E+02  0.26456014770E+02  0.17603790054E+02  0.36820921058E+02  0.00000000000E+00 0.  1.
         11    1    4    4    0    0  0.55255583698E+01  0.63176941748E+01  0.61429093939E+01  0.10400980294E+02  0.51100000000E-03 0. -1.
        -11    1    4    4    0    0 -0.16279813843E+01 -0.15903576042E+01 -0.35374609640E+00  0.23031928402E+01  0.51100000000E-03 0.  1.
         12    1    4    4    0    0  0.14702586610E+02 -0.31183351341E+02 -0.23392953352E+02  0.41662905808E+02  0.00000000000E+00 0. -1.
</event>
<event>
 8    1  0.1269154E-006  0.9118800E+02  0.7816164E-02  0.1184000E+00
        -11   -1    0    0    0    0  0.00000000000E+00  0.00000000000E+00  0.45593999997E+02  0.45594000000E+02  0.51100000000E-03 0.  1.
         11   -1    0    0    0    0 -0.00000000000E+00 -0.00000000000E+00 -0.45593999997E+02  0.45594000000E+02  0.51100000000E-03 0. -1.
         23    2    1    2    0    0  0.17763568394E-14  0.00000000000E+00  0.00000000000E+00  0.91188000000E+02  0.91188000000E+02 0.  0.
    9900012    2    3    3    0    0  0.15797472402E+02  0.25134556610E+02 -0.21782447588E+02  0.54367067188E+02  0.39999961268E+02 0.  0.
        -12    1    3    3    0    0 -0.15797472402E+02 -0.25134556610E+02  0.21782447588E+02  0.36820932812E+02  0.00000000000E+00 0.  1.
         11    1    4    4    0    0  0.62104772495E+00  0.12505380175E+02 -0.18860225712E+02  0.22637984623E+02  0.51100000000E-03 0. -1.
        -11    1    4    4    0    0  0.21713240917E+02  0.11647136878E+02 -0.36793849665E+00  0.24642564956E+02  0.51100000000E-03 0.  1.
         12    1    4    4    0    0 -0.65368162404E+01  0.98203955711E+00 -0.25542833786E+01  0.70865176095E+01  0.00000000000E+00 0. -1.
</event>
<event>
 8    1  0.1269154E-006  0.9118800E+02  0.7816164E-02  0.1184000E+00
        -11   -1    0    0    0    0  0.00000000000E+00  0.00000000000E+00  0.45593999997E+02  0.45594000000E+02  0.51100000000E-03 0.  1.
         11   -1    0    0    0    0 -0.00000000000E+00 -0.00000000000E+00 -0.45593999997E+02  0.45594000000E+02  0.51100000000E-03 0. -1.
         23    2    1    2    0    0  0.88817841970E-15 -0.35527136788E-14  0.35527136788E-14  0.91188000000E+02  0.91188000000E+02 0.  0.
    9900012    2    3    3    0    0 -0.56858848697E+01 -0.18352657824E+02  0.31410659284E+02  0.54367097612E+02  0.40000030627E+02 0.  0.
         12    1    3    3    0    0  0.56858848697E+01  0.18352657824E+02 -0.31410659284E+02  0.36820902388E+02  0.00000000000E+00 0. -1.
         11    1    4    4    0    0 -0.16743444824E+02 -0.51381205580E+01  0.87215009142E+01  0.19565474844E+02  0.51100000000E-03 0. -1.
        -11    1    4    4    0    0  0.62084456653E+00  0.30938313115E+01  0.12559619531E+02  0.12949953019E+02  0.51100000000E-03 0.  1.
         12    1    4    4    0    0  0.10436715387E+02 -0.16308368578E+02  0.10129538839E+02  0.21851669749E+02  0.00000000000E+00 0. -1.
</event>
<event>
 8    1  0.1269154E-006  0.9118800E+02  0.7816164E-02  0.1184000E+00
        -11   -1    0    0    0    0  0.00000000000E+00  0.00000000000E+00  0.45593999997E+02  0.45594000000E+02  0.51100000000E-03 0. -1.
         11   -1    0    0    0    0 -0.00000000000E+00 -0.00000000000E+00 -0.45593999997E+02  0.45594000000E+02  0.51100000000E-03 0.  1.
         23    2    1    2    0    0  0.00000000000E+00  0.00000000000E+00  0.00000000000E+00  0.91188000000E+02  0.91188000000E+02 0.  0.
    9900012    2    3    3    0    0  0.28724533855E+02 -0.22895135508E+02 -0.25483400705E+01  0.54367080508E+02  0.39999991634E+02 0.  0.
         12    1    3    3    0    0 -0.28724533855E+02  0.22895135508E+02  0.25483400705E+01  0.36820919492E+02  0.00000000000E+00 0. -1.
         11    1    4    4    0    0  0.17874531295E+02  0.30135148004E+01  0.98136593631E+01  0.20612812783E+02  0.51100000000E-03 0. -1.
        -11    1    4    4    0    0 -0.68864383867E+00 -0.16414557952E+02 -0.72979047618E+01  0.17976967410E+02  0.51100000000E-03 0.  1.
        -12    1    4    4    0    0  0.11538646399E+02 -0.94940923564E+01 -0.50640946718E+01  0.15777300315E+02  0.00000000000E+00 0.  1.
</event>
<event>
 8    1  0.1269154E-006  0.9118800E+02  0.7816164E-02  0.1184000E+00
        -11   -1    0    0    0    0  0.00000000000E+00  0.00000000000E+00  0.45593999997E+02  0.45594000000E+02  0.51100000000E-03 0. -1.
         11   -1    0    0    0    0 -0.00000000000E+00 -0.00000000000E+00 -0.45593999997E+02  0.45594000000E+02  0.51100000000E-03 0.  1.
         23    2    1    2    0    0  0.00000000000E+00  0.00000000000E+00  0.17763568394E-14  0.91188000000E+02  0.91188000000E+02 0.  0.
    9900012    2    3    3    0    0 -0.12086153370E+02 -0.33102735814E+02 -0.10673046235E+02  0.54367080163E+02  0.39999990848E+02 0.  0.
         12    1    3    3    0    0  0.12086153370E+02  0.33102735814E+02  0.10673046235E+02  0.36820919837E+02  0.00000000000E+00 0. -1.
         11    1    4    4    0    0 -0.22004270351E+02 -0.17485532917E+02  0.44227016609E+01  0.28451574039E+02  0.51100000000E-03 0. -1.
        -11    1    4    4    0    0  0.66130122692E+01 -0.28223215883E+01 -0.85404385348E+01  0.11164072780E+02  0.51100000000E-03 0.  1.
         12    1    4    4    0    0  0.33051047112E+01 -0.12794881309E+02 -0.65553093613E+01  0.14751433344E+02  0.00000000000E+00 0. -1.
</event>
<event>
 8    1  0.1269154E-006  0.9118800E+02  0.7816164E-02  0.1184000E+00
        -11   -1    0    0    0    0  0.00000000000E+00  0.00000000000E+00  0.45593999997E+02  0.45594000000E+02  0.51100000000E-03 0.  1.
         11   -1    0    0    0    0 -0.00000000000E+00 -0.00000000000E+00 -0.45593999997E+02  0.45594000000E+02  0.51100000000E-03 0. -1.
         23    2    1    2    0    0  0.00000000000E+00  0.00000000000E+00  0.00000000000E+00  0.91188000000E+02  0.91188000000E+02 0.  0.
    9900012    2    3    3    0    0 -0.18781455121E+02  0.25812431851E+02  0.18350883718E+02  0.54367087087E+02  0.40000006632E+02 0.  0.
         12    1    3    3    0    0  0.18781455121E+02 -0.25812431851E+02 -0.18350883718E+02  0.36820912913E+02  0.00000000000E+00 0. -1.
         11    1    4    4    0    0 -0.19942542982E+02  0.30336932882E+02  0.13599901440E+02  0.38768438667E+02  0.51100000000E-03 0. -1.
        -11    1    4    4    0    0 -0.22597730657E+01  0.32174258306E+01  0.58657314802E+01  0.70615302409E+01  0.51100000000E-03 0.  1.
         12    1    4    4    0    0  0.34208609267E+01 -0.77419268619E+01 -0.11147492020E+01  0.85371181788E+01  0.00000000000E+00 0. -1.
</event>
<event>
 8    1  0.1269154E-006  0.9118800E+02  0.7816164E-02  0.1184000E+00
        -11   -1    0    0    0    0  0.00000000000E+00  0.00000000000E+00  0.45593999997E+02  0.45594000000E+02  0.51100000000E-03 0. -1.
         11   -1    0    0    0    0 -0.00000000000E+00 -0.00000000000E+00 -0.45593999997E+02  0.45594000000E+02  0.51100000000E-03 0.  1.
         23    2    1    2    0    0  0.17763568394E-14 -0.35527136788E-14  0.00000000000E+00  0.91188000000E+02  0.91188000000E+02 0.  0.
    9900012    2    3    3    0    0  0.11197471643E+02 -0.30372632190E+02 -0.17547070538E+02  0.54367084180E+02  0.40000000005E+02 0.  0.
         12    1    3    3    0    0 -0.11197471643E+02  0.30372632190E+02  0.17547070538E+02  0.36820915820E+02  0.00000000000E+00 0. -1.
         11    1    4    4    0    0  0.14216493377E+02 -0.76820008994E+01 -0.94188721631E+01  0.18703929396E+02  0.51100000000E-03 0. -1.
        -11    1    4    4    0    0 -0.48140317295E+01 -0.94985159186E+00  0.74050324568E+01  0.88832215714E+01  0.51100000000E-03 0.  1.
        -12    1    4    4    0    0  0.17950099953E+01 -0.21740779699E+02 -0.15533230831E+02  0.26779933213E+02  0.00000000000E+00 0.  1.
</event>
<event>
 8    1  0.1269154E-006  0.9118800E+02  0.7816164E-02  0.1184000E+00
        -11   -1    0    0    0    0  0.00000000000E+00  0.00000000000E+00  0.45593999997E+02  0.45594000000E+02  0.51100000000E-03 0. -1.
         11   -1    0    0    0    0 -0.00000000000E+00 -0.00000000000E+00 -0.45593999997E+02  0.45594000000E+02  0.51100000000E-03 0.  1.
         23    2    1    2    0    0  0.00000000000E+00 -0.35527136788E-14  0.00000000000E+00  0.91188000000E+02  0.91188000000E+02 0.  0.
    9900012    2    3    3    0    0 -0.14098816920E+02  0.20706993393E+02 -0.26985612120E+02  0.54367089156E+02  0.40000011348E+02 0.  0.
         12    1    3    3    0    0  0.14098816920E+02 -0.20706993393E+02  0.26985612120E+02  0.36820910844E+02  0.00000000000E+00 0. -1.
         11    1    4    4    0    0  0.61185635221E+00  0.45584058165E+01  0.92743835394E+00  0.46918625241E+01  0.51100000000E-03 0. -1.
        -11    1    4    4    0    0 -0.19451351832E+02  0.24220794984E+02 -0.24988745946E+02  0.39867774229E+02  0.51100000000E-03 0.  1.
         12    1    4    4    0    0  0.47406785604E+01 -0.80722074079E+01 -0.29243045280E+01  0.98074524022E+01  0.00000000000E+00 0. -1.
</event>
<event>
 8    1  0.1269154E-006  0.9118800E+02  0.7816164E-02  0.1184000E+00
        -11   -1    0    0    0    0  0.00000000000E+00  0.00000000000E+00  0.45593999997E+02  0.45594000000E+02  0.51100000000E-03 0.  1.
         11   -1    0    0    0    0 -0.00000000000E+00 -0.00000000000E+00 -0.45593999997E+02  0.45594000000E+02  0.51100000000E-03 0. -1.
         23    2    1    2    0    0  0.35527136788E-14  0.53290705182E-14  0.35527136788E-14  0.91188000000E+02  0.91188000000E+02 0.  0.
    9900012    2    3    3    0    0 -0.28637608853E+02  0.12807952555E+02  0.19277544465E+02  0.54367081895E+02  0.39999994796E+02 0.  0.
         12    1    3    3    0    0  0.28637608853E+02 -0.12807952555E+02 -0.19277544465E+02  0.36820918105E+02  0.00000000000E+00 0. -1.
         11    1    4    4    0    0 -0.59678614109E+01  0.18123619306E+02  0.13070983835E+02  0.23128587619E+02  0.51100000000E-03 0. -1.
        -11    1    4    4    0    0 -0.17642722052E+02 -0.47981597777E+01 -0.49917265221E+01  0.18952712539E+02  0.51100000000E-03 0.  1.
        -12    1    4    4    0    0 -0.50270253909E+01 -0.51750697345E+00  0.11198287153E+02  0.12285781738E+02  0.00000000000E+00 0.  1.
</event>
<event>
 8    1  0.1269154E-006  0.9118800E+02  0.7816164E-02  0.1184000E+00
        -11   -1    0    0    0    0  0.00000000000E+00  0.00000000000E+00  0.45593999997E+02  0.45594000000E+02  0.51100000000E-03 0.  1.
         11   -1    0    0    0    0 -0.00000000000E+00 -0.00000000000E+00 -0.45593999997E+02  0.45594000000E+02  0.51100000000E-03 0. -1.
         23    2    1    2    0    0  0.88817841970E-15 -0.17763568394E-14  0.00000000000E+00  0.91188000000E+02  0.91188000000E+02 0.  0.
    9900012    2    3    3    0    0  0.25065930470E+01  0.10851982631E+02  0.35096026631E+02  0.54367087179E+02  0.40000006841E+02 0.  0.
         12    1    3    3    0    0 -0.25065930470E+01 -0.10851982631E+02 -0.35096026631E+02  0.36820912821E+02  0.00000000000E+00 0. -1.
         11    1    4    4    0    0  0.13576676118E+02  0.16180187739E+01  0.72561066957E+00  0.13691991464E+02  0.51100000000E-03 0.  1.
        -11    1    4    4    0    0 -0.14322551277E+02  0.28803261880E+01  0.22690109280E+02  0.26986530222E+02  0.51100000000E-03 0. -1.
         12    1    4    4    0    0  0.32524682063E+01  0.63536376688E+01  0.11680306682E+02  0.13688565492E+02  0.00000000000E+00 0. -1.
</event>
<event>
 8    1  0.1269154E-006  0.9118800E+02  0.7816164E-02  0.1184000E+00
        -11   -1    0    0    0    0  0.00000000000E+00  0.00000000000E+00  0.45593999997E+02  0.45594000000E+02  0.51100000000E-03 0.  1.
         11   -1    0    0    0    0 -0.00000000000E+00 -0.00000000000E+00 -0.45593999997E+02  0.45594000000E+02  0.51100000000E-03 0. -1.
         23    2    1    2    0    0  0.00000000000E+00  0.00000000000E+00  0.00000000000E+00  0.91188000000E+02  0.91188000000E+02 0.  0.
    9900012    2    3    3    0    0 -0.17373870676E+02  0.13926723681E+02 -0.29325335847E+02  0.54367077452E+02  0.39999984666E+02 0.  0.
        -12    1    3    3    0    0  0.17373870676E+02 -0.13926723681E+02  0.29325335847E+02  0.36820922548E+02  0.00000000000E+00 0.  1.
         11    1    4    4    0    0  0.38599033944E+00  0.12048165993E+01 -0.14740293493E+02  0.14794486274E+02  0.51100000000E-03 0. -1.
        -11    1    4    4    0    0  0.37784458011E+01  0.14862545996E+01 -0.14730043621E+02  0.15279391047E+02  0.51100000000E-03 0.  1.
        -12    1    4    4    0    0 -0.21538306817E+02  0.11235652482E+02  0.14500126738E+00  0.24293200131E+02  0.00000000000E+00 0.  1.
</event>
<event>
 8    1  0.1269154E-006  0.9118800E+02  0.7816164E-02  0.1184000E+00
        -11   -1    0    0    0    0  0.00000000000E+00  0.00000000000E+00  0.45593999997E+02  0.45594000000E+02  0.51100000000E-03 0.  1.
         11   -1    0    0    0    0 -0.00000000000E+00 -0.00000000000E+00 -0.45593999997E+02  0.45594000000E+02  0.51100000000E-03 0. -1.
         23    2    1    2    0    0  0.00000000000E+00 -0.26645352591E-14  0.00000000000E+00  0.91188000000E+02  0.91188000000E+02 0.  0.
    9900012    2    3    3    0    0  0.35793011279E+01 -0.54910452172E+01  0.36232814713E+02  0.54367084257E+02  0.40000000180E+02 0.  0.
         12    1    3    3    0    0 -0.35793011279E+01  0.54910452172E+01 -0.36232814713E+02  0.36820915743E+02  0.00000000000E+00 0. -1.
         11    1    4    4    0    0  0.37629409266E+01  0.10178646409E+02  0.16608271659E+02  0.19839336050E+02  0.51100000000E-03 0. -1.
        -11    1    4    4    0    0 -0.12632121791E+01  0.10492066920E-01  0.18743232969E+02  0.18785755174E+02  0.51100000000E-03 0.  1.
         12    1    4    4    0    0  0.10795723805E+01 -0.15680183693E+02  0.88131008514E+00  0.15741993032E+02  0.00000000000E+00 0. -1.
</event>
<event>
 8    1  0.1269154E-006  0.9118800E+02  0.7816164E-02  0.1184000E+00
        -11   -1    0    0    0    0  0.00000000000E+00  0.00000000000E+00  0.45593999997E+02  0.45594000000E+02  0.51100000000E-03 0.  1.
         11   -1    0    0    0    0 -0.00000000000E+00 -0.00000000000E+00 -0.45593999997E+02  0.45594000000E+02  0.51100000000E-03 0. -1.
         23    2    1    2    0    0  0.23314683517E-14  0.88817841970E-15  0.00000000000E+00  0.91188000000E+02  0.91188000000E+02 0.  0.
    9900012    2    3    3    0    0  0.51304396493E+00  0.29483671610E+01 -0.36699052292E+02  0.54367129258E+02  0.40000102770E+02 0.  0.
        -12    1    3    3    0    0 -0.51304396493E+00 -0.29483671610E+01  0.36699052292E+02  0.36820870742E+02  0.00000000000E+00 0.  1.
         11    1    4    4    0    0  0.59890164921E+01 -0.62982491062E+01 -0.99537446360E+01  0.13214132317E+02  0.51100000000E-03 0. -1.
        -11    1    4    4    0    0 -0.77318513187E+01  0.18488447733E+02 -0.11281574307E+02  0.22997350793E+02  0.51100000000E-03 0.  1.
        -12    1    4    4    0    0  0.22558787915E+01 -0.92418314658E+01 -0.15463733349E+02  0.18155646148E+02  0.00000000000E+00 0.  1.
</event>
<event>
 8    1  0.1269154E-006  0.9118800E+02  0.7816164E-02  0.1184000E+00
        -11   -1    0    0    0    0  0.00000000000E+00  0.00000000000E+00  0.45593999997E+02  0.45594000000E+02  0.51100000000E-03 0. -1.
         11   -1    0    0    0    0 -0.00000000000E+00 -0.00000000000E+00 -0.45593999997E+02  0.45594000000E+02  0.51100000000E-03 0.  1.
         23    2    1    2    0    0  0.71054273576E-14  0.17763568394E-14  0.00000000000E+00  0.91188000000E+02  0.91188000000E+02 0.  0.
    9900012    2    3    3    0    0  0.35982338667E+02 -0.65704360589E+01 -0.42285100478E+01  0.54367087149E+02  0.40000006773E+02 0.  0.
         12    1    3    3    0    0 -0.35982338667E+02  0.65704360589E+01  0.42285100478E+01  0.36820912851E+02  0.00000000000E+00 0. -1.
         11    1    4    4    0    0  0.49581642210E+01  0.34905487036E+01 -0.38824013768E+00  0.60760228242E+01  0.51100000000E-03 0. -1.
        -11    1    4    4    0    0  0.68590587259E+01  0.63583421170E+01 -0.14446594567E+02  0.17209860427E+02  0.51100000000E-03 0.  1.
         12    1    4    4    0    0  0.24165115720E+02 -0.16419326880E+02  0.10606324657E+02  0.31081203897E+02  0.00000000000E+00 0. -1.
</event>
<event>
 8    1  0.1269154E-006  0.9118800E+02  0.7816164E-02  0.1184000E+00
        -11   -1    0    0    0    0  0.00000000000E+00  0.00000000000E+00  0.45593999997E+02  0.45594000000E+02  0.51100000000E-03 0. -1.
         11   -1    0    0    0    0 -0.00000000000E+00 -0.00000000000E+00 -0.45593999997E+02  0.45594000000E+02  0.51100000000E-03 0.  1.
         23    2    1    2    0    0  0.00000000000E+00  0.00000000000E+00  0.00000000000E+00  0.91188000000E+02  0.91188000000E+02 0.  0.
    9900012    2    3    3    0    0 -0.57770464163E+01 -0.35330629433E+02 -0.86110846875E+01  0.54367103475E+02  0.40000043992E+02 0.  0.
         12    1    3    3    0    0  0.57770464163E+01  0.35330629433E+02  0.86110846875E+01  0.36820896525E+02  0.00000000000E+00 0. -1.
         11    1    4    4    0    0 -0.95656212190E+01 -0.32729760837E+02 -0.81234935137E+01  0.35053238094E+02  0.51100000000E-03 0.  1.
        -11    1    4    4    0    0 -0.34270857398E+01 -0.86719794156E+01  0.20524354860E+01  0.95478078813E+01  0.51100000000E-03 0. -1.
         12    1    4    4    0    0  0.72156605425E+01  0.60711108202E+01 -0.25400266598E+01  0.97660574997E+01  0.00000000000E+00 0. -1.
</event>
<event>
 8    1  0.1269154E-006  0.9118800E+02  0.7816164E-02  0.1184000E+00
        -11   -1    0    0    0    0  0.00000000000E+00  0.00000000000E+00  0.45593999997E+02  0.45594000000E+02  0.51100000000E-03 0.  1.
         11   -1    0    0    0    0 -0.00000000000E+00 -0.00000000000E+00 -0.45593999997E+02  0.45594000000E+02  0.51100000000E-03 0. -1.
         23    2    1    2    0    0  0.00000000000E+00 -0.49960036108E-15  0.00000000000E+00  0.91188000000E+02  0.91188000000E+02 0.  0.
    9900012    2    3    3    0    0  0.13297207988E+02 -0.43024308076E+00 -0.34333387863E+02  0.54367049828E+02  0.39999921694E+02 0.  0.
        -12    1    3    3    0    0 -0.13297207988E+02  0.43024308076E+00  0.34333387863E+02  0.36820950172E+02  0.00000000000E+00 0.  1.
         11    1    4    4    0    0  0.48029328015E+01 -0.10908221910E+02 -0.33262702874E+02  0.35333622394E+02  0.51100000000E-03 0. -1.
        -11    1    4    4    0    0  0.48497098810E+01  0.72007058081E+01  0.59111494494E+01  0.10502929979E+02  0.51100000000E-03 0.  1.
        -12    1    4    4    0    0  0.36445653055E+01  0.32772730208E+01 -0.69818344383E+01  0.85304974558E+01  0.00000000000E+00 0.  1.
</event>
<event>
 8    1  0.1269154E-006  0.9118800E+02  0.7816164E-02  0.1184000E+00
        -11   -1    0    0    0    0  0.00000000000E+00  0.00000000000E+00  0.45593999997E+02  0.45594000000E+02  0.51100000000E-03 0. -1.
         11   -1    0    0    0    0 -0.00000000000E+00 -0.00000000000E+00 -0.45593999997E+02  0.45594000000E+02  0.51100000000E-03 0.  1.
         23    2    1    2    0    0 -0.35527136788E-14  0.00000000000E+00  0.17763568394E-14  0.91188000000E+02  0.91188000000E+02 0.  0.
    9900012    2    3    3    0    0  0.27892805732E+02 -0.21360745272E+02 -0.11022237481E+02  0.54367085166E+02  0.40000002252E+02 0.  0.
         12    1    3    3    0    0 -0.27892805732E+02  0.21360745272E+02  0.11022237481E+02  0.36820914834E+02  0.00000000000E+00 0. -1.
         11    1    4    4    0    0 -0.16955788662E+01  0.82692643703E+00 -0.14047610076E+00  0.18916999815E+01  0.51100000000E-03 0. -1.
        -11    1    4    4    0    0  0.10835040298E+02 -0.26823133824E+02  0.24061766581E+01  0.29028749418E+02  0.51100000000E-03 0.  1.
        -12    1    4    4    0    0  0.18753344300E+02  0.46354621152E+01 -0.13287938038E+02  0.23446635766E+02  0.00000000000E+00 0.  1.
</event>
<event>
 8    1  0.1269154E-006  0.9118800E+02  0.7816164E-02  0.1184000E+00
        -11   -1    0    0    0    0  0.00000000000E+00  0.00000000000E+00  0.45593999997E+02  0.45594000000E+02  0.51100000000E-03 0.  1.
         11   -1    0    0    0    0 -0.00000000000E+00 -0.00000000000E+00 -0.45593999997E+02  0.45594000000E+02  0.51100000000E-03 0. -1.
         23    2    1    2    0    0 -0.44408920985E-15  0.17763568394E-14 -0.71054273576E-14  0.91188000000E+02  0.91188000000E+02 0.  0.
    9900012    2    3    3    0    0 -0.24981052425E+01 -0.14424508063E+02  0.33785636503E+02  0.54367133680E+02  0.40000112849E+02 0.  0.
         12    1    3    3    0    0  0.24981052425E+01  0.14424508063E+02 -0.33785636503E+02  0.36820866320E+02  0.00000000000E+00 0. -1.
         11    1    4    4    0    0 -0.82232785670E+01 -0.90788017882E+01 -0.47467095427E+01  0.13136902376E+02  0.51100000000E-03 0. -1.
        -11    1    4    4    0    0  0.34100193472E+01 -0.89707740421E+01  0.32006612026E+02  0.33414461428E+02  0.51100000000E-03 0.  1.
         12    1    4    4    0    0  0.23151539773E+01  0.36250677672E+01  0.65257340198E+01  0.78157698759E+01  0.00000000000E+00 0. -1.
</event>
<event>
 8    1  0.1269154E-006  0.9118800E+02  0.7816164E-02  0.1184000E+00
        -11   -1    0    0    0    0  0.00000000000E+00  0.00000000000E+00  0.45593999997E+02  0.45594000000E+02  0.51100000000E-03 0. -1.
         11   -1    0    0    0    0 -0.00000000000E+00 -0.00000000000E+00 -0.45593999997E+02  0.45594000000E+02  0.51100000000E-03 0.  1.
         23    2    1    2    0    0 -0.88817841970E-15  0.35527136788E-14  0.00000000000E+00  0.91188000000E+02  0.91188000000E+02 0.  0.
    9900012    2    3    3    0    0  0.62972174639E+01 -0.24000970031E+02 -0.27204430265E+02  0.54367047592E+02  0.39999916594E+02 0.  0.
         12    1    3    3    0    0 -0.62972174639E+01  0.24000970031E+02  0.27204430265E+02  0.36820952408E+02  0.00000000000E+00 0. -1.
         11    1    4    4    0    0 -0.52707884640E+01  0.12285084636E+00  0.18816017336E+01  0.55979218204E+01  0.51100000000E-03 0. -1.
        -11    1    4    4    0    0 -0.23178965444E+01  0.55934864091E+01 -0.68436234808E+01  0.91375553190E+01  0.51100000000E-03 0.  1.
        -12    1    4    4    0    0  0.13885902472E+02 -0.29717307286E+02 -0.22242408518E+02  0.39631570452E+02  0.00000000000E+00 0.  1.
</event>
<event>
 8    1  0.1269154E-006  0.9118800E+02  0.7816164E-02  0.1184000E+00
        -11   -1    0    0    0    0  0.00000000000E+00  0.00000000000E+00  0.45593999997E+02  0.45594000000E+02  0.51100000000E-03 0.  1.
         11   -1    0    0    0    0 -0.00000000000E+00 -0.00000000000E+00 -0.45593999997E+02  0.45594000000E+02  0.51100000000E-03 0. -1.
         23    2    1    2    0    0 -0.13322676296E-14 -0.26645352591E-14  0.71054273576E-14  0.91188000000E+02  0.91188000000E+02 0.  0.
    9900012    2    3    3    0    0 -0.70302903416E+00  0.67334330965E+01 -0.36193163875E+02  0.54367102640E+02  0.40000042089E+02 0.  0.
        -12    1    3    3    0    0  0.70302903416E+00 -0.67334330965E+01  0.36193163875E+02  0.36820897360E+02  0.00000000000E+00 0.  1.
         11    1    4    4    0    0 -0.94839176103E+01  0.92412748623E+01 -0.19666397988E+02  0.23708923729E+02  0.51100000000E-03 0. -1.
        -11    1    4    4    0    0 -0.64326767149E+01  0.88541039556E+00 -0.13213176823E+02  0.14722476806E+02  0.51100000000E-03 0.  1.
        -12    1    4    4    0    0  0.15213565291E+02 -0.33932521613E+01 -0.33135890639E+01  0.15935702105E+02  0.00000000000E+00 0.  1.
</event>
<event>
 8    1  0.1269154E-006  0.9118800E+02  0.7816164E-02  0.1184000E+00
        -11   -1    0    0    0    0  0.00000000000E+00  0.00000000000E+00  0.45593999997E+02  0.45594000000E+02  0.51100000000E-03 0. -1.
         11   -1    0    0    0    0 -0.00000000000E+00 -0.00000000000E+00 -0.45593999997E+02  0.45594000000E+02  0.51100000000E-03 0.  1.
         23    2    1    2    0    0  0.00000000000E+00  0.35527136788E-14  0.00000000000E+00  0.91188000000E+02  0.91188000000E+02 0.  0.
    9900012    2    3    3    0    0 -0.14102798765E+02 -0.28538694280E+02  0.18504961949E+02  0.54367087179E+02  0.40000006843E+02 0.  0.
        -12    1    3    3    0    0  0.14102798765E+02  0.28538694280E+02 -0.18504961949E+02  0.36820912821E+02  0.00000000000E+00 0.  1.
         11    1    4    4    0    0 -0.48988262283E+01 -0.75306652910E+01  0.12188904827E+00  0.89846689054E+01  0.51100000000E-03 0. -1.
        -11    1    4    4    0    0 -0.15161821742E+02 -0.26886827605E+01 -0.39421332011E+01  0.15894976186E+02  0.51100000000E-03 0.  1.
        -12    1    4    4    0    0  0.59578492055E+01 -0.18319346229E+02  0.22325206102E+02  0.29487442088E+02  0.00000000000E+00 0.  1.
</event>
<event>
 8    1  0.1269154E-006  0.9118800E+02  0.7816164E-02  0.1184000E+00
        -11   -1    0    0    0    0  0.00000000000E+00  0.00000000000E+00  0.45593999997E+02  0.45594000000E+02  0.51100000000E-03 0. -1.
         11   -1    0    0    0    0 -0.00000000000E+00 -0.00000000000E+00 -0.45593999997E+02  0.45594000000E+02  0.51100000000E-03 0.  1.
         23    2    1    2    0    0  0.17763568394E-14  0.00000000000E+00  0.71054273576E-14  0.91188000000E+02  0.91188000000E+02 0.  0.
    9900012    2    3    3    0    0  0.13029028443E+02  0.19019899870E+02 -0.28710062826E+02  0.54367083652E+02  0.39999998802E+02 0.  0.
         12    1    3    3    0    0 -0.13029028443E+02 -0.19019899870E+02  0.28710062826E+02  0.36820916348E+02  0.00000000000E+00 0. -1.
         11    1    4    4    0    0 -0.23586453611E+01 -0.59600258690E+00  0.58638165265E+01  0.63484463879E+01  0.51100000000E-03 0. -1.
        -11    1    4    4    0    0  0.99843967124E+01  0.23864159751E+02 -0.23300904003E+02  0.34815491177E+02  0.51100000000E-03 0.  1.
         12    1    4    4    0    0  0.54032770919E+01 -0.42482572936E+01 -0.11272975349E+02  0.13203146087E+02  0.00000000000E+00 0. -1.
</event>
<event>
 8    1  0.1269154E-006  0.9118800E+02  0.7816164E-02  0.1184000E+00
        -11   -1    0    0    0    0  0.00000000000E+00  0.00000000000E+00  0.45593999997E+02  0.45594000000E+02  0.51100000000E-03 0.  1.
         11   -1    0    0    0    0 -0.00000000000E+00 -0.00000000000E+00 -0.45593999997E+02  0.45594000000E+02  0.51100000000E-03 0. -1.
         23    2    1    2    0    0  0.00000000000E+00  0.17763568394E-14  0.35527136788E-14  0.91188000000E+02  0.91188000000E+02 0.  0.
    9900012    2    3    3    0    0  0.30412969622E+02 -0.13273156612E+02 -0.15957905949E+02  0.54367079725E+02  0.39999989848E+02 0.  0.
        -12    1    3    3    0    0 -0.30412969622E+02  0.13273156612E+02  0.15957905949E+02  0.36820920275E+02  0.00000000000E+00 0.  1.
         11    1    4    4    0    0  0.16742841762E+02 -0.61130345696E+01 -0.15666970725E+02  0.23730695605E+02  0.51100000000E-03 0. -1.
        -11    1    4    4    0    0  0.98228205715E+00 -0.63930025453E+01 -0.11821116372E+02  0.13474945347E+02  0.51100000000E-03 0.  1.
        -12    1    4    4    0    0  0.12687845803E+02 -0.76711949696E+00  0.11530181148E+02  0.17161438773E+02  0.00000000000E+00 0.  1.
</event>
<event>
 8    1  0.1269154E-006  0.9118800E+02  0.7816164E-02  0.1184000E+00
        -11   -1    0    0    0    0  0.00000000000E+00  0.00000000000E+00  0.45593999997E+02  0.45594000000E+02  0.51100000000E-03 0. -1.
         11   -1    0    0    0    0 -0.00000000000E+00 -0.00000000000E+00 -0.45593999997E+02  0.45594000000E+02  0.51100000000E-03 0.  1.
         23    2    1    2    0    0  0.00000000000E+00  0.35527136788E-14 -0.17763568394E-14  0.91188000000E+02  0.91188000000E+02 0.  0.
    9900012    2    3    3    0    0  0.19941350133E+02 -0.29793425669E+02  0.83948515575E+01  0.54367093019E+02  0.40000020155E+02 0.  0.
        -12    1    3    3    0    0 -0.19941350133E+02  0.29793425669E+02 -0.83948515575E+01  0.36820906981E+02  0.00000000000E+00 0.  1.
         11    1    4    4    0    0  0.89652554018E+01 -0.31569802879E+02  0.82379432394E+01  0.33836252264E+02  0.51100000000E-03 0. -1.
        -11    1    4    4    0    0 -0.47312019270E+01  0.59919899636E+00  0.30582012712E+00  0.47787903619E+01  0.51100000000E-03 0.  1.
         12    1    4    4    0    0  0.15707296658E+02  0.11771782129E+01 -0.14891180902E+00  0.15752050393E+02  0.00000000000E+00 0. -1.
</event>
<event>
 8    1  0.1269154E-006  0.9118800E+02  0.7816164E-02  0.1184000E+00
        -11   -1    0    0    0    0  0.00000000000E+00  0.00000000000E+00  0.45593999997E+02  0.45594000000E+02  0.51100000000E-03 0. -1.
         11   -1    0    0    0    0 -0.00000000000E+00 -0.00000000000E+00 -0.45593999997E+02  0.45594000000E+02  0.51100000000E-03 0.  1.
         23    2    1    2    0    0  0.71054273576E-14 -0.17763568394E-14  0.88817841970E-15  0.91188000000E+02  0.91188000000E+02 0.  0.
    9900012    2    3    3    0    0  0.36208164957E+02 -0.28799616252E+01  0.60381399678E+01  0.54367020616E+02  0.39999855099E+02 0.  0.
         12    1    3    3    0    0 -0.36208164957E+02  0.28799616252E+01 -0.60381399678E+01  0.36820979384E+02  0.00000000000E+00 0. -1.
         11    1    4    4    0    0  0.97132213432E+01 -0.15649107738E+02  0.96699787444E+01  0.20802637598E+02  0.51100000000E-03 0. -1.
        -11    1    4    4    0    0  0.16455963683E+02  0.12088040687E+02 -0.88216332984E+01  0.22242766975E+02  0.51100000000E-03 0.  1.
        -12    1    4    4    0    0  0.10038979931E+02  0.68110542619E+00  0.51897945218E+01  0.11321616043E+02  0.00000000000E+00 0.  1.
</event>
<event>
 8    1  0.1269154E-006  0.9118800E+02  0.7816164E-02  0.1184000E+00
        -11   -1    0    0    0    0  0.00000000000E+00  0.00000000000E+00  0.45593999997E+02  0.45594000000E+02  0.51100000000E-03 0.  1.
         11   -1    0    0    0    0 -0.00000000000E+00 -0.00000000000E+00 -0.45593999997E+02  0.45594000000E+02  0.51100000000E-03 0. -1.
         23    2    1    2    0    0  0.35527136788E-14 -0.17763568394E-14  0.35527136788E-14  0.91188000000E+02  0.91188000000E+02 0.  0.
    9900012    2    3    3    0    0 -0.27791508993E+02  0.15672455391E+02 -0.18379003192E+02  0.54367060462E+02  0.39999945935E+02 0.  0.
        -12    1    3    3    0    0  0.27791508993E+02 -0.15672455391E+02  0.18379003192E+02  0.36820939538E+02  0.00000000000E+00 0.  1.
         11    1    4    4    0    0 -0.13501121018E+02 -0.21812605938E+01 -0.13431387399E+02  0.19168733246E+02  0.51100000000E-03 0. -1.
        -11    1    4    4    0    0 -0.11697085893E+02  0.14235035073E+02 -0.15287410501E+02  0.23940822083E+02  0.51100000000E-03 0.  1.
        -12    1    4    4    0    0 -0.25933020825E+01  0.36186809116E+01  0.10339794708E+02  0.11257505133E+02  0.00000000000E+00 0.  1.
</event>
<event>
 8    1  0.1269154E-006  0.9118800E+02  0.7816164E-02  0.1184000E+00
        -11   -1    0    0    0    0  0.00000000000E+00  0.00000000000E+00  0.45593999997E+02  0.45594000000E+02  0.51100000000E-03 0. -1.
         11   -1    0    0    0    0 -0.00000000000E+00 -0.00000000000E+00 -0.45593999997E+02  0.45594000000E+02  0.51100000000E-03 0.  1.
         23    2    1    2    0    0  0.17763568394E-14  0.00000000000E+00  0.00000000000E+00  0.91188000000E+02  0.91188000000E+02 0.  0.
    9900012    2    3    3    0    0  0.12343719632E+02 -0.32392494436E+02 -0.12415279897E+02  0.54367078161E+02  0.39999986285E+02 0.  0.
         12    1    3    3    0    0 -0.12343719632E+02  0.32392494436E+02  0.12415279897E+02  0.36820921839E+02  0.00000000000E+00 0. -1.
         11    1    4    4    0    0 -0.40459955276E+00 -0.14962389183E+02  0.86788686273E+01  0.17302010050E+02  0.51100000000E-03 0. -1.
        -11    1    4    4    0    0 -0.38142081707E+01 -0.77049359361E+01 -0.14312747418E+02  0.16696375674E+02  0.51100000000E-03 0.  1.
        -12    1    4    4    0    0  0.16562527355E+02 -0.97251693165E+01 -0.67814011064E+01  0.20368692437E+02  0.00000000000E+00 0.  1.
</event>
<event>
 8    1  0.1269154E-006  0.9118800E+02  0.7816164E-02  0.1184000E+00
        -11   -1    0    0    0    0  0.00000000000E+00  0.00000000000E+00  0.45593999997E+02  0.45594000000E+02  0.51100000000E-03 0.  1.
         11   -1    0    0    0    0 -0.00000000000E+00 -0.00000000000E+00 -0.45593999997E+02  0.45594000000E+02  0.51100000000E-03 0. -1.
         23    2    1    2    0    0  0.00000000000E+00 -0.17763568394E-14  0.35527136788E-14  0.91188000000E+02  0.91188000000E+02 0.  0.
    9900012    2    3    3    0    0  0.22489153215E+02  0.10861002868E+01 -0.29134824564E+02  0.54367087077E+02  0.40000006609E+02 0.  0.
        -12    1    3    3    0    0 -0.22489153215E+02 -0.10861002868E+01  0.29134824564E+02  0.36820912923E+02  0.00000000000E+00 0.  1.
         11    1    4    4    0    0  0.36386879051E+01  0.16195229141E+02 -0.66199393572E+01  0.17870341182E+02  0.51100000000E-03 0. -1.
        -11    1    4    4    0    0  0.78375932815E+01 -0.58114720402E+01 -0.19452193328E+02  0.21762097814E+02  0.51100000000E-03 0.  1.
         12    1    4    4    0    0  0.11012872028E+02 -0.92976568137E+01 -0.30626918783E+01  0.14734648081E+02  0.00000000000E+00 0. -1.
</event>
<event>
 8    1  0.1269154E-006  0.9118800E+02  0.7816164E-02  0.1184000E+00
        -11   -1    0    0    0    0  0.00000000000E+00  0.00000000000E+00  0.45593999997E+02  0.45594000000E+02  0.51100000000E-03 0. -1.
         11   -1    0    0    0    0 -0.00000000000E+00 -0.00000000000E+00 -0.45593999997E+02  0.45594000000E+02  0.51100000000E-03 0.  1.
         23    2    1    2    0    0  0.00000000000E+00  0.35527136788E-14 -0.88817841970E-15  0.91188000000E+02  0.91188000000E+02 0.  0.
    9900012    2    3    3    0    0  0.33571903330E+02 -0.13481228134E+02 -0.68530060451E+01  0.54367083430E+02  0.39999998296E+02 0.  0.
         12    1    3    3    0    0 -0.33571903330E+02  0.13481228134E+02  0.68530060451E+01  0.36820916570E+02  0.00000000000E+00 0. -1.
         11    1    4    4    0    0  0.10053249535E+01 -0.74500715027E+01 -0.34114332021E+00  0.75253320647E+01  0.51100000000E-03 0. -1.
        -11    1    4    4    0    0  0.88134818117E+01  0.10823349875E+02  0.59362745470E+01  0.15167785597E+02  0.51100000000E-03 0.  1.
        -12    1    4    4    0    0  0.23753096565E+02 -0.16854506506E+02 -0.12448137272E+02  0.31673965769E+02  0.00000000000E+00 0.  1.
</event>
<event>
 8    1  0.1269154E-006  0.9118800E+02  0.7816164E-02  0.1184000E+00
        -11   -1    0    0    0    0  0.00000000000E+00  0.00000000000E+00  0.45593999997E+02  0.45594000000E+02  0.51100000000E-03 0.  1.
         11   -1    0    0    0    0 -0.00000000000E+00 -0.00000000000E+00 -0.45593999997E+02  0.45594000000E+02  0.51100000000E-03 0. -1.
         23    2    1    2    0    0  0.00000000000E+00 -0.35527136788E-14 -0.49960036108E-15  0.91188000000E+02  0.91188000000E+02 0.  0.
    9900012    2    3    3    0    0  0.23161622077E+02 -0.28619479769E+02 -0.49245509917E+00  0.54367110935E+02  0.40000060999E+02 0.  0.
        -12    1    3    3    0    0 -0.23161622077E+02  0.28619479769E+02  0.49245509917E+00  0.36820889065E+02  0.00000000000E+00 0.  1.
         11    1    4    4    0    0  0.11950474088E+02 -0.25682835747E+02 -0.42427865031E+01  0.28643029178E+02  0.51100000000E-03 0. -1.
        -11    1    4    4    0    0  0.26423907579E+01 -0.61546329226E+01  0.11778087415E+02  0.13549357134E+02  0.51100000000E-03 0.  1.
         12    1    4    4    0    0  0.85687572314E+01  0.32179889009E+01 -0.80277560115E+01  0.12174724623E+02  0.00000000000E+00 0. -1.
</event>
<event>
 8    1  0.1269154E-006  0.9118800E+02  0.7816164E-02  0.1184000E+00
        -11   -1    0    0    0    0  0.00000000000E+00  0.00000000000E+00  0.45593999997E+02  0.45594000000E+02  0.51100000000E-03 0. -1.
         11   -1    0    0    0    0 -0.00000000000E+00 -0.00000000000E+00 -0.45593999997E+02  0.45594000000E+02  0.51100000000E-03 0.  1.
         23    2    1    2    0    0 -0.35527136788E-14  0.88817841970E-15 -0.35527136788E-14  0.91188000000E+02  0.91188000000E+02 0.  0.
    9900012    2    3    3    0    0 -0.26015913957E+02  0.70272600093E+01 -0.25091213150E+02  0.54367093716E+02  0.40000021744E+02 0.  0.
        -12    1    3    3    0    0  0.26015913957E+02 -0.70272600093E+01  0.25091213150E+02  0.36820906284E+02  0.00000000000E+00 0.  1.
         11    1    4    4    0    0 -0.13353511747E+01  0.18941464735E+01 -0.14776930976E+02  0.14957561397E+02  0.51100000000E-03 0.  1.
        -11    1    4    4    0    0 -0.16088665617E+02  0.16985870101E+02 -0.62239701363E+01  0.24209559041E+02  0.51100000000E-03 0. -1.
         12    1    4    4    0    0 -0.85918971648E+01 -0.11852756565E+02 -0.40903120375E+01  0.15199973278E+02  0.00000000000E+00 0. -1.
</event>
<event>
 8    1  0.1269154E-006  0.9118800E+02  0.7816164E-02  0.1184000E+00
        -11   -1    0    0    0    0  0.00000000000E+00  0.00000000000E+00  0.45593999997E+02  0.45594000000E+02  0.51100000000E-03 0. -1.
         11   -1    0    0    0    0 -0.00000000000E+00 -0.00000000000E+00 -0.45593999997E+02  0.45594000000E+02  0.51100000000E-03 0.  1.
         23    2    1    2    0    0 -0.17763568394E-14 -0.88817841970E-15  0.00000000000E+00  0.91188000000E+02  0.91188000000E+02 0.  0.
    9900012    2    3    3    0    0 -0.15261161687E+02 -0.60103293973E+01  0.32965945242E+02  0.54367073054E+02  0.39999974640E+02 0.  0.
        -12    1    3    3    0    0  0.15261161687E+02  0.60103293973E+01 -0.32965945242E+02  0.36820926946E+02  0.00000000000E+00 0.  1.
         11    1    4    4    0    0 -0.72061494465E+01 -0.14096061693E+02  0.11179845847E+02  0.19380828117E+02  0.51100000000E-03 0.  1.
        -11    1    4    4    0    0 -0.83261266985E+00 -0.87148354608E+01  0.96978903251E+01  0.13064864254E+02  0.51100000000E-03 0. -1.
         12    1    4    4    0    0 -0.72223995704E+01  0.16800567756E+02  0.12088209070E+02  0.21921380682E+02  0.00000000000E+00 0. -1.
</event>
<event>
 8    1  0.1269154E-006  0.9118800E+02  0.7816164E-02  0.1184000E+00
        -11   -1    0    0    0    0  0.00000000000E+00  0.00000000000E+00  0.45593999997E+02  0.45594000000E+02  0.51100000000E-03 0.  1.
         11   -1    0    0    0    0 -0.00000000000E+00 -0.00000000000E+00 -0.45593999997E+02  0.45594000000E+02  0.51100000000E-03 0. -1.
         23    2    1    2    0    0  0.00000000000E+00 -0.71054273576E-14 -0.17763568394E-14  0.91188000000E+02  0.91188000000E+02 0.  0.
    9900012    2    3    3    0    0 -0.22630299838E+02 -0.27288876947E+02 -0.99481498992E+01  0.54367096124E+02  0.40000027235E+02 0.  0.
         12    1    3    3    0    0  0.22630299838E+02  0.27288876947E+02  0.99481498992E+01  0.36820903876E+02  0.00000000000E+00 0. -1.
         11    1    4    4    0    0  0.37173609138E+01 -0.84177215798E+01 -0.83950833226E+01  0.12456092205E+02  0.51100000000E-03 0. -1.
        -11    1    4    4    0    0 -0.10056920998E+02  0.55887343647E+01  0.36396743979E+01  0.12067428962E+02  0.51100000000E-03 0.  1.
        -12    1    4    4    0    0 -0.16290739754E+02 -0.24459889732E+02 -0.51927409744E+01  0.29843574958E+02  0.00000000000E+00 0.  1.
</event>
<event>
 8    1  0.1269154E-006  0.9118800E+02  0.7816164E-02  0.1184000E+00
        -11   -1    0    0    0    0  0.00000000000E+00  0.00000000000E+00  0.45593999997E+02  0.45594000000E+02  0.51100000000E-03 0.  1.
         11   -1    0    0    0    0 -0.00000000000E+00 -0.00000000000E+00 -0.45593999997E+02  0.45594000000E+02  0.51100000000E-03 0. -1.
         23    2    1    2    0    0  0.71054273576E-14 -0.17763568394E-14  0.17763568394E-14  0.91188000000E+02  0.91188000000E+02 0.  0.
    9900012    2    3    3    0    0 -0.33590509403E+02 -0.84508840341E+01 -0.12491620385E+02  0.54367077378E+02  0.39999984499E+02 0.  0.
         12    1    3    3    0    0  0.33590509403E+02  0.84508840341E+01  0.12491620385E+02  0.36820922622E+02  0.00000000000E+00 0. -1.
         11    1    4    4    0    0 -0.15036741516E+02  0.14093845634E+02 -0.79117141678E+01  0.22075672164E+02  0.51100000000E-03 0. -1.
        -11    1    4    4    0    0 -0.70399164026E+01 -0.20656131489E+01  0.25048660448E+01  0.77525179651E+01  0.51100000000E-03 0.  1.
         12    1    4    4    0    0 -0.11513851484E+02 -0.20479116519E+02 -0.70847722616E+01  0.24538887249E+02  0.00000000000E+00 0. -1.
</event>
<event>
 8    1  0.1269154E-006  0.9118800E+02  0.7816164E-02  0.1184000E+00
        -11   -1    0    0    0    0  0.00000000000E+00  0.00000000000E+00  0.45593999997E+02  0.45594000000E+02  0.51100000000E-03 0.  1.
         11   -1    0    0    0    0 -0.00000000000E+00 -0.00000000000E+00 -0.45593999997E+02  0.45594000000E+02  0.51100000000E-03 0. -1.
         23    2    1    2    0    0 -0.35527136788E-14 -0.17763568394E-14  0.00000000000E+00  0.91188000000E+02  0.91188000000E+02 0.  0.
    9900012    2    3    3    0    0 -0.28282273646E+02  0.15520528388E+02  0.17748414982E+02  0.54367081510E+02  0.39999993919E+02 0.  0.
         12    1    3    3    0    0  0.28282273646E+02 -0.15520528388E+02 -0.17748414982E+02  0.36820918490E+02  0.00000000000E+00 0. -1.
         11    1    4    4    0    0 -0.16598237432E+02  0.27814042422E+02  0.76283162167E+01  0.33276322668E+02  0.51100000000E-03 0. -1.
        -11    1    4    4    0    0 -0.67385498423E+01 -0.24797222257E+01  0.20843504807E+01  0.74767368204E+01  0.51100000000E-03 0.  1.
         12    1    4    4    0    0 -0.49454863716E+01 -0.98137918087E+01  0.80357482849E+01  0.13614022022E+02  0.00000000000E+00 0. -1.
</event>
<event>
 8    1  0.1269154E-006  0.9118800E+02  0.7816164E-02  0.1184000E+00
        -11   -1    0    0    0    0  0.00000000000E+00  0.00000000000E+00  0.45593999997E+02  0.45594000000E+02  0.51100000000E-03 0.  1.
         11   -1    0    0    0    0 -0.00000000000E+00 -0.00000000000E+00 -0.45593999997E+02  0.45594000000E+02  0.51100000000E-03 0. -1.
         23    2    1    2    0    0  0.17763568394E-14 -0.35527136788E-14  0.00000000000E+00  0.91188000000E+02  0.91188000000E+02 0.  0.
    9900012    2    3    3    0    0 -0.77986957494E+01  0.30873393210E+02  0.18487673687E+02  0.54367080103E+02  0.39999990712E+02 0.  0.
         12    1    3    3    0    0  0.77986957494E+01 -0.30873393210E+02 -0.18487673687E+02  0.36820919897E+02  0.00000000000E+00 0. -1.
         11    1    4    4    0    0 -0.34252688246E+01 -0.11486720972E+01 -0.27596477703E+00  0.36232679899E+01  0.51100000000E-03 0. -1.
        -11    1    4    4    0    0 -0.18758210293E+02  0.22568867039E+02  0.15625144571E+02  0.33247095451E+02  0.51100000000E-03 0.  1.
         12    1    4    4    0    0  0.14384783368E+02  0.94531982678E+01  0.31384938930E+01  0.17496716662E+02  0.00000000000E+00 0. -1.
</event>
<event>
 8    1  0.1269154E-006  0.9118800E+02  0.7816164E-02  0.1184000E+00
        -11   -1    0    0    0    0  0.00000000000E+00  0.00000000000E+00  0.45593999997E+02  0.45594000000E+02  0.51100000000E-03 0.  1.
         11   -1    0    0    0    0 -0.00000000000E+00 -0.00000000000E+00 -0.45593999997E+02  0.45594000000E+02  0.51100000000E-03 0. -1.
         23    2    1    2    0    0 -0.17763568394E-14  0.88817841970E-15  0.71054273576E-14  0.91188000000E+02  0.91188000000E+02 0.  0.
    9900012    2    3    3    0    0 -0.14806991469E+02  0.49375080618E+01  0.33348970113E+02  0.54367084886E+02  0.40000001614E+02 0.  0.
         12    1    3    3    0    0  0.14806991469E+02 -0.49375080618E+01 -0.33348970113E+02  0.36820915114E+02  0.00000000000E+00 0. -1.
         11    1    4    4    0    0 -0.13781038049E+01 -0.36153354107E+01  0.66116452872E+01  0.76605269984E+01  0.51100000000E-03 0.  1.
        -11    1    4    4    0    0 -0.12369127245E+02 -0.56094998278E+01 -0.28588580546E+01  0.13879296335E+02  0.51100000000E-03 0. -1.
         12    1    4    4    0    0 -0.10597604195E+01  0.14162343300E+02  0.29596182881E+02  0.32827261552E+02  0.00000000000E+00 0. -1.
</event>
<event>
 8    1  0.1269154E-006  0.9118800E+02  0.7816164E-02  0.1184000E+00
        -11   -1    0    0    0    0  0.00000000000E+00  0.00000000000E+00  0.45593999997E+02  0.45594000000E+02  0.51100000000E-03 0.  1.
         11   -1    0    0    0    0 -0.00000000000E+00 -0.00000000000E+00 -0.45593999997E+02  0.45594000000E+02  0.51100000000E-03 0. -1.
         23    2    1    2    0    0  0.00000000000E+00  0.88817841970E-15  0.35527136788E-14  0.91188000000E+02  0.91188000000E+02 0.  0.
    9900012    2    3    3    0    0  0.31160235675E+02 -0.60117620995E+01  0.18672911884E+02  0.54367092772E+02  0.40000019592E+02 0.  0.
         12    1    3    3    0    0 -0.31160235675E+02  0.60117620995E+01 -0.18672911884E+02  0.36820907228E+02  0.00000000000E+00 0. -1.
         11    1    4    4    0    0  0.26462223468E+02 -0.74176479051E+01  0.13765486015E+02  0.30736938313E+02  0.51100000000E-03 0. -1.
        -11    1    4    4    0    0  0.64521507208E+00 -0.18286465366E+01  0.13475985472E+02  0.13614787378E+02  0.51100000000E-03 0.  1.
         12    1    4    4    0    0  0.40527971346E+01  0.32345323422E+01 -0.85685596035E+01  0.10015367081E+02  0.00000000000E+00 0. -1.
</event>
<event>
 8    1  0.1269154E-006  0.9118800E+02  0.7816164E-02  0.1184000E+00
        -11   -1    0    0    0    0  0.00000000000E+00  0.00000000000E+00  0.45593999997E+02  0.45594000000E+02  0.51100000000E-03 0.  1.
         11   -1    0    0    0    0 -0.00000000000E+00 -0.00000000000E+00 -0.45593999997E+02  0.45594000000E+02  0.51100000000E-03 0. -1.
         23    2    1    2    0    0  0.00000000000E+00 -0.35527136788E-14  0.00000000000E+00  0.91188000000E+02  0.91188000000E+02 0.  0.
    9900012    2    3    3    0    0 -0.69038547201E+01 -0.31224741942E+02  0.18251913871E+02  0.54367080956E+02  0.39999992654E+02 0.  0.
         12    1    3    3    0    0  0.69038547201E+01  0.31224741942E+02 -0.18251913871E+02  0.36820919044E+02  0.00000000000E+00 0. -1.
         11    1    4    4    0    0 -0.40067990969E+01  0.37056355209E+01  0.11240709486E+02  0.12495588167E+02  0.51100000000E-03 0. -1.
        -11    1    4    4    0    0 -0.94987477905E+01 -0.15950671282E+02  0.10719256498E+02  0.21437177614E+02  0.51100000000E-03 0.  1.
         12    1    4    4    0    0  0.66016921673E+01 -0.18979706181E+02 -0.37080521134E+01  0.20434315175E+02  0.00000000000E+00 0. -1.
</event>
<event>
 8    1  0.1269154E-006  0.9118800E+02  0.7816164E-02  0.1184000E+00
        -11   -1    0    0    0    0  0.00000000000E+00  0.00000000000E+00  0.45593999997E+02  0.45594000000E+02  0.51100000000E-03 0. -1.
         11   -1    0    0    0    0 -0.00000000000E+00 -0.00000000000E+00 -0.45593999997E+02  0.45594000000E+02  0.51100000000E-03 0.  1.
         23    2    1    2    0    0  0.00000000000E+00 -0.88817841970E-15  0.35527136788E-14  0.91188000000E+02  0.91188000000E+02 0.  0.
    9900012    2    3    3    0    0 -0.27526794484E+02 -0.71350623457E+01  0.23391157244E+02  0.54367085203E+02  0.40000002338E+02 0.  0.
        -12    1    3    3    0    0  0.27526794484E+02  0.71350623457E+01 -0.23391157244E+02  0.36820914797E+02  0.00000000000E+00 0.  1.
         11    1    4    4    0    0 -0.11249725219E+01 -0.72799714618E+01  0.39493996864E+00  0.73769590957E+01  0.51100000000E-03 0. -1.
        -11    1    4    4    0    0  0.13779573203E+01 -0.93231601369E+01 -0.43588540249E+00  0.94345152318E+01  0.51100000000E-03 0.  1.
         12    1    4    4    0    0 -0.27779779282E+02  0.94680692530E+01  0.23432102678E+02  0.37555610876E+02  0.00000000000E+00 0. -1.
</event>
<event>
 8    1  0.1269154E-006  0.9118800E+02  0.7816164E-02  0.1184000E+00
        -11   -1    0    0    0    0  0.00000000000E+00  0.00000000000E+00  0.45593999997E+02  0.45594000000E+02  0.51100000000E-03 0. -1.
         11   -1    0    0    0    0 -0.00000000000E+00 -0.00000000000E+00 -0.45593999997E+02  0.45594000000E+02  0.51100000000E-03 0.  1.
         23    2    1    2    0    0  0.00000000000E+00  0.35527136788E-14 -0.17763568394E-14  0.91188000000E+02  0.91188000000E+02 0.  0.
    9900012    2    3    3    0    0  0.19575050054E+02 -0.26845283323E+02 -0.15872269531E+02  0.54367071693E+02  0.39999971538E+02 0.  0.
         12    1    3    3    0    0 -0.19575050054E+02  0.26845283323E+02  0.15872269531E+02  0.36820928307E+02  0.00000000000E+00 0. -1.
         11    1    4    4    0    0  0.55428433020E+00 -0.46488941783E+01 -0.20409179836E+02  0.20939294879E+02  0.51100000000E-03 0. -1.
        -11    1    4    4    0    0  0.12958323211E+02 -0.23573669438E+02  0.37895530371E+01  0.27166095482E+02  0.51100000000E-03 0.  1.
         12    1    4    4    0    0  0.60624425123E+01  0.13772802932E+01  0.74735726710E+00  0.62616813322E+01  0.00000000000E+00 0. -1.
</event>
<event>
 8    1  0.1269154E-006  0.9118800E+02  0.7816164E-02  0.1184000E+00
        -11   -1    0    0    0    0  0.00000000000E+00  0.00000000000E+00  0.45593999997E+02  0.45594000000E+02  0.51100000000E-03 0.  1.
         11   -1    0    0    0    0 -0.00000000000E+00 -0.00000000000E+00 -0.45593999997E+02  0.45594000000E+02  0.51100000000E-03 0. -1.
         23    2    1    2    0    0  0.35527136788E-14  0.00000000000E+00  0.00000000000E+00  0.91188000000E+02  0.91188000000E+02 0.  0.
    9900012    2    3    3    0    0 -0.23182473981E+02  0.22411408002E+02  0.17778679978E+02  0.54367085151E+02  0.40000002220E+02 0.  0.
         12    1    3    3    0    0  0.23182473981E+02 -0.22411408002E+02 -0.17778679978E+02  0.36820914849E+02  0.00000000000E+00 0. -1.
         11    1    4    4    0    0 -0.16852678739E+02  0.11336141646E+02 -0.11038613694E+01  0.20340585003E+02  0.51100000000E-03 0. -1.
        -11    1    4    4    0    0 -0.13671860106E+02  0.14614204288E+02  0.11823720880E+02  0.23244248782E+02  0.51100000000E-03 0.  1.
        -12    1    4    4    0    0  0.73420648631E+01 -0.35389379318E+01  0.70588204670E+01  0.10782251366E+02  0.00000000000E+00 0.  1.
</event>
<event>
 8    1  0.1269154E-006  0.9118800E+02  0.7816164E-02  0.1184000E+00
        -11   -1    0    0    0    0  0.00000000000E+00  0.00000000000E+00  0.45593999997E+02  0.45594000000E+02  0.51100000000E-03 0.  1.
         11   -1    0    0    0    0 -0.00000000000E+00 -0.00000000000E+00 -0.45593999997E+02  0.45594000000E+02  0.51100000000E-03 0. -1.
         23    2    1    2    0    0  0.00000000000E+00  0.00000000000E+00  0.00000000000E+00  0.91188000000E+02  0.91188000000E+02 0.  0.
    9900012    2    3    3    0    0  0.29965763093E+02  0.21220296659E+02  0.27443119956E+01  0.54367092945E+02  0.40000019987E+02 0.  0.
        -12    1    3    3    0    0 -0.29965763093E+02 -0.21220296659E+02 -0.27443119956E+01  0.36820907055E+02  0.00000000000E+00 0.  1.
         11    1    4    4    0    0  0.19743783852E+02  0.41041898127E-01 -0.69117299511E+01  0.20918668609E+02  0.51100000000E-03 0. -1.
        -11    1    4    4    0    0  0.17759131347E+00  0.17893950245E+02 -0.16519316204E+01  0.17970917405E+02  0.51100000000E-03 0.  1.
        -12    1    4    4    0    0  0.10044387928E+02  0.32853045159E+01  0.11307973567E+02  0.15477506931E+02  0.00000000000E+00 0.  1.
</event>
<event>
 8    1  0.1269154E-006  0.9118800E+02  0.7816164E-02  0.1184000E+00
        -11   -1    0    0    0    0  0.00000000000E+00  0.00000000000E+00  0.45593999997E+02  0.45594000000E+02  0.51100000000E-03 0. -1.
         11   -1    0    0    0    0 -0.00000000000E+00 -0.00000000000E+00 -0.45593999997E+02  0.45594000000E+02  0.51100000000E-03 0.  1.
         23    2    1    2    0    0  0.17763568394E-14  0.00000000000E+00  0.00000000000E+00  0.91188000000E+02  0.91188000000E+02 0.  0.
    9900012    2    3    3    0    0 -0.13690109863E+02  0.17780537215E+02 -0.29192687499E+02  0.54367087258E+02  0.40000007023E+02 0.  0.
         12    1    3    3    0    0  0.13690109863E+02 -0.17780537215E+02  0.29192687499E+02  0.36820912742E+02  0.00000000000E+00 0. -1.
         11    1    4    4    0    0 -0.11353349822E+02  0.11440821096E+01 -0.50239841005E+01  0.12467874421E+02  0.51100000000E-03 0. -1.
        -11    1    4    4    0    0  0.79692954623E+01  0.19792020032E+02 -0.86910517943E+01  0.23038405081E+02  0.51100000000E-03 0.  1.
        -12    1    4    4    0    0 -0.10306055503E+02 -0.31555649273E+01 -0.15477651605E+02  0.18860807757E+02  0.00000000000E+00 0.  1.
</event>
<event>
 8    1  0.1269154E-006  0.9118800E+02  0.7816164E-02  0.1184000E+00
        -11   -1    0    0    0    0  0.00000000000E+00  0.00000000000E+00  0.45593999997E+02  0.45594000000E+02  0.51100000000E-03 0.  1.
         11   -1    0    0    0    0 -0.00000000000E+00 -0.00000000000E+00 -0.45593999997E+02  0.45594000000E+02  0.51100000000E-03 0. -1.
         23    2    1    2    0    0  0.00000000000E+00 -0.44408920985E-15 -0.35527136788E-14  0.91188000000E+02  0.91188000000E+02 0.  0.
    9900012    2    3    3    0    0  0.22144899497E+02 -0.27807672362E+01 -0.29285679280E+02  0.54367078623E+02  0.39999987337E+02 0.  0.
        -12    1    3    3    0    0 -0.22144899497E+02  0.27807672362E+01  0.29285679280E+02  0.36820921377E+02  0.00000000000E+00 0.  1.
         11    1    4    4    0    0 -0.70503656708E+01 -0.19871600477E+01 -0.40390239860E+01  0.83648177606E+01  0.51100000000E-03 0. -1.
        -11    1    4    4    0    0  0.10229200608E+02  0.86820420496E+01 -0.51489934924E+00  0.13426820951E+02  0.51100000000E-03 0.  1.
        -12    1    4    4    0    0  0.18966064560E+02 -0.94756492381E+01 -0.24731755944E+02  0.32575439912E+02  0.00000000000E+00 0.  1.
</event>
<event>
 8    1  0.1269154E-006  0.9118800E+02  0.7816164E-02  0.1184000E+00
        -11   -1    0    0    0    0  0.00000000000E+00  0.00000000000E+00  0.45593999997E+02  0.45594000000E+02  0.51100000000E-03 0.  1.
         11   -1    0    0    0    0 -0.00000000000E+00 -0.00000000000E+00 -0.45593999997E+02  0.45594000000E+02  0.51100000000E-03 0. -1.
         23    2    1    2    0    0 -0.35527136788E-14 -0.35527136788E-14  0.00000000000E+00  0.91188000000E+02  0.91188000000E+02 0.  0.
    9900012    2    3    3    0    0 -0.24749912468E+02 -0.20291798702E+02  0.18206283988E+02  0.54367027194E+02  0.39999870095E+02 0.  0.
         12    1    3    3    0    0  0.24749912468E+02  0.20291798702E+02 -0.18206283988E+02  0.36820972806E+02  0.00000000000E+00 0. -1.
         11    1    4    4    0    0 -0.14056188190E+02  0.17136952904E+01  0.77986561803E+01  0.16165772993E+02  0.51100000000E-03 0. -1.
        -11    1    4    4    0    0 -0.29426848485E+00 -0.50414328737E+01 -0.90546283136E+01  0.10367686990E+02  0.51100000000E-03 0.  1.
        -12    1    4    4    0    0 -0.10399455793E+02 -0.16964061118E+02  0.19462256121E+02  0.27833567212E+02  0.00000000000E+00 0.  1.
</event>
<event>
 8    1  0.1269154E-006  0.9118800E+02  0.7816164E-02  0.1184000E+00
        -11   -1    0    0    0    0  0.00000000000E+00  0.00000000000E+00  0.45593999997E+02  0.45594000000E+02  0.51100000000E-03 0. -1.
         11   -1    0    0    0    0 -0.00000000000E+00 -0.00000000000E+00 -0.45593999997E+02  0.45594000000E+02  0.51100000000E-03 0.  1.
         23    2    1    2    0    0  0.00000000000E+00  0.88817841970E-15  0.35527136788E-14  0.91188000000E+02  0.91188000000E+02 0.  0.
    9900012    2    3    3    0    0  0.18592108582E+02  0.75773222784E+01 -0.30865788023E+02  0.54367093103E+02  0.40000020346E+02 0.  0.
         12    1    3    3    0    0 -0.18592108582E+02 -0.75773222784E+01  0.30865788023E+02  0.36820906897E+02  0.00000000000E+00 0. -1.
         11    1    4    4    0    0 -0.35566452851E+00  0.86940028684E+01 -0.12542273110E+02  0.15265018774E+02  0.51100000000E-03 0.  1.
        -11    1    4    4    0    0  0.24906194835E+02  0.34335290094E+01 -0.80802238342E+01  0.26408288094E+02  0.51100000000E-03 0. -1.
         12    1    4    4    0    0 -0.59584217240E+01 -0.45502095994E+01 -0.10243291079E+02  0.12693786234E+02  0.00000000000E+00 0. -1.
</event>
<event>
 8    1  0.1269154E-006  0.9118800E+02  0.7816164E-02  0.1184000E+00
        -11   -1    0    0    0    0  0.00000000000E+00  0.00000000000E+00  0.45593999997E+02  0.45594000000E+02  0.51100000000E-03 0. -1.
         11   -1    0    0    0    0 -0.00000000000E+00 -0.00000000000E+00 -0.45593999997E+02  0.45594000000E+02  0.51100000000E-03 0.  1.
         23    2    1    2    0    0  0.00000000000E+00 -0.71054273576E-14 -0.17763568394E-14  0.91188000000E+02  0.91188000000E+02 0.  0.
    9900012    2    3    3    0    0 -0.15358635953E+02  0.33066219912E+02  0.51495348454E+01  0.54367077867E+02  0.39999985614E+02 0.  0.
        -12    1    3    3    0    0  0.15358635953E+02 -0.33066219912E+02 -0.51495348454E+01  0.36820922133E+02  0.00000000000E+00 0.  1.
         11    1    4    4    0    0 -0.73250569785E+01  0.83187450229E+01  0.10400209286E+02  0.15199418803E+02  0.51100000000E-03 0. -1.
        -11    1    4    4    0    0 -0.14862991845E+02  0.26008992633E+02 -0.89951046445E+01  0.31277597929E+02  0.51100000000E-03 0.  1.
        -12    1    4    4    0    0  0.68294128698E+01 -0.12615177445E+01  0.37444302038E+01  0.78900611352E+01  0.00000000000E+00 0.  1.
</event>
<event>
 8    1  0.1269154E-006  0.9118800E+02  0.7816164E-02  0.1184000E+00
        -11   -1    0    0    0    0  0.00000000000E+00  0.00000000000E+00  0.45593999997E+02  0.45594000000E+02  0.51100000000E-03 0.  1.
         11   -1    0    0    0    0 -0.00000000000E+00 -0.00000000000E+00 -0.45593999997E+02  0.45594000000E+02  0.51100000000E-03 0. -1.
         23    2    1    2    0    0  0.00000000000E+00  0.17763568394E-14  0.00000000000E+00  0.91188000000E+02  0.91188000000E+02 0.  0.
    9900012    2    3    3    0    0  0.22828882791E+02  0.15091031238E+02 -0.24634997781E+02  0.54367078922E+02  0.39999988019E+02 0.  0.
        -12    1    3    3    0    0 -0.22828882791E+02 -0.15091031238E+02  0.24634997781E+02  0.36820921078E+02  0.00000000000E+00 0.  1.
         11    1    4    4    0    0  0.70176013283E+01  0.15951860872E+02 -0.86277912612E+01  0.19446011827E+02  0.51100000000E-03 0. -1.
        -11    1    4    4    0    0  0.29701824393E+01 -0.82721994342E-01 -0.20935075265E+02  0.21144885984E+02  0.51100000000E-03 0.  1.
        -12    1    4    4    0    0  0.12841099024E+02 -0.77810763941E+00  0.49278687452E+01  0.13776181111E+02  0.00000000000E+00 0.  1.
</event>
<event>
 8    1  0.1269154E-006  0.9118800E+02  0.7816164E-02  0.1184000E+00
        -11   -1    0    0    0    0  0.00000000000E+00  0.00000000000E+00  0.45593999997E+02  0.45594000000E+02  0.51100000000E-03 0. -1.
         11   -1    0    0    0    0 -0.00000000000E+00 -0.00000000000E+00 -0.45593999997E+02  0.45594000000E+02  0.51100000000E-03 0.  1.
         23    2    1    2    0    0  0.00000000000E+00 -0.35527136788E-14  0.35527136788E-14  0.91188000000E+02  0.91188000000E+02 0.  0.
    9900012    2    3    3    0    0  0.48534328853E+01 -0.29623910105E+02  0.21322442376E+02  0.54367103629E+02  0.40000044343E+02 0.  0.
        -12    1    3    3    0    0 -0.48534328853E+01  0.29623910105E+02 -0.21322442376E+02  0.36820896371E+02  0.00000000000E+00 0.  1.
         11    1    4    4    0    0  0.34610454235E+01  0.46633272311E+01 -0.17049299859E+01  0.60524575840E+01  0.51100000000E-03 0. -1.
        -11    1    4    4    0    0 -0.17902034264E+01  0.38273894395E+01  0.24094943808E+01  0.48640930975E+01  0.51100000000E-03 0.  1.
         12    1    4    4    0    0  0.31825908882E+01 -0.38114626775E+02  0.20617877981E+02  0.43450552948E+02  0.00000000000E+00 0. -1.
</event>
<event>
 8    1  0.1269154E-006  0.9118800E+02  0.7816164E-02  0.1184000E+00
        -11   -1    0    0    0    0  0.00000000000E+00  0.00000000000E+00  0.45593999997E+02  0.45594000000E+02  0.51100000000E-03 0.  1.
         11   -1    0    0    0    0 -0.00000000000E+00 -0.00000000000E+00 -0.45593999997E+02  0.45594000000E+02  0.51100000000E-03 0. -1.
         23    2    1    2    0    0  0.00000000000E+00  0.00000000000E+00 -0.17763568394E-14  0.91188000000E+02  0.91188000000E+02 0.  0.
    9900012    2    3    3    0    0 -0.23549116447E+02  0.25857726244E+02  0.11515133632E+02  0.54367065812E+02  0.39999958131E+02 0.  0.
        -12    1    3    3    0    0  0.23549116447E+02 -0.25857726244E+02 -0.11515133632E+02  0.36820934188E+02  0.00000000000E+00 0.  1.
         11    1    4    4    0    0 -0.75500105950E+01  0.43612099150E+01 -0.86432680925E+01  0.12277169686E+02  0.51100000000E-03 0. -1.
        -11    1    4    4    0    0 -0.40919650338E+01  0.14113519958E+02 -0.30240919006E+01  0.15002691609E+02  0.51100000000E-03 0.  1.
        -12    1    4    4    0    0 -0.11907140818E+02  0.73829963719E+01  0.23182493625E+02  0.27087204517E+02  0.00000000000E+00 0.  1.
</event>
<event>
 8    1  0.1269154E-006  0.9118800E+02  0.7816164E-02  0.1184000E+00
        -11   -1    0    0    0    0  0.00000000000E+00  0.00000000000E+00  0.45593999997E+02  0.45594000000E+02  0.51100000000E-03 0.  1.
         11   -1    0    0    0    0 -0.00000000000E+00 -0.00000000000E+00 -0.45593999997E+02  0.45594000000E+02  0.51100000000E-03 0. -1.
         23    2    1    2    0    0 -0.71054273576E-14  0.00000000000E+00 -0.35527136788E-14  0.91188000000E+02  0.91188000000E+02 0.  0.
    9900012    2    3    3    0    0  0.29935012991E+02 -0.13925441666E+02  0.16302131350E+02  0.54367049240E+02  0.39999920351E+02 0.  0.
         12    1    3    3    0    0 -0.29935012991E+02  0.13925441666E+02 -0.16302131350E+02  0.36820950760E+02  0.00000000000E+00 0. -1.
         11    1    4    4    0    0  0.73283911432E+01 -0.77176616736E+01  0.15088071946E+02  0.18463952279E+02  0.51100000000E-03 0. -1.
        -11    1    4    4    0    0  0.64066087294E+01 -0.24552885608E+01  0.13556779616E+02  0.15194056442E+02  0.51100000000E-03 0.  1.
         12    1    4    4    0    0  0.16200013118E+02 -0.37524914316E+01 -0.12342720212E+02  0.20709040519E+02  0.00000000000E+00 0. -1.
</event>
<event>
 8    1  0.1269154E-006  0.9118800E+02  0.7816164E-02  0.1184000E+00
        -11   -1    0    0    0    0  0.00000000000E+00  0.00000000000E+00  0.45593999997E+02  0.45594000000E+02  0.51100000000E-03 0. -1.
         11   -1    0    0    0    0 -0.00000000000E+00 -0.00000000000E+00 -0.45593999997E+02  0.45594000000E+02  0.51100000000E-03 0.  1.
         23    2    1    2    0    0  0.35527136788E-14  0.00000000000E+00  0.10547118734E-14  0.91188000000E+02  0.91188000000E+02 0.  0.
    9900012    2    3    3    0    0 -0.19035003548E+02  0.31516220402E+02 -0.41877498983E+00  0.54367097227E+02  0.40000029749E+02 0.  0.
         12    1    3    3    0    0  0.19035003548E+02 -0.31516220402E+02  0.41877498983E+00  0.36820902773E+02  0.00000000000E+00 0. -1.
         11    1    4    4    0    0 -0.77497639318E+01 -0.11716023328E+01  0.69932439238E+01  0.10504139844E+02  0.51100000000E-03 0. -1.
        -11    1    4    4    0    0 -0.65709546638E+01  0.36468549100E+02 -0.75554389991E+01  0.37818212245E+02  0.51100000000E-03 0.  1.
        -12    1    4    4    0    0 -0.47142849527E+01 -0.37807263654E+01  0.14342008550E+00  0.60447451382E+01  0.00000000000E+00 0.  1.
</event>
<event>
 8    1  0.1269154E-006  0.9118800E+02  0.7816164E-02  0.1184000E+00
        -11   -1    0    0    0    0  0.00000000000E+00  0.00000000000E+00  0.45593999997E+02  0.45594000000E+02  0.51100000000E-03 0.  1.
         11   -1    0    0    0    0 -0.00000000000E+00 -0.00000000000E+00 -0.45593999997E+02  0.45594000000E+02  0.51100000000E-03 0. -1.
         23    2    1    2    0    0  0.88817841970E-15  0.00000000000E+00  0.00000000000E+00  0.91188000000E+02  0.91188000000E+02 0.  0.
    9900012    2    3    3    0    0  0.68609314788E+01  0.88772346137E+01 -0.35069979940E+02  0.54367066170E+02  0.39999958948E+02 0.  0.
        -12    1    3    3    0    0 -0.68609314788E+01 -0.88772346137E+01  0.35069979940E+02  0.36820933830E+02  0.00000000000E+00 0.  1.
         11    1    4    4    0    0  0.52963319118E+01  0.11780288355E+02 -0.22347616277E+02  0.25811669434E+02  0.51100000000E-03 0. -1.
        -11    1    4    4    0    0  0.72249426509E+01 -0.12390465762E+02 -0.55266815254E+01  0.15371000197E+02  0.51100000000E-03 0.  1.
         12    1    4    4    0    0 -0.56603430839E+01  0.94874120209E+01 -0.71956821376E+01  0.13184396539E+02  0.00000000000E+00 0. -1.
</event>
<event>
 8    1  0.1269154E-006  0.9118800E+02  0.7816164E-02  0.1184000E+00
        -11   -1    0    0    0    0  0.00000000000E+00  0.00000000000E+00  0.45593999997E+02  0.45594000000E+02  0.51100000000E-03 0.  1.
         11   -1    0    0    0    0 -0.00000000000E+00 -0.00000000000E+00 -0.45593999997E+02  0.45594000000E+02  0.51100000000E-03 0. -1.
         23    2    1    2    0    0  0.00000000000E+00  0.88817841970E-15  0.00000000000E+00  0.91188000000E+02  0.91188000000E+02 0.  0.
    9900012    2    3    3    0    0  0.34003889280E+02 -0.56998415302E+01 -0.12923881532E+02  0.54367090268E+02  0.40000013883E+02 0.  0.
         12    1    3    3    0    0 -0.34003889280E+02  0.56998415302E+01  0.12923881532E+02  0.36820909732E+02  0.00000000000E+00 0. -1.
         11    1    4    4    0    0  0.29148880591E+02  0.56435729916E+01 -0.17814210052E+02  0.34624460080E+02  0.51100000000E-03 0. -1.
        -11    1    4    4    0    0  0.91665900950E+01 -0.10795215745E+02  0.15213399533E+01  0.14243508433E+02  0.51100000000E-03 0.  1.
        -12    1    4    4    0    0 -0.43115814054E+01 -0.54819877647E+00  0.33689885666E+01  0.54991217549E+01  0.00000000000E+00 0.  1.
</event>
<event>
 8    1  0.1269154E-006  0.9118800E+02  0.7816164E-02  0.1184000E+00
        -11   -1    0    0    0    0  0.00000000000E+00  0.00000000000E+00  0.45593999997E+02  0.45594000000E+02  0.51100000000E-03 0. -1.
         11   -1    0    0    0    0 -0.00000000000E+00 -0.00000000000E+00 -0.45593999997E+02  0.45594000000E+02  0.51100000000E-03 0.  1.
         23    2    1    2    0    0  0.00000000000E+00  0.00000000000E+00  0.00000000000E+00  0.91188000000E+02  0.91188000000E+02 0.  0.
    9900012    2    3    3    0    0 -0.34876176646E+01  0.12652644845E+02  0.34402467178E+02  0.54367046094E+02  0.39999913181E+02 0.  0.
        -12    1    3    3    0    0  0.34876176646E+01 -0.12652644845E+02 -0.34402467178E+02  0.36820953906E+02  0.00000000000E+00 0.  1.
         11    1    4    4    0    0 -0.32055060053E+01  0.14397099346E+02  0.38435898084E+02  0.41168798867E+02  0.51100000000E-03 0. -1.
        -11    1    4    4    0    0  0.29254767050E+01 -0.46787268870E+01  0.19059078987E+01  0.58379263797E+01  0.51100000000E-03 0.  1.
         12    1    4    4    0    0 -0.32075883644E+01  0.29342723861E+01 -0.59393388045E+01  0.73603208480E+01  0.00000000000E+00 0. -1.
</event>
<event>
 8    1  0.1269154E-006  0.9118800E+02  0.7816164E-02  0.1184000E+00
        -11   -1    0    0    0    0  0.00000000000E+00  0.00000000000E+00  0.45593999997E+02  0.45594000000E+02  0.51100000000E-03 0. -1.
         11   -1    0    0    0    0 -0.00000000000E+00 -0.00000000000E+00 -0.45593999997E+02  0.45594000000E+02  0.51100000000E-03 0.  1.
         23    2    1    2    0    0 -0.44408920985E-15 -0.17763568394E-14  0.00000000000E+00  0.91188000000E+02  0.91188000000E+02 0.  0.
    9900012    2    3    3    0    0  0.13799953983E+01  0.14259535051E+02 -0.33919626618E+02  0.54367084788E+02  0.40000001390E+02 0.  0.
         12    1    3    3    0    0 -0.13799953983E+01 -0.14259535051E+02  0.33919626618E+02  0.36820915212E+02  0.00000000000E+00 0. -1.
         11    1    4    4    0    0  0.77713077701E+01 -0.26985650482E+01 -0.21919637877E+02  0.23412518077E+02  0.51100000000E-03 0. -1.
        -11    1    4    4    0    0 -0.20390284286E+01  0.21169849860E+02 -0.52907374326E+01  0.21916023427E+02  0.51100000000E-03 0.  1.
         12    1    4    4    0    0 -0.43522839432E+01 -0.42117497606E+01 -0.67092513085E+01  0.90385432836E+01  0.00000000000E+00 0. -1.
</event>
<event>
 8    1  0.1269154E-006  0.9118800E+02  0.7816164E-02  0.1184000E+00
        -11   -1    0    0    0    0  0.00000000000E+00  0.00000000000E+00  0.45593999997E+02  0.45594000000E+02  0.51100000000E-03 0.  1.
         11   -1    0    0    0    0 -0.00000000000E+00 -0.00000000000E+00 -0.45593999997E+02  0.45594000000E+02  0.51100000000E-03 0. -1.
         23    2    1    2    0    0  0.00000000000E+00  0.00000000000E+00  0.00000000000E+00  0.91188000000E+02  0.91188000000E+02 0.  0.
    9900012    2    3    3    0    0  0.15508074114E+02  0.16195272171E+02  0.29206042407E+02  0.54367080450E+02  0.39999991502E+02 0.  0.
         12    1    3    3    0    0 -0.15508074114E+02 -0.16195272171E+02 -0.29206042407E+02  0.36820919550E+02  0.00000000000E+00 0. -1.
         11    1    4    4    0    0 -0.16190313194E+01  0.46562500664E+01 -0.79643617615E+01  0.93665887933E+01  0.51100000000E-03 0. -1.
        -11    1    4    4    0    0  0.74594367082E+01  0.13123386409E+02  0.26626965781E+02  0.30608197820E+02  0.51100000000E-03 0.  1.
         12    1    4    4    0    0  0.96676687254E+01 -0.15843643047E+01  0.10543438388E+02  0.14392293836E+02  0.00000000000E+00 0. -1.
</event>
<event>
 8    1  0.1269154E-006  0.9118800E+02  0.7816164E-02  0.1184000E+00
        -11   -1    0    0    0    0  0.00000000000E+00  0.00000000000E+00  0.45593999997E+02  0.45594000000E+02  0.51100000000E-03 0.  1.
         11   -1    0    0    0    0 -0.00000000000E+00 -0.00000000000E+00 -0.45593999997E+02  0.45594000000E+02  0.51100000000E-03 0. -1.
         23    2    1    2    0    0 -0.35527136788E-14  0.35527136788E-14 -0.17763568394E-14  0.91188000000E+02  0.91188000000E+02 0.  0.
    9900012    2    3    3    0    0  0.28594992005E+02 -0.22163329993E+02  0.68478635783E+01  0.54367082036E+02  0.39999995116E+02 0.  0.
         12    1    3    3    0    0 -0.28594992005E+02  0.22163329993E+02 -0.68478635783E+01  0.36820917964E+02  0.00000000000E+00 0. -1.
         11    1    4    4    0    0  0.13746404146E+02 -0.71064901020E-01 -0.88055989250E+01  0.16325049766E+02  0.51100000000E-03 0. -1.
        -11    1    4    4    0    0  0.31204363811E+01 -0.22079355092E+02  0.66896325601E+01  0.23280597684E+02  0.51100000000E-03 0.  1.
        -12    1    4    4    0    0  0.11728151478E+02 -0.12909999718E-01  0.89638299432E+01  0.14761434585E+02  0.00000000000E+00 0.  1.
</event>
<event>
 8    1  0.1269154E-006  0.9118800E+02  0.7816164E-02  0.1184000E+00
        -11   -1    0    0    0    0  0.00000000000E+00  0.00000000000E+00  0.45593999997E+02  0.45594000000E+02  0.51100000000E-03 0. -1.
         11   -1    0    0    0    0 -0.00000000000E+00 -0.00000000000E+00 -0.45593999997E+02  0.45594000000E+02  0.51100000000E-03 0.  1.
         23    2    1    2    0    0 -0.11102230246E-14  0.00000000000E+00 -0.44408920985E-15  0.91188000000E+02  0.91188000000E+02 0.  0.
    9900012    2    3    3    0    0 -0.15309722433E+01  0.36645495535E+02 -0.32472771120E+01  0.54367068077E+02  0.39999963296E+02 0.  0.
        -12    1    3    3    0    0  0.15309722433E+01 -0.36645495535E+02  0.32472771120E+01  0.36820931923E+02  0.00000000000E+00 0.  1.
         11    1    4    4    0    0  0.45901397294E+01  0.28346027277E+02  0.66309822824E+01  0.29470944529E+02  0.51100000000E-03 0. -1.
        -11    1    4    4    0    0 -0.11004906388E+02 -0.20440373668E+01 -0.31602183951E+01  0.11630693613E+02  0.51100000000E-03 0.  1.
        -12    1    4    4    0    0  0.48837944150E+01  0.10343505625E+02 -0.67180409993E+01  0.13265429935E+02  0.00000000000E+00 0.  1.
</event>
<event>
 8    1  0.1269154E-006  0.9118800E+02  0.7816164E-02  0.1184000E+00
        -11   -1    0    0    0    0  0.00000000000E+00  0.00000000000E+00  0.45593999997E+02  0.45594000000E+02  0.51100000000E-03 0. -1.
         11   -1    0    0    0    0 -0.00000000000E+00 -0.00000000000E+00 -0.45593999997E+02  0.45594000000E+02  0.51100000000E-03 0.  1.
         23    2    1    2    0    0  0.00000000000E+00 -0.71054273576E-14  0.88817841970E-15  0.91188000000E+02  0.91188000000E+02 0.  0.
    9900012    2    3    3    0    0 -0.17773103310E+02  0.31752868461E+02 -0.56259477820E+01  0.54367093639E+02  0.40000021570E+02 0.  0.
         12    1    3    3    0    0  0.17773103310E+02 -0.31752868461E+02  0.56259477820E+01  0.36820906361E+02  0.00000000000E+00 0. -1.
         11    1    4    4    0    0  0.83562977654E+01  0.22344645432E+02 -0.19547184989E+01  0.23935994162E+02  0.51100000000E-03 0. -1.
        -11    1    4    4    0    0 -0.20275921325E+02  0.10045779071E+02  0.13843367886E+01  0.22670400335E+02  0.51100000000E-03 0.  1.
        -12    1    4    4    0    0 -0.58534797494E+01 -0.63755604173E+00 -0.50555660717E+01  0.77606991430E+01  0.00000000000E+00 0.  1.
</event>
<event>
 8    1  0.1269154E-006  0.9118800E+02  0.7816164E-02  0.1184000E+00
        -11   -1    0    0    0    0  0.00000000000E+00  0.00000000000E+00  0.45593999997E+02  0.45594000000E+02  0.51100000000E-03 0. -1.
         11   -1    0    0    0    0 -0.00000000000E+00 -0.00000000000E+00 -0.45593999997E+02  0.45594000000E+02  0.51100000000E-03 0.  1.
         23    2    1    2    0    0  0.35527136788E-14 -0.17763568394E-14  0.00000000000E+00  0.91188000000E+02  0.91188000000E+02 0.  0.
    9900012    2    3    3    0    0  0.21862728780E+02 -0.14806854976E+02 -0.25662374131E+02  0.54367091401E+02  0.40000016468E+02 0.  0.
         12    1    3    3    0    0 -0.21862728780E+02  0.14806854976E+02  0.25662374131E+02  0.36820908599E+02  0.00000000000E+00 0. -1.
         11    1    4    4    0    0 -0.60667706443E+01 -0.38875590157E+01 -0.11185778089E+01  0.72917787766E+01  0.51100000000E-03 0. -1.
        -11    1    4    4    0    0  0.14883631797E+02 -0.17299193364E+02 -0.23116239178E+02  0.32482997099E+02  0.51100000000E-03 0.  1.
        -12    1    4    4    0    0  0.13045867627E+02  0.63798974039E+01 -0.14275571447E+01  0.14592315526E+02  0.00000000000E+00 0.  1.
</event>
<event>
 8    1  0.1269154E-006  0.9118800E+02  0.7816164E-02  0.1184000E+00
        -11   -1    0    0    0    0  0.00000000000E+00  0.00000000000E+00  0.45593999997E+02  0.45594000000E+02  0.51100000000E-03 0. -1.
         11   -1    0    0    0    0 -0.00000000000E+00 -0.00000000000E+00 -0.45593999997E+02  0.45594000000E+02  0.51100000000E-03 0.  1.
         23    2    1    2    0    0  0.00000000000E+00  0.22204460493E-15  0.00000000000E+00  0.91188000000E+02  0.91188000000E+02 0.  0.
    9900012    2    3    3    0    0 -0.22237175282E+01  0.11889251503E+01 -0.36734479620E+02  0.54367075845E+02  0.39999981004E+02 0.  0.
         12    1    3    3    0    0  0.22237175282E+01 -0.11889251503E+01  0.36734479620E+02  0.36820924155E+02  0.00000000000E+00 0. -1.
         11    1    4    4    0    0 -0.29085774937E+01  0.13514985584E+02 -0.32026541819E+01  0.14190547997E+02  0.51100000000E-03 0. -1.
        -11    1    4    4    0    0 -0.12596700800E+00 -0.10774591420E+02 -0.55142617802E+01  0.12104328614E+02  0.51100000000E-03 0.  1.
         12    1    4    4    0    0  0.81082697353E+00 -0.15514690136E+01 -0.28017563658E+02  0.28072199234E+02  0.00000000000E+00 0. -1.
</event>
<event>
 8    1  0.1269154E-006  0.9118800E+02  0.7816164E-02  0.1184000E+00
        -11   -1    0    0    0    0  0.00000000000E+00  0.00000000000E+00  0.45593999997E+02  0.45594000000E+02  0.51100000000E-03 0. -1.
         11   -1    0    0    0    0 -0.00000000000E+00 -0.00000000000E+00 -0.45593999997E+02  0.45594000000E+02  0.51100000000E-03 0.  1.
         23    2    1    2    0    0 -0.17763568394E-14  0.00000000000E+00 -0.88817841970E-15  0.91188000000E+02  0.91188000000E+02 0.  0.
    9900012    2    3    3    0    0  0.89525753831E+01 -0.35348466186E+02  0.51104625746E+01  0.54367088884E+02  0.40000010729E+02 0.  0.
        -12    1    3    3    0    0 -0.89525753831E+01  0.35348466186E+02 -0.51104625746E+01  0.36820911116E+02  0.00000000000E+00 0.  1.
         11    1    4    4    0    0  0.23716801238E+01 -0.15663357261E+02  0.15070653282E+02  0.21865274247E+02  0.51100000000E-03 0.  1.
        -11    1    4    4    0    0  0.54370703327E+01 -0.14746709882E+02  0.51695714497E+01  0.16545442134E+02  0.51100000000E-03 0. -1.
        -12    1    4    4    0    0  0.11438249267E+01 -0.49383990429E+01 -0.15129762157E+02  0.15956372504E+02  0.00000000000E+00 0.  1.
</event>
<event>
 8    1  0.1269154E-006  0.9118800E+02  0.7816164E-02  0.1184000E+00
        -11   -1    0    0    0    0  0.00000000000E+00  0.00000000000E+00  0.45593999997E+02  0.45594000000E+02  0.51100000000E-03 0.  1.
         11   -1    0    0    0    0 -0.00000000000E+00 -0.00000000000E+00 -0.45593999997E+02  0.45594000000E+02  0.51100000000E-03 0. -1.
         23    2    1    2    0    0  0.71054273576E-14 -0.35527136788E-14 -0.88817841970E-15  0.91188000000E+02  0.91188000000E+02 0.  0.
    9900012    2    3    3    0    0  0.32105052945E+02 -0.16631869037E+02 -0.69589481022E+01  0.54367075908E+02  0.39999981147E+02 0.  0.
        -12    1    3    3    0    0 -0.32105052945E+02  0.16631869037E+02  0.69589481022E+01  0.36820924092E+02  0.00000000000E+00 0.  1.
         11    1    4    4    0    0  0.24178006651E+01  0.52521372522E+01 -0.35078163318E+01  0.67628013021E+01  0.51100000000E-03 0. -1.
        -11    1    4    4    0    0 -0.20879590180E+01 -0.11024270893E+02  0.59947542151E+01  0.12721289241E+02  0.51100000000E-03 0.  1.
        -12    1    4    4    0    0  0.31775211298E+02 -0.10859735396E+02 -0.94458859855E+01  0.34882985365E+02  0.00000000000E+00 0.  1.
</event>
<event>
 8    1  0.1269154E-006  0.9118800E+02  0.7816164E-02  0.1184000E+00
        -11   -1    0    0    0    0  0.00000000000E+00  0.00000000000E+00  0.45593999997E+02  0.45594000000E+02  0.51100000000E-03 0.  1.
         11   -1    0    0    0    0 -0.00000000000E+00 -0.00000000000E+00 -0.45593999997E+02  0.45594000000E+02  0.51100000000E-03 0. -1.
         23    2    1    2    0    0 -0.17763568394E-14  0.00000000000E+00 -0.44408920985E-15  0.91188000000E+02  0.91188000000E+02 0.  0.
    9900012    2    3    3    0    0  0.15234734253E+02 -0.33472468026E+02 -0.18096153683E+01  0.54367109852E+02  0.40000058529E+02 0.  0.
         12    1    3    3    0    0 -0.15234734253E+02  0.33472468026E+02  0.18096153683E+01  0.36820890148E+02  0.00000000000E+00 0. -1.
         11    1    4    4    0    0 -0.70418419526E+01 -0.49045749354E+01 -0.16355366453E+01  0.87359815568E+01  0.51100000000E-03 0. -1.
        -11    1    4    4    0    0  0.12946404895E+02  0.25028240317E+01 -0.30018016267E+00  0.13189527521E+02  0.51100000000E-03 0.  1.
        -12    1    4    4    0    0  0.93301713110E+01 -0.31070717123E+02  0.12610143968E+00  0.32441600774E+02  0.00000000000E+00 0.  1.
</event>
<event>
 8    1  0.1269154E-006  0.9118800E+02  0.7816164E-02  0.1184000E+00
        -11   -1    0    0    0    0  0.00000000000E+00  0.00000000000E+00  0.45593999997E+02  0.45594000000E+02  0.51100000000E-03 0.  1.
         11   -1    0    0    0    0 -0.00000000000E+00 -0.00000000000E+00 -0.45593999997E+02  0.45594000000E+02  0.51100000000E-03 0. -1.
         23    2    1    2    0    0  0.00000000000E+00  0.88817841970E-15  0.00000000000E+00  0.91188000000E+02  0.91188000000E+02 0.  0.
    9900012    2    3    3    0    0 -0.20259938867E+02 -0.62158037271E+01  0.30111114294E+02  0.54367074660E+02  0.39999978303E+02 0.  0.
         12    1    3    3    0    0  0.20259938867E+02  0.62158037271E+01 -0.30111114294E+02  0.36820925340E+02  0.00000000000E+00 0. -1.
         11    1    4    4    0    0  0.68856037508E+01 -0.12319066602E+02  0.16261145662E+02  0.21531274915E+02  0.51100000000E-03 0. -1.
        -11    1    4    4    0    0 -0.11808467053E+02  0.43691448498E+01  0.78743359116E+00  0.12615441839E+02  0.51100000000E-03 0.  1.
         12    1    4    4    0    0 -0.15337075565E+02  0.17341180251E+01  0.13062535041E+02  0.20220357907E+02  0.00000000000E+00 0. -1.
</event>
<event>
 8    1  0.1269154E-006  0.9118800E+02  0.7816164E-02  0.1184000E+00
        -11   -1    0    0    0    0  0.00000000000E+00  0.00000000000E+00  0.45593999997E+02  0.45594000000E+02  0.51100000000E-03 0. -1.
         11   -1    0    0    0    0 -0.00000000000E+00 -0.00000000000E+00 -0.45593999997E+02  0.45594000000E+02  0.51100000000E-03 0.  1.
         23    2    1    2    0    0 -0.88817841970E-15  0.17763568394E-14  0.00000000000E+00  0.91188000000E+02  0.91188000000E+02 0.  0.
    9900012    2    3    3    0    0 -0.36923523075E+01  0.72000886564E+01  0.35920826863E+02  0.54367074635E+02  0.39999978245E+02 0.  0.
        -12    1    3    3    0    0  0.36923523075E+01 -0.72000886564E+01 -0.35920826863E+02  0.36820925365E+02  0.00000000000E+00 0.  1.
         11    1    4    4    0    0 -0.10139250362E+02 -0.72736879171E+01  0.17374547008E+02  0.21391255639E+02  0.51100000000E-03 0. -1.
        -11    1    4    4    0    0  0.94722517998E+01  0.19301132950E+02  0.13679585223E+02  0.25483099095E+02  0.51100000000E-03 0.  1.
        -12    1    4    4    0    0 -0.30253537455E+01 -0.48273563770E+01  0.48666946321E+01  0.74927199013E+01  0.00000000000E+00 0.  1.
</event>
<event>
 8    1  0.1269154E-006  0.9118800E+02  0.7816164E-02  0.1184000E+00
        -11   -1    0    0    0    0  0.00000000000E+00  0.00000000000E+00  0.45593999997E+02  0.45594000000E+02  0.51100000000E-03 0.  1.
         11   -1    0    0    0    0 -0.00000000000E+00 -0.00000000000E+00 -0.45593999997E+02  0.45594000000E+02  0.51100000000E-03 0. -1.
         23    2    1    2    0    0  0.17763568394E-14  0.00000000000E+00  0.00000000000E+00  0.91188000000E+02  0.91188000000E+02 0.  0.
    9900012    2    3    3    0    0 -0.14329533611E+02  0.27812601581E+02 -0.19413996359E+02  0.54367087534E+02  0.40000007651E+02 0.  0.
        -12    1    3    3    0    0  0.14329533611E+02 -0.27812601581E+02  0.19413996359E+02  0.36820912466E+02  0.00000000000E+00 0.  1.
         11    1    4    4    0    0 -0.12214874974E+02  0.27823242855E+02  0.28464525256E+01  0.30519474207E+02  0.51100000000E-03 0. -1.
        -11    1    4    4    0    0  0.27649469996E+01  0.11240104906E+01 -0.45448471888E+01  0.54372757631E+01  0.51100000000E-03 0.  1.
         12    1    4    4    0    0 -0.48796056367E+01 -0.11346517648E+01 -0.17715601696E+02  0.18410337564E+02  0.00000000000E+00 0. -1.
</event>
<event>
 8    1  0.1269154E-006  0.9118800E+02  0.7816164E-02  0.1184000E+00
        -11   -1    0    0    0    0  0.00000000000E+00  0.00000000000E+00  0.45593999997E+02  0.45594000000E+02  0.51100000000E-03 0.  1.
         11   -1    0    0    0    0 -0.00000000000E+00 -0.00000000000E+00 -0.45593999997E+02  0.45594000000E+02  0.51100000000E-03 0. -1.
         23    2    1    2    0    0  0.00000000000E+00  0.35527136788E-14 -0.17763568394E-14  0.91188000000E+02  0.91188000000E+02 0.  0.
    9900012    2    3    3    0    0  0.26541791986E+02  0.20554043629E+02 -0.15127632892E+02  0.54367072414E+02  0.39999973183E+02 0.  0.
        -12    1    3    3    0    0 -0.26541791986E+02 -0.20554043629E+02  0.15127632892E+02  0.36820927586E+02  0.00000000000E+00 0.  1.
         11    1    4    4    0    0  0.98413975538E+01  0.54065358917E+01 -0.12342453861E+02  0.16685919326E+02  0.51100000000E-03 0. -1.
        -11    1    4    4    0    0 -0.33639187324E+01 -0.14113108790E+01 -0.10032951519E+02  0.10675573244E+02  0.51100000000E-03 0.  1.
        -12    1    4    4    0    0  0.20064313165E+02  0.16558818616E+02  0.72477724881E+01  0.27005579845E+02  0.00000000000E+00 0.  1.
</event>
<event>
 8    1  0.1269154E-006  0.9118800E+02  0.7816164E-02  0.1184000E+00
        -11   -1    0    0    0    0  0.00000000000E+00  0.00000000000E+00  0.45593999997E+02  0.45594000000E+02  0.51100000000E-03 0. -1.
         11   -1    0    0    0    0 -0.00000000000E+00 -0.00000000000E+00 -0.45593999997E+02  0.45594000000E+02  0.51100000000E-03 0.  1.
         23    2    1    2    0    0  0.00000000000E+00 -0.26645352591E-14  0.00000000000E+00  0.91188000000E+02  0.91188000000E+02 0.  0.
    9900012    2    3    3    0    0 -0.34268990128E+02  0.70253161225E+01 -0.11491767117E+02  0.54367089331E+02  0.40000011747E+02 0.  0.
         12    1    3    3    0    0  0.34268990128E+02 -0.70253161225E+01  0.11491767117E+02  0.36820910669E+02  0.00000000000E+00 0. -1.
         11    1    4    4    0    0 -0.12167720277E+01  0.39157483349E+01 -0.77609614528E+00  0.41732415072E+01  0.51100000000E-03 0. -1.
        -11    1    4    4    0    0 -0.13351068969E+02 -0.16354264494E+02 -0.22338016625E+01  0.21229764010E+02  0.51100000000E-03 0.  1.
        -12    1    4    4    0    0 -0.19701149132E+02  0.19463832282E+02 -0.84818693094E+01  0.28964083814E+02  0.00000000000E+00 0.  1.
</event>
<event>
 8    1  0.1269154E-006  0.9118800E+02  0.7816164E-02  0.1184000E+00
        -11   -1    0    0    0    0  0.00000000000E+00  0.00000000000E+00  0.45593999997E+02  0.45594000000E+02  0.51100000000E-03 0.  1.
         11   -1    0    0    0    0 -0.00000000000E+00 -0.00000000000E+00 -0.45593999997E+02  0.45594000000E+02  0.51100000000E-03 0. -1.
         23    2    1    2    0    0  0.00000000000E+00  0.35527136788E-14  0.00000000000E+00  0.91188000000E+02  0.91188000000E+02 0.  0.
    9900012    2    3    3    0    0  0.20566758290E+02 -0.20421966337E+02 -0.22709735197E+02  0.54367077574E+02  0.39999984945E+02 0.  0.
        -12    1    3    3    0    0 -0.20566758290E+02  0.20421966337E+02  0.22709735197E+02  0.36820922426E+02  0.00000000000E+00 0.  1.
         11    1    4    4    0    0 -0.54558466187E+01 -0.44047581218E+01 -0.50614088394E+01  0.86478908491E+01  0.51100000000E-03 0. -1.
        -11    1    4    4    0    0  0.32347362526E+02 -0.11489736275E+02 -0.15392941022E+02  0.37620586593E+02  0.51100000000E-03 0.  1.
        -12    1    4    4    0    0 -0.63247576170E+01 -0.45274719402E+01 -0.22553853358E+01  0.80986001319E+01  0.00000000000E+00 0.  1.
</event>
<event>
 8    1  0.1269154E-006  0.9118800E+02  0.7816164E-02  0.1184000E+00
        -11   -1    0    0    0    0  0.00000000000E+00  0.00000000000E+00  0.45593999997E+02  0.45594000000E+02  0.51100000000E-03 0.  1.
         11   -1    0    0    0    0 -0.00000000000E+00 -0.00000000000E+00 -0.45593999997E+02  0.45594000000E+02  0.51100000000E-03 0. -1.
         23    2    1    2    0    0  0.00000000000E+00  0.00000000000E+00  0.00000000000E+00  0.91188000000E+02  0.91188000000E+02 0.  0.
    9900012    2    3    3    0    0 -0.16655190322E+02 -0.19869946169E+02 -0.26145189827E+02  0.54367067414E+02  0.39999961784E+02 0.  0.
        -12    1    3    3    0    0  0.16655190322E+02  0.19869946169E+02  0.26145189827E+02  0.36820932586E+02  0.00000000000E+00 0.  1.
         11    1    4    4    0    0 -0.77190580596E+01  0.66072609341E+01 -0.21588526289E+02  0.23860096856E+02  0.51100000000E-03 0. -1.
        -11    1    4    4    0    0 -0.11489827457E+02 -0.18856985895E+02 -0.40851576163E+01  0.22456414786E+02  0.51100000000E-03 0.  1.
         12    1    4    4    0    0  0.25536951941E+01 -0.76202212081E+01 -0.47150592140E+00  0.80505557720E+01  0.00000000000E+00 0. -1.
</event>
<event>
 8    1  0.1269154E-006  0.9118800E+02  0.7816164E-02  0.1184000E+00
        -11   -1    0    0    0    0  0.00000000000E+00  0.00000000000E+00  0.45593999997E+02  0.45594000000E+02  0.51100000000E-03 0.  1.
         11   -1    0    0    0    0 -0.00000000000E+00 -0.00000000000E+00 -0.45593999997E+02  0.45594000000E+02  0.51100000000E-03 0. -1.
         23    2    1    2    0    0 -0.88817841970E-15  0.00000000000E+00  0.00000000000E+00  0.91188000000E+02  0.91188000000E+02 0.  0.
    9900012    2    3    3    0    0 -0.70762754877E+01 -0.10546812863E+02  0.34561096729E+02  0.54367104526E+02  0.40000046389E+02 0.  0.
         12    1    3    3    0    0  0.70762754877E+01  0.10546812863E+02 -0.34561096729E+02  0.36820895474E+02  0.00000000000E+00 0. -1.
         11    1    4    4    0    0 -0.97531356367E+01 -0.21738440691E+02  0.20875359995E+02  0.31677501695E+02  0.51100000000E-03 0. -1.
        -11    1    4    4    0    0 -0.45412798996E+01  0.77245363091E+00  0.69440025782E+01  0.83330114488E+01  0.51100000000E-03 0.  1.
         12    1    4    4    0    0  0.72181400487E+01  0.10419174197E+02  0.67417341557E+01  0.14356591383E+02  0.00000000000E+00 0. -1.
</event>
<event>
 8    1  0.1269154E-006  0.9118800E+02  0.7816164E-02  0.1184000E+00
        -11   -1    0    0    0    0  0.00000000000E+00  0.00000000000E+00  0.45593999997E+02  0.45594000000E+02  0.51100000000E-03 0.  1.
         11   -1    0    0    0    0 -0.00000000000E+00 -0.00000000000E+00 -0.45593999997E+02  0.45594000000E+02  0.51100000000E-03 0. -1.
         23    2    1    2    0    0 -0.88817841970E-15 -0.71054273576E-14  0.00000000000E+00  0.91188000000E+02  0.91188000000E+02 0.  0.
    9900012    2    3    3    0    0  0.24048819061E+01 -0.34451615170E+02  0.12770875225E+02  0.54366912308E+02  0.39999608187E+02 0.  0.
         12    1    3    3    0    0 -0.24048819061E+01  0.34451615170E+02 -0.12770875225E+02  0.36821087692E+02  0.00000000000E+00 0. -1.
         11    1    4    4    0    0 -0.87429199839E+01 -0.67883902272E+01  0.10570858385E+02  0.15305683225E+02  0.51100000000E-03 0.  1.
        -11    1    4    4    0    0 -0.34285301892E+01 -0.22498521198E+02 -0.25083481526E+01  0.22896071411E+02  0.51100000000E-03 0. -1.
        -12    1    4    4    0    0  0.14576332079E+02 -0.51647037452E+01  0.47083649925E+01  0.16165157672E+02  0.00000000000E+00 0.  1.
</event>
<event>
 8    1  0.1269154E-006  0.9118800E+02  0.7816164E-02  0.1184000E+00
        -11   -1    0    0    0    0  0.00000000000E+00  0.00000000000E+00  0.45593999997E+02  0.45594000000E+02  0.51100000000E-03 0.  1.
         11   -1    0    0    0    0 -0.00000000000E+00 -0.00000000000E+00 -0.45593999997E+02  0.45594000000E+02  0.51100000000E-03 0. -1.
         23    2    1    2    0    0  0.00000000000E+00  0.88817841970E-15 -0.88817841970E-15  0.91188000000E+02  0.91188000000E+02 0.  0.
    9900012    2    3    3    0    0  0.36334220108E+02  0.26181099474E+01 -0.53619398337E+01  0.54367075930E+02  0.39999981198E+02 0.  0.
        -12    1    3    3    0    0 -0.36334220108E+02 -0.26181099474E+01  0.53619398337E+01  0.36820924070E+02  0.00000000000E+00 0.  1.
         11    1    4    4    0    0 -0.28637621491E+01 -0.60572162747E+01  0.19979395668E+01  0.69916210866E+01  0.51100000000E-03 0. -1.
        -11    1    4    4    0    0 -0.32122653616E+01 -0.59704507377E+00 -0.14062657600E+01  0.35570627239E+01  0.51100000000E-03 0.  1.
         12    1    4    4    0    0  0.42410247619E+02  0.92723712959E+01 -0.59536136405E+01  0.43818392120E+02  0.00000000000E+00 0. -1.
</event>
<event>
 8    1  0.1269154E-006  0.9118800E+02  0.7816164E-02  0.1184000E+00
        -11   -1    0    0    0    0  0.00000000000E+00  0.00000000000E+00  0.45593999997E+02  0.45594000000E+02  0.51100000000E-03 0.  1.
         11   -1    0    0    0    0 -0.00000000000E+00 -0.00000000000E+00 -0.45593999997E+02  0.45594000000E+02  0.51100000000E-03 0. -1.
         23    2    1    2    0    0  0.00000000000E+00 -0.88817841970E-15  0.00000000000E+00  0.91188000000E+02  0.91188000000E+02 0.  0.
    9900012    2    3    3    0    0 -0.31726446144E+02  0.67598794818E+01  0.17421698108E+02  0.54367096691E+02  0.40000028526E+02 0.  0.
         12    1    3    3    0    0  0.31726446144E+02 -0.67598794818E+01 -0.17421698108E+02  0.36820903309E+02  0.00000000000E+00 0. -1.
         11    1    4    4    0    0 -0.11903500089E+02 -0.46643689544E+01 -0.53818155121E+01  0.13871322596E+02  0.51100000000E-03 0. -1.
        -11    1    4    4    0    0 -0.43269696815E+01 -0.64856368066E+01  0.26334051412E+00  0.78009935200E+01  0.51100000000E-03 0.  1.
        -12    1    4    4    0    0 -0.15495976374E+02  0.17909885243E+02  0.22540173106E+02  0.32694780575E+02  0.00000000000E+00 0.  1.
</event>
<event>
 8    1  0.1269154E-006  0.9118800E+02  0.7816164E-02  0.1184000E+00
        -11   -1    0    0    0    0  0.00000000000E+00  0.00000000000E+00  0.45593999997E+02  0.45594000000E+02  0.51100000000E-03 0. -1.
         11   -1    0    0    0    0 -0.00000000000E+00 -0.00000000000E+00 -0.45593999997E+02  0.45594000000E+02  0.51100000000E-03 0.  1.
         23    2    1    2    0    0  0.00000000000E+00  0.00000000000E+00  0.17763568394E-14  0.91188000000E+02  0.91188000000E+02 0.  0.
    9900012    2    3    3    0    0 -0.34483313708E+02 -0.83928123786E+01 -0.98102503677E+01  0.54367092404E+02  0.40000018753E+02 0.  0.
        -12    1    3    3    0    0  0.34483313708E+02  0.83928123786E+01  0.98102503677E+01  0.36820907596E+02  0.00000000000E+00 0.  1.
         11    1    4    4    0    0 -0.24616710502E+02  0.12895110235E+01 -0.18017953565E+02  0.30533455840E+02  0.51100000000E-03 0. -1.
        -11    1    4    4    0    0 -0.86482632169E+00 -0.22920342857E+01  0.11477904032E+02  0.11736423091E+02  0.51100000000E-03 0.  1.
         12    1    4    4    0    0 -0.90017768850E+01 -0.73902891164E+01 -0.32702008352E+01  0.12097213473E+02  0.00000000000E+00 0. -1.
</event>
<event>
 8    1  0.1269154E-006  0.9118800E+02  0.7816164E-02  0.1184000E+00
        -11   -1    0    0    0    0  0.00000000000E+00  0.00000000000E+00  0.45593999997E+02  0.45594000000E+02  0.51100000000E-03 0.  1.
         11   -1    0    0    0    0 -0.00000000000E+00 -0.00000000000E+00 -0.45593999997E+02  0.45594000000E+02  0.51100000000E-03 0. -1.
         23    2    1    2    0    0  0.00000000000E+00  0.17763568394E-14  0.00000000000E+00  0.91188000000E+02  0.91188000000E+02 0.  0.
    9900012    2    3    3    0    0  0.34473412663E+02  0.11333377845E+02 -0.62384493695E+01  0.54367083600E+02  0.39999998682E+02 0.  0.
         12    1    3    3    0    0 -0.34473412663E+02 -0.11333377845E+02  0.62384493695E+01  0.36820916400E+02  0.00000000000E+00 0. -1.
         11    1    4    4    0    0  0.80151674454E+01  0.71518653475E+01 -0.75472705438E+01  0.13128342624E+02  0.51100000000E-03 0. -1.
        -11    1    4    4    0    0  0.32392163883E+02 -0.12589294399E+00  0.54041605185E+01  0.32840113904E+02  0.51100000000E-03 0.  1.
        -12    1    4    4    0    0 -0.59339186647E+01  0.43074054413E+01 -0.40953393442E+01  0.83986270722E+01  0.00000000000E+00 0.  1.
</event>
<event>
 8    1  0.1269154E-006  0.9118800E+02  0.7816164E-02  0.1184000E+00
        -11   -1    0    0    0    0  0.00000000000E+00  0.00000000000E+00  0.45593999997E+02  0.45594000000E+02  0.51100000000E-03 0. -1.
         11   -1    0    0    0    0 -0.00000000000E+00 -0.00000000000E+00 -0.45593999997E+02  0.45594000000E+02  0.51100000000E-03 0.  1.
         23    2    1    2    0    0  0.00000000000E+00  0.00000000000E+00  0.17763568394E-14  0.91188000000E+02  0.91188000000E+02 0.  0.
    9900012    2    3    3    0    0  0.33783891215E+02 -0.11121505835E+02  0.95258177917E+01  0.54367076569E+02  0.39999982655E+02 0.  0.
        -12    1    3    3    0    0 -0.33783891215E+02  0.11121505835E+02 -0.95258177917E+01  0.36820923431E+02  0.00000000000E+00 0.  1.
         11    1    4    4    0    0  0.27556478150E+01 -0.51068916936E+01  0.85006878749E+01  0.10292503692E+02  0.51100000000E-03 0. -1.
        -11    1    4    4    0    0  0.22026706980E+02  0.10305403302E+02 -0.42897170279E+01  0.24693700210E+02  0.51100000000E-03 0.  1.
        -12    1    4    4    0    0  0.90015364204E+01 -0.16320017444E+02  0.53148469447E+01  0.19380872667E+02  0.00000000000E+00 0.  1.
</event>
<event>
 8    1  0.1269154E-006  0.9118800E+02  0.7816164E-02  0.1184000E+00
        -11   -1    0    0    0    0  0.00000000000E+00  0.00000000000E+00  0.45593999997E+02  0.45594000000E+02  0.51100000000E-03 0. -1.
         11   -1    0    0    0    0 -0.00000000000E+00 -0.00000000000E+00 -0.45593999997E+02  0.45594000000E+02  0.51100000000E-03 0.  1.
         23    2    1    2    0    0  0.71054273576E-14 -0.35527136788E-14  0.00000000000E+00  0.91188000000E+02  0.91188000000E+02 0.  0.
    9900012    2    3    3    0    0  0.32401108126E+02 -0.15665724015E+02  0.77809649759E+01  0.54366944438E+02  0.39999681434E+02 0.  0.
        -12    1    3    3    0    0 -0.32401108126E+02  0.15665724015E+02 -0.77809649759E+01  0.36821055562E+02  0.00000000000E+00 0.  1.
         11    1    4    4    0    0  0.10653522470E+02  0.70951496247E+01 -0.30233737064E+01  0.13152166287E+02  0.51100000000E-03 0.  1.
        -11    1    4    4    0    0  0.79282051104E+01 -0.24336502353E+02  0.46910344713E+01  0.26021675344E+02  0.51100000000E-03 0. -1.
        -12    1    4    4    0    0  0.13819380546E+02  0.15756287134E+01  0.61133042110E+01  0.15193102807E+02  0.00000000000E+00 0.  1.
</event>
<event>
 8    1  0.1269154E-006  0.9118800E+02  0.7816164E-02  0.1184000E+00
        -11   -1    0    0    0    0  0.00000000000E+00  0.00000000000E+00  0.45593999997E+02  0.45594000000E+02  0.51100000000E-03 0. -1.
         11   -1    0    0    0    0 -0.00000000000E+00 -0.00000000000E+00 -0.45593999997E+02  0.45594000000E+02  0.51100000000E-03 0.  1.
         23    2    1    2    0    0 -0.88817841970E-15  0.00000000000E+00  0.00000000000E+00  0.91188000000E+02  0.91188000000E+02 0.  0.
    9900012    2    3    3    0    0 -0.16456009796E+01 -0.36132262300E+02 -0.68943023754E+01  0.54367084928E+02  0.40000001711E+02 0.  0.
         12    1    3    3    0    0  0.16456009796E+01  0.36132262300E+02  0.68943023754E+01  0.36820915072E+02  0.00000000000E+00 0. -1.
         11    1    4    4    0    0 -0.75160221985E+01 -0.77017239535E+01  0.71018922267E+01  0.12893564868E+02  0.51100000000E-03 0. -1.
        -11    1    4    4    0    0  0.10918604143E+02 -0.10218994946E+02  0.38908102324E+01  0.15452578382E+02  0.51100000000E-03 0.  1.
        -12    1    4    4    0    0 -0.50481829241E+01 -0.18211543400E+02 -0.17887004834E+02  0.26020941678E+02  0.00000000000E+00 0.  1.
</event>
<event>
 8    1  0.1269154E-006  0.9118800E+02  0.7816164E-02  0.1184000E+00
        -11   -1    0    0    0    0  0.00000000000E+00  0.00000000000E+00  0.45593999997E+02  0.45594000000E+02  0.51100000000E-03 0.  1.
         11   -1    0    0    0    0 -0.00000000000E+00 -0.00000000000E+00 -0.45593999997E+02  0.45594000000E+02  0.51100000000E-03 0. -1.
         23    2    1    2    0    0  0.71054273576E-14  0.88817841970E-15  0.00000000000E+00  0.91188000000E+02  0.91188000000E+02 0.  0.
    9900012    2    3    3    0    0  0.34258180198E+02 -0.67060335906E+01 -0.11712687820E+02  0.54367070450E+02  0.39999968704E+02 0.  0.
        -12    1    3    3    0    0 -0.34258180198E+02  0.67060335906E+01  0.11712687820E+02  0.36820929550E+02  0.00000000000E+00 0.  1.
         11    1    4    4    0    0  0.26376000551E+02 -0.45242523040E+01 -0.62928045394E+01  0.27491119533E+02  0.51100000000E-03 0. -1.
        -11    1    4    4    0    0 -0.85004657855E+00 -0.12294723416E+02  0.33358475287E+00  0.12328588001E+02  0.51100000000E-03 0.  1.
        -12    1    4    4    0    0  0.87322262256E+01  0.10112942129E+02 -0.57534680337E+01  0.14547362915E+02  0.00000000000E+00 0.  1.
</event>
<event>
 8    1  0.1269154E-006  0.9118800E+02  0.7816164E-02  0.1184000E+00
        -11   -1    0    0    0    0  0.00000000000E+00  0.00000000000E+00  0.45593999997E+02  0.45594000000E+02  0.51100000000E-03 0.  1.
         11   -1    0    0    0    0 -0.00000000000E+00 -0.00000000000E+00 -0.45593999997E+02  0.45594000000E+02  0.51100000000E-03 0. -1.
         23    2    1    2    0    0  0.00000000000E+00  0.00000000000E+00  0.35527136788E-14  0.91188000000E+02  0.91188000000E+02 0.  0.
    9900012    2    3    3    0    0 -0.51828815876E+01  0.18433299948E+02 -0.31450446436E+02  0.54367090322E+02  0.40000014007E+02 0.  0.
        -12    1    3    3    0    0  0.51828815876E+01 -0.18433299948E+02  0.31450446436E+02  0.36820909678E+02  0.00000000000E+00 0.  1.
         11    1    4    4    0    0  0.11573200981E+02  0.18983571838E+02 -0.19624097479E+02  0.29655019521E+02  0.51100000000E-03 0. -1.
        -11    1    4    4    0    0 -0.56193653213E+01  0.13397520340E+01  0.26453360718E+01  0.63537394753E+01  0.51100000000E-03 0.  1.
         12    1    4    4    0    0 -0.11136717248E+02 -0.18900239239E+01 -0.14471685029E+02  0.18358331325E+02  0.00000000000E+00 0. -1.
</event>
<event>
 8    1  0.1269154E-006  0.9118800E+02  0.7816164E-02  0.1184000E+00
        -11   -1    0    0    0    0  0.00000000000E+00  0.00000000000E+00  0.45593999997E+02  0.45594000000E+02  0.51100000000E-03 0.  1.
         11   -1    0    0    0    0 -0.00000000000E+00 -0.00000000000E+00 -0.45593999997E+02  0.45594000000E+02  0.51100000000E-03 0. -1.
         23    2    1    2    0    0  0.66613381478E-15  0.00000000000E+00 -0.88817841970E-15  0.91188000000E+02  0.91188000000E+02 0.  0.
    9900012    2    3    3    0    0  0.30445812953E+00  0.36777125926E+02 -0.17693051900E+01  0.54367080307E+02  0.39999991177E+02 0.  0.
        -12    1    3    3    0    0 -0.30445812953E+00 -0.36777125926E+02  0.17693051900E+01  0.36820919693E+02  0.00000000000E+00 0.  1.
         11    1    4    4    0    0  0.37452212052E+01 -0.56072238137E+01 -0.29224996517E+01  0.73490574394E+01  0.51100000000E-03 0. -1.
        -11    1    4    4    0    0 -0.56854331176E+01  0.38375633560E+01  0.45897714687E+01  0.82533050738E+01  0.51100000000E-03 0.  1.
        -12    1    4    4    0    0  0.22446700419E+01  0.38546786384E+02 -0.34365770070E+01  0.38764717794E+02  0.00000000000E+00 0.  1.
</event>
<event>
 8    1  0.1269154E-006  0.9118800E+02  0.7816164E-02  0.1184000E+00
        -11   -1    0    0    0    0  0.00000000000E+00  0.00000000000E+00  0.45593999997E+02  0.45594000000E+02  0.51100000000E-03 0.  1.
         11   -1    0    0    0    0 -0.00000000000E+00 -0.00000000000E+00 -0.45593999997E+02  0.45594000000E+02  0.51100000000E-03 0. -1.
         23    2    1    2    0    0 -0.71054273576E-14  0.35527136788E-14  0.00000000000E+00  0.91188000000E+02  0.91188000000E+02 0.  0.
    9900012    2    3    3    0    0 -0.32551799368E+02  0.14838063780E+02  0.87172054856E+01  0.54367116655E+02  0.40000074038E+02 0.  0.
         12    1    3    3    0    0  0.32551799368E+02 -0.14838063780E+02 -0.87172054856E+01  0.36820883345E+02  0.00000000000E+00 0. -1.
         11    1    4    4    0    0 -0.14856689045E+02  0.20817315160E+02 -0.82845720930E+00  0.25588438042E+02  0.51100000000E-03 0. -1.
        -11    1    4    4    0    0 -0.21332862844E+01  0.67168652254E+01  0.20219252272E+01  0.73318054197E+01  0.51100000000E-03 0.  1.
        -12    1    4    4    0    0 -0.15561824039E+02 -0.12696116605E+02  0.75237374677E+01  0.21446873193E+02  0.00000000000E+00 0.  1.
</event>
<event>
 8    1  0.1269154E-006  0.9118800E+02  0.7816164E-02  0.1184000E+00
        -11   -1    0    0    0    0  0.00000000000E+00  0.00000000000E+00  0.45593999997E+02  0.45594000000E+02  0.51100000000E-03 0.  1.
         11   -1    0    0    0    0 -0.00000000000E+00 -0.00000000000E+00 -0.45593999997E+02  0.45594000000E+02  0.51100000000E-03 0. -1.
         23    2    1    2    0    0  0.35527136788E-14 -0.35527136788E-14  0.35527136788E-14  0.91188000000E+02  0.91188000000E+02 0.  0.
    9900012    2    3    3    0    0 -0.18265490212E+02  0.10145570396E+02 -0.30318636598E+02  0.54367075833E+02  0.39999980976E+02 0.  0.
        -12    1    3    3    0    0  0.18265490212E+02 -0.10145570396E+02  0.30318636598E+02  0.36820924167E+02  0.00000000000E+00 0.  1.
         11    1    4    4    0    0 -0.73933046486E+01  0.14340309439E+01 -0.17604635507E+02  0.19147861238E+02  0.51100000000E-03 0. -1.
        -11    1    4    4    0    0 -0.17699067033E+01 -0.10804326194E+02 -0.67981019185E+01  0.12887211654E+02  0.51100000000E-03 0.  1.
        -12    1    4    4    0    0 -0.91022788603E+01  0.19515865646E+02 -0.59158991724E+01  0.22332002942E+02  0.00000000000E+00 0.  1.
</event>
<event>
 8    1  0.1269154E-006  0.9118800E+02  0.7816164E-02  0.1184000E+00
        -11   -1    0    0    0    0  0.00000000000E+00  0.00000000000E+00  0.45593999997E+02  0.45594000000E+02  0.51100000000E-03 0. -1.
         11   -1    0    0    0    0 -0.00000000000E+00 -0.00000000000E+00 -0.45593999997E+02  0.45594000000E+02  0.51100000000E-03 0.  1.
         23    2    1    2    0    0  0.17763568394E-14  0.00000000000E+00  0.00000000000E+00  0.91188000000E+02  0.91188000000E+02 0.  0.
    9900012    2    3    3    0    0 -0.15661210025E+02 -0.18592272724E+02  0.27655645235E+02  0.54367070926E+02  0.39999969791E+02 0.  0.
        -12    1    3    3    0    0  0.15661210025E+02  0.18592272724E+02 -0.27655645235E+02  0.36820929074E+02  0.00000000000E+00 0.  1.
         11    1    4    4    0    0  0.41821152464E+00 -0.36048980207E+01  0.11956863095E+02  0.12495469818E+02  0.51100000000E-03 0. -1.
        -11    1    4    4    0    0 -0.18511507655E+02  0.44077421285E+01  0.10075408716E+02  0.21531789693E+02  0.51100000000E-03 0.  1.
        -12    1    4    4    0    0  0.24320861063E+01 -0.19395116832E+02  0.56233734240E+01  0.20339811415E+02  0.00000000000E+00 0.  1.
</event>
<event>
 8    1  0.1269154E-006  0.9118800E+02  0.7816164E-02  0.1184000E+00
        -11   -1    0    0    0    0  0.00000000000E+00  0.00000000000E+00  0.45593999997E+02  0.45594000000E+02  0.51100000000E-03 0.  1.
         11   -1    0    0    0    0 -0.00000000000E+00 -0.00000000000E+00 -0.45593999997E+02  0.45594000000E+02  0.51100000000E-03 0. -1.
         23    2    1    2    0    0 -0.35527136788E-14 -0.94368957093E-15  0.00000000000E+00  0.91188000000E+02  0.91188000000E+02 0.  0.
    9900012    2    3    3    0    0  0.21815971391E+02  0.48793386607E+00  0.29658135675E+02  0.54367086121E+02  0.40000004429E+02 0.  0.
         12    1    3    3    0    0 -0.21815971391E+02 -0.48793386607E+00 -0.29658135675E+02  0.36820913879E+02  0.00000000000E+00 0. -1.
         11    1    4    4    0    0  0.49015684792E+01 -0.42459208692E+01 -0.62451544664E+01  0.90030645979E+01  0.51100000000E-03 0. -1.
        -11    1    4    4    0    0  0.11324763016E+02 -0.78596374462E+01  0.20426251727E+02  0.24642563138E+02  0.51100000000E-03 0.  1.
         12    1    4    4    0    0  0.55896398950E+01  0.12593492182E+02  0.15477038415E+02  0.20721458385E+02  0.00000000000E+00 0. -1.
</event>
<event>
 8    1  0.1269154E-006  0.9118800E+02  0.7816164E-02  0.1184000E+00
        -11   -1    0    0    0    0  0.00000000000E+00  0.00000000000E+00  0.45593999997E+02  0.45594000000E+02  0.51100000000E-03 0. -1.
         11   -1    0    0    0    0 -0.00000000000E+00 -0.00000000000E+00 -0.45593999997E+02  0.45594000000E+02  0.51100000000E-03 0.  1.
         23    2    1    2    0    0 -0.35527136788E-14  0.00000000000E+00  0.00000000000E+00  0.91188000000E+02  0.91188000000E+02 0.  0.
    9900012    2    3    3    0    0  0.18506841499E+02 -0.14186279873E+02 -0.28496072798E+02  0.54367083609E+02  0.39999998705E+02 0.  0.
         12    1    3    3    0    0 -0.18506841499E+02  0.14186279873E+02  0.28496072798E+02  0.36820916391E+02  0.00000000000E+00 0. -1.
         11    1    4    4    0    0  0.16288694066E+02 -0.27848461396E+01 -0.18901280522E+02  0.25106479801E+02  0.51100000000E-03 0. -1.
        -11    1    4    4    0    0  0.10026061668E+02 -0.14494821887E+02 -0.10956571689E+02  0.20752547736E+02  0.51100000000E-03 0.  1.
         12    1    4    4    0    0 -0.78079142342E+01  0.30933881532E+01  0.13617794130E+01  0.85080560720E+01  0.00000000000E+00 0. -1.
</event>
<event>
 8    1  0.1269154E-006  0.9118800E+02  0.7816164E-02  0.1184000E+00
        -11   -1    0    0    0    0  0.00000000000E+00  0.00000000000E+00  0.45593999997E+02  0.45594000000E+02  0.51100000000E-03 0.  1.
         11   -1    0    0    0    0 -0.00000000000E+00 -0.00000000000E+00 -0.45593999997E+02  0.45594000000E+02  0.51100000000E-03 0. -1.
         23    2    1    2    0    0  0.00000000000E+00  0.35527136788E-14  0.00000000000E+00  0.91188000000E+02  0.91188000000E+02 0.  0.
    9900012    2    3    3    0    0 -0.30348509025E+02 -0.19611985575E+02 -0.70793608282E+01  0.54367091158E+02  0.40000015913E+02 0.  0.
        -12    1    3    3    0    0  0.30348509025E+02  0.19611985575E+02  0.70793608282E+01  0.36820908842E+02  0.00000000000E+00 0.  1.
         11    1    4    4    0    0  0.60202839908E+00 -0.15500524328E+02 -0.22660024729E+01  0.15676844712E+02  0.51100000000E-03 0. -1.
        -11    1    4    4    0    0 -0.29267505931E+02 -0.10953399783E+02 -0.28716107245E+01  0.31381682852E+02  0.51100000000E-03 0.  1.
        -12    1    4    4    0    0 -0.16830314930E+01  0.68419385368E+01 -0.19417476308E+01  0.73085635942E+01  0.00000000000E+00 0.  1.
</event>
<event>
 8    1  0.1269154E-006  0.9118800E+02  0.7816164E-02  0.1184000E+00
        -11   -1    0    0    0    0  0.00000000000E+00  0.00000000000E+00  0.45593999997E+02  0.45594000000E+02  0.51100000000E-03 0.  1.
         11   -1    0    0    0    0 -0.00000000000E+00 -0.00000000000E+00 -0.45593999997E+02  0.45594000000E+02  0.51100000000E-03 0. -1.
         23    2    1    2    0    0  0.35527136788E-14  0.35527136788E-14 -0.17763568394E-14  0.91188000000E+02  0.91188000000E+02 0.  0.
    9900012    2    3    3    0    0  0.17019018730E+02 -0.30109869951E+02  0.12630401780E+02  0.54367104898E+02  0.40000047235E+02 0.  0.
         12    1    3    3    0    0 -0.17019018730E+02  0.30109869951E+02 -0.12630401780E+02  0.36820895102E+02  0.00000000000E+00 0. -1.
         11    1    4    4    0    0 -0.96068885258E+01 -0.60504459059E+01  0.13866434395E+02  0.17921445419E+02  0.51100000000E-03 0.  1.
        -11    1    4    4    0    0  0.22455308911E+02 -0.16969635938E+02 -0.13305218093E+00  0.28146529898E+02  0.51100000000E-03 0. -1.
        -12    1    4    4    0    0  0.41705983452E+01 -0.70897881075E+01 -0.11029804342E+01  0.82991295812E+01  0.00000000000E+00 0.  1.
</event>
<event>
 8    1  0.1269154E-006  0.9118800E+02  0.7816164E-02  0.1184000E+00
        -11   -1    0    0    0    0  0.00000000000E+00  0.00000000000E+00  0.45593999997E+02  0.45594000000E+02  0.51100000000E-03 0. -1.
         11   -1    0    0    0    0 -0.00000000000E+00 -0.00000000000E+00 -0.45593999997E+02  0.45594000000E+02  0.51100000000E-03 0.  1.
         23    2    1    2    0    0  0.17763568394E-14  0.00000000000E+00 -0.35527136788E-14  0.91188000000E+02  0.91188000000E+02 0.  0.
    9900012    2    3    3    0    0  0.10277044002E+02 -0.16957215788E+02 -0.31026032536E+02  0.54367088881E+02  0.40000010722E+02 0.  0.
         12    1    3    3    0    0 -0.10277044002E+02  0.16957215788E+02  0.31026032536E+02  0.36820911119E+02  0.00000000000E+00 0. -1.
         11    1    4    4    0    0 -0.67603931781E+01 -0.13511358691E+02 -0.80478821991E+00  0.15129686512E+02  0.51100000000E-03 0. -1.
        -11    1    4    4    0    0 -0.28769074804E+01  0.16713266692E+01 -0.94151181311E+01  0.99857087464E+01  0.51100000000E-03 0.  1.
         12    1    4    4    0    0  0.19914344661E+02 -0.51171837659E+01 -0.20806126185E+02  0.29251693623E+02  0.00000000000E+00 0. -1.
</event>
<event>
 8    1  0.1269154E-006  0.9118800E+02  0.7816164E-02  0.1184000E+00
        -11   -1    0    0    0    0  0.00000000000E+00  0.00000000000E+00  0.45593999997E+02  0.45594000000E+02  0.51100000000E-03 0. -1.
         11   -1    0    0    0    0 -0.00000000000E+00 -0.00000000000E+00 -0.45593999997E+02  0.45594000000E+02  0.51100000000E-03 0.  1.
         23    2    1    2    0    0  0.00000000000E+00  0.00000000000E+00 -0.17763568394E-14  0.91188000000E+02  0.91188000000E+02 0.  0.
    9900012    2    3    3    0    0 -0.27784605731E+02 -0.18978811980E+02  0.14953247661E+02  0.54367092414E+02  0.40000018776E+02 0.  0.
         12    1    3    3    0    0  0.27784605731E+02  0.18978811980E+02 -0.14953247661E+02  0.36820907586E+02  0.00000000000E+00 0. -1.
         11    1    4    4    0    0 -0.19356657647E+02 -0.61038291745E+01  0.24002326186E+02  0.31433240184E+02  0.51100000000E-03 0. -1.
        -11    1    4    4    0    0 -0.20978427286E+01 -0.12829365559E+02 -0.15063006547E+01  0.13086730176E+02  0.51100000000E-03 0.  1.
         12    1    4    4    0    0 -0.63301053560E+01 -0.45617246804E-01 -0.75427778707E+01  0.98471220546E+01  0.00000000000E+00 0. -1.
</event>
<event>
 8    1  0.1269154E-006  0.9118800E+02  0.7816164E-02  0.1184000E+00
        -11   -1    0    0    0    0  0.00000000000E+00  0.00000000000E+00  0.45593999997E+02  0.45594000000E+02  0.51100000000E-03 0.  1.
         11   -1    0    0    0    0 -0.00000000000E+00 -0.00000000000E+00 -0.45593999997E+02  0.45594000000E+02  0.51100000000E-03 0. -1.
         23    2    1    2    0    0  0.00000000000E+00 -0.17763568394E-14  0.17763568394E-14  0.91188000000E+02  0.91188000000E+02 0.  0.
    9900012    2    3    3    0    0  0.32039225018E+02 -0.12532192321E+02 -0.13123044449E+02  0.54367053791E+02  0.39999930727E+02 0.  0.
         12    1    3    3    0    0 -0.32039225018E+02  0.12532192321E+02  0.13123044449E+02  0.36820946209E+02  0.00000000000E+00 0. -1.
         11    1    4    4    0    0  0.81142101257E+01 -0.10772790612E+02 -0.23293436516E+02  0.26916121722E+02  0.51100000000E-03 0. -1.
        -11    1    4    4    0    0  0.24408477881E+02 -0.10040097968E+01  0.91352518868E+01  0.26081308545E+02  0.51100000000E-03 0.  1.
         12    1    4    4    0    0 -0.48346298890E+00 -0.75539191258E+00  0.10351401810E+01  0.13696235240E+01  0.00000000000E+00 0. -1.
</event>
<event>
 8    1  0.1269154E-006  0.9118800E+02  0.7816164E-02  0.1184000E+00
        -11   -1    0    0    0    0  0.00000000000E+00  0.00000000000E+00  0.45593999997E+02  0.45594000000E+02  0.51100000000E-03 0. -1.
         11   -1    0    0    0    0 -0.00000000000E+00 -0.00000000000E+00 -0.45593999997E+02  0.45594000000E+02  0.51100000000E-03 0.  1.
         23    2    1    2    0    0  0.35527136788E-14  0.00000000000E+00 -0.35527136788E-14  0.91188000000E+02  0.91188000000E+02 0.  0.
    9900012    2    3    3    0    0  0.15000127255E+02 -0.26137966753E+02 -0.21156142256E+02  0.54367089109E+02  0.40000011243E+02 0.  0.
         12    1    3    3    0    0 -0.15000127255E+02  0.26137966753E+02  0.21156142256E+02  0.36820910891E+02  0.00000000000E+00 0. -1.
         11    1    4    4    0    0 -0.26799758654E+01 -0.40902829680E+01 -0.21342606436E+01  0.53355181711E+01  0.51100000000E-03 0. -1.
        -11    1    4    4    0    0  0.27515533886E+02 -0.18280492532E+02 -0.84271228211E+01  0.34092483211E+02  0.51100000000E-03 0.  1.
        -12    1    4    4    0    0 -0.98354307647E+01 -0.37671912533E+01 -0.10594758792E+02  0.14939087727E+02  0.00000000000E+00 0.  1.
</event>
<event>
 8    1  0.1269154E-006  0.9118800E+02  0.7816164E-02  0.1184000E+00
        -11   -1    0    0    0    0  0.00000000000E+00  0.00000000000E+00  0.45593999997E+02  0.45594000000E+02  0.51100000000E-03 0.  1.
         11   -1    0    0    0    0 -0.00000000000E+00 -0.00000000000E+00 -0.45593999997E+02  0.45594000000E+02  0.51100000000E-03 0. -1.
         23    2    1    2    0    0  0.00000000000E+00 -0.71054273576E-14  0.44408920985E-15  0.91188000000E+02  0.91188000000E+02 0.  0.
    9900012    2    3    3    0    0  0.56042796605E+01  0.36306199134E+02 -0.24963804455E+01  0.54367082556E+02  0.39999996302E+02 0.  0.
         12    1    3    3    0    0 -0.56042796605E+01 -0.36306199134E+02  0.24963804455E+01  0.36820917444E+02  0.00000000000E+00 0. -1.
         11    1    4    4    0    0 -0.61017304300E+01  0.13365702778E+02  0.38953026260E+01  0.15200214070E+02  0.51100000000E-03 0. -1.
        -11    1    4    4    0    0 -0.14222887932E+00  0.14891138190E+02  0.95845779897E+01  0.17709612112E+02  0.51100000000E-03 0.  1.
         12    1    4    4    0    0  0.11848238970E+02  0.80493581669E+01 -0.15976261061E+02  0.21457256374E+02  0.00000000000E+00 0. -1.
</event>
<event>
 8    1  0.1269154E-006  0.9118800E+02  0.7816164E-02  0.1184000E+00
        -11   -1    0    0    0    0  0.00000000000E+00  0.00000000000E+00  0.45593999997E+02  0.45594000000E+02  0.51100000000E-03 0.  1.
         11   -1    0    0    0    0 -0.00000000000E+00 -0.00000000000E+00 -0.45593999997E+02  0.45594000000E+02  0.51100000000E-03 0. -1.
         23    2    1    2    0    0 -0.71054273576E-14  0.35527136788E-14 -0.88817841970E-15  0.91188000000E+02  0.91188000000E+02 0.  0.
    9900012    2    3    3    0    0 -0.32575440851E+02  0.16966233221E+02 -0.26014787611E+01  0.54367080564E+02  0.39999991762E+02 0.  0.
         12    1    3    3    0    0  0.32575440851E+02 -0.16966233221E+02  0.26014787611E+01  0.36820919436E+02  0.00000000000E+00 0. -1.
         11    1    4    4    0    0 -0.27763323976E+02 -0.46513368983E+01 -0.37935981685E+01  0.28404726375E+02  0.51100000000E-03 0. -1.
        -11    1    4    4    0    0  0.43650840683E+01  0.39655464028E+01 -0.86770469987E+00  0.59609083958E+01  0.51100000000E-03 0.  1.
        -12    1    4    4    0    0 -0.91772009438E+01  0.17652023717E+02  0.20598241073E+01  0.20001445793E+02  0.00000000000E+00 0.  1.
</event>
<event>
 8    1  0.1269154E-006  0.9118800E+02  0.7816164E-02  0.1184000E+00
        -11   -1    0    0    0    0  0.00000000000E+00  0.00000000000E+00  0.45593999997E+02  0.45594000000E+02  0.51100000000E-03 0. -1.
         11   -1    0    0    0    0 -0.00000000000E+00 -0.00000000000E+00 -0.45593999997E+02  0.45594000000E+02  0.51100000000E-03 0.  1.
         23    2    1    2    0    0  0.00000000000E+00  0.35527136788E-14  0.35527136788E-14  0.91188000000E+02  0.91188000000E+02 0.  0.
    9900012    2    3    3    0    0 -0.39105853163E+01  0.26256122739E+02  0.25516699018E+02  0.54367101212E+02  0.40000038833E+02 0.  0.
        -12    1    3    3    0    0  0.39105853163E+01 -0.26256122739E+02 -0.25516699018E+02  0.36820898788E+02  0.00000000000E+00 0.  1.
         11    1    4    4    0    0 -0.37767499700E+01 -0.64265712431E+01 -0.23207769218E+01  0.78070906271E+01  0.51100000000E-03 0. -1.
        -11    1    4    4    0    0 -0.27078054737E+01  0.19516760193E+01 -0.17967906253E+01  0.37907395822E+01  0.51100000000E-03 0.  1.
         12    1    4    4    0    0  0.25739701274E+01  0.30731017962E+02  0.29634266565E+02  0.42769271003E+02  0.00000000000E+00 0. -1.
</event>
<event>
 8    1  0.1269154E-006  0.9118800E+02  0.7816164E-02  0.1184000E+00
        -11   -1    0    0    0    0  0.00000000000E+00  0.00000000000E+00  0.45593999997E+02  0.45594000000E+02  0.51100000000E-03 0.  1.
         11   -1    0    0    0    0 -0.00000000000E+00 -0.00000000000E+00 -0.45593999997E+02  0.45594000000E+02  0.51100000000E-03 0. -1.
         23    2    1    2    0    0  0.00000000000E+00  0.88817841970E-15  0.00000000000E+00  0.91188000000E+02  0.91188000000E+02 0.  0.
    9900012    2    3    3    0    0 -0.10973428929E+02  0.55807489276E+01  0.34701915104E+02  0.54367030255E+02  0.39999877073E+02 0.  0.
         12    1    3    3    0    0  0.10973428929E+02 -0.55807489276E+01 -0.34701915104E+02  0.36820969745E+02  0.00000000000E+00 0. -1.
         11    1    4    4    0    0 -0.90864283291E+01  0.99117475023E+01  0.89188416436E+00  0.13475955475E+02  0.51100000000E-03 0. -1.
        -11    1    4    4    0    0 -0.69687275820E+01  0.74118951803E+01  0.16024715194E+02  0.18981329026E+02  0.51100000000E-03 0.  1.
         12    1    4    4    0    0  0.50817269823E+01 -0.11742893755E+02  0.17785315746E+02  0.21909745755E+02  0.00000000000E+00 0. -1.
</event>
<event>
 8    1  0.1269154E-006  0.9118800E+02  0.7816164E-02  0.1184000E+00
        -11   -1    0    0    0    0  0.00000000000E+00  0.00000000000E+00  0.45593999997E+02  0.45594000000E+02  0.51100000000E-03 0. -1.
         11   -1    0    0    0    0 -0.00000000000E+00 -0.00000000000E+00 -0.45593999997E+02  0.45594000000E+02  0.51100000000E-03 0.  1.
         23    2    1    2    0    0  0.00000000000E+00  0.00000000000E+00 -0.44408920985E-15  0.91188000000E+02  0.91188000000E+02 0.  0.
    9900012    2    3    3    0    0 -0.63740010093E+01 -0.36203843983E+02  0.21055877516E+01  0.54367086000E+02  0.40000004153E+02 0.  0.
         12    1    3    3    0    0  0.63740010093E+01  0.36203843983E+02 -0.21055877516E+01  0.36820914000E+02  0.00000000000E+00 0. -1.
         11    1    4    4    0    0 -0.79976061027E+00 -0.95858348781E+01  0.97724050688E+01  0.13712321045E+02  0.51100000000E-03 0. -1.
        -11    1    4    4    0    0 -0.26603955442E+01 -0.26284621680E+02  0.56521001330E+01  0.27016759197E+02  0.51100000000E-03 0.  1.
         12    1    4    4    0    0 -0.29138448548E+01 -0.33338742515E+00 -0.13318917450E+02  0.13638005758E+02  0.00000000000E+00 0. -1.
</event>
<event>
 8    1  0.1269154E-006  0.9118800E+02  0.7816164E-02  0.1184000E+00
        -11   -1    0    0    0    0  0.00000000000E+00  0.00000000000E+00  0.45593999997E+02  0.45594000000E+02  0.51100000000E-03 0. -1.
         11   -1    0    0    0    0 -0.00000000000E+00 -0.00000000000E+00 -0.45593999997E+02  0.45594000000E+02  0.51100000000E-03 0.  1.
         23    2    1    2    0    0 -0.17763568394E-14 -0.11310397063E-14  0.00000000000E+00  0.91188000000E+02  0.91188000000E+02 0.  0.
    9900012    2    3    3    0    0 -0.94487479745E+01  0.62073800811E-01 -0.35587895178E+02  0.54367068798E+02  0.39999964938E+02 0.  0.
         12    1    3    3    0    0  0.94487479745E+01 -0.62073800811E-01  0.35587895178E+02  0.36820931202E+02  0.00000000000E+00 0. -1.
         11    1    4    4    0    0  0.38419411206E+01 -0.66536223715E+01 -0.20162723557E+02  0.21576992926E+02  0.51100000000E-03 0.  1.
        -11    1    4    4    0    0 -0.65723810890E+01  0.45088067386E+01 -0.21836035779E+02  0.23245171331E+02  0.51100000000E-03 0. -1.
         12    1    4    4    0    0 -0.67183080061E+01  0.22068894337E+01  0.64108641585E+01  0.95449045410E+01  0.00000000000E+00 0. -1.
</event>
<event>
 8    1  0.1269154E-006  0.9118800E+02  0.7816164E-02  0.1184000E+00
        -11   -1    0    0    0    0  0.00000000000E+00  0.00000000000E+00  0.45593999997E+02  0.45594000000E+02  0.51100000000E-03 0.  1.
         11   -1    0    0    0    0 -0.00000000000E+00 -0.00000000000E+00 -0.45593999997E+02  0.45594000000E+02  0.51100000000E-03 0. -1.
         23    2    1    2    0    0  0.11102230246E-15 -0.17763568394E-14  0.00000000000E+00  0.91188000000E+02  0.91188000000E+02 0.  0.
    9900012    2    3    3    0    0 -0.70980326589E+00 -0.75353618032E+01 -0.36034698346E+02  0.54367014366E+02  0.39999840849E+02 0.  0.
        -12    1    3    3    0    0  0.70980326589E+00  0.75353618032E+01  0.36034698346E+02  0.36820985634E+02  0.00000000000E+00 0.  1.
         11    1    4    4    0    0  0.75009937786E+01  0.86982313969E+01 -0.18154406341E+02  0.21482704833E+02  0.51100000000E-03 0. -1.
        -11    1    4    4    0    0  0.60779691422E+01 -0.86432945128E+00 -0.16557124126E+01  0.63584713688E+01  0.51100000000E-03 0.  1.
        -12    1    4    4    0    0 -0.14288766187E+02 -0.15369263749E+02 -0.16224579593E+02  0.26525838164E+02  0.00000000000E+00 0.  1.
</event>
<event>
 8    1  0.1269154E-006  0.9118800E+02  0.7816164E-02  0.1184000E+00
        -11   -1    0    0    0    0  0.00000000000E+00  0.00000000000E+00  0.45593999997E+02  0.45594000000E+02  0.51100000000E-03 0. -1.
         11   -1    0    0    0    0 -0.00000000000E+00 -0.00000000000E+00 -0.45593999997E+02  0.45594000000E+02  0.51100000000E-03 0.  1.
         23    2    1    2    0    0  0.88817841970E-15 -0.71054273576E-14  0.17763568394E-14  0.91188000000E+02  0.91188000000E+02 0.  0.
    9900012    2    3    3    0    0  0.37108690507E+01  0.34550446245E+02 -0.12176849888E+02  0.54367088034E+02  0.40000008790E+02 0.  0.
         12    1    3    3    0    0 -0.37108690507E+01 -0.34550446245E+02  0.12176849888E+02  0.36820911966E+02  0.00000000000E+00 0. -1.
         11    1    4    4    0    0  0.18183151686E+02  0.15151714792E+02 -0.66651601003E+01  0.24589140404E+02  0.51100000000E-03 0. -1.
        -11    1    4    4    0    0 -0.33399993809E+01  0.19721261773E+01 -0.80579857339E+01  0.89429308324E+01  0.51100000000E-03 0.  1.
        -12    1    4    4    0    0 -0.11132283255E+02  0.17426605276E+02  0.25462959459E+01  0.20835016797E+02  0.00000000000E+00 0.  1.
</event>
<event>
 8    1  0.1269154E-006  0.9118800E+02  0.7816164E-02  0.1184000E+00
        -11   -1    0    0    0    0  0.00000000000E+00  0.00000000000E+00  0.45593999997E+02  0.45594000000E+02  0.51100000000E-03 0.  1.
         11   -1    0    0    0    0 -0.00000000000E+00 -0.00000000000E+00 -0.45593999997E+02  0.45594000000E+02  0.51100000000E-03 0. -1.
         23    2    1    2    0    0  0.88817841970E-15  0.00000000000E+00  0.00000000000E+00  0.91188000000E+02  0.91188000000E+02 0.  0.
    9900012    2    3    3    0    0  0.71388422970E+01 -0.33060386172E+02  0.14554265324E+02  0.54367097752E+02  0.40000030946E+02 0.  0.
         12    1    3    3    0    0 -0.71388422970E+01  0.33060386172E+02 -0.14554265324E+02  0.36820902248E+02  0.00000000000E+00 0. -1.
         11    1    4    4    0    0  0.33091788053E+01 -0.18571763862E+02 -0.36162775903E+01  0.19207772937E+02  0.51100000000E-03 0. -1.
        -11    1    4    4    0    0 -0.38532641098E+01 -0.18406379437E+02  0.18698053593E+02  0.26519043284E+02  0.51100000000E-03 0.  1.
         12    1    4    4    0    0  0.76829276014E+01  0.39177571267E+01 -0.52751067786E+00  0.86402815317E+01  0.00000000000E+00 0. -1.
</event>
<event>
 8    1  0.1269154E-006  0.9118800E+02  0.7816164E-02  0.1184000E+00
        -11   -1    0    0    0    0  0.00000000000E+00  0.00000000000E+00  0.45593999997E+02  0.45594000000E+02  0.51100000000E-03 0.  1.
         11   -1    0    0    0    0 -0.00000000000E+00 -0.00000000000E+00 -0.45593999997E+02  0.45594000000E+02  0.51100000000E-03 0. -1.
         23    2    1    2    0    0  0.17763568394E-14  0.33306690739E-15  0.71054273576E-14  0.91188000000E+02  0.91188000000E+02 0.  0.
    9900012    2    3    3    0    0 -0.10826271584E+02  0.37544858699E+00 -0.35191330592E+02  0.54367097419E+02  0.40000030187E+02 0.  0.
        -12    1    3    3    0    0  0.10826271584E+02 -0.37544858699E+00  0.35191330592E+02  0.36820902581E+02  0.00000000000E+00 0.  1.
         11    1    4    4    0    0  0.52919835807E+00 -0.12579618574E+02 -0.40720376852E+01  0.13232850998E+02  0.51100000000E-03 0. -1.
        -11    1    4    4    0    0 -0.50589746484E+00  0.12582771893E+02 -0.26493035180E+02  0.29333649519E+02  0.51100000000E-03 0.  1.
         12    1    4    4    0    0 -0.10849572477E+02  0.37229526799E+00 -0.46262577261E+01  0.11800596903E+02  0.00000000000E+00 0. -1.
</event>
<event>
 8    1  0.1269154E-006  0.9118800E+02  0.7816164E-02  0.1184000E+00
        -11   -1    0    0    0    0  0.00000000000E+00  0.00000000000E+00  0.45593999997E+02  0.45594000000E+02  0.51100000000E-03 0. -1.
         11   -1    0    0    0    0 -0.00000000000E+00 -0.00000000000E+00 -0.45593999997E+02  0.45594000000E+02  0.51100000000E-03 0.  1.
         23    2    1    2    0    0 -0.88817841970E-15  0.00000000000E+00  0.00000000000E+00  0.91188000000E+02  0.91188000000E+02 0.  0.
    9900012    2    3    3    0    0 -0.61459962183E+01 -0.35652340072E+02  0.68495087109E+01  0.54367103871E+02  0.40000044895E+02 0.  0.
        -12    1    3    3    0    0  0.61459962183E+01  0.35652340072E+02 -0.68495087109E+01  0.36820896129E+02  0.00000000000E+00 0.  1.
         11    1    4    4    0    0  0.12441215344E+02 -0.15977599111E+02  0.11064852198E+02  0.23075928303E+02  0.51100000000E-03 0. -1.
        -11    1    4    4    0    0 -0.78596533394E+01 -0.12114740581E+02 -0.93445725727E+01  0.17200643208E+02  0.51100000000E-03 0.  1.
         12    1    4    4    0    0 -0.10727558223E+02 -0.75600003803E+01  0.51292290855E+01  0.14090532360E+02  0.00000000000E+00 0. -1.
</event>
<event>
 8    1  0.1269154E-006  0.9118800E+02  0.7816164E-02  0.1184000E+00
        -11   -1    0    0    0    0  0.00000000000E+00  0.00000000000E+00  0.45593999997E+02  0.45594000000E+02  0.51100000000E-03 0.  1.
         11   -1    0    0    0    0 -0.00000000000E+00 -0.00000000000E+00 -0.45593999997E+02  0.45594000000E+02  0.51100000000E-03 0. -1.
         23    2    1    2    0    0  0.71054273576E-14  0.44408920985E-15  0.17763568394E-14  0.91188000000E+02  0.91188000000E+02 0.  0.
    9900012    2    3    3    0    0 -0.34408566783E+02 -0.24050360061E+01  0.12885956567E+02  0.54367061080E+02  0.39999947345E+02 0.  0.
         12    1    3    3    0    0  0.34408566783E+02  0.24050360061E+01 -0.12885956567E+02  0.36820938920E+02  0.00000000000E+00 0. -1.
         11    1    4    4    0    0  0.42549695055E+01  0.22270366801E+01 -0.36250807634E+01  0.60171146465E+01  0.51100000000E-03 0. -1.
        -11    1    4    4    0    0 -0.28193759907E+02  0.50154674692E+01  0.31217612094E+01  0.28806048062E+02  0.51100000000E-03 0.  1.
         12    1    4    4    0    0 -0.10469776382E+02 -0.96475401554E+01  0.13389276121E+02  0.19543898372E+02  0.00000000000E+00 0. -1.
</event>
<event>
 8    1  0.1269154E-006  0.9118800E+02  0.7816164E-02  0.1184000E+00
        -11   -1    0    0    0    0  0.00000000000E+00  0.00000000000E+00  0.45593999997E+02  0.45594000000E+02  0.51100000000E-03 0. -1.
         11   -1    0    0    0    0 -0.00000000000E+00 -0.00000000000E+00 -0.45593999997E+02  0.45594000000E+02  0.51100000000E-03 0.  1.
         23    2    1    2    0    0  0.00000000000E+00  0.00000000000E+00  0.00000000000E+00  0.91188000000E+02  0.91188000000E+02 0.  0.
    9900012    2    3    3    0    0 -0.98261002321E+01 -0.16604899711E+02 -0.31360967962E+02  0.54367010718E+02  0.39999832534E+02 0.  0.
         12    1    3    3    0    0  0.98261002321E+01  0.16604899711E+02  0.31360967962E+02  0.36820989282E+02  0.00000000000E+00 0. -1.
         11    1    4    4    0    0  0.57231902463E+01 -0.94691109528E+01 -0.13847935811E+02  0.17725244577E+02  0.51100000000E-03 0. -1.
        -11    1    4    4    0    0 -0.28235022151E+01  0.18887199247E+01 -0.20481236913E+02  0.20761033054E+02  0.51100000000E-03 0.  1.
         12    1    4    4    0    0 -0.12725788263E+02 -0.90245086832E+01  0.29682047615E+01  0.15880733088E+02  0.00000000000E+00 0. -1.
</event>
<event>
 8    1  0.1269154E-006  0.9118800E+02  0.7816164E-02  0.1184000E+00
        -11   -1    0    0    0    0  0.00000000000E+00  0.00000000000E+00  0.45593999997E+02  0.45594000000E+02  0.51100000000E-03 0. -1.
         11   -1    0    0    0    0 -0.00000000000E+00 -0.00000000000E+00 -0.45593999997E+02  0.45594000000E+02  0.51100000000E-03 0.  1.
         23    2    1    2    0    0 -0.26645352591E-14 -0.71054273576E-14  0.35527136788E-14  0.91188000000E+02  0.91188000000E+02 0.  0.
    9900012    2    3    3    0    0  0.47210309218E+01  0.33307333320E+02 -0.14970433091E+02  0.54367075883E+02  0.39999981091E+02 0.  0.
         12    1    3    3    0    0 -0.47210309218E+01 -0.33307333320E+02  0.14970433091E+02  0.36820924117E+02  0.00000000000E+00 0. -1.
         11    1    4    4    0    0  0.11638571787E+01 -0.16381561352E+01  0.10055186402E+01  0.22470396197E+01  0.51100000000E-03 0. -1.
        -11    1    4    4    0    0  0.15650938199E+02  0.47940081288E+01 -0.11461546890E+01  0.16408779701E+02  0.51100000000E-03 0.  1.
         12    1    4    4    0    0 -0.12093764456E+02  0.30151481327E+02 -0.14829797042E+02  0.35711256562E+02  0.00000000000E+00 0. -1.
</event>
<event>
 8    1  0.1269154E-006  0.9118800E+02  0.7816164E-02  0.1184000E+00
        -11   -1    0    0    0    0  0.00000000000E+00  0.00000000000E+00  0.45593999997E+02  0.45594000000E+02  0.51100000000E-03 0.  1.
         11   -1    0    0    0    0 -0.00000000000E+00 -0.00000000000E+00 -0.45593999997E+02  0.45594000000E+02  0.51100000000E-03 0. -1.
         23    2    1    2    0    0  0.00000000000E+00  0.00000000000E+00  0.00000000000E+00  0.91188000000E+02  0.91188000000E+02 0.  0.
    9900012    2    3    3    0    0  0.30555385036E+02  0.19220675317E+02 -0.72605378822E+01  0.54367064044E+02  0.39999954100E+02 0.  0.
        -12    1    3    3    0    0 -0.30555385036E+02 -0.19220675317E+02  0.72605378822E+01  0.36820935956E+02  0.00000000000E+00 0.  1.
         11    1    4    4    0    0  0.20108409752E+02 -0.59989355506E+00 -0.10363237412E+02  0.22629730554E+02  0.51100000000E-03 0. -1.
        -11    1    4    4    0    0  0.70369347134E+00  0.15319669246E+02 -0.71265167335E+01  0.16910786242E+02  0.51100000000E-03 0.  1.
        -12    1    4    4    0    0  0.97432818132E+01  0.45008996259E+01  0.10229216263E+02  0.14826547248E+02  0.00000000000E+00 0.  1.
</event>
<event>
 8    1  0.1269154E-006  0.9118800E+02  0.7816164E-02  0.1184000E+00
        -11   -1    0    0    0    0  0.00000000000E+00  0.00000000000E+00  0.45593999997E+02  0.45594000000E+02  0.51100000000E-03 0.  1.
         11   -1    0    0    0    0 -0.00000000000E+00 -0.00000000000E+00 -0.45593999997E+02  0.45594000000E+02  0.51100000000E-03 0. -1.
         23    2    1    2    0    0  0.00000000000E+00  0.35527136788E-14  0.00000000000E+00  0.91188000000E+02  0.91188000000E+02 0.  0.
    9900012    2    3    3    0    0 -0.20494172062E+02 -0.29415087338E+02  0.83977287485E+01  0.54367077962E+02  0.39999985829E+02 0.  0.
         12    1    3    3    0    0  0.20494172062E+02  0.29415087338E+02 -0.83977287485E+01  0.36820922038E+02  0.00000000000E+00 0. -1.
         11    1    4    4    0    0 -0.19767773576E+01  0.64729908800E+00  0.10730026892E+02  0.10929781434E+02  0.51100000000E-03 0. -1.
        -11    1    4    4    0    0  0.91589952206E+00 -0.20896479687E+02  0.34197547168E+01  0.21194255303E+02  0.51100000000E-03 0.  1.
         12    1    4    4    0    0 -0.19433294226E+02 -0.91659067394E+01 -0.57520528601E+01  0.22243041225E+02  0.00000000000E+00 0. -1.
</event>
<event>
 8    1  0.1269154E-006  0.9118800E+02  0.7816164E-02  0.1184000E+00
        -11   -1    0    0    0    0  0.00000000000E+00  0.00000000000E+00  0.45593999997E+02  0.45594000000E+02  0.51100000000E-03 0. -1.
         11   -1    0    0    0    0 -0.00000000000E+00 -0.00000000000E+00 -0.45593999997E+02  0.45594000000E+02  0.51100000000E-03 0.  1.
         23    2    1    2    0    0  0.35527136788E-14  0.00000000000E+00  0.00000000000E+00  0.91188000000E+02  0.91188000000E+02 0.  0.
    9900012    2    3    3    0    0 -0.27443246301E+02  0.12704590222E+02 -0.21005762377E+02  0.54367076149E+02  0.39999981696E+02 0.  0.
        -12    1    3    3    0    0  0.27443246301E+02 -0.12704590222E+02  0.21005762377E+02  0.36820923851E+02  0.00000000000E+00 0.  1.
         11    1    4    4    0    0 -0.33309999467E+02  0.52504655627E+01 -0.13107178253E+02  0.36179021202E+02  0.51100000000E-03 0. -1.
        -11    1    4    4    0    0  0.56984789251E+01  0.34995887984E+01 -0.11192860827E+02  0.13038401649E+02  0.51100000000E-03 0.  1.
         12    1    4    4    0    0  0.16827424086E+00  0.39545358609E+01  0.32942767026E+01  0.51496532979E+01  0.00000000000E+00 0. -1.
</event>
<event>
 8    1  0.1269154E-006  0.9118800E+02  0.7816164E-02  0.1184000E+00
        -11   -1    0    0    0    0  0.00000000000E+00  0.00000000000E+00  0.45593999997E+02  0.45594000000E+02  0.51100000000E-03 0.  1.
         11   -1    0    0    0    0 -0.00000000000E+00 -0.00000000000E+00 -0.45593999997E+02  0.45594000000E+02  0.51100000000E-03 0. -1.
         23    2    1    2    0    0 -0.11102230246E-15  0.00000000000E+00  0.35527136788E-14  0.91188000000E+02  0.91188000000E+02 0.  0.
    9900012    2    3    3    0    0  0.54540730679E+00 -0.19207433945E+02 -0.31409499433E+02  0.54367086887E+02  0.40000006176E+02 0.  0.
         12    1    3    3    0    0 -0.54540730679E+00  0.19207433945E+02  0.31409499433E+02  0.36820913113E+02  0.00000000000E+00 0. -1.
         11    1    4    4    0    0 -0.41092140684E+01  0.85606082814E+01 -0.90401813828E+01  0.13110855582E+02  0.51100000000E-03 0. -1.
        -11    1    4    4    0    0  0.68111888838E+01 -0.64698239820E+00 -0.15957161477E+01  0.70254672812E+01  0.51100000000E-03 0.  1.
        -12    1    4    4    0    0 -0.21565675086E+01 -0.27121059828E+02 -0.20773601902E+02  0.34230764023E+02  0.00000000000E+00 0.  1.
</event>
<event>
 8    1  0.1269154E-006  0.9118800E+02  0.7816164E-02  0.1184000E+00
        -11   -1    0    0    0    0  0.00000000000E+00  0.00000000000E+00  0.45593999997E+02  0.45594000000E+02  0.51100000000E-03 0.  1.
         11   -1    0    0    0    0 -0.00000000000E+00 -0.00000000000E+00 -0.45593999997E+02  0.45594000000E+02  0.51100000000E-03 0. -1.
         23    2    1    2    0    0 -0.17763568394E-14 -0.35527136788E-14  0.00000000000E+00  0.91188000000E+02  0.91188000000E+02 0.  0.
    9900012    2    3    3    0    0  0.12879247196E+02  0.22282049971E+02  0.26332771306E+02  0.54367087411E+02  0.40000007370E+02 0.  0.
         12    1    3    3    0    0 -0.12879247196E+02 -0.22282049971E+02 -0.26332771306E+02  0.36820912589E+02  0.00000000000E+00 0. -1.
         11    1    4    4    0    0  0.10902794881E+02  0.44920946946E+01  0.58428110764E+01  0.13160102298E+02  0.51100000000E-03 0. -1.
        -11    1    4    4    0    0  0.44925630150E+01  0.20908862835E+02  0.11076197150E+01  0.21414725989E+02  0.51100000000E-03 0.  1.
        -12    1    4    4    0    0 -0.25161106992E+01 -0.31189075586E+01  0.19382340515E+02  0.19792259124E+02  0.00000000000E+00 0.  1.
</event>
<event>
 8    1  0.1269154E-006  0.9118800E+02  0.7816164E-02  0.1184000E+00
        -11   -1    0    0    0    0  0.00000000000E+00  0.00000000000E+00  0.45593999997E+02  0.45594000000E+02  0.51100000000E-03 0.  1.
         11   -1    0    0    0    0 -0.00000000000E+00 -0.00000000000E+00 -0.45593999997E+02  0.45594000000E+02  0.51100000000E-03 0. -1.
         23    2    1    2    0    0 -0.17763568394E-14  0.00000000000E+00 -0.88817841970E-15  0.91188000000E+02  0.91188000000E+02 0.  0.
    9900012    2    3    3    0    0  0.12770695754E+02  0.34013053257E+02 -0.59834850527E+01  0.54367074491E+02  0.39999977918E+02 0.  0.
         12    1    3    3    0    0 -0.12770695754E+02 -0.34013053257E+02  0.59834850527E+01  0.36820925509E+02  0.00000000000E+00 0. -1.
         11    1    4    4    0    0  0.36379763345E+01 -0.18957203856E+01 -0.10848925543E+02  0.11598612559E+02  0.51100000000E-03 0. -1.
        -11    1    4    4    0    0  0.89084784664E+01  0.32854576713E+02 -0.31515278776E+01  0.34186493353E+02  0.51100000000E-03 0.  1.
         12    1    4    4    0    0  0.22424095320E+00  0.30541969304E+01  0.80169683678E+01  0.85819685798E+01  0.00000000000E+00 0. -1.
</event>
<event>
 8    1  0.1269154E-006  0.9118800E+02  0.7816164E-02  0.1184000E+00
        -11   -1    0    0    0    0  0.00000000000E+00  0.00000000000E+00  0.45593999997E+02  0.45594000000E+02  0.51100000000E-03 0. -1.
         11   -1    0    0    0    0 -0.00000000000E+00 -0.00000000000E+00 -0.45593999997E+02  0.45594000000E+02  0.51100000000E-03 0.  1.
         23    2    1    2    0    0  0.00000000000E+00  0.00000000000E+00 -0.88817841970E-15  0.91188000000E+02  0.91188000000E+02 0.  0.
    9900012    2    3    3    0    0 -0.21243861663E+02  0.29747194031E+02  0.44252337884E+01  0.54367083320E+02  0.39999998044E+02 0.  0.
         12    1    3    3    0    0  0.21243861663E+02 -0.29747194031E+02 -0.44252337884E+01  0.36820916680E+02  0.00000000000E+00 0. -1.
         11    1    4    4    0    0  0.30685681781E+01  0.96435827951E+01  0.65303117449E+01  0.12044076201E+02  0.51100000000E-03 0. -1.
        -11    1    4    4    0    0 -0.29354485346E+02  0.21922103002E+02 -0.34436873504E+01  0.36798415629E+02  0.51100000000E-03 0.  1.
        -12    1    4    4    0    0  0.50420555049E+01 -0.18184917659E+01  0.13386093939E+01  0.55245914895E+01  0.00000000000E+00 0.  1.
</event>
<event>
 8    1  0.1269154E-006  0.9118800E+02  0.7816164E-02  0.1184000E+00
        -11   -1    0    0    0    0  0.00000000000E+00  0.00000000000E+00  0.45593999997E+02  0.45594000000E+02  0.51100000000E-03 0. -1.
         11   -1    0    0    0    0 -0.00000000000E+00 -0.00000000000E+00 -0.45593999997E+02  0.45594000000E+02  0.51100000000E-03 0.  1.
         23    2    1    2    0    0  0.00000000000E+00 -0.35527136788E-14 -0.17763568394E-14  0.91188000000E+02  0.91188000000E+02 0.  0.
    9900012    2    3    3    0    0  0.29405679004E+02  0.17955525244E+02  0.12987894836E+02  0.54367078546E+02  0.39999987162E+02 0.  0.
         12    1    3    3    0    0 -0.29405679004E+02 -0.17955525244E+02 -0.12987894836E+02  0.36820921454E+02  0.00000000000E+00 0. -1.
         11    1    4    4    0    0 -0.40823572938E+01  0.34094145724E+01  0.72814348457E+01  0.90171526811E+01  0.51100000000E-03 0. -1.
        -11    1    4    4    0    0  0.52070611531E+01  0.15232343206E+02 -0.14694558937E+01  0.16164685777E+02  0.51100000000E-03 0.  1.
        -12    1    4    4    0    0  0.28280975144E+02 -0.68623253484E+00  0.71759158836E+01  0.29185240088E+02  0.00000000000E+00 0.  1.
</event>
<event>
 8    1  0.1269154E-006  0.9118800E+02  0.7816164E-02  0.1184000E+00
        -11   -1    0    0    0    0  0.00000000000E+00  0.00000000000E+00  0.45593999997E+02  0.45594000000E+02  0.51100000000E-03 0. -1.
         11   -1    0    0    0    0 -0.00000000000E+00 -0.00000000000E+00 -0.45593999997E+02  0.45594000000E+02  0.51100000000E-03 0.  1.
         23    2    1    2    0    0  0.88817841970E-15  0.13877787808E-15  0.00000000000E+00  0.91188000000E+02  0.91188000000E+02 0.  0.
    9900012    2    3    3    0    0 -0.45836647547E+01  0.14873858200E+00  0.36534197418E+02  0.54367086286E+02  0.40000004805E+02 0.  0.
        -12    1    3    3    0    0  0.45836647547E+01 -0.14873858200E+00 -0.36534197418E+02  0.36820913714E+02  0.00000000000E+00 0.  1.
         11    1    4    4    0    0 -0.12104114961E+00  0.16303419199E+00  0.26461096960E+02  0.26461876043E+02  0.51100000000E-03 0. -1.
        -11    1    4    4    0    0 -0.14439488424E+02 -0.18595561174E+01  0.15252975426E+01  0.14638418896E+02  0.51100000000E-03 0.  1.
        -12    1    4    4    0    0  0.99768648193E+01  0.18452605074E+01  0.85478029159E+01  0.13266791347E+02  0.00000000000E+00 0.  1.
</event>
<event>
 8    1  0.1269154E-006  0.9118800E+02  0.7816164E-02  0.1184000E+00
        -11   -1    0    0    0    0  0.00000000000E+00  0.00000000000E+00  0.45593999997E+02  0.45594000000E+02  0.51100000000E-03 0. -1.
         11   -1    0    0    0    0 -0.00000000000E+00 -0.00000000000E+00 -0.45593999997E+02  0.45594000000E+02  0.51100000000E-03 0.  1.
         23    2    1    2    0    0 -0.88817841970E-15  0.00000000000E+00  0.17763568394E-14  0.91188000000E+02  0.91188000000E+02 0.  0.
    9900012    2    3    3    0    0  0.51919415692E+01  0.35255174593E+02  0.92680380762E+01  0.54367080367E+02  0.39999991313E+02 0.  0.
         12    1    3    3    0    0 -0.51919415692E+01 -0.35255174593E+02 -0.92680380762E+01  0.36820919633E+02  0.00000000000E+00 0. -1.
         11    1    4    4    0    0 -0.86338632216E+01  0.19229296159E+02 -0.88795577361E+01  0.22872603060E+02  0.51100000000E-03 0. -1.
        -11    1    4    4    0    0  0.13512320058E+02  0.96318399524E+01  0.57860916492E+01  0.17573673237E+02  0.51100000000E-03 0.  1.
         12    1    4    4    0    0  0.31348473308E+00  0.63940384820E+01  0.12361504163E+02  0.13920804070E+02  0.00000000000E+00 0. -1.
</event>
<event>
 8    1  0.1269154E-006  0.9118800E+02  0.7816164E-02  0.1184000E+00
        -11   -1    0    0    0    0  0.00000000000E+00  0.00000000000E+00  0.45593999997E+02  0.45594000000E+02  0.51100000000E-03 0.  1.
         11   -1    0    0    0    0 -0.00000000000E+00 -0.00000000000E+00 -0.45593999997E+02  0.45594000000E+02  0.51100000000E-03 0. -1.
         23    2    1    2    0    0  0.00000000000E+00  0.00000000000E+00 -0.88817841970E-15  0.91188000000E+02  0.91188000000E+02 0.  0.
    9900012    2    3    3    0    0  0.34099499886E+02  0.12225414105E+02 -0.65987469487E+01  0.54367080622E+02  0.39999991895E+02 0.  0.
        -12    1    3    3    0    0 -0.34099499886E+02 -0.12225414105E+02  0.65987469487E+01  0.36820919378E+02  0.00000000000E+00 0.  1.
         11    1    4    4    0    0  0.21111607712E+02  0.94045659888E+01 -0.96868972854E+00  0.23131887118E+02  0.51100000000E-03 0. -1.
        -11    1    4    4    0    0  0.99539455303E+01 -0.58850836769E+01  0.85083460122E+01  0.14356433876E+02  0.51100000000E-03 0.  1.
         12    1    4    4    0    0  0.30339466439E+01  0.87059317934E+01 -0.14138403232E+02  0.16878759628E+02  0.00000000000E+00 0. -1.
</event>
<event>
 8    1  0.1269154E-006  0.9118800E+02  0.7816164E-02  0.1184000E+00
        -11   -1    0    0    0    0  0.00000000000E+00  0.00000000000E+00  0.45593999997E+02  0.45594000000E+02  0.51100000000E-03 0. -1.
         11   -1    0    0    0    0 -0.00000000000E+00 -0.00000000000E+00 -0.45593999997E+02  0.45594000000E+02  0.51100000000E-03 0.  1.
         23    2    1    2    0    0  0.35527136788E-14  0.88817841970E-15  0.00000000000E+00  0.91188000000E+02  0.91188000000E+02 0.  0.
    9900012    2    3    3    0    0 -0.28396566964E+02 -0.52225434528E+01  0.22850199512E+02  0.54367196191E+02  0.40000255355E+02 0.  0.
        -12    1    3    3    0    0  0.28396566964E+02  0.52225434528E+01 -0.22850199512E+02  0.36820803809E+02  0.00000000000E+00 0.  1.
         11    1    4    4    0    0 -0.30138315189E+02 -0.10143086036E+02  0.67967296230E+01  0.32517622462E+02  0.51100000000E-03 0. -1.
        -11    1    4    4    0    0 -0.11039768169E+01 -0.15249913804E+01  0.14516538244E+02  0.14638109385E+02  0.51100000000E-03 0.  1.
        -12    1    4    4    0    0  0.28457250421E+01  0.64455339640E+01  0.15369316447E+01  0.72114643434E+01  0.00000000000E+00 0.  1.
</event>
<event>
 8    1  0.1269154E-006  0.9118800E+02  0.7816164E-02  0.1184000E+00
        -11   -1    0    0    0    0  0.00000000000E+00  0.00000000000E+00  0.45593999997E+02  0.45594000000E+02  0.51100000000E-03 0.  1.
         11   -1    0    0    0    0 -0.00000000000E+00 -0.00000000000E+00 -0.45593999997E+02  0.45594000000E+02  0.51100000000E-03 0. -1.
         23    2    1    2    0    0  0.00000000000E+00  0.35527136788E-14 -0.71054273576E-14  0.91188000000E+02  0.91188000000E+02 0.  0.
    9900012    2    3    3    0    0  0.65901952699E+01 -0.12774718448E+02  0.33899199830E+02  0.54367084011E+02  0.39999999620E+02 0.  0.
         12    1    3    3    0    0 -0.65901952699E+01  0.12774718448E+02 -0.33899199830E+02  0.36820915989E+02  0.00000000000E+00 0. -1.
         11    1    4    4    0    0  0.11284894860E+02 -0.55189846055E+01  0.15233852401E+02  0.19745336217E+02  0.51100000000E-03 0.  1.
        -11    1    4    4    0    0  0.34660451795E+01  0.90472036000E+01  0.19401328365E+01  0.98807630196E+01  0.51100000000E-03 0. -1.
         12    1    4    4    0    0 -0.81607447697E+01 -0.16302937443E+02  0.16725214593E+02  0.24740984775E+02  0.00000000000E+00 0. -1.
</event>
<event>
 8    1  0.1269154E-006  0.9118800E+02  0.7816164E-02  0.1184000E+00
        -11   -1    0    0    0    0  0.00000000000E+00  0.00000000000E+00  0.45593999997E+02  0.45594000000E+02  0.51100000000E-03 0.  1.
         11   -1    0    0    0    0 -0.00000000000E+00 -0.00000000000E+00 -0.45593999997E+02  0.45594000000E+02  0.51100000000E-03 0. -1.
         23    2    1    2    0    0  0.00000000000E+00  0.53290705182E-14 -0.17763568394E-14  0.91188000000E+02  0.91188000000E+02 0.  0.
    9900012    2    3    3    0    0  0.34111014308E+02 -0.10534545120E+02  0.90134434299E+01  0.54367080668E+02  0.39999991999E+02 0.  0.
         12    1    3    3    0    0 -0.34111014308E+02  0.10534545120E+02 -0.90134434299E+01  0.36820919332E+02  0.00000000000E+00 0. -1.
         11    1    4    4    0    0  0.16324131263E+02  0.72662326273E+01  0.29041377601E+01  0.18102746048E+02  0.51100000000E-03 0. -1.
        -11    1    4    4    0    0  0.99561441775E+01 -0.38024729738E-01  0.12359362559E+02  0.15870730792E+02  0.51100000000E-03 0.  1.
         12    1    4    4    0    0  0.78307388668E+01 -0.17762753017E+02 -0.62500568891E+01  0.20393603827E+02  0.00000000000E+00 0. -1.
</event>
<event>
 8    1  0.1269154E-006  0.9118800E+02  0.7816164E-02  0.1184000E+00
        -11   -1    0    0    0    0  0.00000000000E+00  0.00000000000E+00  0.45593999997E+02  0.45594000000E+02  0.51100000000E-03 0.  1.
         11   -1    0    0    0    0 -0.00000000000E+00 -0.00000000000E+00 -0.45593999997E+02  0.45594000000E+02  0.51100000000E-03 0. -1.
         23    2    1    2    0    0  0.35527136788E-14 -0.88817841970E-15  0.00000000000E+00  0.91188000000E+02  0.91188000000E+02 0.  0.
    9900012    2    3    3    0    0 -0.24230780930E+02 -0.73278854661E+01  0.26738568148E+02  0.54367086425E+02  0.40000005124E+02 0.  0.
         12    1    3    3    0    0  0.24230780930E+02  0.73278854661E+01 -0.26738568148E+02  0.36820913575E+02  0.00000000000E+00 0. -1.
         11    1    4    4    0    0 -0.21269310549E+02  0.17131385292E+01 -0.31327751856E+00  0.21340491042E+02  0.51100000000E-03 0. -1.
        -11    1    4    4    0    0 -0.57146428855E+00  0.43434762482E+01  0.27283393061E+01  0.51610263497E+01  0.51100000000E-03 0.  1.
        -12    1    4    4    0    0 -0.23900060918E+01 -0.13384500243E+02  0.24323506360E+02  0.27865569033E+02  0.00000000000E+00 0.  1.
</event>
<event>
 8    1  0.1269154E-006  0.9118800E+02  0.7816164E-02  0.1184000E+00
        -11   -1    0    0    0    0  0.00000000000E+00  0.00000000000E+00  0.45593999997E+02  0.45594000000E+02  0.51100000000E-03 0. -1.
         11   -1    0    0    0    0 -0.00000000000E+00 -0.00000000000E+00 -0.45593999997E+02  0.45594000000E+02  0.51100000000E-03 0.  1.
         23    2    1    2    0    0  0.00000000000E+00  0.00000000000E+00  0.00000000000E+00  0.91188000000E+02  0.91188000000E+02 0.  0.
    9900012    2    3    3    0    0  0.16206758334E+02  0.26150258727E+02 -0.20230783158E+02  0.54367086997E+02  0.40000006428E+02 0.  0.
         12    1    3    3    0    0 -0.16206758334E+02 -0.26150258727E+02  0.20230783158E+02  0.36820913003E+02  0.00000000000E+00 0. -1.
         11    1    4    4    0    0  0.59940659567E+01 -0.17924413414E+01 -0.88063019326E+01  0.10802436144E+02  0.51100000000E-03 0. -1.
        -11    1    4    4    0    0  0.21141679252E+01 -0.14898581278E+01 -0.12749798623E+02  0.13009486863E+02  0.51100000000E-03 0.  1.
         12    1    4    4    0    0  0.80985244524E+01  0.29432558196E+02  0.13253173977E+01  0.30555163990E+02  0.00000000000E+00 0. -1.
</event>
<event>
 8    1  0.1269154E-006  0.9118800E+02  0.7816164E-02  0.1184000E+00
        -11   -1    0    0    0    0  0.00000000000E+00  0.00000000000E+00  0.45593999997E+02  0.45594000000E+02  0.51100000000E-03 0. -1.
         11   -1    0    0    0    0 -0.00000000000E+00 -0.00000000000E+00 -0.45593999997E+02  0.45594000000E+02  0.51100000000E-03 0.  1.
         23    2    1    2    0    0 -0.35527136788E-14  0.00000000000E+00 -0.35527136788E-14  0.91188000000E+02  0.91188000000E+02 0.  0.
    9900012    2    3    3    0    0 -0.16855369953E+02  0.26807790111E+02 -0.18788785499E+02  0.54367087906E+02  0.40000008500E+02 0.  0.
         12    1    3    3    0    0  0.16855369953E+02 -0.26807790111E+02  0.18788785499E+02  0.36820912094E+02  0.00000000000E+00 0. -1.
         11    1    4    4    0    0 -0.16508299243E+01 -0.37272979920E+01  0.46533893996E+01  0.61864386303E+01  0.51100000000E-03 0. -1.
        -11    1    4    4    0    0 -0.58789050794E+01  0.81480378223E+01  0.46475172373E+01  0.11070296383E+02  0.51100000000E-03 0.  1.
        -12    1    4    4    0    0 -0.93256349490E+01  0.22387050281E+02 -0.28089692136E+02  0.37110352892E+02  0.00000000000E+00 0.  1.
</event>
<event>
 8    1  0.1269154E-006  0.9118800E+02  0.7816164E-02  0.1184000E+00
        -11   -1    0    0    0    0  0.00000000000E+00  0.00000000000E+00  0.45593999997E+02  0.45594000000E+02  0.51100000000E-03 0. -1.
         11   -1    0    0    0    0 -0.00000000000E+00 -0.00000000000E+00 -0.45593999997E+02  0.45594000000E+02  0.51100000000E-03 0.  1.
         23    2    1    2    0    0  0.00000000000E+00  0.13322676296E-14 -0.35527136788E-14  0.91188000000E+02  0.91188000000E+02 0.  0.
    9900012    2    3    3    0    0 -0.25575041759E+02 -0.34862807553E+01  0.26259143664E+02  0.54367088272E+02  0.40000009335E+02 0.  0.
        -12    1    3    3    0    0  0.25575041759E+02  0.34862807553E+01 -0.26259143664E+02  0.36820911728E+02  0.00000000000E+00 0.  1.
         11    1    4    4    0    0 -0.14385261448E+02 -0.81630820858E+01  0.15968770034E+02  0.22990721449E+02  0.51100000000E-03 0. -1.
        -11    1    4    4    0    0  0.31158865194E+01  0.11915116437E+02  0.90741338245E+01  0.15297668235E+02  0.51100000000E-03 0.  1.
        -12    1    4    4    0    0 -0.14305666831E+02 -0.72383151063E+01  0.12162398054E+01  0.16078698589E+02  0.00000000000E+00 0.  1.
</event>
<event>
 8    1  0.1269154E-006  0.9118800E+02  0.7816164E-02  0.1184000E+00
        -11   -1    0    0    0    0  0.00000000000E+00  0.00000000000E+00  0.45593999997E+02  0.45594000000E+02  0.51100000000E-03 0.  1.
         11   -1    0    0    0    0 -0.00000000000E+00 -0.00000000000E+00 -0.45593999997E+02  0.45594000000E+02  0.51100000000E-03 0. -1.
         23    2    1    2    0    0  0.00000000000E+00 -0.35527136788E-14 -0.35527136788E-14  0.91188000000E+02  0.91188000000E+02 0.  0.
    9900012    2    3    3    0    0  0.14186612867E+02 -0.24072839583E+02  0.23979519495E+02  0.54367096352E+02  0.40000027753E+02 0.  0.
         12    1    3    3    0    0 -0.14186612867E+02  0.24072839583E+02 -0.23979519495E+02  0.36820903648E+02  0.00000000000E+00 0. -1.
         11    1    4    4    0    0  0.33859721695E+01 -0.32516594230E+02  0.14262344909E+02  0.35668027566E+02  0.51100000000E-03 0. -1.
        -11    1    4    4    0    0  0.73220718427E+01  0.59755718873E+01  0.10746780991E+02  0.14311306627E+02  0.51100000000E-03 0.  1.
         12    1    4    4    0    0  0.34785688550E+01  0.24681827595E+01 -0.10296064046E+01  0.43877621587E+01  0.00000000000E+00 0. -1.
</event>
<event>
 8    1  0.1269154E-006  0.9118800E+02  0.7816164E-02  0.1184000E+00
        -11   -1    0    0    0    0  0.00000000000E+00  0.00000000000E+00  0.45593999997E+02  0.45594000000E+02  0.51100000000E-03 0.  1.
         11   -1    0    0    0    0 -0.00000000000E+00 -0.00000000000E+00 -0.45593999997E+02  0.45594000000E+02  0.51100000000E-03 0. -1.
         23    2    1    2    0    0  0.00000000000E+00  0.00000000000E+00 -0.53290705182E-14  0.91188000000E+02  0.91188000000E+02 0.  0.
    9900012    2    3    3    0    0 -0.33481814531E+02  0.47325367918E+01 -0.14572264267E+02  0.54367086178E+02  0.40000004561E+02 0.  0.
        -12    1    3    3    0    0  0.33481814531E+02 -0.47325367918E+01  0.14572264267E+02  0.36820913822E+02  0.00000000000E+00 0.  1.
         11    1    4    4    0    0 -0.74968893664E+01  0.34836321631E+01  0.50160980518E+01  0.96695544440E+01  0.51100000000E-03 0. -1.
        -11    1    4    4    0    0  0.23426025617E+01 -0.49225477152E+01  0.44492092664E+01  0.70366701022E+01  0.51100000000E-03 0.  1.
         12    1    4    4    0    0 -0.28327527727E+02  0.61714523439E+01 -0.24037571586E+02  0.37660861632E+02  0.00000000000E+00 0. -1.
</event>
<event>
 8    1  0.1269154E-006  0.9118800E+02  0.7816164E-02  0.1184000E+00
        -11   -1    0    0    0    0  0.00000000000E+00  0.00000000000E+00  0.45593999997E+02  0.45594000000E+02  0.51100000000E-03 0.  1.
         11   -1    0    0    0    0 -0.00000000000E+00 -0.00000000000E+00 -0.45593999997E+02  0.45594000000E+02  0.51100000000E-03 0. -1.
         23    2    1    2    0    0  0.00000000000E+00 -0.17763568394E-14  0.17763568394E-14  0.91188000000E+02  0.91188000000E+02 0.  0.
    9900012    2    3    3    0    0 -0.33418561351E+02  0.10411863330E+02 -0.11426784668E+02  0.54367101741E+02  0.40000040038E+02 0.  0.
        -12    1    3    3    0    0  0.33418561351E+02 -0.10411863330E+02  0.11426784668E+02  0.36820898259E+02  0.00000000000E+00 0.  1.
         11    1    4    4    0    0 -0.42330561176E+01 -0.73082789788E+01 -0.88239309181E+01  0.12214395721E+02  0.51100000000E-03 0. -1.
        -11    1    4    4    0    0 -0.11409312496E+02 -0.72996783539E+00  0.84837417473E+01  0.14236542381E+02  0.51100000000E-03 0.  1.
        -12    1    4    4    0    0 -0.17776192738E+02  0.18450110144E+02 -0.11086595497E+02  0.27916163638E+02  0.00000000000E+00 0.  1.
</event>
<event>
 8    1  0.1269154E-006  0.9118800E+02  0.7816164E-02  0.1184000E+00
        -11   -1    0    0    0    0  0.00000000000E+00  0.00000000000E+00  0.45593999997E+02  0.45594000000E+02  0.51100000000E-03 0.  1.
         11   -1    0    0    0    0 -0.00000000000E+00 -0.00000000000E+00 -0.45593999997E+02  0.45594000000E+02  0.51100000000E-03 0. -1.
         23    2    1    2    0    0  0.00000000000E+00  0.00000000000E+00  0.13322676296E-14  0.91188000000E+02  0.91188000000E+02 0.  0.
    9900012    2    3    3    0    0 -0.96669522246E+01 -0.35516017182E+02 -0.97082418667E+00  0.54367082828E+02  0.39999996923E+02 0.  0.
        -12    1    3    3    0    0  0.96669522246E+01  0.35516017182E+02  0.97082418667E+00  0.36820917172E+02  0.00000000000E+00 0.  1.
         11    1    4    4    0    0  0.10389931580E+02 -0.12308123598E+02  0.60806369323E+01  0.17216699175E+02  0.51100000000E-03 0. -1.
        -11    1    4    4    0    0 -0.14039598568E+02 -0.98790909398E+01 -0.12824150315E+02  0.21428149648E+02  0.51100000000E-03 0.  1.
        -12    1    4    4    0    0 -0.60172852361E+01 -0.13328802644E+02  0.57726891964E+01  0.15722234005E+02  0.00000000000E+00 0.  1.
</event>
<event>
 8    1  0.1269154E-006  0.9118800E+02  0.7816164E-02  0.1184000E+00
        -11   -1    0    0    0    0  0.00000000000E+00  0.00000000000E+00  0.45593999997E+02  0.45594000000E+02  0.51100000000E-03 0.  1.
         11   -1    0    0    0    0 -0.00000000000E+00 -0.00000000000E+00 -0.45593999997E+02  0.45594000000E+02  0.51100000000E-03 0. -1.
         23    2    1    2    0    0 -0.17763568394E-14  0.88817841970E-15  0.71054273576E-14  0.91188000000E+02  0.91188000000E+02 0.  0.
    9900012    2    3    3    0    0  0.12317219839E+02  0.30561652308E+01 -0.34564814970E+02  0.54367075455E+02  0.39999980114E+02 0.  0.
        -12    1    3    3    0    0 -0.12317219839E+02 -0.30561652308E+01  0.34564814970E+02  0.36820924545E+02  0.00000000000E+00 0.  1.
         11    1    4    4    0    0  0.12978287824E+02 -0.31862328485E+01 -0.46148051290E+01  0.14138050122E+02  0.51100000000E-03 0. -1.
        -11    1    4    4    0    0  0.56195962938E+01  0.92660683989E+01 -0.15033201389E+01  0.10940743018E+02  0.51100000000E-03 0.  1.
        -12    1    4    4    0    0 -0.62806642790E+01 -0.30236703197E+01 -0.28446689702E+02  0.29288282315E+02  0.00000000000E+00 0.  1.
</event>
<event>
 8    1  0.1269154E-006  0.9118800E+02  0.7816164E-02  0.1184000E+00
        -11   -1    0    0    0    0  0.00000000000E+00  0.00000000000E+00  0.45593999997E+02  0.45594000000E+02  0.51100000000E-03 0.  1.
         11   -1    0    0    0    0 -0.00000000000E+00 -0.00000000000E+00 -0.45593999997E+02  0.45594000000E+02  0.51100000000E-03 0. -1.
         23    2    1    2    0    0 -0.35527136788E-14  0.00000000000E+00  0.00000000000E+00  0.91188000000E+02  0.91188000000E+02 0.  0.
    9900012    2    3    3    0    0 -0.27331147736E+02 -0.24364944470E+02  0.38911891566E+01  0.54367034387E+02  0.39999886493E+02 0.  0.
         12    1    3    3    0    0  0.27331147736E+02  0.24364944470E+02 -0.38911891566E+01  0.36820965613E+02  0.00000000000E+00 0. -1.
         11    1    4    4    0    0 -0.99323181866E+01 -0.29773810314E+02 -0.62430700511E+01  0.32001666349E+02  0.51100000000E-03 0. -1.
        -11    1    4    4    0    0 -0.10615644942E+02  0.30318620895E+01  0.15167483154E+01  0.11143815817E+02  0.51100000000E-03 0.  1.
         12    1    4    4    0    0 -0.67831846081E+01  0.23770037546E+01  0.86175108923E+01  0.11221552221E+02  0.00000000000E+00 0. -1.
</event>
<event>
 8    1  0.1269154E-006  0.9118800E+02  0.7816164E-02  0.1184000E+00
        -11   -1    0    0    0    0  0.00000000000E+00  0.00000000000E+00  0.45593999997E+02  0.45594000000E+02  0.51100000000E-03 0.  1.
         11   -1    0    0    0    0 -0.00000000000E+00 -0.00000000000E+00 -0.45593999997E+02  0.45594000000E+02  0.51100000000E-03 0. -1.
         23    2    1    2    0    0 -0.35527136788E-14  0.00000000000E+00  0.00000000000E+00  0.91188000000E+02  0.91188000000E+02 0.  0.
    9900012    2    3    3    0    0 -0.27033096130E+02  0.17956500409E+02 -0.17394114733E+02  0.54367089899E+02  0.40000013042E+02 0.  0.
        -12    1    3    3    0    0  0.27033096130E+02 -0.17956500409E+02  0.17394114733E+02  0.36820910101E+02  0.00000000000E+00 0.  1.
         11    1    4    4    0    0 -0.13887949133E+02 -0.50761817305E+01 -0.49113710421E+01  0.15580895926E+02  0.51100000000E-03 0. -1.
        -11    1    4    4    0    0 -0.82641295978E+01  0.10405709718E+02 -0.19454005298E+02  0.23559137403E+02  0.51100000000E-03 0.  1.
        -12    1    4    4    0    0 -0.48810173998E+01  0.12626972422E+02  0.69712616073E+01  0.15227056570E+02  0.00000000000E+00 0.  1.
</event>
<event>
 8    1  0.1269154E-006  0.9118800E+02  0.7816164E-02  0.1184000E+00
        -11   -1    0    0    0    0  0.00000000000E+00  0.00000000000E+00  0.45593999997E+02  0.45594000000E+02  0.51100000000E-03 0. -1.
         11   -1    0    0    0    0 -0.00000000000E+00 -0.00000000000E+00 -0.45593999997E+02  0.45594000000E+02  0.51100000000E-03 0.  1.
         23    2    1    2    0    0 -0.35527136788E-14  0.35527136788E-14  0.10658141036E-13  0.91188000000E+02  0.91188000000E+02 0.  0.
    9900012    2    3    3    0    0 -0.20704928993E+02  0.23566472381E+02  0.19279705830E+02  0.54367085264E+02  0.40000002476E+02 0.  0.
         12    1    3    3    0    0  0.20704928993E+02 -0.23566472381E+02 -0.19279705830E+02  0.36820914736E+02  0.00000000000E+00 0. -1.
         11    1    4    4    0    0 -0.41898014683E-01 -0.22219081694E+01  0.27109714403E+01  0.35054240497E+01  0.51100000000E-03 0. -1.
        -11    1    4    4    0    0 -0.15382558557E+02  0.57429350485E+01 -0.83722084301E+01  0.18430905702E+02  0.51100000000E-03 0.  1.
         12    1    4    4    0    0 -0.52804724219E+01  0.20045445502E+02  0.24940942820E+02  0.32430755513E+02  0.00000000000E+00 0. -1.
</event>
<event>
 8    1  0.1269154E-006  0.9118800E+02  0.7816164E-02  0.1184000E+00
        -11   -1    0    0    0    0  0.00000000000E+00  0.00000000000E+00  0.45593999997E+02  0.45594000000E+02  0.51100000000E-03 0.  1.
         11   -1    0    0    0    0 -0.00000000000E+00 -0.00000000000E+00 -0.45593999997E+02  0.45594000000E+02  0.51100000000E-03 0. -1.
         23    2    1    2    0    0  0.71054273576E-14  0.33306690739E-15  0.35527136788E-14  0.91188000000E+02  0.91188000000E+02 0.  0.
    9900012    2    3    3    0    0  0.33512794129E+02  0.96866616224E+00  0.15222738168E+02  0.54367116771E+02  0.40000074302E+02 0.  0.
         12    1    3    3    0    0 -0.33512794129E+02 -0.96866616224E+00 -0.15222738168E+02  0.36820883229E+02  0.00000000000E+00 0. -1.
         11    1    4    4    0    0  0.15096332053E+02  0.27965131268E+01 -0.42462890245E+01  0.15929554227E+02  0.51100000000E-03 0. -1.
        -11    1    4    4    0    0  0.99154073224E+01  0.12546641585E+02  0.63723585405E+01  0.17214542430E+02  0.51100000000E-03 0.  1.
         12    1    4    4    0    0  0.85010547530E+01 -0.14374488550E+02  0.13096668652E+02  0.21223020114E+02  0.00000000000E+00 0. -1.
</event>
<event>
 8    1  0.1269154E-006  0.9118800E+02  0.7816164E-02  0.1184000E+00
        -11   -1    0    0    0    0  0.00000000000E+00  0.00000000000E+00  0.45593999997E+02  0.45594000000E+02  0.51100000000E-03 0.  1.
         11   -1    0    0    0    0 -0.00000000000E+00 -0.00000000000E+00 -0.45593999997E+02  0.45594000000E+02  0.51100000000E-03 0. -1.
         23    2    1    2    0    0  0.35527136788E-14  0.00000000000E+00 -0.35527136788E-14  0.91188000000E+02  0.91188000000E+02 0.  0.
    9900012    2    3    3    0    0 -0.21512099979E+02 -0.16939657415E+01  0.29835172116E+02  0.54367116515E+02  0.40000073719E+02 0.  0.
         12    1    3    3    0    0  0.21512099979E+02  0.16939657415E+01 -0.29835172116E+02  0.36820883485E+02  0.00000000000E+00 0. -1.
         11    1    4    4    0    0 -0.54302433527E+01 -0.32674595711E+01  0.13059421355E+02  0.14515933360E+02  0.51100000000E-03 0. -1.
        -11    1    4    4    0    0  0.30551995239E+01 -0.82036875968E+01  0.16128883784E+02  0.18351447537E+02  0.51100000000E-03 0.  1.
        -12    1    4    4    0    0 -0.19137056150E+02  0.97771814264E+01  0.64686697618E+00  0.21499735618E+02  0.00000000000E+00 0.  1.
</event>
<event>
 8    1  0.1269154E-006  0.9118800E+02  0.7816164E-02  0.1184000E+00
        -11   -1    0    0    0    0  0.00000000000E+00  0.00000000000E+00  0.45593999997E+02  0.45594000000E+02  0.51100000000E-03 0. -1.
         11   -1    0    0    0    0 -0.00000000000E+00 -0.00000000000E+00 -0.45593999997E+02  0.45594000000E+02  0.51100000000E-03 0.  1.
         23    2    1    2    0    0  0.00000000000E+00  0.88817841970E-15  0.00000000000E+00  0.91188000000E+02  0.91188000000E+02 0.  0.
    9900012    2    3    3    0    0  0.13763776259E+02  0.63452693709E+01  0.33557061502E+02  0.54367077185E+02  0.39999984058E+02 0.  0.
        -12    1    3    3    0    0 -0.13763776259E+02 -0.63452693709E+01 -0.33557061502E+02  0.36820922815E+02  0.00000000000E+00 0.  1.
         11    1    4    4    0    0  0.21250610753E+02 -0.40280349152E+01  0.19635037165E+02  0.29212124321E+02  0.51100000000E-03 0. -1.
        -11    1    4    4    0    0 -0.12171467412E+02  0.10612088852E+02  0.96585391700E+01  0.18816174636E+02  0.51100000000E-03 0.  1.
        -12    1    4    4    0    0  0.46846329181E+01 -0.23878456590E+00  0.42634851675E+01  0.63387782277E+01  0.00000000000E+00 0.  1.
</event>
<event>
 8    1  0.1269154E-006  0.9118800E+02  0.7816164E-02  0.1184000E+00
        -11   -1    0    0    0    0  0.00000000000E+00  0.00000000000E+00  0.45593999997E+02  0.45594000000E+02  0.51100000000E-03 0.  1.
         11   -1    0    0    0    0 -0.00000000000E+00 -0.00000000000E+00 -0.45593999997E+02  0.45594000000E+02  0.51100000000E-03 0. -1.
         23    2    1    2    0    0  0.71054273576E-14 -0.35527136788E-14  0.00000000000E+00  0.91188000000E+02  0.91188000000E+02 0.  0.
    9900012    2    3    3    0    0 -0.29016331864E+02  0.21856649778E+02 -0.60097629906E+01  0.54367110473E+02  0.40000059945E+02 0.  0.
         12    1    3    3    0    0  0.29016331864E+02 -0.21856649778E+02  0.60097629906E+01  0.36820889527E+02  0.00000000000E+00 0. -1.
         11    1    4    4    0    0  0.58510592718E+01  0.98797606968E+01 -0.90618470742E+01  0.14627427617E+02  0.51100000000E-03 0. -1.
        -11    1    4    4    0    0 -0.52032013198E+01 -0.31077743365E+01  0.22059580920E+01  0.64496369406E+01  0.51100000000E-03 0.  1.
        -12    1    4    4    0    0 -0.29664189816E+02  0.15084663418E+02  0.84612599160E+00  0.33290045916E+02  0.00000000000E+00 0.  1.
</event>
<event>
 8    1  0.1269154E-006  0.9118800E+02  0.7816164E-02  0.1184000E+00
        -11   -1    0    0    0    0  0.00000000000E+00  0.00000000000E+00  0.45593999997E+02  0.45594000000E+02  0.51100000000E-03 0. -1.
         11   -1    0    0    0    0 -0.00000000000E+00 -0.00000000000E+00 -0.45593999997E+02  0.45594000000E+02  0.51100000000E-03 0.  1.
         23    2    1    2    0    0  0.00000000000E+00  0.00000000000E+00 -0.35527136788E-14  0.91188000000E+02  0.91188000000E+02 0.  0.
    9900012    2    3    3    0    0 -0.13582451053E+02 -0.19636832013E+02  0.28030174688E+02  0.54367097769E+02  0.40000030983E+02 0.  0.
        -12    1    3    3    0    0  0.13582451053E+02  0.19636832013E+02 -0.28030174688E+02  0.36820902231E+02  0.00000000000E+00 0.  1.
         11    1    4    4    0    0  0.29150572819E+01 -0.19666604891E+01  0.28742505291E+01  0.45416548527E+01  0.51100000000E-03 0. -1.
        -11    1    4    4    0    0 -0.12339785695E+02  0.36482776466E+00 -0.58923563614E+01  0.13679300935E+02  0.51100000000E-03 0.  1.
         12    1    4    4    0    0 -0.41577226390E+01 -0.18034999288E+02  0.31048280520E+02  0.36146141981E+02  0.00000000000E+00 0. -1.
</event>
<event>
 8    1  0.1269154E-006  0.9118800E+02  0.7816164E-02  0.1184000E+00
        -11   -1    0    0    0    0  0.00000000000E+00  0.00000000000E+00  0.45593999997E+02  0.45594000000E+02  0.51100000000E-03 0. -1.
         11   -1    0    0    0    0 -0.00000000000E+00 -0.00000000000E+00 -0.45593999997E+02  0.45594000000E+02  0.51100000000E-03 0.  1.
         23    2    1    2    0    0  0.00000000000E+00  0.00000000000E+00 -0.17763568394E-14  0.91188000000E+02  0.91188000000E+02 0.  0.
    9900012    2    3    3    0    0  0.15871748061E+02  0.31635187705E+02  0.10152971683E+02  0.54367077664E+02  0.39999985151E+02 0.  0.
        -12    1    3    3    0    0 -0.15871748061E+02 -0.31635187705E+02 -0.10152971683E+02  0.36820922336E+02  0.00000000000E+00 0.  1.
         11    1    4    4    0    0  0.12419824679E+02  0.22467905244E+02  0.15460834535E+02  0.29968253467E+02  0.51100000000E-03 0. -1.
        -11    1    4    4    0    0 -0.79995780429E+01  0.58437770649E+00  0.20901748344E+01  0.82887621070E+01  0.51100000000E-03 0.  1.
        -12    1    4    4    0    0  0.11451501425E+02  0.85829047551E+01 -0.73980376865E+01  0.16110062090E+02  0.00000000000E+00 0.  1.
</event>
<event>
 8    1  0.1269154E-006  0.9118800E+02  0.7816164E-02  0.1184000E+00
        -11   -1    0    0    0    0  0.00000000000E+00  0.00000000000E+00  0.45593999997E+02  0.45594000000E+02  0.51100000000E-03 0. -1.
         11   -1    0    0    0    0 -0.00000000000E+00 -0.00000000000E+00 -0.45593999997E+02  0.45594000000E+02  0.51100000000E-03 0.  1.
         23    2    1    2    0    0  0.00000000000E+00 -0.17763568394E-14  0.00000000000E+00  0.91188000000E+02  0.91188000000E+02 0.  0.
    9900012    2    3    3    0    0  0.23927295253E+02 -0.35014988380E+01  0.27766957933E+02  0.54367083321E+02  0.39999998048E+02 0.  0.
        -12    1    3    3    0    0 -0.23927295253E+02  0.35014988380E+01 -0.27766957933E+02  0.36820916679E+02  0.00000000000E+00 0.  1.
         11    1    4    4    0    0  0.56905337650E+01 -0.86062545456E+01  0.76620836632E+01  0.12851354721E+02  0.51100000000E-03 0. -1.
        -11    1    4    4    0    0  0.68102713749E+01 -0.12676958590E+02  0.39800709218E+01  0.14930707957E+02  0.51100000000E-03 0.  1.
        -12    1    4    4    0    0  0.11426490113E+02  0.17781714297E+02  0.16124803348E+02  0.26585020644E+02  0.00000000000E+00 0.  1.
</event>
<event>
 8    1  0.1269154E-006  0.9118800E+02  0.7816164E-02  0.1184000E+00
        -11   -1    0    0    0    0  0.00000000000E+00  0.00000000000E+00  0.45593999997E+02  0.45594000000E+02  0.51100000000E-03 0.  1.
         11   -1    0    0    0    0 -0.00000000000E+00 -0.00000000000E+00 -0.45593999997E+02  0.45594000000E+02  0.51100000000E-03 0. -1.
         23    2    1    2    0    0  0.00000000000E+00  0.71054273576E-14  0.88817841970E-15  0.91188000000E+02  0.91188000000E+02 0.  0.
    9900012    2    3    3    0    0  0.47532469840E+01 -0.36063202972E+02 -0.57123203173E+01  0.54367101466E+02  0.40000039411E+02 0.  0.
        -12    1    3    3    0    0 -0.47532469840E+01  0.36063202972E+02  0.57123203173E+01  0.36820898534E+02  0.00000000000E+00 0.  1.
         11    1    4    4    0    0  0.72460883182E+01 -0.33056810699E+02 -0.69140941671E+01  0.34540747356E+02  0.51100000000E-03 0. -1.
        -11    1    4    4    0    0 -0.57794333538E+01 -0.58958867151E+01  0.81588714123E+01  0.11607347373E+02  0.51100000000E-03 0.  1.
        -12    1    4    4    0    0  0.32865920197E+01  0.28894944429E+01 -0.69570975625E+01  0.82190067365E+01  0.00000000000E+00 0.  1.
</event>
<event>
 8    1  0.1269154E-006  0.9118800E+02  0.7816164E-02  0.1184000E+00
        -11   -1    0    0    0    0  0.00000000000E+00  0.00000000000E+00  0.45593999997E+02  0.45594000000E+02  0.51100000000E-03 0.  1.
         11   -1    0    0    0    0 -0.00000000000E+00 -0.00000000000E+00 -0.45593999997E+02  0.45594000000E+02  0.51100000000E-03 0. -1.
         23    2    1    2    0    0 -0.13322676296E-14  0.00000000000E+00  0.00000000000E+00  0.91188000000E+02  0.91188000000E+02 0.  0.
    9900012    2    3    3    0    0 -0.48378098652E+00 -0.96660230523E+01  0.35526249190E+02  0.54367076231E+02  0.39999981885E+02 0.  0.
         12    1    3    3    0    0  0.48378098652E+00  0.96660230523E+01 -0.35526249190E+02  0.36820923769E+02  0.00000000000E+00 0. -1.
         11    1    4    4    0    0 -0.99678905870E+01  0.32901576001E+01  0.31537130288E+02  0.33238149269E+02  0.51100000000E-03 0. -1.
        -11    1    4    4    0    0  0.20217038128E+00 -0.11240267060E+02  0.30164199863E+01  0.11639727928E+02  0.51100000000E-03 0.  1.
        -12    1    4    4    0    0  0.92819392192E+01 -0.17159135922E+01  0.97269891534E+00  0.94891990339E+01  0.00000000000E+00 0.  1.
</event>
<event>
 8    1  0.1269154E-006  0.9118800E+02  0.7816164E-02  0.1184000E+00
        -11   -1    0    0    0    0  0.00000000000E+00  0.00000000000E+00  0.45593999997E+02  0.45594000000E+02  0.51100000000E-03 0.  1.
         11   -1    0    0    0    0 -0.00000000000E+00 -0.00000000000E+00 -0.45593999997E+02  0.45594000000E+02  0.51100000000E-03 0. -1.
         23    2    1    2    0    0  0.00000000000E+00  0.00000000000E+00  0.00000000000E+00  0.91188000000E+02  0.91188000000E+02 0.  0.
    9900012    2    3    3    0    0  0.78677420483E+01 -0.53732211428E+01  0.35566957662E+02  0.54367063731E+02  0.39999953387E+02 0.  0.
         12    1    3    3    0    0 -0.78677420483E+01  0.53732211428E+01 -0.35566957662E+02  0.36820936269E+02  0.00000000000E+00 0. -1.
         11    1    4    4    0    0  0.42843813846E+01 -0.51356568307E+01 -0.11997956461E+01  0.67948807778E+01  0.51100000000E-03 0. -1.
        -11    1    4    4    0    0  0.41348952078E+01 -0.12014809255E+02  0.32730338918E+02  0.35110227651E+02  0.51100000000E-03 0.  1.
        -12    1    4    4    0    0 -0.55153454406E+00  0.11777244943E+02  0.40364143909E+01  0.12461955301E+02  0.00000000000E+00 0.  1.
</event>
<event>
 8    1  0.1269154E-006  0.9118800E+02  0.7816164E-02  0.1184000E+00
        -11   -1    0    0    0    0  0.00000000000E+00  0.00000000000E+00  0.45593999997E+02  0.45594000000E+02  0.51100000000E-03 0.  1.
         11   -1    0    0    0    0 -0.00000000000E+00 -0.00000000000E+00 -0.45593999997E+02  0.45594000000E+02  0.51100000000E-03 0. -1.
         23    2    1    2    0    0 -0.11102230246E-15  0.00000000000E+00  0.00000000000E+00  0.91188000000E+02  0.91188000000E+02 0.  0.
    9900012    2    3    3    0    0 -0.80315657476E+00  0.35827632420E+02  0.84570542163E+01  0.54366999588E+02  0.39999807160E+02 0.  0.
        -12    1    3    3    0    0  0.80315657476E+00 -0.35827632420E+02 -0.84570542163E+01  0.36821000412E+02  0.00000000000E+00 0.  1.
         11    1    4    4    0    0 -0.28812172039E+01  0.32287019476E+01  0.17142323938E+02  0.17680079160E+02  0.51100000000E-03 0.  1.
        -11    1    4    4    0    0  0.18365539262E+01  0.21166114632E+02 -0.12478060718E+02  0.24638980061E+02  0.51100000000E-03 0. -1.
        -12    1    4    4    0    0  0.24150670288E+00  0.11432815841E+02  0.37927909957E+01  0.12047940366E+02  0.00000000000E+00 0.  1.
</event>
<event>
 8    1  0.1269154E-006  0.9118800E+02  0.7816164E-02  0.1184000E+00
        -11   -1    0    0    0    0  0.00000000000E+00  0.00000000000E+00  0.45593999997E+02  0.45594000000E+02  0.51100000000E-03 0.  1.
         11   -1    0    0    0    0 -0.00000000000E+00 -0.00000000000E+00 -0.45593999997E+02  0.45594000000E+02  0.51100000000E-03 0. -1.
         23    2    1    2    0    0  0.00000000000E+00  0.00000000000E+00  0.00000000000E+00  0.91188000000E+02  0.91188000000E+02 0.  0.
    9900012    2    3    3    0    0  0.83384878046E+01 -0.34979474766E+02  0.79175085580E+01  0.54367068785E+02  0.39999964910E+02 0.  0.
         12    1    3    3    0    0 -0.83384878046E+01  0.34979474766E+02 -0.79175085580E+01  0.36820931215E+02  0.00000000000E+00 0. -1.
         11    1    4    4    0    0 -0.58877188893E+01  0.22954739042E+01  0.10887792267E+02  0.12588822617E+02  0.51100000000E-03 0. -1.
        -11    1    4    4    0    0  0.26446182334E+01 -0.22675023229E+02 -0.37080026297E+01  0.23127904527E+02  0.51100000000E-03 0.  1.
         12    1    4    4    0    0  0.11581588461E+02 -0.14599925441E+02  0.73771892066E+00  0.18650341642E+02  0.00000000000E+00 0. -1.
</event>
<event>
 8    1  0.1269154E-006  0.9118800E+02  0.7816164E-02  0.1184000E+00
        -11   -1    0    0    0    0  0.00000000000E+00  0.00000000000E+00  0.45593999997E+02  0.45594000000E+02  0.51100000000E-03 0. -1.
         11   -1    0    0    0    0 -0.00000000000E+00 -0.00000000000E+00 -0.45593999997E+02  0.45594000000E+02  0.51100000000E-03 0.  1.
         23    2    1    2    0    0  0.00000000000E+00 -0.71054273576E-14  0.00000000000E+00  0.91188000000E+02  0.91188000000E+02 0.  0.
    9900012    2    3    3    0    0 -0.16122566633E+02 -0.32739191370E+02 -0.48976339454E+01  0.54367100708E+02  0.40000037685E+02 0.  0.
        -12    1    3    3    0    0  0.16122566633E+02  0.32739191370E+02  0.48976339454E+01  0.36820899292E+02  0.00000000000E+00 0.  1.
         11    1    4    4    0    0  0.38681762338E+01  0.16709700316E+01  0.53518401658E+01  0.68115432645E+01  0.51100000000E-03 0. -1.
        -11    1    4    4    0    0 -0.21388383347E+02 -0.36179487289E+02 -0.56156527042E+01  0.42402285295E+02  0.51100000000E-03 0.  1.
         12    1    4    4    0    0  0.13976404810E+01  0.17693258869E+01 -0.46338214070E+01  0.51532721489E+01  0.00000000000E+00 0. -1.
</event>
<event>
 8    1  0.1269154E-006  0.9118800E+02  0.7816164E-02  0.1184000E+00
        -11   -1    0    0    0    0  0.00000000000E+00  0.00000000000E+00  0.45593999997E+02  0.45594000000E+02  0.51100000000E-03 0.  1.
         11   -1    0    0    0    0 -0.00000000000E+00 -0.00000000000E+00 -0.45593999997E+02  0.45594000000E+02  0.51100000000E-03 0. -1.
         23    2    1    2    0    0  0.71054273576E-14  0.00000000000E+00 -0.35527136788E-14  0.91188000000E+02  0.91188000000E+02 0.  0.
    9900012    2    3    3    0    0  0.23502323303E+02 -0.70425036792E+01 -0.27455881886E+02  0.54367061543E+02  0.39999948399E+02 0.  0.
        -12    1    3    3    0    0 -0.23502323303E+02  0.70425036792E+01  0.27455881886E+02  0.36820938457E+02  0.00000000000E+00 0.  1.
         11    1    4    4    0    0 -0.43770861046E+01 -0.66198533548E+00 -0.64614440570E+01  0.78324559950E+01  0.51100000000E-03 0. -1.
        -11    1    4    4    0    0 -0.42465233656E+01 -0.65654766607E+01  0.57305256825E+00  0.78400786976E+01  0.51100000000E-03 0.  1.
         12    1    4    4    0    0  0.32125932773E+02  0.18495831704E+00 -0.21567490397E+02  0.38694526850E+02  0.00000000000E+00 0. -1.
</event>
<event>
 8    1  0.1269154E-006  0.9118800E+02  0.7816164E-02  0.1184000E+00
        -11   -1    0    0    0    0  0.00000000000E+00  0.00000000000E+00  0.45593999997E+02  0.45594000000E+02  0.51100000000E-03 0.  1.
         11   -1    0    0    0    0 -0.00000000000E+00 -0.00000000000E+00 -0.45593999997E+02  0.45594000000E+02  0.51100000000E-03 0. -1.
         23    2    1    2    0    0  0.00000000000E+00  0.00000000000E+00  0.00000000000E+00  0.91188000000E+02  0.91188000000E+02 0.  0.
    9900012    2    3    3    0    0  0.11806059938E+02  0.12777673082E+02 -0.32451914164E+02  0.54367099501E+02  0.40000034932E+02 0.  0.
        -12    1    3    3    0    0 -0.11806059938E+02 -0.12777673082E+02  0.32451914164E+02  0.36820900499E+02  0.00000000000E+00 0.  1.
         11    1    4    4    0    0 -0.74370667213E+01  0.36086793640E+01  0.59763027586E+01  0.10200427594E+02  0.51100000000E-03 0. -1.
        -11    1    4    4    0    0  0.12419159850E+02  0.62446219551E+01 -0.29058075770E+02  0.32211839477E+02  0.51100000000E-03 0.  1.
         12    1    4    4    0    0  0.68239668099E+01  0.29243717629E+01 -0.93701411521E+01  0.11954832430E+02  0.00000000000E+00 0. -1.
</event>
<event>
 8    1  0.1269154E-006  0.9118800E+02  0.7816164E-02  0.1184000E+00
        -11   -1    0    0    0    0  0.00000000000E+00  0.00000000000E+00  0.45593999997E+02  0.45594000000E+02  0.51100000000E-03 0.  1.
         11   -1    0    0    0    0 -0.00000000000E+00 -0.00000000000E+00 -0.45593999997E+02  0.45594000000E+02  0.51100000000E-03 0. -1.
         23    2    1    2    0    0  0.00000000000E+00 -0.17763568394E-14  0.00000000000E+00  0.91188000000E+02  0.91188000000E+02 0.  0.
    9900012    2    3    3    0    0  0.21675357856E+02 -0.41844361335E+01  0.29469470290E+02  0.54367077645E+02  0.39999985107E+02 0.  0.
         12    1    3    3    0    0 -0.21675357856E+02  0.41844361335E+01 -0.29469470290E+02  0.36820922355E+02  0.00000000000E+00 0. -1.
         11    1    4    4    0    0  0.27265987106E+02 -0.15404188591E+02  0.18265415708E+02  0.36253944479E+02  0.51100000000E-03 0. -1.
        -11    1    4    4    0    0 -0.18757152224E+00  0.89930812336E+00  0.46639898772E+01  0.47536028454E+01  0.51100000000E-03 0.  1.
         12    1    4    4    0    0 -0.54030577273E+01  0.10320444334E+02  0.65400647039E+01  0.13359530321E+02  0.00000000000E+00 0. -1.
</event>
<event>
 8    1  0.1269154E-006  0.9118800E+02  0.7816164E-02  0.1184000E+00
        -11   -1    0    0    0    0  0.00000000000E+00  0.00000000000E+00  0.45593999997E+02  0.45594000000E+02  0.51100000000E-03 0.  1.
         11   -1    0    0    0    0 -0.00000000000E+00 -0.00000000000E+00 -0.45593999997E+02  0.45594000000E+02  0.51100000000E-03 0. -1.
         23    2    1    2    0    0 -0.17763568394E-14 -0.71054273576E-14  0.00000000000E+00  0.91188000000E+02  0.91188000000E+02 0.  0.
    9900012    2    3    3    0    0  0.80856957937E+01  0.22008657081E+02  0.28390493551E+02  0.54367087640E+02  0.40000007892E+02 0.  0.
         12    1    3    3    0    0 -0.80856957937E+01 -0.22008657081E+02 -0.28390493551E+02  0.36820912360E+02  0.00000000000E+00 0. -1.
         11    1    4    4    0    0 -0.11961237335E+01 -0.71191605959E+01  0.32277876195E+01  0.79077033804E+01  0.51100000000E-03 0. -1.
        -11    1    4    4    0    0 -0.34707512276E+01  0.25550466274E+02  0.17410247179E+02  0.31112523974E+02  0.51100000000E-03 0.  1.
         12    1    4    4    0    0  0.12752570755E+02  0.35773514021E+01  0.77524587528E+01  0.15346860286E+02  0.00000000000E+00 0. -1.
</event>
<event>
 8    1  0.1269154E-006  0.9118800E+02  0.7816164E-02  0.1184000E+00
        -11   -1    0    0    0    0  0.00000000000E+00  0.00000000000E+00  0.45593999997E+02  0.45594000000E+02  0.51100000000E-03 0.  1.
         11   -1    0    0    0    0 -0.00000000000E+00 -0.00000000000E+00 -0.45593999997E+02  0.45594000000E+02  0.51100000000E-03 0. -1.
         23    2    1    2    0    0 -0.88817841970E-15 -0.17763568394E-14  0.00000000000E+00  0.91188000000E+02  0.91188000000E+02 0.  0.
    9900012    2    3    3    0    0 -0.16137970472E+01 -0.13959613647E+02 -0.34033862522E+02  0.54367096260E+02  0.40000027544E+02 0.  0.
        -12    1    3    3    0    0  0.16137970472E+01  0.13959613647E+02  0.34033862522E+02  0.36820903740E+02  0.00000000000E+00 0.  1.
         11    1    4    4    0    0 -0.68522929945E+01 -0.42082720861E+01 -0.89110058267E+01  0.12002895415E+02  0.51100000000E-03 0. -1.
        -11    1    4    4    0    0 -0.37896712183E+01  0.42889269687E+01 -0.25025369629E+02  0.25671494460E+02  0.51100000000E-03 0.  1.
        -12    1    4    4    0    0  0.90281671656E+01 -0.14040268529E+02 -0.97487066588E-01  0.16692706386E+02  0.00000000000E+00 0.  1.
</event>
<event>
 8    1  0.1269154E-006  0.9118800E+02  0.7816164E-02  0.1184000E+00
        -11   -1    0    0    0    0  0.00000000000E+00  0.00000000000E+00  0.45593999997E+02  0.45594000000E+02  0.51100000000E-03 0.  1.
         11   -1    0    0    0    0 -0.00000000000E+00 -0.00000000000E+00 -0.45593999997E+02  0.45594000000E+02  0.51100000000E-03 0. -1.
         23    2    1    2    0    0 -0.17763568394E-14 -0.31086244690E-14  0.71054273576E-14  0.91188000000E+02  0.91188000000E+02 0.  0.
    9900012    2    3    3    0    0  0.13525785738E+02  0.32316390714E+01 -0.34093749752E+02  0.54367161565E+02  0.40000176420E+02 0.  0.
        -12    1    3    3    0    0 -0.13525785738E+02 -0.32316390714E+01  0.34093749752E+02  0.36820838435E+02  0.00000000000E+00 0.  1.
         11    1    4    4    0    0  0.10667966712E+02  0.94385429685E+01 -0.24719512820E+02  0.28529737494E+02  0.51100000000E-03 0. -1.
        -11    1    4    4    0    0  0.34432241803E+01 -0.14927348066E+02 -0.64405848596E+01  0.16618142094E+02  0.51100000000E-03 0.  1.
        -12    1    4    4    0    0 -0.58540515510E+00  0.87204441692E+01 -0.29336520719E+01  0.92192819777E+01  0.00000000000E+00 0.  1.
</event>
<event>
 8    1  0.1269154E-006  0.9118800E+02  0.7816164E-02  0.1184000E+00
        -11   -1    0    0    0    0  0.00000000000E+00  0.00000000000E+00  0.45593999997E+02  0.45594000000E+02  0.51100000000E-03 0.  1.
         11   -1    0    0    0    0 -0.00000000000E+00 -0.00000000000E+00 -0.45593999997E+02  0.45594000000E+02  0.51100000000E-03 0. -1.
         23    2    1    2    0    0  0.00000000000E+00  0.00000000000E+00  0.26645352591E-14  0.91188000000E+02  0.91188000000E+02 0.  0.
    9900012    2    3    3    0    0  0.35286060107E+02 -0.90837051561E+01 -0.53064837856E+01  0.54367102300E+02  0.40000041313E+02 0.  0.
        -12    1    3    3    0    0 -0.35286060107E+02  0.90837051561E+01  0.53064837856E+01  0.36820897700E+02  0.00000000000E+00 0.  1.
         11    1    4    4    0    0 -0.28420262572E+01 -0.34806707765E+01  0.24713530701E+01  0.51283299971E+01  0.51100000000E-03 0. -1.
        -11    1    4    4    0    0 -0.56369071236E+00 -0.89285608762E+00  0.73523209119E+01  0.74277562066E+01  0.51100000000E-03 0.  1.
         12    1    4    4    0    0  0.38691777077E+02 -0.47101782920E+01 -0.15130157768E+02  0.41811016096E+02  0.00000000000E+00 0. -1.
</event>
<event>
 8    1  0.1269154E-006  0.9118800E+02  0.7816164E-02  0.1184000E+00
        -11   -1    0    0    0    0  0.00000000000E+00  0.00000000000E+00  0.45593999997E+02  0.45594000000E+02  0.51100000000E-03 0.  1.
         11   -1    0    0    0    0 -0.00000000000E+00 -0.00000000000E+00 -0.45593999997E+02  0.45594000000E+02  0.51100000000E-03 0. -1.
         23    2    1    2    0    0  0.00000000000E+00  0.00000000000E+00  0.00000000000E+00  0.91188000000E+02  0.91188000000E+02 0.  0.
    9900012    2    3    3    0    0  0.89040326071E+01  0.34814687614E+02  0.80272674324E+01  0.54367064477E+02  0.39999955089E+02 0.  0.
         12    1    3    3    0    0 -0.89040326071E+01 -0.34814687614E+02 -0.80272674324E+01  0.36820935523E+02  0.00000000000E+00 0. -1.
         11    1    4    4    0    0  0.73219082258E+01  0.31888753712E+01 -0.57383137383E+01  0.98339977131E+01  0.51100000000E-03 0. -1.
        -11    1    4    4    0    0  0.55141378836E+01  0.31450555821E+02  0.19621547684E+02  0.37477303956E+02  0.51100000000E-03 0.  1.
        -12    1    4    4    0    0 -0.39320135023E+01  0.17525642167E+00 -0.58559665133E+01  0.70557628078E+01  0.00000000000E+00 0.  1.
</event>
<event>
 8    1  0.1269154E-006  0.9118800E+02  0.7816164E-02  0.1184000E+00
        -11   -1    0    0    0    0  0.00000000000E+00  0.00000000000E+00  0.45593999997E+02  0.45594000000E+02  0.51100000000E-03 0.  1.
         11   -1    0    0    0    0 -0.00000000000E+00 -0.00000000000E+00 -0.45593999997E+02  0.45594000000E+02  0.51100000000E-03 0. -1.
         23    2    1    2    0    0  0.00000000000E+00  0.35527136788E-14  0.00000000000E+00  0.91188000000E+02  0.91188000000E+02 0.  0.
    9900012    2    3    3    0    0 -0.26705039207E+02 -0.24662100951E+02 -0.58652176993E+01  0.54367093968E+02  0.40000022319E+02 0.  0.
         12    1    3    3    0    0  0.26705039207E+02  0.24662100951E+02  0.58652176993E+01  0.36820906032E+02  0.00000000000E+00 0. -1.
         11    1    4    4    0    0 -0.22078807480E+02 -0.12754584604E+02  0.99963629258E+01  0.27387596466E+02  0.51100000000E-03 0. -1.
        -11    1    4    4    0    0  0.37998545488E+01 -0.10578909517E+02 -0.14491461413E+02  0.18339974790E+02  0.51100000000E-03 0.  1.
        -12    1    4    4    0    0 -0.84260862760E+01 -0.13286068299E+01 -0.13701192125E+01  0.86395227123E+01  0.00000000000E+00 0.  1.
</event>
<event>
 8    1  0.1269154E-006  0.9118800E+02  0.7816164E-02  0.1184000E+00
        -11   -1    0    0    0    0  0.00000000000E+00  0.00000000000E+00  0.45593999997E+02  0.45594000000E+02  0.51100000000E-03 0.  1.
         11   -1    0    0    0    0 -0.00000000000E+00 -0.00000000000E+00 -0.45593999997E+02  0.45594000000E+02  0.51100000000E-03 0. -1.
         23    2    1    2    0    0  0.35527136788E-14  0.00000000000E+00 -0.71054273576E-14  0.91188000000E+02  0.91188000000E+02 0.  0.
    9900012    2    3    3    0    0  0.14908483059E+02  0.19621470865E+02 -0.27359008988E+02  0.54367077160E+02  0.39999984001E+02 0.  0.
        -12    1    3    3    0    0 -0.14908483059E+02 -0.19621470865E+02  0.27359008988E+02  0.36820922840E+02  0.00000000000E+00 0.  1.
         11    1    4    4    0    0 -0.50561009553E+01 -0.39066037533E+01  0.33176754499E+01  0.71994916770E+01  0.51100000000E-03 0. -1.
        -11    1    4    4    0    0  0.99498996194E+01  0.20339690089E+02 -0.11729538523E+02  0.25500697433E+02  0.51100000000E-03 0.  1.
         12    1    4    4    0    0  0.10014684395E+02  0.31883845288E+01 -0.18947145915E+02  0.21666888049E+02  0.00000000000E+00 0. -1.
</event>
<event>
 8    1  0.1269154E-006  0.9118800E+02  0.7816164E-02  0.1184000E+00
        -11   -1    0    0    0    0  0.00000000000E+00  0.00000000000E+00  0.45593999997E+02  0.45594000000E+02  0.51100000000E-03 0.  1.
         11   -1    0    0    0    0 -0.00000000000E+00 -0.00000000000E+00 -0.45593999997E+02  0.45594000000E+02  0.51100000000E-03 0. -1.
         23    2    1    2    0    0  0.71054273576E-14  0.17763568394E-14  0.00000000000E+00  0.91188000000E+02  0.91188000000E+02 0.  0.
    9900012    2    3    3    0    0  0.32732638587E+02 -0.22479171551E+01 -0.16712151350E+02  0.54367153145E+02  0.40000157224E+02 0.  0.
        -12    1    3    3    0    0 -0.32732638587E+02  0.22479171551E+01  0.16712151350E+02  0.36820846855E+02  0.00000000000E+00 0.  1.
         11    1    4    4    0    0  0.34996726042E+01  0.12559914466E+02 -0.63352825032E+01  0.14496032712E+02  0.51100000000E-03 0. -1.
        -11    1    4    4    0    0  0.12252268183E+02  0.31637954115E+01  0.92013014168E+00  0.12687565439E+02  0.51100000000E-03 0.  1.
         12    1    4    4    0    0  0.16980697800E+02 -0.17971627032E+02 -0.11296998988E+02  0.27183554994E+02  0.00000000000E+00 0. -1.
</event>
<event>
 8    1  0.1269154E-006  0.9118800E+02  0.7816164E-02  0.1184000E+00
        -11   -1    0    0    0    0  0.00000000000E+00  0.00000000000E+00  0.45593999997E+02  0.45594000000E+02  0.51100000000E-03 0.  1.
         11   -1    0    0    0    0 -0.00000000000E+00 -0.00000000000E+00 -0.45593999997E+02  0.45594000000E+02  0.51100000000E-03 0. -1.
         23    2    1    2    0    0  0.35527136788E-14  0.35527136788E-14  0.00000000000E+00  0.91188000000E+02  0.91188000000E+02 0.  0.
    9900012    2    3    3    0    0  0.79873007389E+01  0.18041868323E+02 -0.31088193689E+02  0.54367057962E+02  0.39999940237E+02 0.  0.
        -12    1    3    3    0    0 -0.79873007389E+01 -0.18041868323E+02  0.31088193689E+02  0.36820942038E+02  0.00000000000E+00 0.  1.
         11    1    4    4    0    0  0.36302471664E+00  0.12303180131E+02 -0.14979010179E+02  0.19387386995E+02  0.51100000000E-03 0. -1.
        -11    1    4    4    0    0 -0.10791525993E+02  0.61868675667E+01 -0.84030629417E+01  0.15011523261E+02  0.51100000000E-03 0.  1.
         12    1    4    4    0    0  0.18415802015E+02 -0.44817937457E+00 -0.77061205683E+01  0.19968147707E+02  0.00000000000E+00 0. -1.
</event>
<event>
 8    1  0.1269154E-006  0.9118800E+02  0.7816164E-02  0.1184000E+00
        -11   -1    0    0    0    0  0.00000000000E+00  0.00000000000E+00  0.45593999997E+02  0.45594000000E+02  0.51100000000E-03 0. -1.
         11   -1    0    0    0    0 -0.00000000000E+00 -0.00000000000E+00 -0.45593999997E+02  0.45594000000E+02  0.51100000000E-03 0.  1.
         23    2    1    2    0    0 -0.35527136788E-14  0.00000000000E+00  0.00000000000E+00  0.91188000000E+02  0.91188000000E+02 0.  0.
    9900012    2    3    3    0    0 -0.31881465625E+02 -0.18054680973E+02  0.36579515260E+01  0.54367082510E+02  0.39999996199E+02 0.  0.
         12    1    3    3    0    0  0.31881465625E+02  0.18054680973E+02 -0.36579515260E+01  0.36820917490E+02  0.00000000000E+00 0. -1.
         11    1    4    4    0    0 -0.19861975543E+02  0.67396115648E+01 -0.92680747771E+01  0.22930714050E+02  0.51100000000E-03 0. -1.
        -11    1    4    4    0    0 -0.76685537833E+01 -0.82130649886E+01  0.30113231808E+01  0.11633108836E+02  0.51100000000E-03 0.  1.
        -12    1    4    4    0    0 -0.43509362980E+01 -0.16581227550E+02  0.99147031223E+01  0.19803259624E+02  0.00000000000E+00 0.  1.
</event>
<event>
 8    1  0.1269154E-006  0.9118800E+02  0.7816164E-02  0.1184000E+00
        -11   -1    0    0    0    0  0.00000000000E+00  0.00000000000E+00  0.45593999997E+02  0.45594000000E+02  0.51100000000E-03 0. -1.
         11   -1    0    0    0    0 -0.00000000000E+00 -0.00000000000E+00 -0.45593999997E+02  0.45594000000E+02  0.51100000000E-03 0.  1.
         23    2    1    2    0    0 -0.17763568394E-14  0.00000000000E+00 -0.35527136788E-14  0.91188000000E+02  0.91188000000E+02 0.  0.
    9900012    2    3    3    0    0 -0.14548677912E+02  0.27157694516E+02 -0.20163708990E+02  0.54367087998E+02  0.40000008709E+02 0.  0.
         12    1    3    3    0    0  0.14548677912E+02 -0.27157694516E+02  0.20163708990E+02  0.36820912002E+02  0.00000000000E+00 0. -1.
         11    1    4    4    0    0 -0.22130080276E+02  0.17760909283E+02 -0.37643208503E+01  0.28624473154E+02  0.51100000000E-03 0. -1.
        -11    1    4    4    0    0 -0.37456412755E+01  0.16645986468E+01 -0.95929833872E+01  0.10431972381E+02  0.51100000000E-03 0.  1.
         12    1    4    4    0    0  0.11327043639E+02  0.77321865857E+01 -0.68064047525E+01  0.15310642464E+02  0.00000000000E+00 0. -1.
</event>
<event>
 8    1  0.1269154E-006  0.9118800E+02  0.7816164E-02  0.1184000E+00
        -11   -1    0    0    0    0  0.00000000000E+00  0.00000000000E+00  0.45593999997E+02  0.45594000000E+02  0.51100000000E-03 0. -1.
         11   -1    0    0    0    0 -0.00000000000E+00 -0.00000000000E+00 -0.45593999997E+02  0.45594000000E+02  0.51100000000E-03 0.  1.
         23    2    1    2    0    0  0.00000000000E+00  0.00000000000E+00  0.00000000000E+00  0.91188000000E+02  0.91188000000E+02 0.  0.
    9900012    2    3    3    0    0  0.21360855902E+02  0.14924198356E+02  0.26014606195E+02  0.54367114664E+02  0.40000069500E+02 0.  0.
        -12    1    3    3    0    0 -0.21360855902E+02 -0.14924198356E+02 -0.26014606195E+02  0.36820885336E+02  0.00000000000E+00 0.  1.
         11    1    4    4    0    0  0.97131457877E+01  0.99254022748E+01  0.25395727505E+01  0.14117657080E+02  0.51100000000E-03 0. -1.
        -11    1    4    4    0    0  0.53089731546E+01 -0.12116371646E+02  0.46306225207E+01  0.14015502952E+02  0.51100000000E-03 0.  1.
         12    1    4    4    0    0  0.63387369600E+01  0.17115167727E+02  0.18844410924E+02  0.26233954632E+02  0.00000000000E+00 0. -1.
</event>
<event>
 8    1  0.1269154E-006  0.9118800E+02  0.7816164E-02  0.1184000E+00
        -11   -1    0    0    0    0  0.00000000000E+00  0.00000000000E+00  0.45593999997E+02  0.45594000000E+02  0.51100000000E-03 0. -1.
         11   -1    0    0    0    0 -0.00000000000E+00 -0.00000000000E+00 -0.45593999997E+02  0.45594000000E+02  0.51100000000E-03 0.  1.
         23    2    1    2    0    0  0.00000000000E+00  0.00000000000E+00  0.00000000000E+00  0.91188000000E+02  0.91188000000E+02 0.  0.
    9900012    2    3    3    0    0 -0.11367162605E+02 -0.32497171168E+02 -0.13057553956E+02  0.54367106000E+02  0.40000049749E+02 0.  0.
         12    1    3    3    0    0  0.11367162605E+02  0.32497171168E+02  0.13057553956E+02  0.36820894000E+02  0.00000000000E+00 0. -1.
         11    1    4    4    0    0 -0.38729446292E+00 -0.22028784482E+02 -0.11944180403E+02  0.25061540027E+02  0.51100000000E-03 0. -1.
        -11    1    4    4    0    0 -0.15789284471E+02 -0.19450424648E+01 -0.75322876272E+01  0.17601705925E+02  0.51100000000E-03 0.  1.
        -12    1    4    4    0    0  0.48094163284E+01 -0.85233442210E+01  0.64189140747E+01  0.11703860048E+02  0.00000000000E+00 0.  1.
</event>
<event>
 8    1  0.1269154E-006  0.9118800E+02  0.7816164E-02  0.1184000E+00
        -11   -1    0    0    0    0  0.00000000000E+00  0.00000000000E+00  0.45593999997E+02  0.45594000000E+02  0.51100000000E-03 0. -1.
         11   -1    0    0    0    0 -0.00000000000E+00 -0.00000000000E+00 -0.45593999997E+02  0.45594000000E+02  0.51100000000E-03 0.  1.
         23    2    1    2    0    0  0.00000000000E+00  0.00000000000E+00 -0.26645352591E-14  0.91188000000E+02  0.91188000000E+02 0.  0.
    9900012    2    3    3    0    0 -0.16562522884E+02  0.32743533916E+02 -0.30540925643E+01  0.54367032346E+02  0.39999881840E+02 0.  0.
         12    1    3    3    0    0  0.16562522884E+02 -0.32743533916E+02  0.30540925643E+01  0.36820967654E+02  0.00000000000E+00 0. -1.
         11    1    4    4    0    0 -0.41188906093E+01  0.12370762207E+02  0.15555334238E+02  0.20297030348E+02  0.51100000000E-03 0. -1.
        -11    1    4    4    0    0 -0.12344784921E+02  0.10441967575E+02 -0.17888171034E+02  0.24112549943E+02  0.51100000000E-03 0.  1.
        -12    1    4    4    0    0 -0.98847353599E-01  0.99308041341E+01 -0.72125576858E+00  0.99574520553E+01  0.00000000000E+00 0.  1.
</event>
<event>
 8    1  0.1269154E-006  0.9118800E+02  0.7816164E-02  0.1184000E+00
        -11   -1    0    0    0    0  0.00000000000E+00  0.00000000000E+00  0.45593999997E+02  0.45594000000E+02  0.51100000000E-03 0. -1.
         11   -1    0    0    0    0 -0.00000000000E+00 -0.00000000000E+00 -0.45593999997E+02  0.45594000000E+02  0.51100000000E-03 0.  1.
         23    2    1    2    0    0 -0.17763568394E-14  0.00000000000E+00 -0.35527136788E-14  0.91188000000E+02  0.91188000000E+02 0.  0.
    9900012    2    3    3    0    0 -0.12247531899E+02 -0.17309829168E+02  0.30102290873E+02  0.54367080141E+02  0.39999990798E+02 0.  0.
        -12    1    3    3    0    0  0.12247531899E+02  0.17309829168E+02 -0.30102290873E+02  0.36820919859E+02  0.00000000000E+00 0.  1.
         11    1    4    4    0    0  0.55348748790E+01 -0.36513621630E+01 -0.22923344706E+01  0.70158451491E+01  0.51100000000E-03 0. -1.
        -11    1    4    4    0    0  0.89995775176E+00  0.67123002185E+01  0.80357159714E+01  0.10508930945E+02  0.51100000000E-03 0.  1.
         12    1    4    4    0    0 -0.18682364530E+02 -0.20370767223E+02  0.24358909372E+02  0.36842304047E+02  0.00000000000E+00 0. -1.
</event>
<event>
 8    1  0.1269154E-006  0.9118800E+02  0.7816164E-02  0.1184000E+00
        -11   -1    0    0    0    0  0.00000000000E+00  0.00000000000E+00  0.45593999997E+02  0.45594000000E+02  0.51100000000E-03 0. -1.
         11   -1    0    0    0    0 -0.00000000000E+00 -0.00000000000E+00 -0.45593999997E+02  0.45594000000E+02  0.51100000000E-03 0.  1.
         23    2    1    2    0    0 -0.35527136788E-14 -0.17763568394E-14  0.00000000000E+00  0.91188000000E+02  0.91188000000E+02 0.  0.
    9900012    2    3    3    0    0 -0.23377257482E+02  0.11748170138E+02  0.25908765550E+02  0.54367084730E+02  0.40000001259E+02 0.  0.
        -12    1    3    3    0    0  0.23377257482E+02 -0.11748170138E+02 -0.25908765550E+02  0.36820915270E+02  0.00000000000E+00 0.  1.
         11    1    4    4    0    0  0.10046600481E+01 -0.87669313259E+01  0.11303259114E+01  0.88964073429E+01  0.51100000000E-03 0. -1.
        -11    1    4    4    0    0  0.75400330718E+00  0.43057921707E+01  0.12316450396E+02  0.13069174336E+02  0.51100000000E-03 0.  1.
        -12    1    4    4    0    0 -0.25135920837E+02  0.16209309293E+02  0.12461989243E+02  0.32401503051E+02  0.00000000000E+00 0.  1.
</event>
<event>
 8    1  0.1269154E-006  0.9118800E+02  0.7816164E-02  0.1184000E+00
        -11   -1    0    0    0    0  0.00000000000E+00  0.00000000000E+00  0.45593999997E+02  0.45594000000E+02  0.51100000000E-03 0. -1.
         11   -1    0    0    0    0 -0.00000000000E+00 -0.00000000000E+00 -0.45593999997E+02  0.45594000000E+02  0.51100000000E-03 0.  1.
         23    2    1    2    0    0  0.35527136788E-14  0.00000000000E+00  0.00000000000E+00  0.91188000000E+02  0.91188000000E+02 0.  0.
    9900012    2    3    3    0    0 -0.25797251245E+02  0.94379858931E+01 -0.24519513657E+02  0.54367077966E+02  0.39999985838E+02 0.  0.
         12    1    3    3    0    0  0.25797251245E+02 -0.94379858931E+01  0.24519513657E+02  0.36820922034E+02  0.00000000000E+00 0. -1.
         11    1    4    4    0    0 -0.20099153815E+02  0.30908935599E+01 -0.18951193247E+02  0.27797074178E+02  0.51100000000E-03 0. -1.
        -11    1    4    4    0    0 -0.67617963817E+01  0.14772768677E+02 -0.74469482706E+01  0.17872146583E+02  0.51100000000E-03 0.  1.
         12    1    4    4    0    0  0.10636989524E+01 -0.84256763438E+01  0.18786278609E+01  0.86978572046E+01  0.00000000000E+00 0. -1.
</event>
<event>
 8    1  0.1269154E-006  0.9118800E+02  0.7816164E-02  0.1184000E+00
        -11   -1    0    0    0    0  0.00000000000E+00  0.00000000000E+00  0.45593999997E+02  0.45594000000E+02  0.51100000000E-03 0.  1.
         11   -1    0    0    0    0 -0.00000000000E+00 -0.00000000000E+00 -0.45593999997E+02  0.45594000000E+02  0.51100000000E-03 0. -1.
         23    2    1    2    0    0  0.00000000000E+00  0.00000000000E+00  0.00000000000E+00  0.91188000000E+02  0.91188000000E+02 0.  0.
    9900012    2    3    3    0    0  0.23261831172E+02 -0.26232707227E+02  0.11247790636E+02  0.54367075078E+02  0.39999979256E+02 0.  0.
         12    1    3    3    0    0 -0.23261831172E+02  0.26232707227E+02 -0.11247790636E+02  0.36820924922E+02  0.00000000000E+00 0. -1.
         11    1    4    4    0    0  0.29561995354E+01 -0.21182693221E+01 -0.29095441931E+01  0.46574272175E+01  0.51100000000E-03 0. -1.
        -11    1    4    4    0    0  0.10890980907E+02 -0.16265571620E+02  0.26080799151E+02  0.32609666816E+02  0.51100000000E-03 0.  1.
        -12    1    4    4    0    0  0.94146507293E+01 -0.78488662843E+01 -0.11923464322E+02  0.17099981045E+02  0.00000000000E+00 0.  1.
</event>
<event>
 8    1  0.1269154E-006  0.9118800E+02  0.7816164E-02  0.1184000E+00
        -11   -1    0    0    0    0  0.00000000000E+00  0.00000000000E+00  0.45593999997E+02  0.45594000000E+02  0.51100000000E-03 0.  1.
         11   -1    0    0    0    0 -0.00000000000E+00 -0.00000000000E+00 -0.45593999997E+02  0.45594000000E+02  0.51100000000E-03 0. -1.
         23    2    1    2    0    0  0.00000000000E+00  0.00000000000E+00  0.00000000000E+00  0.91188000000E+02  0.91188000000E+02 0.  0.
    9900012    2    3    3    0    0  0.43632066223E+01 -0.19655255509E+02  0.30828760840E+02  0.54367093763E+02  0.40000021851E+02 0.  0.
         12    1    3    3    0    0 -0.43632066223E+01  0.19655255509E+02 -0.30828760840E+02  0.36820906237E+02  0.00000000000E+00 0. -1.
         11    1    4    4    0    0  0.18947211339E+02 -0.44540404001E+01  0.10890876529E+02  0.22303508362E+02  0.51100000000E-03 0. -1.
        -11    1    4    4    0    0 -0.90401672567E+01 -0.56877678381E+00  0.10163623333E+02  0.13614234117E+02  0.51100000000E-03 0.  1.
        -12    1    4    4    0    0 -0.55438374605E+01 -0.14632438326E+02  0.97742609782E+01  0.18449351284E+02  0.00000000000E+00 0.  1.
</event>
<event>
 8    1  0.1269154E-006  0.9118800E+02  0.7816164E-02  0.1184000E+00
        -11   -1    0    0    0    0  0.00000000000E+00  0.00000000000E+00  0.45593999997E+02  0.45594000000E+02  0.51100000000E-03 0.  1.
         11   -1    0    0    0    0 -0.00000000000E+00 -0.00000000000E+00 -0.45593999997E+02  0.45594000000E+02  0.51100000000E-03 0. -1.
         23    2    1    2    0    0  0.88817841970E-15 -0.44408920985E-15  0.00000000000E+00  0.91188000000E+02  0.91188000000E+02 0.  0.
    9900012    2    3    3    0    0  0.49864932762E+01 -0.25761782241E+01 -0.36390597854E+02  0.54367117045E+02  0.40000074927E+02 0.  0.
        -12    1    3    3    0    0 -0.49864932762E+01  0.25761782241E+01  0.36390597854E+02  0.36820882955E+02  0.00000000000E+00 0.  1.
         11    1    4    4    0    0  0.56192932332E+01  0.95384028725E+01 -0.10213025090E+02  0.15061987503E+02  0.51100000000E-03 0. -1.
        -11    1    4    4    0    0  0.21599523865E+01  0.15835436445E+01  0.47004072975E+01  0.54098829756E+01  0.51100000000E-03 0.  1.
        -12    1    4    4    0    0 -0.27927523435E+01 -0.13698124741E+02 -0.30877980062E+02  0.33895246566E+02  0.00000000000E+00 0.  1.
</event>
<event>
 8    1  0.1269154E-006  0.9118800E+02  0.7816164E-02  0.1184000E+00
        -11   -1    0    0    0    0  0.00000000000E+00  0.00000000000E+00  0.45593999997E+02  0.45594000000E+02  0.51100000000E-03 0.  1.
         11   -1    0    0    0    0 -0.00000000000E+00 -0.00000000000E+00 -0.45593999997E+02  0.45594000000E+02  0.51100000000E-03 0. -1.
         23    2    1    2    0    0  0.00000000000E+00 -0.71054273576E-14 -0.17763568394E-14  0.91188000000E+02  0.91188000000E+02 0.  0.
    9900012    2    3    3    0    0 -0.50690684849E+01 -0.34217573866E+02 -0.12619064082E+02  0.54367101113E+02  0.40000038607E+02 0.  0.
        -12    1    3    3    0    0  0.50690684849E+01  0.34217573866E+02  0.12619064082E+02  0.36820898887E+02  0.00000000000E+00 0.  1.
         11    1    4    4    0    0 -0.14645428213E+02 -0.18412858093E+02 -0.91324627652E+00  0.23544764380E+02  0.51100000000E-03 0. -1.
        -11    1    4    4    0    0  0.24323839179E+01 -0.16031071991E+02  0.99863186263E+00  0.16245277054E+02  0.51100000000E-03 0.  1.
        -12    1    4    4    0    0  0.71439758100E+01  0.22635621837E+00 -0.12704449668E+02  0.14577059679E+02  0.00000000000E+00 0.  1.
</event>
<event>
 8    1  0.1269154E-006  0.9118800E+02  0.7816164E-02  0.1184000E+00
        -11   -1    0    0    0    0  0.00000000000E+00  0.00000000000E+00  0.45593999997E+02  0.45594000000E+02  0.51100000000E-03 0. -1.
         11   -1    0    0    0    0 -0.00000000000E+00 -0.00000000000E+00 -0.45593999997E+02  0.45594000000E+02  0.51100000000E-03 0.  1.
         23    2    1    2    0    0 -0.17763568394E-14 -0.17763568394E-14  0.00000000000E+00  0.91188000000E+02  0.91188000000E+02 0.  0.
    9900012    2    3    3    0    0  0.52873307601E+01  0.15189173576E+02  0.33122698323E+02  0.54367081969E+02  0.39999994964E+02 0.  0.
        -12    1    3    3    0    0 -0.52873307601E+01 -0.15189173576E+02 -0.33122698323E+02  0.36820918031E+02  0.00000000000E+00 0.  1.
         11    1    4    4    0    0 -0.44378390294E+01  0.79727794141E+00  0.12194348038E+02  0.13001238083E+02  0.51100000000E-03 0. -1.
        -11    1    4    4    0    0  0.18780309855E+02  0.16459964563E+02  0.20069887093E+02  0.32037959358E+02  0.51100000000E-03 0.  1.
         12    1    4    4    0    0 -0.90551400657E+01 -0.20680689284E+01  0.85846319236E+00  0.93278845273E+01  0.00000000000E+00 0. -1.
</event>
<event>
 8    1  0.1269154E-006  0.9118800E+02  0.7816164E-02  0.1184000E+00
        -11   -1    0    0    0    0  0.00000000000E+00  0.00000000000E+00  0.45593999997E+02  0.45594000000E+02  0.51100000000E-03 0.  1.
         11   -1    0    0    0    0 -0.00000000000E+00 -0.00000000000E+00 -0.45593999997E+02  0.45594000000E+02  0.51100000000E-03 0. -1.
         23    2    1    2    0    0 -0.88817841970E-15  0.00000000000E+00  0.00000000000E+00  0.91188000000E+02  0.91188000000E+02 0.  0.
    9900012    2    3    3    0    0 -0.35979597896E+01 -0.25585423347E+02 -0.26233966630E+02  0.54367079212E+02  0.39999988680E+02 0.  0.
        -12    1    3    3    0    0  0.35979597896E+01  0.25585423347E+02  0.26233966630E+02  0.36820920788E+02  0.00000000000E+00 0.  1.
         11    1    4    4    0    0 -0.47976878434E+01  0.33261207971E+01 -0.11657833897E+02  0.13037867143E+02  0.51100000000E-03 0. -1.
        -11    1    4    4    0    0 -0.11294078536E+02 -0.10350194948E+02 -0.14480734229E+01  0.15387646420E+02  0.51100000000E-03 0.  1.
         12    1    4    4    0    0  0.12493806590E+02 -0.18561349196E+02 -0.13128059310E+02  0.25941565649E+02  0.00000000000E+00 0. -1.
</event>
<event>
 8    1  0.1269154E-006  0.9118800E+02  0.7816164E-02  0.1184000E+00
        -11   -1    0    0    0    0  0.00000000000E+00  0.00000000000E+00  0.45593999997E+02  0.45594000000E+02  0.51100000000E-03 0. -1.
         11   -1    0    0    0    0 -0.00000000000E+00 -0.00000000000E+00 -0.45593999997E+02  0.45594000000E+02  0.51100000000E-03 0.  1.
         23    2    1    2    0    0 -0.88817841970E-15  0.00000000000E+00  0.17763568394E-14  0.91188000000E+02  0.91188000000E+02 0.  0.
    9900012    2    3    3    0    0 -0.60718246800E+01 -0.33227473074E+02  0.14657733085E+02  0.54367066266E+02  0.39999959167E+02 0.  0.
        -12    1    3    3    0    0  0.60718246800E+01  0.33227473074E+02 -0.14657733085E+02  0.36820933734E+02  0.00000000000E+00 0.  1.
         11    1    4    4    0    0  0.29565248451E+01 -0.25960375418E+02  0.70572689372E+01  0.27064500293E+02  0.51100000000E-03 0. -1.
        -11    1    4    4    0    0  0.53458465490E+01 -0.18304952170E+01 -0.49103757709E+01  0.74860255502E+01  0.51100000000E-03 0.  1.
        -12    1    4    4    0    0 -0.14374196074E+02 -0.54366024387E+01  0.12510839919E+02  0.19816540423E+02  0.00000000000E+00 0.  1.
</event>
<event>
 8    1  0.1269154E-006  0.9118800E+02  0.7816164E-02  0.1184000E+00
        -11   -1    0    0    0    0  0.00000000000E+00  0.00000000000E+00  0.45593999997E+02  0.45594000000E+02  0.51100000000E-03 0. -1.
         11   -1    0    0    0    0 -0.00000000000E+00 -0.00000000000E+00 -0.45593999997E+02  0.45594000000E+02  0.51100000000E-03 0.  1.
         23    2    1    2    0    0 -0.88817841970E-15  0.35527136788E-14 -0.35527136788E-14  0.91188000000E+02  0.91188000000E+02 0.  0.
    9900012    2    3    3    0    0 -0.25020774145E+01 -0.24727622121E+02  0.27167343063E+02  0.54367079095E+02  0.39999988413E+02 0.  0.
        -12    1    3    3    0    0  0.25020774145E+01  0.24727622121E+02 -0.27167343063E+02  0.36820920905E+02  0.00000000000E+00 0.  1.
         11    1    4    4    0    0 -0.62183258667E+00 -0.49088626743E+01  0.19942155336E+01  0.53348387395E+01  0.51100000000E-03 0. -1.
        -11    1    4    4    0    0 -0.67423578151E+01  0.72811827517E+01 -0.22469992648E+01  0.10174675284E+02  0.51100000000E-03 0.  1.
        -12    1    4    4    0    0  0.48621129872E+01 -0.27099942199E+02  0.27420126795E+02  0.38857565072E+02  0.00000000000E+00 0.  1.
</event>
<event>
 8    1  0.1269154E-006  0.9118800E+02  0.7816164E-02  0.1184000E+00
        -11   -1    0    0    0    0  0.00000000000E+00  0.00000000000E+00  0.45593999997E+02  0.45594000000E+02  0.51100000000E-03 0. -1.
         11   -1    0    0    0    0 -0.00000000000E+00 -0.00000000000E+00 -0.45593999997E+02  0.45594000000E+02  0.51100000000E-03 0.  1.
         23    2    1    2    0    0  0.00000000000E+00  0.00000000000E+00  0.00000000000E+00  0.91188000000E+02  0.91188000000E+02 0.  0.
    9900012    2    3    3    0    0 -0.29519634753E+02  0.10817734349E+02 -0.19166299514E+02  0.54367092223E+02  0.40000018342E+02 0.  0.
         12    1    3    3    0    0  0.29519634753E+02 -0.10817734349E+02  0.19166299514E+02  0.36820907777E+02  0.00000000000E+00 0. -1.
         11    1    4    4    0    0  0.59709022784E+01 -0.66538760184E+01  0.12905753151E+01  0.90327916500E+01  0.51100000000E-03 0. -1.
        -11    1    4    4    0    0 -0.18587236098E+02  0.73264647960E+01 -0.14676115123E+02  0.24790134883E+02  0.51100000000E-03 0.  1.
        -12    1    4    4    0    0 -0.16903300934E+02  0.10145145572E+02 -0.57807597069E+01  0.20544165690E+02  0.00000000000E+00 0.  1.
</event>
<event>
 8    1  0.1269154E-006  0.9118800E+02  0.7816164E-02  0.1184000E+00
        -11   -1    0    0    0    0  0.00000000000E+00  0.00000000000E+00  0.45593999997E+02  0.45594000000E+02  0.51100000000E-03 0. -1.
         11   -1    0    0    0    0 -0.00000000000E+00 -0.00000000000E+00 -0.45593999997E+02  0.45594000000E+02  0.51100000000E-03 0.  1.
         23    2    1    2    0    0 -0.71054273576E-14 -0.17763568394E-14 -0.35527136788E-14  0.91188000000E+02  0.91188000000E+02 0.  0.
    9900012    2    3    3    0    0 -0.22995061609E+02 -0.15635964691E+02 -0.24135542137E+02  0.54367073281E+02  0.39999975158E+02 0.  0.
        -12    1    3    3    0    0  0.22995061609E+02  0.15635964691E+02  0.24135542137E+02  0.36820926719E+02  0.00000000000E+00 0.  1.
         11    1    4    4    0    0 -0.22458483515E+02 -0.10084688516E+02 -0.25724137346E+02  0.35606399238E+02  0.51100000000E-03 0. -1.
        -11    1    4    4    0    0 -0.32327372667E+01 -0.48884615766E+01 -0.73501547845E+01  0.94006607449E+01  0.51100000000E-03 0.  1.
        -12    1    4    4    0    0  0.26961591721E+01 -0.66281459792E+00  0.89387499941E+01  0.93600132975E+01  0.00000000000E+00 0.  1.
</event>
<event>
 8    1  0.1269154E-006  0.9118800E+02  0.7816164E-02  0.1184000E+00
        -11   -1    0    0    0    0  0.00000000000E+00  0.00000000000E+00  0.45593999997E+02  0.45594000000E+02  0.51100000000E-03 0. -1.
         11   -1    0    0    0    0 -0.00000000000E+00 -0.00000000000E+00 -0.45593999997E+02  0.45594000000E+02  0.51100000000E-03 0.  1.
         23    2    1    2    0    0  0.00000000000E+00  0.17763568394E-14  0.35527136788E-14  0.91188000000E+02  0.91188000000E+02 0.  0.
    9900012    2    3    3    0    0 -0.30636031591E+02  0.77383900587E+01  0.18903179435E+02  0.54367091469E+02  0.40000016621E+02 0.  0.
        -12    1    3    3    0    0  0.30636031591E+02 -0.77383900587E+01 -0.18903179435E+02  0.36820908531E+02  0.00000000000E+00 0.  1.
         11    1    4    4    0    0 -0.42891206261E+01 -0.23671720312E+01  0.53926473444E+01  0.72856506101E+01  0.51100000000E-03 0. -1.
        -11    1    4    4    0    0 -0.11166921271E+02 -0.79222134206E+01  0.18476231736E+02  0.22996363530E+02  0.51100000000E-03 0.  1.
         12    1    4    4    0    0 -0.15179989694E+02  0.18027775510E+02 -0.49656996461E+01  0.24085077329E+02  0.00000000000E+00 0. -1.
</event>
<event>
 8    1  0.1269154E-006  0.9118800E+02  0.7816164E-02  0.1184000E+00
        -11   -1    0    0    0    0  0.00000000000E+00  0.00000000000E+00  0.45593999997E+02  0.45594000000E+02  0.51100000000E-03 0.  1.
         11   -1    0    0    0    0 -0.00000000000E+00 -0.00000000000E+00 -0.45593999997E+02  0.45594000000E+02  0.51100000000E-03 0. -1.
         23    2    1    2    0    0  0.00000000000E+00  0.00000000000E+00  0.00000000000E+00  0.91188000000E+02  0.91188000000E+02 0.  0.
    9900012    2    3    3    0    0 -0.36353169419E+02 -0.49324599566E+01  0.31459743434E+01  0.54367092317E+02  0.40000018555E+02 0.  0.
        -12    1    3    3    0    0  0.36353169419E+02  0.49324599566E+01 -0.31459743434E+01  0.36820907683E+02  0.00000000000E+00 0.  1.
         11    1    4    4    0    0 -0.23128117013E+02  0.74931126069E+01  0.11204923536E+02  0.26769513347E+02  0.51100000000E-03 0. -1.
        -11    1    4    4    0    0  0.35464362455E+01 -0.84289419573E+01 -0.24518836426E+01  0.94676293876E+01  0.51100000000E-03 0.  1.
        -12    1    4    4    0    0 -0.16771488651E+02 -0.39966306062E+01 -0.56070655503E+01  0.18129949583E+02  0.00000000000E+00 0.  1.
</event>
<event>
 8    1  0.1269154E-006  0.9118800E+02  0.7816164E-02  0.1184000E+00
        -11   -1    0    0    0    0  0.00000000000E+00  0.00000000000E+00  0.45593999997E+02  0.45594000000E+02  0.51100000000E-03 0. -1.
         11   -1    0    0    0    0 -0.00000000000E+00 -0.00000000000E+00 -0.45593999997E+02  0.45594000000E+02  0.51100000000E-03 0.  1.
         23    2    1    2    0    0 -0.17763568394E-14  0.00000000000E+00  0.00000000000E+00  0.91188000000E+02  0.91188000000E+02 0.  0.
    9900012    2    3    3    0    0 -0.15428132562E+02  0.31992614964E+02  0.97068751215E+01  0.54367107680E+02  0.40000053578E+02 0.  0.
        -12    1    3    3    0    0  0.15428132562E+02 -0.31992614964E+02 -0.97068751215E+01  0.36820892320E+02  0.00000000000E+00 0.  1.
         11    1    4    4    0    0 -0.49407989366E+01  0.17452824223E+02  0.12096479606E+01  0.18178993810E+02  0.51100000000E-03 0. -1.
        -11    1    4    4    0    0 -0.91219600824E+01 -0.57998889677E+01 -0.48227950622E+01  0.11836731823E+02  0.51100000000E-03 0.  1.
         12    1    4    4    0    0 -0.13653735435E+01  0.20339679709E+02  0.13320022223E+02  0.24351382047E+02  0.00000000000E+00 0. -1.
</event>
<event>
 8    1  0.1269154E-006  0.9118800E+02  0.7816164E-02  0.1184000E+00
        -11   -1    0    0    0    0  0.00000000000E+00  0.00000000000E+00  0.45593999997E+02  0.45594000000E+02  0.51100000000E-03 0.  1.
         11   -1    0    0    0    0 -0.00000000000E+00 -0.00000000000E+00 -0.45593999997E+02  0.45594000000E+02  0.51100000000E-03 0. -1.
         23    2    1    2    0    0  0.71054273576E-14 -0.66613381478E-15  0.35527136788E-14  0.91188000000E+02  0.91188000000E+02 0.  0.
    9900012    2    3    3    0    0  0.30305565140E+02 -0.18748131513E+01 -0.20828758087E+02  0.54367090637E+02  0.40000014726E+02 0.  0.
        -12    1    3    3    0    0 -0.30305565140E+02  0.18748131513E+01  0.20828758087E+02  0.36820909363E+02  0.00000000000E+00 0.  1.
         11    1    4    4    0    0  0.65549332764E+01  0.60281764138E+01 -0.20561566002E+02  0.22407232267E+02  0.51100000000E-03 0. -1.
        -11    1    4    4    0    0 -0.33904950633E+01 -0.16188182622E+01 -0.15660762462E+01  0.40704575186E+01  0.51100000000E-03 0.  1.
        -12    1    4    4    0    0  0.27141126927E+02 -0.62841713029E+01  0.12988841606E+01  0.27889400852E+02  0.00000000000E+00 0.  1.
</event>
<event>
 8    1  0.1269154E-006  0.9118800E+02  0.7816164E-02  0.1184000E+00
        -11   -1    0    0    0    0  0.00000000000E+00  0.00000000000E+00  0.45593999997E+02  0.45594000000E+02  0.51100000000E-03 0.  1.
         11   -1    0    0    0    0 -0.00000000000E+00 -0.00000000000E+00 -0.45593999997E+02  0.45594000000E+02  0.51100000000E-03 0. -1.
         23    2    1    2    0    0  0.00000000000E+00  0.35527136788E-14  0.00000000000E+00  0.91188000000E+02  0.91188000000E+02 0.  0.
    9900012    2    3    3    0    0  0.13796705091E+02 -0.27748291396E+02  0.19886270034E+02  0.54367075478E+02  0.39999980168E+02 0.  0.
         12    1    3    3    0    0 -0.13796705091E+02  0.27748291396E+02 -0.19886270034E+02  0.36820924522E+02  0.00000000000E+00 0. -1.
         11    1    4    4    0    0  0.12745035573E+02 -0.16158645502E+02  0.12725539139E+02  0.24196634123E+02  0.51100000000E-03 0. -1.
        -11    1    4    4    0    0  0.11652349737E+00 -0.12338668095E+02  0.16584237441E+02  0.20671072537E+02  0.51100000000E-03 0.  1.
         12    1    4    4    0    0  0.93514602041E+00  0.74902220088E+00 -0.94235065455E+01  0.94993688185E+01  0.00000000000E+00 0. -1.
</event>
<event>
 8    1  0.1269154E-006  0.9118800E+02  0.7816164E-02  0.1184000E+00
        -11   -1    0    0    0    0  0.00000000000E+00  0.00000000000E+00  0.45593999997E+02  0.45594000000E+02  0.51100000000E-03 0.  1.
         11   -1    0    0    0    0 -0.00000000000E+00 -0.00000000000E+00 -0.45593999997E+02  0.45594000000E+02  0.51100000000E-03 0. -1.
         23    2    1    2    0    0  0.35527136788E-14  0.00000000000E+00  0.35527136788E-14  0.91188000000E+02  0.91188000000E+02 0.  0.
    9900012    2    3    3    0    0  0.20739487752E+02  0.17763091685E+02  0.24700762480E+02  0.54367062403E+02  0.39999950361E+02 0.  0.
         12    1    3    3    0    0 -0.20739487752E+02 -0.17763091685E+02 -0.24700762480E+02  0.36820937597E+02  0.00000000000E+00 0. -1.
         11    1    4    4    0    0 -0.42866585015E+00  0.10574303849E+02  0.86286209392E+01  0.13654770444E+02  0.51100000000E-03 0. -1.
        -11    1    4    4    0    0 -0.31298427366E+00  0.14655920527E+02  0.59971043222E+01  0.15838536111E+02  0.51100000000E-03 0.  1.
         12    1    4    4    0    0  0.21481137875E+02 -0.74671326905E+01  0.10075037219E+02  0.24873755848E+02  0.00000000000E+00 0. -1.
</event>
<event>
 8    1  0.1269154E-006  0.9118800E+02  0.7816164E-02  0.1184000E+00
        -11   -1    0    0    0    0  0.00000000000E+00  0.00000000000E+00  0.45593999997E+02  0.45594000000E+02  0.51100000000E-03 0. -1.
         11   -1    0    0    0    0 -0.00000000000E+00 -0.00000000000E+00 -0.45593999997E+02  0.45594000000E+02  0.51100000000E-03 0.  1.
         23    2    1    2    0    0  0.00000000000E+00  0.35527136788E-14  0.00000000000E+00  0.91188000000E+02  0.91188000000E+02 0.  0.
    9900012    2    3    3    0    0 -0.12478731167E+02  0.31981065071E+02  0.13314372056E+02  0.54367085321E+02  0.40000002606E+02 0.  0.
        -12    1    3    3    0    0  0.12478731167E+02 -0.31981065071E+02 -0.13314372056E+02  0.36820914679E+02  0.00000000000E+00 0.  1.
         11    1    4    4    0    0 -0.13396602885E+02  0.16601266662E+02  0.17140263605E+02  0.27365300297E+02  0.51100000000E-03 0. -1.
        -11    1    4    4    0    0  0.96138528928E+00  0.20734070778E+02 -0.53498044500E+01  0.21434699919E+02  0.51100000000E-03 0.  1.
         12    1    4    4    0    0 -0.43513570435E-01 -0.53542723692E+01  0.15239129015E+01  0.55670851049E+01  0.00000000000E+00 0. -1.
</event>
<event>
 8    1  0.1269154E-006  0.9118800E+02  0.7816164E-02  0.1184000E+00
        -11   -1    0    0    0    0  0.00000000000E+00  0.00000000000E+00  0.45593999997E+02  0.45594000000E+02  0.51100000000E-03 0. -1.
         11   -1    0    0    0    0 -0.00000000000E+00 -0.00000000000E+00 -0.45593999997E+02  0.45594000000E+02  0.51100000000E-03 0.  1.
         23    2    1    2    0    0  0.00000000000E+00  0.00000000000E+00  0.17763568394E-14  0.91188000000E+02  0.91188000000E+02 0.  0.
    9900012    2    3    3    0    0  0.20811952398E+02 -0.26413861247E+02  0.14998307990E+02  0.54367100077E+02  0.40000036246E+02 0.  0.
        -12    1    3    3    0    0 -0.20811952398E+02  0.26413861247E+02 -0.14998307990E+02  0.36820899923E+02  0.00000000000E+00 0.  1.
         11    1    4    4    0    0  0.88890623623E+01 -0.21051690925E+02  0.12522300551E+02  0.26057573406E+02  0.51100000000E-03 0. -1.
        -11    1    4    4    0    0  0.12186762624E+02 -0.13471130508E+02 -0.31497501993E+01  0.18436633830E+02  0.51100000000E-03 0.  1.
         12    1    4    4    0    0 -0.26387258864E+00  0.81089601858E+01  0.56257576387E+01  0.98728928409E+01  0.00000000000E+00 0. -1.
</event>
<event>
 8    1  0.1269154E-006  0.9118800E+02  0.7816164E-02  0.1184000E+00
        -11   -1    0    0    0    0  0.00000000000E+00  0.00000000000E+00  0.45593999997E+02  0.45594000000E+02  0.51100000000E-03 0. -1.
         11   -1    0    0    0    0 -0.00000000000E+00 -0.00000000000E+00 -0.45593999997E+02  0.45594000000E+02  0.51100000000E-03 0.  1.
         23    2    1    2    0    0  0.00000000000E+00 -0.35527136788E-14 -0.17763568394E-14  0.91188000000E+02  0.91188000000E+02 0.  0.
    9900012    2    3    3    0    0  0.24342255150E+02  0.26470144626E+02 -0.79101797348E+01  0.54367015687E+02  0.39999843862E+02 0.  0.
         12    1    3    3    0    0 -0.24342255150E+02 -0.26470144626E+02  0.79101797348E+01  0.36820984313E+02  0.00000000000E+00 0. -1.
         11    1    4    4    0    0  0.33692267349E+02  0.17745411889E+02 -0.83827657128E+01  0.38991528355E+02  0.51100000000E-03 0.  1.
        -11    1    4    4    0    0 -0.21140256246E+01 -0.16207962742E+01  0.67832725554E+00  0.27488566770E+01  0.51100000000E-03 0. -1.
         12    1    4    4    0    0 -0.72359865741E+01  0.10345529011E+02 -0.20574127750E+00  0.12626630655E+02  0.00000000000E+00 0. -1.
</event>
<event>
 8    1  0.1269154E-006  0.9118800E+02  0.7816164E-02  0.1184000E+00
        -11   -1    0    0    0    0  0.00000000000E+00  0.00000000000E+00  0.45593999997E+02  0.45594000000E+02  0.51100000000E-03 0. -1.
         11   -1    0    0    0    0 -0.00000000000E+00 -0.00000000000E+00 -0.45593999997E+02  0.45594000000E+02  0.51100000000E-03 0.  1.
         23    2    1    2    0    0 -0.35527136788E-14  0.00000000000E+00 -0.88817841970E-15  0.91188000000E+02  0.91188000000E+02 0.  0.
    9900012    2    3    3    0    0  0.31306493624E+02  0.17912971399E+02 -0.74032899430E+01  0.54367084893E+02  0.40000001630E+02 0.  0.
         12    1    3    3    0    0 -0.31306493624E+02 -0.17912971399E+02  0.74032899430E+01  0.36820915107E+02  0.00000000000E+00 0. -1.
         11    1    4    4    0    0  0.16316714602E+02 -0.41178645417E+01  0.10986638801E+02  0.20097219116E+02  0.51100000000E-03 0. -1.
        -11    1    4    4    0    0  0.13063667552E+02  0.96995743668E+01 -0.12211064277E+02  0.20343334138E+02  0.51100000000E-03 0.  1.
         12    1    4    4    0    0  0.19261114703E+01  0.12331261574E+02 -0.61788644675E+01  0.13926531639E+02  0.00000000000E+00 0. -1.
</event>
<event>
 8    1  0.1269154E-006  0.9118800E+02  0.7816164E-02  0.1184000E+00
        -11   -1    0    0    0    0  0.00000000000E+00  0.00000000000E+00  0.45593999997E+02  0.45594000000E+02  0.51100000000E-03 0.  1.
         11   -1    0    0    0    0 -0.00000000000E+00 -0.00000000000E+00 -0.45593999997E+02  0.45594000000E+02  0.51100000000E-03 0. -1.
         23    2    1    2    0    0  0.17763568394E-14  0.00000000000E+00  0.00000000000E+00  0.91188000000E+02  0.91188000000E+02 0.  0.
    9900012    2    3    3    0    0  0.13680168853E+02 -0.21834363459E+02 -0.26303859185E+02  0.54367089425E+02  0.40000011963E+02 0.  0.
        -12    1    3    3    0    0 -0.13680168853E+02  0.21834363459E+02  0.26303859185E+02  0.36820910575E+02  0.00000000000E+00 0.  1.
         11    1    4    4    0    0  0.10097195738E+02  0.90208521407E+01 -0.10107654541E+02  0.16896562245E+02  0.51100000000E-03 0. -1.
        -11    1    4    4    0    0 -0.30048967519E+01 -0.21436886751E+01 -0.43887358557E+01  0.57346149215E+01  0.51100000000E-03 0.  1.
         12    1    4    4    0    0  0.65878698669E+01 -0.28711526924E+02 -0.11807468788E+02  0.31735912259E+02  0.00000000000E+00 0. -1.
</event>
<event>
 8    1  0.1269154E-006  0.9118800E+02  0.7816164E-02  0.1184000E+00
        -11   -1    0    0    0    0  0.00000000000E+00  0.00000000000E+00  0.45593999997E+02  0.45594000000E+02  0.51100000000E-03 0. -1.
         11   -1    0    0    0    0 -0.00000000000E+00 -0.00000000000E+00 -0.45593999997E+02  0.45594000000E+02  0.51100000000E-03 0.  1.
         23    2    1    2    0    0  0.35527136788E-14  0.00000000000E+00  0.00000000000E+00  0.91188000000E+02  0.91188000000E+02 0.  0.
    9900012    2    3    3    0    0 -0.29436779533E+02 -0.18601338682E+02 -0.11968627958E+02  0.54367056975E+02  0.39999937985E+02 0.  0.
         12    1    3    3    0    0  0.29436779533E+02  0.18601338682E+02  0.11968627958E+02  0.36820943025E+02  0.00000000000E+00 0. -1.
         11    1    4    4    0    0  0.50283499122E+00  0.22718915790E+01  0.53599130917E+01  0.58432014330E+01  0.51100000000E-03 0. -1.
        -11    1    4    4    0    0 -0.34507227701E+00 -0.14384839914E+02 -0.94637814894E+01  0.17222248825E+02  0.51100000000E-03 0.  1.
         12    1    4    4    0    0 -0.29594542248E+02 -0.64883903468E+01 -0.78647595603E+01  0.31301606717E+02  0.00000000000E+00 0. -1.
</event>
<event>
 8    1  0.1269154E-006  0.9118800E+02  0.7816164E-02  0.1184000E+00
        -11   -1    0    0    0    0  0.00000000000E+00  0.00000000000E+00  0.45593999997E+02  0.45594000000E+02  0.51100000000E-03 0. -1.
         11   -1    0    0    0    0 -0.00000000000E+00 -0.00000000000E+00 -0.45593999997E+02  0.45594000000E+02  0.51100000000E-03 0.  1.
         23    2    1    2    0    0 -0.88817841970E-15  0.00000000000E+00  0.00000000000E+00  0.91188000000E+02  0.91188000000E+02 0.  0.
    9900012    2    3    3    0    0  0.64504183814E+01  0.41300702659E+01  0.36015486286E+02  0.54367073475E+02  0.39999975602E+02 0.  0.
        -12    1    3    3    0    0 -0.64504183814E+01 -0.41300702659E+01 -0.36015486286E+02  0.36820926525E+02  0.00000000000E+00 0.  1.
         11    1    4    4    0    0  0.79679173656E+00  0.54054931559E+00  0.13837933684E+02  0.13871390685E+02  0.51100000000E-03 0. -1.
        -11    1    4    4    0    0 -0.69153962400E+01  0.26324641915E+01  0.26230918261E+02  0.27254607793E+02  0.51100000000E-03 0.  1.
        -12    1    4    4    0    0  0.12569022885E+02  0.95705675878E+00 -0.40533656586E+01  0.13241074997E+02  0.00000000000E+00 0.  1.
</event>
<event>
 8    1  0.1269154E-006  0.9118800E+02  0.7816164E-02  0.1184000E+00
        -11   -1    0    0    0    0  0.00000000000E+00  0.00000000000E+00  0.45593999997E+02  0.45594000000E+02  0.51100000000E-03 0.  1.
         11   -1    0    0    0    0 -0.00000000000E+00 -0.00000000000E+00 -0.45593999997E+02  0.45594000000E+02  0.51100000000E-03 0. -1.
         23    2    1    2    0    0  0.00000000000E+00  0.17763568394E-14  0.00000000000E+00  0.91188000000E+02  0.91188000000E+02 0.  0.
    9900012    2    3    3    0    0  0.12970828155E+02 -0.63539629517E+01  0.33869811436E+02  0.54367090792E+02  0.40000015078E+02 0.  0.
         12    1    3    3    0    0 -0.12970828155E+02  0.63539629517E+01 -0.33869811436E+02  0.36820909208E+02  0.00000000000E+00 0. -1.
         11    1    4    4    0    0  0.76421774426E+01  0.12550186057E+02  0.68631424664E+01  0.16217668480E+02  0.51100000000E-03 0. -1.
        -11    1    4    4    0    0 -0.11526732405E+00 -0.32045738765E+01 -0.26466291854E+01  0.41577910712E+01  0.51100000000E-03 0.  1.
        -12    1    4    4    0    0  0.54439180365E+01 -0.15699575133E+02  0.29653298155E+02  0.33991631241E+02  0.00000000000E+00 0.  1.
</event>
<event>
 8    1  0.1269154E-006  0.9118800E+02  0.7816164E-02  0.1184000E+00
        -11   -1    0    0    0    0  0.00000000000E+00  0.00000000000E+00  0.45593999997E+02  0.45594000000E+02  0.51100000000E-03 0. -1.
         11   -1    0    0    0    0 -0.00000000000E+00 -0.00000000000E+00 -0.45593999997E+02  0.45594000000E+02  0.51100000000E-03 0.  1.
         23    2    1    2    0    0  0.00000000000E+00 -0.17763568394E-14  0.00000000000E+00  0.91188000000E+02  0.91188000000E+02 0.  0.
    9900012    2    3    3    0    0 -0.74091711740E+01 -0.14981951215E+02 -0.32808923346E+02  0.54367080255E+02  0.39999991058E+02 0.  0.
         12    1    3    3    0    0  0.74091711740E+01  0.14981951215E+02  0.32808923346E+02  0.36820919745E+02  0.00000000000E+00 0. -1.
         11    1    4    4    0    0  0.25910219080E+01 -0.14947799953E+01  0.18955983673E+01  0.35413352275E+01  0.51100000000E-03 0. -1.
        -11    1    4    4    0    0  0.62172129993E+01  0.68736959824E+01 -0.16945707338E+02  0.19314720588E+02  0.51100000000E-03 0.  1.
         12    1    4    4    0    0 -0.16217406081E+02 -0.20360867202E+02 -0.17758814375E+02  0.31511024440E+02  0.00000000000E+00 0. -1.
</event>
<event>
 8    1  0.1269154E-006  0.9118800E+02  0.7816164E-02  0.1184000E+00
        -11   -1    0    0    0    0  0.00000000000E+00  0.00000000000E+00  0.45593999997E+02  0.45594000000E+02  0.51100000000E-03 0. -1.
         11   -1    0    0    0    0 -0.00000000000E+00 -0.00000000000E+00 -0.45593999997E+02  0.45594000000E+02  0.51100000000E-03 0.  1.
         23    2    1    2    0    0 -0.77715611724E-15  0.00000000000E+00  0.00000000000E+00  0.91188000000E+02  0.91188000000E+02 0.  0.
    9900012    2    3    3    0    0 -0.54928035968E+00  0.16560538211E+02 -0.32882004003E+02  0.54367091239E+02  0.40000016098E+02 0.  0.
         12    1    3    3    0    0  0.54928035968E+00 -0.16560538211E+02  0.32882004003E+02  0.36820908761E+02  0.00000000000E+00 0. -1.
         11    1    4    4    0    0  0.97515791212E+01  0.13134431601E+01 -0.27243441762E+02  0.28965903189E+02  0.51100000000E-03 0. -1.
        -11    1    4    4    0    0 -0.35331015118E+01  0.97517368105E+01 -0.11038119674E+02  0.15146592465E+02  0.51100000000E-03 0.  1.
         12    1    4    4    0    0 -0.67677579691E+01  0.54953582406E+01  0.53995574332E+01  0.10254595584E+02  0.00000000000E+00 0. -1.
</event>
<event>
 8    1  0.1269154E-006  0.9118800E+02  0.7816164E-02  0.1184000E+00
        -11   -1    0    0    0    0  0.00000000000E+00  0.00000000000E+00  0.45593999997E+02  0.45594000000E+02  0.51100000000E-03 0. -1.
         11   -1    0    0    0    0 -0.00000000000E+00 -0.00000000000E+00 -0.45593999997E+02  0.45594000000E+02  0.51100000000E-03 0.  1.
         23    2    1    2    0    0 -0.71054273576E-14 -0.22204460493E-15 -0.35527136788E-14  0.91188000000E+02  0.91188000000E+02 0.  0.
    9900012    2    3    3    0    0 -0.32690683465E+02 -0.16818733045E+01 -0.16860807758E+02  0.54366860399E+02  0.39999489849E+02 0.  0.
         12    1    3    3    0    0  0.32690683465E+02  0.16818733045E+01  0.16860807758E+02  0.36821139601E+02  0.00000000000E+00 0. -1.
         11    1    4    4    0    0 -0.55355823165E+01 -0.13308103105E+02  0.38346880551E+01  0.14914862137E+02  0.51100000000E-03 0. -1.
        -11    1    4    4    0    0 -0.36347077562E+01  0.65813768557E+01  0.29787471029E+00  0.75242508859E+01  0.51100000000E-03 0.  1.
        -12    1    4    4    0    0 -0.23520393392E+02  0.50448529448E+01 -0.20993370524E+02  0.31927747376E+02  0.00000000000E+00 0.  1.
</event>
<event>
 8    1  0.1269154E-006  0.9118800E+02  0.7816164E-02  0.1184000E+00
        -11   -1    0    0    0    0  0.00000000000E+00  0.00000000000E+00  0.45593999997E+02  0.45594000000E+02  0.51100000000E-03 0.  1.
         11   -1    0    0    0    0 -0.00000000000E+00 -0.00000000000E+00 -0.45593999997E+02  0.45594000000E+02  0.51100000000E-03 0. -1.
         23    2    1    2    0    0  0.35527136788E-14 -0.35527136788E-14  0.17763568394E-14  0.91188000000E+02  0.91188000000E+02 0.  0.
    9900012    2    3    3    0    0  0.21488749717E+02 -0.28456661249E+02  0.91778778193E+01  0.54367063359E+02  0.39999952540E+02 0.  0.
        -12    1    3    3    0    0 -0.21488749717E+02  0.28456661249E+02 -0.91778778193E+01  0.36820936641E+02  0.00000000000E+00 0.  1.
         11    1    4    4    0    0  0.15517414624E+02 -0.52463293996E+01  0.45826844107E+01  0.17009265871E+02  0.51100000000E-03 0. -1.
        -11    1    4    4    0    0 -0.63876186495E+00  0.40608650766E+01  0.80955566104E+01  0.90794646860E+01  0.51100000000E-03 0.  1.
        -12    1    4    4    0    0  0.66100969572E+01 -0.27271196926E+02 -0.35003632018E+01  0.28278332803E+02  0.00000000000E+00 0.  1.
</event>
<event>
 8    1  0.1269154E-006  0.9118800E+02  0.7816164E-02  0.1184000E+00
        -11   -1    0    0    0    0  0.00000000000E+00  0.00000000000E+00  0.45593999997E+02  0.45594000000E+02  0.51100000000E-03 0.  1.
         11   -1    0    0    0    0 -0.00000000000E+00 -0.00000000000E+00 -0.45593999997E+02  0.45594000000E+02  0.51100000000E-03 0. -1.
         23    2    1    2    0    0 -0.35527136788E-14  0.00000000000E+00  0.00000000000E+00  0.91188000000E+02  0.91188000000E+02 0.  0.
    9900012    2    3    3    0    0  0.29887153090E+02  0.28157586276E+01 -0.21321575704E+02  0.54367081938E+02  0.39999994894E+02 0.  0.
        -12    1    3    3    0    0 -0.29887153090E+02 -0.28157586276E+01  0.21321575704E+02  0.36820918062E+02  0.00000000000E+00 0.  1.
         11    1    4    4    0    0 -0.12149073799E+01  0.11195128678E+01 -0.85026957744E+01  0.86617056458E+01  0.51100000000E-03 0. -1.
        -11    1    4    4    0    0  0.28490556751E+02 -0.10858654254E+02 -0.56331765112E+01  0.31005723247E+02  0.51100000000E-03 0.  1.
        -12    1    4    4    0    0  0.26115037183E+01  0.12554900014E+02 -0.71857034184E+01  0.14699653045E+02  0.00000000000E+00 0.  1.
</event>
<event>
 8    1  0.1269154E-006  0.9118800E+02  0.7816164E-02  0.1184000E+00
        -11   -1    0    0    0    0  0.00000000000E+00  0.00000000000E+00  0.45593999997E+02  0.45594000000E+02  0.51100000000E-03 0.  1.
         11   -1    0    0    0    0 -0.00000000000E+00 -0.00000000000E+00 -0.45593999997E+02  0.45594000000E+02  0.51100000000E-03 0. -1.
         23    2    1    2    0    0 -0.35527136788E-14 -0.88817841970E-15 -0.10658141036E-13  0.91188000000E+02  0.91188000000E+02 0.  0.
    9900012    2    3    3    0    0 -0.19217678463E+02  0.40389394328E+01 -0.31147197465E+02  0.54367080576E+02  0.39999991789E+02 0.  0.
        -12    1    3    3    0    0  0.19217678463E+02 -0.40389394328E+01  0.31147197465E+02  0.36820919424E+02  0.00000000000E+00 0.  1.
         11    1    4    4    0    0  0.56024348706E+00  0.58720600236E+01 -0.68385810105E+01  0.90311213138E+01  0.51100000000E-03 0. -1.
        -11    1    4    4    0    0 -0.27527990662E+01  0.12657543817E+02 -0.92819332088E+00  0.12986641648E+02  0.51100000000E-03 0.  1.
        -12    1    4    4    0    0 -0.17025122884E+02 -0.14490664408E+02 -0.23380423134E+02  0.32349317615E+02  0.00000000000E+00 0.  1.
</event>
<event>
 8    1  0.1269154E-006  0.9118800E+02  0.7816164E-02  0.1184000E+00
        -11   -1    0    0    0    0  0.00000000000E+00  0.00000000000E+00  0.45593999997E+02  0.45594000000E+02  0.51100000000E-03 0.  1.
         11   -1    0    0    0    0 -0.00000000000E+00 -0.00000000000E+00 -0.45593999997E+02  0.45594000000E+02  0.51100000000E-03 0. -1.
         23    2    1    2    0    0  0.22204460493E-15  0.00000000000E+00  0.35527136788E-14  0.91188000000E+02  0.91188000000E+02 0.  0.
    9900012    2    3    3    0    0 -0.97156209375E+00  0.32776383177E+02  0.16749450720E+02  0.54367091177E+02  0.40000015957E+02 0.  0.
         12    1    3    3    0    0  0.97156209375E+00 -0.32776383177E+02 -0.16749450720E+02  0.36820908823E+02  0.00000000000E+00 0. -1.
         11    1    4    4    0    0 -0.81156098338E+01  0.10974745264E+02 -0.72207201487E+01  0.15441727763E+02  0.51100000000E-03 0. -1.
        -11    1    4    4    0    0 -0.23428639120E+01  0.45683821619E+01 -0.26875517410E+01  0.57950031501E+01  0.51100000000E-03 0.  1.
        -12    1    4    4    0    0  0.94869116520E+01  0.17233255751E+02  0.26657722610E+02  0.33130360264E+02  0.00000000000E+00 0.  1.
</event>
<event>
 8    1  0.1269154E-006  0.9118800E+02  0.7816164E-02  0.1184000E+00
        -11   -1    0    0    0    0  0.00000000000E+00  0.00000000000E+00  0.45593999997E+02  0.45594000000E+02  0.51100000000E-03 0.  1.
         11   -1    0    0    0    0 -0.00000000000E+00 -0.00000000000E+00 -0.45593999997E+02  0.45594000000E+02  0.51100000000E-03 0. -1.
         23    2    1    2    0    0 -0.88817841970E-15 -0.35527136788E-14 -0.35527136788E-14  0.91188000000E+02  0.91188000000E+02 0.  0.
    9900012    2    3    3    0    0 -0.63619561478E+01  0.18654751546E+02  0.31101531007E+02  0.54367089198E+02  0.40000011445E+02 0.  0.
         12    1    3    3    0    0  0.63619561478E+01 -0.18654751546E+02 -0.31101531007E+02  0.36820910802E+02  0.00000000000E+00 0. -1.
         11    1    4    4    0    0  0.95203109515E+01  0.13497428008E+01  0.16893470339E+01  0.97627875068E+01  0.51100000000E-03 0. -1.
        -11    1    4    4    0    0 -0.83120913560E+01  0.22081588850E+02  0.25772349143E+02  0.34941399649E+02  0.51100000000E-03 0.  1.
         12    1    4    4    0    0 -0.75701757434E+01 -0.47765801046E+01  0.36398348305E+01  0.96629020421E+01  0.00000000000E+00 0. -1.
</event>
<event>
 8    1  0.1269154E-006  0.9118800E+02  0.7816164E-02  0.1184000E+00
        -11   -1    0    0    0    0  0.00000000000E+00  0.00000000000E+00  0.45593999997E+02  0.45594000000E+02  0.51100000000E-03 0. -1.
         11   -1    0    0    0    0 -0.00000000000E+00 -0.00000000000E+00 -0.45593999997E+02  0.45594000000E+02  0.51100000000E-03 0.  1.
         23    2    1    2    0    0  0.00000000000E+00  0.00000000000E+00  0.00000000000E+00  0.91188000000E+02  0.91188000000E+02 0.  0.
    9900012    2    3    3    0    0  0.42968478367E+01 -0.15082173473E+02  0.33314334149E+02  0.54367085865E+02  0.40000003846E+02 0.  0.
        -12    1    3    3    0    0 -0.42968478367E+01  0.15082173473E+02 -0.33314334149E+02  0.36820914135E+02  0.00000000000E+00 0.  1.
         11    1    4    4    0    0  0.15241625245E+01  0.19859355675E+01  0.22919476806E+02  0.23055789486E+02  0.51100000000E-03 0. -1.
        -11    1    4    4    0    0 -0.74836289683E+01 -0.14707121637E+02  0.12344057915E+02  0.20607762990E+02  0.51100000000E-03 0.  1.
        -12    1    4    4    0    0  0.10256314281E+02 -0.23609874030E+01 -0.19492005728E+01  0.10703533389E+02  0.00000000000E+00 0.  1.
</event>
<event>
 8    1  0.1269154E-006  0.9118800E+02  0.7816164E-02  0.1184000E+00
        -11   -1    0    0    0    0  0.00000000000E+00  0.00000000000E+00  0.45593999997E+02  0.45594000000E+02  0.51100000000E-03 0.  1.
         11   -1    0    0    0    0 -0.00000000000E+00 -0.00000000000E+00 -0.45593999997E+02  0.45594000000E+02  0.51100000000E-03 0. -1.
         23    2    1    2    0    0  0.17763568394E-14  0.00000000000E+00  0.00000000000E+00  0.91188000000E+02  0.91188000000E+02 0.  0.
    9900012    2    3    3    0    0  0.13184375281E+02  0.23895247549E+02  0.24717791604E+02  0.54367084357E+02  0.40000000409E+02 0.  0.
         12    1    3    3    0    0 -0.13184375281E+02 -0.23895247549E+02 -0.24717791604E+02  0.36820915643E+02  0.00000000000E+00 0. -1.
         11    1    4    4    0    0 -0.11092605914E+00  0.86363823374E+01 -0.13960195704E+01  0.87491871263E+01  0.51100000000E-03 0. -1.
        -11    1    4    4    0    0 -0.25549789982E+01  0.15367468258E+02  0.61070161836E+00  0.15590380209E+02  0.51100000000E-03 0.  1.
        -12    1    4    4    0    0  0.15850280339E+02 -0.10860304623E+00  0.25503109557E+02  0.30027517022E+02  0.00000000000E+00 0.  1.
</event>
<event>
 8    1  0.1269154E-006  0.9118800E+02  0.7816164E-02  0.1184000E+00
        -11   -1    0    0    0    0  0.00000000000E+00  0.00000000000E+00  0.45593999997E+02  0.45594000000E+02  0.51100000000E-03 0.  1.
         11   -1    0    0    0    0 -0.00000000000E+00 -0.00000000000E+00 -0.45593999997E+02  0.45594000000E+02  0.51100000000E-03 0. -1.
         23    2    1    2    0    0  0.35527136788E-14  0.00000000000E+00  0.00000000000E+00  0.91188000000E+02  0.91188000000E+02 0.  0.
    9900012    2    3    3    0    0  0.23798996734E+02 -0.18793953613E+02 -0.20884789088E+02  0.54367090815E+02  0.40000015131E+02 0.  0.
        -12    1    3    3    0    0 -0.23798996734E+02  0.18793953613E+02  0.20884789088E+02  0.36820909185E+02  0.00000000000E+00 0.  1.
         11    1    4    4    0    0  0.22197656070E+02 -0.12223663806E+02 -0.18047293796E+02  0.31110427600E+02  0.51100000000E-03 0. -1.
        -11    1    4    4    0    0  0.71012750558E+00 -0.13181296076E+02  0.39110262377E+01  0.13767605958E+02  0.51100000000E-03 0.  1.
         12    1    4    4    0    0  0.89121315838E+00  0.66110062694E+01 -0.67485215303E+01  0.94890572573E+01  0.00000000000E+00 0. -1.
</event>
<event>
 8    1  0.1269154E-006  0.9118800E+02  0.7816164E-02  0.1184000E+00
        -11   -1    0    0    0    0  0.00000000000E+00  0.00000000000E+00  0.45593999997E+02  0.45594000000E+02  0.51100000000E-03 0.  1.
         11   -1    0    0    0    0 -0.00000000000E+00 -0.00000000000E+00 -0.45593999997E+02  0.45594000000E+02  0.51100000000E-03 0. -1.
         23    2    1    2    0    0 -0.17763568394E-14 -0.17763568394E-14 -0.71054273576E-14  0.91188000000E+02  0.91188000000E+02 0.  0.
    9900012    2    3    3    0    0 -0.14776196391E+01 -0.12438982204E+02 -0.34624681091E+02  0.54367079605E+02  0.39999989576E+02 0.  0.
        -12    1    3    3    0    0  0.14776196391E+01  0.12438982204E+02  0.34624681091E+02  0.36820920395E+02  0.00000000000E+00 0.  1.
         11    1    4    4    0    0  0.14775483572E+00  0.57203600184E+01 -0.15058022057E+02  0.16108642983E+02  0.51100000000E-03 0. -1.
        -11    1    4    4    0    0  0.12217381885E+02 -0.47384557727E+01 -0.11209913251E+02  0.17244695955E+02  0.51100000000E-03 0.  1.
        -12    1    4    4    0    0 -0.13842756360E+02 -0.13420886449E+02 -0.83567457837E+01  0.21013740667E+02  0.00000000000E+00 0.  1.
</event>
<event>
 8    1  0.1269154E-006  0.9118800E+02  0.7816164E-02  0.1184000E+00
        -11   -1    0    0    0    0  0.00000000000E+00  0.00000000000E+00  0.45593999997E+02  0.45594000000E+02  0.51100000000E-03 0.  1.
         11   -1    0    0    0    0 -0.00000000000E+00 -0.00000000000E+00 -0.45593999997E+02  0.45594000000E+02  0.51100000000E-03 0. -1.
         23    2    1    2    0    0  0.00000000000E+00  0.00000000000E+00 -0.44408920985E-15  0.91188000000E+02  0.91188000000E+02 0.  0.
    9900012    2    3    3    0    0  0.34196253946E+02 -0.13227071867E+02 -0.33822993766E+01  0.54367093395E+02  0.40000021014E+02 0.  0.
        -12    1    3    3    0    0 -0.34196253946E+02  0.13227071867E+02  0.33822993766E+01  0.36820906605E+02  0.00000000000E+00 0.  1.
         11    1    4    4    0    0  0.28003964511E+02 -0.11263898886E+02  0.17194086321E+01  0.30233322886E+02  0.51100000000E-03 0. -1.
        -11    1    4    4    0    0  0.10823158337E+02 -0.32794181618E-01 -0.11638684530E+02  0.15893420327E+02  0.51100000000E-03 0.  1.
         12    1    4    4    0    0 -0.46308689019E+01 -0.19303787988E+01  0.65369765208E+01  0.82403501823E+01  0.00000000000E+00 0. -1.
</event>
<event>
 8    1  0.1269154E-006  0.9118800E+02  0.7816164E-02  0.1184000E+00
        -11   -1    0    0    0    0  0.00000000000E+00  0.00000000000E+00  0.45593999997E+02  0.45594000000E+02  0.51100000000E-03 0.  1.
         11   -1    0    0    0    0 -0.00000000000E+00 -0.00000000000E+00 -0.45593999997E+02  0.45594000000E+02  0.51100000000E-03 0. -1.
         23    2    1    2    0    0  0.17763568394E-14  0.35527136788E-14  0.00000000000E+00  0.91188000000E+02  0.91188000000E+02 0.  0.
    9900012    2    3    3    0    0  0.14142891909E+02  0.20401587923E+02 -0.27194359733E+02  0.54367090416E+02  0.40000014220E+02 0.  0.
        -12    1    3    3    0    0 -0.14142891909E+02 -0.20401587923E+02  0.27194359733E+02  0.36820909584E+02  0.00000000000E+00 0.  1.
         11    1    4    4    0    0 -0.36560082380E+00  0.24288137394E+02 -0.19011615683E+02  0.30846212298E+02  0.51100000000E-03 0. -1.
        -11    1    4    4    0    0  0.12320935595E+02  0.45972081282E+01 -0.36052727583E+01  0.13635899986E+02  0.51100000000E-03 0.  1.
        -12    1    4    4    0    0  0.21875571374E+01 -0.84837575985E+01 -0.45774712921E+01  0.98849781310E+01  0.00000000000E+00 0.  1.
</event>
<event>
 8    1  0.1269154E-006  0.9118800E+02  0.7816164E-02  0.1184000E+00
        -11   -1    0    0    0    0  0.00000000000E+00  0.00000000000E+00  0.45593999997E+02  0.45594000000E+02  0.51100000000E-03 0. -1.
         11   -1    0    0    0    0 -0.00000000000E+00 -0.00000000000E+00 -0.45593999997E+02  0.45594000000E+02  0.51100000000E-03 0.  1.
         23    2    1    2    0    0  0.00000000000E+00  0.35527136788E-14  0.17763568394E-14  0.91188000000E+02  0.91188000000E+02 0.  0.
    9900012    2    3    3    0    0  0.18817417003E+02 -0.27307252165E+02 -0.15999945446E+02  0.54367089396E+02  0.40000011896E+02 0.  0.
         12    1    3    3    0    0 -0.18817417003E+02  0.27307252165E+02  0.15999945446E+02  0.36820910604E+02  0.00000000000E+00 0. -1.
         11    1    4    4    0    0  0.15094516633E+02 -0.14531054714E+01  0.37437292368E+01  0.15619585678E+02  0.51100000000E-03 0. -1.
        -11    1    4    4    0    0  0.59447008144E+01 -0.27973053056E+02 -0.20948295887E+02  0.35449432519E+02  0.51100000000E-03 0.  1.
         12    1    4    4    0    0 -0.22218004444E+01  0.21189063627E+01  0.12046212050E+01  0.32980711994E+01  0.00000000000E+00 0. -1.
</event>
<event>
 8    1  0.1269154E-006  0.9118800E+02  0.7816164E-02  0.1184000E+00
        -11   -1    0    0    0    0  0.00000000000E+00  0.00000000000E+00  0.45593999997E+02  0.45594000000E+02  0.51100000000E-03 0.  1.
         11   -1    0    0    0    0 -0.00000000000E+00 -0.00000000000E+00 -0.45593999997E+02  0.45594000000E+02  0.51100000000E-03 0. -1.
         23    2    1    2    0    0 -0.88817841970E-15  0.35527136788E-14  0.00000000000E+00  0.91188000000E+02  0.91188000000E+02 0.  0.
    9900012    2    3    3    0    0  0.23825122577E+01  0.18998501104E+02  0.31450924497E+02  0.54367081209E+02  0.39999993232E+02 0.  0.
         12    1    3    3    0    0 -0.23825122577E+01 -0.18998501104E+02 -0.31450924497E+02  0.36820918791E+02  0.00000000000E+00 0. -1.
         11    1    4    4    0    0  0.19823478042E+01  0.16500106742E+02  0.79927194109E+01  0.18440899901E+02  0.51100000000E-03 0. -1.
        -11    1    4    4    0    0 -0.76664152740E+01  0.87121780507E+01  0.22966420774E+02  0.25731934498E+02  0.51100000000E-03 0.  1.
         12    1    4    4    0    0  0.80665797274E+01 -0.62137836881E+01  0.49178431215E+00  0.10194246810E+02  0.00000000000E+00 0. -1.
</event>
<event>
 8    1  0.1269154E-006  0.9118800E+02  0.7816164E-02  0.1184000E+00
        -11   -1    0    0    0    0  0.00000000000E+00  0.00000000000E+00  0.45593999997E+02  0.45594000000E+02  0.51100000000E-03 0. -1.
         11   -1    0    0    0    0 -0.00000000000E+00 -0.00000000000E+00 -0.45593999997E+02  0.45594000000E+02  0.51100000000E-03 0.  1.
         23    2    1    2    0    0  0.00000000000E+00  0.35527136788E-14 -0.17763568394E-14  0.91188000000E+02  0.91188000000E+02 0.  0.
    9900012    2    3    3    0    0 -0.28001329863E+02 -0.22043297741E+02 -0.92627444573E+01  0.54367083603E+02  0.39999998690E+02 0.  0.
        -12    1    3    3    0    0  0.28001329863E+02  0.22043297741E+02  0.92627444573E+01  0.36820916397E+02  0.00000000000E+00 0.  1.
         11    1    4    4    0    0 -0.33617617006E+01 -0.14509024141E+02 -0.26604406245E+01  0.15129149607E+02  0.51100000000E-03 0. -1.
        -11    1    4    4    0    0 -0.98235352177E+01 -0.55314945114E+01  0.11267186522E+02  0.15938907368E+02  0.51100000000E-03 0.  1.
        -12    1    4    4    0    0 -0.14816032945E+02 -0.20027790894E+01 -0.17869490354E+02  0.23299026628E+02  0.00000000000E+00 0.  1.
</event>
<event>
 8    1  0.1269154E-006  0.9118800E+02  0.7816164E-02  0.1184000E+00
        -11   -1    0    0    0    0  0.00000000000E+00  0.00000000000E+00  0.45593999997E+02  0.45594000000E+02  0.51100000000E-03 0.  1.
         11   -1    0    0    0    0 -0.00000000000E+00 -0.00000000000E+00 -0.45593999997E+02  0.45594000000E+02  0.51100000000E-03 0. -1.
         23    2    1    2    0    0  0.35527136788E-14  0.00000000000E+00  0.00000000000E+00  0.91188000000E+02  0.91188000000E+02 0.  0.
    9900012    2    3    3    0    0 -0.19108885088E+02  0.23021619664E+02  0.21462421212E+02  0.54367082229E+02  0.39999995557E+02 0.  0.
         12    1    3    3    0    0  0.19108885088E+02 -0.23021619664E+02 -0.21462421212E+02  0.36820917771E+02  0.00000000000E+00 0. -1.
         11    1    4    4    0    0 -0.93525127576E+01  0.17687197042E+01 -0.40841589381E+01  0.10357519914E+02  0.51100000000E-03 0. -1.
        -11    1    4    4    0    0 -0.25617535809E+01  0.98799359003E+00 -0.55556896668E+01  0.61971284220E+01  0.51100000000E-03 0.  1.
        -12    1    4    4    0    0 -0.71946187492E+01  0.20264906369E+02  0.31102269817E+02  0.37812433893E+02  0.00000000000E+00 0.  1.
</event>
<event>
 8    1  0.1269154E-006  0.9118800E+02  0.7816164E-02  0.1184000E+00
        -11   -1    0    0    0    0  0.00000000000E+00  0.00000000000E+00  0.45593999997E+02  0.45594000000E+02  0.51100000000E-03 0.  1.
         11   -1    0    0    0    0 -0.00000000000E+00 -0.00000000000E+00 -0.45593999997E+02  0.45594000000E+02  0.51100000000E-03 0. -1.
         23    2    1    2    0    0  0.00000000000E+00  0.88817841970E-15  0.00000000000E+00  0.91188000000E+02  0.91188000000E+02 0.  0.
    9900012    2    3    3    0    0  0.32160823895E+02 -0.49378557685E+01  0.17236052311E+02  0.54367047915E+02  0.39999917332E+02 0.  0.
         12    1    3    3    0    0 -0.32160823895E+02  0.49378557685E+01 -0.17236052311E+02  0.36820952085E+02  0.00000000000E+00 0. -1.
         11    1    4    4    0    0  0.24823300496E+01 -0.10371169050E+02  0.11869426401E+02  0.15956390359E+02  0.51100000000E-03 0. -1.
        -11    1    4    4    0    0  0.31864467580E+02  0.95579908955E+01  0.56071930803E+01  0.33736332027E+02  0.51100000000E-03 0.  1.
        -12    1    4    4    0    0 -0.21859737354E+01 -0.41246776135E+01 -0.24056716992E+00  0.46743255290E+01  0.00000000000E+00 0.  1.
</event>
<event>
 8    1  0.1269154E-006  0.9118800E+02  0.7816164E-02  0.1184000E+00
        -11   -1    0    0    0    0  0.00000000000E+00  0.00000000000E+00  0.45593999997E+02  0.45594000000E+02  0.51100000000E-03 0. -1.
         11   -1    0    0    0    0 -0.00000000000E+00 -0.00000000000E+00 -0.45593999997E+02  0.45594000000E+02  0.51100000000E-03 0.  1.
         23    2    1    2    0    0  0.00000000000E+00  0.00000000000E+00 -0.71054273576E-14  0.91188000000E+02  0.91188000000E+02 0.  0.
    9900012    2    3    3    0    0  0.13230122519E+02 -0.11488604514E+02 -0.32384501795E+02  0.54367080239E+02  0.39999991021E+02 0.  0.
         12    1    3    3    0    0 -0.13230122519E+02  0.11488604514E+02  0.32384501795E+02  0.36820919761E+02  0.00000000000E+00 0. -1.
         11    1    4    4    0    0  0.83549071807E+01 -0.43089098903E+00 -0.88682350746E+01  0.12191625595E+02  0.51100000000E-03 0. -1.
        -11    1    4    4    0    0  0.14753614059E+02 -0.73178015861E+01 -0.26499102571E+02  0.31199708095E+02  0.51100000000E-03 0.  1.
         12    1    4    4    0    0 -0.98783987213E+01 -0.37399119387E+01  0.29828358510E+01  0.10975746550E+02  0.00000000000E+00 0. -1.
</event>
<event>
 8    1  0.1269154E-006  0.9118800E+02  0.7816164E-02  0.1184000E+00
        -11   -1    0    0    0    0  0.00000000000E+00  0.00000000000E+00  0.45593999997E+02  0.45594000000E+02  0.51100000000E-03 0.  1.
         11   -1    0    0    0    0 -0.00000000000E+00 -0.00000000000E+00 -0.45593999997E+02  0.45594000000E+02  0.51100000000E-03 0. -1.
         23    2    1    2    0    0  0.00000000000E+00  0.00000000000E+00  0.00000000000E+00  0.91188000000E+02  0.91188000000E+02 0.  0.
    9900012    2    3    3    0    0  0.28156594540E+02  0.15117468109E+02  0.18287923169E+02  0.54367084857E+02  0.40000001550E+02 0.  0.
         12    1    3    3    0    0 -0.28156594540E+02 -0.15117468109E+02 -0.18287923169E+02  0.36820915143E+02  0.00000000000E+00 0. -1.
         11    1    4    4    0    0  0.79173087123E+01 -0.10310800686E+02  0.76225499990E+01  0.15069826037E+02  0.51100000000E-03 0. -1.
        -11    1    4    4    0    0  0.54308163766E+01 -0.12290991536E+01  0.64370063316E+01  0.85111398779E+01  0.51100000000E-03 0.  1.
         12    1    4    4    0    0  0.14808469451E+02  0.26657367949E+02  0.42283668384E+01  0.30786118943E+02  0.00000000000E+00 0. -1.
</event>
<event>
 8    1  0.1269154E-006  0.9118800E+02  0.7816164E-02  0.1184000E+00
        -11   -1    0    0    0    0  0.00000000000E+00  0.00000000000E+00  0.45593999997E+02  0.45594000000E+02  0.51100000000E-03 0. -1.
         11   -1    0    0    0    0 -0.00000000000E+00 -0.00000000000E+00 -0.45593999997E+02  0.45594000000E+02  0.51100000000E-03 0.  1.
         23    2    1    2    0    0  0.00000000000E+00  0.00000000000E+00  0.00000000000E+00  0.91188000000E+02  0.91188000000E+02 0.  0.
    9900012    2    3    3    0    0  0.24154201409E+02 -0.15276737999E+02  0.23215823188E+02  0.54367100827E+02  0.40000037955E+02 0.  0.
        -12    1    3    3    0    0 -0.24154201409E+02  0.15276737999E+02 -0.23215823188E+02  0.36820899173E+02  0.00000000000E+00 0.  1.
         11    1    4    4    0    0 -0.53213590675E+00  0.72126728141E+00  0.16975461205E+02  0.16999108168E+02  0.51100000000E-03 0. -1.
        -11    1    4    4    0    0  0.17054932509E+02 -0.14704468619E+02 -0.56162651054E+01  0.23208501767E+02  0.51100000000E-03 0.  1.
        -12    1    4    4    0    0  0.76314048063E+01 -0.12935366614E+01  0.11856627089E+02  0.14159490892E+02  0.00000000000E+00 0.  1.
</event>
<event>
 8    1  0.1269154E-006  0.9118800E+02  0.7816164E-02  0.1184000E+00
        -11   -1    0    0    0    0  0.00000000000E+00  0.00000000000E+00  0.45593999997E+02  0.45594000000E+02  0.51100000000E-03 0.  1.
         11   -1    0    0    0    0 -0.00000000000E+00 -0.00000000000E+00 -0.45593999997E+02  0.45594000000E+02  0.51100000000E-03 0. -1.
         23    2    1    2    0    0  0.22204460493E-15  0.00000000000E+00 -0.35527136788E-14  0.91188000000E+02  0.91188000000E+02 0.  0.
    9900012    2    3    3    0    0 -0.77317982414E+00  0.34964388042E+02 -0.11518319920E+02  0.54367110115E+02  0.40000059128E+02 0.  0.
        -12    1    3    3    0    0  0.77317982414E+00 -0.34964388042E+02  0.11518319920E+02  0.36820889885E+02  0.00000000000E+00 0.  1.
         11    1    4    4    0    0 -0.52524260458E+01  0.25898203368E+02 -0.21018858993E+02  0.33765327641E+02  0.51100000000E-03 0. -1.
        -11    1    4    4    0    0 -0.18854316389E+01  0.32799727414E+01 -0.34066348902E+01  0.50909955004E+01  0.51100000000E-03 0.  1.
        -12    1    4    4    0    0  0.63646778606E+01  0.57862119321E+01  0.12907173964E+02  0.15510786973E+02  0.00000000000E+00 0.  1.
</event>
<event>
 8    1  0.1269154E-006  0.9118800E+02  0.7816164E-02  0.1184000E+00
        -11   -1    0    0    0    0  0.00000000000E+00  0.00000000000E+00  0.45593999997E+02  0.45594000000E+02  0.51100000000E-03 0. -1.
         11   -1    0    0    0    0 -0.00000000000E+00 -0.00000000000E+00 -0.45593999997E+02  0.45594000000E+02  0.51100000000E-03 0.  1.
         23    2    1    2    0    0 -0.13322676296E-14  0.00000000000E+00  0.00000000000E+00  0.91188000000E+02  0.91188000000E+02 0.  0.
    9900012    2    3    3    0    0 -0.28593909322E+01 -0.32768502369E+02  0.16547943462E+02  0.54367010105E+02  0.39999831137E+02 0.  0.
        -12    1    3    3    0    0  0.28593909322E+01  0.32768502369E+02 -0.16547943462E+02  0.36820989895E+02  0.00000000000E+00 0.  1.
         11    1    4    4    0    0 -0.13179391977E+02 -0.32761856813E+02  0.92509505362E+00  0.35325506873E+02  0.51100000000E-03 0. -1.
        -11    1    4    4    0    0  0.63840462663E+01  0.15037054494E+01  0.10802635970E+02  0.12637805227E+02  0.51100000000E-03 0.  1.
         12    1    4    4    0    0  0.39359547786E+01 -0.15103510047E+01  0.48202124390E+01  0.64036980045E+01  0.00000000000E+00 0. -1.
</event>
<event>
 8    1  0.1269154E-006  0.9118800E+02  0.7816164E-02  0.1184000E+00
        -11   -1    0    0    0    0  0.00000000000E+00  0.00000000000E+00  0.45593999997E+02  0.45594000000E+02  0.51100000000E-03 0. -1.
         11   -1    0    0    0    0 -0.00000000000E+00 -0.00000000000E+00 -0.45593999997E+02  0.45594000000E+02  0.51100000000E-03 0.  1.
         23    2    1    2    0    0  0.17763568394E-14  0.00000000000E+00  0.00000000000E+00  0.91188000000E+02  0.91188000000E+02 0.  0.
    9900012    2    3    3    0    0  0.12814353899E+02  0.33465901218E+02 -0.84619642625E+01  0.54367094941E+02  0.40000024537E+02 0.  0.
         12    1    3    3    0    0 -0.12814353899E+02 -0.33465901218E+02  0.84619642625E+01  0.36820905059E+02  0.00000000000E+00 0. -1.
         11    1    4    4    0    0  0.53485711564E+01 -0.89677409208E+00  0.21899930294E+01  0.58487166898E+01  0.51100000000E-03 0. -1.
        -11    1    4    4    0    0  0.91971648665E+01  0.11975659381E+01 -0.12136781828E+02  0.15274929759E+02  0.51100000000E-03 0.  1.
         12    1    4    4    0    0 -0.17313821237E+01  0.33165109372E+02  0.14848245357E+01  0.33243448492E+02  0.00000000000E+00 0. -1.
</event>
<event>
 8    1  0.1269154E-006  0.9118800E+02  0.7816164E-02  0.1184000E+00
        -11   -1    0    0    0    0  0.00000000000E+00  0.00000000000E+00  0.45593999997E+02  0.45594000000E+02  0.51100000000E-03 0.  1.
         11   -1    0    0    0    0 -0.00000000000E+00 -0.00000000000E+00 -0.45593999997E+02  0.45594000000E+02  0.51100000000E-03 0. -1.
         23    2    1    2    0    0  0.00000000000E+00  0.22204460493E-14 -0.88817841970E-15  0.91188000000E+02  0.91188000000E+02 0.  0.
    9900012    2    3    3    0    0  0.36170555109E+02 -0.22700596058E+01  0.65053030978E+01  0.54367065792E+02  0.39999958087E+02 0.  0.
         12    1    3    3    0    0 -0.36170555109E+02  0.22700596058E+01 -0.65053030978E+01  0.36820934208E+02  0.00000000000E+00 0. -1.
         11    1    4    4    0    0  0.21420963994E+02  0.47400081289E+01 -0.63649040408E+01  0.22843760181E+02  0.51100000000E-03 0. -1.
        -11    1    4    4    0    0  0.81469097495E+01  0.53876403893E+01 -0.31071131691E+01  0.10249534621E+02  0.51100000000E-03 0.  1.
        -12    1    4    4    0    0  0.66026813654E+01 -0.12397708124E+02  0.15977320308E+02  0.21273770990E+02  0.00000000000E+00 0.  1.
</event>
<event>
 8    1  0.1269154E-006  0.9118800E+02  0.7816164E-02  0.1184000E+00
        -11   -1    0    0    0    0  0.00000000000E+00  0.00000000000E+00  0.45593999997E+02  0.45594000000E+02  0.51100000000E-03 0. -1.
         11   -1    0    0    0    0 -0.00000000000E+00 -0.00000000000E+00 -0.45593999997E+02  0.45594000000E+02  0.51100000000E-03 0.  1.
         23    2    1    2    0    0  0.00000000000E+00  0.17763568394E-14 -0.35527136788E-14  0.91188000000E+02  0.91188000000E+02 0.  0.
    9900012    2    3    3    0    0  0.16628526979E+02  0.81605707761E+01  0.31822596897E+02  0.54367075267E+02  0.39999979687E+02 0.  0.
        -12    1    3    3    0    0 -0.16628526979E+02 -0.81605707761E+01 -0.31822596897E+02  0.36820924733E+02  0.00000000000E+00 0.  1.
         11    1    4    4    0    0  0.38121265065E+01  0.12980637124E+02  0.74214281676E+01  0.15430711097E+02  0.51100000000E-03 0. -1.
        -11    1    4    4    0    0  0.43056425063E+01  0.56485203566E+01  0.24433333270E+02  0.25444687355E+02  0.51100000000E-03 0.  1.
        -12    1    4    4    0    0  0.85107579661E+01 -0.10468586704E+02 -0.32164540710E-01  0.13491676816E+02  0.00000000000E+00 0.  1.
</event>
<event>
 8    1  0.1269154E-006  0.9118800E+02  0.7816164E-02  0.1184000E+00
        -11   -1    0    0    0    0  0.00000000000E+00  0.00000000000E+00  0.45593999997E+02  0.45594000000E+02  0.51100000000E-03 0.  1.
         11   -1    0    0    0    0 -0.00000000000E+00 -0.00000000000E+00 -0.45593999997E+02  0.45594000000E+02  0.51100000000E-03 0. -1.
         23    2    1    2    0    0  0.00000000000E+00  0.00000000000E+00  0.00000000000E+00  0.91188000000E+02  0.91188000000E+02 0.  0.
    9900012    2    3    3    0    0 -0.12755209340E+02  0.17957217540E+02  0.29506326724E+02  0.54367077363E+02  0.39999984465E+02 0.  0.
         12    1    3    3    0    0  0.12755209340E+02 -0.17957217540E+02 -0.29506326724E+02  0.36820922637E+02  0.00000000000E+00 0. -1.
         11    1    4    4    0    0  0.38755685375E+01 -0.56479221992E+00  0.62271504497E+01  0.73563866622E+01  0.51100000000E-03 0. -1.
        -11    1    4    4    0    0 -0.13070263816E+02  0.16405842009E+02 -0.22971179247E+01  0.21101189523E+02  0.51100000000E-03 0.  1.
         12    1    4    4    0    0 -0.35605140609E+01  0.21161677504E+01  0.25576294199E+02  0.25909501178E+02  0.00000000000E+00 0. -1.
</event>
<event>
 8    1  0.1269154E-006  0.9118800E+02  0.7816164E-02  0.1184000E+00
        -11   -1    0    0    0    0  0.00000000000E+00  0.00000000000E+00  0.45593999997E+02  0.45594000000E+02  0.51100000000E-03 0.  1.
         11   -1    0    0    0    0 -0.00000000000E+00 -0.00000000000E+00 -0.45593999997E+02  0.45594000000E+02  0.51100000000E-03 0. -1.
         23    2    1    2    0    0  0.00000000000E+00 -0.71054273576E-14 -0.88817841970E-15  0.91188000000E+02  0.91188000000E+02 0.  0.
    9900012    2    3    3    0    0 -0.55083082475E+01 -0.36083904277E+02  0.48362698479E+01  0.54367094068E+02  0.40000022547E+02 0.  0.
         12    1    3    3    0    0  0.55083082475E+01  0.36083904277E+02 -0.48362698479E+01  0.36820905932E+02  0.00000000000E+00 0. -1.
         11    1    4    4    0    0  0.42415905599E+01 -0.18974205709E+02 -0.13201860872E+02  0.23501078774E+02  0.51100000000E-03 0. -1.
        -11    1    4    4    0    0  0.19321030661E+01 -0.49173972321E+01  0.11686654901E+02  0.12825432579E+02  0.51100000000E-03 0.  1.
         12    1    4    4    0    0 -0.11682001874E+02 -0.12192301336E+02  0.63514758190E+01  0.18040582715E+02  0.00000000000E+00 0. -1.
</event>
<event>
 8    1  0.1269154E-006  0.9118800E+02  0.7816164E-02  0.1184000E+00
        -11   -1    0    0    0    0  0.00000000000E+00  0.00000000000E+00  0.45593999997E+02  0.45594000000E+02  0.51100000000E-03 0. -1.
         11   -1    0    0    0    0 -0.00000000000E+00 -0.00000000000E+00 -0.45593999997E+02  0.45594000000E+02  0.51100000000E-03 0.  1.
         23    2    1    2    0    0  0.00000000000E+00  0.17763568394E-14  0.00000000000E+00  0.91188000000E+02  0.91188000000E+02 0.  0.
    9900012    2    3    3    0    0 -0.16740646908E+02 -0.13009283076E+02  0.30104605852E+02  0.54367109211E+02  0.40000057068E+02 0.  0.
        -12    1    3    3    0    0  0.16740646908E+02  0.13009283076E+02 -0.30104605852E+02  0.36820890789E+02  0.00000000000E+00 0.  1.
         11    1    4    4    0    0  0.89439283256E+01  0.70265717253E+00  0.54388557538E+00  0.89879582096E+01  0.51100000000E-03 0. -1.
        -11    1    4    4    0    0  0.86198265059E+00  0.62695081827E+00  0.85416621890E+01  0.86079076802E+01  0.51100000000E-03 0.  1.
         12    1    4    4    0    0 -0.26546557884E+02 -0.14338891066E+02  0.21019058087E+02  0.36771243321E+02  0.00000000000E+00 0. -1.
</event>
<event>
 8    1  0.1269154E-006  0.9118800E+02  0.7816164E-02  0.1184000E+00
        -11   -1    0    0    0    0  0.00000000000E+00  0.00000000000E+00  0.45593999997E+02  0.45594000000E+02  0.51100000000E-03 0.  1.
         11   -1    0    0    0    0 -0.00000000000E+00 -0.00000000000E+00 -0.45593999997E+02  0.45594000000E+02  0.51100000000E-03 0. -1.
         23    2    1    2    0    0 -0.71054273576E-14  0.88817841970E-15  0.00000000000E+00  0.91188000000E+02  0.91188000000E+02 0.  0.
    9900012    2    3    3    0    0 -0.34581228268E+02 -0.79181663866E+01 -0.98602365837E+01  0.54367041662E+02  0.39999903076E+02 0.  0.
        -12    1    3    3    0    0  0.34581228268E+02  0.79181663866E+01  0.98602365837E+01  0.36820958338E+02  0.00000000000E+00 0.  1.
         11    1    4    4    0    0  0.43271276620E+00 -0.78901633658E+00 -0.31337403403E+01  0.32603858512E+01  0.51100000000E-03 0. -1.
        -11    1    4    4    0    0 -0.26335609411E+01  0.84815564527E+01  0.82903116553E+01  0.12149144443E+02  0.51100000000E-03 0.  1.
         12    1    4    4    0    0 -0.32380380093E+02 -0.15610706503E+02 -0.15016807899E+02  0.38957511368E+02  0.00000000000E+00 0. -1.
</event>
<event>
 8    1  0.1269154E-006  0.9118800E+02  0.7816164E-02  0.1184000E+00
        -11   -1    0    0    0    0  0.00000000000E+00  0.00000000000E+00  0.45593999997E+02  0.45594000000E+02  0.51100000000E-03 0. -1.
         11   -1    0    0    0    0 -0.00000000000E+00 -0.00000000000E+00 -0.45593999997E+02  0.45594000000E+02  0.51100000000E-03 0.  1.
         23    2    1    2    0    0  0.88817841970E-15  0.00000000000E+00  0.00000000000E+00  0.91188000000E+02  0.91188000000E+02 0.  0.
    9900012    2    3    3    0    0  0.75741700063E+01 -0.24755984363E+02  0.26183068147E+02  0.54367083789E+02  0.39999999113E+02 0.  0.
        -12    1    3    3    0    0 -0.75741700063E+01  0.24755984363E+02 -0.26183068147E+02  0.36820916211E+02  0.00000000000E+00 0.  1.
         11    1    4    4    0    0 -0.14564100817E+02 -0.19007907248E+02  0.15511876865E+02  0.28531244184E+02  0.51100000000E-03 0. -1.
        -11    1    4    4    0    0  0.15901325500E+02 -0.48116105549E+01  0.49876653194E+01  0.17345908866E+02  0.51100000000E-03 0.  1.
         12    1    4    4    0    0  0.62369453228E+01 -0.93646655988E+00  0.56835259621E+01  0.84899307382E+01  0.00000000000E+00 0. -1.
</event>
<event>
 8    1  0.1269154E-006  0.9118800E+02  0.7816164E-02  0.1184000E+00
        -11   -1    0    0    0    0  0.00000000000E+00  0.00000000000E+00  0.45593999997E+02  0.45594000000E+02  0.51100000000E-03 0. -1.
         11   -1    0    0    0    0 -0.00000000000E+00 -0.00000000000E+00 -0.45593999997E+02  0.45594000000E+02  0.51100000000E-03 0.  1.
         23    2    1    2    0    0  0.71054273576E-14 -0.88817841970E-15  0.00000000000E+00  0.91188000000E+02  0.91188000000E+02 0.  0.
    9900012    2    3    3    0    0 -0.32438106434E+02 -0.26399230466E+01 -0.17221544354E+02  0.54367061220E+02  0.39999947663E+02 0.  0.
         12    1    3    3    0    0  0.32438106434E+02  0.26399230466E+01  0.17221544354E+02  0.36820938780E+02  0.00000000000E+00 0. -1.
         11    1    4    4    0    0  0.56178834109E+01  0.32818483734E+01 -0.10000542416E+02  0.11930716309E+02  0.51100000000E-03 0. -1.
        -11    1    4    4    0    0 -0.33047129900E+02 -0.50275983420E+01 -0.11940973821E+02  0.35496146210E+02  0.51100000000E-03 0.  1.
         12    1    4    4    0    0 -0.50088599451E+01 -0.89417307801E+00  0.47199718825E+01  0.69401987014E+01  0.00000000000E+00 0. -1.
</event>
<event>
 8    1  0.1269154E-006  0.9118800E+02  0.7816164E-02  0.1184000E+00
        -11   -1    0    0    0    0  0.00000000000E+00  0.00000000000E+00  0.45593999997E+02  0.45594000000E+02  0.51100000000E-03 0.  1.
         11   -1    0    0    0    0 -0.00000000000E+00 -0.00000000000E+00 -0.45593999997E+02  0.45594000000E+02  0.51100000000E-03 0. -1.
         23    2    1    2    0    0 -0.13322676296E-14  0.00000000000E+00  0.00000000000E+00  0.91188000000E+02  0.91188000000E+02 0.  0.
    9900012    2    3    3    0    0  0.32836969085E+01 -0.13524998435E+02  0.34089232930E+02  0.54367027039E+02  0.39999869740E+02 0.  0.
         12    1    3    3    0    0 -0.32836969085E+01  0.13524998435E+02 -0.34089232930E+02  0.36820972961E+02  0.00000000000E+00 0. -1.
         11    1    4    4    0    0 -0.16690248670E+01 -0.80100324705E+01  0.27979848405E+02  0.29151641141E+02  0.51100000000E-03 0. -1.
        -11    1    4    4    0    0  0.12270420017E+02  0.17975501251E+01  0.79176960583E+01  0.14713405622E+02  0.51100000000E-03 0.  1.
         12    1    4    4    0    0 -0.73176982419E+01 -0.73125160897E+01 -0.18083115331E+01  0.10501980276E+02  0.00000000000E+00 0. -1.
</event>
<event>
 8    1  0.1269154E-006  0.9118800E+02  0.7816164E-02  0.1184000E+00
        -11   -1    0    0    0    0  0.00000000000E+00  0.00000000000E+00  0.45593999997E+02  0.45594000000E+02  0.51100000000E-03 0.  1.
         11   -1    0    0    0    0 -0.00000000000E+00 -0.00000000000E+00 -0.45593999997E+02  0.45594000000E+02  0.51100000000E-03 0. -1.
         23    2    1    2    0    0 -0.16930901126E-14 -0.35527136788E-14  0.00000000000E+00  0.91188000000E+02  0.91188000000E+02 0.  0.
    9900012    2    3    3    0    0 -0.53891453153E-01  0.21120963633E+02 -0.30160909753E+02  0.54367102588E+02  0.40000041970E+02 0.  0.
        -12    1    3    3    0    0  0.53891453153E-01 -0.21120963633E+02  0.30160909753E+02  0.36820897412E+02  0.00000000000E+00 0.  1.
         11    1    4    4    0    0  0.85664057406E+01  0.32376904967E+01 -0.27553765376E+02  0.29035769901E+02  0.51100000000E-03 0. -1.
        -11    1    4    4    0    0  0.39678052080E+00 -0.14955408707E+01  0.28755326297E+01  0.32653890186E+01  0.51100000000E-03 0.  1.
         12    1    4    4    0    0 -0.90170777146E+01  0.19378814007E+02 -0.54826770067E+01  0.22065943669E+02  0.00000000000E+00 0. -1.
</event>
<event>
 8    1  0.1269154E-006  0.9118800E+02  0.7816164E-02  0.1184000E+00
        -11   -1    0    0    0    0  0.00000000000E+00  0.00000000000E+00  0.45593999997E+02  0.45594000000E+02  0.51100000000E-03 0.  1.
         11   -1    0    0    0    0 -0.00000000000E+00 -0.00000000000E+00 -0.45593999997E+02  0.45594000000E+02  0.51100000000E-03 0. -1.
         23    2    1    2    0    0 -0.17763568394E-14  0.00000000000E+00  0.00000000000E+00  0.91188000000E+02  0.91188000000E+02 0.  0.
    9900012    2    3    3    0    0 -0.96698045205E+01 -0.84807890282E+01  0.34501451281E+02  0.54367095034E+02  0.40000024750E+02 0.  0.
         12    1    3    3    0    0  0.96698045205E+01  0.84807890282E+01 -0.34501451281E+02  0.36820904966E+02  0.00000000000E+00 0. -1.
         11    1    4    4    0    0  0.36902956152E+00  0.59487800781E+01 -0.39552577937E+01  0.71531973068E+01  0.51100000000E-03 0.  1.
        -11    1    4    4    0    0  0.39033552830E+01 -0.11261391463E+00  0.34195065890E-01  0.39051291813E+01  0.51100000000E-03 0. -1.
        -12    1    4    4    0    0 -0.13942189365E+02 -0.14316955192E+02  0.38422514009E+02  0.43308768546E+02  0.00000000000E+00 0.  1.
</event>
<event>
 8    1  0.1269154E-006  0.9118800E+02  0.7816164E-02  0.1184000E+00
        -11   -1    0    0    0    0  0.00000000000E+00  0.00000000000E+00  0.45593999997E+02  0.45594000000E+02  0.51100000000E-03 0.  1.
         11   -1    0    0    0    0 -0.00000000000E+00 -0.00000000000E+00 -0.45593999997E+02  0.45594000000E+02  0.51100000000E-03 0. -1.
         23    2    1    2    0    0  0.17763568394E-14  0.00000000000E+00  0.00000000000E+00  0.91188000000E+02  0.91188000000E+02 0.  0.
    9900012    2    3    3    0    0  0.93943037743E+01 -0.28941830704E+02 -0.20733967429E+02  0.54367083210E+02  0.39999997794E+02 0.  0.
        -12    1    3    3    0    0 -0.93943037743E+01  0.28941830704E+02  0.20733967429E+02  0.36820916790E+02  0.00000000000E+00 0.  1.
         11    1    4    4    0    0  0.71437310155E+00 -0.14849607438E+02 -0.23580860545E+02  0.27876121579E+02  0.51100000000E-03 0. -1.
        -11    1    4    4    0    0  0.40789313848E+01 -0.17276320330E+02  0.74443837291E+01  0.19249098024E+02  0.51100000000E-03 0.  1.
        -12    1    4    4    0    0  0.46009992879E+01  0.31840970641E+01 -0.45974906138E+01  0.72418636072E+01  0.00000000000E+00 0.  1.
</event>
<event>
 8    1  0.1269154E-006  0.9118800E+02  0.7816164E-02  0.1184000E+00
        -11   -1    0    0    0    0  0.00000000000E+00  0.00000000000E+00  0.45593999997E+02  0.45594000000E+02  0.51100000000E-03 0. -1.
         11   -1    0    0    0    0 -0.00000000000E+00 -0.00000000000E+00 -0.45593999997E+02  0.45594000000E+02  0.51100000000E-03 0.  1.
         23    2    1    2    0    0  0.88817841970E-15  0.00000000000E+00  0.35527136788E-14  0.91188000000E+02  0.91188000000E+02 0.  0.
    9900012    2    3    3    0    0  0.28644176855E+01  0.24127891870E+02 -0.27666218134E+02  0.54367086369E+02  0.40000004996E+02 0.  0.
         12    1    3    3    0    0 -0.28644176855E+01 -0.24127891870E+02  0.27666218134E+02  0.36820913631E+02  0.00000000000E+00 0. -1.
         11    1    4    4    0    0  0.82963996954E+01 -0.92622054320E+00 -0.15638303908E+02  0.17726947898E+02  0.51100000000E-03 0. -1.
        -11    1    4    4    0    0 -0.19905777279E+01 -0.22536986071E+01  0.38342894887E+01  0.48727131300E+01  0.51100000000E-03 0.  1.
        -12    1    4    4    0    0 -0.34414042820E+01  0.27307811020E+02 -0.15862203715E+02  0.31767425341E+02  0.00000000000E+00 0.  1.
</event>
<event>
 8    1  0.1269154E-006  0.9118800E+02  0.7816164E-02  0.1184000E+00
        -11   -1    0    0    0    0  0.00000000000E+00  0.00000000000E+00  0.45593999997E+02  0.45594000000E+02  0.51100000000E-03 0.  1.
         11   -1    0    0    0    0 -0.00000000000E+00 -0.00000000000E+00 -0.45593999997E+02  0.45594000000E+02  0.51100000000E-03 0. -1.
         23    2    1    2    0    0  0.00000000000E+00 -0.35527136788E-14  0.00000000000E+00  0.91188000000E+02  0.91188000000E+02 0.  0.
    9900012    2    3    3    0    0 -0.28511422001E+02  0.19089374408E+02  0.13359346107E+02  0.54367115597E+02  0.40000071626E+02 0.  0.
         12    1    3    3    0    0  0.28511422001E+02 -0.19089374408E+02 -0.13359346107E+02  0.36820884403E+02  0.00000000000E+00 0. -1.
         11    1    4    4    0    0 -0.24438248145E+01  0.12735478276E+02  0.12225300937E+02  0.17821971549E+02  0.51100000000E-03 0. -1.
        -11    1    4    4    0    0 -0.18886041300E+02 -0.67552393105E+01  0.58119289431E+01  0.20882871747E+02  0.51100000000E-03 0.  1.
        -12    1    4    4    0    0 -0.71815558872E+01  0.13109135442E+02 -0.46778837738E+01  0.15662272300E+02  0.00000000000E+00 0.  1.
</event>
<event>
 8    1  0.1269154E-006  0.9118800E+02  0.7816164E-02  0.1184000E+00
        -11   -1    0    0    0    0  0.00000000000E+00  0.00000000000E+00  0.45593999997E+02  0.45594000000E+02  0.51100000000E-03 0.  1.
         11   -1    0    0    0    0 -0.00000000000E+00 -0.00000000000E+00 -0.45593999997E+02  0.45594000000E+02  0.51100000000E-03 0. -1.
         23    2    1    2    0    0 -0.35527136788E-14 -0.35527136788E-14 -0.35527136788E-14  0.91188000000E+02  0.91188000000E+02 0.  0.
    9900012    2    3    3    0    0 -0.30704759421E+02  0.42395542452E+01  0.19875204485E+02  0.54367084413E+02  0.40000000537E+02 0.  0.
         12    1    3    3    0    0  0.30704759421E+02 -0.42395542452E+01 -0.19875204485E+02  0.36820915587E+02  0.00000000000E+00 0. -1.
         11    1    4    4    0    0 -0.12058283436E+02  0.58796775887E+01  0.16152293538E+02  0.20996890122E+02  0.51100000000E-03 0. -1.
        -11    1    4    4    0    0 -0.15888936239E+02 -0.13583608117E+02  0.22788281063E+01  0.21027737922E+02  0.51100000000E-03 0.  1.
        -12    1    4    4    0    0 -0.27575397456E+01  0.11943484774E+02  0.14440828405E+01  0.12342456370E+02  0.00000000000E+00 0.  1.
</event>
<event>
 8    1  0.1269154E-006  0.9118800E+02  0.7816164E-02  0.1184000E+00
        -11   -1    0    0    0    0  0.00000000000E+00  0.00000000000E+00  0.45593999997E+02  0.45594000000E+02  0.51100000000E-03 0. -1.
         11   -1    0    0    0    0 -0.00000000000E+00 -0.00000000000E+00 -0.45593999997E+02  0.45594000000E+02  0.51100000000E-03 0.  1.
         23    2    1    2    0    0  0.00000000000E+00  0.66613381478E-15 -0.17763568394E-14  0.91188000000E+02  0.91188000000E+02 0.  0.
    9900012    2    3    3    0    0 -0.34309666352E+02  0.17725501326E+01  0.13247102241E+02  0.54367070395E+02  0.39999968580E+02 0.  0.
        -12    1    3    3    0    0  0.34309666352E+02 -0.17725501326E+01 -0.13247102241E+02  0.36820929605E+02  0.00000000000E+00 0.  1.
         11    1    4    4    0    0 -0.10755875923E+02  0.12098799541E+02  0.13912483493E+02  0.21345421392E+02  0.51100000000E-03 0. -1.
        -11    1    4    4    0    0 -0.81974293105E+01 -0.63981418007E+01 -0.10165392147E+02  0.14541982794E+02  0.51100000000E-03 0.  1.
         12    1    4    4    0    0 -0.15356361119E+02 -0.39281076074E+01  0.95000108960E+01  0.18479666210E+02  0.00000000000E+00 0. -1.
</event>
<event>
 8    1  0.1269154E-006  0.9118800E+02  0.7816164E-02  0.1184000E+00
        -11   -1    0    0    0    0  0.00000000000E+00  0.00000000000E+00  0.45593999997E+02  0.45594000000E+02  0.51100000000E-03 0. -1.
         11   -1    0    0    0    0 -0.00000000000E+00 -0.00000000000E+00 -0.45593999997E+02  0.45594000000E+02  0.51100000000E-03 0.  1.
         23    2    1    2    0    0  0.35527136788E-14  0.00000000000E+00  0.00000000000E+00  0.91188000000E+02  0.91188000000E+02 0.  0.
    9900012    2    3    3    0    0 -0.96955791651E+01  0.15062816856E+02  0.32169666301E+02  0.54367080173E+02  0.39999990870E+02 0.  0.
        -12    1    3    3    0    0  0.96955791651E+01 -0.15062816856E+02 -0.32169666301E+02  0.36820919827E+02  0.00000000000E+00 0.  1.
         11    1    4    4    0    0  0.20231180227E+01  0.34848598945E+01  0.11917636080E+02  0.12580433419E+02  0.51100000000E-03 0. -1.
        -11    1    4    4    0    0  0.11387522963E+02  0.25510602080E+01  0.52507691135E+01  0.12796646590E+02  0.51100000000E-03 0.  1.
        -12    1    4    4    0    0 -0.23106220151E+02  0.90268967540E+01  0.15001261108E+02  0.28990000164E+02  0.00000000000E+00 0.  1.
</event>
<event>
 8    1  0.1269154E-006  0.9118800E+02  0.7816164E-02  0.1184000E+00
        -11   -1    0    0    0    0  0.00000000000E+00  0.00000000000E+00  0.45593999997E+02  0.45594000000E+02  0.51100000000E-03 0.  1.
         11   -1    0    0    0    0 -0.00000000000E+00 -0.00000000000E+00 -0.45593999997E+02  0.45594000000E+02  0.51100000000E-03 0. -1.
         23    2    1    2    0    0  0.00000000000E+00  0.00000000000E+00  0.88817841970E-15  0.91188000000E+02  0.91188000000E+02 0.  0.
    9900012    2    3    3    0    0 -0.17468935263E+02 -0.32331523605E+02  0.22995129754E+01  0.54367097272E+02  0.40000029850E+02 0.  0.
         12    1    3    3    0    0  0.17468935263E+02  0.32331523605E+02 -0.22995129754E+01  0.36820902728E+02  0.00000000000E+00 0. -1.
         11    1    4    4    0    0 -0.10608912530E+02  0.22916258916E+01  0.43244417880E+01  0.11683380133E+02  0.51100000000E-03 0. -1.
        -11    1    4    4    0    0 -0.14824261790E+01 -0.21178393593E+02  0.10365786078E+02  0.23625652665E+02  0.51100000000E-03 0.  1.
        -12    1    4    4    0    0 -0.53775965533E+01 -0.13444755903E+02 -0.12390714890E+02  0.19058064473E+02  0.00000000000E+00 0.  1.
</event>
<event>
 8    1  0.1269154E-006  0.9118800E+02  0.7816164E-02  0.1184000E+00
        -11   -1    0    0    0    0  0.00000000000E+00  0.00000000000E+00  0.45593999997E+02  0.45594000000E+02  0.51100000000E-03 0. -1.
         11   -1    0    0    0    0 -0.00000000000E+00 -0.00000000000E+00 -0.45593999997E+02  0.45594000000E+02  0.51100000000E-03 0.  1.
         23    2    1    2    0    0  0.35527136788E-14 -0.35527136788E-14  0.00000000000E+00  0.91188000000E+02  0.91188000000E+02 0.  0.
    9900012    2    3    3    0    0 -0.23779998235E+02  0.27661075624E+02  0.50155786050E+01  0.54367089508E+02  0.40000012152E+02 0.  0.
         12    1    3    3    0    0  0.23779998235E+02 -0.27661075624E+02 -0.50155786050E+01  0.36820910492E+02  0.00000000000E+00 0. -1.
         11    1    4    4    0    0  0.62209490486E+01  0.41483885855E+01 -0.55380696399E+01  0.93048132985E+01  0.51100000000E-03 0. -1.
        -11    1    4    4    0    0 -0.14770477667E+02  0.82434604243E+00 -0.21118880795E+01  0.14943447676E+02  0.51100000000E-03 0.  1.
         12    1    4    4    0    0 -0.15230469616E+02  0.22688340996E+02  0.12665536324E+02  0.30118828534E+02  0.00000000000E+00 0. -1.
</event>
<event>
 8    1  0.1269154E-006  0.9118800E+02  0.7816164E-02  0.1184000E+00
        -11   -1    0    0    0    0  0.00000000000E+00  0.00000000000E+00  0.45593999997E+02  0.45594000000E+02  0.51100000000E-03 0. -1.
         11   -1    0    0    0    0 -0.00000000000E+00 -0.00000000000E+00 -0.45593999997E+02  0.45594000000E+02  0.51100000000E-03 0.  1.
         23    2    1    2    0    0  0.88817841970E-15  0.00000000000E+00  0.44408920985E-15  0.91188000000E+02  0.91188000000E+02 0.  0.
    9900012    2    3    3    0    0 -0.29375730890E+01  0.36676889751E+02 -0.13984723039E+01  0.54367091507E+02  0.40000016708E+02 0.  0.
         12    1    3    3    0    0  0.29375730890E+01 -0.36676889751E+02  0.13984723039E+01  0.36820908493E+02  0.00000000000E+00 0. -1.
         11    1    4    4    0    0  0.73325993850E+01  0.58832493902E+00 -0.80786752575E+01  0.10926030119E+02  0.51100000000E-03 0. -1.
        -11    1    4    4    0    0 -0.16906366573E+01  0.34068154808E+02  0.52788230644E+01  0.34516132424E+02  0.51100000000E-03 0.  1.
        -12    1    4    4    0    0 -0.85795358167E+01  0.20204100046E+01  0.14013798892E+01  0.89249289639E+01  0.00000000000E+00 0.  1.
</event>
<event>
 8    1  0.1269154E-006  0.9118800E+02  0.7816164E-02  0.1184000E+00
        -11   -1    0    0    0    0  0.00000000000E+00  0.00000000000E+00  0.45593999997E+02  0.45594000000E+02  0.51100000000E-03 0.  1.
         11   -1    0    0    0    0 -0.00000000000E+00 -0.00000000000E+00 -0.45593999997E+02  0.45594000000E+02  0.51100000000E-03 0. -1.
         23    2    1    2    0    0  0.00000000000E+00  0.44408920985E-15 -0.88817841970E-15  0.91188000000E+02  0.91188000000E+02 0.  0.
    9900012    2    3    3    0    0  0.36564618563E+02  0.24847569013E+01  0.35544963174E+01  0.54367084862E+02  0.40000001559E+02 0.  0.
         12    1    3    3    0    0 -0.36564618563E+02 -0.24847569013E+01 -0.35544963174E+01  0.36820915138E+02  0.00000000000E+00 0. -1.
         11    1    4    4    0    0  0.23117651499E+02  0.71456751981E+01 -0.60223360664E+01  0.24935015878E+02  0.51100000000E-03 0. -1.
        -11    1    4    4    0    0  0.11607720141E+02 -0.19499012090E+01  0.17367706898E+02  0.20980431948E+02  0.51100000000E-03 0.  1.
        -12    1    4    4    0    0  0.18392469240E+01 -0.27110170878E+01 -0.77908745138E+01  0.84516370360E+01  0.00000000000E+00 0.  1.
</event>
<event>
 8    1  0.1269154E-006  0.9118800E+02  0.7816164E-02  0.1184000E+00
        -11   -1    0    0    0    0  0.00000000000E+00  0.00000000000E+00  0.45593999997E+02  0.45594000000E+02  0.51100000000E-03 0.  1.
         11   -1    0    0    0    0 -0.00000000000E+00 -0.00000000000E+00 -0.45593999997E+02  0.45594000000E+02  0.51100000000E-03 0. -1.
         23    2    1    2    0    0 -0.13322676296E-14 -0.83266726847E-15  0.00000000000E+00  0.91188000000E+02  0.91188000000E+02 0.  0.
    9900012    2    3    3    0    0 -0.37290316269E+01  0.34869171720E+00 -0.36630069559E+02  0.54366956307E+02  0.39999708491E+02 0.  0.
        -12    1    3    3    0    0  0.37290316269E+01 -0.34869171720E+00  0.36630069559E+02  0.36821043693E+02  0.00000000000E+00 0.  1.
         11    1    4    4    0    0 -0.14730160351E+02 -0.13217599821E+02 -0.22222127210E+02  0.29757444565E+02  0.51100000000E-03 0. -1.
        -11    1    4    4    0    0  0.10204291323E+02  0.95507139076E+01 -0.59057874551E+01  0.15173069013E+02  0.51100000000E-03 0.  1.
        -12    1    4    4    0    0  0.79683740133E+00  0.40155776303E+01 -0.85021548931E+01  0.94364427289E+01  0.00000000000E+00 0.  1.
</event>
<event>
 8    1  0.1269154E-006  0.9118800E+02  0.7816164E-02  0.1184000E+00
        -11   -1    0    0    0    0  0.00000000000E+00  0.00000000000E+00  0.45593999997E+02  0.45594000000E+02  0.51100000000E-03 0.  1.
         11   -1    0    0    0    0 -0.00000000000E+00 -0.00000000000E+00 -0.45593999997E+02  0.45594000000E+02  0.51100000000E-03 0. -1.
         23    2    1    2    0    0  0.00000000000E+00  0.00000000000E+00  0.35527136788E-14  0.91188000000E+02  0.91188000000E+02 0.  0.
    9900012    2    3    3    0    0  0.17695486747E+02  0.99221692817E+01 -0.30727843662E+02  0.54367081073E+02  0.39999992922E+02 0.  0.
        -12    1    3    3    0    0 -0.17695486747E+02 -0.99221692817E+01  0.30727843662E+02  0.36820918927E+02  0.00000000000E+00 0.  1.
         11    1    4    4    0    0  0.97805218011E+00  0.77971622923E+01 -0.90578608861E+01  0.11991545771E+02  0.51100000000E-03 0. -1.
        -11    1    4    4    0    0  0.36951908598E+01  0.94555340994E+01  0.53671942656E+01  0.11483393886E+02  0.51100000000E-03 0.  1.
        -12    1    4    4    0    0  0.13022243708E+02 -0.73305271101E+01 -0.27037177042E+02  0.30892141416E+02  0.00000000000E+00 0.  1.
</event>
<event>
 8    1  0.1269154E-006  0.9118800E+02  0.7816164E-02  0.1184000E+00
        -11   -1    0    0    0    0  0.00000000000E+00  0.00000000000E+00  0.45593999997E+02  0.45594000000E+02  0.51100000000E-03 0.  1.
         11   -1    0    0    0    0 -0.00000000000E+00 -0.00000000000E+00 -0.45593999997E+02  0.45594000000E+02  0.51100000000E-03 0. -1.
         23    2    1    2    0    0  0.00000000000E+00  0.00000000000E+00  0.00000000000E+00  0.91188000000E+02  0.91188000000E+02 0.  0.
    9900012    2    3    3    0    0 -0.28945954223E+02  0.15775606555E+02 -0.16402506566E+02  0.54367078641E+02  0.39999987379E+02 0.  0.
        -12    1    3    3    0    0  0.28945954223E+02 -0.15775606555E+02  0.16402506566E+02  0.36820921359E+02  0.00000000000E+00 0.  1.
         11    1    4    4    0    0 -0.12073884498E+02 -0.68501933119E+01 -0.21350064325E+02  0.25466234158E+02  0.51100000000E-03 0. -1.
        -11    1    4    4    0    0 -0.12001824816E+01  0.30783778397E+01  0.14328643835E+01  0.36013815010E+01  0.51100000000E-03 0.  1.
         12    1    4    4    0    0 -0.15671887243E+02  0.19547422027E+02  0.35146933748E+01  0.25299462982E+02  0.00000000000E+00 0. -1.
</event>
<event>
 8    1  0.1269154E-006  0.9118800E+02  0.7816164E-02  0.1184000E+00
        -11   -1    0    0    0    0  0.00000000000E+00  0.00000000000E+00  0.45593999997E+02  0.45594000000E+02  0.51100000000E-03 0.  1.
         11   -1    0    0    0    0 -0.00000000000E+00 -0.00000000000E+00 -0.45593999997E+02  0.45594000000E+02  0.51100000000E-03 0. -1.
         23    2    1    2    0    0  0.00000000000E+00  0.00000000000E+00 -0.22204460493E-14  0.91188000000E+02  0.91188000000E+02 0.  0.
    9900012    2    3    3    0    0 -0.35062547233E+02 -0.10633602717E+02  0.36500443337E+01  0.54367101738E+02  0.40000040031E+02 0.  0.
         12    1    3    3    0    0  0.35062547233E+02  0.10633602717E+02 -0.36500443337E+01  0.36820898262E+02  0.00000000000E+00 0. -1.
         11    1    4    4    0    0 -0.24704707000E+02 -0.38217758475E+00 -0.14695890606E+01  0.24751329256E+02  0.51100000000E-03 0. -1.
        -11    1    4    4    0    0  0.18567068509E+01 -0.94461063899E+01 -0.73726995373E+01  0.12125715855E+02  0.51100000000E-03 0.  1.
        -12    1    4    4    0    0 -0.12214547084E+02 -0.80531874200E+00  0.12492332932E+02  0.17490056627E+02  0.00000000000E+00 0.  1.
</event>
<event>
 8    1  0.1269154E-006  0.9118800E+02  0.7816164E-02  0.1184000E+00
        -11   -1    0    0    0    0  0.00000000000E+00  0.00000000000E+00  0.45593999997E+02  0.45594000000E+02  0.51100000000E-03 0.  1.
         11   -1    0    0    0    0 -0.00000000000E+00 -0.00000000000E+00 -0.45593999997E+02  0.45594000000E+02  0.51100000000E-03 0. -1.
         23    2    1    2    0    0  0.88817841970E-15 -0.53290705182E-14  0.00000000000E+00  0.91188000000E+02  0.91188000000E+02 0.  0.
    9900012    2    3    3    0    0  0.75574972235E+01  0.36127715427E+01  0.35855378864E+02  0.54367135317E+02  0.40000116582E+02 0.  0.
         12    1    3    3    0    0 -0.75574972235E+01 -0.36127715427E+01 -0.35855378864E+02  0.36820864683E+02  0.00000000000E+00 0. -1.
         11    1    4    4    0    0 -0.37663574386E+01  0.78445602553E+01  0.17075174894E+02  0.19164659451E+02  0.51100000000E-03 0. -1.
        -11    1    4    4    0    0  0.11273217474E+02 -0.12400478732E+02  0.20874513206E+02  0.26769434189E+02  0.51100000000E-03 0.  1.
        -12    1    4    4    0    0  0.50637188046E-01  0.81686900190E+01 -0.20943092351E+01  0.84330416768E+01  0.00000000000E+00 0.  1.
</event>
<event>
 8    1  0.1269154E-006  0.9118800E+02  0.7816164E-02  0.1184000E+00
        -11   -1    0    0    0    0  0.00000000000E+00  0.00000000000E+00  0.45593999997E+02  0.45594000000E+02  0.51100000000E-03 0.  1.
         11   -1    0    0    0    0 -0.00000000000E+00 -0.00000000000E+00 -0.45593999997E+02  0.45594000000E+02  0.51100000000E-03 0. -1.
         23    2    1    2    0    0  0.00000000000E+00 -0.35527136788E-14 -0.36082248300E-15  0.91188000000E+02  0.91188000000E+02 0.  0.
    9900012    2    3    3    0    0  0.23477874887E+02  0.28364303659E+02 -0.18312524411E+00  0.54367111008E+02  0.40000061166E+02 0.  0.
         12    1    3    3    0    0 -0.23477874887E+02 -0.28364303659E+02  0.18312524411E+00  0.36820888992E+02  0.00000000000E+00 0. -1.
         11    1    4    4    0    0 -0.74106934983E+01 -0.23583424824E+01 -0.47979316779E+01  0.91378501868E+01  0.51100000000E-03 0. -1.
        -11    1    4    4    0    0  0.21565001890E+01  0.27899573632E+01 -0.27679259434E+01  0.44828305168E+01  0.51100000000E-03 0.  1.
        -12    1    4    4    0    0  0.28732068196E+02  0.27932688779E+02  0.73827323772E+01  0.40746430305E+02  0.00000000000E+00 0.  1.
</event>
<event>
 8    1  0.1269154E-006  0.9118800E+02  0.7816164E-02  0.1184000E+00
        -11   -1    0    0    0    0  0.00000000000E+00  0.00000000000E+00  0.45593999997E+02  0.45594000000E+02  0.51100000000E-03 0.  1.
         11   -1    0    0    0    0 -0.00000000000E+00 -0.00000000000E+00 -0.45593999997E+02  0.45594000000E+02  0.51100000000E-03 0. -1.
         23    2    1    2    0    0 -0.66613381478E-15  0.00000000000E+00  0.00000000000E+00  0.91188000000E+02  0.91188000000E+02 0.  0.
    9900012    2    3    3    0    0 -0.15278312694E+01 -0.78909893399E+01  0.35932991309E+02  0.54367056971E+02  0.39999937976E+02 0.  0.
         12    1    3    3    0    0  0.15278312694E+01  0.78909893399E+01 -0.35932991309E+02  0.36820943029E+02  0.00000000000E+00 0. -1.
         11    1    4    4    0    0 -0.46121622388E+01  0.45353574642E+01 -0.99164339117E+00  0.65440709594E+01  0.51100000000E-03 0. -1.
        -11    1    4    4    0    0  0.57488440594E+01 -0.12381884075E+02  0.32367390434E+01  0.14029851787E+02  0.51100000000E-03 0.  1.
        -12    1    4    4    0    0 -0.26645130900E+01 -0.44462729141E-01  0.33687895657E+02  0.33793134225E+02  0.00000000000E+00 0.  1.
</event>
<event>
 8    1  0.1269154E-006  0.9118800E+02  0.7816164E-02  0.1184000E+00
        -11   -1    0    0    0    0  0.00000000000E+00  0.00000000000E+00  0.45593999997E+02  0.45594000000E+02  0.51100000000E-03 0.  1.
         11   -1    0    0    0    0 -0.00000000000E+00 -0.00000000000E+00 -0.45593999997E+02  0.45594000000E+02  0.51100000000E-03 0. -1.
         23    2    1    2    0    0  0.00000000000E+00  0.00000000000E+00  0.35527136788E-14  0.91188000000E+02  0.91188000000E+02 0.  0.
    9900012    2    3    3    0    0  0.27340768968E+02 -0.14876477269E+02 -0.19671012146E+02  0.54367137129E+02  0.40000120713E+02 0.  0.
        -12    1    3    3    0    0 -0.27340768968E+02  0.14876477269E+02  0.19671012146E+02  0.36820862871E+02  0.00000000000E+00 0.  1.
         11    1    4    4    0    0  0.25436786691E+02 -0.89024801193E+01 -0.17769156684E+02  0.32280446077E+02  0.51100000000E-03 0. -1.
        -11    1    4    4    0    0 -0.73284993238E+01 -0.90524597608E+01  0.15729050909E+01  0.11752785234E+02  0.51100000000E-03 0.  1.
         12    1    4    4    0    0  0.92324816010E+01  0.30784626107E+01 -0.34747605533E+01  0.10333905818E+02  0.00000000000E+00 0. -1.
</event>
<event>
 8    1  0.1269154E-006  0.9118800E+02  0.7816164E-02  0.1184000E+00
        -11   -1    0    0    0    0  0.00000000000E+00  0.00000000000E+00  0.45593999997E+02  0.45594000000E+02  0.51100000000E-03 0. -1.
         11   -1    0    0    0    0 -0.00000000000E+00 -0.00000000000E+00 -0.45593999997E+02  0.45594000000E+02  0.51100000000E-03 0.  1.
         23    2    1    2    0    0  0.00000000000E+00 -0.35527136788E-14  0.00000000000E+00  0.91188000000E+02  0.91188000000E+02 0.  0.
    9900012    2    3    3    0    0 -0.21092222818E+02 -0.28923119680E+02 -0.86226651522E+01  0.54367094665E+02  0.40000023907E+02 0.  0.
         12    1    3    3    0    0  0.21092222818E+02  0.28923119680E+02  0.86226651522E+01  0.36820905335E+02  0.00000000000E+00 0. -1.
         11    1    4    4    0    0  0.39446375354E+01  0.25174855135E+01  0.51536302724E+01  0.69611639718E+01  0.51100000000E-03 0. -1.
        -11    1    4    4    0    0 -0.20632275771E+02 -0.34091256470E+02 -0.14063179263E+02  0.42257278455E+02  0.51100000000E-03 0.  1.
        -12    1    4    4    0    0 -0.44045845820E+01  0.26506512766E+01  0.28688383812E+00  0.51486522379E+01  0.00000000000E+00 0.  1.
</event>
<event>
 8    1  0.1269154E-006  0.9118800E+02  0.7816164E-02  0.1184000E+00
        -11   -1    0    0    0    0  0.00000000000E+00  0.00000000000E+00  0.45593999997E+02  0.45594000000E+02  0.51100000000E-03 0. -1.
         11   -1    0    0    0    0 -0.00000000000E+00 -0.00000000000E+00 -0.45593999997E+02  0.45594000000E+02  0.51100000000E-03 0.  1.
         23    2    1    2    0    0  0.71054273576E-14 -0.35527136788E-14 -0.35527136788E-14  0.91188000000E+02  0.91188000000E+02 0.  0.
    9900012    2    3    3    0    0  0.35082154915E+02 -0.62098210057E+01 -0.92986278865E+01  0.54367028381E+02  0.39999872799E+02 0.  0.
        -12    1    3    3    0    0 -0.35082154915E+02  0.62098210057E+01  0.92986278865E+01  0.36820971619E+02  0.00000000000E+00 0.  1.
         11    1    4    4    0    0 -0.26251897837E+01  0.47070517014E+01  0.34980266025E+01  0.64252741181E+01  0.51100000000E-03 0. -1.
        -11    1    4    4    0    0 -0.18625051221E+01  0.56996141944E+00 -0.58386716146E+01  0.61549872326E+01  0.51100000000E-03 0.  1.
         12    1    4    4    0    0  0.39569849821E+02 -0.11486834127E+02 -0.69579828745E+01  0.41786767030E+02  0.00000000000E+00 0. -1.
</event>
<event>
 8    1  0.1269154E-006  0.9118800E+02  0.7816164E-02  0.1184000E+00
        -11   -1    0    0    0    0  0.00000000000E+00  0.00000000000E+00  0.45593999997E+02  0.45594000000E+02  0.51100000000E-03 0. -1.
         11   -1    0    0    0    0 -0.00000000000E+00 -0.00000000000E+00 -0.45593999997E+02  0.45594000000E+02  0.51100000000E-03 0.  1.
         23    2    1    2    0    0  0.00000000000E+00 -0.88817841970E-15  0.00000000000E+00  0.91188000000E+02  0.91188000000E+02 0.  0.
    9900012    2    3    3    0    0 -0.31022776550E+02  0.16159247233E+01 -0.19767559875E+02  0.54367077945E+02  0.39999985791E+02 0.  0.
         12    1    3    3    0    0  0.31022776550E+02 -0.16159247233E+01  0.19767559875E+02  0.36820922055E+02  0.00000000000E+00 0. -1.
         11    1    4    4    0    0 -0.91813659366E+01  0.10683597544E+02 -0.14014794439E+02  0.19870863101E+02  0.51100000000E-03 0.  1.
        -11    1    4    4    0    0 -0.12206337985E+02  0.30546873564E+01 -0.12380647032E+02  0.17652371598E+02  0.51100000000E-03 0. -1.
         12    1    4    4    0    0 -0.96350726286E+01 -0.12122360177E+02  0.66278815967E+01  0.16843843246E+02  0.00000000000E+00 0. -1.
</event>
<event>
 8    1  0.1269154E-006  0.9118800E+02  0.7816164E-02  0.1184000E+00
        -11   -1    0    0    0    0  0.00000000000E+00  0.00000000000E+00  0.45593999997E+02  0.45594000000E+02  0.51100000000E-03 0. -1.
         11   -1    0    0    0    0 -0.00000000000E+00 -0.00000000000E+00 -0.45593999997E+02  0.45594000000E+02  0.51100000000E-03 0.  1.
         23    2    1    2    0    0  0.00000000000E+00 -0.35527136788E-14  0.00000000000E+00  0.91188000000E+02  0.91188000000E+02 0.  0.
    9900012    2    3    3    0    0  0.19201126453E+02 -0.23405564598E+02  0.20958909210E+02  0.54367087648E+02  0.40000007911E+02 0.  0.
        -12    1    3    3    0    0 -0.19201126453E+02  0.23405564598E+02 -0.20958909210E+02  0.36820912352E+02  0.00000000000E+00 0.  1.
         11    1    4    4    0    0  0.10003972175E+02 -0.18666674862E+02  0.19312791424E+02  0.28661962992E+02  0.51100000000E-03 0. -1.
        -11    1    4    4    0    0  0.95598431031E+01  0.45503919214E+01  0.89651409725E+01  0.13873370885E+02  0.51100000000E-03 0.  1.
        -12    1    4    4    0    0 -0.36268882575E+00 -0.92892816574E+01 -0.73190231871E+01  0.11831753771E+02  0.00000000000E+00 0.  1.
</event>
<event>
 8    1  0.1269154E-006  0.9118800E+02  0.7816164E-02  0.1184000E+00
        -11   -1    0    0    0    0  0.00000000000E+00  0.00000000000E+00  0.45593999997E+02  0.45594000000E+02  0.51100000000E-03 0.  1.
         11   -1    0    0    0    0 -0.00000000000E+00 -0.00000000000E+00 -0.45593999997E+02  0.45594000000E+02  0.51100000000E-03 0. -1.
         23    2    1    2    0    0  0.00000000000E+00  0.17763568394E-14  0.35527136788E-14  0.91188000000E+02  0.91188000000E+02 0.  0.
    9900012    2    3    3    0    0 -0.32630461864E+02 -0.93521515068E+01 -0.14267815650E+02  0.54367077378E+02  0.39999984499E+02 0.  0.
        -12    1    3    3    0    0  0.32630461864E+02  0.93521515068E+01  0.14267815650E+02  0.36820922622E+02  0.00000000000E+00 0.  1.
         11    1    4    4    0    0 -0.20876457591E+02 -0.55876435027E+01 -0.14897057626E+02  0.26248248849E+02  0.51100000000E-03 0. -1.
        -11    1    4    4    0    0 -0.92041350066E+01  0.24935174424E+01  0.11733621178E+02  0.15119907297E+02  0.51100000000E-03 0.  1.
        -12    1    4    4    0    0 -0.25498692665E+01 -0.62580254466E+01 -0.11104379201E+02  0.12998921232E+02  0.00000000000E+00 0.  1.
</event>
<event>
 8    1  0.1269154E-006  0.9118800E+02  0.7816164E-02  0.1184000E+00
        -11   -1    0    0    0    0  0.00000000000E+00  0.00000000000E+00  0.45593999997E+02  0.45594000000E+02  0.51100000000E-03 0. -1.
         11   -1    0    0    0    0 -0.00000000000E+00 -0.00000000000E+00 -0.45593999997E+02  0.45594000000E+02  0.51100000000E-03 0.  1.
         23    2    1    2    0    0 -0.35527136788E-14  0.00000000000E+00 -0.35527136788E-14  0.91188000000E+02  0.91188000000E+02 0.  0.
    9900012    2    3    3    0    0  0.16153150543E+02 -0.25739763228E+02 -0.20792317065E+02  0.54367080234E+02  0.39999991009E+02 0.  0.
         12    1    3    3    0    0 -0.16153150543E+02  0.25739763228E+02  0.20792317065E+02  0.36820919766E+02  0.00000000000E+00 0. -1.
         11    1    4    4    0    0 -0.56326638620E+01 -0.44249529561E+01 -0.15673299533E+02  0.17232510826E+02  0.51100000000E-03 0. -1.
        -11    1    4    4    0    0  0.52898313996E+01 -0.14865453030E+01 -0.94976458389E+01  0.10972575355E+02  0.51100000000E-03 0.  1.
         12    1    4    4    0    0  0.16495983006E+02 -0.19828264968E+02  0.43786283074E+01  0.26161994053E+02  0.00000000000E+00 0. -1.
</event>
<event>
 8    1  0.1269154E-006  0.9118800E+02  0.7816164E-02  0.1184000E+00
        -11   -1    0    0    0    0  0.00000000000E+00  0.00000000000E+00  0.45593999997E+02  0.45594000000E+02  0.51100000000E-03 0.  1.
         11   -1    0    0    0    0 -0.00000000000E+00 -0.00000000000E+00 -0.45593999997E+02  0.45594000000E+02  0.51100000000E-03 0. -1.
         23    2    1    2    0    0  0.17763568394E-14  0.00000000000E+00  0.00000000000E+00  0.91188000000E+02  0.91188000000E+02 0.  0.
    9900012    2    3    3    0    0  0.12478075584E+02  0.28064654214E+02  0.20309089606E+02  0.54366996388E+02  0.39999799864E+02 0.  0.
         12    1    3    3    0    0 -0.12478075584E+02 -0.28064654214E+02 -0.20309089606E+02  0.36821003612E+02  0.00000000000E+00 0. -1.
         11    1    4    4    0    0  0.67830097844E+01  0.98222959926E+01 -0.15839430614E+01  0.12041411719E+02  0.51100000000E-03 0. -1.
        -11    1    4    4    0    0  0.19014252943E+01  0.23794479340E+02  0.53421225226E+01  0.24460804127E+02  0.51100000000E-03 0.  1.
         12    1    4    4    0    0  0.37936405052E+01 -0.55521211191E+01  0.16550910145E+02  0.17864780542E+02  0.00000000000E+00 0. -1.
</event>
<event>
 8    1  0.1269154E-006  0.9118800E+02  0.7816164E-02  0.1184000E+00
        -11   -1    0    0    0    0  0.00000000000E+00  0.00000000000E+00  0.45593999997E+02  0.45594000000E+02  0.51100000000E-03 0.  1.
         11   -1    0    0    0    0 -0.00000000000E+00 -0.00000000000E+00 -0.45593999997E+02  0.45594000000E+02  0.51100000000E-03 0. -1.
         23    2    1    2    0    0 -0.17763568394E-14  0.00000000000E+00 -0.71054273576E-14  0.91188000000E+02  0.91188000000E+02 0.  0.
    9900012    2    3    3    0    0  0.11121551062E+02 -0.96843883459E+01  0.33738752600E+02  0.54367086069E+02  0.40000004312E+02 0.  0.
         12    1    3    3    0    0 -0.11121551062E+02  0.96843883459E+01 -0.33738752600E+02  0.36820913931E+02  0.00000000000E+00 0. -1.
         11    1    4    4    0    0 -0.55429548629E+01 -0.88220138835E+01  0.64526323640E+01  0.12255151662E+02  0.51100000000E-03 0. -1.
        -11    1    4    4    0    0  0.16439301798E+02 -0.11963423237E+02  0.21501802522E+02  0.29592256607E+02  0.51100000000E-03 0.  1.
        -12    1    4    4    0    0  0.22520412699E+00  0.11101048775E+02  0.57843177149E+01  0.12519677800E+02  0.00000000000E+00 0.  1.
</event>
<event>
 8    1  0.1269154E-006  0.9118800E+02  0.7816164E-02  0.1184000E+00
        -11   -1    0    0    0    0  0.00000000000E+00  0.00000000000E+00  0.45593999997E+02  0.45594000000E+02  0.51100000000E-03 0.  1.
         11   -1    0    0    0    0 -0.00000000000E+00 -0.00000000000E+00 -0.45593999997E+02  0.45594000000E+02  0.51100000000E-03 0. -1.
         23    2    1    2    0    0 -0.13322676296E-14  0.00000000000E+00 -0.17763568394E-14  0.91188000000E+02  0.91188000000E+02 0.  0.
    9900012    2    3    3    0    0 -0.48548398988E+00  0.33613248869E+02  0.15023098788E+02  0.54367086223E+02  0.40000004662E+02 0.  0.
         12    1    3    3    0    0  0.48548398988E+00 -0.33613248869E+02 -0.15023098788E+02  0.36820913777E+02  0.00000000000E+00 0. -1.
         11    1    4    4    0    0  0.57343570546E+01  0.12323496327E+02  0.83867348305E+01  0.15971497548E+02  0.51100000000E-03 0.  1.
        -11    1    4    4    0    0 -0.14856167057E+02  0.24165817673E+02  0.72288822630E+01  0.29273694377E+02  0.51100000000E-03 0. -1.
         12    1    4    4    0    0  0.86363260125E+01 -0.28760651315E+01 -0.59251830538E+00  0.91218942977E+01  0.00000000000E+00 0. -1.
</event>
<event>
 8    1  0.1269154E-006  0.9118800E+02  0.7816164E-02  0.1184000E+00
        -11   -1    0    0    0    0  0.00000000000E+00  0.00000000000E+00  0.45593999997E+02  0.45594000000E+02  0.51100000000E-03 0.  1.
         11   -1    0    0    0    0 -0.00000000000E+00 -0.00000000000E+00 -0.45593999997E+02  0.45594000000E+02  0.51100000000E-03 0. -1.
         23    2    1    2    0    0  0.17763568394E-14  0.17763568394E-14  0.71054273576E-14  0.91188000000E+02  0.91188000000E+02 0.  0.
    9900012    2    3    3    0    0  0.95288484564E+01  0.64684913310E+01  0.34973414895E+02  0.54367080913E+02  0.39999992558E+02 0.  0.
         12    1    3    3    0    0 -0.95288484564E+01 -0.64684913310E+01 -0.34973414895E+02  0.36820919087E+02  0.00000000000E+00 0. -1.
         11    1    4    4    0    0  0.33329337109E-01  0.35176454770E+01  0.10895868568E+02  0.11449667797E+02  0.51100000000E-03 0. -1.
        -11    1    4    4    0    0  0.69239275613E+01  0.11227415754E+02  0.29760998728E+02  0.32553228456E+02  0.51100000000E-03 0.  1.
         12    1    4    4    0    0  0.25715915580E+01 -0.82765699002E+01 -0.56834524015E+01  0.10364184659E+02  0.00000000000E+00 0. -1.
</event>
<event>
 8    1  0.1269154E-006  0.9118800E+02  0.7816164E-02  0.1184000E+00
        -11   -1    0    0    0    0  0.00000000000E+00  0.00000000000E+00  0.45593999997E+02  0.45594000000E+02  0.51100000000E-03 0.  1.
         11   -1    0    0    0    0 -0.00000000000E+00 -0.00000000000E+00 -0.45593999997E+02  0.45594000000E+02  0.51100000000E-03 0. -1.
         23    2    1    2    0    0 -0.35527136788E-14  0.00000000000E+00  0.88817841970E-15  0.91188000000E+02  0.91188000000E+02 0.  0.
    9900012    2    3    3    0    0 -0.14737204310E+02 -0.33288991648E+02  0.55170300902E+01  0.54367085063E+02  0.40000002018E+02 0.  0.
         12    1    3    3    0    0  0.14737204310E+02  0.33288991648E+02 -0.55170300902E+01  0.36820914937E+02  0.00000000000E+00 0. -1.
         11    1    4    4    0    0 -0.25058049573E+01  0.56369172180E+01  0.47354953849E+01  0.77768123937E+01  0.51100000000E-03 0. -1.
        -11    1    4    4    0    0  0.53311221928E+01 -0.18104022186E+02  0.35736211285E+01  0.19207999671E+02  0.51100000000E-03 0.  1.
         12    1    4    4    0    0 -0.17562521546E+02 -0.20821886680E+02 -0.27920864231E+01  0.27382272998E+02  0.00000000000E+00 0. -1.
</event>
<event>
 8    1  0.1269154E-006  0.9118800E+02  0.7816164E-02  0.1184000E+00
        -11   -1    0    0    0    0  0.00000000000E+00  0.00000000000E+00  0.45593999997E+02  0.45594000000E+02  0.51100000000E-03 0.  1.
         11   -1    0    0    0    0 -0.00000000000E+00 -0.00000000000E+00 -0.45593999997E+02  0.45594000000E+02  0.51100000000E-03 0. -1.
         23    2    1    2    0    0  0.00000000000E+00 -0.44408920985E-15  0.00000000000E+00  0.91188000000E+02  0.91188000000E+02 0.  0.
    9900012    2    3    3    0    0 -0.26795240245E+02 -0.34798339605E+01  0.25013706633E+02  0.54367086599E+02  0.40000005519E+02 0.  0.
        -12    1    3    3    0    0  0.26795240245E+02  0.34798339605E+01 -0.25013706633E+02  0.36820913401E+02  0.00000000000E+00 0.  1.
         11    1    4    4    0    0  0.23896530702E+01 -0.86877987194E+00 -0.54523917570E+00  0.26004819326E+01  0.51100000000E-03 0.  1.
        -11    1    4    4    0    0  0.75515784673E+01  0.21974412444E+01  0.31855692715E+01  0.84854544495E+01  0.51100000000E-03 0. -1.
         12    1    4    4    0    0 -0.36736471782E+02 -0.48084953330E+01  0.22373376537E+02  0.43281150217E+02  0.00000000000E+00 0. -1.
</event>
<event>
 8    1  0.1269154E-006  0.9118800E+02  0.7816164E-02  0.1184000E+00
        -11   -1    0    0    0    0  0.00000000000E+00  0.00000000000E+00  0.45593999997E+02  0.45594000000E+02  0.51100000000E-03 0. -1.
         11   -1    0    0    0    0 -0.00000000000E+00 -0.00000000000E+00 -0.45593999997E+02  0.45594000000E+02  0.51100000000E-03 0.  1.
         23    2    1    2    0    0  0.35527136788E-14  0.88817841970E-15  0.00000000000E+00  0.91188000000E+02  0.91188000000E+02 0.  0.
    9900012    2    3    3    0    0 -0.28181194034E+02 -0.56238123460E+01 -0.23021149120E+02  0.54367078376E+02  0.39999986773E+02 0.  0.
         12    1    3    3    0    0  0.28181194034E+02  0.56238123460E+01  0.23021149120E+02  0.36820921624E+02  0.00000000000E+00 0. -1.
         11    1    4    4    0    0 -0.14561232972E+02 -0.14177670610E+02 -0.10867835343E+02  0.23046598337E+02  0.51100000000E-03 0. -1.
        -11    1    4    4    0    0 -0.92231984158E+01  0.93799497688E+00 -0.18352502168E+02  0.20561166302E+02  0.51100000000E-03 0.  1.
         12    1    4    4    0    0 -0.43967626465E+01  0.76158632875E+01  0.61991883915E+01  0.10759313737E+02  0.00000000000E+00 0. -1.
</event>
<event>
 8    1  0.1269154E-006  0.9118800E+02  0.7816164E-02  0.1184000E+00
        -11   -1    0    0    0    0  0.00000000000E+00  0.00000000000E+00  0.45593999997E+02  0.45594000000E+02  0.51100000000E-03 0.  1.
         11   -1    0    0    0    0 -0.00000000000E+00 -0.00000000000E+00 -0.45593999997E+02  0.45594000000E+02  0.51100000000E-03 0. -1.
         23    2    1    2    0    0 -0.17763568394E-14  0.00000000000E+00  0.17763568394E-14  0.91188000000E+02  0.91188000000E+02 0.  0.
    9900012    2    3    3    0    0  0.13787506552E+02 -0.33413535199E+02  0.70155538065E+01  0.54367113717E+02  0.40000067341E+02 0.  0.
         12    1    3    3    0    0 -0.13787506552E+02  0.33413535199E+02 -0.70155538065E+01  0.36820886283E+02  0.00000000000E+00 0. -1.
         11    1    4    4    0    0 -0.60780013159E+01 -0.37874987575E+01 -0.39633299004E+01  0.81850614533E+01  0.51100000000E-03 0.  1.
        -11    1    4    4    0    0  0.88647465776E+00 -0.67228882479E+01 -0.83136232070E+01  0.10728438600E+02  0.51100000000E-03 0. -1.
        -12    1    4    4    0    0  0.18979033210E+02 -0.22903148194E+02  0.19292506914E+02  0.35453613664E+02  0.00000000000E+00 0.  1.
</event>
<event>
 8    1  0.1269154E-006  0.9118800E+02  0.7816164E-02  0.1184000E+00
        -11   -1    0    0    0    0  0.00000000000E+00  0.00000000000E+00  0.45593999997E+02  0.45594000000E+02  0.51100000000E-03 0. -1.
         11   -1    0    0    0    0 -0.00000000000E+00 -0.00000000000E+00 -0.45593999997E+02  0.45594000000E+02  0.51100000000E-03 0.  1.
         23    2    1    2    0    0  0.35527136788E-14  0.00000000000E+00  0.17763568394E-14  0.91188000000E+02  0.91188000000E+02 0.  0.
    9900012    2    3    3    0    0  0.18218754417E+02  0.28313758011E+02  0.14905972491E+02  0.54367083103E+02  0.39999997551E+02 0.  0.
        -12    1    3    3    0    0 -0.18218754417E+02 -0.28313758011E+02 -0.14905972491E+02  0.36820916897E+02  0.00000000000E+00 0.  1.
         11    1    4    4    0    0 -0.39001664735E+01  0.48125113769E+01  0.46784882429E+01  0.77627196764E+01  0.51100000000E-03 0. -1.
        -11    1    4    4    0    0  0.43253149392E+01  0.17954375080E+02  0.18564981714E+02  0.26186379668E+02  0.51100000000E-03 0.  1.
         12    1    4    4    0    0  0.17793605951E+02  0.55468715545E+01 -0.83374974657E+01  0.20417983759E+02  0.00000000000E+00 0. -1.
</event>
<event>
 8    1  0.1269154E-006  0.9118800E+02  0.7816164E-02  0.1184000E+00
        -11   -1    0    0    0    0  0.00000000000E+00  0.00000000000E+00  0.45593999997E+02  0.45594000000E+02  0.51100000000E-03 0.  1.
         11   -1    0    0    0    0 -0.00000000000E+00 -0.00000000000E+00 -0.45593999997E+02  0.45594000000E+02  0.51100000000E-03 0. -1.
         23    2    1    2    0    0  0.00000000000E+00  0.00000000000E+00  0.88817841970E-15  0.91188000000E+02  0.91188000000E+02 0.  0.
    9900012    2    3    3    0    0  0.33932668560E+02 -0.13644151872E+02  0.42648805399E+01  0.54367108078E+02  0.40000054485E+02 0.  0.
         12    1    3    3    0    0 -0.33932668560E+02  0.13644151872E+02 -0.42648805399E+01  0.36820891922E+02  0.00000000000E+00 0. -1.
         11    1    4    4    0    0  0.14299916792E+02  0.35736923262E+01  0.16050157839E+02  0.21791430977E+02  0.51100000000E-03 0. -1.
        -11    1    4    4    0    0  0.18111910176E+02 -0.14248723251E+02 -0.30759017329E+01  0.23249270445E+02  0.51100000000E-03 0.  1.
         12    1    4    4    0    0  0.15208415924E+01 -0.29691209477E+01 -0.87093755664E+01  0.93264066557E+01  0.00000000000E+00 0. -1.
</event>
<event>
 8    1  0.1269154E-006  0.9118800E+02  0.7816164E-02  0.1184000E+00
        -11   -1    0    0    0    0  0.00000000000E+00  0.00000000000E+00  0.45593999997E+02  0.45594000000E+02  0.51100000000E-03 0.  1.
         11   -1    0    0    0    0 -0.00000000000E+00 -0.00000000000E+00 -0.45593999997E+02  0.45594000000E+02  0.51100000000E-03 0. -1.
         23    2    1    2    0    0 -0.77715611724E-15 -0.35527136788E-14  0.00000000000E+00  0.91188000000E+02  0.91188000000E+02 0.  0.
    9900012    2    3    3    0    0  0.56552900373E+00 -0.23327061932E+02  0.28483472228E+02  0.54367084319E+02  0.40000000322E+02 0.  0.
         12    1    3    3    0    0 -0.56552900373E+00  0.23327061932E+02 -0.28483472228E+02  0.36820915681E+02  0.00000000000E+00 0. -1.
         11    1    4    4    0    0 -0.63149013141E+01 -0.77603440394E+01  0.86946953796E+01  0.13255136598E+02  0.51100000000E-03 0. -1.
        -11    1    4    4    0    0 -0.61621872235E+01  0.72915973158E+01  0.70860285428E+01  0.11889143937E+02  0.51100000000E-03 0.  1.
        -12    1    4    4    0    0  0.13042617541E+02 -0.22858315208E+02  0.12702748305E+02  0.29222803784E+02  0.00000000000E+00 0.  1.
</event>
<event>
 8    1  0.1269154E-006  0.9118800E+02  0.7816164E-02  0.1184000E+00
        -11   -1    0    0    0    0  0.00000000000E+00  0.00000000000E+00  0.45593999997E+02  0.45594000000E+02  0.51100000000E-03 0.  1.
         11   -1    0    0    0    0 -0.00000000000E+00 -0.00000000000E+00 -0.45593999997E+02  0.45594000000E+02  0.51100000000E-03 0. -1.
         23    2    1    2    0    0  0.00000000000E+00  0.35527136788E-14  0.00000000000E+00  0.91188000000E+02  0.91188000000E+02 0.  0.
    9900012    2    3    3    0    0  0.87969014876E+01  0.25049004321E+02  0.25513542286E+02  0.54367096518E+02  0.40000028132E+02 0.  0.
        -12    1    3    3    0    0 -0.87969014876E+01 -0.25049004321E+02 -0.25513542286E+02  0.36820903482E+02  0.00000000000E+00 0.  1.
         11    1    4    4    0    0  0.10736541853E+02  0.12355755114E+02 -0.20365884269E+00  0.16370079187E+02  0.51100000000E-03 0. -1.
        -11    1    4    4    0    0  0.87362531478E+01 -0.30588709424E+00  0.16848095151E+02  0.18980885029E+02  0.51100000000E-03 0.  1.
         12    1    4    4    0    0 -0.10675893514E+02  0.12999136302E+02  0.88691059771E+01  0.19016132302E+02  0.00000000000E+00 0. -1.
</event>
<event>
 8    1  0.1269154E-006  0.9118800E+02  0.7816164E-02  0.1184000E+00
        -11   -1    0    0    0    0  0.00000000000E+00  0.00000000000E+00  0.45593999997E+02  0.45594000000E+02  0.51100000000E-03 0.  1.
         11   -1    0    0    0    0 -0.00000000000E+00 -0.00000000000E+00 -0.45593999997E+02  0.45594000000E+02  0.51100000000E-03 0. -1.
         23    2    1    2    0    0  0.00000000000E+00  0.00000000000E+00  0.00000000000E+00  0.91188000000E+02  0.91188000000E+02 0.  0.
    9900012    2    3    3    0    0 -0.29741799134E+01 -0.13593614943E+02  0.34090244943E+02  0.54367123942E+02  0.40000090651E+02 0.  0.
         12    1    3    3    0    0  0.29741799134E+01  0.13593614943E+02 -0.34090244943E+02  0.36820876058E+02  0.00000000000E+00 0. -1.
         11    1    4    4    0    0 -0.78805694136E+01 -0.80969656425E+01  0.37635082537E+01  0.11909165442E+02  0.51100000000E-03 0. -1.
        -11    1    4    4    0    0 -0.30397606095E+01 -0.15165940970E+02  0.23688010427E+02  0.28290771434E+02  0.51100000000E-03 0.  1.
        -12    1    4    4    0    0  0.79461501098E+01  0.96692916700E+01  0.66387262627E+01  0.14167187066E+02  0.00000000000E+00 0.  1.
</event>
<event>
 8    1  0.1269154E-006  0.9118800E+02  0.7816164E-02  0.1184000E+00
        -11   -1    0    0    0    0  0.00000000000E+00  0.00000000000E+00  0.45593999997E+02  0.45594000000E+02  0.51100000000E-03 0.  1.
         11   -1    0    0    0    0 -0.00000000000E+00 -0.00000000000E+00 -0.45593999997E+02  0.45594000000E+02  0.51100000000E-03 0. -1.
         23    2    1    2    0    0  0.35527136788E-14  0.00000000000E+00  0.13322676296E-14  0.91188000000E+02  0.91188000000E+02 0.  0.
    9900012    2    3    3    0    0  0.65492506496E+01  0.36211198204E+02 -0.12788942466E+01  0.54367093847E+02  0.40000022042E+02 0.  0.
        -12    1    3    3    0    0 -0.65492506496E+01 -0.36211198204E+02  0.12788942466E+01  0.36820906153E+02  0.00000000000E+00 0.  1.
         11    1    4    4    0    0  0.17597015786E+02  0.15627110058E+02  0.11287797826E+02  0.26101262678E+02  0.51100000000E-03 0. -1.
        -11    1    4    4    0    0 -0.70191185138E+01  0.38536471392E+01 -0.28248907937E+01  0.84910911691E+01  0.51100000000E-03 0.  1.
         12    1    4    4    0    0 -0.40286466226E+01  0.16730441007E+02 -0.97418012791E+01  0.19774740000E+02  0.00000000000E+00 0. -1.
</event>
<event>
 8    1  0.1269154E-006  0.9118800E+02  0.7816164E-02  0.1184000E+00
        -11   -1    0    0    0    0  0.00000000000E+00  0.00000000000E+00  0.45593999997E+02  0.45594000000E+02  0.51100000000E-03 0.  1.
         11   -1    0    0    0    0 -0.00000000000E+00 -0.00000000000E+00 -0.45593999997E+02  0.45594000000E+02  0.51100000000E-03 0. -1.
         23    2    1    2    0    0  0.71054273576E-14  0.71054273576E-14  0.22204460493E-15  0.91188000000E+02  0.91188000000E+02 0.  0.
    9900012    2    3    3    0    0  0.17402750635E+02  0.32425029243E+02 -0.12415631036E+01  0.54367085698E+02  0.40000003465E+02 0.  0.
         12    1    3    3    0    0 -0.17402750635E+02 -0.32425029243E+02  0.12415631036E+01  0.36820914302E+02  0.00000000000E+00 0. -1.
         11    1    4    4    0    0 -0.11452518951E+02  0.10342745858E+02 -0.28112266886E+01  0.15685521284E+02  0.51100000000E-03 0. -1.
        -11    1    4    4    0    0  0.12589556254E+02  0.16360660911E+02  0.46621777138E+01  0.21163743842E+02  0.51100000000E-03 0.  1.
         12    1    4    4    0    0  0.16265713332E+02  0.57216224748E+01 -0.30925141287E+01  0.17517820572E+02  0.00000000000E+00 0. -1.
</event>
<event>
 8    1  0.1269154E-006  0.9118800E+02  0.7816164E-02  0.1184000E+00
        -11   -1    0    0    0    0  0.00000000000E+00  0.00000000000E+00  0.45593999997E+02  0.45594000000E+02  0.51100000000E-03 0. -1.
         11   -1    0    0    0    0 -0.00000000000E+00 -0.00000000000E+00 -0.45593999997E+02  0.45594000000E+02  0.51100000000E-03 0.  1.
         23    2    1    2    0    0  0.00000000000E+00  0.00000000000E+00  0.71054273576E-14  0.91188000000E+02  0.91188000000E+02 0.  0.
    9900012    2    3    3    0    0 -0.13205063999E+02  0.22921356951E+02  0.25612855432E+02  0.54367072757E+02  0.39999973963E+02 0.  0.
        -12    1    3    3    0    0  0.13205063999E+02 -0.22921356951E+02 -0.25612855432E+02  0.36820927243E+02  0.00000000000E+00 0.  1.
         11    1    4    4    0    0 -0.95933483170E+01  0.66497862951E+01  0.14039554653E+02  0.18258178573E+02  0.51100000000E-03 0. -1.
        -11    1    4    4    0    0 -0.91749366069E+01 -0.52067587742E+01 -0.10172120781E+01  0.10598326252E+02  0.51100000000E-03 0.  1.
        -12    1    4    4    0    0  0.55632209253E+01  0.21478329430E+02  0.12590512858E+02  0.25510567931E+02  0.00000000000E+00 0.  1.
</event>
<event>
 8    1  0.1269154E-006  0.9118800E+02  0.7816164E-02  0.1184000E+00
        -11   -1    0    0    0    0  0.00000000000E+00  0.00000000000E+00  0.45593999997E+02  0.45594000000E+02  0.51100000000E-03 0. -1.
         11   -1    0    0    0    0 -0.00000000000E+00 -0.00000000000E+00 -0.45593999997E+02  0.45594000000E+02  0.51100000000E-03 0.  1.
         23    2    1    2    0    0  0.00000000000E+00  0.00000000000E+00  0.00000000000E+00  0.91188000000E+02  0.91188000000E+02 0.  0.
    9900012    2    3    3    0    0  0.97221636295E+00 -0.22098155407E+02 -0.29436459833E+02  0.54367097722E+02  0.40000030877E+02 0.  0.
         12    1    3    3    0    0 -0.97221636295E+00  0.22098155407E+02  0.29436459833E+02  0.36820902278E+02  0.00000000000E+00 0. -1.
         11    1    4    4    0    0  0.61974454571E+01 -0.17229735547E+02  0.15663434663E+01  0.18377310721E+02  0.51100000000E-03 0. -1.
        -11    1    4    4    0    0 -0.30332958414E+01 -0.80811520197E+01 -0.30917286486E+02  0.32099602888E+02  0.51100000000E-03 0.  1.
        -12    1    4    4    0    0 -0.21919332527E+01  0.32127321595E+01 -0.85516813531E-01  0.38901841137E+01  0.00000000000E+00 0.  1.
</event>
<event>
 8    1  0.1269154E-006  0.9118800E+02  0.7816164E-02  0.1184000E+00
        -11   -1    0    0    0    0  0.00000000000E+00  0.00000000000E+00  0.45593999997E+02  0.45594000000E+02  0.51100000000E-03 0.  1.
         11   -1    0    0    0    0 -0.00000000000E+00 -0.00000000000E+00 -0.45593999997E+02  0.45594000000E+02  0.51100000000E-03 0. -1.
         23    2    1    2    0    0  0.00000000000E+00 -0.17763568394E-14  0.00000000000E+00  0.91188000000E+02  0.91188000000E+02 0.  0.
    9900012    2    3    3    0    0  0.27924670525E+01 -0.15695717675E+02 -0.33190757218E+02  0.54367084880E+02  0.40000001602E+02 0.  0.
        -12    1    3    3    0    0 -0.27924670525E+01  0.15695717675E+02  0.33190757218E+02  0.36820915120E+02  0.00000000000E+00 0.  1.
         11    1    4    4    0    0 -0.14096411285E+02 -0.93741718679E+01 -0.45801108894E+01  0.17537426418E+02  0.51100000000E-03 0. -1.
        -11    1    4    4    0    0  0.54249581197E+01  0.33849174310E+01 -0.28310861449E+01  0.69930598193E+01  0.51100000000E-03 0.  1.
         12    1    4    4    0    0  0.11463920218E+02 -0.97064632385E+01 -0.25779560183E+02  0.29836598643E+02  0.00000000000E+00 0. -1.
</event>
<event>
 8    1  0.1269154E-006  0.9118800E+02  0.7816164E-02  0.1184000E+00
        -11   -1    0    0    0    0  0.00000000000E+00  0.00000000000E+00  0.45593999997E+02  0.45594000000E+02  0.51100000000E-03 0.  1.
         11   -1    0    0    0    0 -0.00000000000E+00 -0.00000000000E+00 -0.45593999997E+02  0.45594000000E+02  0.51100000000E-03 0. -1.
         23    2    1    2    0    0  0.00000000000E+00  0.71054273576E-14  0.00000000000E+00  0.91188000000E+02  0.91188000000E+02 0.  0.
    9900012    2    3    3    0    0 -0.80431196670E+01 -0.34567123238E+02  0.98083654053E+01  0.54367057388E+02  0.39999938926E+02 0.  0.
         12    1    3    3    0    0  0.80431196670E+01  0.34567123238E+02 -0.98083654053E+01  0.36820942612E+02  0.00000000000E+00 0. -1.
         11    1    4    4    0    0 -0.89537048836E+01  0.51848478364E+01 -0.48525876093E+01  0.11427995668E+02  0.51100000000E-03 0. -1.
        -11    1    4    4    0    0  0.32534651879E+01 -0.20705764904E+02  0.54699797482E+01  0.21661819284E+02  0.51100000000E-03 0.  1.
         12    1    4    4    0    0 -0.23428799713E+01 -0.19046206171E+02  0.91909732664E+01  0.21277242435E+02  0.00000000000E+00 0. -1.
</event>
<event>
 8    1  0.1269154E-006  0.9118800E+02  0.7816164E-02  0.1184000E+00
        -11   -1    0    0    0    0  0.00000000000E+00  0.00000000000E+00  0.45593999997E+02  0.45594000000E+02  0.51100000000E-03 0.  1.
         11   -1    0    0    0    0 -0.00000000000E+00 -0.00000000000E+00 -0.45593999997E+02  0.45594000000E+02  0.51100000000E-03 0. -1.
         23    2    1    2    0    0  0.17763568394E-14  0.35527136788E-14  0.00000000000E+00  0.91188000000E+02  0.91188000000E+02 0.  0.
    9900012    2    3    3    0    0  0.88254654293E+01 -0.20680510015E+02 -0.29158353162E+02  0.54367056318E+02  0.39999936488E+02 0.  0.
        -12    1    3    3    0    0 -0.88254654293E+01  0.20680510015E+02  0.29158353162E+02  0.36820943682E+02  0.00000000000E+00 0.  1.
         11    1    4    4    0    0  0.28242310123E+01 -0.75342345333E+01 -0.15881064779E+02  0.17803066859E+02  0.51100000000E-03 0. -1.
        -11    1    4    4    0    0 -0.11636811401E+02 -0.26002362975E+01  0.31025343710E+00  0.11927818989E+02  0.51100000000E-03 0.  1.
         12    1    4    4    0    0  0.17638045818E+02 -0.10546039184E+02 -0.13587541821E+02  0.24636170471E+02  0.00000000000E+00 0. -1.
</event>
<event>
 8    1  0.1269154E-006  0.9118800E+02  0.7816164E-02  0.1184000E+00
        -11   -1    0    0    0    0  0.00000000000E+00  0.00000000000E+00  0.45593999997E+02  0.45594000000E+02  0.51100000000E-03 0.  1.
         11   -1    0    0    0    0 -0.00000000000E+00 -0.00000000000E+00 -0.45593999997E+02  0.45594000000E+02  0.51100000000E-03 0. -1.
         23    2    1    2    0    0  0.35527136788E-14  0.00000000000E+00 -0.17763568394E-14  0.91188000000E+02  0.91188000000E+02 0.  0.
    9900012    2    3    3    0    0 -0.29820321350E+02 -0.20214566737E+02  0.76092243307E+01  0.54367074309E+02  0.39999977503E+02 0.  0.
         12    1    3    3    0    0  0.29820321350E+02  0.20214566737E+02 -0.76092243307E+01  0.36820925691E+02  0.00000000000E+00 0. -1.
         11    1    4    4    0    0 -0.28265584377E+01 -0.15725963935E+02 -0.12251234488E+02  0.20134252433E+02  0.51100000000E-03 0. -1.
        -11    1    4    4    0    0 -0.21235892603E+02 -0.53513467207E+01  0.14123232297E+02  0.26058889791E+02  0.51100000000E-03 0.  1.
         12    1    4    4    0    0 -0.57578703093E+01  0.86274391855E+00  0.57372265214E+01  0.81739320847E+01  0.00000000000E+00 0. -1.
</event>
<event>
 8    1  0.1269154E-006  0.9118800E+02  0.7816164E-02  0.1184000E+00
        -11   -1    0    0    0    0  0.00000000000E+00  0.00000000000E+00  0.45593999997E+02  0.45594000000E+02  0.51100000000E-03 0.  1.
         11   -1    0    0    0    0 -0.00000000000E+00 -0.00000000000E+00 -0.45593999997E+02  0.45594000000E+02  0.51100000000E-03 0. -1.
         23    2    1    2    0    0  0.26645352591E-14  0.00000000000E+00  0.35527136788E-14  0.91188000000E+02  0.91188000000E+02 0.  0.
    9900012    2    3    3    0    0 -0.71794821568E+01 -0.26836824375E+02 -0.24166471523E+02  0.54367103047E+02  0.40000043016E+02 0.  0.
        -12    1    3    3    0    0  0.71794821568E+01  0.26836824375E+02  0.24166471523E+02  0.36820896953E+02  0.00000000000E+00 0.  1.
         11    1    4    4    0    0  0.13127824481E+02 -0.68353331527E+01  0.15042053017E+00  0.14801492543E+02  0.51100000000E-03 0. -1.
        -11    1    4    4    0    0 -0.14360594296E+02 -0.65841244101E+01 -0.83146924853E+01  0.17852492099E+02  0.51100000000E-03 0.  1.
         12    1    4    4    0    0 -0.59467123417E+01 -0.13417366812E+02 -0.16002199568E+02  0.21713118404E+02  0.00000000000E+00 0. -1.
</event>
<event>
 8    1  0.1269154E-006  0.9118800E+02  0.7816164E-02  0.1184000E+00
        -11   -1    0    0    0    0  0.00000000000E+00  0.00000000000E+00  0.45593999997E+02  0.45594000000E+02  0.51100000000E-03 0.  1.
         11   -1    0    0    0    0 -0.00000000000E+00 -0.00000000000E+00 -0.45593999997E+02  0.45594000000E+02  0.51100000000E-03 0. -1.
         23    2    1    2    0    0  0.00000000000E+00  0.00000000000E+00  0.35527136788E-14  0.91188000000E+02  0.91188000000E+02 0.  0.
    9900012    2    3    3    0    0  0.20779083494E+02 -0.22665112670E+02  0.20255882988E+02  0.54367103232E+02  0.40000043437E+02 0.  0.
         12    1    3    3    0    0 -0.20779083494E+02  0.22665112670E+02 -0.20255882988E+02  0.36820896768E+02  0.00000000000E+00 0. -1.
         11    1    4    4    0    0  0.15582629368E+02 -0.25088264859E+02  0.12019189907E+02  0.31885738159E+02  0.51100000000E-03 0.  1.
        -11    1    4    4    0    0  0.37252663505E+01  0.11890694505E+01 -0.65186493124E+01  0.76015975070E+01  0.51100000000E-03 0. -1.
        -12    1    4    4    0    0  0.14711877751E+01  0.12340827380E+01  0.14755342393E+02  0.14879767566E+02  0.00000000000E+00 0.  1.
</event>
<event>
 8    1  0.1269154E-006  0.9118800E+02  0.7816164E-02  0.1184000E+00
        -11   -1    0    0    0    0  0.00000000000E+00  0.00000000000E+00  0.45593999997E+02  0.45594000000E+02  0.51100000000E-03 0.  1.
         11   -1    0    0    0    0 -0.00000000000E+00 -0.00000000000E+00 -0.45593999997E+02  0.45594000000E+02  0.51100000000E-03 0. -1.
         23    2    1    2    0    0  0.00000000000E+00 -0.35527136788E-14  0.88817841970E-15  0.91188000000E+02  0.91188000000E+02 0.  0.
    9900012    2    3    3    0    0 -0.27729616572E+02  0.24134014074E+02 -0.20972885327E+01  0.54367069950E+02  0.39999967565E+02 0.  0.
        -12    1    3    3    0    0  0.27729616572E+02 -0.24134014074E+02  0.20972885327E+01  0.36820930050E+02  0.00000000000E+00 0.  1.
         11    1    4    4    0    0 -0.76919347117E+00  0.37825560086E+01 -0.72355920739E+01  0.82008037091E+01  0.51100000000E-03 0. -1.
        -11    1    4    4    0    0 -0.16952628839E+02  0.47388476103E+01  0.16739952212E+02  0.24291445028E+02  0.51100000000E-03 0.  1.
        -12    1    4    4    0    0 -0.10007794263E+02  0.15612610455E+02 -0.11601648671E+02  0.21874821213E+02  0.00000000000E+00 0.  1.
</event>
<event>
 8    1  0.1269154E-006  0.9118800E+02  0.7816164E-02  0.1184000E+00
        -11   -1    0    0    0    0  0.00000000000E+00  0.00000000000E+00  0.45593999997E+02  0.45594000000E+02  0.51100000000E-03 0.  1.
         11   -1    0    0    0    0 -0.00000000000E+00 -0.00000000000E+00 -0.45593999997E+02  0.45594000000E+02  0.51100000000E-03 0. -1.
         23    2    1    2    0    0  0.00000000000E+00  0.35527136788E-14  0.00000000000E+00  0.91188000000E+02  0.91188000000E+02 0.  0.
    9900012    2    3    3    0    0 -0.13218572944E+02 -0.18134724146E+02 -0.29192131105E+02  0.54367090058E+02  0.40000013404E+02 0.  0.
        -12    1    3    3    0    0  0.13218572944E+02  0.18134724146E+02  0.29192131105E+02  0.36820909942E+02  0.00000000000E+00 0.  1.
         11    1    4    4    0    0 -0.14846944056E+02 -0.24162534504E+02 -0.20928730859E+02  0.35245873476E+02  0.51100000000E-03 0. -1.
        -11    1    4    4    0    0 -0.70587472706E+01  0.37732096990E+01 -0.55684219010E+01  0.97504024118E+01  0.51100000000E-03 0.  1.
         12    1    4    4    0    0  0.86871183825E+01  0.22546006592E+01 -0.26949783450E+01  0.93708141697E+01  0.00000000000E+00 0. -1.
</event>
<event>
 8    1  0.1269154E-006  0.9118800E+02  0.7816164E-02  0.1184000E+00
        -11   -1    0    0    0    0  0.00000000000E+00  0.00000000000E+00  0.45593999997E+02  0.45594000000E+02  0.51100000000E-03 0. -1.
         11   -1    0    0    0    0 -0.00000000000E+00 -0.00000000000E+00 -0.45593999997E+02  0.45594000000E+02  0.51100000000E-03 0.  1.
         23    2    1    2    0    0  0.00000000000E+00 -0.22204460493E-15 -0.71054273576E-14  0.91188000000E+02  0.91188000000E+02 0.  0.
    9900012    2    3    3    0    0  0.83202447466E+01 -0.14377596910E+01  0.35839715173E+02  0.54367098201E+02  0.40000031969E+02 0.  0.
        -12    1    3    3    0    0 -0.83202447466E+01  0.14377596910E+01 -0.35839715173E+02  0.36820901799E+02  0.00000000000E+00 0.  1.
         11    1    4    4    0    0  0.15736607910E+02 -0.59071024547E+01  0.30722708492E+02  0.35020272775E+02  0.51100000000E-03 0. -1.
        -11    1    4    4    0    0 -0.55351121866E+01  0.99685465682E+00 -0.55930578319E+01  0.79318019578E+01  0.51100000000E-03 0.  1.
        -12    1    4    4    0    0 -0.18812509771E+01  0.34724881069E+01  0.10710064514E+02  0.11415023468E+02  0.00000000000E+00 0.  1.
</event>
<event>
 8    1  0.1269154E-006  0.9118800E+02  0.7816164E-02  0.1184000E+00
        -11   -1    0    0    0    0  0.00000000000E+00  0.00000000000E+00  0.45593999997E+02  0.45594000000E+02  0.51100000000E-03 0.  1.
         11   -1    0    0    0    0 -0.00000000000E+00 -0.00000000000E+00 -0.45593999997E+02  0.45594000000E+02  0.51100000000E-03 0. -1.
         23    2    1    2    0    0  0.00000000000E+00  0.35527136788E-14 -0.88817841970E-15  0.91188000000E+02  0.91188000000E+02 0.  0.
    9900012    2    3    3    0    0  0.24897336151E+02  0.26399336199E+02 -0.62435298077E+01  0.54367028210E+02  0.39999872409E+02 0.  0.
        -12    1    3    3    0    0 -0.24897336151E+02 -0.26399336199E+02  0.62435298077E+01  0.36820971790E+02  0.00000000000E+00 0.  1.
         11    1    4    4    0    0  0.26793894924E+02  0.31267709284E+01 -0.22524225383E+01  0.27069593813E+02  0.51100000000E-03 0. -1.
        -11    1    4    4    0    0  0.36822086344E+00  0.14668067889E+02 -0.88746197145E+01  0.17147789290E+02  0.51100000000E-03 0.  1.
         12    1    4    4    0    0 -0.22647796368E+01  0.86044973810E+01  0.48835124451E+01  0.10149645106E+02  0.00000000000E+00 0. -1.
</event>
<event>
 8    1  0.1269154E-006  0.9118800E+02  0.7816164E-02  0.1184000E+00
        -11   -1    0    0    0    0  0.00000000000E+00  0.00000000000E+00  0.45593999997E+02  0.45594000000E+02  0.51100000000E-03 0. -1.
         11   -1    0    0    0    0 -0.00000000000E+00 -0.00000000000E+00 -0.45593999997E+02  0.45594000000E+02  0.51100000000E-03 0.  1.
         23    2    1    2    0    0 -0.44408920985E-15  0.88817841970E-15  0.00000000000E+00  0.91188000000E+02  0.91188000000E+02 0.  0.
    9900012    2    3    3    0    0  0.63173167827E+00 -0.42564051804E+01 -0.36568606905E+02  0.54367094512E+02  0.40000023559E+02 0.  0.
         12    1    3    3    0    0 -0.63173167827E+00  0.42564051804E+01  0.36568606905E+02  0.36820905488E+02  0.00000000000E+00 0. -1.
         11    1    4    4    0    0  0.94691161171E+01  0.11287544777E+02 -0.84415688036E+01  0.16980368408E+02  0.51100000000E-03 0.  1.
        -11    1    4    4    0    0 -0.80565846705E+01 -0.18018777272E+02 -0.17278939650E+02  0.26232549373E+02  0.51100000000E-03 0. -1.
        -12    1    4    4    0    0 -0.78079976836E+00  0.24748273148E+01 -0.10848098452E+02  0.11154176731E+02  0.00000000000E+00 0.  1.
</event>
<event>
 8    1  0.1269154E-006  0.9118800E+02  0.7816164E-02  0.1184000E+00
        -11   -1    0    0    0    0  0.00000000000E+00  0.00000000000E+00  0.45593999997E+02  0.45594000000E+02  0.51100000000E-03 0. -1.
         11   -1    0    0    0    0 -0.00000000000E+00 -0.00000000000E+00 -0.45593999997E+02  0.45594000000E+02  0.51100000000E-03 0.  1.
         23    2    1    2    0    0  0.00000000000E+00 -0.71054273576E-14  0.00000000000E+00  0.91188000000E+02  0.91188000000E+02 0.  0.
    9900012    2    3    3    0    0 -0.14673329873E+02 -0.32307735646E+02  0.98327667414E+01  0.54367086188E+02  0.40000004583E+02 0.  0.
        -12    1    3    3    0    0  0.14673329873E+02  0.32307735646E+02 -0.98327667414E+01  0.36820913812E+02  0.00000000000E+00 0.  1.
         11    1    4    4    0    0 -0.26859086458E+01  0.17771884519E+01  0.22808579877E+01  0.39464943264E+01  0.51100000000E-03 0. -1.
        -11    1    4    4    0    0 -0.10907581681E+02 -0.95627621992E+01  0.18529126448E+02  0.23531899332E+02  0.51100000000E-03 0.  1.
         12    1    4    4    0    0 -0.10798395462E+01 -0.24522161899E+02 -0.10977217694E+02  0.26888692530E+02  0.00000000000E+00 0. -1.
</event>
<event>
 8    1  0.1269154E-006  0.9118800E+02  0.7816164E-02  0.1184000E+00
        -11   -1    0    0    0    0  0.00000000000E+00  0.00000000000E+00  0.45593999997E+02  0.45594000000E+02  0.51100000000E-03 0. -1.
         11   -1    0    0    0    0 -0.00000000000E+00 -0.00000000000E+00 -0.45593999997E+02  0.45594000000E+02  0.51100000000E-03 0.  1.
         23    2    1    2    0    0  0.00000000000E+00 -0.35527136788E-14  0.00000000000E+00  0.91188000000E+02  0.91188000000E+02 0.  0.
    9900012    2    3    3    0    0 -0.12974840270E+02 -0.31332691427E+02  0.14342082675E+02  0.54367090620E+02  0.40000014687E+02 0.  0.
        -12    1    3    3    0    0  0.12974840270E+02  0.31332691427E+02 -0.14342082675E+02  0.36820909380E+02  0.00000000000E+00 0.  1.
         11    1    4    4    0    0  0.65158782969E+01 -0.16215145621E+02  0.15919341589E+02  0.23639227025E+02  0.51100000000E-03 0. -1.
        -11    1    4    4    0    0 -0.97626419861E+01  0.28047200614E+01 -0.18968179101E+01  0.10333128840E+02  0.51100000000E-03 0.  1.
         12    1    4    4    0    0 -0.97280765804E+01 -0.17922265868E+02  0.31955899694E+00  0.20394734755E+02  0.00000000000E+00 0. -1.
</event>
<event>
 8    1  0.1269154E-006  0.9118800E+02  0.7816164E-02  0.1184000E+00
        -11   -1    0    0    0    0  0.00000000000E+00  0.00000000000E+00  0.45593999997E+02  0.45594000000E+02  0.51100000000E-03 0.  1.
         11   -1    0    0    0    0 -0.00000000000E+00 -0.00000000000E+00 -0.45593999997E+02  0.45594000000E+02  0.51100000000E-03 0. -1.
         23    2    1    2    0    0  0.00000000000E+00  0.00000000000E+00 -0.35527136788E-14  0.91188000000E+02  0.91188000000E+02 0.  0.
    9900012    2    3    3    0    0 -0.63453740849E+01 -0.24634096989E+02 -0.26620986840E+02  0.54367089540E+02  0.40000012225E+02 0.  0.
        -12    1    3    3    0    0  0.63453740849E+01  0.24634096989E+02  0.26620986840E+02  0.36820910460E+02  0.00000000000E+00 0.  1.
         11    1    4    4    0    0 -0.11551203583E+02 -0.10797691676E+02  0.64178938936E+01  0.17064870701E+02  0.51100000000E-03 0. -1.
        -11    1    4    4    0    0  0.35132579313E+00 -0.10182644242E+01  0.41107217425E+00  0.11529409543E+01  0.51100000000E-03 0.  1.
         12    1    4    4    0    0  0.48545037052E+01 -0.12818140889E+02 -0.33449952908E+02  0.36149277885E+02  0.00000000000E+00 0. -1.
</event>
<event>
 8    1  0.1269154E-006  0.9118800E+02  0.7816164E-02  0.1184000E+00
        -11   -1    0    0    0    0  0.00000000000E+00  0.00000000000E+00  0.45593999997E+02  0.45594000000E+02  0.51100000000E-03 0. -1.
         11   -1    0    0    0    0 -0.00000000000E+00 -0.00000000000E+00 -0.45593999997E+02  0.45594000000E+02  0.51100000000E-03 0.  1.
         23    2    1    2    0    0 -0.35527136788E-14  0.00000000000E+00  0.11102230246E-15  0.91188000000E+02  0.91188000000E+02 0.  0.
    9900012    2    3    3    0    0  0.31848617454E+02 -0.18461096200E+02  0.79567556262E+00  0.54367087379E+02  0.40000007299E+02 0.  0.
         12    1    3    3    0    0 -0.31848617454E+02  0.18461096200E+02 -0.79567556262E+00  0.36820912621E+02  0.00000000000E+00 0. -1.
         11    1    4    4    0    0 -0.46181494912E+01  0.17999533506E+01  0.10914241296E+01  0.50752678431E+01  0.51100000000E-03 0.  1.
        -11    1    4    4    0    0  0.29356021491E+02 -0.24960578363E+01  0.38505558783E+01  0.29712507187E+02  0.51100000000E-03 0. -1.
        -12    1    4    4    0    0  0.71107454535E+01 -0.17764991714E+02 -0.41463044452E+01  0.19579312349E+02  0.00000000000E+00 0.  1.
</event>
<event>
 8    1  0.1269154E-006  0.9118800E+02  0.7816164E-02  0.1184000E+00
        -11   -1    0    0    0    0  0.00000000000E+00  0.00000000000E+00  0.45593999997E+02  0.45594000000E+02  0.51100000000E-03 0. -1.
         11   -1    0    0    0    0 -0.00000000000E+00 -0.00000000000E+00 -0.45593999997E+02  0.45594000000E+02  0.51100000000E-03 0.  1.
         23    2    1    2    0    0  0.35527136788E-14  0.00000000000E+00  0.00000000000E+00  0.91188000000E+02  0.91188000000E+02 0.  0.
    9900012    2    3    3    0    0 -0.23520472676E+02 -0.16467649324E+02 -0.23051766456E+02  0.54367081409E+02  0.39999993687E+02 0.  0.
         12    1    3    3    0    0  0.23520472676E+02  0.16467649324E+02  0.23051766456E+02  0.36820918591E+02  0.00000000000E+00 0. -1.
         11    1    4    4    0    0 -0.19663011185E+02  0.34475791191E+01 -0.81289703723E+01  0.21554581189E+02  0.51100000000E-03 0.  1.
        -11    1    4    4    0    0  0.80358796502E+01 -0.74605418897E+01 -0.16906266188E+01  0.11094740451E+02  0.51100000000E-03 0. -1.
        -12    1    4    4    0    0 -0.11893341141E+02 -0.12454686553E+02 -0.13232169465E+02  0.21717759769E+02  0.00000000000E+00 0.  1.
</event>
<event>
 8    1  0.1269154E-006  0.9118800E+02  0.7816164E-02  0.1184000E+00
        -11   -1    0    0    0    0  0.00000000000E+00  0.00000000000E+00  0.45593999997E+02  0.45594000000E+02  0.51100000000E-03 0. -1.
         11   -1    0    0    0    0 -0.00000000000E+00 -0.00000000000E+00 -0.45593999997E+02  0.45594000000E+02  0.51100000000E-03 0.  1.
         23    2    1    2    0    0 -0.17763568394E-14 -0.17763568394E-14  0.71054273576E-14  0.91188000000E+02  0.91188000000E+02 0.  0.
    9900012    2    3    3    0    0  0.89304499657E+01 -0.88312576727E+01  0.34612657159E+02  0.54367080887E+02  0.39999992499E+02 0.  0.
        -12    1    3    3    0    0 -0.89304499657E+01  0.88312576727E+01 -0.34612657159E+02  0.36820919113E+02  0.00000000000E+00 0.  1.
         11    1    4    4    0    0  0.66944562721E+01 -0.13929438308E+02  0.17728211854E+02  0.23518811453E+02  0.51100000000E-03 0. -1.
        -11    1    4    4    0    0 -0.61482420786E+01  0.90924192263E+01  0.18413043667E+02  0.21436257728E+02  0.51100000000E-03 0.  1.
         12    1    4    4    0    0  0.83842357722E+01 -0.39942385913E+01 -0.15285983620E+01  0.94120117063E+01  0.00000000000E+00 0. -1.
</event>
<event>
 8    1  0.1269154E-006  0.9118800E+02  0.7816164E-02  0.1184000E+00
        -11   -1    0    0    0    0  0.00000000000E+00  0.00000000000E+00  0.45593999997E+02  0.45594000000E+02  0.51100000000E-03 0. -1.
         11   -1    0    0    0    0 -0.00000000000E+00 -0.00000000000E+00 -0.45593999997E+02  0.45594000000E+02  0.51100000000E-03 0.  1.
         23    2    1    2    0    0 -0.35527136788E-14  0.17763568394E-14 -0.71054273576E-14  0.91188000000E+02  0.91188000000E+02 0.  0.
    9900012    2    3    3    0    0 -0.13700234435E+02  0.60833451737E+01 -0.33631449794E+02  0.54367110177E+02  0.40000059271E+02 0.  0.
         12    1    3    3    0    0  0.13700234435E+02 -0.60833451737E+01  0.33631449794E+02  0.36820889823E+02  0.00000000000E+00 0. -1.
         11    1    4    4    0    0  0.73884574352E+01 -0.70138685267E+01 -0.11049495684E+02  0.15029138702E+02  0.51100000000E-03 0. -1.
        -11    1    4    4    0    0 -0.16255893530E+02  0.65649932752E+01 -0.25439214740E+01  0.17715099432E+02  0.51100000000E-03 0.  1.
         12    1    4    4    0    0 -0.48327983400E+01  0.65322204252E+01 -0.20038032636E+02  0.21622872044E+02  0.00000000000E+00 0. -1.
</event>
<event>
 8    1  0.1269154E-006  0.9118800E+02  0.7816164E-02  0.1184000E+00
        -11   -1    0    0    0    0  0.00000000000E+00  0.00000000000E+00  0.45593999997E+02  0.45594000000E+02  0.51100000000E-03 0.  1.
         11   -1    0    0    0    0 -0.00000000000E+00 -0.00000000000E+00 -0.45593999997E+02  0.45594000000E+02  0.51100000000E-03 0. -1.
         23    2    1    2    0    0  0.00000000000E+00 -0.17763568394E-14  0.35527136788E-14  0.91188000000E+02  0.91188000000E+02 0.  0.
    9900012    2    3    3    0    0 -0.28918544646E+02 -0.76573784819E+01  0.21467700382E+02  0.54367084349E+02  0.40000000390E+02 0.  0.
         12    1    3    3    0    0  0.28918544646E+02  0.76573784819E+01 -0.21467700382E+02  0.36820915651E+02  0.00000000000E+00 0. -1.
         11    1    4    4    0    0 -0.11507617823E+02  0.50312312512E+01  0.19343855315E+02  0.23063462328E+02  0.51100000000E-03 0. -1.
        -11    1    4    4    0    0 -0.17638475012E+02  0.87459463187E+00  0.15111249404E+01  0.17724678145E+02  0.51100000000E-03 0.  1.
         12    1    4    4    0    0  0.22754818843E+00 -0.13563204365E+02  0.61272012754E+00  0.13578943876E+02  0.00000000000E+00 0. -1.
</event>
<event>
 8    1  0.1269154E-006  0.9118800E+02  0.7816164E-02  0.1184000E+00
        -11   -1    0    0    0    0  0.00000000000E+00  0.00000000000E+00  0.45593999997E+02  0.45594000000E+02  0.51100000000E-03 0.  1.
         11   -1    0    0    0    0 -0.00000000000E+00 -0.00000000000E+00 -0.45593999997E+02  0.45594000000E+02  0.51100000000E-03 0. -1.
         23    2    1    2    0    0  0.00000000000E+00 -0.17763568394E-14  0.00000000000E+00  0.91188000000E+02  0.91188000000E+02 0.  0.
    9900012    2    3    3    0    0 -0.17185724117E+02  0.80660148532E+01 -0.31549506085E+02  0.54367067866E+02  0.39999962814E+02 0.  0.
        -12    1    3    3    0    0  0.17185724117E+02 -0.80660148532E+01  0.31549506085E+02  0.36820932134E+02  0.00000000000E+00 0.  1.
         11    1    4    4    0    0 -0.20904506477E+02 -0.59492408530E+01 -0.13062620281E+02  0.25357916055E+02  0.51100000000E-03 0. -1.
        -11    1    4    4    0    0 -0.15492059801E+01  0.14066083236E+02 -0.19027916243E+02  0.23713210107E+02  0.51100000000E-03 0.  1.
         12    1    4    4    0    0  0.52679883402E+01 -0.50827530231E-01  0.54103043938E+00  0.52959417034E+01  0.00000000000E+00 0. -1.
</event>
<event>
 8    1  0.1269154E-006  0.9118800E+02  0.7816164E-02  0.1184000E+00
        -11   -1    0    0    0    0  0.00000000000E+00  0.00000000000E+00  0.45593999997E+02  0.45594000000E+02  0.51100000000E-03 0.  1.
         11   -1    0    0    0    0 -0.00000000000E+00 -0.00000000000E+00 -0.45593999997E+02  0.45594000000E+02  0.51100000000E-03 0. -1.
         23    2    1    2    0    0 -0.35527136788E-14  0.44408920985E-15  0.00000000000E+00  0.91188000000E+02  0.91188000000E+02 0.  0.
    9900012    2    3    3    0    0 -0.31482553125E+02  0.25092575932E+01  0.18929663656E+02  0.54367086228E+02  0.40000004673E+02 0.  0.
         12    1    3    3    0    0  0.31482553125E+02 -0.25092575932E+01 -0.18929663656E+02  0.36820913772E+02  0.00000000000E+00 0. -1.
         11    1    4    4    0    0 -0.26442221491E+02 -0.13051108791E+02  0.91664578550E+01  0.30879547729E+02  0.51100000000E-03 0. -1.
        -11    1    4    4    0    0 -0.96796691504E+01  0.11085305712E+02  0.82308753166E+01  0.16862007779E+02  0.51100000000E-03 0.  1.
         12    1    4    4    0    0  0.46393375164E+01  0.44750606724E+01  0.15323304839E+01  0.66255307202E+01  0.00000000000E+00 0. -1.
</event>
<event>
 8    1  0.1269154E-006  0.9118800E+02  0.7816164E-02  0.1184000E+00
        -11   -1    0    0    0    0  0.00000000000E+00  0.00000000000E+00  0.45593999997E+02  0.45594000000E+02  0.51100000000E-03 0.  1.
         11   -1    0    0    0    0 -0.00000000000E+00 -0.00000000000E+00 -0.45593999997E+02  0.45594000000E+02  0.51100000000E-03 0. -1.
         23    2    1    2    0    0  0.00000000000E+00 -0.35527136788E-14 -0.71054273576E-14  0.91188000000E+02  0.91188000000E+02 0.  0.
    9900012    2    3    3    0    0 -0.62873033049E+01 -0.25909687154E+02  0.25395627758E+02  0.54367082297E+02  0.39999995712E+02 0.  0.
         12    1    3    3    0    0  0.62873033049E+01  0.25909687154E+02 -0.25395627758E+02  0.36820917703E+02  0.00000000000E+00 0. -1.
         11    1    4    4    0    0 -0.52202443413E+01 -0.17955839408E+01 -0.81719195251E+01  0.98618122907E+01  0.51100000000E-03 0. -1.
        -11    1    4    4    0    0  0.63770828503E+01 -0.13542231901E+02  0.11295994330E+02  0.18752565657E+02  0.51100000000E-03 0.  1.
         12    1    4    4    0    0 -0.74441418139E+01 -0.10571871313E+02  0.22271552953E+02  0.25752704350E+02  0.00000000000E+00 0. -1.
</event>
<event>
 8    1  0.1269154E-006  0.9118800E+02  0.7816164E-02  0.1184000E+00
        -11   -1    0    0    0    0  0.00000000000E+00  0.00000000000E+00  0.45593999997E+02  0.45594000000E+02  0.51100000000E-03 0.  1.
         11   -1    0    0    0    0 -0.00000000000E+00 -0.00000000000E+00 -0.45593999997E+02  0.45594000000E+02  0.51100000000E-03 0. -1.
         23    2    1    2    0    0  0.00000000000E+00  0.17763568394E-14  0.00000000000E+00  0.91188000000E+02  0.91188000000E+02 0.  0.
    9900012    2    3    3    0    0  0.96292980868E+01  0.11016882139E+02 -0.33788823530E+02  0.54367086523E+02  0.40000005347E+02 0.  0.
        -12    1    3    3    0    0 -0.96292980868E+01 -0.11016882139E+02  0.33788823530E+02  0.36820913477E+02  0.00000000000E+00 0.  1.
         11    1    4    4    0    0  0.12522795035E+02  0.18691426362E+02 -0.21635965765E+02  0.31213856375E+02  0.51100000000E-03 0.  1.
        -11    1    4    4    0    0  0.61918947598E+01  0.15894419195E+01 -0.60972063129E+01  0.88341276544E+01  0.51100000000E-03 0. -1.
        -12    1    4    4    0    0 -0.90853917077E+01 -0.92639861428E+01 -0.60556514522E+01  0.14319102494E+02  0.00000000000E+00 0.  1.
</event>
<event>
 8    1  0.1269154E-006  0.9118800E+02  0.7816164E-02  0.1184000E+00
        -11   -1    0    0    0    0  0.00000000000E+00  0.00000000000E+00  0.45593999997E+02  0.45594000000E+02  0.51100000000E-03 0.  1.
         11   -1    0    0    0    0 -0.00000000000E+00 -0.00000000000E+00 -0.45593999997E+02  0.45594000000E+02  0.51100000000E-03 0. -1.
         23    2    1    2    0    0  0.00000000000E+00  0.17763568394E-14 -0.26645352591E-14  0.91188000000E+02  0.91188000000E+02 0.  0.
    9900012    2    3    3    0    0  0.32966346181E+02 -0.14435727387E+02  0.77853219093E+01  0.54367062437E+02  0.39999950439E+02 0.  0.
        -12    1    3    3    0    0 -0.32966346181E+02  0.14435727387E+02 -0.77853219093E+01  0.36820937563E+02  0.00000000000E+00 0.  1.
         11    1    4    4    0    0  0.23003012095E+02 -0.28230413887E+01  0.17747142860E+02  0.29190224530E+02  0.51100000000E-03 0. -1.
        -11    1    4    4    0    0 -0.49743564505E+01 -0.20175634480E+01 -0.23705391095E+01  0.58680695543E+01  0.51100000000E-03 0.  1.
         12    1    4    4    0    0  0.14937690537E+02 -0.95951225505E+01 -0.75912818414E+01  0.19308768353E+02  0.00000000000E+00 0. -1.
</event>
<event>
 8    1  0.1269154E-006  0.9118800E+02  0.7816164E-02  0.1184000E+00
        -11   -1    0    0    0    0  0.00000000000E+00  0.00000000000E+00  0.45593999997E+02  0.45594000000E+02  0.51100000000E-03 0.  1.
         11   -1    0    0    0    0 -0.00000000000E+00 -0.00000000000E+00 -0.45593999997E+02  0.45594000000E+02  0.51100000000E-03 0. -1.
         23    2    1    2    0    0  0.71054273576E-14  0.44408920985E-15  0.00000000000E+00  0.91188000000E+02  0.91188000000E+02 0.  0.
    9900012    2    3    3    0    0  0.34508134013E+02 -0.37751049943E+01 -0.12276735716E+02  0.54367068851E+02  0.39999965061E+02 0.  0.
         12    1    3    3    0    0 -0.34508134013E+02  0.37751049943E+01  0.12276735716E+02  0.36820931149E+02  0.00000000000E+00 0. -1.
         11    1    4    4    0    0  0.56413550024E+01  0.52104494265E+01 -0.97440627574E+01  0.12406467216E+02  0.51100000000E-03 0. -1.
        -11    1    4    4    0    0  0.74286022686E+01 -0.10142324296E+02 -0.12992171658E+02  0.18078921385E+02  0.51100000000E-03 0.  1.
        -12    1    4    4    0    0  0.21438176742E+02  0.11567698751E+01  0.10459498699E+02  0.23881680251E+02  0.00000000000E+00 0.  1.
</event>
<event>
 8    1  0.1269154E-006  0.9118800E+02  0.7816164E-02  0.1184000E+00
        -11   -1    0    0    0    0  0.00000000000E+00  0.00000000000E+00  0.45593999997E+02  0.45594000000E+02  0.51100000000E-03 0.  1.
         11   -1    0    0    0    0 -0.00000000000E+00 -0.00000000000E+00 -0.45593999997E+02  0.45594000000E+02  0.51100000000E-03 0. -1.
         23    2    1    2    0    0  0.00000000000E+00  0.00000000000E+00  0.88817841970E-15  0.91188000000E+02  0.91188000000E+02 0.  0.
    9900012    2    3    3    0    0  0.33707005446E+02  0.13158554087E+02 -0.68170427369E+01  0.54367057135E+02  0.39999938350E+02 0.  0.
        -12    1    3    3    0    0 -0.33707005446E+02 -0.13158554087E+02  0.68170427369E+01  0.36820942865E+02  0.00000000000E+00 0.  1.
         11    1    4    4    0    0  0.72242224927E+01  0.12454103746E+02  0.20280101349E+01  0.14539838930E+02  0.51100000000E-03 0. -1.
        -11    1    4    4    0    0  0.18001062302E+02 -0.52912681891E+01 -0.17985889362E+02  0.25990921097E+02  0.51100000000E-03 0.  1.
        -12    1    4    4    0    0  0.84817206521E+01  0.59957185294E+01  0.91408364906E+01  0.13836297108E+02  0.00000000000E+00 0.  1.
</event>
<event>
 8    1  0.1269154E-006  0.9118800E+02  0.7816164E-02  0.1184000E+00
        -11   -1    0    0    0    0  0.00000000000E+00  0.00000000000E+00  0.45593999997E+02  0.45594000000E+02  0.51100000000E-03 0. -1.
         11   -1    0    0    0    0 -0.00000000000E+00 -0.00000000000E+00 -0.45593999997E+02  0.45594000000E+02  0.51100000000E-03 0.  1.
         23    2    1    2    0    0  0.00000000000E+00 -0.17763568394E-14  0.00000000000E+00  0.91188000000E+02  0.91188000000E+02 0.  0.
    9900012    2    3    3    0    0  0.14074294370E+02 -0.24039488274E+01 -0.33939880045E+02  0.54367079459E+02  0.39999989244E+02 0.  0.
         12    1    3    3    0    0 -0.14074294370E+02  0.24039488274E+01  0.33939880045E+02  0.36820920541E+02  0.00000000000E+00 0. -1.
         11    1    4    4    0    0 -0.23080978609E+01 -0.35175934150E+01 -0.12338398743E+02  0.13035983391E+02  0.51100000000E-03 0. -1.
        -11    1    4    4    0    0  0.61881748452E+01 -0.11615978395E+02 -0.21277875053E+02  0.25019441021E+02  0.51100000000E-03 0.  1.
        -12    1    4    4    0    0  0.10194217385E+02  0.12729622983E+02 -0.32360624949E+00  0.16311655047E+02  0.00000000000E+00 0.  1.
</event>
<event>
 8    1  0.1269154E-006  0.9118800E+02  0.7816164E-02  0.1184000E+00
        -11   -1    0    0    0    0  0.00000000000E+00  0.00000000000E+00  0.45593999997E+02  0.45594000000E+02  0.51100000000E-03 0. -1.
         11   -1    0    0    0    0 -0.00000000000E+00 -0.00000000000E+00 -0.45593999997E+02  0.45594000000E+02  0.51100000000E-03 0.  1.
         23    2    1    2    0    0  0.17763568394E-14 -0.71054273576E-14  0.17763568394E-14  0.91188000000E+02  0.91188000000E+02 0.  0.
    9900012    2    3    3    0    0 -0.82100092558E+01  0.33399504237E+02 -0.13147236241E+02  0.54367069050E+02  0.39999965512E+02 0.  0.
         12    1    3    3    0    0  0.82100092558E+01 -0.33399504237E+02  0.13147236241E+02  0.36820930950E+02  0.00000000000E+00 0. -1.
         11    1    4    4    0    0  0.71233809258E+01  0.44648758386E+01 -0.68873283217E+01  0.10867978825E+02  0.51100000000E-03 0. -1.
        -11    1    4    4    0    0 -0.10268079325E+02  0.34208252560E+02 -0.56671423753E+01  0.36162888424E+02  0.51100000000E-03 0.  1.
         12    1    4    4    0    0 -0.50653108561E+01 -0.52736241611E+01 -0.59276554418E+00  0.73362018001E+01  0.00000000000E+00 0. -1.
</event>
<event>
 8    1  0.1269154E-006  0.9118800E+02  0.7816164E-02  0.1184000E+00
        -11   -1    0    0    0    0  0.00000000000E+00  0.00000000000E+00  0.45593999997E+02  0.45594000000E+02  0.51100000000E-03 0.  1.
         11   -1    0    0    0    0 -0.00000000000E+00 -0.00000000000E+00 -0.45593999997E+02  0.45594000000E+02  0.51100000000E-03 0. -1.
         23    2    1    2    0    0  0.00000000000E+00  0.17763568394E-14 -0.17763568394E-14  0.91188000000E+02  0.91188000000E+02 0.  0.
    9900012    2    3    3    0    0  0.34453592567E+02  0.76585821616E+01  0.10491738151E+02  0.54367075366E+02  0.39999979911E+02 0.  0.
         12    1    3    3    0    0 -0.34453592567E+02 -0.76585821616E+01 -0.10491738151E+02  0.36820924634E+02  0.00000000000E+00 0. -1.
         11    1    4    4    0    0  0.46106759906E+01  0.14435364184E+02  0.81301561922E+01  0.17197020445E+02  0.51100000000E-03 0. -1.
        -11    1    4    4    0    0  0.32623989174E+02 -0.35269714033E+01  0.19251947415E+01  0.32870512195E+02  0.51100000000E-03 0.  1.
        -12    1    4    4    0    0 -0.27810725973E+01 -0.32498106187E+01  0.43638721700E+00  0.42995427259E+01  0.00000000000E+00 0.  1.
</event>
<event>
 8    1  0.1269154E-006  0.9118800E+02  0.7816164E-02  0.1184000E+00
        -11   -1    0    0    0    0  0.00000000000E+00  0.00000000000E+00  0.45593999997E+02  0.45594000000E+02  0.51100000000E-03 0. -1.
         11   -1    0    0    0    0 -0.00000000000E+00 -0.00000000000E+00 -0.45593999997E+02  0.45594000000E+02  0.51100000000E-03 0.  1.
         23    2    1    2    0    0  0.00000000000E+00  0.00000000000E+00  0.00000000000E+00  0.91188000000E+02  0.91188000000E+02 0.  0.
    9900012    2    3    3    0    0 -0.10319729821E+02 -0.23219442178E+02 -0.26648440775E+02  0.54367099490E+02  0.40000034908E+02 0.  0.
         12    1    3    3    0    0  0.10319729821E+02  0.23219442178E+02  0.26648440775E+02  0.36820900510E+02  0.00000000000E+00 0. -1.
         11    1    4    4    0    0 -0.98359577136E+01 -0.73086712961E+01 -0.33499479086E+02  0.35670405654E+02  0.51100000000E-03 0. -1.
        -11    1    4    4    0    0  0.24299833434E+01 -0.85122918407E+01  0.11814080069E+01  0.89308261976E+01  0.51100000000E-03 0.  1.
         12    1    4    4    0    0 -0.29137554508E+01 -0.73984790407E+01  0.56696303040E+01  0.97658676382E+01  0.00000000000E+00 0. -1.
</event>
<event>
 8    1  0.1269154E-006  0.9118800E+02  0.7816164E-02  0.1184000E+00
        -11   -1    0    0    0    0  0.00000000000E+00  0.00000000000E+00  0.45593999997E+02  0.45594000000E+02  0.51100000000E-03 0.  1.
         11   -1    0    0    0    0 -0.00000000000E+00 -0.00000000000E+00 -0.45593999997E+02  0.45594000000E+02  0.51100000000E-03 0. -1.
         23    2    1    2    0    0  0.71054273576E-14  0.17763568394E-14 -0.17763568394E-14  0.91188000000E+02  0.91188000000E+02 0.  0.
    9900012    2    3    3    0    0  0.33714089103E+02  0.10276173117E+02 -0.10655381129E+02  0.54367127047E+02  0.40000097730E+02 0.  0.
        -12    1    3    3    0    0 -0.33714089103E+02 -0.10276173117E+02  0.10655381129E+02  0.36820872953E+02  0.00000000000E+00 0.  1.
         11    1    4    4    0    0  0.12276523179E+02  0.12811681999E+02 -0.14260192144E+02  0.22764123028E+02  0.51100000000E-03 0. -1.
        -11    1    4    4    0    0  0.89642517029E+01  0.28558445735E+01  0.12288700794E+02  0.15476621863E+02  0.51100000000E-03 0.  1.
        -12    1    4    4    0    0  0.12473314222E+02 -0.53913534557E+01 -0.86838897782E+01  0.16126382156E+02  0.00000000000E+00 0.  1.
</event>
<event>
 8    1  0.1269154E-006  0.9118800E+02  0.7816164E-02  0.1184000E+00
        -11   -1    0    0    0    0  0.00000000000E+00  0.00000000000E+00  0.45593999997E+02  0.45594000000E+02  0.51100000000E-03 0.  1.
         11   -1    0    0    0    0 -0.00000000000E+00 -0.00000000000E+00 -0.45593999997E+02  0.45594000000E+02  0.51100000000E-03 0. -1.
         23    2    1    2    0    0 -0.17763568394E-14 -0.17763568394E-14  0.00000000000E+00  0.91188000000E+02  0.91188000000E+02 0.  0.
    9900012    2    3    3    0    0  0.10282482322E+02  0.11642865093E+02 -0.33384046278E+02  0.54367078010E+02  0.39999985940E+02 0.  0.
        -12    1    3    3    0    0 -0.10282482322E+02 -0.11642865093E+02  0.33384046278E+02  0.36820921990E+02  0.00000000000E+00 0.  1.
         11    1    4    4    0    0  0.13702207961E+02  0.14151360512E+02 -0.38903617114E+02  0.43606225842E+02  0.51100000000E-03 0. -1.
        -11    1    4    4    0    0 -0.21606812877E+01 -0.48743945208E+01  0.88157716234E+00  0.54042061513E+01  0.51100000000E-03 0.  1.
        -12    1    4    4    0    0 -0.12590443512E+01  0.23658991013E+01  0.46379936734E+01  0.53566460169E+01  0.00000000000E+00 0.  1.
</event>
<event>
 8    1  0.1269154E-006  0.9118800E+02  0.7816164E-02  0.1184000E+00
        -11   -1    0    0    0    0  0.00000000000E+00  0.00000000000E+00  0.45593999997E+02  0.45594000000E+02  0.51100000000E-03 0. -1.
         11   -1    0    0    0    0 -0.00000000000E+00 -0.00000000000E+00 -0.45593999997E+02  0.45594000000E+02  0.51100000000E-03 0.  1.
         23    2    1    2    0    0  0.00000000000E+00 -0.17763568394E-14 -0.71054273576E-14  0.91188000000E+02  0.91188000000E+02 0.  0.
    9900012    2    3    3    0    0 -0.10031169228E+02 -0.83457042087E+01  0.34431161318E+02  0.54367081971E+02  0.39999994969E+02 0.  0.
        -12    1    3    3    0    0  0.10031169228E+02  0.83457042087E+01 -0.34431161318E+02  0.36820918029E+02  0.00000000000E+00 0.  1.
         11    1    4    4    0    0 -0.44444443326E+01  0.42609037485E+01  0.43403239039E+01  0.75330470615E+01  0.51100000000E-03 0. -1.
        -11    1    4    4    0    0 -0.38376730957E+01  0.49281669193E+01 -0.47120445483E+01  0.78241886518E+01  0.51100000000E-03 0.  1.
         12    1    4    4    0    0 -0.17490517993E+01 -0.17534774877E+02  0.34802881962E+02  0.39009846258E+02  0.00000000000E+00 0. -1.
</event>
<event>
 8    1  0.1269154E-006  0.9118800E+02  0.7816164E-02  0.1184000E+00
        -11   -1    0    0    0    0  0.00000000000E+00  0.00000000000E+00  0.45593999997E+02  0.45594000000E+02  0.51100000000E-03 0.  1.
         11   -1    0    0    0    0 -0.00000000000E+00 -0.00000000000E+00 -0.45593999997E+02  0.45594000000E+02  0.51100000000E-03 0. -1.
         23    2    1    2    0    0  0.00000000000E+00  0.00000000000E+00  0.00000000000E+00  0.91188000000E+02  0.91188000000E+02 0.  0.
    9900012    2    3    3    0    0  0.12972472979E+02 -0.22370806327E+02  0.26211485570E+02  0.54367081941E+02  0.39999994900E+02 0.  0.
         12    1    3    3    0    0 -0.12972472979E+02  0.22370806327E+02 -0.26211485570E+02  0.36820918059E+02  0.00000000000E+00 0. -1.
         11    1    4    4    0    0  0.79036589181E+01 -0.12537505431E+02  0.95561621043E+01  0.17634542839E+02  0.51100000000E-03 0. -1.
        -11    1    4    4    0    0  0.43456186466E+01 -0.17896105481E+02  0.20680515850E+02  0.27691853114E+02  0.51100000000E-03 0.  1.
         12    1    4    4    0    0  0.72319541450E+00  0.80628045855E+01 -0.40251923838E+01  0.90406859871E+01  0.00000000000E+00 0. -1.
</event>
<event>
 8    1  0.1269154E-006  0.9118800E+02  0.7816164E-02  0.1184000E+00
        -11   -1    0    0    0    0  0.00000000000E+00  0.00000000000E+00  0.45593999997E+02  0.45594000000E+02  0.51100000000E-03 0. -1.
         11   -1    0    0    0    0 -0.00000000000E+00 -0.00000000000E+00 -0.45593999997E+02  0.45594000000E+02  0.51100000000E-03 0.  1.
         23    2    1    2    0    0 -0.71054273576E-14 -0.88817841970E-15  0.17763568394E-14  0.91188000000E+02  0.91188000000E+02 0.  0.
    9900012    2    3    3    0    0  0.35592468617E+02  0.40858185943E+01 -0.85006526175E+01  0.54367097909E+02  0.40000031304E+02 0.  0.
         12    1    3    3    0    0 -0.35592468617E+02 -0.40858185943E+01  0.85006526175E+01  0.36820902091E+02  0.00000000000E+00 0. -1.
         11    1    4    4    0    0  0.67196500371E+01  0.42501121864E+01 -0.14806510529E+02  0.16806245997E+02  0.51100000000E-03 0. -1.
        -11    1    4    4    0    0  0.25378456651E+02  0.90495997256E+01  0.27457219213E+01  0.27083210783E+02  0.51100000000E-03 0.  1.
         12    1    4    4    0    0  0.34943619290E+01 -0.92138933177E+01  0.35601359901E+01  0.10477641129E+02  0.00000000000E+00 0. -1.
</event>
<event>
 8    1  0.1269154E-006  0.9118800E+02  0.7816164E-02  0.1184000E+00
        -11   -1    0    0    0    0  0.00000000000E+00  0.00000000000E+00  0.45593999997E+02  0.45594000000E+02  0.51100000000E-03 0.  1.
         11   -1    0    0    0    0 -0.00000000000E+00 -0.00000000000E+00 -0.45593999997E+02  0.45594000000E+02  0.51100000000E-03 0. -1.
         23    2    1    2    0    0  0.88817841970E-15 -0.71054273576E-14 -0.17763568394E-14  0.91188000000E+02  0.91188000000E+02 0.  0.
    9900012    2    3    3    0    0  0.77777298545E+01 -0.34790737168E+02 -0.92135300636E+01  0.54367114478E+02  0.40000069076E+02 0.  0.
        -12    1    3    3    0    0 -0.77777298545E+01  0.34790737168E+02  0.92135300636E+01  0.36820885522E+02  0.00000000000E+00 0.  1.
         11    1    4    4    0    0 -0.23428805907E+01 -0.26558576001E+02 -0.18232638510E+02  0.32299785695E+02  0.51100000000E-03 0. -1.
        -11    1    4    4    0    0  0.89881697204E+01 -0.12868400479E+01  0.11458150683E+02  0.14619588557E+02  0.51100000000E-03 0.  1.
        -12    1    4    4    0    0  0.11324407247E+01 -0.69453211194E+01 -0.24390422366E+01  0.74477402263E+01  0.00000000000E+00 0.  1.
</event>
<event>
 8    1  0.1269154E-006  0.9118800E+02  0.7816164E-02  0.1184000E+00
        -11   -1    0    0    0    0  0.00000000000E+00  0.00000000000E+00  0.45593999997E+02  0.45594000000E+02  0.51100000000E-03 0.  1.
         11   -1    0    0    0    0 -0.00000000000E+00 -0.00000000000E+00 -0.45593999997E+02  0.45594000000E+02  0.51100000000E-03 0. -1.
         23    2    1    2    0    0  0.17763568394E-14  0.00000000000E+00  0.00000000000E+00  0.91188000000E+02  0.91188000000E+02 0.  0.
    9900012    2    3    3    0    0  0.75348087623E+01 -0.14594471467E+02  0.32954615759E+02  0.54367100496E+02  0.40000037200E+02 0.  0.
         12    1    3    3    0    0 -0.75348087623E+01  0.14594471467E+02 -0.32954615759E+02  0.36820899504E+02  0.00000000000E+00 0. -1.
         11    1    4    4    0    0 -0.27192875922E+01  0.53332711121E+01  0.30018799696E+01  0.66969836029E+01  0.51100000000E-03 0. -1.
        -11    1    4    4    0    0  0.60404420051E+01 -0.22164566761E+02  0.34255665710E+02  0.41245673625E+02  0.51100000000E-03 0.  1.
         12    1    4    4    0    0  0.42136543495E+01  0.22368241823E+01 -0.43029299201E+01  0.64244432674E+01  0.00000000000E+00 0. -1.
</event>
<event>
 8    1  0.1269154E-006  0.9118800E+02  0.7816164E-02  0.1184000E+00
        -11   -1    0    0    0    0  0.00000000000E+00  0.00000000000E+00  0.45593999997E+02  0.45594000000E+02  0.51100000000E-03 0.  1.
         11   -1    0    0    0    0 -0.00000000000E+00 -0.00000000000E+00 -0.45593999997E+02  0.45594000000E+02  0.51100000000E-03 0. -1.
         23    2    1    2    0    0  0.00000000000E+00  0.00000000000E+00  0.00000000000E+00  0.91188000000E+02  0.91188000000E+02 0.  0.
    9900012    2    3    3    0    0 -0.33000254896E+02  0.95955144218E+01 -0.13217021747E+02  0.54367076816E+02  0.39999983219E+02 0.  0.
        -12    1    3    3    0    0  0.33000254896E+02 -0.95955144218E+01  0.13217021747E+02  0.36820923184E+02  0.00000000000E+00 0.  1.
         11    1    4    4    0    0 -0.61399204913E+01  0.74502104393E+01  0.57241608940E+01  0.11223648134E+02  0.51100000000E-03 0.  1.
        -11    1    4    4    0    0 -0.28732843135E+02 -0.54419933838E+01 -0.92037493556E+01  0.30657797851E+02  0.51100000000E-03 0. -1.
        -12    1    4    4    0    0  0.18725087304E+01  0.75872973664E+01 -0.97374332855E+01  0.12485630832E+02  0.00000000000E+00 0.  1.
</event>
<event>
 8    1  0.1269154E-006  0.9118800E+02  0.7816164E-02  0.1184000E+00
        -11   -1    0    0    0    0  0.00000000000E+00  0.00000000000E+00  0.45593999997E+02  0.45594000000E+02  0.51100000000E-03 0.  1.
         11   -1    0    0    0    0 -0.00000000000E+00 -0.00000000000E+00 -0.45593999997E+02  0.45594000000E+02  0.51100000000E-03 0. -1.
         23    2    1    2    0    0 -0.22204460493E-15  0.88817841970E-15  0.00000000000E+00  0.91188000000E+02  0.91188000000E+02 0.  0.
    9900012    2    3    3    0    0 -0.10196402051E+01 -0.20128308672E+01 -0.36751660523E+02  0.54367140349E+02  0.40000128054E+02 0.  0.
        -12    1    3    3    0    0  0.10196402051E+01  0.20128308672E+01  0.36751660523E+02  0.36820859651E+02  0.00000000000E+00 0.  1.
         11    1    4    4    0    0 -0.36298659118E+01 -0.62415100275E+01 -0.73880562912E+01  0.10330331552E+02  0.51100000000E-03 0. -1.
        -11    1    4    4    0    0 -0.11336247154E+01 -0.14035250858E+02 -0.14289493756E+02  0.20061480596E+02  0.51100000000E-03 0.  1.
        -12    1    4    4    0    0  0.37438504221E+01  0.18263930018E+02 -0.15074110476E+02  0.23975328201E+02  0.00000000000E+00 0.  1.
</event>
<event>
 8    1  0.1269154E-006  0.9118800E+02  0.7816164E-02  0.1184000E+00
        -11   -1    0    0    0    0  0.00000000000E+00  0.00000000000E+00  0.45593999997E+02  0.45594000000E+02  0.51100000000E-03 0. -1.
         11   -1    0    0    0    0 -0.00000000000E+00 -0.00000000000E+00 -0.45593999997E+02  0.45594000000E+02  0.51100000000E-03 0.  1.
         23    2    1    2    0    0  0.00000000000E+00  0.00000000000E+00  0.35527136788E-14  0.91188000000E+02  0.91188000000E+02 0.  0.
    9900012    2    3    3    0    0  0.32882196666E+02  0.84733194787E+01  0.14238796281E+02  0.54367091265E+02  0.40000016156E+02 0.  0.
        -12    1    3    3    0    0 -0.32882196666E+02 -0.84733194787E+01 -0.14238796281E+02  0.36820908735E+02  0.00000000000E+00 0.  1.
         11    1    4    4    0    0  0.26419543072E+02  0.98348212632E+01  0.22334169710E+02  0.35965693407E+02  0.51100000000E-03 0. -1.
        -11    1    4    4    0    0  0.30297963843E+00 -0.19307245053E+01  0.42028735612E+01  0.46350447904E+01  0.51100000000E-03 0.  1.
         12    1    4    4    0    0  0.61596739559E+01  0.56922272079E+00 -0.12298246990E+02  0.13766353067E+02  0.00000000000E+00 0. -1.
</event>
<event>
 8    1  0.1269154E-006  0.9118800E+02  0.7816164E-02  0.1184000E+00
        -11   -1    0    0    0    0  0.00000000000E+00  0.00000000000E+00  0.45593999997E+02  0.45594000000E+02  0.51100000000E-03 0.  1.
         11   -1    0    0    0    0 -0.00000000000E+00 -0.00000000000E+00 -0.45593999997E+02  0.45594000000E+02  0.51100000000E-03 0. -1.
         23    2    1    2    0    0  0.35527136788E-14  0.17763568394E-14 -0.35527136788E-14  0.91188000000E+02  0.91188000000E+02 0.  0.
    9900012    2    3    3    0    0 -0.16338557876E+02 -0.10887363239E+02  0.31149566183E+02  0.54367100701E+02  0.40000037669E+02 0.  0.
         12    1    3    3    0    0  0.16338557876E+02  0.10887363239E+02 -0.31149566183E+02  0.36820899299E+02  0.00000000000E+00 0. -1.
         11    1    4    4    0    0 -0.76857264910E+01  0.25704205364E+01 -0.27606075033E+01  0.85614489122E+01  0.51100000000E-03 0. -1.
        -11    1    4    4    0    0 -0.17532854820E+02 -0.69651964583E+01  0.15761025171E+02  0.24583020045E+02  0.51100000000E-03 0.  1.
         12    1    4    4    0    0  0.88800234354E+01 -0.64925873176E+01  0.18149148516E+02  0.21222631744E+02  0.00000000000E+00 0. -1.
</event>
<event>
 8    1  0.1269154E-006  0.9118800E+02  0.7816164E-02  0.1184000E+00
        -11   -1    0    0    0    0  0.00000000000E+00  0.00000000000E+00  0.45593999997E+02  0.45594000000E+02  0.51100000000E-03 0.  1.
         11   -1    0    0    0    0 -0.00000000000E+00 -0.00000000000E+00 -0.45593999997E+02  0.45594000000E+02  0.51100000000E-03 0. -1.
         23    2    1    2    0    0  0.88817841970E-15 -0.71054273576E-14  0.00000000000E+00  0.91188000000E+02  0.91188000000E+02 0.  0.
    9900012    2    3    3    0    0 -0.68988534511E+01  0.33673023765E+02  0.13202774195E+02  0.54367082645E+02  0.39999996506E+02 0.  0.
         12    1    3    3    0    0  0.68988534511E+01 -0.33673023765E+02 -0.13202774195E+02  0.36820917355E+02  0.00000000000E+00 0. -1.
         11    1    4    4    0    0 -0.58509798100E+00  0.29542138176E+01  0.14181697043E+02  0.14497939516E+02  0.51100000000E-03 0. -1.
        -11    1    4    4    0    0  0.82929162052E+01  0.17345958703E+02  0.35567804484E+01  0.19552632302E+02  0.51100000000E-03 0.  1.
        -12    1    4    4    0    0 -0.14606671675E+02  0.13372851245E+02 -0.45357032962E+01  0.20316510828E+02  0.00000000000E+00 0.  1.
</event>
<event>
 8    1  0.1269154E-006  0.9118800E+02  0.7816164E-02  0.1184000E+00
        -11   -1    0    0    0    0  0.00000000000E+00  0.00000000000E+00  0.45593999997E+02  0.45594000000E+02  0.51100000000E-03 0. -1.
         11   -1    0    0    0    0 -0.00000000000E+00 -0.00000000000E+00 -0.45593999997E+02  0.45594000000E+02  0.51100000000E-03 0.  1.
         23    2    1    2    0    0  0.00000000000E+00  0.00000000000E+00  0.00000000000E+00  0.91188000000E+02  0.91188000000E+02 0.  0.
    9900012    2    3    3    0    0  0.36197751733E+02  0.46506602984E+01 -0.48858243158E+01  0.54367120719E+02  0.40000083304E+02 0.  0.
         12    1    3    3    0    0 -0.36197751733E+02 -0.46506602984E+01  0.48858243158E+01  0.36820879281E+02  0.00000000000E+00 0. -1.
         11    1    4    4    0    0  0.10482384441E+02 -0.11745394415E+02 -0.11613893636E+02  0.19563159233E+02  0.51100000000E-03 0.  1.
        -11    1    4    4    0    0  0.16666136451E+02  0.14506508257E+02 -0.18764515513E+01  0.22174759451E+02  0.51100000000E-03 0. -1.
        -12    1    4    4    0    0  0.90492308415E+01  0.18895464565E+01  0.86045208716E+01  0.12629202036E+02  0.00000000000E+00 0.  1.
</event>
<event>
 8    1  0.1269154E-006  0.9118800E+02  0.7816164E-02  0.1184000E+00
        -11   -1    0    0    0    0  0.00000000000E+00  0.00000000000E+00  0.45593999997E+02  0.45594000000E+02  0.51100000000E-03 0.  1.
         11   -1    0    0    0    0 -0.00000000000E+00 -0.00000000000E+00 -0.45593999997E+02  0.45594000000E+02  0.51100000000E-03 0. -1.
         23    2    1    2    0    0  0.00000000000E+00  0.00000000000E+00  0.88817841970E-15  0.91188000000E+02  0.91188000000E+02 0.  0.
    9900012    2    3    3    0    0  0.24844035394E+02  0.26851228703E+02  0.41909335744E+01  0.54367102377E+02  0.40000041490E+02 0.  0.
         12    1    3    3    0    0 -0.24844035394E+02 -0.26851228703E+02 -0.41909335744E+01  0.36820897623E+02  0.00000000000E+00 0. -1.
         11    1    4    4    0    0  0.13886115315E+01  0.35523729011E+01 -0.13918404852E+02  0.14431548395E+02  0.51100000000E-03 0. -1.
        -11    1    4    4    0    0  0.11487086743E+02  0.15463248117E+02  0.36693201366E+01  0.19609413930E+02  0.51100000000E-03 0.  1.
         12    1    4    4    0    0  0.11968337120E+02  0.78356076851E+01  0.14440018289E+02  0.20326140052E+02  0.00000000000E+00 0. -1.
</event>
<event>
 8    1  0.1269154E-006  0.9118800E+02  0.7816164E-02  0.1184000E+00
        -11   -1    0    0    0    0  0.00000000000E+00  0.00000000000E+00  0.45593999997E+02  0.45594000000E+02  0.51100000000E-03 0.  1.
         11   -1    0    0    0    0 -0.00000000000E+00 -0.00000000000E+00 -0.45593999997E+02  0.45594000000E+02  0.51100000000E-03 0. -1.
         23    2    1    2    0    0  0.35527136788E-14  0.00000000000E+00  0.35527136788E-14  0.91188000000E+02  0.91188000000E+02 0.  0.
    9900012    2    3    3    0    0  0.28172191867E+02 -0.82321024403E+01  0.22233694693E+02  0.54367121617E+02  0.40000085351E+02 0.  0.
         12    1    3    3    0    0 -0.28172191867E+02  0.82321024403E+01 -0.22233694693E+02  0.36820878383E+02  0.00000000000E+00 0. -1.
         11    1    4    4    0    0  0.45752603890E+00  0.19826087899E+01  0.19030856672E+01  0.27860012577E+01  0.51100000000E-03 0. -1.
        -11    1    4    4    0    0 -0.78165230139E+01  0.31485154853E+01  0.81256296651E+01  0.11706282053E+02  0.51100000000E-03 0.  1.
        -12    1    4    4    0    0  0.35531188842E+02 -0.13363226715E+02  0.12204979361E+02  0.39874838306E+02  0.00000000000E+00 0.  1.
</event>
<event>
 8    1  0.1269154E-006  0.9118800E+02  0.7816164E-02  0.1184000E+00
        -11   -1    0    0    0    0  0.00000000000E+00  0.00000000000E+00  0.45593999997E+02  0.45594000000E+02  0.51100000000E-03 0.  1.
         11   -1    0    0    0    0 -0.00000000000E+00 -0.00000000000E+00 -0.45593999997E+02  0.45594000000E+02  0.51100000000E-03 0. -1.
         23    2    1    2    0    0  0.00000000000E+00 -0.71054273576E-14  0.00000000000E+00  0.91188000000E+02  0.91188000000E+02 0.  0.
    9900012    2    3    3    0    0  0.81989062634E+01  0.35198845670E+02  0.70425794825E+01  0.54367099329E+02  0.40000034541E+02 0.  0.
        -12    1    3    3    0    0 -0.81989062634E+01 -0.35198845670E+02 -0.70425794825E+01  0.36820900671E+02  0.00000000000E+00 0.  1.
         11    1    4    4    0    0  0.29938188172E+01  0.15970506261E+02 -0.16652536707E+01  0.16333802111E+02  0.51100000000E-03 0. -1.
        -11    1    4    4    0    0  0.12816586792E+02  0.23901169973E+02  0.10205295301E+02  0.28977213040E+02  0.51100000000E-03 0.  1.
        -12    1    4    4    0    0 -0.76114993457E+01 -0.46728305642E+01 -0.14974621480E+01  0.90560841789E+01  0.00000000000E+00 0.  1.
</event>
<event>
 8    1  0.1269154E-006  0.9118800E+02  0.7816164E-02  0.1184000E+00
        -11   -1    0    0    0    0  0.00000000000E+00  0.00000000000E+00  0.45593999997E+02  0.45594000000E+02  0.51100000000E-03 0.  1.
         11   -1    0    0    0    0 -0.00000000000E+00 -0.00000000000E+00 -0.45593999997E+02  0.45594000000E+02  0.51100000000E-03 0. -1.
         23    2    1    2    0    0  0.00000000000E+00  0.00000000000E+00  0.71054273576E-14  0.91188000000E+02  0.91188000000E+02 0.  0.
    9900012    2    3    3    0    0  0.87743427639E+01 -0.10803759645E+02  0.34089159942E+02  0.54367066566E+02  0.39999959850E+02 0.  0.
         12    1    3    3    0    0 -0.87743427639E+01  0.10803759645E+02 -0.34089159942E+02  0.36820933434E+02  0.00000000000E+00 0. -1.
         11    1    4    4    0    0  0.31241042696E+01 -0.11724308375E+02  0.10249796158E+02  0.15883253946E+02  0.51100000000E-03 0. -1.
        -11    1    4    4    0    0  0.43305297438E+01 -0.12000643626E+01  0.30780582708E+02  0.31106878892E+02  0.51100000000E-03 0.  1.
         12    1    4    4    0    0  0.13197087504E+01  0.21206130924E+01 -0.69412189237E+01  0.73769337276E+01  0.00000000000E+00 0. -1.
</event>
<event>
 8    1  0.1269154E-006  0.9118800E+02  0.7816164E-02  0.1184000E+00
        -11   -1    0    0    0    0  0.00000000000E+00  0.00000000000E+00  0.45593999997E+02  0.45594000000E+02  0.51100000000E-03 0. -1.
         11   -1    0    0    0    0 -0.00000000000E+00 -0.00000000000E+00 -0.45593999997E+02  0.45594000000E+02  0.51100000000E-03 0.  1.
         23    2    1    2    0    0  0.00000000000E+00 -0.35527136788E-14 -0.35527136788E-14  0.91188000000E+02  0.91188000000E+02 0.  0.
    9900012    2    3    3    0    0 -0.12391826986E+01  0.30826330257E+02  0.20099140743E+02  0.54367167996E+02  0.40000191080E+02 0.  0.
        -12    1    3    3    0    0  0.12391826986E+01 -0.30826330257E+02 -0.20099140743E+02  0.36820832004E+02  0.00000000000E+00 0.  1.
         11    1    4    4    0    0  0.66568991608E+01  0.10882617986E+02  0.15983209083E+02  0.20450150452E+02  0.51100000000E-03 0. -1.
        -11    1    4    4    0    0  0.52105437841E+01  0.19851788313E+02  0.17547536575E+01  0.20599088000E+02  0.51100000000E-03 0.  1.
        -12    1    4    4    0    0 -0.13106625644E+02  0.91923957404E-01  0.23611780020E+01  0.13317929544E+02  0.00000000000E+00 0.  1.
</event>
<event>
 8    1  0.1269154E-006  0.9118800E+02  0.7816164E-02  0.1184000E+00
        -11   -1    0    0    0    0  0.00000000000E+00  0.00000000000E+00  0.45593999997E+02  0.45594000000E+02  0.51100000000E-03 0.  1.
         11   -1    0    0    0    0 -0.00000000000E+00 -0.00000000000E+00 -0.45593999997E+02  0.45594000000E+02  0.51100000000E-03 0. -1.
         23    2    1    2    0    0  0.00000000000E+00  0.00000000000E+00 -0.35527136788E-14  0.91188000000E+02  0.91188000000E+02 0.  0.
    9900012    2    3    3    0    0  0.21538698379E+02  0.79859987162E+01 -0.28776506942E+02  0.54367094863E+02  0.40000024358E+02 0.  0.
        -12    1    3    3    0    0 -0.21538698379E+02 -0.79859987162E+01  0.28776506942E+02  0.36820905137E+02  0.00000000000E+00 0.  1.
         11    1    4    4    0    0  0.16070887970E+02 -0.40154853883E+01 -0.26398673731E+02  0.31165486327E+02  0.51100000000E-03 0. -1.
        -11    1    4    4    0    0  0.11887712429E+02  0.11652008373E+02 -0.19112384122E+01  0.16755292848E+02  0.51100000000E-03 0.  1.
        -12    1    4    4    0    0 -0.64199020196E+01  0.34947573201E+00 -0.46659479939E+00  0.64463156869E+01  0.00000000000E+00 0.  1.
</event>
<event>
 8    1  0.1269154E-006  0.9118800E+02  0.7816164E-02  0.1184000E+00
        -11   -1    0    0    0    0  0.00000000000E+00  0.00000000000E+00  0.45593999997E+02  0.45594000000E+02  0.51100000000E-03 0.  1.
         11   -1    0    0    0    0 -0.00000000000E+00 -0.00000000000E+00 -0.45593999997E+02  0.45594000000E+02  0.51100000000E-03 0. -1.
         23    2    1    2    0    0  0.00000000000E+00  0.00000000000E+00 -0.88817841970E-15  0.91188000000E+02  0.91188000000E+02 0.  0.
    9900012    2    3    3    0    0 -0.41061453043E+01 -0.35781135358E+02  0.76570102948E+01  0.54367083615E+02  0.39999998717E+02 0.  0.
         12    1    3    3    0    0  0.41061453043E+01  0.35781135358E+02 -0.76570102948E+01  0.36820916385E+02  0.00000000000E+00 0. -1.
         11    1    4    4    0    0 -0.60435705404E+01 -0.50578932714E+01 -0.10017456194E+02  0.12745840815E+02  0.51100000000E-03 0. -1.
        -11    1    4    4    0    0 -0.97520196368E+01 -0.13988899399E+02  0.58338334387E+01  0.18022896722E+02  0.51100000000E-03 0.  1.
         12    1    4    4    0    0  0.11689444873E+02 -0.16734342688E+02  0.11840633050E+02  0.23598346079E+02  0.00000000000E+00 0. -1.
</event>
<event>
 8    1  0.1269154E-006  0.9118800E+02  0.7816164E-02  0.1184000E+00
        -11   -1    0    0    0    0  0.00000000000E+00  0.00000000000E+00  0.45593999997E+02  0.45594000000E+02  0.51100000000E-03 0.  1.
         11   -1    0    0    0    0 -0.00000000000E+00 -0.00000000000E+00 -0.45593999997E+02  0.45594000000E+02  0.51100000000E-03 0. -1.
         23    2    1    2    0    0  0.17763568394E-14 -0.26645352591E-14  0.00000000000E+00  0.91188000000E+02  0.91188000000E+02 0.  0.
    9900012    2    3    3    0    0 -0.10925218654E+02  0.47932320591E+01  0.34834519273E+02  0.54367092771E+02  0.40000019589E+02 0.  0.
         12    1    3    3    0    0  0.10925218654E+02 -0.47932320591E+01 -0.34834519273E+02  0.36820907229E+02  0.00000000000E+00 0. -1.
         11    1    4    4    0    0 -0.12208296989E+02  0.17463811751E+02  0.20376426139E+02  0.29482638598E+02  0.51100000000E-03 0. -1.
        -11    1    4    4    0    0 -0.16763321809E+01 -0.11317577124E+02  0.15177939243E+01  0.11541288498E+02  0.51100000000E-03 0.  1.
        -12    1    4    4    0    0  0.29594105166E+01 -0.13530025678E+01  0.12940299210E+02  0.13343165674E+02  0.00000000000E+00 0.  1.
</event>
<event>
 8    1  0.1269154E-006  0.9118800E+02  0.7816164E-02  0.1184000E+00
        -11   -1    0    0    0    0  0.00000000000E+00  0.00000000000E+00  0.45593999997E+02  0.45594000000E+02  0.51100000000E-03 0.  1.
         11   -1    0    0    0    0 -0.00000000000E+00 -0.00000000000E+00 -0.45593999997E+02  0.45594000000E+02  0.51100000000E-03 0. -1.
         23    2    1    2    0    0  0.00000000000E+00  0.00000000000E+00 -0.53290705182E-14  0.91188000000E+02  0.91188000000E+02 0.  0.
    9900012    2    3    3    0    0  0.25206908611E+02 -0.24973958506E+02  0.98332361059E+01  0.54367090485E+02  0.40000014378E+02 0.  0.
         12    1    3    3    0    0 -0.25206908611E+02  0.24973958506E+02 -0.98332361059E+01  0.36820909515E+02  0.00000000000E+00 0. -1.
         11    1    4    4    0    0  0.17802436966E+02 -0.17708876007E+02 -0.97730472108E+01  0.26945194440E+02  0.51100000000E-03 0. -1.
        -11    1    4    4    0    0  0.12144859729E+02 -0.69607244028E+01  0.16937601955E+02  0.21973430827E+02  0.51100000000E-03 0.  1.
         12    1    4    4    0    0 -0.47403880830E+01 -0.30435809629E+00  0.26686813614E+01  0.54484652184E+01  0.00000000000E+00 0. -1.
</event>
<event>
 8    1  0.1269154E-006  0.9118800E+02  0.7816164E-02  0.1184000E+00
        -11   -1    0    0    0    0  0.00000000000E+00  0.00000000000E+00  0.45593999997E+02  0.45594000000E+02  0.51100000000E-03 0.  1.
         11   -1    0    0    0    0 -0.00000000000E+00 -0.00000000000E+00 -0.45593999997E+02  0.45594000000E+02  0.51100000000E-03 0. -1.
         23    2    1    2    0    0  0.88817841970E-15  0.00000000000E+00  0.00000000000E+00  0.91188000000E+02  0.91188000000E+02 0.  0.
    9900012    2    3    3    0    0 -0.48349110750E+01  0.36362427041E+02  0.31900916789E+01  0.54367093570E+02  0.40000021411E+02 0.  0.
        -12    1    3    3    0    0  0.48349110750E+01 -0.36362427041E+02 -0.31900916789E+01  0.36820906430E+02  0.00000000000E+00 0.  1.
         11    1    4    4    0    0  0.35894181458E+01  0.17844756500E+02 -0.48497309687E+01  0.18837174626E+02  0.51100000000E-03 0. -1.
        -11    1    4    4    0    0  0.36210195961E+01  0.13602209241E+02  0.15169976396E+02  0.20694445227E+02  0.51100000000E-03 0.  1.
        -12    1    4    4    0    0 -0.12045348817E+02  0.49154613000E+01 -0.71301537482E+01  0.14835473716E+02  0.00000000000E+00 0.  1.
</event>
<event>
 8    1  0.1269154E-006  0.9118800E+02  0.7816164E-02  0.1184000E+00
        -11   -1    0    0    0    0  0.00000000000E+00  0.00000000000E+00  0.45593999997E+02  0.45594000000E+02  0.51100000000E-03 0.  1.
         11   -1    0    0    0    0 -0.00000000000E+00 -0.00000000000E+00 -0.45593999997E+02  0.45594000000E+02  0.51100000000E-03 0. -1.
         23    2    1    2    0    0  0.00000000000E+00  0.00000000000E+00 -0.35527136788E-14  0.91188000000E+02  0.91188000000E+02 0.  0.
    9900012    2    3    3    0    0 -0.17969251009E+02  0.82222229341E+01 -0.31068969431E+02  0.54367084839E+02  0.40000001507E+02 0.  0.
        -12    1    3    3    0    0  0.17969251009E+02 -0.82222229341E+01  0.31068969431E+02  0.36820915161E+02  0.00000000000E+00 0.  1.
         11    1    4    4    0    0 -0.11653524763E+02  0.30710091371E+01 -0.23792001188E+02  0.26670115435E+02  0.51100000000E-03 0. -1.
        -11    1    4    4    0    0 -0.14191233791E+02  0.89596920345E+01 -0.78149150212E+00  0.16801128745E+02  0.51100000000E-03 0.  1.
         12    1    4    4    0    0  0.78755075452E+01 -0.38084782376E+01 -0.64954767405E+01  0.10895840659E+02  0.00000000000E+00 0. -1.
</event>
<event>
 8    1  0.1269154E-006  0.9118800E+02  0.7816164E-02  0.1184000E+00
        -11   -1    0    0    0    0  0.00000000000E+00  0.00000000000E+00  0.45593999997E+02  0.45594000000E+02  0.51100000000E-03 0.  1.
         11   -1    0    0    0    0 -0.00000000000E+00 -0.00000000000E+00 -0.45593999997E+02  0.45594000000E+02  0.51100000000E-03 0. -1.
         23    2    1    2    0    0  0.35527136788E-14  0.00000000000E+00 -0.35527136788E-14  0.91188000000E+02  0.91188000000E+02 0.  0.
    9900012    2    3    3    0    0 -0.17497809255E+02 -0.15803456261E+02  0.28281750780E+02  0.54367082226E+02  0.39999995551E+02 0.  0.
         12    1    3    3    0    0  0.17497809255E+02  0.15803456261E+02 -0.28281750780E+02  0.36820917774E+02  0.00000000000E+00 0. -1.
         11    1    4    4    0    0  0.44503191453E+01 -0.41454232436E+01 -0.29273023158E+01  0.67497387707E+01  0.51100000000E-03 0. -1.
        -11    1    4    4    0    0 -0.19455184331E+02 -0.19554029053E+02  0.25453966510E+02  0.37533567122E+02  0.51100000000E-03 0.  1.
        -12    1    4    4    0    0 -0.24929440697E+01  0.78959960356E+01  0.57550865859E+01  0.10083776333E+02  0.00000000000E+00 0.  1.
</event>
<event>
 8    1  0.1269154E-006  0.9118800E+02  0.7816164E-02  0.1184000E+00
        -11   -1    0    0    0    0  0.00000000000E+00  0.00000000000E+00  0.45593999997E+02  0.45594000000E+02  0.51100000000E-03 0. -1.
         11   -1    0    0    0    0 -0.00000000000E+00 -0.00000000000E+00 -0.45593999997E+02  0.45594000000E+02  0.51100000000E-03 0.  1.
         23    2    1    2    0    0  0.00000000000E+00  0.17763568394E-14  0.00000000000E+00  0.91188000000E+02  0.91188000000E+02 0.  0.
    9900012    2    3    3    0    0 -0.27968227369E+02  0.14771522606E+02 -0.18850969882E+02  0.54367099851E+02  0.40000035731E+02 0.  0.
         12    1    3    3    0    0  0.27968227369E+02 -0.14771522606E+02  0.18850969882E+02  0.36820900149E+02  0.00000000000E+00 0. -1.
         11    1    4    4    0    0 -0.14232940961E+02 -0.59743850748E+01  0.68253238252E+00  0.15451075565E+02  0.51100000000E-03 0. -1.
        -11    1    4    4    0    0 -0.11789945523E+02  0.13916534666E+02 -0.24285250323E+02  0.30371798367E+02  0.51100000000E-03 0.  1.
         12    1    4    4    0    0 -0.19453408850E+01  0.68293730150E+01  0.47517480585E+01  0.85442259186E+01  0.00000000000E+00 0. -1.
</event>
<event>
 8    1  0.1269154E-006  0.9118800E+02  0.7816164E-02  0.1184000E+00
        -11   -1    0    0    0    0  0.00000000000E+00  0.00000000000E+00  0.45593999997E+02  0.45594000000E+02  0.51100000000E-03 0. -1.
         11   -1    0    0    0    0 -0.00000000000E+00 -0.00000000000E+00 -0.45593999997E+02  0.45594000000E+02  0.51100000000E-03 0.  1.
         23    2    1    2    0    0  0.00000000000E+00  0.17763568394E-14  0.00000000000E+00  0.91188000000E+02  0.91188000000E+02 0.  0.
    9900012    2    3    3    0    0  0.34699495080E+02 -0.10754581893E+02  0.60050201843E+01  0.54367132847E+02  0.40000110951E+02 0.  0.
        -12    1    3    3    0    0 -0.34699495080E+02  0.10754581893E+02 -0.60050201843E+01  0.36820867153E+02  0.00000000000E+00 0.  1.
         11    1    4    4    0    0  0.24576867453E+01 -0.10638615946E+02 -0.19737944467E+01  0.11095775690E+02  0.51100000000E-03 0. -1.
        -11    1    4    4    0    0 -0.27484535500E+01 -0.36180623331E+01 -0.40694190896E+01  0.60995527664E+01  0.51100000000E-03 0.  1.
         12    1    4    4    0    0  0.34990261885E+02  0.35020963858E+01  0.12048233721E+02  0.37171804390E+02  0.00000000000E+00 0. -1.
</event>
<event>
 8    1  0.1269154E-006  0.9118800E+02  0.7816164E-02  0.1184000E+00
        -11   -1    0    0    0    0  0.00000000000E+00  0.00000000000E+00  0.45593999997E+02  0.45594000000E+02  0.51100000000E-03 0.  1.
         11   -1    0    0    0    0 -0.00000000000E+00 -0.00000000000E+00 -0.45593999997E+02  0.45594000000E+02  0.51100000000E-03 0. -1.
         23    2    1    2    0    0  0.00000000000E+00  0.00000000000E+00  0.00000000000E+00  0.91188000000E+02  0.91188000000E+02 0.  0.
    9900012    2    3    3    0    0  0.19382823233E+02  0.20358785408E+02 -0.23782452207E+02  0.54367095438E+02  0.40000025670E+02 0.  0.
         12    1    3    3    0    0 -0.19382823233E+02 -0.20358785408E+02  0.23782452207E+02  0.36820904562E+02  0.00000000000E+00 0. -1.
         11    1    4    4    0    0 -0.12485522489E-01 -0.38684967838E+01 -0.14583713069E+02  0.15088078419E+02  0.51100000000E-03 0. -1.
        -11    1    4    4    0    0  0.23925660748E+02  0.19011842778E+02 -0.10372053232E+02  0.32271766244E+02  0.51100000000E-03 0.  1.
        -12    1    4    4    0    0 -0.45303519918E+01  0.52154394141E+01  0.11733140939E+01  0.70072507744E+01  0.00000000000E+00 0.  1.
</event>
<event>
 8    1  0.1269154E-006  0.9118800E+02  0.7816164E-02  0.1184000E+00
        -11   -1    0    0    0    0  0.00000000000E+00  0.00000000000E+00  0.45593999997E+02  0.45594000000E+02  0.51100000000E-03 0. -1.
         11   -1    0    0    0    0 -0.00000000000E+00 -0.00000000000E+00 -0.45593999997E+02  0.45594000000E+02  0.51100000000E-03 0.  1.
         23    2    1    2    0    0  0.17763568394E-14  0.00000000000E+00  0.00000000000E+00  0.91188000000E+02  0.91188000000E+02 0.  0.
    9900012    2    3    3    0    0  0.61452993798E+01 -0.13171944431E+02 -0.33830646813E+02  0.54367116139E+02  0.40000072861E+02 0.  0.
         12    1    3    3    0    0 -0.61452993798E+01  0.13171944431E+02  0.33830646813E+02  0.36820883861E+02  0.00000000000E+00 0. -1.
         11    1    4    4    0    0 -0.13298376172E+02  0.22329671552E+01 -0.18119126464E+02  0.22586183723E+02  0.51100000000E-03 0. -1.
        -11    1    4    4    0    0  0.74935988783E+01 -0.69063529807E+01  0.13359232184E+00  0.10191642793E+02  0.51100000000E-03 0.  1.
         12    1    4    4    0    0  0.11950076673E+02 -0.84985586057E+01 -0.15845112671E+02  0.21589289623E+02  0.00000000000E+00 0. -1.
</event>
<event>
 8    1  0.1269154E-006  0.9118800E+02  0.7816164E-02  0.1184000E+00
        -11   -1    0    0    0    0  0.00000000000E+00  0.00000000000E+00  0.45593999997E+02  0.45594000000E+02  0.51100000000E-03 0.  1.
         11   -1    0    0    0    0 -0.00000000000E+00 -0.00000000000E+00 -0.45593999997E+02  0.45594000000E+02  0.51100000000E-03 0. -1.
         23    2    1    2    0    0  0.00000000000E+00  0.00000000000E+00  0.00000000000E+00  0.91188000000E+02  0.91188000000E+02 0.  0.
    9900012    2    3    3    0    0 -0.20794446348E+02 -0.74224855884E+01 -0.29466524604E+02  0.54367104255E+02  0.40000045770E+02 0.  0.
        -12    1    3    3    0    0  0.20794446348E+02  0.74224855884E+01  0.29466524604E+02  0.36820895745E+02  0.00000000000E+00 0.  1.
         11    1    4    4    0    0 -0.52357410087E+01  0.25164650242E+01  0.15810107052E+01  0.60203966015E+01  0.51100000000E-03 0. -1.
        -11    1    4    4    0    0 -0.27226311445E+01 -0.10860570857E+02  0.32956012697E+01  0.11671576915E+02  0.51100000000E-03 0.  1.
         12    1    4    4    0    0 -0.12836074195E+02  0.92162024476E+00 -0.34343136579E+02  0.36675130738E+02  0.00000000000E+00 0. -1.
</event>
<event>
 8    1  0.1269154E-006  0.9118800E+02  0.7816164E-02  0.1184000E+00
        -11   -1    0    0    0    0  0.00000000000E+00  0.00000000000E+00  0.45593999997E+02  0.45594000000E+02  0.51100000000E-03 0.  1.
         11   -1    0    0    0    0 -0.00000000000E+00 -0.00000000000E+00 -0.45593999997E+02  0.45594000000E+02  0.51100000000E-03 0. -1.
         23    2    1    2    0    0  0.13322676296E-14  0.00000000000E+00  0.00000000000E+00  0.91188000000E+02  0.91188000000E+02 0.  0.
    9900012    2    3    3    0    0 -0.77154734430E+00 -0.26638442345E+02  0.25408239761E+02  0.54367074650E+02  0.39999978279E+02 0.  0.
         12    1    3    3    0    0  0.77154734430E+00  0.26638442345E+02 -0.25408239761E+02  0.36820925350E+02  0.00000000000E+00 0. -1.
         11    1    4    4    0    0  0.14165142184E+02 -0.16629613285E+02  0.14401942169E+02  0.26165076526E+02  0.51100000000E-03 0. -1.
        -11    1    4    4    0    0  0.14106490941E+01 -0.88062589860E+01  0.94388725868E+00  0.89683360560E+01  0.51100000000E-03 0.  1.
         12    1    4    4    0    0 -0.16347338622E+02 -0.12025700748E+01  0.10062410334E+02  0.19233662068E+02  0.00000000000E+00 0. -1.
</event>
<event>
 8    1  0.1269154E-006  0.9118800E+02  0.7816164E-02  0.1184000E+00
        -11   -1    0    0    0    0  0.00000000000E+00  0.00000000000E+00  0.45593999997E+02  0.45594000000E+02  0.51100000000E-03 0. -1.
         11   -1    0    0    0    0 -0.00000000000E+00 -0.00000000000E+00 -0.45593999997E+02  0.45594000000E+02  0.51100000000E-03 0.  1.
         23    2    1    2    0    0  0.00000000000E+00  0.17763568394E-14  0.00000000000E+00  0.91188000000E+02  0.91188000000E+02 0.  0.
    9900012    2    3    3    0    0  0.10783404331E+02  0.11346519740E+02 -0.33327988510E+02  0.54367080168E+02  0.39999990858E+02 0.  0.
        -12    1    3    3    0    0 -0.10783404331E+02 -0.11346519740E+02  0.33327988510E+02  0.36820919832E+02  0.00000000000E+00 0.  1.
         11    1    4    4    0    0 -0.71862810969E+01  0.87251978792E+01  0.13755534203E+01  0.11387004062E+02  0.51100000000E-03 0. -1.
        -11    1    4    4    0    0  0.31854348079E+01  0.26593509593E+01 -0.24893811726E+02  0.25237293931E+02  0.51100000000E-03 0.  1.
         12    1    4    4    0    0  0.14784250620E+02 -0.38029098547E-01 -0.98097302044E+01  0.17742782175E+02  0.00000000000E+00 0. -1.
</event>
<event>
 8    1  0.1269154E-006  0.9118800E+02  0.7816164E-02  0.1184000E+00
        -11   -1    0    0    0    0  0.00000000000E+00  0.00000000000E+00  0.45593999997E+02  0.45594000000E+02  0.51100000000E-03 0. -1.
         11   -1    0    0    0    0 -0.00000000000E+00 -0.00000000000E+00 -0.45593999997E+02  0.45594000000E+02  0.51100000000E-03 0.  1.
         23    2    1    2    0    0  0.26645352591E-14  0.00000000000E+00  0.00000000000E+00  0.91188000000E+02  0.91188000000E+02 0.  0.
    9900012    2    3    3    0    0 -0.12389660280E+01 -0.81911819832E+01  0.35876840935E+02  0.54367106276E+02  0.40000050378E+02 0.  0.
        -12    1    3    3    0    0  0.12389660280E+01  0.81911819832E+01 -0.35876840935E+02  0.36820893724E+02  0.00000000000E+00 0.  1.
         11    1    4    4    0    0 -0.11540557174E+02 -0.51838819208E+01  0.63899873724E+01  0.14173532747E+02  0.51100000000E-03 0. -1.
        -11    1    4    4    0    0 -0.14993129131E+01  0.88684604935E+01  0.43483666414E+01  0.99902864546E+01  0.51100000000E-03 0.  1.
         12    1    4    4    0    0  0.11800904059E+02 -0.11875760556E+02  0.25138486922E+02  0.30203287075E+02  0.00000000000E+00 0. -1.
</event>
<event>
 8    1  0.1269154E-006  0.9118800E+02  0.7816164E-02  0.1184000E+00
        -11   -1    0    0    0    0  0.00000000000E+00  0.00000000000E+00  0.45593999997E+02  0.45594000000E+02  0.51100000000E-03 0. -1.
         11   -1    0    0    0    0 -0.00000000000E+00 -0.00000000000E+00 -0.45593999997E+02  0.45594000000E+02  0.51100000000E-03 0.  1.
         23    2    1    2    0    0  0.00000000000E+00  0.00000000000E+00 -0.17763568394E-14  0.91188000000E+02  0.91188000000E+02 0.  0.
    9900012    2    3    3    0    0 -0.62063192038E+01 -0.32775065057E+02  0.15590295462E+02  0.54367073882E+02  0.39999976530E+02 0.  0.
        -12    1    3    3    0    0  0.62063192038E+01  0.32775065057E+02 -0.15590295462E+02  0.36820926118E+02  0.00000000000E+00 0.  1.
         11    1    4    4    0    0 -0.69055290688E+00  0.20651061870E+01 -0.47036587470E+01  0.51832357413E+01  0.51100000000E-03 0. -1.
        -11    1    4    4    0    0 -0.16407892869E+02 -0.16835412173E+02  0.81103701210E+01  0.24868215762E+02  0.51100000000E-03 0.  1.
         12    1    4    4    0    0  0.10892126572E+02 -0.18004759071E+02  0.12183584087E+02  0.24315622379E+02  0.00000000000E+00 0. -1.
</event>
<event>
 8    1  0.1269154E-006  0.9118800E+02  0.7816164E-02  0.1184000E+00
        -11   -1    0    0    0    0  0.00000000000E+00  0.00000000000E+00  0.45593999997E+02  0.45594000000E+02  0.51100000000E-03 0. -1.
         11   -1    0    0    0    0 -0.00000000000E+00 -0.00000000000E+00 -0.45593999997E+02  0.45594000000E+02  0.51100000000E-03 0.  1.
         23    2    1    2    0    0  0.00000000000E+00 -0.71054273576E-14  0.00000000000E+00  0.91188000000E+02  0.91188000000E+02 0.  0.
    9900012    2    3    3    0    0 -0.98841084493E+01  0.34340587101E+02  0.88776245934E+01  0.54367031236E+02  0.39999879309E+02 0.  0.
         12    1    3    3    0    0  0.98841084493E+01 -0.34340587101E+02 -0.88776245934E+01  0.36820968764E+02  0.00000000000E+00 0. -1.
         11    1    4    4    0    0  0.62678052519E+01  0.56935443125E+01 -0.29496672143E+01  0.89667366667E+01  0.51100000000E-03 0. -1.
        -11    1    4    4    0    0  0.19668060113E+01  0.23901182514E+02  0.15404692619E+01  0.24031393993E+02  0.51100000000E-03 0.  1.
         12    1    4    4    0    0 -0.18118719712E+02  0.47458602750E+01  0.10286822546E+02  0.21368900577E+02  0.00000000000E+00 0. -1.
</event>
<event>
 8    1  0.1269154E-006  0.9118800E+02  0.7816164E-02  0.1184000E+00
        -11   -1    0    0    0    0  0.00000000000E+00  0.00000000000E+00  0.45593999997E+02  0.45594000000E+02  0.51100000000E-03 0.  1.
         11   -1    0    0    0    0 -0.00000000000E+00 -0.00000000000E+00 -0.45593999997E+02  0.45594000000E+02  0.51100000000E-03 0. -1.
         23    2    1    2    0    0  0.00000000000E+00  0.35527136788E-14 -0.17763568394E-14  0.91188000000E+02  0.91188000000E+02 0.  0.
    9900012    2    3    3    0    0 -0.23999835922E+02  0.26983791915E+02  0.71877748576E+01  0.54367064952E+02  0.39999956171E+02 0.  0.
         12    1    3    3    0    0  0.23999835922E+02 -0.26983791915E+02 -0.71877748576E+01  0.36820935048E+02  0.00000000000E+00 0. -1.
         11    1    4    4    0    0 -0.10852373954E+02  0.14652131043E+02 -0.16046070586E+01  0.18303926590E+02  0.51100000000E-03 0.  1.
        -11    1    4    4    0    0 -0.87931339205E+01 -0.11432072609E+01 -0.94570812785E+01  0.12963892685E+02  0.51100000000E-03 0. -1.
         12    1    4    4    0    0 -0.43543280474E+01  0.13474868134E+02  0.18249463195E+02  0.23099245677E+02  0.00000000000E+00 0. -1.
</event>
<event>
 8    1  0.1269154E-006  0.9118800E+02  0.7816164E-02  0.1184000E+00
        -11   -1    0    0    0    0  0.00000000000E+00  0.00000000000E+00  0.45593999997E+02  0.45594000000E+02  0.51100000000E-03 0.  1.
         11   -1    0    0    0    0 -0.00000000000E+00 -0.00000000000E+00 -0.45593999997E+02  0.45594000000E+02  0.51100000000E-03 0. -1.
         23    2    1    2    0    0  0.17763568394E-14  0.71054273576E-14  0.00000000000E+00  0.91188000000E+02  0.91188000000E+02 0.  0.
    9900012    2    3    3    0    0 -0.14198243131E+02 -0.32071981897E+02 -0.11206059645E+02  0.54367110499E+02  0.40000060005E+02 0.  0.
         12    1    3    3    0    0  0.14198243131E+02  0.32071981897E+02  0.11206059645E+02  0.36820889501E+02  0.00000000000E+00 0. -1.
         11    1    4    4    0    0  0.60900547306E+01 -0.13191247274E+02 -0.72422816728E+01  0.16234174304E+02  0.51100000000E-03 0. -1.
        -11    1    4    4    0    0 -0.21364074799E+02 -0.73753649438E+01 -0.10429304724E+02  0.24891566792E+02  0.51100000000E-03 0.  1.
        -12    1    4    4    0    0  0.10757769370E+01 -0.11505369680E+02  0.64655267517E+01  0.13241369403E+02  0.00000000000E+00 0.  1.
</event>
<event>
 8    1  0.1269154E-006  0.9118800E+02  0.7816164E-02  0.1184000E+00
        -11   -1    0    0    0    0  0.00000000000E+00  0.00000000000E+00  0.45593999997E+02  0.45594000000E+02  0.51100000000E-03 0.  1.
         11   -1    0    0    0    0 -0.00000000000E+00 -0.00000000000E+00 -0.45593999997E+02  0.45594000000E+02  0.51100000000E-03 0. -1.
         23    2    1    2    0    0  0.00000000000E+00  0.00000000000E+00  0.00000000000E+00  0.91188000000E+02  0.91188000000E+02 0.  0.
    9900012    2    3    3    0    0 -0.28236388289E+02 -0.21904928508E+02 -0.88690131667E+01  0.54367096819E+02  0.40000028818E+02 0.  0.
        -12    1    3    3    0    0  0.28236388289E+02  0.21904928508E+02  0.88690131667E+01  0.36820903181E+02  0.00000000000E+00 0.  1.
         11    1    4    4    0    0 -0.33734051052E+02 -0.67575457888E+01 -0.46519737348E+01  0.34717308152E+02  0.51100000000E-03 0. -1.
        -11    1    4    4    0    0  0.44915932062E+01 -0.14365361556E+02  0.20011292430E+00  0.15052510342E+02  0.51100000000E-03 0.  1.
        -12    1    4    4    0    0  0.10060695565E+01 -0.78202116301E+00 -0.44171523562E+01  0.45972783242E+01  0.00000000000E+00 0.  1.
</event>
<event>
 8    1  0.1269154E-006  0.9118800E+02  0.7816164E-02  0.1184000E+00
        -11   -1    0    0    0    0  0.00000000000E+00  0.00000000000E+00  0.45593999997E+02  0.45594000000E+02  0.51100000000E-03 0. -1.
         11   -1    0    0    0    0 -0.00000000000E+00 -0.00000000000E+00 -0.45593999997E+02  0.45594000000E+02  0.51100000000E-03 0.  1.
         23    2    1    2    0    0  0.35527136788E-14  0.00000000000E+00  0.00000000000E+00  0.91188000000E+02  0.91188000000E+02 0.  0.
    9900012    2    3    3    0    0 -0.27600199178E+02  0.52569201038E+01 -0.23798605083E+02  0.54367084645E+02  0.40000001065E+02 0.  0.
         12    1    3    3    0    0  0.27600199178E+02 -0.52569201038E+01  0.23798605083E+02  0.36820915355E+02  0.00000000000E+00 0. -1.
         11    1    4    4    0    0 -0.10253867871E+02  0.13449464743E+02 -0.52544873022E+01  0.17709871407E+02  0.51100000000E-03 0. -1.
        -11    1    4    4    0    0 -0.18527926725E+02 -0.27372477503E+01 -0.15767344088E+01  0.18795283600E+02  0.51100000000E-03 0.  1.
        -12    1    4    4    0    0  0.11815954173E+01 -0.54552968885E+01 -0.16967383372E+02  0.17861929638E+02  0.00000000000E+00 0.  1.
</event>
<event>
 8    1  0.1269154E-006  0.9118800E+02  0.7816164E-02  0.1184000E+00
        -11   -1    0    0    0    0  0.00000000000E+00  0.00000000000E+00  0.45593999997E+02  0.45594000000E+02  0.51100000000E-03 0.  1.
         11   -1    0    0    0    0 -0.00000000000E+00 -0.00000000000E+00 -0.45593999997E+02  0.45594000000E+02  0.51100000000E-03 0. -1.
         23    2    1    2    0    0  0.35527136788E-14  0.44408920985E-15  0.35527136788E-14  0.91188000000E+02  0.91188000000E+02 0.  0.
    9900012    2    3    3    0    0 -0.27325023961E+02 -0.26283096423E+01 -0.24540036239E+02  0.54367104782E+02  0.40000046971E+02 0.  0.
        -12    1    3    3    0    0  0.27325023961E+02  0.26283096423E+01  0.24540036239E+02  0.36820895218E+02  0.00000000000E+00 0.  1.
         11    1    4    4    0    0 -0.16015947864E+02  0.11392200215E+02 -0.99700571336E+01  0.22038485683E+02  0.51100000000E-03 0. -1.
        -11    1    4    4    0    0  0.23869574052E+01  0.39285629894E+01  0.12456083702E+01  0.47626372199E+01  0.51100000000E-03 0.  1.
        -12    1    4    4    0    0 -0.13696033502E+02 -0.17949072846E+02 -0.15815587476E+02  0.27565981879E+02  0.00000000000E+00 0.  1.
</event>
<event>
 8    1  0.1269154E-006  0.9118800E+02  0.7816164E-02  0.1184000E+00
        -11   -1    0    0    0    0  0.00000000000E+00  0.00000000000E+00  0.45593999997E+02  0.45594000000E+02  0.51100000000E-03 0.  1.
         11   -1    0    0    0    0 -0.00000000000E+00 -0.00000000000E+00 -0.45593999997E+02  0.45594000000E+02  0.51100000000E-03 0. -1.
         23    2    1    2    0    0 -0.17763568394E-14 -0.26645352591E-14  0.00000000000E+00  0.91188000000E+02  0.91188000000E+02 0.  0.
    9900012    2    3    3    0    0  0.90083374022E+01  0.68232115677E+01 -0.35043888628E+02  0.54367075392E+02  0.39999979971E+02 0.  0.
        -12    1    3    3    0    0 -0.90083374022E+01 -0.68232115677E+01  0.35043888628E+02  0.36820924608E+02  0.00000000000E+00 0.  1.
         11    1    4    4    0    0  0.89796193814E+01  0.50609966531E+01 -0.19910303512E+02  0.22420246153E+02  0.51100000000E-03 0. -1.
        -11    1    4    4    0    0 -0.31367602283E+01 -0.12808900282E+02 -0.62913678874E+01  0.14611245714E+02  0.51100000000E-03 0.  1.
        -12    1    4    4    0    0  0.31654782491E+01  0.14571115197E+02 -0.88422172282E+01  0.17335583524E+02  0.00000000000E+00 0.  1.
</event>
<event>
 8    1  0.1269154E-006  0.9118800E+02  0.7816164E-02  0.1184000E+00
        -11   -1    0    0    0    0  0.00000000000E+00  0.00000000000E+00  0.45593999997E+02  0.45594000000E+02  0.51100000000E-03 0. -1.
         11   -1    0    0    0    0 -0.00000000000E+00 -0.00000000000E+00 -0.45593999997E+02  0.45594000000E+02  0.51100000000E-03 0.  1.
         23    2    1    2    0    0  0.00000000000E+00 -0.35527136788E-14  0.00000000000E+00  0.91188000000E+02  0.91188000000E+02 0.  0.
    9900012    2    3    3    0    0 -0.53664934138E+01  0.29457258104E+02  0.21430137659E+02  0.54367080584E+02  0.39999991806E+02 0.  0.
        -12    1    3    3    0    0  0.53664934138E+01 -0.29457258104E+02 -0.21430137659E+02  0.36820919416E+02  0.00000000000E+00 0.  1.
         11    1    4    4    0    0 -0.13127634892E+02  0.21754538200E+02  0.22158234148E+02  0.33713232876E+02  0.51100000000E-03 0. -1.
        -11    1    4    4    0    0  0.51553803672E+01 -0.43599050538E+01  0.35047625923E+01  0.76072386514E+01  0.51100000000E-03 0.  1.
         12    1    4    4    0    0  0.26057611109E+01  0.12062624958E+02 -0.42328590817E+01  0.13046609056E+02  0.00000000000E+00 0. -1.
</event>
<event>
 8    1  0.1269154E-006  0.9118800E+02  0.7816164E-02  0.1184000E+00
        -11   -1    0    0    0    0  0.00000000000E+00  0.00000000000E+00  0.45593999997E+02  0.45594000000E+02  0.51100000000E-03 0.  1.
         11   -1    0    0    0    0 -0.00000000000E+00 -0.00000000000E+00 -0.45593999997E+02  0.45594000000E+02  0.51100000000E-03 0. -1.
         23    2    1    2    0    0  0.00000000000E+00 -0.66613381478E-15 -0.35527136788E-14  0.91188000000E+02  0.91188000000E+02 0.  0.
    9900012    2    3    3    0    0 -0.34263330771E+02 -0.19021820337E+01  0.13348582337E+02  0.54367098566E+02  0.40000032801E+02 0.  0.
         12    1    3    3    0    0  0.34263330771E+02  0.19021820337E+01 -0.13348582337E+02  0.36820901434E+02  0.00000000000E+00 0. -1.
         11    1    4    4    0    0  0.10296366470E+01 -0.13748111709E+01  0.16172949165E+01  0.23592160750E+01  0.51100000000E-03 0. -1.
        -11    1    4    4    0    0 -0.38275448769E+01 -0.12790514734E+02 -0.50793161352E+01  0.14284495777E+02  0.51100000000E-03 0.  1.
        -12    1    4    4    0    0 -0.31465422541E+02  0.12263143871E+02  0.16810603556E+02  0.37723386714E+02  0.00000000000E+00 0.  1.
</event>
<event>
 8    1  0.1269154E-006  0.9118800E+02  0.7816164E-02  0.1184000E+00
        -11   -1    0    0    0    0  0.00000000000E+00  0.00000000000E+00  0.45593999997E+02  0.45594000000E+02  0.51100000000E-03 0.  1.
         11   -1    0    0    0    0 -0.00000000000E+00 -0.00000000000E+00 -0.45593999997E+02  0.45594000000E+02  0.51100000000E-03 0. -1.
         23    2    1    2    0    0  0.22204460493E-15  0.53290705182E-14  0.00000000000E+00  0.91188000000E+02  0.91188000000E+02 0.  0.
    9900012    2    3    3    0    0 -0.11581870255E+01  0.15691818710E+02  0.33289680657E+02  0.54367117204E+02  0.40000075290E+02 0.  0.
         12    1    3    3    0    0  0.11581870255E+01 -0.15691818710E+02 -0.33289680657E+02  0.36820882796E+02  0.00000000000E+00 0. -1.
         11    1    4    4    0    0  0.54609034638E+01 -0.53447020387E+01  0.22284221368E+02  0.23557882518E+02  0.51100000000E-03 0. -1.
        -11    1    4    4    0    0 -0.54426891187E+01 -0.16981561301E+01  0.40906882937E+01  0.70171454354E+01  0.51100000000E-03 0.  1.
        -12    1    4    4    0    0 -0.11764013707E+01  0.22734676879E+02  0.69147709962E+01  0.23792089250E+02  0.00000000000E+00 0.  1.
</event>
<event>
 8    1  0.1269154E-006  0.9118800E+02  0.7816164E-02  0.1184000E+00
        -11   -1    0    0    0    0  0.00000000000E+00  0.00000000000E+00  0.45593999997E+02  0.45594000000E+02  0.51100000000E-03 0. -1.
         11   -1    0    0    0    0 -0.00000000000E+00 -0.00000000000E+00 -0.45593999997E+02  0.45594000000E+02  0.51100000000E-03 0.  1.
         23    2    1    2    0    0  0.00000000000E+00  0.00000000000E+00  0.00000000000E+00  0.91188000000E+02  0.91188000000E+02 0.  0.
    9900012    2    3    3    0    0 -0.10535832432E+02 -0.27231821141E+01 -0.35176127422E+02  0.54367089823E+02  0.40000012869E+02 0.  0.
         12    1    3    3    0    0  0.10535832432E+02  0.27231821141E+01  0.35176127422E+02  0.36820910177E+02  0.00000000000E+00 0. -1.
         11    1    4    4    0    0 -0.42715020992E+01  0.40714251976E+01 -0.19168022349E+01  0.62045438504E+01  0.51100000000E-03 0. -1.
        -11    1    4    4    0    0 -0.16643485164E+02 -0.10676999312E+02 -0.31128538783E+02  0.36878040074E+02  0.51100000000E-03 0.  1.
         12    1    4    4    0    0  0.10379154831E+02  0.38823920007E+01 -0.21307864044E+01  0.11284505898E+02  0.00000000000E+00 0. -1.
</event>
<event>
 8    1  0.1269154E-006  0.9118800E+02  0.7816164E-02  0.1184000E+00
        -11   -1    0    0    0    0  0.00000000000E+00  0.00000000000E+00  0.45593999997E+02  0.45594000000E+02  0.51100000000E-03 0. -1.
         11   -1    0    0    0    0 -0.00000000000E+00 -0.00000000000E+00 -0.45593999997E+02  0.45594000000E+02  0.51100000000E-03 0.  1.
         23    2    1    2    0    0  0.35527136788E-14  0.00000000000E+00 -0.35527136788E-14  0.91188000000E+02  0.91188000000E+02 0.  0.
    9900012    2    3    3    0    0  0.25800441874E+02  0.84424674037E+01 -0.24876529828E+02  0.54367084842E+02  0.40000001515E+02 0.  0.
         12    1    3    3    0    0 -0.25800441874E+02 -0.84424674037E+01  0.24876529828E+02  0.36820915158E+02  0.00000000000E+00 0. -1.
         11    1    4    4    0    0  0.74073388097E+01  0.92453206824E+01  0.13013396594E+01  0.11917974154E+02  0.51100000000E-03 0. -1.
        -11    1    4    4    0    0  0.15633114510E+02 -0.84711751840E+01 -0.28835495578E+02  0.33876848788E+02  0.51100000000E-03 0.  1.
        -12    1    4    4    0    0  0.27599885538E+01  0.76683219052E+01  0.26576260903E+01  0.85722619007E+01  0.00000000000E+00 0.  1.
</event>
<event>
 8    1  0.1269154E-006  0.9118800E+02  0.7816164E-02  0.1184000E+00
        -11   -1    0    0    0    0  0.00000000000E+00  0.00000000000E+00  0.45593999997E+02  0.45594000000E+02  0.51100000000E-03 0.  1.
         11   -1    0    0    0    0 -0.00000000000E+00 -0.00000000000E+00 -0.45593999997E+02  0.45594000000E+02  0.51100000000E-03 0. -1.
         23    2    1    2    0    0 -0.13322676296E-14  0.00000000000E+00  0.00000000000E+00  0.91188000000E+02  0.91188000000E+02 0.  0.
    9900012    2    3    3    0    0 -0.17621614974E+01 -0.13093049980E+02 -0.34369293987E+02  0.54367061119E+02  0.39999947432E+02 0.  0.
        -12    1    3    3    0    0  0.17621614974E+01  0.13093049980E+02  0.34369293987E+02  0.36820938881E+02  0.00000000000E+00 0.  1.
         11    1    4    4    0    0 -0.29982830135E+01  0.83147622431E+01 -0.76167419862E+01  0.11667893166E+02  0.51100000000E-03 0. -1.
        -11    1    4    4    0    0  0.36335443523E+01 -0.17261860950E+02 -0.31406334465E+02  0.36021276113E+02  0.51100000000E-03 0.  1.
        -12    1    4    4    0    0 -0.23974228361E+01 -0.41459512723E+01  0.46537824634E+01  0.66778918398E+01  0.00000000000E+00 0.  1.
</event>
<event>
 8    1  0.1269154E-006  0.9118800E+02  0.7816164E-02  0.1184000E+00
        -11   -1    0    0    0    0  0.00000000000E+00  0.00000000000E+00  0.45593999997E+02  0.45594000000E+02  0.51100000000E-03 0.  1.
         11   -1    0    0    0    0 -0.00000000000E+00 -0.00000000000E+00 -0.45593999997E+02  0.45594000000E+02  0.51100000000E-03 0. -1.
         23    2    1    2    0    0  0.00000000000E+00 -0.35527136788E-14  0.00000000000E+00  0.91188000000E+02  0.91188000000E+02 0.  0.
    9900012    2    3    3    0    0 -0.28350732899E+02  0.21496932242E+02 -0.94814586170E+01  0.54367079191E+02  0.39999988631E+02 0.  0.
        -12    1    3    3    0    0  0.28350732899E+02 -0.21496932242E+02  0.94814586170E+01  0.36820920809E+02  0.00000000000E+00 0.  1.
         11    1    4    4    0    0 -0.13288324744E+02 -0.41610991264E+01 -0.10356341294E+02  0.17353619960E+02  0.51100000000E-03 0.  1.
        -11    1    4    4    0    0 -0.14511818022E+02  0.27244207298E+02 -0.46705247779E+01  0.31219440987E+02  0.51100000000E-03 0. -1.
         12    1    4    4    0    0 -0.55059013257E+00 -0.15861759296E+01  0.55454074546E+01  0.57940182439E+01  0.00000000000E+00 0. -1.
</event>
<event>
 8    1  0.1269154E-006  0.9118800E+02  0.7816164E-02  0.1184000E+00
        -11   -1    0    0    0    0  0.00000000000E+00  0.00000000000E+00  0.45593999997E+02  0.45594000000E+02  0.51100000000E-03 0.  1.
         11   -1    0    0    0    0 -0.00000000000E+00 -0.00000000000E+00 -0.45593999997E+02  0.45594000000E+02  0.51100000000E-03 0. -1.
         23    2    1    2    0    0  0.00000000000E+00  0.00000000000E+00  0.17763568394E-14  0.91188000000E+02  0.91188000000E+02 0.  0.
    9900012    2    3    3    0    0 -0.31736371060E+02  0.10143342886E+02 -0.15674717566E+02  0.54367062699E+02  0.39999951035E+02 0.  0.
        -12    1    3    3    0    0  0.31736371060E+02 -0.10143342886E+02  0.15674717566E+02  0.36820937301E+02  0.00000000000E+00 0.  1.
         11    1    4    4    0    0 -0.33456204628E+01  0.71355407660E+01  0.75618380059E+01  0.10922019621E+02  0.51100000000E-03 0. -1.
        -11    1    4    4    0    0  0.32505135160E+01  0.17300020986E+01  0.70129185061E+00  0.37484071150E+01  0.51100000000E-03 0.  1.
         12    1    4    4    0    0 -0.31641264113E+02  0.12778000211E+01 -0.23937847423E+02  0.39696635963E+02  0.00000000000E+00 0. -1.
</event>
<event>
 8    1  0.1269154E-006  0.9118800E+02  0.7816164E-02  0.1184000E+00
        -11   -1    0    0    0    0  0.00000000000E+00  0.00000000000E+00  0.45593999997E+02  0.45594000000E+02  0.51100000000E-03 0.  1.
         11   -1    0    0    0    0 -0.00000000000E+00 -0.00000000000E+00 -0.45593999997E+02  0.45594000000E+02  0.51100000000E-03 0. -1.
         23    2    1    2    0    0  0.00000000000E+00 -0.17763568394E-14  0.00000000000E+00  0.91188000000E+02  0.91188000000E+02 0.  0.
    9900012    2    3    3    0    0  0.24538774864E+02  0.11514208444E+02 -0.24920943580E+02  0.54367056275E+02  0.39999936389E+02 0.  0.
        -12    1    3    3    0    0 -0.24538774864E+02 -0.11514208444E+02  0.24920943580E+02  0.36820943725E+02  0.00000000000E+00 0.  1.
         11    1    4    4    0    0  0.18377553719E+02  0.13898182655E+02 -0.13611492317E+02  0.26761290798E+02  0.51100000000E-03 0. -1.
        -11    1    4    4    0    0 -0.70735275259E+01 -0.41242850963E+01  0.23381251811E+01  0.85153595837E+01  0.51100000000E-03 0.  1.
        -12    1    4    4    0    0  0.13234748671E+02  0.17403108847E+01 -0.13647576445E+02  0.19090405893E+02  0.00000000000E+00 0.  1.
</event>
<event>
 8    1  0.1269154E-006  0.9118800E+02  0.7816164E-02  0.1184000E+00
        -11   -1    0    0    0    0  0.00000000000E+00  0.00000000000E+00  0.45593999997E+02  0.45594000000E+02  0.51100000000E-03 0.  1.
         11   -1    0    0    0    0 -0.00000000000E+00 -0.00000000000E+00 -0.45593999997E+02  0.45594000000E+02  0.51100000000E-03 0. -1.
         23    2    1    2    0    0  0.00000000000E+00 -0.35527136788E-14  0.11102230246E-14  0.91188000000E+02  0.91188000000E+02 0.  0.
    9900012    2    3    3    0    0  0.18524505146E+02  0.31799069815E+02  0.12003784537E+01  0.54367095062E+02  0.40000024813E+02 0.  0.
         12    1    3    3    0    0 -0.18524505146E+02 -0.31799069815E+02 -0.12003784537E+01  0.36820904938E+02  0.00000000000E+00 0. -1.
         11    1    4    4    0    0  0.55858619618E+00  0.42941174448E+01  0.13393328107E+02  0.14075961821E+02  0.51100000000E-03 0. -1.
        -11    1    4    4    0    0  0.83398491017E+01  0.10505793431E+02  0.49526710688E+01  0.14298731749E+02  0.51100000000E-03 0.  1.
         12    1    4    4    0    0  0.96260698479E+01  0.16999158939E+02 -0.17145620722E+02  0.25992401491E+02  0.00000000000E+00 0. -1.
</event>
<event>
 8    1  0.1269154E-006  0.9118800E+02  0.7816164E-02  0.1184000E+00
        -11   -1    0    0    0    0  0.00000000000E+00  0.00000000000E+00  0.45593999997E+02  0.45594000000E+02  0.51100000000E-03 0. -1.
         11   -1    0    0    0    0 -0.00000000000E+00 -0.00000000000E+00 -0.45593999997E+02  0.45594000000E+02  0.51100000000E-03 0.  1.
         23    2    1    2    0    0  0.35527136788E-14  0.35527136788E-14 -0.44408920985E-15  0.91188000000E+02  0.91188000000E+02 0.  0.
    9900012    2    3    3    0    0  0.20681672880E+02  0.30285391823E+02 -0.32927620991E+01  0.54367097876E+02  0.40000031227E+02 0.  0.
        -12    1    3    3    0    0 -0.20681672880E+02 -0.30285391823E+02  0.32927620991E+01  0.36820902124E+02  0.00000000000E+00 0.  1.
         11    1    4    4    0    0 -0.20855214673E+00  0.20220402861E+02 -0.61112450188E+01  0.21124760396E+02  0.51100000000E-03 0. -1.
        -11    1    4    4    0    0  0.17899586719E+02  0.44165496664E+01 -0.84553556261E+01  0.20282853712E+02  0.51100000000E-03 0.  1.
        -12    1    4    4    0    0  0.29906383076E+01  0.56484392955E+01  0.11273838546E+02  0.12959483767E+02  0.00000000000E+00 0.  1.
</event>
<event>
 8    1  0.1269154E-006  0.9118800E+02  0.7816164E-02  0.1184000E+00
        -11   -1    0    0    0    0  0.00000000000E+00  0.00000000000E+00  0.45593999997E+02  0.45594000000E+02  0.51100000000E-03 0. -1.
         11   -1    0    0    0    0 -0.00000000000E+00 -0.00000000000E+00 -0.45593999997E+02  0.45594000000E+02  0.51100000000E-03 0.  1.
         23    2    1    2    0    0 -0.17763568394E-14  0.00000000000E+00  0.00000000000E+00  0.91188000000E+02  0.91188000000E+02 0.  0.
    9900012    2    3    3    0    0 -0.12760774351E+02  0.32522549175E+02  0.11628780833E+02  0.54367053373E+02  0.39999929773E+02 0.  0.
        -12    1    3    3    0    0  0.12760774351E+02 -0.32522549175E+02 -0.11628780833E+02  0.36820946627E+02  0.00000000000E+00 0.  1.
         11    1    4    4    0    0  0.42651481994E+01  0.24464833655E+01  0.31603361487E+01  0.58450401928E+01  0.51100000000E-03 0. -1.
        -11    1    4    4    0    0 -0.87186028273E+01  0.20538699406E+02  0.21054992990E+02  0.30678411605E+02  0.51100000000E-03 0.  1.
        -12    1    4    4    0    0 -0.83073197236E+01  0.95373664032E+01 -0.12586548306E+02  0.17843601575E+02  0.00000000000E+00 0.  1.
</event>
<event>
 8    1  0.1269154E-006  0.9118800E+02  0.7816164E-02  0.1184000E+00
        -11   -1    0    0    0    0  0.00000000000E+00  0.00000000000E+00  0.45593999997E+02  0.45594000000E+02  0.51100000000E-03 0. -1.
         11   -1    0    0    0    0 -0.00000000000E+00 -0.00000000000E+00 -0.45593999997E+02  0.45594000000E+02  0.51100000000E-03 0.  1.
         23    2    1    2    0    0  0.00000000000E+00  0.00000000000E+00  0.00000000000E+00  0.91188000000E+02  0.91188000000E+02 0.  0.
    9900012    2    3    3    0    0 -0.26815828883E+01 -0.34600435010E+02 -0.12304397676E+02  0.54367093006E+02  0.40000020126E+02 0.  0.
         12    1    3    3    0    0  0.26815828883E+01  0.34600435010E+02  0.12304397676E+02  0.36820906994E+02  0.00000000000E+00 0. -1.
         11    1    4    4    0    0 -0.18112391864E+02 -0.28984106916E+02 -0.82889793408E+01  0.35168798267E+02  0.51100000000E-03 0. -1.
        -11    1    4    4    0    0  0.12221273984E+02 -0.80378256342E+01 -0.40489178351E+01  0.15177612283E+02  0.51100000000E-03 0.  1.
         12    1    4    4    0    0  0.32095349916E+01  0.24214975400E+01  0.33499499868E-01  0.40206824564E+01  0.00000000000E+00 0. -1.
</event>
<event>
 8    1  0.1269154E-006  0.9118800E+02  0.7816164E-02  0.1184000E+00
        -11   -1    0    0    0    0  0.00000000000E+00  0.00000000000E+00  0.45593999997E+02  0.45594000000E+02  0.51100000000E-03 0. -1.
         11   -1    0    0    0    0 -0.00000000000E+00 -0.00000000000E+00 -0.45593999997E+02  0.45594000000E+02  0.51100000000E-03 0.  1.
         23    2    1    2    0    0 -0.35527136788E-14 -0.17763568394E-14  0.17763568394E-14  0.91188000000E+02  0.91188000000E+02 0.  0.
    9900012    2    3    3    0    0  0.29989083415E+02  0.15406821011E+02  0.14800838809E+02  0.54367080848E+02  0.39999992409E+02 0.  0.
        -12    1    3    3    0    0 -0.29989083415E+02 -0.15406821011E+02 -0.14800838809E+02  0.36820919152E+02  0.00000000000E+00 0.  1.
         11    1    4    4    0    0  0.12039416940E+02  0.24692341876E+01  0.35928695295E+01  0.12804428509E+02  0.51100000000E-03 0. -1.
        -11    1    4    4    0    0  0.60447664833E+01  0.18661373877E+02  0.18075984207E+02  0.26674468732E+02  0.51100000000E-03 0.  1.
        -12    1    4    4    0    0  0.11904899992E+02 -0.57237870535E+01 -0.68680149282E+01  0.14888183607E+02  0.00000000000E+00 0.  1.
</event>
<event>
 8    1  0.1269154E-006  0.9118800E+02  0.7816164E-02  0.1184000E+00
        -11   -1    0    0    0    0  0.00000000000E+00  0.00000000000E+00  0.45593999997E+02  0.45594000000E+02  0.51100000000E-03 0.  1.
         11   -1    0    0    0    0 -0.00000000000E+00 -0.00000000000E+00 -0.45593999997E+02  0.45594000000E+02  0.51100000000E-03 0. -1.
         23    2    1    2    0    0  0.35527136788E-14 -0.35527136788E-14  0.35527136788E-14  0.91188000000E+02  0.91188000000E+02 0.  0.
    9900012    2    3    3    0    0 -0.22522448958E+02  0.22146285545E+02 -0.18922501622E+02  0.54367085588E+02  0.40000003214E+02 0.  0.
        -12    1    3    3    0    0  0.22522448958E+02 -0.22146285545E+02  0.18922501622E+02  0.36820914412E+02  0.00000000000E+00 0.  1.
         11    1    4    4    0    0 -0.20153839658E+02  0.26142844505E+01 -0.17075709190E+02  0.26544144001E+02  0.51100000000E-03 0. -1.
        -11    1    4    4    0    0 -0.91778908135E+01  0.18780394793E+02 -0.16770363389E+01  0.20970201704E+02  0.51100000000E-03 0.  1.
         12    1    4    4    0    0  0.68092815135E+01  0.75160630202E+00 -0.16975609293E+00  0.68527398823E+01  0.00000000000E+00 0. -1.
</event>
<event>
 8    1  0.1269154E-006  0.9118800E+02  0.7816164E-02  0.1184000E+00
        -11   -1    0    0    0    0  0.00000000000E+00  0.00000000000E+00  0.45593999997E+02  0.45594000000E+02  0.51100000000E-03 0.  1.
         11   -1    0    0    0    0 -0.00000000000E+00 -0.00000000000E+00 -0.45593999997E+02  0.45594000000E+02  0.51100000000E-03 0. -1.
         23    2    1    2    0    0  0.35527136788E-14  0.17763568394E-14  0.35527136788E-14  0.91188000000E+02  0.91188000000E+02 0.  0.
    9900012    2    3    3    0    0  0.30639228144E+02  0.24670518596E+01  0.20271441014E+02  0.54367082482E+02  0.39999996133E+02 0.  0.
         12    1    3    3    0    0 -0.30639228144E+02 -0.24670518596E+01 -0.20271441014E+02  0.36820917518E+02  0.00000000000E+00 0. -1.
         11    1    4    4    0    0  0.52169853643E+01 -0.11303065767E+02 -0.27537046791E+01  0.12749867519E+02  0.51100000000E-03 0. -1.
        -11    1    4    4    0    0 -0.19611213478E+01 -0.95976572198E+00  0.55165595948E+01  0.59329231586E+01  0.51100000000E-03 0.  1.
        -12    1    4    4    0    0  0.27383364127E+02  0.14729883349E+02  0.17508586098E+02  0.35684291804E+02  0.00000000000E+00 0.  1.
</event>
<event>
 8    1  0.1269154E-006  0.9118800E+02  0.7816164E-02  0.1184000E+00
        -11   -1    0    0    0    0  0.00000000000E+00  0.00000000000E+00  0.45593999997E+02  0.45594000000E+02  0.51100000000E-03 0.  1.
         11   -1    0    0    0    0 -0.00000000000E+00 -0.00000000000E+00 -0.45593999997E+02  0.45594000000E+02  0.51100000000E-03 0. -1.
         23    2    1    2    0    0 -0.35527136788E-14 -0.35527136788E-14  0.00000000000E+00  0.91188000000E+02  0.91188000000E+02 0.  0.
    9900012    2    3    3    0    0 -0.14472209884E+02  0.17626361820E+02 -0.28907550237E+02  0.54367082702E+02  0.39999996637E+02 0.  0.
        -12    1    3    3    0    0  0.14472209884E+02 -0.17626361820E+02  0.28907550237E+02  0.36820917298E+02  0.00000000000E+00 0.  1.
         11    1    4    4    0    0  0.90880086182E+01  0.25916984060E+01 -0.53610884642E+01  0.10865084954E+02  0.51100000000E-03 0. -1.
        -11    1    4    4    0    0 -0.43509040932E+01  0.28925095952E+01 -0.19790596177E+02  0.20468626615E+02  0.51100000000E-03 0.  1.
         12    1    4    4    0    0 -0.19209314409E+02  0.12142153819E+02 -0.37558655956E+01  0.23033371134E+02  0.00000000000E+00 0. -1.
</event>
<event>
 8    1  0.1269154E-006  0.9118800E+02  0.7816164E-02  0.1184000E+00
        -11   -1    0    0    0    0  0.00000000000E+00  0.00000000000E+00  0.45593999997E+02  0.45594000000E+02  0.51100000000E-03 0.  1.
         11   -1    0    0    0    0 -0.00000000000E+00 -0.00000000000E+00 -0.45593999997E+02  0.45594000000E+02  0.51100000000E-03 0. -1.
         23    2    1    2    0    0  0.35527136788E-14  0.00000000000E+00  0.00000000000E+00  0.91188000000E+02  0.91188000000E+02 0.  0.
    9900012    2    3    3    0    0 -0.81270735420E+01  0.27218821018E+02 -0.23427906131E+02  0.54367077583E+02  0.39999984966E+02 0.  0.
         12    1    3    3    0    0  0.81270735420E+01 -0.27218821018E+02  0.23427906131E+02  0.36820922417E+02  0.00000000000E+00 0. -1.
         11    1    4    4    0    0  0.99414621290E+00  0.30738077362E+01 -0.21359938837E+02  0.21602861108E+02  0.51100000000E-03 0. -1.
        -11    1    4    4    0    0  0.51089270215E+01  0.12907802590E+02 -0.42090836923E+01  0.14506167267E+02  0.51100000000E-03 0.  1.
         12    1    4    4    0    0 -0.14230146776E+02  0.11237210692E+02  0.21411163981E+01  0.18258049207E+02  0.00000000000E+00 0. -1.
</event>
<event>
 8    1  0.1269154E-006  0.9118800E+02  0.7816164E-02  0.1184000E+00
        -11   -1    0    0    0    0  0.00000000000E+00  0.00000000000E+00  0.45593999997E+02  0.45594000000E+02  0.51100000000E-03 0.  1.
         11   -1    0    0    0    0 -0.00000000000E+00 -0.00000000000E+00 -0.45593999997E+02  0.45594000000E+02  0.51100000000E-03 0. -1.
         23    2    1    2    0    0  0.71054273576E-14 -0.35527136788E-14  0.35527136788E-14  0.91188000000E+02  0.91188000000E+02 0.  0.
    9900012    2    3    3    0    0 -0.26441609322E+02 -0.19462501069E+02  0.16668324318E+02  0.54367072703E+02  0.39999973841E+02 0.  0.
         12    1    3    3    0    0  0.26441609322E+02  0.19462501069E+02 -0.16668324318E+02  0.36820927297E+02  0.00000000000E+00 0. -1.
         11    1    4    4    0    0 -0.59937224347E+01  0.74585500853E+00  0.12729063905E+02  0.14089360400E+02  0.51100000000E-03 0. -1.
        -11    1    4    4    0    0 -0.39015565247E+01 -0.19437799403E+02 -0.63021750646E+01  0.20803067076E+02  0.51100000000E-03 0.  1.
        -12    1    4    4    0    0 -0.16546330363E+02 -0.77055667472E+00  0.10241435478E+02  0.19474645227E+02  0.00000000000E+00 0.  1.
</event>
<event>
 8    1  0.1269154E-006  0.9118800E+02  0.7816164E-02  0.1184000E+00
        -11   -1    0    0    0    0  0.00000000000E+00  0.00000000000E+00  0.45593999997E+02  0.45594000000E+02  0.51100000000E-03 0. -1.
         11   -1    0    0    0    0 -0.00000000000E+00 -0.00000000000E+00 -0.45593999997E+02  0.45594000000E+02  0.51100000000E-03 0.  1.
         23    2    1    2    0    0  0.00000000000E+00 -0.71054273576E-14 -0.35527136788E-14  0.91188000000E+02  0.91188000000E+02 0.  0.
    9900012    2    3    3    0    0  0.98214419125E+01  0.19644157210E+02  0.29553785948E+02  0.54367083423E+02  0.39999998279E+02 0.  0.
        -12    1    3    3    0    0 -0.98214419125E+01 -0.19644157210E+02 -0.29553785948E+02  0.36820916577E+02  0.00000000000E+00 0.  1.
         11    1    4    4    0    0  0.63178963511E+01  0.85274632842E+01  0.16971518292E+02  0.20016640021E+02  0.51100000000E-03 0. -1.
        -11    1    4    4    0    0 -0.76444396031E+00  0.17952721903E+02  0.17357177455E+02  0.24983118455E+02  0.51100000000E-03 0.  1.
        -12    1    4    4    0    0  0.42679895218E+01 -0.68360279769E+01 -0.47749097986E+01  0.93673249460E+01  0.00000000000E+00 0.  1.
</event>
<event>
 8    1  0.1269154E-006  0.9118800E+02  0.7816164E-02  0.1184000E+00
        -11   -1    0    0    0    0  0.00000000000E+00  0.00000000000E+00  0.45593999997E+02  0.45594000000E+02  0.51100000000E-03 0.  1.
         11   -1    0    0    0    0 -0.00000000000E+00 -0.00000000000E+00 -0.45593999997E+02  0.45594000000E+02  0.51100000000E-03 0. -1.
         23    2    1    2    0    0  0.00000000000E+00  0.00000000000E+00  0.35527136788E-14  0.91188000000E+02  0.91188000000E+02 0.  0.
    9900012    2    3    3    0    0  0.19152850936E+02 -0.19687772233E+02  0.24522229925E+02  0.54367084273E+02  0.40000000217E+02 0.  0.
         12    1    3    3    0    0 -0.19152850936E+02  0.19687772233E+02 -0.24522229925E+02  0.36820915727E+02  0.00000000000E+00 0. -1.
         11    1    4    4    0    0  0.14491428433E+00 -0.49474036287E+01  0.22845788118E+01  0.54513395990E+01  0.51100000000E-03 0. -1.
        -11    1    4    4    0    0  0.10687960260E+02 -0.13033017577E+02  0.31882893447E+02  0.36063983924E+02  0.51100000000E-03 0.  1.
         12    1    4    4    0    0  0.83199763918E+01 -0.17073510281E+01 -0.96452423340E+01  0.12851760750E+02  0.00000000000E+00 0. -1.
</event>
<event>
 8    1  0.1269154E-006  0.9118800E+02  0.7816164E-02  0.1184000E+00
        -11   -1    0    0    0    0  0.00000000000E+00  0.00000000000E+00  0.45593999997E+02  0.45594000000E+02  0.51100000000E-03 0. -1.
         11   -1    0    0    0    0 -0.00000000000E+00 -0.00000000000E+00 -0.45593999997E+02  0.45594000000E+02  0.51100000000E-03 0.  1.
         23    2    1    2    0    0 -0.35527136788E-14  0.13322676296E-14  0.35527136788E-14  0.91188000000E+02  0.91188000000E+02 0.  0.
    9900012    2    3    3    0    0  0.26390341407E+02 -0.38681362423E+01 -0.25384387315E+02  0.54367085876E+02  0.40000003872E+02 0.  0.
         12    1    3    3    0    0 -0.26390341407E+02  0.38681362423E+01  0.25384387315E+02  0.36820914124E+02  0.00000000000E+00 0. -1.
         11    1    4    4    0    0 -0.23684473107E+01  0.68135326559E+01 -0.17927449896E+01  0.74328799786E+01  0.51100000000E-03 0. -1.
        -11    1    4    4    0    0  0.25234250046E+02 -0.13309674235E+02 -0.28513104060E+02  0.40334996058E+02  0.51100000000E-03 0.  1.
        -12    1    4    4    0    0  0.35245386716E+01  0.26280053368E+01  0.49214617349E+01  0.65992098395E+01  0.00000000000E+00 0.  1.
</event>
<event>
 8    1  0.1269154E-006  0.9118800E+02  0.7816164E-02  0.1184000E+00
        -11   -1    0    0    0    0  0.00000000000E+00  0.00000000000E+00  0.45593999997E+02  0.45594000000E+02  0.51100000000E-03 0. -1.
         11   -1    0    0    0    0 -0.00000000000E+00 -0.00000000000E+00 -0.45593999997E+02  0.45594000000E+02  0.51100000000E-03 0.  1.
         23    2    1    2    0    0 -0.22204460493E-15 -0.71054273576E-14  0.00000000000E+00  0.91188000000E+02  0.91188000000E+02 0.  0.
    9900012    2    3    3    0    0 -0.55859946646E+00  0.35454664896E+02  0.99213894602E+01  0.54367092012E+02  0.40000017859E+02 0.  0.
        -12    1    3    3    0    0  0.55859946646E+00 -0.35454664896E+02 -0.99213894602E+01  0.36820907988E+02  0.00000000000E+00 0.  1.
         11    1    4    4    0    0  0.52020099944E+00  0.27464548483E+01  0.11410473565E+02  0.11747873448E+02  0.51100000000E-03 0. -1.
        -11    1    4    4    0    0 -0.50876904001E+01  0.14951529744E+01  0.81352609709E+01  0.97109498685E+01  0.51100000000E-03 0.  1.
        -12    1    4    4    0    0  0.40088899342E+01  0.31213057074E+02 -0.96243450753E+01  0.32908268695E+02  0.00000000000E+00 0.  1.
</event>
<event>
 8    1  0.1269154E-006  0.9118800E+02  0.7816164E-02  0.1184000E+00
        -11   -1    0    0    0    0  0.00000000000E+00  0.00000000000E+00  0.45593999997E+02  0.45594000000E+02  0.51100000000E-03 0.  1.
         11   -1    0    0    0    0 -0.00000000000E+00 -0.00000000000E+00 -0.45593999997E+02  0.45594000000E+02  0.51100000000E-03 0. -1.
         23    2    1    2    0    0  0.00000000000E+00  0.00000000000E+00  0.00000000000E+00  0.91188000000E+02  0.91188000000E+02 0.  0.
    9900012    2    3    3    0    0 -0.38342635415E+01  0.29369201010E+02  0.21875298223E+02  0.54367079082E+02  0.39999988384E+02 0.  0.
        -12    1    3    3    0    0  0.38342635415E+01 -0.29369201010E+02 -0.21875298223E+02  0.36820920918E+02  0.00000000000E+00 0.  1.
         11    1    4    4    0    0 -0.12494133761E+02  0.34590673502E+02  0.19314483916E+02  0.41541152619E+02  0.51100000000E-03 0. -1.
        -11    1    4    4    0    0  0.59177892013E+01 -0.47233674637E+01  0.50401099495E+01  0.90957758214E+01  0.51100000000E-03 0.  1.
         12    1    4    4    0    0  0.27420810180E+01 -0.49810502817E+00 -0.24792956420E+01  0.37301506416E+01  0.00000000000E+00 0. -1.
</event>
<event>
 8    1  0.1269154E-006  0.9118800E+02  0.7816164E-02  0.1184000E+00
        -11   -1    0    0    0    0  0.00000000000E+00  0.00000000000E+00  0.45593999997E+02  0.45594000000E+02  0.51100000000E-03 0. -1.
         11   -1    0    0    0    0 -0.00000000000E+00 -0.00000000000E+00 -0.45593999997E+02  0.45594000000E+02  0.51100000000E-03 0.  1.
         23    2    1    2    0    0  0.17763568394E-14  0.00000000000E+00  0.00000000000E+00  0.91188000000E+02  0.91188000000E+02 0.  0.
    9900012    2    3    3    0    0 -0.86241894541E+01  0.27335066417E+02  0.23112693407E+02  0.54367094304E+02  0.40000023085E+02 0.  0.
        -12    1    3    3    0    0  0.86241894541E+01 -0.27335066417E+02 -0.23112693407E+02  0.36820905696E+02  0.00000000000E+00 0.  1.
         11    1    4    4    0    0  0.20766364062E+01  0.17715849888E+02  0.14028800516E+02  0.22692972485E+02  0.51100000000E-03 0. -1.
        -11    1    4    4    0    0  0.50241248213E+01  0.10588156483E+01 -0.62588501613E+01  0.80954386169E+01  0.51100000000E-03 0.  1.
         12    1    4    4    0    0 -0.15724950682E+02  0.85604008802E+01  0.15342743053E+02  0.23578683202E+02  0.00000000000E+00 0. -1.
</event>
<event>
 8    1  0.1269154E-006  0.9118800E+02  0.7816164E-02  0.1184000E+00
        -11   -1    0    0    0    0  0.00000000000E+00  0.00000000000E+00  0.45593999997E+02  0.45594000000E+02  0.51100000000E-03 0.  1.
         11   -1    0    0    0    0 -0.00000000000E+00 -0.00000000000E+00 -0.45593999997E+02  0.45594000000E+02  0.51100000000E-03 0. -1.
         23    2    1    2    0    0 -0.35527136788E-14  0.00000000000E+00  0.00000000000E+00  0.91188000000E+02  0.91188000000E+02 0.  0.
    9900012    2    3    3    0    0  0.22508401821E+02  0.25884480059E+02  0.13384508939E+02  0.54367088278E+02  0.40000009348E+02 0.  0.
         12    1    3    3    0    0 -0.22508401821E+02 -0.25884480059E+02 -0.13384508939E+02  0.36820911722E+02  0.00000000000E+00 0. -1.
         11    1    4    4    0    0 -0.20920930310E+01 -0.57511249686E+01  0.20852269250E+01  0.64653277755E+01  0.51100000000E-03 0. -1.
        -11    1    4    4    0    0  0.71462153785E+01  0.17264470585E+02  0.16243137783E+02  0.24758228210E+02  0.51100000000E-03 0.  1.
         12    1    4    4    0    0  0.17454279473E+02  0.14371134443E+02 -0.49438557688E+01  0.23143532292E+02  0.00000000000E+00 0. -1.
</event>
<event>
 8    1  0.1269154E-006  0.9118800E+02  0.7816164E-02  0.1184000E+00
        -11   -1    0    0    0    0  0.00000000000E+00  0.00000000000E+00  0.45593999997E+02  0.45594000000E+02  0.51100000000E-03 0.  1.
         11   -1    0    0    0    0 -0.00000000000E+00 -0.00000000000E+00 -0.45593999997E+02  0.45594000000E+02  0.51100000000E-03 0. -1.
         23    2    1    2    0    0  0.35527136788E-14  0.00000000000E+00 -0.35527136788E-14  0.91188000000E+02  0.91188000000E+02 0.  0.
    9900012    2    3    3    0    0  0.27386457197E+02  0.12061687697E+02 -0.21454102938E+02  0.54367070072E+02  0.39999967842E+02 0.  0.
        -12    1    3    3    0    0 -0.27386457197E+02 -0.12061687697E+02  0.21454102938E+02  0.36820929928E+02  0.00000000000E+00 0.  1.
         11    1    4    4    0    0  0.30049247833E+02  0.88650337375E+01 -0.29724357807E+02  0.43186613270E+02  0.51100000000E-03 0. -1.
        -11    1    4    4    0    0 -0.22180815142E+01 -0.12786991494E+01  0.12648549859E+01  0.28556637608E+01  0.51100000000E-03 0.  1.
         12    1    4    4    0    0 -0.44470912147E+00  0.44753531086E+01  0.70053998825E+01  0.83247930403E+01  0.00000000000E+00 0. -1.
</event>
<event>
 8    1  0.1269154E-006  0.9118800E+02  0.7816164E-02  0.1184000E+00
        -11   -1    0    0    0    0  0.00000000000E+00  0.00000000000E+00  0.45593999997E+02  0.45594000000E+02  0.51100000000E-03 0.  1.
         11   -1    0    0    0    0 -0.00000000000E+00 -0.00000000000E+00 -0.45593999997E+02  0.45594000000E+02  0.51100000000E-03 0. -1.
         23    2    1    2    0    0  0.35527136788E-14  0.35527136788E-14  0.17763568394E-14  0.91188000000E+02  0.91188000000E+02 0.  0.
    9900012    2    3    3    0    0  0.25051947854E+02  0.25142846722E+02 -0.97989367331E+01  0.54367054960E+02  0.39999933392E+02 0.  0.
        -12    1    3    3    0    0 -0.25051947854E+02 -0.25142846722E+02  0.97989367331E+01  0.36820945040E+02  0.00000000000E+00 0.  1.
         11    1    4    4    0    0  0.10310421866E+02  0.22288192868E+02 -0.18731457973E+02  0.30885852075E+02  0.51100000000E-03 0. -1.
        -11    1    4    4    0    0  0.58810806243E+01 -0.61807432654E+01  0.11093817255E+01  0.86034542305E+01  0.51100000000E-03 0.  1.
        -12    1    4    4    0    0  0.88604453636E+01  0.90353971196E+01  0.78231395144E+01  0.14877748654E+02  0.00000000000E+00 0.  1.
</event>
<event>
 8    1  0.1269154E-006  0.9118800E+02  0.7816164E-02  0.1184000E+00
        -11   -1    0    0    0    0  0.00000000000E+00  0.00000000000E+00  0.45593999997E+02  0.45594000000E+02  0.51100000000E-03 0. -1.
         11   -1    0    0    0    0 -0.00000000000E+00 -0.00000000000E+00 -0.45593999997E+02  0.45594000000E+02  0.51100000000E-03 0.  1.
         23    2    1    2    0    0  0.00000000000E+00  0.17763568394E-14  0.00000000000E+00  0.91188000000E+02  0.91188000000E+02 0.  0.
    9900012    2    3    3    0    0 -0.27074128073E+02 -0.14000017154E+02  0.20658407491E+02  0.54367099803E+02  0.40000035622E+02 0.  0.
        -12    1    3    3    0    0  0.27074128073E+02  0.14000017154E+02 -0.20658407491E+02  0.36820900197E+02  0.00000000000E+00 0.  1.
         11    1    4    4    0    0 -0.35138790364E+02 -0.11125486065E+02  0.12042675618E+02  0.38775469883E+02  0.51100000000E-03 0. -1.
        -11    1    4    4    0    0  0.32080924641E+01  0.35039617353E+01  0.46489423118E+01  0.66469744982E+01  0.51100000000E-03 0.  1.
         12    1    4    4    0    0  0.48565698264E+01 -0.63784928243E+01  0.39667895616E+01  0.89446554217E+01  0.00000000000E+00 0. -1.
</event>
<event>
 8    1  0.1269154E-006  0.9118800E+02  0.7816164E-02  0.1184000E+00
        -11   -1    0    0    0    0  0.00000000000E+00  0.00000000000E+00  0.45593999997E+02  0.45594000000E+02  0.51100000000E-03 0.  1.
         11   -1    0    0    0    0 -0.00000000000E+00 -0.00000000000E+00 -0.45593999997E+02  0.45594000000E+02  0.51100000000E-03 0. -1.
         23    2    1    2    0    0 -0.17763568394E-14  0.35527136788E-14  0.00000000000E+00  0.91188000000E+02  0.91188000000E+02 0.  0.
    9900012    2    3    3    0    0 -0.13961018884E+02 -0.25792446198E+02 -0.22262494612E+02  0.54367095673E+02  0.40000026205E+02 0.  0.
        -12    1    3    3    0    0  0.13961018884E+02  0.25792446198E+02  0.22262494612E+02  0.36820904327E+02  0.00000000000E+00 0.  1.
         11    1    4    4    0    0  0.39413125223E+01  0.85120044395E+01 -0.57141957830E+01  0.10983633173E+02  0.51100000000E-03 0. -1.
        -11    1    4    4    0    0 -0.39782686787E+01 -0.18202378484E+02 -0.56587469045E+01  0.19472406655E+02  0.51100000000E-03 0.  1.
         12    1    4    4    0    0 -0.13924062727E+02 -0.16102072154E+02 -0.10889551924E+02  0.23911055844E+02  0.00000000000E+00 0. -1.
</event>
<event>
 8    1  0.1269154E-006  0.9118800E+02  0.7816164E-02  0.1184000E+00
        -11   -1    0    0    0    0  0.00000000000E+00  0.00000000000E+00  0.45593999997E+02  0.45594000000E+02  0.51100000000E-03 0.  1.
         11   -1    0    0    0    0 -0.00000000000E+00 -0.00000000000E+00 -0.45593999997E+02  0.45594000000E+02  0.51100000000E-03 0. -1.
         23    2    1    2    0    0 -0.35527136788E-14 -0.35527136788E-14  0.88817841970E-15  0.91188000000E+02  0.91188000000E+02 0.  0.
    9900012    2    3    3    0    0 -0.28958459013E+02 -0.22016023691E+02  0.56994082082E+01  0.54367069790E+02  0.39999967201E+02 0.  0.
        -12    1    3    3    0    0  0.28958459013E+02  0.22016023691E+02 -0.56994082082E+01  0.36820930210E+02  0.00000000000E+00 0.  1.
         11    1    4    4    0    0 -0.26633432363E+02 -0.72889463683E+01  0.39427437597E+01  0.27892896716E+02  0.51100000000E-03 0. -1.
        -11    1    4    4    0    0 -0.58632562651E+01  0.20569381968E+01 -0.50631410721E+01  0.80152458823E+01  0.51100000000E-03 0.  1.
        -12    1    4    4    0    0  0.35382296147E+01 -0.16784015519E+02  0.68198055206E+01  0.18458927193E+02  0.00000000000E+00 0.  1.
</event>
<event>
 8    1  0.1269154E-006  0.9118800E+02  0.7816164E-02  0.1184000E+00
        -11   -1    0    0    0    0  0.00000000000E+00  0.00000000000E+00  0.45593999997E+02  0.45594000000E+02  0.51100000000E-03 0.  1.
         11   -1    0    0    0    0 -0.00000000000E+00 -0.00000000000E+00 -0.45593999997E+02  0.45594000000E+02  0.51100000000E-03 0. -1.
         23    2    1    2    0    0  0.35527136788E-14  0.00000000000E+00 -0.71054273576E-14  0.91188000000E+02  0.91188000000E+02 0.  0.
    9900012    2    3    3    0    0 -0.16532576623E+02  0.22129151724E+02 -0.24346546988E+02  0.54367084801E+02  0.40000001421E+02 0.  0.
        -12    1    3    3    0    0  0.16532576623E+02 -0.22129151724E+02  0.24346546988E+02  0.36820915199E+02  0.00000000000E+00 0.  1.
         11    1    4    4    0    0 -0.29806709075E+01  0.12208741116E+02  0.41101312735E+01  0.13222365070E+02  0.51100000000E-03 0. -1.
        -11    1    4    4    0    0  0.63882456387E+01  0.71070999995E+01 -0.99266944650E+01  0.13778962806E+02  0.51100000000E-03 0.  1.
         12    1    4    4    0    0 -0.19940151354E+02  0.28133106091E+01 -0.18529983796E+02  0.27365756926E+02  0.00000000000E+00 0. -1.
</event>
<event>
 8    1  0.1269154E-006  0.9118800E+02  0.7816164E-02  0.1184000E+00
        -11   -1    0    0    0    0  0.00000000000E+00  0.00000000000E+00  0.45593999997E+02  0.45594000000E+02  0.51100000000E-03 0.  1.
         11   -1    0    0    0    0 -0.00000000000E+00 -0.00000000000E+00 -0.45593999997E+02  0.45594000000E+02  0.51100000000E-03 0. -1.
         23    2    1    2    0    0  0.71054273576E-14  0.35527136788E-14  0.00000000000E+00  0.91188000000E+02  0.91188000000E+02 0.  0.
    9900012    2    3    3    0    0 -0.32364009394E+02 -0.15691611691E+02 -0.78818583949E+01  0.54367089185E+02  0.40000011414E+02 0.  0.
        -12    1    3    3    0    0  0.32364009394E+02  0.15691611691E+02  0.78818583949E+01  0.36820910815E+02  0.00000000000E+00 0.  1.
         11    1    4    4    0    0 -0.71711570082E+01 -0.58653517087E+01 -0.56631224161E+01  0.10858121351E+02  0.51100000000E-03 0. -1.
        -11    1    4    4    0    0 -0.28108524131E+02 -0.15473944244E+02 -0.98625515001E+01  0.33567871568E+02  0.51100000000E-03 0.  1.
        -12    1    4    4    0    0  0.29156717451E+01  0.56476842613E+01  0.76438155214E+01  0.99410962658E+01  0.00000000000E+00 0.  1.
</event>
<event>
 8    1  0.1269154E-006  0.9118800E+02  0.7816164E-02  0.1184000E+00
        -11   -1    0    0    0    0  0.00000000000E+00  0.00000000000E+00  0.45593999997E+02  0.45594000000E+02  0.51100000000E-03 0.  1.
         11   -1    0    0    0    0 -0.00000000000E+00 -0.00000000000E+00 -0.45593999997E+02  0.45594000000E+02  0.51100000000E-03 0. -1.
         23    2    1    2    0    0  0.00000000000E+00  0.00000000000E+00  0.17763568394E-14  0.91188000000E+02  0.91188000000E+02 0.  0.
    9900012    2    3    3    0    0 -0.21313424204E+01  0.35219410058E+02  0.10527466250E+02  0.54367122621E+02  0.40000087638E+02 0.  0.
        -12    1    3    3    0    0  0.21313424204E+01 -0.35219410058E+02 -0.10527466250E+02  0.36820877379E+02  0.00000000000E+00 0.  1.
         11    1    4    4    0    0 -0.42315040337E+01  0.22228497444E+02  0.48706101542E+01  0.23145940649E+02  0.51100000000E-03 0. -1.
        -11    1    4    4    0    0  0.61074905628E+01  0.16333740653E+01 -0.97777772140E+01  0.11643636860E+02  0.51100000000E-03 0.  1.
         12    1    4    4    0    0 -0.40073289495E+01  0.11357538549E+02  0.15434633310E+02  0.19577545112E+02  0.00000000000E+00 0. -1.
</event>
<event>
 8    1  0.1269154E-006  0.9118800E+02  0.7816164E-02  0.1184000E+00
        -11   -1    0    0    0    0  0.00000000000E+00  0.00000000000E+00  0.45593999997E+02  0.45594000000E+02  0.51100000000E-03 0. -1.
         11   -1    0    0    0    0 -0.00000000000E+00 -0.00000000000E+00 -0.45593999997E+02  0.45594000000E+02  0.51100000000E-03 0.  1.
         23    2    1    2    0    0 -0.17763568394E-14  0.00000000000E+00  0.00000000000E+00  0.91188000000E+02  0.91188000000E+02 0.  0.
    9900012    2    3    3    0    0 -0.15548568562E+02  0.30590625543E+02 -0.13350495632E+02  0.54367080823E+02  0.39999992351E+02 0.  0.
        -12    1    3    3    0    0  0.15548568562E+02 -0.30590625543E+02  0.13350495632E+02  0.36820919177E+02  0.00000000000E+00 0.  1.
         11    1    4    4    0    0 -0.49809716514E+01  0.40598166241E+01  0.44947401456E+01  0.78418670514E+01  0.51100000000E-03 0.  1.
        -11    1    4    4    0    0 -0.13352865763E+02  0.68110069644E+01  0.53841726772E+01  0.15927277094E+02  0.51100000000E-03 0. -1.
        -12    1    4    4    0    0  0.27852688527E+01  0.19719801955E+02 -0.23229408455E+02  0.30597936677E+02  0.00000000000E+00 0.  1.
</event>
<event>
 8    1  0.1269154E-006  0.9118800E+02  0.7816164E-02  0.1184000E+00
        -11   -1    0    0    0    0  0.00000000000E+00  0.00000000000E+00  0.45593999997E+02  0.45594000000E+02  0.51100000000E-03 0. -1.
         11   -1    0    0    0    0 -0.00000000000E+00 -0.00000000000E+00 -0.45593999997E+02  0.45594000000E+02  0.51100000000E-03 0.  1.
         23    2    1    2    0    0  0.35527136788E-14  0.00000000000E+00 -0.35527136788E-14  0.91188000000E+02  0.91188000000E+02 0.  0.
    9900012    2    3    3    0    0  0.21007716115E+02 -0.20572139230E+02 -0.22164003268E+02  0.54367080814E+02  0.39999992331E+02 0.  0.
         12    1    3    3    0    0 -0.21007716115E+02  0.20572139230E+02  0.22164003268E+02  0.36820919186E+02  0.00000000000E+00 0. -1.
         11    1    4    4    0    0 -0.32377190277E+01 -0.83417848681E-01 -0.32094377022E+01  0.45596352557E+01  0.51100000000E-03 0. -1.
        -11    1    4    4    0    0 -0.65258749200E+00  0.11075796445E+00  0.78161409318E+01  0.78441186305E+01  0.51100000000E-03 0.  1.
        -12    1    4    4    0    0  0.24898022635E+02 -0.20599479346E+02 -0.26770706498E+02  0.41963326927E+02  0.00000000000E+00 0.  1.
</event>
<event>
 8    1  0.1269154E-006  0.9118800E+02  0.7816164E-02  0.1184000E+00
        -11   -1    0    0    0    0  0.00000000000E+00  0.00000000000E+00  0.45593999997E+02  0.45594000000E+02  0.51100000000E-03 0. -1.
         11   -1    0    0    0    0 -0.00000000000E+00 -0.00000000000E+00 -0.45593999997E+02  0.45594000000E+02  0.51100000000E-03 0.  1.
         23    2    1    2    0    0  0.00000000000E+00  0.35527136788E-14 -0.13322676296E-14  0.91188000000E+02  0.91188000000E+02 0.  0.
    9900012    2    3    3    0    0 -0.19263432471E+02 -0.31236323479E+02  0.29986134324E+01  0.54367089941E+02  0.40000013138E+02 0.  0.
        -12    1    3    3    0    0  0.19263432471E+02  0.31236323479E+02 -0.29986134324E+01  0.36820910059E+02  0.00000000000E+00 0.  1.
         11    1    4    4    0    0 -0.62061406924E+01  0.12060590706E+00 -0.93454914410E+01  0.11219132703E+02  0.51100000000E-03 0. -1.
        -11    1    4    4    0    0 -0.15514752368E+02 -0.12655688760E+02  0.13663674398E+02  0.24239843179E+02  0.51100000000E-03 0.  1.
         12    1    4    4    0    0  0.24574605900E+01 -0.18701240627E+02 -0.13195695243E+01  0.18908114059E+02  0.00000000000E+00 0. -1.
</event>
<event>
 8    1  0.1269154E-006  0.9118800E+02  0.7816164E-02  0.1184000E+00
        -11   -1    0    0    0    0  0.00000000000E+00  0.00000000000E+00  0.45593999997E+02  0.45594000000E+02  0.51100000000E-03 0. -1.
         11   -1    0    0    0    0 -0.00000000000E+00 -0.00000000000E+00 -0.45593999997E+02  0.45594000000E+02  0.51100000000E-03 0.  1.
         23    2    1    2    0    0 -0.33306690739E-15  0.00000000000E+00  0.00000000000E+00  0.91188000000E+02  0.91188000000E+02 0.  0.
    9900012    2    3    3    0    0 -0.46239201303E+00  0.16312848817E+02 -0.33006918774E+02  0.54367088416E+02  0.40000009662E+02 0.  0.
         12    1    3    3    0    0  0.46239201303E+00 -0.16312848817E+02  0.33006918774E+02  0.36820911584E+02  0.00000000000E+00 0. -1.
         11    1    4    4    0    0 -0.30566133648E+01 -0.28608537004E+01  0.76112698786E+01  0.86867023999E+01  0.51100000000E-03 0. -1.
        -11    1    4    4    0    0  0.26067955741E+01  0.85137331472E+01 -0.26722301917E+02  0.28166655024E+02  0.51100000000E-03 0.  1.
        -12    1    4    4    0    0 -0.12574222291E-01  0.10659969370E+02 -0.13895886736E+02  0.17513730992E+02  0.00000000000E+00 0.  1.
</event>
<event>
 8    1  0.1269154E-006  0.9118800E+02  0.7816164E-02  0.1184000E+00
        -11   -1    0    0    0    0  0.00000000000E+00  0.00000000000E+00  0.45593999997E+02  0.45594000000E+02  0.51100000000E-03 0. -1.
         11   -1    0    0    0    0 -0.00000000000E+00 -0.00000000000E+00 -0.45593999997E+02  0.45594000000E+02  0.51100000000E-03 0.  1.
         23    2    1    2    0    0  0.88817841970E-15 -0.28865798640E-14  0.00000000000E+00  0.91188000000E+02  0.91188000000E+02 0.  0.
    9900012    2    3    3    0    0  0.70427411868E+01 -0.12136770680E+01 -0.36120723242E+02  0.54367083893E+02  0.39999999350E+02 0.  0.
         12    1    3    3    0    0 -0.70427411868E+01  0.12136770680E+01  0.36120723242E+02  0.36820916107E+02  0.00000000000E+00 0. -1.
         11    1    4    4    0    0  0.63400565594E+01 -0.19383745131E+02 -0.16630878276E+02  0.26315622831E+02  0.51100000000E-03 0. -1.
        -11    1    4    4    0    0 -0.38313444232E+01  0.10398447496E+02 -0.12103677141E+02  0.16410542679E+02  0.51100000000E-03 0.  1.
         12    1    4    4    0    0  0.45340290506E+01  0.77716205666E+01 -0.73861678253E+01  0.11640918383E+02  0.00000000000E+00 0. -1.
</event>
<event>
 8    1  0.1269154E-006  0.9118800E+02  0.7816164E-02  0.1184000E+00
        -11   -1    0    0    0    0  0.00000000000E+00  0.00000000000E+00  0.45593999997E+02  0.45594000000E+02  0.51100000000E-03 0.  1.
         11   -1    0    0    0    0 -0.00000000000E+00 -0.00000000000E+00 -0.45593999997E+02  0.45594000000E+02  0.51100000000E-03 0. -1.
         23    2    1    2    0    0  0.00000000000E+00  0.00000000000E+00  0.00000000000E+00  0.91188000000E+02  0.91188000000E+02 0.  0.
    9900012    2    3    3    0    0 -0.28720705618E+02 -0.22953548677E+02  0.20087883859E+01  0.54367088023E+02  0.40000008766E+02 0.  0.
         12    1    3    3    0    0  0.28720705618E+02  0.22953548677E+02 -0.20087883859E+01  0.36820911977E+02  0.00000000000E+00 0. -1.
         11    1    4    4    0    0 -0.57341309995E+01  0.85393323729E+01 -0.66916347088E+00  0.10307678483E+02  0.51100000000E-03 0. -1.
        -11    1    4    4    0    0 -0.11219556965E+02 -0.33738569161E+01 -0.48205289671E+01  0.12668814813E+02  0.51100000000E-03 0.  1.
        -12    1    4    4    0    0 -0.11767017653E+02 -0.28119024133E+02  0.74984808238E+01  0.31390594727E+02  0.00000000000E+00 0.  1.
</event>
<event>
 8    1  0.1269154E-006  0.9118800E+02  0.7816164E-02  0.1184000E+00
        -11   -1    0    0    0    0  0.00000000000E+00  0.00000000000E+00  0.45593999997E+02  0.45594000000E+02  0.51100000000E-03 0. -1.
         11   -1    0    0    0    0 -0.00000000000E+00 -0.00000000000E+00 -0.45593999997E+02  0.45594000000E+02  0.51100000000E-03 0.  1.
         23    2    1    2    0    0  0.00000000000E+00  0.35527136788E-14  0.00000000000E+00  0.91188000000E+02  0.91188000000E+02 0.  0.
    9900012    2    3    3    0    0  0.24090174681E+02  0.22514045121E+02 -0.16387848450E+02  0.54367077677E+02  0.39999985180E+02 0.  0.
         12    1    3    3    0    0 -0.24090174681E+02 -0.22514045121E+02  0.16387848450E+02  0.36820922323E+02  0.00000000000E+00 0. -1.
         11    1    4    4    0    0  0.95221546630E+01 -0.14532829143E+01 -0.53459588026E+01  0.11016475681E+02  0.51100000000E-03 0. -1.
        -11    1    4    4    0    0  0.29345971653E+01  0.30355448528E+01 -0.17939510779E+02  0.18429661970E+02  0.51100000000E-03 0.  1.
        -12    1    4    4    0    0  0.11633422853E+02  0.20931783182E+02  0.68976211317E+01  0.24920940025E+02  0.00000000000E+00 0.  1.
</event>
<event>
 8    1  0.1269154E-006  0.9118800E+02  0.7816164E-02  0.1184000E+00
        -11   -1    0    0    0    0  0.00000000000E+00  0.00000000000E+00  0.45593999997E+02  0.45594000000E+02  0.51100000000E-03 0.  1.
         11   -1    0    0    0    0 -0.00000000000E+00 -0.00000000000E+00 -0.45593999997E+02  0.45594000000E+02  0.51100000000E-03 0. -1.
         23    2    1    2    0    0  0.00000000000E+00  0.88817841970E-15  0.22204460493E-14  0.91188000000E+02  0.91188000000E+02 0.  0.
    9900012    2    3    3    0    0  0.36101670665E+02  0.65387653670E+01 -0.31134399841E+01  0.54367087655E+02  0.40000007928E+02 0.  0.
         12    1    3    3    0    0 -0.36101670665E+02 -0.65387653670E+01  0.31134399841E+01  0.36820912345E+02  0.00000000000E+00 0. -1.
         11    1    4    4    0    0  0.10535178279E+02  0.35941045696E+01 -0.56448921710E+01  0.12480880454E+02  0.51100000000E-03 0. -1.
        -11    1    4    4    0    0  0.29325361348E+02  0.10424213728E+02  0.76827637839E+01  0.32057228664E+02  0.51100000000E-03 0.  1.
        -12    1    4    4    0    0 -0.37588689614E+01 -0.74795529303E+01 -0.51513115970E+01  0.98289785368E+01  0.00000000000E+00 0.  1.
</event>
<event>
 8    1  0.1269154E-006  0.9118800E+02  0.7816164E-02  0.1184000E+00
        -11   -1    0    0    0    0  0.00000000000E+00  0.00000000000E+00  0.45593999997E+02  0.45594000000E+02  0.51100000000E-03 0. -1.
         11   -1    0    0    0    0 -0.00000000000E+00 -0.00000000000E+00 -0.45593999997E+02  0.45594000000E+02  0.51100000000E-03 0.  1.
         23    2    1    2    0    0  0.00000000000E+00  0.44408920985E-15  0.00000000000E+00  0.91188000000E+02  0.91188000000E+02 0.  0.
    9900012    2    3    3    0    0 -0.24806167074E+02 -0.23157027704E+01  0.27112201501E+02  0.54367083737E+02  0.39999998996E+02 0.  0.
        -12    1    3    3    0    0  0.24806167074E+02  0.23157027704E+01 -0.27112201501E+02  0.36820916263E+02  0.00000000000E+00 0.  1.
         11    1    4    4    0    0 -0.51370171706E+01 -0.27398623079E+01  0.58315069097E+01  0.82402830034E+01  0.51100000000E-03 0. -1.
        -11    1    4    4    0    0  0.24176252708E+01 -0.77230540937E+01 -0.60138141411E+01  0.10082481702E+02  0.51100000000E-03 0.  1.
         12    1    4    4    0    0 -0.22086775174E+02  0.81472136313E+01  0.27294508732E+02  0.36044319032E+02  0.00000000000E+00 0. -1.
</event>
<event>
 8    1  0.1269154E-006  0.9118800E+02  0.7816164E-02  0.1184000E+00
        -11   -1    0    0    0    0  0.00000000000E+00  0.00000000000E+00  0.45593999997E+02  0.45594000000E+02  0.51100000000E-03 0.  1.
         11   -1    0    0    0    0 -0.00000000000E+00 -0.00000000000E+00 -0.45593999997E+02  0.45594000000E+02  0.51100000000E-03 0. -1.
         23    2    1    2    0    0  0.00000000000E+00 -0.88817841970E-15  0.00000000000E+00  0.91188000000E+02  0.91188000000E+02 0.  0.
    9900012    2    3    3    0    0 -0.34843644453E+02 -0.56423501470E+01 -0.10481728996E+02  0.54367050573E+02  0.39999923391E+02 0.  0.
        -12    1    3    3    0    0  0.34843644453E+02  0.56423501470E+01  0.10481728996E+02  0.36820949427E+02  0.00000000000E+00 0.  1.
         11    1    4    4    0    0  0.20780753358E+01 -0.82898463735E+01 -0.90288016911E+01  0.12432184452E+02  0.51100000000E-03 0. -1.
        -11    1    4    4    0    0 -0.16687304025E+02  0.81263129185E+00  0.91166407786E+01  0.19032593743E+02  0.51100000000E-03 0.  1.
         12    1    4    4    0    0 -0.20234415764E+02  0.18348649347E+01 -0.10569568084E+02  0.22902272379E+02  0.00000000000E+00 0. -1.
</event>
<event>
 8    1  0.1269154E-006  0.9118800E+02  0.7816164E-02  0.1184000E+00
        -11   -1    0    0    0    0  0.00000000000E+00  0.00000000000E+00  0.45593999997E+02  0.45594000000E+02  0.51100000000E-03 0.  1.
         11   -1    0    0    0    0 -0.00000000000E+00 -0.00000000000E+00 -0.45593999997E+02  0.45594000000E+02  0.51100000000E-03 0. -1.
         23    2    1    2    0    0  0.00000000000E+00 -0.35527136788E-14 -0.17763568394E-14  0.91188000000E+02  0.91188000000E+02 0.  0.
    9900012    2    3    3    0    0  0.27600126651E+02  0.19569642144E+02  0.14527255227E+02  0.54367095214E+02  0.40000025160E+02 0.  0.
         12    1    3    3    0    0 -0.27600126651E+02 -0.19569642144E+02 -0.14527255227E+02  0.36820904786E+02  0.00000000000E+00 0. -1.
         11    1    4    4    0    0 -0.25378386735E+01  0.16420358619E+02  0.68064811509E+01  0.17955416682E+02  0.51100000000E-03 0. -1.
        -11    1    4    4    0    0  0.11899027431E+02 -0.58639886659E+01  0.89946063384E+01  0.16027356623E+02  0.51100000000E-03 0.  1.
         12    1    4    4    0    0  0.18238937893E+02  0.90132721917E+01 -0.12738322627E+01  0.20384321910E+02  0.00000000000E+00 0. -1.
</event>
<event>
 8    1  0.1269154E-006  0.9118800E+02  0.7816164E-02  0.1184000E+00
        -11   -1    0    0    0    0  0.00000000000E+00  0.00000000000E+00  0.45593999997E+02  0.45594000000E+02  0.51100000000E-03 0.  1.
         11   -1    0    0    0    0 -0.00000000000E+00 -0.00000000000E+00 -0.45593999997E+02  0.45594000000E+02  0.51100000000E-03 0. -1.
         23    2    1    2    0    0  0.00000000000E+00  0.00000000000E+00 -0.35527136788E-14  0.91188000000E+02  0.91188000000E+02 0.  0.
    9900012    2    3    3    0    0  0.22194808236E+02  0.13710138017E+02  0.25984612246E+02  0.54367116378E+02  0.40000073408E+02 0.  0.
         12    1    3    3    0    0 -0.22194808236E+02 -0.13710138017E+02 -0.25984612246E+02  0.36820883622E+02  0.00000000000E+00 0. -1.
         11    1    4    4    0    0  0.15412833967E+02  0.14946397400E+02 -0.28647369664E+01  0.21660031493E+02  0.51100000000E-03 0. -1.
        -11    1    4    4    0    0 -0.34282928651E+01 -0.14129235417E+01  0.15285910279E+02  0.15729227515E+02  0.51100000000E-03 0.  1.
        -12    1    4    4    0    0  0.10210267134E+02  0.17666415892E+00  0.13563438933E+02  0.16977857370E+02  0.00000000000E+00 0.  1.
</event>
<event>
 8    1  0.1269154E-006  0.9118800E+02  0.7816164E-02  0.1184000E+00
        -11   -1    0    0    0    0  0.00000000000E+00  0.00000000000E+00  0.45593999997E+02  0.45594000000E+02  0.51100000000E-03 0. -1.
         11   -1    0    0    0    0 -0.00000000000E+00 -0.00000000000E+00 -0.45593999997E+02  0.45594000000E+02  0.51100000000E-03 0.  1.
         23    2    1    2    0    0 -0.26645352591E-14 -0.35527136788E-14  0.35527136788E-14  0.91188000000E+02  0.91188000000E+02 0.  0.
    9900012    2    3    3    0    0  0.68536548374E+01  0.18339060677E+02 -0.31184744538E+02  0.54367054561E+02  0.39999932482E+02 0.  0.
         12    1    3    3    0    0 -0.68536548374E+01 -0.18339060677E+02  0.31184744538E+02  0.36820945439E+02  0.00000000000E+00 0. -1.
         11    1    4    4    0    0  0.12105854677E+02  0.32732006844E+01  0.20060647187E+01  0.12699994334E+02  0.51100000000E-03 0. -1.
        -11    1    4    4    0    0 -0.51634950839E+01 -0.33918921714E+01 -0.48899719209E+01  0.78789872212E+01  0.51100000000E-03 0.  1.
        -12    1    4    4    0    0 -0.88704755372E-01  0.18457752164E+02 -0.28300837336E+02  0.33788073005E+02  0.00000000000E+00 0.  1.
</event>
<event>
 8    1  0.1269154E-006  0.9118800E+02  0.7816164E-02  0.1184000E+00
        -11   -1    0    0    0    0  0.00000000000E+00  0.00000000000E+00  0.45593999997E+02  0.45594000000E+02  0.51100000000E-03 0.  1.
         11   -1    0    0    0    0 -0.00000000000E+00 -0.00000000000E+00 -0.45593999997E+02  0.45594000000E+02  0.51100000000E-03 0. -1.
         23    2    1    2    0    0  0.71054273576E-14 -0.17763568394E-14  0.00000000000E+00  0.91188000000E+02  0.91188000000E+02 0.  0.
    9900012    2    3    3    0    0  0.32717210970E+02 -0.12198098924E+02 -0.11686363151E+02  0.54367073956E+02  0.39999976698E+02 0.  0.
         12    1    3    3    0    0 -0.32717210970E+02  0.12198098924E+02  0.11686363151E+02  0.36820926044E+02  0.00000000000E+00 0. -1.
         11    1    4    4    0    0  0.55796537290E+01 -0.16047406395E+02 -0.44457936805E+00  0.16995571153E+02  0.51100000000E-03 0. -1.
        -11    1    4    4    0    0  0.56481348944E+01 -0.87799805498E+01 -0.12371269705E+01  0.10512847837E+02  0.51100000000E-03 0.  1.
         12    1    4    4    0    0  0.21489422347E+02  0.12629288020E+02 -0.10004656812E+02  0.26858654967E+02  0.00000000000E+00 0. -1.
</event>
<event>
 8    1  0.1269154E-006  0.9118800E+02  0.7816164E-02  0.1184000E+00
        -11   -1    0    0    0    0  0.00000000000E+00  0.00000000000E+00  0.45593999997E+02  0.45594000000E+02  0.51100000000E-03 0.  1.
         11   -1    0    0    0    0 -0.00000000000E+00 -0.00000000000E+00 -0.45593999997E+02  0.45594000000E+02  0.51100000000E-03 0. -1.
         23    2    1    2    0    0  0.13322676296E-14  0.00000000000E+00  0.71054273576E-14  0.91188000000E+02  0.91188000000E+02 0.  0.
    9900012    2    3    3    0    0  0.27320079732E+01 -0.17508099932E+02 -0.32276618563E+02  0.54367115483E+02  0.40000071366E+02 0.  0.
        -12    1    3    3    0    0 -0.27320079732E+01  0.17508099932E+02  0.32276618563E+02  0.36820884517E+02  0.00000000000E+00 0.  1.
         11    1    4    4    0    0 -0.11874827912E+02 -0.89196847215E+01 -0.28167515956E+02  0.31843072541E+02  0.51100000000E-03 0. -1.
        -11    1    4    4    0    0 -0.14166298763E+01 -0.37151738238E+01 -0.41892210139E+01  0.57757189780E+01  0.51100000000E-03 0.  1.
        -12    1    4    4    0    0  0.16023465762E+02 -0.48732413867E+01  0.80118407176E-01  0.16748323963E+02  0.00000000000E+00 0.  1.
</event>
<event>
 8    1  0.1269154E-006  0.9118800E+02  0.7816164E-02  0.1184000E+00
        -11   -1    0    0    0    0  0.00000000000E+00  0.00000000000E+00  0.45593999997E+02  0.45594000000E+02  0.51100000000E-03 0.  1.
         11   -1    0    0    0    0 -0.00000000000E+00 -0.00000000000E+00 -0.45593999997E+02  0.45594000000E+02  0.51100000000E-03 0. -1.
         23    2    1    2    0    0  0.00000000000E+00 -0.35527136788E-14  0.00000000000E+00  0.91188000000E+02  0.91188000000E+02 0.  0.
    9900012    2    3    3    0    0  0.13713497941E+02  0.27929753207E+02 -0.19688774009E+02  0.54367096128E+02  0.40000027243E+02 0.  0.
        -12    1    3    3    0    0 -0.13713497941E+02 -0.27929753207E+02  0.19688774009E+02  0.36820903872E+02  0.00000000000E+00 0.  1.
         11    1    4    4    0    0  0.87489150160E+01  0.14259706722E+01 -0.15955139547E+02  0.18252215880E+02  0.51100000000E-03 0. -1.
        -11    1    4    4    0    0  0.34763223933E+01  0.17603001559E+01  0.78422475815E+01  0.87569584567E+01  0.51100000000E-03 0.  1.
         12    1    4    4    0    0  0.14882605316E+01  0.24743482379E+02 -0.11575882043E+02  0.27357921791E+02  0.00000000000E+00 0. -1.
</event>
<event>
 8    1  0.1269154E-006  0.9118800E+02  0.7816164E-02  0.1184000E+00
        -11   -1    0    0    0    0  0.00000000000E+00  0.00000000000E+00  0.45593999997E+02  0.45594000000E+02  0.51100000000E-03 0.  1.
         11   -1    0    0    0    0 -0.00000000000E+00 -0.00000000000E+00 -0.45593999997E+02  0.45594000000E+02  0.51100000000E-03 0. -1.
         23    2    1    2    0    0  0.90205620751E-15  0.00000000000E+00  0.00000000000E+00  0.91188000000E+02  0.91188000000E+02 0.  0.
    9900012    2    3    3    0    0 -0.46895819807E-01 -0.30767007727E+02  0.20227919010E+02  0.54367086497E+02  0.40000005287E+02 0.  0.
         12    1    3    3    0    0  0.46895819807E-01  0.30767007727E+02 -0.20227919010E+02  0.36820913503E+02  0.00000000000E+00 0. -1.
         11    1    4    4    0    0  0.15499776552E+01 -0.19008369755E+01  0.27550776082E+01  0.36886399699E+01  0.51100000000E-03 0. -1.
        -11    1    4    4    0    0  0.39818472503E+01 -0.35374865615E+02  0.21087306922E+02  0.41375243060E+02  0.51100000000E-03 0.  1.
        -12    1    4    4    0    0 -0.55787207253E+01  0.65086948631E+01 -0.36144655202E+01  0.93032034670E+01  0.00000000000E+00 0.  1.
</event>
<event>
 8    1  0.1269154E-006  0.9118800E+02  0.7816164E-02  0.1184000E+00
        -11   -1    0    0    0    0  0.00000000000E+00  0.00000000000E+00  0.45593999997E+02  0.45594000000E+02  0.51100000000E-03 0. -1.
         11   -1    0    0    0    0 -0.00000000000E+00 -0.00000000000E+00 -0.45593999997E+02  0.45594000000E+02  0.51100000000E-03 0.  1.
         23    2    1    2    0    0  0.17763568394E-14  0.00000000000E+00  0.00000000000E+00  0.91188000000E+02  0.91188000000E+02 0.  0.
    9900012    2    3    3    0    0 -0.58990175782E+01 -0.51337867577E+01 -0.35980891261E+02  0.54367099539E+02  0.40000035018E+02 0.  0.
         12    1    3    3    0    0  0.58990175782E+01  0.51337867577E+01  0.35980891261E+02  0.36820900461E+02  0.00000000000E+00 0. -1.
         11    1    4    4    0    0 -0.28126033946E+01 -0.19125327229E+01  0.36905251659E+01  0.50188141560E+01  0.51100000000E-03 0. -1.
        -11    1    4    4    0    0 -0.15753906652E+02 -0.50547302868E+01 -0.22848981557E+02  0.28210137035E+02  0.51100000000E-03 0.  1.
        -12    1    4    4    0    0  0.12667492469E+02  0.18334762520E+01 -0.16822434870E+02  0.21138148348E+02  0.00000000000E+00 0.  1.
</event>
<event>
 8    1  0.1269154E-006  0.9118800E+02  0.7816164E-02  0.1184000E+00
        -11   -1    0    0    0    0  0.00000000000E+00  0.00000000000E+00  0.45593999997E+02  0.45594000000E+02  0.51100000000E-03 0.  1.
         11   -1    0    0    0    0 -0.00000000000E+00 -0.00000000000E+00 -0.45593999997E+02  0.45594000000E+02  0.51100000000E-03 0. -1.
         23    2    1    2    0    0 -0.88817841970E-15  0.00000000000E+00  0.35527136788E-14  0.91188000000E+02  0.91188000000E+02 0.  0.
    9900012    2    3    3    0    0  0.56896387392E+01  0.34352772634E+02 -0.11970559349E+02  0.54367091976E+02  0.40000017777E+02 0.  0.
        -12    1    3    3    0    0 -0.56896387392E+01 -0.34352772634E+02  0.11970559349E+02  0.36820908024E+02  0.00000000000E+00 0.  1.
         11    1    4    4    0    0 -0.45908083763E+01 -0.52377939079E+00 -0.72049455796E+01  0.85592702647E+01  0.51100000000E-03 0. -1.
        -11    1    4    4    0    0  0.99348612995E+01  0.10104192278E+02 -0.13467596286E+02  0.19549228133E+02  0.51100000000E-03 0.  1.
        -12    1    4    4    0    0  0.34558581597E+00  0.24772359747E+02  0.87019825165E+01  0.26258593578E+02  0.00000000000E+00 0.  1.
</event>
<event>
 8    1  0.1269154E-006  0.9118800E+02  0.7816164E-02  0.1184000E+00
        -11   -1    0    0    0    0  0.00000000000E+00  0.00000000000E+00  0.45593999997E+02  0.45594000000E+02  0.51100000000E-03 0.  1.
         11   -1    0    0    0    0 -0.00000000000E+00 -0.00000000000E+00 -0.45593999997E+02  0.45594000000E+02  0.51100000000E-03 0. -1.
         23    2    1    2    0    0 -0.17763568394E-14  0.00000000000E+00  0.26645352591E-14  0.91188000000E+02  0.91188000000E+02 0.  0.
    9900012    2    3    3    0    0  0.10233105191E+02  0.35073561339E+02  0.45719580505E+01  0.54367164224E+02  0.40000182481E+02 0.  0.
        -12    1    3    3    0    0 -0.10233105191E+02 -0.35073561339E+02 -0.45719580505E+01  0.36820835776E+02  0.00000000000E+00 0.  1.
         11    1    4    4    0    0  0.13566327459E+02  0.17187235778E+02 -0.15293912719E+02  0.26708614358E+02  0.51100000000E-03 0. -1.
        -11    1    4    4    0    0 -0.46866928395E+00  0.14849439961E+02  0.17091199500E+02  0.22645852129E+02  0.51100000000E-03 0.  1.
         12    1    4    4    0    0 -0.28645529840E+01  0.30368856000E+01  0.27746712697E+01  0.50126977368E+01  0.00000000000E+00 0. -1.
</event>
<event>
 8    1  0.1269154E-006  0.9118800E+02  0.7816164E-02  0.1184000E+00
        -11   -1    0    0    0    0  0.00000000000E+00  0.00000000000E+00  0.45593999997E+02  0.45594000000E+02  0.51100000000E-03 0. -1.
         11   -1    0    0    0    0 -0.00000000000E+00 -0.00000000000E+00 -0.45593999997E+02  0.45594000000E+02  0.51100000000E-03 0.  1.
         23    2    1    2    0    0 -0.88817841970E-15  0.00000000000E+00 -0.35527136788E-14  0.91188000000E+02  0.91188000000E+02 0.  0.
    9900012    2    3    3    0    0  0.21935761508E+01 -0.23036889454E+02  0.28640339753E+02  0.54367094074E+02  0.40000022561E+02 0.  0.
        -12    1    3    3    0    0 -0.21935761508E+01  0.23036889454E+02 -0.28640339753E+02  0.36820905926E+02  0.00000000000E+00 0.  1.
         11    1    4    4    0    0  0.48018600800E+01 -0.25256405328E+02  0.27074162961E+02  0.37335695663E+02  0.51100000000E-03 0. -1.
        -11    1    4    4    0    0 -0.36791202782E+01  0.91810109721E+01  0.13710537459E+01  0.99853230857E+01  0.51100000000E-03 0.  1.
        -12    1    4    4    0    0  0.10708363489E+01 -0.69614950982E+01  0.19512304578E+00  0.70460753254E+01  0.00000000000E+00 0.  1.
</event>
<event>
 8    1  0.1269154E-006  0.9118800E+02  0.7816164E-02  0.1184000E+00
        -11   -1    0    0    0    0  0.00000000000E+00  0.00000000000E+00  0.45593999997E+02  0.45594000000E+02  0.51100000000E-03 0. -1.
         11   -1    0    0    0    0 -0.00000000000E+00 -0.00000000000E+00 -0.45593999997E+02  0.45594000000E+02  0.51100000000E-03 0.  1.
         23    2    1    2    0    0  0.88817841970E-15 -0.35527136788E-14  0.00000000000E+00  0.91188000000E+02  0.91188000000E+02 0.  0.
    9900012    2    3    3    0    0 -0.36384625588E+01  0.14020002472E+02 -0.33852328463E+02  0.54367095320E+02  0.40000025401E+02 0.  0.
         12    1    3    3    0    0  0.36384625588E+01 -0.14020002472E+02  0.33852328463E+02  0.36820904680E+02  0.00000000000E+00 0. -1.
         11    1    4    4    0    0  0.95073612584E+01  0.18497063056E+01 -0.14544798202E+02  0.17474624074E+02  0.51100000000E-03 0. -1.
        -11    1    4    4    0    0 -0.27590680957E+01 -0.81026428846E+01 -0.39999867627E+01  0.94480248113E+01  0.51100000000E-03 0.  1.
        -12    1    4    4    0    0 -0.10386755721E+02  0.20272939051E+02 -0.15307543498E+02  0.27444446435E+02  0.00000000000E+00 0.  1.
</event>
<event>
 8    1  0.1269154E-006  0.9118800E+02  0.7816164E-02  0.1184000E+00
        -11   -1    0    0    0    0  0.00000000000E+00  0.00000000000E+00  0.45593999997E+02  0.45594000000E+02  0.51100000000E-03 0. -1.
         11   -1    0    0    0    0 -0.00000000000E+00 -0.00000000000E+00 -0.45593999997E+02  0.45594000000E+02  0.51100000000E-03 0.  1.
         23    2    1    2    0    0  0.00000000000E+00 -0.35527136788E-14  0.35527136788E-14  0.91188000000E+02  0.91188000000E+02 0.  0.
    9900012    2    3    3    0    0  0.18327564950E+02  0.23367011192E+02 -0.21768395263E+02  0.54367083643E+02  0.39999998781E+02 0.  0.
         12    1    3    3    0    0 -0.18327564950E+02 -0.23367011192E+02  0.21768395263E+02  0.36820916357E+02  0.00000000000E+00 0. -1.
         11    1    4    4    0    0 -0.59384095162E+00 -0.57225786778E+01  0.97489524664E-01  0.57541340155E+01  0.51100000000E-03 0. -1.
        -11    1    4    4    0    0 -0.41427704333E+01 -0.20022964312E+01 -0.13241389396E+01  0.47880144167E+01  0.51100000000E-03 0.  1.
         12    1    4    4    0    0  0.23064176335E+02  0.31091886301E+02 -0.20541745848E+02  0.43824935211E+02  0.00000000000E+00 0. -1.
</event>
<event>
 8    1  0.1269154E-006  0.9118800E+02  0.7816164E-02  0.1184000E+00
        -11   -1    0    0    0    0  0.00000000000E+00  0.00000000000E+00  0.45593999997E+02  0.45594000000E+02  0.51100000000E-03 0. -1.
         11   -1    0    0    0    0 -0.00000000000E+00 -0.00000000000E+00 -0.45593999997E+02  0.45594000000E+02  0.51100000000E-03 0.  1.
         23    2    1    2    0    0  0.00000000000E+00  0.00000000000E+00  0.00000000000E+00  0.91188000000E+02  0.91188000000E+02 0.  0.
    9900012    2    3    3    0    0 -0.24345529895E+02  0.12102448802E+02 -0.24831562734E+02  0.54367073876E+02  0.39999976515E+02 0.  0.
         12    1    3    3    0    0  0.24345529895E+02 -0.12102448802E+02  0.24831562734E+02  0.36820926124E+02  0.00000000000E+00 0. -1.
         11    1    4    4    0    0 -0.22776220160E+02  0.83250554991E+01 -0.48041147924E+01  0.24721291897E+02  0.51100000000E-03 0. -1.
        -11    1    4    4    0    0  0.80750420661E+01 -0.43254646150E+01 -0.70409840036E+01  0.11553848039E+02  0.51100000000E-03 0.  1.
        -12    1    4    4    0    0 -0.96443518005E+01  0.81028579179E+01 -0.12986463938E+02  0.18091933940E+02  0.00000000000E+00 0.  1.
</event>
<event>
 8    1  0.1269154E-006  0.9118800E+02  0.7816164E-02  0.1184000E+00
        -11   -1    0    0    0    0  0.00000000000E+00  0.00000000000E+00  0.45593999997E+02  0.45594000000E+02  0.51100000000E-03 0. -1.
         11   -1    0    0    0    0 -0.00000000000E+00 -0.00000000000E+00 -0.45593999997E+02  0.45594000000E+02  0.51100000000E-03 0.  1.
         23    2    1    2    0    0  0.00000000000E+00  0.00000000000E+00  0.35527136788E-14  0.91188000000E+02  0.91188000000E+02 0.  0.
    9900012    2    3    3    0    0  0.16425745969E+02 -0.18955814283E+02  0.26956491569E+02  0.54367075738E+02  0.39999980761E+02 0.  0.
        -12    1    3    3    0    0 -0.16425745969E+02  0.18955814283E+02 -0.26956491569E+02  0.36820924262E+02  0.00000000000E+00 0.  1.
         11    1    4    4    0    0  0.11745327950E+02 -0.28909445181E+01  0.85359498932E+01  0.14804483433E+02  0.51100000000E-03 0. -1.
        -11    1    4    4    0    0  0.90015260054E+01 -0.32286767024E+01 -0.62461157480E+01  0.11422162049E+02  0.51100000000E-03 0.  1.
        -12    1    4    4    0    0 -0.43211079863E+01 -0.12836193062E+02  0.24666657424E+02  0.28140430257E+02  0.00000000000E+00 0.  1.
</event>
<event>
 8    1  0.1269154E-006  0.9118800E+02  0.7816164E-02  0.1184000E+00
        -11   -1    0    0    0    0  0.00000000000E+00  0.00000000000E+00  0.45593999997E+02  0.45594000000E+02  0.51100000000E-03 0. -1.
         11   -1    0    0    0    0 -0.00000000000E+00 -0.00000000000E+00 -0.45593999997E+02  0.45594000000E+02  0.51100000000E-03 0.  1.
         23    2    1    2    0    0 -0.66613381478E-15  0.35527136788E-14  0.00000000000E+00  0.91188000000E+02  0.91188000000E+02 0.  0.
    9900012    2    3    3    0    0  0.12476889979E+01  0.26609041433E+02  0.25420107616E+02  0.54367086310E+02  0.40000004860E+02 0.  0.
         12    1    3    3    0    0 -0.12476889979E+01 -0.26609041433E+02 -0.25420107616E+02  0.36820913690E+02  0.00000000000E+00 0. -1.
         11    1    4    4    0    0 -0.82671436642E+01 -0.18429311929E+01  0.20246136869E+00  0.84724878645E+01  0.51100000000E-03 0. -1.
        -11    1    4    4    0    0  0.70737920604E+01  0.68592971085E+01  0.21765401140E+02  0.23891864263E+02  0.51100000000E-03 0.  1.
        -12    1    4    4    0    0  0.24410406017E+01  0.21592675517E+02  0.34522451069E+01  0.22002734182E+02  0.00000000000E+00 0.  1.
</event>
<event>
 8    1  0.1269154E-006  0.9118800E+02  0.7816164E-02  0.1184000E+00
        -11   -1    0    0    0    0  0.00000000000E+00  0.00000000000E+00  0.45593999997E+02  0.45594000000E+02  0.51100000000E-03 0.  1.
         11   -1    0    0    0    0 -0.00000000000E+00 -0.00000000000E+00 -0.45593999997E+02  0.45594000000E+02  0.51100000000E-03 0. -1.
         23    2    1    2    0    0  0.71054273576E-14  0.00000000000E+00  0.00000000000E+00  0.91188000000E+02  0.91188000000E+02 0.  0.
    9900012    2    3    3    0    0 -0.26787556930E+02 -0.80882529118E+01 -0.23932990646E+02  0.54367067330E+02  0.39999961591E+02 0.  0.
        -12    1    3    3    0    0  0.26787556930E+02  0.80882529118E+01  0.23932990646E+02  0.36820932670E+02  0.00000000000E+00 0.  1.
         11    1    4    4    0    0 -0.55170360824E+01 -0.32408214889E+00 -0.14079674891E+02  0.15125473932E+02  0.51100000000E-03 0. -1.
        -11    1    4    4    0    0  0.20562052836E+01 -0.13045319965E+02  0.41627051276E+00  0.13212934366E+02  0.51100000000E-03 0.  1.
         12    1    4    4    0    0 -0.23326726131E+02  0.52811492021E+01 -0.10269586269E+02  0.26028659032E+02  0.00000000000E+00 0. -1.
</event>
<event>
 8    1  0.1269154E-006  0.9118800E+02  0.7816164E-02  0.1184000E+00
        -11   -1    0    0    0    0  0.00000000000E+00  0.00000000000E+00  0.45593999997E+02  0.45594000000E+02  0.51100000000E-03 0. -1.
         11   -1    0    0    0    0 -0.00000000000E+00 -0.00000000000E+00 -0.45593999997E+02  0.45594000000E+02  0.51100000000E-03 0.  1.
         23    2    1    2    0    0 -0.14210854715E-13 -0.17763568394E-14  0.88817841970E-15  0.91188000000E+02  0.91188000000E+02 0.  0.
    9900012    2    3    3    0    0 -0.34447874636E+02 -0.10763300296E+02  0.72988583616E+01  0.54367108735E+02  0.40000055982E+02 0.  0.
         12    1    3    3    0    0  0.34447874636E+02  0.10763300296E+02 -0.72988583616E+01  0.36820891265E+02  0.00000000000E+00 0. -1.
         11    1    4    4    0    0  0.44271812734E+01 -0.46806383440E+01 -0.50189823738E+01  0.81669145743E+01  0.51100000000E-03 0. -1.
        -11    1    4    4    0    0 -0.15063078240E+01  0.22046316352E+01 -0.38200031335E+01  0.46606639128E+01  0.51100000000E-03 0.  1.
        -12    1    4    4    0    0 -0.37368748085E+02 -0.82872935874E+01  0.16137843869E+02  0.41539530248E+02  0.00000000000E+00 0.  1.
</event>
<event>
 8    1  0.1269154E-006  0.9118800E+02  0.7816164E-02  0.1184000E+00
        -11   -1    0    0    0    0  0.00000000000E+00  0.00000000000E+00  0.45593999997E+02  0.45594000000E+02  0.51100000000E-03 0. -1.
         11   -1    0    0    0    0 -0.00000000000E+00 -0.00000000000E+00 -0.45593999997E+02  0.45594000000E+02  0.51100000000E-03 0.  1.
         23    2    1    2    0    0 -0.88817841970E-15  0.00000000000E+00  0.00000000000E+00  0.91188000000E+02  0.91188000000E+02 0.  0.
    9900012    2    3    3    0    0 -0.43088368691E+01 -0.36331984313E+02 -0.41479298686E+01  0.54367021177E+02  0.39999856378E+02 0.  0.
        -12    1    3    3    0    0  0.43088368691E+01  0.36331984313E+02  0.41479298686E+01  0.36820978823E+02  0.00000000000E+00 0.  1.
         11    1    4    4    0    0  0.70511015518E+01 -0.18903135093E+02 -0.55272829627E+01  0.20918828998E+02  0.51100000000E-03 0. -1.
        -11    1    4    4    0    0 -0.38280043307E+01  0.65317115127E+01  0.32992011091E+01  0.82584260401E+01  0.51100000000E-03 0.  1.
         12    1    4    4    0    0 -0.75319340903E+01 -0.23960560732E+02 -0.19198480151E+01  0.25189766139E+02  0.00000000000E+00 0. -1.
</event>
<event>
 8    1  0.1269154E-006  0.9118800E+02  0.7816164E-02  0.1184000E+00
        -11   -1    0    0    0    0  0.00000000000E+00  0.00000000000E+00  0.45593999997E+02  0.45594000000E+02  0.51100000000E-03 0.  1.
         11   -1    0    0    0    0 -0.00000000000E+00 -0.00000000000E+00 -0.45593999997E+02  0.45594000000E+02  0.51100000000E-03 0. -1.
         23    2    1    2    0    0  0.35527136788E-14  0.35527136788E-14 -0.17763568394E-14  0.91188000000E+02  0.91188000000E+02 0.  0.
    9900012    2    3    3    0    0 -0.25828046259E+02  0.21207331157E+02  0.15457695370E+02  0.54367092699E+02  0.40000019425E+02 0.  0.
         12    1    3    3    0    0  0.25828046259E+02 -0.21207331157E+02 -0.15457695370E+02  0.36820907301E+02  0.00000000000E+00 0. -1.
         11    1    4    4    0    0 -0.18542986002E+02  0.20119661421E+02 -0.13982236847E+01  0.27397046106E+02  0.51100000000E-03 0. -1.
        -11    1    4    4    0    0 -0.12118212651E+02  0.44608514292E+01  0.52234272063E+01  0.13929625457E+02  0.51100000000E-03 0.  1.
         12    1    4    4    0    0  0.48331523944E+01 -0.33731816936E+01  0.11632491848E+02  0.13040421136E+02  0.00000000000E+00 0. -1.
</event>
<event>
 8    1  0.1269154E-006  0.9118800E+02  0.7816164E-02  0.1184000E+00
        -11   -1    0    0    0    0  0.00000000000E+00  0.00000000000E+00  0.45593999997E+02  0.45594000000E+02  0.51100000000E-03 0.  1.
         11   -1    0    0    0    0 -0.00000000000E+00 -0.00000000000E+00 -0.45593999997E+02  0.45594000000E+02  0.51100000000E-03 0. -1.
         23    2    1    2    0    0  0.00000000000E+00  0.00000000000E+00  0.88817841970E-15  0.91188000000E+02  0.91188000000E+02 0.  0.
    9900012    2    3    3    0    0 -0.21604787321E+02 -0.29172331596E+02  0.61634645969E+01  0.54367081194E+02  0.39999993197E+02 0.  0.
         12    1    3    3    0    0  0.21604787321E+02  0.29172331596E+02 -0.61634645969E+01  0.36820918806E+02  0.00000000000E+00 0. -1.
         11    1    4    4    0    0 -0.22869361854E+02 -0.63788776513E+01 -0.40701033982E+01  0.24088659855E+02  0.51100000000E-03 0. -1.
        -11    1    4    4    0    0  0.11252435734E+01 -0.12941826650E+02  0.14564283888E+02  0.19516029708E+02  0.51100000000E-03 0.  1.
        -12    1    4    4    0    0  0.13933095960E+00 -0.98516272944E+01 -0.43307158928E+01  0.10762391631E+02  0.00000000000E+00 0.  1.
</event>
<event>
 8    1  0.1269154E-006  0.9118800E+02  0.7816164E-02  0.1184000E+00
        -11   -1    0    0    0    0  0.00000000000E+00  0.00000000000E+00  0.45593999997E+02  0.45594000000E+02  0.51100000000E-03 0.  1.
         11   -1    0    0    0    0 -0.00000000000E+00 -0.00000000000E+00 -0.45593999997E+02  0.45594000000E+02  0.51100000000E-03 0. -1.
         23    2    1    2    0    0  0.00000000000E+00  0.00000000000E+00  0.00000000000E+00  0.91188000000E+02  0.91188000000E+02 0.  0.
    9900012    2    3    3    0    0 -0.16099228292E+02 -0.33038967475E+02 -0.22411970758E+01  0.54367061830E+02  0.39999949053E+02 0.  0.
         12    1    3    3    0    0  0.16099228292E+02  0.33038967475E+02  0.22411970758E+01  0.36820938170E+02  0.00000000000E+00 0. -1.
         11    1    4    4    0    0 -0.20965382465E+02 -0.37693355931E+02 -0.49895880975E+01  0.43419262233E+02  0.51100000000E-03 0. -1.
        -11    1    4    4    0    0  0.33389499098E+01 -0.78321736254E+00  0.38896052559E+01  0.51856576483E+01  0.51100000000E-03 0.  1.
         12    1    4    4    0    0  0.15272042636E+01  0.54376058186E+01 -0.11412142342E+01  0.57621419480E+01  0.00000000000E+00 0. -1.
</event>
<event>
 8    1  0.1269154E-006  0.9118800E+02  0.7816164E-02  0.1184000E+00
        -11   -1    0    0    0    0  0.00000000000E+00  0.00000000000E+00  0.45593999997E+02  0.45594000000E+02  0.51100000000E-03 0. -1.
         11   -1    0    0    0    0 -0.00000000000E+00 -0.00000000000E+00 -0.45593999997E+02  0.45594000000E+02  0.51100000000E-03 0.  1.
         23    2    1    2    0    0  0.35527136788E-14  0.44408920985E-15 -0.35527136788E-14  0.91188000000E+02  0.91188000000E+02 0.  0.
    9900012    2    3    3    0    0 -0.25788783003E+02 -0.35743078987E+01 -0.26037327070E+02  0.54367090089E+02  0.40000013475E+02 0.  0.
         12    1    3    3    0    0  0.25788783003E+02  0.35743078987E+01  0.26037327070E+02  0.36820909911E+02  0.00000000000E+00 0. -1.
         11    1    4    4    0    0 -0.28527347169E+01 -0.93841903833E+01 -0.25198877390E+01  0.10126744738E+02  0.51100000000E-03 0. -1.
        -11    1    4    4    0    0 -0.27030105588E+02  0.12376576551E+02 -0.18379218444E+02  0.34951422376E+02  0.51100000000E-03 0.  1.
         12    1    4    4    0    0  0.40940573016E+01 -0.65666940662E+01 -0.51382208869E+01  0.92889229747E+01  0.00000000000E+00 0. -1.
</event>
<event>
 8    1  0.1269154E-006  0.9118800E+02  0.7816164E-02  0.1184000E+00
        -11   -1    0    0    0    0  0.00000000000E+00  0.00000000000E+00  0.45593999997E+02  0.45594000000E+02  0.51100000000E-03 0. -1.
         11   -1    0    0    0    0 -0.00000000000E+00 -0.00000000000E+00 -0.45593999997E+02  0.45594000000E+02  0.51100000000E-03 0.  1.
         23    2    1    2    0    0  0.00000000000E+00 -0.88817841970E-15  0.00000000000E+00  0.91188000000E+02  0.91188000000E+02 0.  0.
    9900012    2    3    3    0    0  0.16242223953E+02  0.23248363362E+01  0.32963205208E+02  0.54366978823E+02  0.39999759822E+02 0.  0.
        -12    1    3    3    0    0 -0.16242223953E+02 -0.23248363362E+01 -0.32963205208E+02  0.36821021177E+02  0.00000000000E+00 0.  1.
         11    1    4    4    0    0  0.11461025561E+02 -0.16892304042E+01  0.43625847475E+01  0.12379044883E+02  0.51100000000E-03 0. -1.
        -11    1    4    4    0    0  0.27738471290E+01 -0.11549667920E+02  0.21922095380E+02  0.24933257369E+02  0.51100000000E-03 0.  1.
         12    1    4    4    0    0  0.20073512627E+01  0.15563734660E+02  0.66785250811E+01  0.17054676570E+02  0.00000000000E+00 0. -1.
</event>
<event>
 8    1  0.1269154E-006  0.9118800E+02  0.7816164E-02  0.1184000E+00
        -11   -1    0    0    0    0  0.00000000000E+00  0.00000000000E+00  0.45593999997E+02  0.45594000000E+02  0.51100000000E-03 0. -1.
         11   -1    0    0    0    0 -0.00000000000E+00 -0.00000000000E+00 -0.45593999997E+02  0.45594000000E+02  0.51100000000E-03 0.  1.
         23    2    1    2    0    0  0.17763568394E-14  0.00000000000E+00  0.17763568394E-14  0.91188000000E+02  0.91188000000E+02 0.  0.
    9900012    2    3    3    0    0 -0.10655888670E+02 -0.32412831767E+02  0.13843420292E+02  0.54367083229E+02  0.39999997837E+02 0.  0.
        -12    1    3    3    0    0  0.10655888670E+02  0.32412831767E+02 -0.13843420292E+02  0.36820916771E+02  0.00000000000E+00 0.  1.
         11    1    4    4    0    0  0.14184186835E+01 -0.12247977514E+01 -0.70281275611E-01  0.18753615151E+01  0.51100000000E-03 0. -1.
        -11    1    4    4    0    0  0.93742166116E+01 -0.50972169409E+01  0.15340183461E+02  0.18686326190E+02  0.51100000000E-03 0.  1.
         12    1    4    4    0    0 -0.21448523965E+02 -0.26090817075E+02 -0.14264818936E+01  0.33805395523E+02  0.00000000000E+00 0. -1.
</event>
<event>
 8    1  0.1269154E-006  0.9118800E+02  0.7816164E-02  0.1184000E+00
        -11   -1    0    0    0    0  0.00000000000E+00  0.00000000000E+00  0.45593999997E+02  0.45594000000E+02  0.51100000000E-03 0.  1.
         11   -1    0    0    0    0 -0.00000000000E+00 -0.00000000000E+00 -0.45593999997E+02  0.45594000000E+02  0.51100000000E-03 0. -1.
         23    2    1    2    0    0  0.00000000000E+00  0.00000000000E+00  0.17763568394E-14  0.91188000000E+02  0.91188000000E+02 0.  0.
    9900012    2    3    3    0    0  0.10363237107E+02 -0.34296667729E+02  0.84924551318E+01  0.54367083460E+02  0.39999998364E+02 0.  0.
        -12    1    3    3    0    0 -0.10363237107E+02  0.34296667729E+02 -0.84924551318E+01  0.36820916540E+02  0.00000000000E+00 0.  1.
         11    1    4    4    0    0  0.61710320233E+01 -0.11463728263E+02 -0.51077971017E+01  0.13985288464E+02  0.51100000000E-03 0. -1.
        -11    1    4    4    0    0 -0.93111602264E+01 -0.35249786188E+01 -0.42469540751E+01  0.10824037980E+02  0.51100000000E-03 0.  1.
         12    1    4    4    0    0  0.13503365310E+02 -0.19307960848E+02  0.17847206309E+02  0.29557757016E+02  0.00000000000E+00 0. -1.
</event>
<event>
 8    1  0.1269154E-006  0.9118800E+02  0.7816164E-02  0.1184000E+00
        -11   -1    0    0    0    0  0.00000000000E+00  0.00000000000E+00  0.45593999997E+02  0.45594000000E+02  0.51100000000E-03 0.  1.
         11   -1    0    0    0    0 -0.00000000000E+00 -0.00000000000E+00 -0.45593999997E+02  0.45594000000E+02  0.51100000000E-03 0. -1.
         23    2    1    2    0    0 -0.35527136788E-14 -0.44408920985E-15 -0.35527136788E-14  0.91188000000E+02  0.91188000000E+02 0.  0.
    9900012    2    3    3    0    0  0.24935788514E+02  0.27357237703E+01  0.26953719184E+02  0.54367072375E+02  0.39999973092E+02 0.  0.
         12    1    3    3    0    0 -0.24935788514E+02 -0.27357237703E+01 -0.26953719184E+02  0.36820927625E+02  0.00000000000E+00 0. -1.
         11    1    4    4    0    0 -0.42207580311E+01  0.37192118988E+01  0.68844094862E+01  0.88905809563E+01  0.51100000000E-03 0. -1.
        -11    1    4    4    0    0 -0.20673087680E-01 -0.68008272789E+01  0.13339855312E+02  0.14973423759E+02  0.51100000000E-03 0.  1.
        -12    1    4    4    0    0  0.29177219633E+02  0.58173391504E+01  0.67294543851E+01  0.30503067659E+02  0.00000000000E+00 0.  1.
</event>
<event>
 8    1  0.1269154E-006  0.9118800E+02  0.7816164E-02  0.1184000E+00
        -11   -1    0    0    0    0  0.00000000000E+00  0.00000000000E+00  0.45593999997E+02  0.45594000000E+02  0.51100000000E-03 0. -1.
         11   -1    0    0    0    0 -0.00000000000E+00 -0.00000000000E+00 -0.45593999997E+02  0.45594000000E+02  0.51100000000E-03 0.  1.
         23    2    1    2    0    0  0.71054273576E-14 -0.53290705182E-14  0.00000000000E+00  0.91188000000E+02  0.91188000000E+02 0.  0.
    9900012    2    3    3    0    0  0.32379240607E+02 -0.81724715565E+01  0.15510449460E+02  0.54367101640E+02  0.40000039808E+02 0.  0.
         12    1    3    3    0    0 -0.32379240607E+02  0.81724715565E+01 -0.15510449460E+02  0.36820898360E+02  0.00000000000E+00 0. -1.
         11    1    4    4    0    0  0.13612369189E+02 -0.14580065715E+02 -0.22267541006E+01  0.20070708639E+02  0.51100000000E-03 0. -1.
        -11    1    4    4    0    0  0.18618522697E+02  0.12053826021E+02  0.90949225600E+01  0.23972103074E+02  0.51100000000E-03 0.  1.
        -12    1    4    4    0    0  0.14834872057E+00 -0.56462318629E+01  0.86422810007E+01  0.10324289927E+02  0.00000000000E+00 0.  1.
</event>
<event>
 8    1  0.1269154E-006  0.9118800E+02  0.7816164E-02  0.1184000E+00
        -11   -1    0    0    0    0  0.00000000000E+00  0.00000000000E+00  0.45593999997E+02  0.45594000000E+02  0.51100000000E-03 0.  1.
         11   -1    0    0    0    0 -0.00000000000E+00 -0.00000000000E+00 -0.45593999997E+02  0.45594000000E+02  0.51100000000E-03 0. -1.
         23    2    1    2    0    0  0.00000000000E+00  0.00000000000E+00 -0.35527136788E-14  0.91188000000E+02  0.91188000000E+02 0.  0.
    9900012    2    3    3    0    0  0.16017252410E+02 -0.20313530654E+02 -0.26202813141E+02  0.54367091281E+02  0.40000016193E+02 0.  0.
        -12    1    3    3    0    0 -0.16017252410E+02  0.20313530654E+02  0.26202813141E+02  0.36820908719E+02  0.00000000000E+00 0.  1.
         11    1    4    4    0    0  0.13866486979E+02 -0.36885939735E+01  0.20658236670E+01  0.14496648382E+02  0.51100000000E-03 0. -1.
        -11    1    4    4    0    0  0.75994718642E+01 -0.20139280771E+02 -0.20196699374E+02  0.29516931894E+02  0.51100000000E-03 0.  1.
         12    1    4    4    0    0 -0.54487064332E+01  0.35143440900E+01 -0.80719374344E+01  0.10353511005E+02  0.00000000000E+00 0. -1.
</event>
<event>
 8    1  0.1269154E-006  0.9118800E+02  0.7816164E-02  0.1184000E+00
        -11   -1    0    0    0    0  0.00000000000E+00  0.00000000000E+00  0.45593999997E+02  0.45594000000E+02  0.51100000000E-03 0.  1.
         11   -1    0    0    0    0 -0.00000000000E+00 -0.00000000000E+00 -0.45593999997E+02  0.45594000000E+02  0.51100000000E-03 0. -1.
         23    2    1    2    0    0 -0.35527136788E-14  0.00000000000E+00 -0.35527136788E-14  0.91188000000E+02  0.91188000000E+02 0.  0.
    9900012    2    3    3    0    0 -0.17938739949E+02 -0.72107240936E+01 -0.31336669678E+02  0.54367084756E+02  0.40000001318E+02 0.  0.
        -12    1    3    3    0    0  0.17938739949E+02  0.72107240936E+01  0.31336669678E+02  0.36820915244E+02  0.00000000000E+00 0.  1.
         11    1    4    4    0    0 -0.84932997189E+01 -0.40848430800E+01 -0.12589391997E+02  0.15726247938E+02  0.51100000000E-03 0. -1.
        -11    1    4    4    0    0 -0.66099917339E+01 -0.11696331678E+02  0.41230810839E+01  0.14053325703E+02  0.51100000000E-03 0.  1.
        -12    1    4    4    0    0 -0.28354484966E+01  0.85704506640E+01 -0.22870358765E+02  0.24587511114E+02  0.00000000000E+00 0.  1.
</event>
<event>
 8    1  0.1269154E-006  0.9118800E+02  0.7816164E-02  0.1184000E+00
        -11   -1    0    0    0    0  0.00000000000E+00  0.00000000000E+00  0.45593999997E+02  0.45594000000E+02  0.51100000000E-03 0.  1.
         11   -1    0    0    0    0 -0.00000000000E+00 -0.00000000000E+00 -0.45593999997E+02  0.45594000000E+02  0.51100000000E-03 0. -1.
         23    2    1    2    0    0 -0.44408920985E-15 -0.17763568394E-14  0.71054273576E-14  0.91188000000E+02  0.91188000000E+02 0.  0.
    9900012    2    3    3    0    0  0.29718983259E+01 -0.15065184191E+02  0.33466225247E+02  0.54367079497E+02  0.39999989330E+02 0.  0.
         12    1    3    3    0    0 -0.29718983259E+01  0.15065184191E+02 -0.33466225247E+02  0.36820920503E+02  0.00000000000E+00 0. -1.
         11    1    4    4    0    0 -0.70242650857E+01 -0.65189813312E+01 -0.21698624463E+01  0.98257682086E+01  0.51100000000E-03 0. -1.
        -11    1    4    4    0    0  0.13928737375E+02 -0.12973248298E+02  0.32919522550E+02  0.38026436350E+02  0.51100000000E-03 0.  1.
         12    1    4    4    0    0 -0.39325739635E+01  0.44270454385E+01  0.27165651432E+01  0.65148749390E+01  0.00000000000E+00 0. -1.
</event>
<event>
 8    1  0.1269154E-006  0.9118800E+02  0.7816164E-02  0.1184000E+00
        -11   -1    0    0    0    0  0.00000000000E+00  0.00000000000E+00  0.45593999997E+02  0.45594000000E+02  0.51100000000E-03 0.  1.
         11   -1    0    0    0    0 -0.00000000000E+00 -0.00000000000E+00 -0.45593999997E+02  0.45594000000E+02  0.51100000000E-03 0. -1.
         23    2    1    2    0    0  0.00000000000E+00  0.00000000000E+00 -0.88817841970E-15  0.91188000000E+02  0.91188000000E+02 0.  0.
    9900012    2    3    3    0    0  0.16559589899E+02 -0.32154918090E+02 -0.69008436504E+01  0.54367076355E+02  0.39999982166E+02 0.  0.
        -12    1    3    3    0    0 -0.16559589899E+02  0.32154918090E+02  0.69008436504E+01  0.36820923645E+02  0.00000000000E+00 0.  1.
         11    1    4    4    0    0  0.11460739747E+02  0.52416352803E+00  0.52127124754E+01  0.12601415578E+02  0.51100000000E-03 0.  1.
        -11    1    4    4    0    0  0.13259315095E+02 -0.21576672677E+02 -0.11908571213E+02  0.27985287370E+02  0.51100000000E-03 0. -1.
        -12    1    4    4    0    0 -0.81604649439E+01 -0.11102408942E+02 -0.20498491272E+00  0.13780373406E+02  0.00000000000E+00 0.  1.
</event>
<event>
 8    1  0.1269154E-006  0.9118800E+02  0.7816164E-02  0.1184000E+00
        -11   -1    0    0    0    0  0.00000000000E+00  0.00000000000E+00  0.45593999997E+02  0.45594000000E+02  0.51100000000E-03 0. -1.
         11   -1    0    0    0    0 -0.00000000000E+00 -0.00000000000E+00 -0.45593999997E+02  0.45594000000E+02  0.51100000000E-03 0.  1.
         23    2    1    2    0    0  0.44408920985E-15  0.00000000000E+00  0.35527136788E-14  0.91188000000E+02  0.91188000000E+02 0.  0.
    9900012    2    3    3    0    0 -0.32404036545E+01  0.30322882166E+02 -0.20634990423E+02  0.54367078930E+02  0.39999988036E+02 0.  0.
         12    1    3    3    0    0  0.32404036545E+01 -0.30322882166E+02  0.20634990423E+02  0.36820921070E+02  0.00000000000E+00 0. -1.
         11    1    4    4    0    0 -0.64490019827E+01  0.34380364721E+01 -0.19259834012E+02  0.20599779799E+02  0.51100000000E-03 0.  1.
        -11    1    4    4    0    0  0.92776114994E+01  0.16599907332E+02  0.57428435731E+01  0.19864824468E+02  0.51100000000E-03 0. -1.
         12    1    4    4    0    0 -0.60690131712E+01  0.10284938361E+02 -0.71179999845E+01  0.13902474663E+02  0.00000000000E+00 0. -1.
</event>
<event>
 8    1  0.1269154E-006  0.9118800E+02  0.7816164E-02  0.1184000E+00
        -11   -1    0    0    0    0  0.00000000000E+00  0.00000000000E+00  0.45593999997E+02  0.45594000000E+02  0.51100000000E-03 0.  1.
         11   -1    0    0    0    0 -0.00000000000E+00 -0.00000000000E+00 -0.45593999997E+02  0.45594000000E+02  0.51100000000E-03 0. -1.
         23    2    1    2    0    0 -0.88817841970E-15 -0.35527136788E-14  0.00000000000E+00  0.91188000000E+02  0.91188000000E+02 0.  0.
    9900012    2    3    3    0    0  0.59548703755E+01  0.30204919679E+02  0.20198631230E+02  0.54367050018E+02  0.39999922126E+02 0.  0.
         12    1    3    3    0    0 -0.59548703755E+01 -0.30204919679E+02 -0.20198631230E+02  0.36820949982E+02  0.00000000000E+00 0. -1.
         11    1    4    4    0    0  0.14754887866E+02  0.18410598532E+01  0.25593029759E+01  0.15087950467E+02  0.51100000000E-03 0. -1.
        -11    1    4    4    0    0 -0.72135421174E+01  0.18463485709E+02  0.20832374101E+02  0.28756274191E+02  0.51100000000E-03 0.  1.
        -12    1    4    4    0    0 -0.15864753730E+01  0.99003741169E+01 -0.31930458471E+01  0.10522825359E+02  0.00000000000E+00 0.  1.
</event>
<event>
 8    1  0.1269154E-006  0.9118800E+02  0.7816164E-02  0.1184000E+00
        -11   -1    0    0    0    0  0.00000000000E+00  0.00000000000E+00  0.45593999997E+02  0.45594000000E+02  0.51100000000E-03 0.  1.
         11   -1    0    0    0    0 -0.00000000000E+00 -0.00000000000E+00 -0.45593999997E+02  0.45594000000E+02  0.51100000000E-03 0. -1.
         23    2    1    2    0    0  0.17763568394E-14  0.00000000000E+00 -0.35527136788E-14  0.91188000000E+02  0.91188000000E+02 0.  0.
    9900012    2    3    3    0    0  0.11411902222E+02 -0.28447481582E+02  0.20403206263E+02  0.54367061032E+02  0.39999947236E+02 0.  0.
         12    1    3    3    0    0 -0.11411902222E+02  0.28447481582E+02 -0.20403206263E+02  0.36820938968E+02  0.00000000000E+00 0. -1.
         11    1    4    4    0    0  0.33777536393E+01 -0.30860221193E+01  0.74015783645E+01  0.87015007163E+01  0.51100000000E-03 0. -1.
        -11    1    4    4    0    0 -0.25432163699E+01 -0.11864381764E+02  0.22863678120E+02  0.25883957997E+02  0.51100000000E-03 0.  1.
         12    1    4    4    0    0  0.10577364952E+02 -0.13497077698E+02 -0.98620502221E+01  0.19781602319E+02  0.00000000000E+00 0. -1.
</event>
<event>
 8    1  0.1269154E-006  0.9118800E+02  0.7816164E-02  0.1184000E+00
        -11   -1    0    0    0    0  0.00000000000E+00  0.00000000000E+00  0.45593999997E+02  0.45594000000E+02  0.51100000000E-03 0.  1.
         11   -1    0    0    0    0 -0.00000000000E+00 -0.00000000000E+00 -0.45593999997E+02  0.45594000000E+02  0.51100000000E-03 0. -1.
         23    2    1    2    0    0  0.35527136788E-14  0.35527136788E-14  0.00000000000E+00  0.91188000000E+02  0.91188000000E+02 0.  0.
    9900012    2    3    3    0    0 -0.18812662031E+02  0.26812882689E+02 -0.16820622221E+02  0.54367078465E+02  0.39999986976E+02 0.  0.
        -12    1    3    3    0    0  0.18812662031E+02 -0.26812882689E+02  0.16820622221E+02  0.36820921535E+02  0.00000000000E+00 0.  1.
         11    1    4    4    0    0 -0.10538789616E+01  0.14007173886E+02  0.71513797357E+01  0.15762417757E+02  0.51100000000E-03 0. -1.
        -11    1    4    4    0    0 -0.12301433871E+02  0.21433430372E+01 -0.79075911470E+00  0.12511774250E+02  0.51100000000E-03 0.  1.
         12    1    4    4    0    0 -0.54573491989E+01  0.10662365765E+02 -0.23181242842E+02  0.26092886458E+02  0.00000000000E+00 0. -1.
</event>
<event>
 8    1  0.1269154E-006  0.9118800E+02  0.7816164E-02  0.1184000E+00
        -11   -1    0    0    0    0  0.00000000000E+00  0.00000000000E+00  0.45593999997E+02  0.45594000000E+02  0.51100000000E-03 0.  1.
         11   -1    0    0    0    0 -0.00000000000E+00 -0.00000000000E+00 -0.45593999997E+02  0.45594000000E+02  0.51100000000E-03 0. -1.
         23    2    1    2    0    0 -0.17763568394E-14  0.35527136788E-14  0.35527136788E-14  0.91188000000E+02  0.91188000000E+02 0.  0.
    9900012    2    3    3    0    0 -0.41121626168E+01 -0.19083587876E+02  0.31219954456E+02  0.54367098818E+02  0.40000033375E+02 0.  0.
         12    1    3    3    0    0  0.41121626168E+01  0.19083587876E+02 -0.31219954456E+02  0.36820901182E+02  0.00000000000E+00 0. -1.
         11    1    4    4    0    0  0.66531047852E+01 -0.56360507997E+01  0.76200247143E+01  0.11579881209E+02  0.51100000000E-03 0. -1.
        -11    1    4    4    0    0  0.52328945452E+00 -0.13861029719E+02  0.27529974989E+02  0.30826960601E+02  0.51100000000E-03 0.  1.
         12    1    4    4    0    0 -0.11288556857E+02  0.41349264234E+00 -0.39300452469E+01  0.11960257009E+02  0.00000000000E+00 0. -1.
</event>
<event>
 8    1  0.1269154E-006  0.9118800E+02  0.7816164E-02  0.1184000E+00
        -11   -1    0    0    0    0  0.00000000000E+00  0.00000000000E+00  0.45593999997E+02  0.45594000000E+02  0.51100000000E-03 0. -1.
         11   -1    0    0    0    0 -0.00000000000E+00 -0.00000000000E+00 -0.45593999997E+02  0.45594000000E+02  0.51100000000E-03 0.  1.
         23    2    1    2    0    0  0.00000000000E+00  0.00000000000E+00 -0.17763568394E-14  0.91188000000E+02  0.91188000000E+02 0.  0.
    9900012    2    3    3    0    0 -0.16612222052E+01  0.34505412316E+02 -0.12743486053E+02  0.54367087802E+02  0.40000008261E+02 0.  0.
        -12    1    3    3    0    0  0.16612222052E+01 -0.34505412316E+02  0.12743486053E+02  0.36820912198E+02  0.00000000000E+00 0.  1.
         11    1    4    4    0    0 -0.35212313642E+01  0.28905448065E+02  0.34408434658E+01  0.29321722360E+02  0.51100000000E-03 0. -1.
        -11    1    4    4    0    0  0.30193473820E+01 -0.28465357781E+01  0.22605569521E+01  0.47253933745E+01  0.51100000000E-03 0.  1.
         12    1    4    4    0    0 -0.11593382230E+01  0.84465000297E+01 -0.18444886471E+02  0.20319972067E+02  0.00000000000E+00 0. -1.
</event>
<event>
 8    1  0.1269154E-006  0.9118800E+02  0.7816164E-02  0.1184000E+00
        -11   -1    0    0    0    0  0.00000000000E+00  0.00000000000E+00  0.45593999997E+02  0.45594000000E+02  0.51100000000E-03 0. -1.
         11   -1    0    0    0    0 -0.00000000000E+00 -0.00000000000E+00 -0.45593999997E+02  0.45594000000E+02  0.51100000000E-03 0.  1.
         23    2    1    2    0    0  0.00000000000E+00  0.00000000000E+00  0.00000000000E+00  0.91188000000E+02  0.91188000000E+02 0.  0.
    9900012    2    3    3    0    0 -0.10112397395E+02  0.10152476903E+02 -0.33918200761E+02  0.54367113112E+02  0.40000065962E+02 0.  0.
         12    1    3    3    0    0  0.10112397395E+02 -0.10152476903E+02  0.33918200761E+02  0.36820886888E+02  0.00000000000E+00 0. -1.
         11    1    4    4    0    0 -0.11635737843E+02  0.37539408536E+00  0.29071345352E+01  0.11999281117E+02  0.51100000000E-03 0. -1.
        -11    1    4    4    0    0 -0.28903250800E+01  0.66305939005E+00 -0.30022213817E+02  0.30168310354E+02  0.51100000000E-03 0.  1.
        -12    1    4    4    0    0  0.44136655273E+01  0.91140234278E+01 -0.68031214785E+01  0.12199521642E+02  0.00000000000E+00 0.  1.
</event>
<event>
 8    1  0.1269154E-006  0.9118800E+02  0.7816164E-02  0.1184000E+00
        -11   -1    0    0    0    0  0.00000000000E+00  0.00000000000E+00  0.45593999997E+02  0.45594000000E+02  0.51100000000E-03 0.  1.
         11   -1    0    0    0    0 -0.00000000000E+00 -0.00000000000E+00 -0.45593999997E+02  0.45594000000E+02  0.51100000000E-03 0. -1.
         23    2    1    2    0    0  0.00000000000E+00  0.17763568394E-14  0.00000000000E+00  0.91188000000E+02  0.91188000000E+02 0.  0.
    9900012    2    3    3    0    0 -0.97108715429E+00 -0.12015762188E+02 -0.34791634934E+02  0.54367090008E+02  0.40000013292E+02 0.  0.
        -12    1    3    3    0    0  0.97108715429E+00  0.12015762188E+02  0.34791634934E+02  0.36820909992E+02  0.00000000000E+00 0.  1.
         11    1    4    4    0    0  0.97311969610E+01 -0.32392833275E+01 -0.21387745637E+01  0.10476808086E+02  0.51100000000E-03 0.  1.
        -11    1    4    4    0    0 -0.17896716743E+02 -0.10972925344E+01 -0.25475330937E+02  0.31152672561E+02  0.51100000000E-03 0. -1.
        -12    1    4    4    0    0  0.71944326279E+01 -0.76791863264E+01 -0.71775294334E+01  0.12737609361E+02  0.00000000000E+00 0.  1.
</event>
<event>
 8    1  0.1269154E-006  0.9118800E+02  0.7816164E-02  0.1184000E+00
        -11   -1    0    0    0    0  0.00000000000E+00  0.00000000000E+00  0.45593999997E+02  0.45594000000E+02  0.51100000000E-03 0.  1.
         11   -1    0    0    0    0 -0.00000000000E+00 -0.00000000000E+00 -0.45593999997E+02  0.45594000000E+02  0.51100000000E-03 0. -1.
         23    2    1    2    0    0  0.00000000000E+00 -0.88817841970E-15  0.00000000000E+00  0.91188000000E+02  0.91188000000E+02 0.  0.
    9900012    2    3    3    0    0 -0.17810235090E+02  0.50372652205E+01 -0.31830841527E+02  0.54367068627E+02  0.39999964549E+02 0.  0.
        -12    1    3    3    0    0  0.17810235090E+02 -0.50372652205E+01  0.31830841527E+02  0.36820931373E+02  0.00000000000E+00 0.  1.
         11    1    4    4    0    0 -0.10933606091E+02  0.12152087580E+01 -0.20448241199E+02  0.23219626244E+02  0.51100000000E-03 0. -1.
        -11    1    4    4    0    0 -0.11576519482E+01 -0.58556375747E+01 -0.17401174682E+02  0.18396454279E+02  0.51100000000E-03 0.  1.
        -12    1    4    4    0    0 -0.57189770504E+01  0.96776940373E+01  0.60185743545E+01  0.12750988105E+02  0.00000000000E+00 0.  1.
</event>
<event>
 8    1  0.1269154E-006  0.9118800E+02  0.7816164E-02  0.1184000E+00
        -11   -1    0    0    0    0  0.00000000000E+00  0.00000000000E+00  0.45593999997E+02  0.45594000000E+02  0.51100000000E-03 0.  1.
         11   -1    0    0    0    0 -0.00000000000E+00 -0.00000000000E+00 -0.45593999997E+02  0.45594000000E+02  0.51100000000E-03 0. -1.
         23    2    1    2    0    0 -0.88817841970E-15  0.00000000000E+00 -0.66613381478E-15  0.91188000000E+02  0.91188000000E+02 0.  0.
    9900012    2    3    3    0    0 -0.24102082730E+01 -0.36711031633E+02 -0.15067857508E+01  0.54367090848E+02  0.40000015206E+02 0.  0.
         12    1    3    3    0    0  0.24102082730E+01  0.36711031633E+02  0.15067857508E+01  0.36820909152E+02  0.00000000000E+00 0. -1.
         11    1    4    4    0    0 -0.11664038448E+02 -0.23484229604E+02 -0.45325701726E+01  0.26610205291E+02  0.51100000000E-03 0. -1.
        -11    1    4    4    0    0  0.43066591483E+01 -0.30785471926E+01  0.12142061650E+02  0.13245921154E+02  0.51100000000E-03 0.  1.
         12    1    4    4    0    0  0.49471710264E+01 -0.10148254836E+02 -0.91162772286E+01  0.14510964403E+02  0.00000000000E+00 0. -1.
</event>
<event>
 8    1  0.1269154E-006  0.9118800E+02  0.7816164E-02  0.1184000E+00
        -11   -1    0    0    0    0  0.00000000000E+00  0.00000000000E+00  0.45593999997E+02  0.45594000000E+02  0.51100000000E-03 0.  1.
         11   -1    0    0    0    0 -0.00000000000E+00 -0.00000000000E+00 -0.45593999997E+02  0.45594000000E+02  0.51100000000E-03 0. -1.
         23    2    1    2    0    0  0.00000000000E+00 -0.35527136788E-14 -0.17763568394E-14  0.91188000000E+02  0.91188000000E+02 0.  0.
    9900012    2    3    3    0    0  0.24151331684E+02  0.26508024005E+02  0.83556863789E+01  0.54367086736E+02  0.40000005832E+02 0.  0.
         12    1    3    3    0    0 -0.24151331684E+02 -0.26508024005E+02 -0.83556863789E+01  0.36820913264E+02  0.00000000000E+00 0. -1.
         11    1    4    4    0    0  0.15556413262E+02 -0.49319019235E+01 -0.59644930102E+01  0.17375293588E+02  0.51100000000E-03 0. -1.
        -11    1    4    4    0    0  0.49870074051E+01  0.13359756501E+02  0.11544371195E+02  0.18347366110E+02  0.51100000000E-03 0.  1.
        -12    1    4    4    0    0  0.36079110170E+01  0.18080169427E+02  0.27758081936E+01  0.18644427037E+02  0.00000000000E+00 0.  1.
</event>
<event>
 8    1  0.1269154E-006  0.9118800E+02  0.7816164E-02  0.1184000E+00
        -11   -1    0    0    0    0  0.00000000000E+00  0.00000000000E+00  0.45593999997E+02  0.45594000000E+02  0.51100000000E-03 0. -1.
         11   -1    0    0    0    0 -0.00000000000E+00 -0.00000000000E+00 -0.45593999997E+02  0.45594000000E+02  0.51100000000E-03 0.  1.
         23    2    1    2    0    0  0.00000000000E+00  0.00000000000E+00  0.00000000000E+00  0.91188000000E+02  0.91188000000E+02 0.  0.
    9900012    2    3    3    0    0 -0.17710845771E+02 -0.24215545021E+02 -0.21347400422E+02  0.54367106701E+02  0.40000051346E+02 0.  0.
         12    1    3    3    0    0  0.17710845771E+02  0.24215545021E+02  0.21347400422E+02  0.36820893299E+02  0.00000000000E+00 0. -1.
         11    1    4    4    0    0 -0.10722424972E+02 -0.20579708093E+02  0.65636080852E+01  0.24115881361E+02  0.51100000000E-03 0. -1.
        -11    1    4    4    0    0 -0.29993512121E+01 -0.57002934462E+01 -0.10935283948E+02  0.12691331228E+02  0.51100000000E-03 0.  1.
         12    1    4    4    0    0 -0.39890695872E+01  0.20644565183E+01 -0.16975724560E+02  0.17559894112E+02  0.00000000000E+00 0. -1.
</event>
<event>
 8    1  0.1269154E-006  0.9118800E+02  0.7816164E-02  0.1184000E+00
        -11   -1    0    0    0    0  0.00000000000E+00  0.00000000000E+00  0.45593999997E+02  0.45594000000E+02  0.51100000000E-03 0.  1.
         11   -1    0    0    0    0 -0.00000000000E+00 -0.00000000000E+00 -0.45593999997E+02  0.45594000000E+02  0.51100000000E-03 0. -1.
         23    2    1    2    0    0  0.00000000000E+00  0.17763568394E-14  0.00000000000E+00  0.91188000000E+02  0.91188000000E+02 0.  0.
    9900012    2    3    3    0    0 -0.15146741721E+02  0.90904798457E+01 -0.32306649228E+02  0.54367079412E+02  0.39999989136E+02 0.  0.
        -12    1    3    3    0    0  0.15146741721E+02 -0.90904798457E+01  0.32306649228E+02  0.36820920588E+02  0.00000000000E+00 0.  1.
         11    1    4    4    0    0 -0.96373045550E+01 -0.34157129220E+01 -0.27996615843E+02  0.29805288671E+02  0.51100000000E-03 0. -1.
        -11    1    4    4    0    0 -0.51679635162E+01  0.20832943139E+01 -0.10888746245E+02  0.12231629375E+02  0.51100000000E-03 0.  1.
        -12    1    4    4    0    0 -0.34147365000E+00  0.10422898454E+02  0.65787128604E+01  0.12330161367E+02  0.00000000000E+00 0.  1.
</event>
<event>
 8    1  0.1269154E-006  0.9118800E+02  0.7816164E-02  0.1184000E+00
        -11   -1    0    0    0    0  0.00000000000E+00  0.00000000000E+00  0.45593999997E+02  0.45594000000E+02  0.51100000000E-03 0.  1.
         11   -1    0    0    0    0 -0.00000000000E+00 -0.00000000000E+00 -0.45593999997E+02  0.45594000000E+02  0.51100000000E-03 0. -1.
         23    2    1    2    0    0 -0.17763568394E-14  0.00000000000E+00  0.00000000000E+00  0.91188000000E+02  0.91188000000E+02 0.  0.
    9900012    2    3    3    0    0  0.10790968087E+02  0.30136757499E+02 -0.18196451984E+02  0.54367081901E+02  0.39999994810E+02 0.  0.
        -12    1    3    3    0    0 -0.10790968087E+02 -0.30136757499E+02  0.18196451984E+02  0.36820918099E+02  0.00000000000E+00 0.  1.
         11    1    4    4    0    0  0.17482660452E+02  0.32447414144E+02 -0.24877847868E+02  0.44467802013E+02  0.51100000000E-03 0. -1.
        -11    1    4    4    0    0 -0.32549233713E+01 -0.18799328514E+01  0.27353774121E+01  0.46487593535E+01  0.51100000000E-03 0.  1.
         12    1    4    4    0    0 -0.34367689935E+01 -0.43072379301E+00  0.39460184719E+01  0.52505205343E+01  0.00000000000E+00 0. -1.
</event>
<event>
 8    1  0.1269154E-006  0.9118800E+02  0.7816164E-02  0.1184000E+00
        -11   -1    0    0    0    0  0.00000000000E+00  0.00000000000E+00  0.45593999997E+02  0.45594000000E+02  0.51100000000E-03 0.  1.
         11   -1    0    0    0    0 -0.00000000000E+00 -0.00000000000E+00 -0.45593999997E+02  0.45594000000E+02  0.51100000000E-03 0. -1.
         23    2    1    2    0    0  0.00000000000E+00 -0.71054273576E-14 -0.88817841970E-15  0.91188000000E+02  0.91188000000E+02 0.  0.
    9900012    2    3    3    0    0  0.51413528559E+01 -0.36402982776E+02  0.20415963142E+01  0.54367098603E+02  0.40000032886E+02 0.  0.
         12    1    3    3    0    0 -0.51413528559E+01  0.36402982776E+02 -0.20415963142E+01  0.36820901397E+02  0.00000000000E+00 0. -1.
         11    1    4    4    0    0  0.11276501361E+02 -0.15571542018E+01 -0.65406632577E+01  0.13128765679E+02  0.51100000000E-03 0. -1.
        -11    1    4    4    0    0 -0.72489588380E+01 -0.41835030102E+01  0.62912256349E+01  0.10470368758E+02  0.51100000000E-03 0.  1.
         12    1    4    4    0    0  0.11138103329E+01 -0.30662325564E+02  0.22910339370E+01  0.30767964166E+02  0.00000000000E+00 0. -1.
</event>
<event>
 8    1  0.1269154E-006  0.9118800E+02  0.7816164E-02  0.1184000E+00
        -11   -1    0    0    0    0  0.00000000000E+00  0.00000000000E+00  0.45593999997E+02  0.45594000000E+02  0.51100000000E-03 0.  1.
         11   -1    0    0    0    0 -0.00000000000E+00 -0.00000000000E+00 -0.45593999997E+02  0.45594000000E+02  0.51100000000E-03 0. -1.
         23    2    1    2    0    0 -0.35527136788E-14  0.00000000000E+00  0.00000000000E+00  0.91188000000E+02  0.91188000000E+02 0.  0.
    9900012    2    3    3    0    0  0.25926721332E+02 -0.25510488422E+02  0.57269247068E+01  0.54367115096E+02  0.40000070484E+02 0.  0.
        -12    1    3    3    0    0 -0.25926721332E+02  0.25510488422E+02 -0.57269247068E+01  0.36820884904E+02  0.00000000000E+00 0.  1.
         11    1    4    4    0    0 -0.38528854708E+01 -0.24975083744E+01  0.51754963522E+01  0.69186730870E+01  0.51100000000E-03 0. -1.
        -11    1    4    4    0    0  0.27347089790E+02 -0.28653754183E+02  0.49154398098E+01  0.39913187013E+02  0.51100000000E-03 0.  1.
         12    1    4    4    0    0  0.24325170130E+01  0.56407741356E+01 -0.43640114553E+01  0.75352549957E+01  0.00000000000E+00 0. -1.
</event>
<event>
 8    1  0.1269154E-006  0.9118800E+02  0.7816164E-02  0.1184000E+00
        -11   -1    0    0    0    0  0.00000000000E+00  0.00000000000E+00  0.45593999997E+02  0.45594000000E+02  0.51100000000E-03 0. -1.
         11   -1    0    0    0    0 -0.00000000000E+00 -0.00000000000E+00 -0.45593999997E+02  0.45594000000E+02  0.51100000000E-03 0.  1.
         23    2    1    2    0    0 -0.35527136788E-14 -0.35527136788E-14  0.17763568394E-14  0.91188000000E+02  0.91188000000E+02 0.  0.
    9900012    2    3    3    0    0 -0.21230161037E+02 -0.26091437217E+02  0.14976561262E+02  0.54367079032E+02  0.39999988268E+02 0.  0.
        -12    1    3    3    0    0  0.21230161037E+02  0.26091437217E+02 -0.14976561262E+02  0.36820920968E+02  0.00000000000E+00 0.  1.
         11    1    4    4    0    0 -0.10241414063E+02 -0.28715345357E+02  0.12761795456E+02  0.33050280551E+02  0.51100000000E-03 0. -1.
        -11    1    4    4    0    0  0.30813766177E+01  0.32154327890E+01 -0.39416942043E+01  0.59473391816E+01  0.51100000000E-03 0.  1.
         12    1    4    4    0    0 -0.14070123591E+02 -0.59152464973E+00  0.61564600103E+01  0.15369459299E+02  0.00000000000E+00 0. -1.
</event>
<event>
 8    1  0.1269154E-006  0.9118800E+02  0.7816164E-02  0.1184000E+00
        -11   -1    0    0    0    0  0.00000000000E+00  0.00000000000E+00  0.45593999997E+02  0.45594000000E+02  0.51100000000E-03 0.  1.
         11   -1    0    0    0    0 -0.00000000000E+00 -0.00000000000E+00 -0.45593999997E+02  0.45594000000E+02  0.51100000000E-03 0. -1.
         23    2    1    2    0    0  0.44408920985E-15  0.00000000000E+00  0.00000000000E+00  0.91188000000E+02  0.91188000000E+02 0.  0.
    9900012    2    3    3    0    0 -0.11849358826E+01  0.33778426148E+02  0.14608004421E+02  0.54367082858E+02  0.39999996990E+02 0.  0.
         12    1    3    3    0    0  0.11849358826E+01 -0.33778426148E+02 -0.14608004421E+02  0.36820917142E+02  0.00000000000E+00 0. -1.
         11    1    4    4    0    0  0.84360111486E+01  0.21593407321E+02 -0.33697155551E+01  0.23426406191E+02  0.51100000000E-03 0. -1.
        -11    1    4    4    0    0 -0.86051629012E+01 -0.57111390859E+00  0.15743133114E+02  0.17950522003E+02  0.51100000000E-03 0.  1.
        -12    1    4    4    0    0 -0.10157841301E+01  0.12756132735E+02  0.22345868616E+01  0.12990154664E+02  0.00000000000E+00 0.  1.
</event>
<event>
 8    1  0.1269154E-006  0.9118800E+02  0.7816164E-02  0.1184000E+00
        -11   -1    0    0    0    0  0.00000000000E+00  0.00000000000E+00  0.45593999997E+02  0.45594000000E+02  0.51100000000E-03 0. -1.
         11   -1    0    0    0    0 -0.00000000000E+00 -0.00000000000E+00 -0.45593999997E+02  0.45594000000E+02  0.51100000000E-03 0.  1.
         23    2    1    2    0    0 -0.88817841970E-15 -0.22204460493E-15  0.00000000000E+00  0.91188000000E+02  0.91188000000E+02 0.  0.
    9900012    2    3    3    0    0 -0.65267253769E+01 -0.18156329111E+01  0.36192334150E+02  0.54367085858E+02  0.40000003830E+02 0.  0.
        -12    1    3    3    0    0  0.65267253769E+01  0.18156329111E+01 -0.36192334150E+02  0.36820914142E+02  0.00000000000E+00 0.  1.
         11    1    4    4    0    0 -0.66751013747E+00  0.45859791096E+01  0.63384401263E+01  0.78519168152E+01  0.51100000000E-03 0. -1.
        -11    1    4    4    0    0  0.97552965867E+01  0.74669283010E+01  0.32769509249E+01  0.12714528594E+02  0.51100000000E-03 0.  1.
         12    1    4    4    0    0 -0.15614511826E+02 -0.13868540322E+02  0.26576943099E+02  0.33800640448E+02  0.00000000000E+00 0. -1.
</event>
<event>
 8    1  0.1269154E-006  0.9118800E+02  0.7816164E-02  0.1184000E+00
        -11   -1    0    0    0    0  0.00000000000E+00  0.00000000000E+00  0.45593999997E+02  0.45594000000E+02  0.51100000000E-03 0. -1.
         11   -1    0    0    0    0 -0.00000000000E+00 -0.00000000000E+00 -0.45593999997E+02  0.45594000000E+02  0.51100000000E-03 0.  1.
         23    2    1    2    0    0 -0.88817841970E-15  0.00000000000E+00  0.00000000000E+00  0.91188000000E+02  0.91188000000E+02 0.  0.
    9900012    2    3    3    0    0 -0.61849785928E+01 -0.24581344835E+02 -0.26707359609E+02  0.54367088396E+02  0.40000009615E+02 0.  0.
         12    1    3    3    0    0  0.61849785928E+01  0.24581344835E+02  0.26707359609E+02  0.36820911604E+02  0.00000000000E+00 0. -1.
         11    1    4    4    0    0  0.20724658015E+01 -0.41623695538E+01  0.54967947781E+01  0.71996658183E+01  0.51100000000E-03 0. -1.
        -11    1    4    4    0    0 -0.15620960005E+02 -0.12487770748E+02 -0.30106432373E+02  0.36143548252E+02  0.51100000000E-03 0.  1.
        -12    1    4    4    0    0  0.73635156106E+01 -0.79312045332E+01 -0.20977220141E+01  0.11023874325E+02  0.00000000000E+00 0.  1.
</event>
<event>
 8    1  0.1269154E-006  0.9118800E+02  0.7816164E-02  0.1184000E+00
        -11   -1    0    0    0    0  0.00000000000E+00  0.00000000000E+00  0.45593999997E+02  0.45594000000E+02  0.51100000000E-03 0. -1.
         11   -1    0    0    0    0 -0.00000000000E+00 -0.00000000000E+00 -0.45593999997E+02  0.45594000000E+02  0.51100000000E-03 0.  1.
         23    2    1    2    0    0  0.35527136788E-14  0.00000000000E+00  0.00000000000E+00  0.91188000000E+02  0.91188000000E+02 0.  0.
    9900012    2    3    3    0    0 -0.18056641336E+02 -0.40202815024E+01  0.31836691314E+02  0.54367083750E+02  0.39999999025E+02 0.  0.
        -12    1    3    3    0    0  0.18056641336E+02  0.40202815024E+01 -0.31836691314E+02  0.36820916250E+02  0.00000000000E+00 0.  1.
         11    1    4    4    0    0  0.33440017925E+01 -0.29025500861E+01  0.55549732059E+01  0.71038632144E+01  0.51100000000E-03 0. -1.
        -11    1    4    4    0    0  0.52551060385E+00 -0.32172329977E+01 -0.67875912998E+01  0.75298170941E+01  0.51100000000E-03 0.  1.
         12    1    4    4    0    0 -0.21926153732E+02  0.20995015814E+01  0.33069309407E+02  0.39733403442E+02  0.00000000000E+00 0. -1.
</event>
<event>
 8    1  0.1269154E-006  0.9118800E+02  0.7816164E-02  0.1184000E+00
        -11   -1    0    0    0    0  0.00000000000E+00  0.00000000000E+00  0.45593999997E+02  0.45594000000E+02  0.51100000000E-03 0.  1.
         11   -1    0    0    0    0 -0.00000000000E+00 -0.00000000000E+00 -0.45593999997E+02  0.45594000000E+02  0.51100000000E-03 0. -1.
         23    2    1    2    0    0  0.00000000000E+00 -0.88817841970E-15  0.00000000000E+00  0.91188000000E+02  0.91188000000E+02 0.  0.
    9900012    2    3    3    0    0 -0.22416393763E+02  0.29007761094E+01  0.29066438151E+02  0.54367258044E+02  0.40000396361E+02 0.  0.
         12    1    3    3    0    0  0.22416393763E+02 -0.29007761094E+01 -0.29066438151E+02  0.36820741956E+02  0.00000000000E+00 0. -1.
         11    1    4    4    0    0 -0.19303782138E+02 -0.72192428546E+01  0.65515127680E+01  0.21625813095E+02  0.51100000000E-03 0. -1.
        -11    1    4    4    0    0 -0.10925645046E+02  0.11189059116E+02  0.17115993104E+02  0.23184520348E+02  0.51100000000E-03 0.  1.
         12    1    4    4    0    0  0.78130334203E+01 -0.10690401522E+01  0.53989322788E+01  0.95569246008E+01  0.00000000000E+00 0. -1.
</event>
<event>
 8    1  0.1269154E-006  0.9118800E+02  0.7816164E-02  0.1184000E+00
        -11   -1    0    0    0    0  0.00000000000E+00  0.00000000000E+00  0.45593999997E+02  0.45594000000E+02  0.51100000000E-03 0.  1.
         11   -1    0    0    0    0 -0.00000000000E+00 -0.00000000000E+00 -0.45593999997E+02  0.45594000000E+02  0.51100000000E-03 0. -1.
         23    2    1    2    0    0  0.35527136788E-14  0.17763568394E-14  0.00000000000E+00  0.91188000000E+02  0.91188000000E+02 0.  0.
    9900012    2    3    3    0    0  0.24164600514E+02  0.13238599363E+02 -0.24425235026E+02  0.54367074738E+02  0.39999978480E+02 0.  0.
        -12    1    3    3    0    0 -0.24164600514E+02 -0.13238599363E+02  0.24425235026E+02  0.36820925262E+02  0.00000000000E+00 0.  1.
         11    1    4    4    0    0  0.63640518740E+01  0.69086140127E+01  0.66199954708E+01  0.11491494425E+02  0.51100000000E-03 0. -1.
        -11    1    4    4    0    0  0.12904810644E+01 -0.14257682541E+01  0.33956630798E+01  0.39023947141E+01  0.51100000000E-03 0.  1.
         12    1    4    4    0    0  0.16510067575E+02  0.77557536044E+01 -0.34440893577E+02  0.38973185598E+02  0.00000000000E+00 0. -1.
</event>
<event>
 8    1  0.1269154E-006  0.9118800E+02  0.7816164E-02  0.1184000E+00
        -11   -1    0    0    0    0  0.00000000000E+00  0.00000000000E+00  0.45593999997E+02  0.45594000000E+02  0.51100000000E-03 0.  1.
         11   -1    0    0    0    0 -0.00000000000E+00 -0.00000000000E+00 -0.45593999997E+02  0.45594000000E+02  0.51100000000E-03 0. -1.
         23    2    1    2    0    0 -0.35527136788E-14  0.00000000000E+00 -0.17763568394E-14  0.91188000000E+02  0.91188000000E+02 0.  0.
    9900012    2    3    3    0    0  0.27232669431E+02  0.21448179820E+02  0.12415182341E+02  0.54367089440E+02  0.40000011997E+02 0.  0.
         12    1    3    3    0    0 -0.27232669431E+02 -0.21448179820E+02 -0.12415182341E+02  0.36820910560E+02  0.00000000000E+00 0. -1.
         11    1    4    4    0    0  0.22273103016E+02  0.78274799184E+01 -0.43025570090E+01  0.23997344788E+02  0.51100000000E-03 0. -1.
        -11    1    4    4    0    0  0.92580632799E+01  0.14927419951E+02  0.56931642484E+01  0.18464878053E+02  0.51100000000E-03 0.  1.
        -12    1    4    4    0    0 -0.42984968648E+01 -0.13067200492E+01  0.11024575101E+02  0.11904866599E+02  0.00000000000E+00 0.  1.
</event>
<event>
 8    1  0.1269154E-006  0.9118800E+02  0.7816164E-02  0.1184000E+00
        -11   -1    0    0    0    0  0.00000000000E+00  0.00000000000E+00  0.45593999997E+02  0.45594000000E+02  0.51100000000E-03 0.  1.
         11   -1    0    0    0    0 -0.00000000000E+00 -0.00000000000E+00 -0.45593999997E+02  0.45594000000E+02  0.51100000000E-03 0. -1.
         23    2    1    2    0    0  0.00000000000E+00 -0.17763568394E-14  0.88817841970E-15  0.91188000000E+02  0.91188000000E+02 0.  0.
    9900012    2    3    3    0    0 -0.35597767320E+02  0.54608728509E+01  0.76653512697E+01  0.54367085012E+02  0.40000001902E+02 0.  0.
        -12    1    3    3    0    0  0.35597767320E+02 -0.54608728509E+01 -0.76653512697E+01  0.36820914988E+02  0.00000000000E+00 0.  1.
         11    1    4    4    0    0 -0.35096543619E+02  0.17160354168E+02  0.19441432372E+01  0.39115531728E+02  0.51100000000E-03 0. -1.
        -11    1    4    4    0    0 -0.79503772962E+00 -0.70002361396E+01 -0.92587981423E+00  0.71058176654E+01  0.51100000000E-03 0.  1.
        -12    1    4    4    0    0  0.29381402853E+00 -0.46992451778E+01  0.66470878467E+01  0.81457356185E+01  0.00000000000E+00 0.  1.
</event>
<event>
 8    1  0.1269154E-006  0.9118800E+02  0.7816164E-02  0.1184000E+00
        -11   -1    0    0    0    0  0.00000000000E+00  0.00000000000E+00  0.45593999997E+02  0.45594000000E+02  0.51100000000E-03 0. -1.
         11   -1    0    0    0    0 -0.00000000000E+00 -0.00000000000E+00 -0.45593999997E+02  0.45594000000E+02  0.51100000000E-03 0.  1.
         23    2    1    2    0    0  0.00000000000E+00  0.00000000000E+00  0.35527136788E-14  0.91188000000E+02  0.91188000000E+02 0.  0.
    9900012    2    3    3    0    0  0.16647326987E+02  0.14539608380E+02  0.29449031134E+02  0.54367093678E+02  0.40000021658E+02 0.  0.
        -12    1    3    3    0    0 -0.16647326987E+02 -0.14539608380E+02 -0.29449031134E+02  0.36820906322E+02  0.00000000000E+00 0.  1.
         11    1    4    4    0    0  0.35018184155E+01  0.26573611290E+02  0.22248720481E+02  0.34834252002E+02  0.51100000000E-03 0. -1.
        -11    1    4    4    0    0  0.73643978280E+00 -0.43286077814E+00 -0.37501052721E+00  0.93292291406E+00  0.51100000000E-03 0.  1.
         12    1    4    4    0    0  0.12409068789E+02 -0.11601142132E+02  0.75753211796E+01  0.18599918762E+02  0.00000000000E+00 0. -1.
</event>
<event>
 8    1  0.1269154E-006  0.9118800E+02  0.7816164E-02  0.1184000E+00
        -11   -1    0    0    0    0  0.00000000000E+00  0.00000000000E+00  0.45593999997E+02  0.45594000000E+02  0.51100000000E-03 0. -1.
         11   -1    0    0    0    0 -0.00000000000E+00 -0.00000000000E+00 -0.45593999997E+02  0.45594000000E+02  0.51100000000E-03 0.  1.
         23    2    1    2    0    0  0.00000000000E+00  0.00000000000E+00  0.15543122345E-14  0.91188000000E+02  0.91188000000E+02 0.  0.
    9900012    2    3    3    0    0  0.17287092022E+02 -0.32468213128E+02 -0.16586674468E+01  0.54367087573E+02  0.40000007740E+02 0.  0.
        -12    1    3    3    0    0 -0.17287092022E+02  0.32468213128E+02  0.16586674468E+01  0.36820912427E+02  0.00000000000E+00 0.  1.
         11    1    4    4    0    0  0.58143282026E+01 -0.15968419740E+02  0.15097650736E+02  0.22731825695E+02  0.51100000000E-03 0. -1.
        -11    1    4    4    0    0 -0.36932488874E+01 -0.84302673406E+01 -0.86844377090E+01  0.12654206943E+02  0.51100000000E-03 0.  1.
         12    1    4    4    0    0  0.15166012707E+02 -0.80695260470E+01 -0.80718804734E+01  0.18981054934E+02  0.00000000000E+00 0. -1.
</event>
<event>
 8    1  0.1269154E-006  0.9118800E+02  0.7816164E-02  0.1184000E+00
        -11   -1    0    0    0    0  0.00000000000E+00  0.00000000000E+00  0.45593999997E+02  0.45594000000E+02  0.51100000000E-03 0. -1.
         11   -1    0    0    0    0 -0.00000000000E+00 -0.00000000000E+00 -0.45593999997E+02  0.45594000000E+02  0.51100000000E-03 0.  1.
         23    2    1    2    0    0  0.00000000000E+00  0.35527136788E-14  0.00000000000E+00  0.91188000000E+02  0.91188000000E+02 0.  0.
    9900012    2    3    3    0    0 -0.26591107529E+02 -0.25133295467E+02 -0.41244449974E+01  0.54367074059E+02  0.39999976931E+02 0.  0.
        -12    1    3    3    0    0  0.26591107529E+02  0.25133295467E+02  0.41244449974E+01  0.36820925941E+02  0.00000000000E+00 0.  1.
         11    1    4    4    0    0 -0.44469837514E+01  0.50728324753E+01 -0.23069093540E+01  0.71295949981E+01  0.51100000000E-03 0. -1.
        -11    1    4    4    0    0 -0.12400744887E+02  0.25078343731E+01  0.22892035121E+01  0.12857222094E+02  0.51100000000E-03 0.  1.
         12    1    4    4    0    0 -0.97433788906E+01 -0.32713962316E+02 -0.41067391555E+01  0.34380256967E+02  0.00000000000E+00 0. -1.
</event>
<event>
 8    1  0.1269154E-006  0.9118800E+02  0.7816164E-02  0.1184000E+00
        -11   -1    0    0    0    0  0.00000000000E+00  0.00000000000E+00  0.45593999997E+02  0.45594000000E+02  0.51100000000E-03 0. -1.
         11   -1    0    0    0    0 -0.00000000000E+00 -0.00000000000E+00 -0.45593999997E+02  0.45594000000E+02  0.51100000000E-03 0.  1.
         23    2    1    2    0    0  0.35527136788E-14 -0.88817841970E-15 -0.71054273576E-14  0.91188000000E+02  0.91188000000E+02 0.  0.
    9900012    2    3    3    0    0 -0.18486808142E+02  0.73110512063E+01  0.30993010196E+02  0.54367078963E+02  0.39999988112E+02 0.  0.
        -12    1    3    3    0    0  0.18486808142E+02 -0.73110512063E+01 -0.30993010196E+02  0.36820921037E+02  0.00000000000E+00 0.  1.
         11    1    4    4    0    0 -0.10238185688E+02 -0.46858876814E+01  0.15735412257E+02  0.19348932496E+02  0.51100000000E-03 0. -1.
        -11    1    4    4    0    0 -0.32113638297E+01  0.15591333154E+02 -0.25902225469E+01  0.16127981283E+02  0.51100000000E-03 0.  1.
        -12    1    4    4    0    0 -0.50372586241E+01 -0.35943942666E+01  0.17847820486E+02  0.18890165184E+02  0.00000000000E+00 0.  1.
</event>
<event>
 8    1  0.1269154E-006  0.9118800E+02  0.7816164E-02  0.1184000E+00
        -11   -1    0    0    0    0  0.00000000000E+00  0.00000000000E+00  0.45593999997E+02  0.45594000000E+02  0.51100000000E-03 0.  1.
         11   -1    0    0    0    0 -0.00000000000E+00 -0.00000000000E+00 -0.45593999997E+02  0.45594000000E+02  0.51100000000E-03 0. -1.
         23    2    1    2    0    0  0.00000000000E+00  0.17763568394E-14  0.00000000000E+00  0.91188000000E+02  0.91188000000E+02 0.  0.
    9900012    2    3    3    0    0 -0.32219326695E+02  0.12324126543E+02 -0.12876738514E+02  0.54367088788E+02  0.40000010510E+02 0.  0.
        -12    1    3    3    0    0  0.32219326695E+02 -0.12324126543E+02  0.12876738514E+02  0.36820911212E+02  0.00000000000E+00 0.  1.
         11    1    4    4    0    0 -0.13692113593E+01 -0.92471806876E+00 -0.35761233393E+01  0.39393529485E+01  0.51100000000E-03 0. -1.
        -11    1    4    4    0    0 -0.33635224352E+02  0.50322256677E+01 -0.17710669789E+02  0.38344744582E+02  0.51100000000E-03 0.  1.
        -12    1    4    4    0    0  0.27851090170E+01  0.82166189443E+01  0.84100546147E+01  0.12082991258E+02  0.00000000000E+00 0.  1.
</event>
<event>
 8    1  0.1269154E-006  0.9118800E+02  0.7816164E-02  0.1184000E+00
        -11   -1    0    0    0    0  0.00000000000E+00  0.00000000000E+00  0.45593999997E+02  0.45594000000E+02  0.51100000000E-03 0.  1.
         11   -1    0    0    0    0 -0.00000000000E+00 -0.00000000000E+00 -0.45593999997E+02  0.45594000000E+02  0.51100000000E-03 0. -1.
         23    2    1    2    0    0  0.11102230246E-15  0.00000000000E+00  0.00000000000E+00  0.91188000000E+02  0.91188000000E+02 0.  0.
    9900012    2    3    3    0    0 -0.61449323748E+00  0.87895574924E+01 -0.35751392102E+02  0.54366865307E+02  0.39999501038E+02 0.  0.
        -12    1    3    3    0    0  0.61449323748E+00 -0.87895574924E+01  0.35751392102E+02  0.36821134693E+02  0.00000000000E+00 0.  1.
         11    1    4    4    0    0  0.14361761754E+02  0.44186945019E+01 -0.78552973026E+01  0.16955552417E+02  0.51100000000E-03 0. -1.
        -11    1    4    4    0    0 -0.41543759272E+01 -0.76409203263E+01 -0.11048311201E+02  0.14060856426E+02  0.51100000000E-03 0.  1.
         12    1    4    4    0    0 -0.10821879064E+02  0.12011783317E+02 -0.16847783598E+02  0.23350456465E+02  0.00000000000E+00 0. -1.
</event>
<event>
 8    1  0.1269154E-006  0.9118800E+02  0.7816164E-02  0.1184000E+00
        -11   -1    0    0    0    0  0.00000000000E+00  0.00000000000E+00  0.45593999997E+02  0.45594000000E+02  0.51100000000E-03 0. -1.
         11   -1    0    0    0    0 -0.00000000000E+00 -0.00000000000E+00 -0.45593999997E+02  0.45594000000E+02  0.51100000000E-03 0.  1.
         23    2    1    2    0    0  0.00000000000E+00 -0.35527136788E-14  0.00000000000E+00  0.91188000000E+02  0.91188000000E+02 0.  0.
    9900012    2    3    3    0    0  0.15631145110E+02 -0.28469887299E+02  0.17346808315E+02  0.54367096440E+02  0.40000027955E+02 0.  0.
         12    1    3    3    0    0 -0.15631145110E+02  0.28469887299E+02 -0.17346808315E+02  0.36820903560E+02  0.00000000000E+00 0. -1.
         11    1    4    4    0    0 -0.97395543607E+01  0.59728063256E+00  0.10680578533E+02  0.14466873241E+02  0.51100000000E-03 0. -1.
        -11    1    4    4    0    0  0.14540342102E+02 -0.22066033077E+02  0.50333037690E+01  0.26901031788E+02  0.51100000000E-03 0.  1.
         12    1    4    4    0    0  0.10830357368E+02 -0.70011348547E+01  0.16329260130E+01  0.12999191411E+02  0.00000000000E+00 0. -1.
</event>
<event>
 8    1  0.1269154E-006  0.9118800E+02  0.7816164E-02  0.1184000E+00
        -11   -1    0    0    0    0  0.00000000000E+00  0.00000000000E+00  0.45593999997E+02  0.45594000000E+02  0.51100000000E-03 0.  1.
         11   -1    0    0    0    0 -0.00000000000E+00 -0.00000000000E+00 -0.45593999997E+02  0.45594000000E+02  0.51100000000E-03 0. -1.
         23    2    1    2    0    0 -0.35527136788E-14  0.00000000000E+00  0.00000000000E+00  0.91188000000E+02  0.91188000000E+02 0.  0.
    9900012    2    3    3    0    0  0.23395808539E+02 -0.74267178472E+01  0.27445585267E+02  0.54367080052E+02  0.39999990594E+02 0.  0.
         12    1    3    3    0    0 -0.23395808539E+02  0.74267178472E+01 -0.27445585267E+02  0.36820919948E+02  0.00000000000E+00 0. -1.
         11    1    4    4    0    0 -0.62608577838E+01 -0.50789403019E+01  0.67839671708E+01  0.10536421860E+02  0.51100000000E-03 0. -1.
        -11    1    4    4    0    0  0.34049115303E+02 -0.15875561290E+01  0.17158790524E+02  0.38161324399E+02  0.51100000000E-03 0.  1.
        -12    1    4    4    0    0 -0.43924489807E+01 -0.76022141628E+00  0.35028275721E+01  0.56693337924E+01  0.00000000000E+00 0.  1.
</event>
<event>
 8    1  0.1269154E-006  0.9118800E+02  0.7816164E-02  0.1184000E+00
        -11   -1    0    0    0    0  0.00000000000E+00  0.00000000000E+00  0.45593999997E+02  0.45594000000E+02  0.51100000000E-03 0. -1.
         11   -1    0    0    0    0 -0.00000000000E+00 -0.00000000000E+00 -0.45593999997E+02  0.45594000000E+02  0.51100000000E-03 0.  1.
         23    2    1    2    0    0 -0.35527136788E-14  0.17763568394E-14  0.35527136788E-14  0.91188000000E+02  0.91188000000E+02 0.  0.
    9900012    2    3    3    0    0  0.31231343489E+02 -0.96295212671E+01 -0.16960377491E+02  0.54367096961E+02  0.40000029143E+02 0.  0.
         12    1    3    3    0    0 -0.31231343489E+02  0.96295212671E+01  0.16960377491E+02  0.36820903039E+02  0.00000000000E+00 0. -1.
         11    1    4    4    0    0 -0.95821949377E+01 -0.30381121166E+01 -0.21957916806E+01  0.10289319046E+02  0.51100000000E-03 0.  1.
        -11    1    4    4    0    0  0.53804940933E+01 -0.52482707104E+00 -0.60008636372E+00  0.54392337739E+01  0.51100000000E-03 0. -1.
        -12    1    4    4    0    0  0.35433044333E+02 -0.60665820795E+01 -0.14164499447E+02  0.38638544142E+02  0.00000000000E+00 0.  1.
</event>
<event>
 8    1  0.1269154E-006  0.9118800E+02  0.7816164E-02  0.1184000E+00
        -11   -1    0    0    0    0  0.00000000000E+00  0.00000000000E+00  0.45593999997E+02  0.45594000000E+02  0.51100000000E-03 0. -1.
         11   -1    0    0    0    0 -0.00000000000E+00 -0.00000000000E+00 -0.45593999997E+02  0.45594000000E+02  0.51100000000E-03 0.  1.
         23    2    1    2    0    0  0.00000000000E+00  0.17763568394E-14  0.00000000000E+00  0.91188000000E+02  0.91188000000E+02 0.  0.
    9900012    2    3    3    0    0 -0.17449732974E+02  0.64473341311E+01 -0.31776059894E+02  0.54367091801E+02  0.40000017378E+02 0.  0.
         12    1    3    3    0    0  0.17449732974E+02 -0.64473341311E+01  0.31776059894E+02  0.36820908199E+02  0.00000000000E+00 0. -1.
         11    1    4    4    0    0 -0.13998545748E+02  0.44095061132E+00  0.29121941000E+01  0.14305054884E+02  0.51100000000E-03 0. -1.
        -11    1    4    4    0    0 -0.84355714724E+01 -0.35913201248E+01 -0.17456891660E+02  0.19717999721E+02  0.51100000000E-03 0.  1.
         12    1    4    4    0    0  0.49843842458E+01  0.95977036446E+01 -0.17231362334E+02  0.20344037196E+02  0.00000000000E+00 0. -1.
</event>
<event>
 8    1  0.1269154E-006  0.9118800E+02  0.7816164E-02  0.1184000E+00
        -11   -1    0    0    0    0  0.00000000000E+00  0.00000000000E+00  0.45593999997E+02  0.45594000000E+02  0.51100000000E-03 0.  1.
         11   -1    0    0    0    0 -0.00000000000E+00 -0.00000000000E+00 -0.45593999997E+02  0.45594000000E+02  0.51100000000E-03 0. -1.
         23    2    1    2    0    0 -0.17763568394E-14  0.00000000000E+00 -0.35527136788E-14  0.91188000000E+02  0.91188000000E+02 0.  0.
    9900012    2    3    3    0    0 -0.55018169729E+01 -0.24868862249E+02 -0.26590421530E+02  0.54367070942E+02  0.39999969827E+02 0.  0.
        -12    1    3    3    0    0  0.55018169729E+01  0.24868862249E+02  0.26590421530E+02  0.36820929058E+02  0.00000000000E+00 0.  1.
         11    1    4    4    0    0 -0.27135369321E+01 -0.15430570356E+02 -0.22794820236E+02  0.27659891794E+02  0.51100000000E-03 0. -1.
        -11    1    4    4    0    0  0.82034489596E+01  0.35980633672E+01 -0.36002302199E+01  0.96542370348E+01  0.51100000000E-03 0.  1.
        -12    1    4    4    0    0 -0.10991729000E+02 -0.13036355260E+02 -0.19537107396E+00  0.17052942114E+02  0.00000000000E+00 0.  1.
</event>
<event>
 8    1  0.1269154E-006  0.9118800E+02  0.7816164E-02  0.1184000E+00
        -11   -1    0    0    0    0  0.00000000000E+00  0.00000000000E+00  0.45593999997E+02  0.45594000000E+02  0.51100000000E-03 0.  1.
         11   -1    0    0    0    0 -0.00000000000E+00 -0.00000000000E+00 -0.45593999997E+02  0.45594000000E+02  0.51100000000E-03 0. -1.
         23    2    1    2    0    0  0.00000000000E+00  0.17763568394E-14  0.00000000000E+00  0.91188000000E+02  0.91188000000E+02 0.  0.
    9900012    2    3    3    0    0 -0.26726201906E+02  0.15819682786E+02  0.19779512089E+02  0.54367063968E+02  0.39999953928E+02 0.  0.
         12    1    3    3    0    0  0.26726201906E+02 -0.15819682786E+02 -0.19779512089E+02  0.36820936032E+02  0.00000000000E+00 0. -1.
         11    1    4    4    0    0  0.74270472893E+01  0.37988985887E+01 -0.13861455333E+01  0.84565987031E+01  0.51100000000E-03 0. -1.
        -11    1    4    4    0    0 -0.16668925320E+02  0.15668199950E+02  0.12162334879E+02  0.25908839244E+02  0.51100000000E-03 0.  1.
        -12    1    4    4    0    0 -0.17484323875E+02 -0.36474157530E+01  0.90033227434E+01  0.20001626021E+02  0.00000000000E+00 0.  1.
</event>
<event>
 8    1  0.1269154E-006  0.9118800E+02  0.7816164E-02  0.1184000E+00
        -11   -1    0    0    0    0  0.00000000000E+00  0.00000000000E+00  0.45593999997E+02  0.45594000000E+02  0.51100000000E-03 0.  1.
         11   -1    0    0    0    0 -0.00000000000E+00 -0.00000000000E+00 -0.45593999997E+02  0.45594000000E+02  0.51100000000E-03 0. -1.
         23    2    1    2    0    0  0.35527136788E-14  0.88817841970E-15  0.35527136788E-14  0.91188000000E+02  0.91188000000E+02 0.  0.
    9900012    2    3    3    0    0  0.29387204993E+02 -0.55380167209E+01  0.21482597518E+02  0.54367089601E+02  0.40000012364E+02 0.  0.
         12    1    3    3    0    0 -0.29387204993E+02  0.55380167209E+01 -0.21482597518E+02  0.36820910399E+02  0.00000000000E+00 0. -1.
         11    1    4    4    0    0  0.13522281600E+01  0.89985343949E+01  0.18807765745E+01  0.92919030902E+01  0.51100000000E-03 0. -1.
        -11    1    4    4    0    0  0.24032103061E+01 -0.13810627424E+02  0.11653676212E+02  0.18229564425E+02  0.51100000000E-03 0.  1.
         12    1    4    4    0    0  0.25631766527E+02 -0.72592369138E+00  0.79481447316E+01  0.26845622086E+02  0.00000000000E+00 0. -1.
</event>
<event>
 8    1  0.1269154E-006  0.9118800E+02  0.7816164E-02  0.1184000E+00
        -11   -1    0    0    0    0  0.00000000000E+00  0.00000000000E+00  0.45593999997E+02  0.45594000000E+02  0.51100000000E-03 0. -1.
         11   -1    0    0    0    0 -0.00000000000E+00 -0.00000000000E+00 -0.45593999997E+02  0.45594000000E+02  0.51100000000E-03 0.  1.
         23    2    1    2    0    0  0.00000000000E+00  0.00000000000E+00  0.00000000000E+00  0.91188000000E+02  0.91188000000E+02 0.  0.
    9900012    2    3    3    0    0 -0.20777188079E+02 -0.19701848226E+02  0.23150042180E+02  0.54367098043E+02  0.40000031608E+02 0.  0.
        -12    1    3    3    0    0  0.20777188079E+02  0.19701848226E+02 -0.23150042180E+02  0.36820901957E+02  0.00000000000E+00 0.  1.
         11    1    4    4    0    0 -0.13368126818E+02 -0.57205360918E+01  0.21665022448E+00  0.14542292989E+02  0.51100000000E-03 0. -1.
        -11    1    4    4    0    0 -0.93051906477E+01  0.34951984849E+01  0.19537552781E+02  0.21920742560E+02  0.51100000000E-03 0.  1.
        -12    1    4    4    0    0  0.18961293874E+01 -0.17476510619E+02  0.33958391748E+01  0.17904062494E+02  0.00000000000E+00 0.  1.
</event>
<event>
 8    1  0.1269154E-006  0.9118800E+02  0.7816164E-02  0.1184000E+00
        -11   -1    0    0    0    0  0.00000000000E+00  0.00000000000E+00  0.45593999997E+02  0.45594000000E+02  0.51100000000E-03 0.  1.
         11   -1    0    0    0    0 -0.00000000000E+00 -0.00000000000E+00 -0.45593999997E+02  0.45594000000E+02  0.51100000000E-03 0. -1.
         23    2    1    2    0    0  0.00000000000E+00 -0.35527136788E-14  0.35527136788E-14  0.91188000000E+02  0.91188000000E+02 0.  0.
    9900012    2    3    3    0    0 -0.17601375720E+02  0.18830860057E+02 -0.26293907391E+02  0.54367091760E+02  0.40000017285E+02 0.  0.
        -12    1    3    3    0    0  0.17601375720E+02 -0.18830860057E+02  0.26293907391E+02  0.36820908240E+02  0.00000000000E+00 0.  1.
         11    1    4    4    0    0 -0.99881474409E+01  0.29228535576E+00 -0.11846022934E+02  0.15497637873E+02  0.51100000000E-03 0. -1.
        -11    1    4    4    0    0 -0.16426073420E+02  0.73312841002E+01 -0.16568127113E+02  0.24455397172E+02  0.51100000000E-03 0.  1.
        -12    1    4    4    0    0  0.88128451404E+01  0.11207290601E+02  0.21202426553E+01  0.14414056715E+02  0.00000000000E+00 0.  1.
</event>
<event>
 8    1  0.1269154E-006  0.9118800E+02  0.7816164E-02  0.1184000E+00
        -11   -1    0    0    0    0  0.00000000000E+00  0.00000000000E+00  0.45593999997E+02  0.45594000000E+02  0.51100000000E-03 0. -1.
         11   -1    0    0    0    0 -0.00000000000E+00 -0.00000000000E+00 -0.45593999997E+02  0.45594000000E+02  0.51100000000E-03 0.  1.
         23    2    1    2    0    0  0.00000000000E+00  0.00000000000E+00  0.71054273576E-14  0.91188000000E+02  0.91188000000E+02 0.  0.
    9900012    2    3    3    0    0  0.23586984597E+02  0.96936492201E+01  0.26560638821E+02  0.54367079151E+02  0.39999988541E+02 0.  0.
         12    1    3    3    0    0 -0.23586984597E+02 -0.96936492201E+01 -0.26560638821E+02  0.36820920849E+02  0.00000000000E+00 0. -1.
         11    1    4    4    0    0 -0.10053679078E+02 -0.31268416825E+01  0.95358365489E+01  0.14205132202E+02  0.51100000000E-03 0. -1.
        -11    1    4    4    0    0  0.31698556734E+02  0.12545056148E+02  0.17215838809E+02  0.38191125133E+02  0.51100000000E-03 0.  1.
         12    1    4    4    0    0  0.19421069410E+01  0.27543475423E+00 -0.19103653652E+00  0.19708218165E+01  0.00000000000E+00 0. -1.
</event>
<event>
 8    1  0.1269154E-006  0.9118800E+02  0.7816164E-02  0.1184000E+00
        -11   -1    0    0    0    0  0.00000000000E+00  0.00000000000E+00  0.45593999997E+02  0.45594000000E+02  0.51100000000E-03 0. -1.
         11   -1    0    0    0    0 -0.00000000000E+00 -0.00000000000E+00 -0.45593999997E+02  0.45594000000E+02  0.51100000000E-03 0.  1.
         23    2    1    2    0    0 -0.88817841970E-15  0.00000000000E+00  0.35527136788E-14  0.91188000000E+02  0.91188000000E+02 0.  0.
    9900012    2    3    3    0    0  0.49719668361E+01  0.25790012308E+02 -0.25805656175E+02  0.54367121688E+02  0.40000085511E+02 0.  0.
         12    1    3    3    0    0 -0.49719668361E+01 -0.25790012308E+02  0.25805656175E+02  0.36820878312E+02  0.00000000000E+00 0. -1.
         11    1    4    4    0    0 -0.68420193272E+01 -0.40867331657E+01 -0.62811293694E+01  0.10147275637E+02  0.51100000000E-03 0. -1.
        -11    1    4    4    0    0  0.59971791728E+01  0.52141839034E+01 -0.16986847310E+02  0.18753849035E+02  0.51100000000E-03 0.  1.
         12    1    4    4    0    0  0.58168069905E+01  0.24662561571E+02 -0.25376794952E+01  0.25465997016E+02  0.00000000000E+00 0. -1.
</event>
<event>
 8    1  0.1269154E-006  0.9118800E+02  0.7816164E-02  0.1184000E+00
        -11   -1    0    0    0    0  0.00000000000E+00  0.00000000000E+00  0.45593999997E+02  0.45594000000E+02  0.51100000000E-03 0.  1.
         11   -1    0    0    0    0 -0.00000000000E+00 -0.00000000000E+00 -0.45593999997E+02  0.45594000000E+02  0.51100000000E-03 0. -1.
         23    2    1    2    0    0 -0.71054273576E-14  0.13322676296E-14  0.17763568394E-14  0.91188000000E+02  0.91188000000E+02 0.  0.
    9900012    2    3    3    0    0  0.35220323778E+02  0.23101384773E+01 -0.10486767534E+02  0.54367078771E+02  0.39999987674E+02 0.  0.
        -12    1    3    3    0    0 -0.35220323778E+02 -0.23101384773E+01  0.10486767534E+02  0.36820921229E+02  0.00000000000E+00 0.  1.
         11    1    4    4    0    0  0.17019343682E+02 -0.10912437471E+02 -0.10385710613E+02  0.22728887701E+02  0.51100000000E-03 0. -1.
        -11    1    4    4    0    0  0.12405093698E+02  0.17429433479E+02 -0.61544275967E+01  0.22260918228E+02  0.51100000000E-03 0.  1.
        -12    1    4    4    0    0  0.57958863982E+01 -0.42068575307E+01  0.60533706756E+01  0.93772728424E+01  0.00000000000E+00 0.  1.
</event>
<event>
 8    1  0.1269154E-006  0.9118800E+02  0.7816164E-02  0.1184000E+00
        -11   -1    0    0    0    0  0.00000000000E+00  0.00000000000E+00  0.45593999997E+02  0.45594000000E+02  0.51100000000E-03 0. -1.
         11   -1    0    0    0    0 -0.00000000000E+00 -0.00000000000E+00 -0.45593999997E+02  0.45594000000E+02  0.51100000000E-03 0.  1.
         23    2    1    2    0    0  0.00000000000E+00  0.00000000000E+00  0.00000000000E+00  0.91188000000E+02  0.91188000000E+02 0.  0.
    9900012    2    3    3    0    0 -0.20935381018E+02  0.12356032914E+02 -0.27655510928E+02  0.54366959650E+02  0.39999716114E+02 0.  0.
         12    1    3    3    0    0  0.20935381018E+02 -0.12356032914E+02  0.27655510928E+02  0.36821040350E+02  0.00000000000E+00 0. -1.
         11    1    4    4    0    0 -0.95152431343E+01  0.16412698057E+02  0.47483303031E+01  0.19556665113E+02  0.51100000000E-03 0. -1.
        -11    1    4    4    0    0 -0.93810761142E+01 -0.16832514799E+01 -0.25755849414E+02  0.27462733001E+02  0.51100000000E-03 0.  1.
         12    1    4    4    0    0 -0.20390617698E+01 -0.23734136637E+01 -0.66479918173E+01  0.73475615358E+01  0.00000000000E+00 0. -1.
</event>
<event>
 8    1  0.1269154E-006  0.9118800E+02  0.7816164E-02  0.1184000E+00
        -11   -1    0    0    0    0  0.00000000000E+00  0.00000000000E+00  0.45593999997E+02  0.45594000000E+02  0.51100000000E-03 0.  1.
         11   -1    0    0    0    0 -0.00000000000E+00 -0.00000000000E+00 -0.45593999997E+02  0.45594000000E+02  0.51100000000E-03 0. -1.
         23    2    1    2    0    0  0.00000000000E+00  0.17763568394E-14  0.00000000000E+00  0.91188000000E+02  0.91188000000E+02 0.  0.
    9900012    2    3    3    0    0  0.30752971100E+02 -0.13920423882E+02 -0.14705629932E+02  0.54367095826E+02  0.40000026554E+02 0.  0.
        -12    1    3    3    0    0 -0.30752971100E+02  0.13920423882E+02  0.14705629932E+02  0.36820904174E+02  0.00000000000E+00 0.  1.
         11    1    4    4    0    0  0.82900215968E+01 -0.72695527520E+01 -0.25538396746E+00  0.11028874672E+02  0.51100000000E-03 0. -1.
        -11    1    4    4    0    0  0.83542815432E+01 -0.19284536232E+02 -0.12110103155E+02  0.24255761305E+02  0.51100000000E-03 0.  1.
        -12    1    4    4    0    0  0.14108667960E+02  0.12633665103E+02 -0.23401428101E+01  0.19082459849E+02  0.00000000000E+00 0.  1.
</event>
<event>
 8    1  0.1269154E-006  0.9118800E+02  0.7816164E-02  0.1184000E+00
        -11   -1    0    0    0    0  0.00000000000E+00  0.00000000000E+00  0.45593999997E+02  0.45594000000E+02  0.51100000000E-03 0.  1.
         11   -1    0    0    0    0 -0.00000000000E+00 -0.00000000000E+00 -0.45593999997E+02  0.45594000000E+02  0.51100000000E-03 0. -1.
         23    2    1    2    0    0  0.88817841970E-15  0.00000000000E+00 -0.35527136788E-14  0.91188000000E+02  0.91188000000E+02 0.  0.
    9900012    2    3    3    0    0  0.48856609591E+01 -0.25267441743E+02 -0.26333750177E+02  0.54367086192E+02  0.40000004593E+02 0.  0.
        -12    1    3    3    0    0 -0.48856609591E+01  0.25267441743E+02  0.26333750177E+02  0.36820913808E+02  0.00000000000E+00 0.  1.
         11    1    4    4    0    0 -0.11044618341E+02 -0.24606593155E+02 -0.26989514715E+02  0.38156282914E+02  0.51100000000E-03 0. -1.
        -11    1    4    4    0    0  0.47134509653E+01  0.79953641508E+00  0.10407623473E+01  0.48927563813E+01  0.51100000000E-03 0.  1.
         12    1    4    4    0    0  0.11216828335E+02 -0.14603850035E+01 -0.38499780935E+00  0.11318046897E+02  0.00000000000E+00 0. -1.
</event>
<event>
 8    1  0.1269154E-006  0.9118800E+02  0.7816164E-02  0.1184000E+00
        -11   -1    0    0    0    0  0.00000000000E+00  0.00000000000E+00  0.45593999997E+02  0.45594000000E+02  0.51100000000E-03 0.  1.
         11   -1    0    0    0    0 -0.00000000000E+00 -0.00000000000E+00 -0.45593999997E+02  0.45594000000E+02  0.51100000000E-03 0. -1.
         23    2    1    2    0    0  0.00000000000E+00  0.35527136788E-14  0.00000000000E+00  0.91188000000E+02  0.91188000000E+02 0.  0.
    9900012    2    3    3    0    0 -0.19603709924E+02  0.27518495791E+02 -0.14635788320E+02  0.54367090816E+02  0.40000015133E+02 0.  0.
         12    1    3    3    0    0  0.19603709924E+02 -0.27518495791E+02  0.14635788320E+02  0.36820909184E+02  0.00000000000E+00 0. -1.
         11    1    4    4    0    0 -0.30293830592E+01 -0.29725558504E+01  0.20564810159E+01  0.47161811281E+01  0.51100000000E-03 0. -1.
        -11    1    4    4    0    0  0.41403762761E+01 -0.28087959590E+01  0.29307699796E+01  0.57984017954E+01  0.51100000000E-03 0.  1.
         12    1    4    4    0    0 -0.20714703141E+02  0.33299847601E+02 -0.19623039316E+02  0.43852507892E+02  0.00000000000E+00 0. -1.
</event>
<event>
 8    1  0.1269154E-006  0.9118800E+02  0.7816164E-02  0.1184000E+00
        -11   -1    0    0    0    0  0.00000000000E+00  0.00000000000E+00  0.45593999997E+02  0.45594000000E+02  0.51100000000E-03 0.  1.
         11   -1    0    0    0    0 -0.00000000000E+00 -0.00000000000E+00 -0.45593999997E+02  0.45594000000E+02  0.51100000000E-03 0. -1.
         23    2    1    2    0    0  0.00000000000E+00  0.00000000000E+00  0.35527136788E-14  0.91188000000E+02  0.91188000000E+02 0.  0.
    9900012    2    3    3    0    0 -0.21972390361E+02  0.22459749897E+02 -0.19197766099E+02  0.54367074879E+02  0.39999978802E+02 0.  0.
         12    1    3    3    0    0  0.21972390361E+02 -0.22459749897E+02  0.19197766099E+02  0.36820925121E+02  0.00000000000E+00 0. -1.
         11    1    4    4    0    0 -0.49259370753E+01  0.12320799596E+01 -0.85742750499E+01  0.99649922222E+01  0.51100000000E-03 0. -1.
        -11    1    4    4    0    0  0.15350476396E+00  0.63442833984E+01 -0.19101426668E+02  0.20128040057E+02  0.51100000000E-03 0.  1.
        -12    1    4    4    0    0 -0.17199958049E+02  0.14883386539E+02  0.84779356189E+01  0.24274042599E+02  0.00000000000E+00 0.  1.
</event>
<event>
 8    1  0.1269154E-006  0.9118800E+02  0.7816164E-02  0.1184000E+00
        -11   -1    0    0    0    0  0.00000000000E+00  0.00000000000E+00  0.45593999997E+02  0.45594000000E+02  0.51100000000E-03 0. -1.
         11   -1    0    0    0    0 -0.00000000000E+00 -0.00000000000E+00 -0.45593999997E+02  0.45594000000E+02  0.51100000000E-03 0.  1.
         23    2    1    2    0    0  0.00000000000E+00 -0.35527136788E-14  0.00000000000E+00  0.91188000000E+02  0.91188000000E+02 0.  0.
    9900012    2    3    3    0    0  0.16298944834E+02 -0.16375377707E+02  0.28670038122E+02  0.54367086328E+02  0.40000004901E+02 0.  0.
        -12    1    3    3    0    0 -0.16298944834E+02  0.16375377707E+02 -0.28670038122E+02  0.36820913672E+02  0.00000000000E+00 0.  1.
         11    1    4    4    0    0  0.13038670353E+02 -0.46598305375E+01  0.16215433195E+02  0.21322786384E+02  0.51100000000E-03 0. -1.
        -11    1    4    4    0    0  0.57301021993E+01 -0.20101608461E+02  0.12396528459E+02  0.24301906346E+02  0.51100000000E-03 0.  1.
        -12    1    4    4    0    0 -0.24698277183E+01  0.83860612919E+01  0.58076467770E-01  0.87423935981E+01  0.00000000000E+00 0.  1.
</event>
<event>
 8    1  0.1269154E-006  0.9118800E+02  0.7816164E-02  0.1184000E+00
        -11   -1    0    0    0    0  0.00000000000E+00  0.00000000000E+00  0.45593999997E+02  0.45594000000E+02  0.51100000000E-03 0.  1.
         11   -1    0    0    0    0 -0.00000000000E+00 -0.00000000000E+00 -0.45593999997E+02  0.45594000000E+02  0.51100000000E-03 0. -1.
         23    2    1    2    0    0  0.00000000000E+00  0.00000000000E+00  0.00000000000E+00  0.91188000000E+02  0.91188000000E+02 0.  0.
    9900012    2    3    3    0    0  0.95661757591E+01  0.11322430978E+02 -0.33705683460E+02  0.54367051351E+02  0.39999925165E+02 0.  0.
        -12    1    3    3    0    0 -0.95661757591E+01 -0.11322430978E+02  0.33705683460E+02  0.36820948649E+02  0.00000000000E+00 0.  1.
         11    1    4    4    0    0  0.20437733387E+02  0.52980632737E+01 -0.19806041466E+02  0.28949088056E+02  0.51100000000E-03 0. -1.
        -11    1    4    4    0    0 -0.42292029636E+01 -0.60696473469E+01 -0.37857047564E+01  0.83101346191E+01  0.51100000000E-03 0.  1.
         12    1    4    4    0    0 -0.66423546647E+01  0.12094015051E+02 -0.10113937237E+02  0.17107828675E+02  0.00000000000E+00 0. -1.
</event>
<event>
 8    1  0.1269154E-006  0.9118800E+02  0.7816164E-02  0.1184000E+00
        -11   -1    0    0    0    0  0.00000000000E+00  0.00000000000E+00  0.45593999997E+02  0.45594000000E+02  0.51100000000E-03 0.  1.
         11   -1    0    0    0    0 -0.00000000000E+00 -0.00000000000E+00 -0.45593999997E+02  0.45594000000E+02  0.51100000000E-03 0. -1.
         23    2    1    2    0    0  0.00000000000E+00  0.24424906542E-14  0.00000000000E+00  0.91188000000E+02  0.91188000000E+02 0.  0.
    9900012    2    3    3    0    0  0.41708257259E+01 -0.89242947379E+00  0.36573020481E+02  0.54367108583E+02  0.40000055637E+02 0.  0.
         12    1    3    3    0    0 -0.41708257259E+01  0.89242947379E+00 -0.36573020481E+02  0.36820891417E+02  0.00000000000E+00 0. -1.
         11    1    4    4    0    0 -0.87833432333E+01 -0.11404872584E+02  0.59588440296E+01  0.15579668143E+02  0.51100000000E-03 0. -1.
        -11    1    4    4    0    0  0.15902396078E+01  0.89079502527E+01  0.41763481947E+01  0.99660586101E+01  0.51100000000E-03 0.  1.
        -12    1    4    4    0    0  0.11363929351E+02  0.16044928580E+01  0.26437828257E+02  0.28821381830E+02  0.00000000000E+00 0.  1.
</event>
<event>
 8    1  0.1269154E-006  0.9118800E+02  0.7816164E-02  0.1184000E+00
        -11   -1    0    0    0    0  0.00000000000E+00  0.00000000000E+00  0.45593999997E+02  0.45594000000E+02  0.51100000000E-03 0.  1.
         11   -1    0    0    0    0 -0.00000000000E+00 -0.00000000000E+00 -0.45593999997E+02  0.45594000000E+02  0.51100000000E-03 0. -1.
         23    2    1    2    0    0  0.35527136788E-14  0.35527136788E-14  0.00000000000E+00  0.91188000000E+02  0.91188000000E+02 0.  0.
    9900012    2    3    3    0    0 -0.22973717169E+02 -0.28414865603E+02 -0.45367412625E+01  0.54367105265E+02  0.40000048074E+02 0.  0.
        -12    1    3    3    0    0  0.22973717169E+02  0.28414865603E+02  0.45367412625E+01  0.36820894735E+02  0.00000000000E+00 0.  1.
         11    1    4    4    0    0 -0.14619635848E+02 -0.21470165196E+02  0.91129370990E+01  0.27527211423E+02  0.51100000000E-03 0. -1.
        -11    1    4    4    0    0  0.54990401083E+01 -0.54214549601E+01 -0.59674477830E+00  0.77451740193E+01  0.51100000000E-03 0.  1.
        -12    1    4    4    0    0 -0.13853121429E+02 -0.15232454466E+01 -0.13052933583E+02  0.19094719823E+02  0.00000000000E+00 0.  1.
</event>
<event>
 8    1  0.1269154E-006  0.9118800E+02  0.7816164E-02  0.1184000E+00
        -11   -1    0    0    0    0  0.00000000000E+00  0.00000000000E+00  0.45593999997E+02  0.45594000000E+02  0.51100000000E-03 0.  1.
         11   -1    0    0    0    0 -0.00000000000E+00 -0.00000000000E+00 -0.45593999997E+02  0.45594000000E+02  0.51100000000E-03 0. -1.
         23    2    1    2    0    0  0.00000000000E+00 -0.71054273576E-14  0.00000000000E+00  0.91188000000E+02  0.91188000000E+02 0.  0.
    9900012    2    3    3    0    0 -0.11582941653E+02  0.33404018629E+02 -0.10285348529E+02  0.54367063126E+02  0.39999952009E+02 0.  0.
        -12    1    3    3    0    0  0.11582941653E+02 -0.33404018629E+02  0.10285348529E+02  0.36820936874E+02  0.00000000000E+00 0.  1.
         11    1    4    4    0    0  0.12568826665E+00  0.37836649125E+01  0.85390685496E+00  0.38808600707E+01  0.51100000000E-03 0. -1.
        -11    1    4    4    0    0 -0.12683696477E+02  0.30627802546E+02  0.56587859343E+01  0.33629753249E+02  0.51100000000E-03 0.  1.
         12    1    4    4    0    0  0.97506655773E+00 -0.10074488291E+01 -0.16798041318E+02  0.16856449806E+02  0.00000000000E+00 0. -1.
</event>
<event>
 8    1  0.1269154E-006  0.9118800E+02  0.7816164E-02  0.1184000E+00
        -11   -1    0    0    0    0  0.00000000000E+00  0.00000000000E+00  0.45593999997E+02  0.45594000000E+02  0.51100000000E-03 0.  1.
         11   -1    0    0    0    0 -0.00000000000E+00 -0.00000000000E+00 -0.45593999997E+02  0.45594000000E+02  0.51100000000E-03 0. -1.
         23    2    1    2    0    0 -0.26645352591E-14  0.00000000000E+00  0.00000000000E+00  0.91188000000E+02  0.91188000000E+02 0.  0.
    9900012    2    3    3    0    0  0.12745712747E+01 -0.12773307768E+02 -0.34510835556E+02  0.54367086187E+02  0.40000004581E+02 0.  0.
        -12    1    3    3    0    0 -0.12745712747E+01  0.12773307768E+02  0.34510835556E+02  0.36820913813E+02  0.00000000000E+00 0.  1.
         11    1    4    4    0    0 -0.10443323286E+02  0.19857829236E+01 -0.99705854390E+01  0.14574598085E+02  0.51100000000E-03 0. -1.
        -11    1    4    4    0    0 -0.45390155574E+01 -0.23927577172E+01  0.26577939905E+01  0.57785656421E+01  0.51100000000E-03 0.  1.
         12    1    4    4    0    0  0.16256910119E+02 -0.12366332975E+02 -0.27198044107E+02  0.34013922460E+02  0.00000000000E+00 0. -1.
</event>
<event>
 8    1  0.1269154E-006  0.9118800E+02  0.7816164E-02  0.1184000E+00
        -11   -1    0    0    0    0  0.00000000000E+00  0.00000000000E+00  0.45593999997E+02  0.45594000000E+02  0.51100000000E-03 0. -1.
         11   -1    0    0    0    0 -0.00000000000E+00 -0.00000000000E+00 -0.45593999997E+02  0.45594000000E+02  0.51100000000E-03 0.  1.
         23    2    1    2    0    0  0.35527136788E-14  0.35527136788E-14  0.35527136788E-14  0.91188000000E+02  0.91188000000E+02 0.  0.
    9900012    2    3    3    0    0  0.21743169380E+02  0.16903494621E+02  0.24439445492E+02  0.54367081474E+02  0.39999993837E+02 0.  0.
        -12    1    3    3    0    0 -0.21743169380E+02 -0.16903494621E+02 -0.24439445492E+02  0.36820918526E+02  0.00000000000E+00 0.  1.
         11    1    4    4    0    0  0.26836513821E+02  0.18953274202E+02  0.17734756644E+02  0.37335595221E+02  0.51100000000E-03 0. -1.
        -11    1    4    4    0    0 -0.21677100392E+00  0.57151119798E+01  0.52192204452E+01  0.77427228367E+01  0.51100000000E-03 0.  1.
        -12    1    4    4    0    0 -0.48765734370E+01 -0.77648915603E+01  0.14854684034E+01  0.92887634165E+01  0.00000000000E+00 0.  1.
</event>
<event>
 8    1  0.1269154E-006  0.9118800E+02  0.7816164E-02  0.1184000E+00
        -11   -1    0    0    0    0  0.00000000000E+00  0.00000000000E+00  0.45593999997E+02  0.45594000000E+02  0.51100000000E-03 0.  1.
         11   -1    0    0    0    0 -0.00000000000E+00 -0.00000000000E+00 -0.45593999997E+02  0.45594000000E+02  0.51100000000E-03 0. -1.
         23    2    1    2    0    0  0.17763568394E-14  0.00000000000E+00  0.94368957093E-15  0.91188000000E+02  0.91188000000E+02 0.  0.
    9900012    2    3    3    0    0 -0.15806349658E+02  0.33255062011E+02  0.20133729517E+00  0.54367076932E+02  0.39999983482E+02 0.  0.
        -12    1    3    3    0    0  0.15806349658E+02 -0.33255062011E+02 -0.20133729517E+00  0.36820923068E+02  0.00000000000E+00 0.  1.
         11    1    4    4    0    0 -0.80924363973E+01  0.32746262171E+02  0.16463630738E+01  0.33771522392E+02  0.51100000000E-03 0. -1.
        -11    1    4    4    0    0 -0.29960628641E+01  0.46068032463E+00  0.88047884146E+01  0.93119771442E+01  0.51100000000E-03 0.  1.
         12    1    4    4    0    0 -0.47178503971E+01  0.48119515053E-01 -0.10249814193E+02  0.11283577396E+02  0.00000000000E+00 0. -1.
</event>
<event>
 8    1  0.1269154E-006  0.9118800E+02  0.7816164E-02  0.1184000E+00
        -11   -1    0    0    0    0  0.00000000000E+00  0.00000000000E+00  0.45593999997E+02  0.45594000000E+02  0.51100000000E-03 0.  1.
         11   -1    0    0    0    0 -0.00000000000E+00 -0.00000000000E+00 -0.45593999997E+02  0.45594000000E+02  0.51100000000E-03 0. -1.
         23    2    1    2    0    0  0.35527136788E-14  0.17763568394E-14  0.00000000000E+00  0.91188000000E+02  0.91188000000E+02 0.  0.
    9900012    2    3    3    0    0 -0.28159234363E+02 -0.96141102519E+01  0.21688840790E+02  0.54367090035E+02  0.40000013352E+02 0.  0.
         12    1    3    3    0    0  0.28159234363E+02  0.96141102519E+01 -0.21688840790E+02  0.36820909965E+02  0.00000000000E+00 0. -1.
         11    1    4    4    0    0 -0.44859524700E+01 -0.14868973201E+02 -0.30210103900E+01  0.15822030137E+02  0.51100000000E-03 0. -1.
        -11    1    4    4    0    0 -0.19872855472E+02  0.80972440778E+01  0.25917180807E+02  0.33648120416E+02  0.51100000000E-03 0.  1.
        -12    1    4    4    0    0 -0.38004264206E+01 -0.28423811283E+01 -0.12073296271E+01  0.48969394815E+01  0.00000000000E+00 0.  1.
</event>
<event>
 8    1  0.1269154E-006  0.9118800E+02  0.7816164E-02  0.1184000E+00
        -11   -1    0    0    0    0  0.00000000000E+00  0.00000000000E+00  0.45593999997E+02  0.45594000000E+02  0.51100000000E-03 0.  1.
         11   -1    0    0    0    0 -0.00000000000E+00 -0.00000000000E+00 -0.45593999997E+02  0.45594000000E+02  0.51100000000E-03 0. -1.
         23    2    1    2    0    0  0.00000000000E+00  0.13322676296E-14  0.00000000000E+00  0.91188000000E+02  0.91188000000E+02 0.  0.
    9900012    2    3    3    0    0 -0.33806746677E+02 -0.27223205017E+01 -0.14334314316E+02  0.54367085879E+02  0.40000003878E+02 0.  0.
        -12    1    3    3    0    0  0.33806746677E+02  0.27223205017E+01  0.14334314316E+02  0.36820914121E+02  0.00000000000E+00 0.  1.
         11    1    4    4    0    0 -0.17738978195E+02  0.11533146693E+02 -0.86331721577E+01  0.22852056402E+02  0.51100000000E-03 0. -1.
        -11    1    4    4    0    0 -0.17072834128E+02 -0.65616217835E+01  0.43664623794E+01  0.18804322364E+02  0.51100000000E-03 0.  1.
         12    1    4    4    0    0  0.10050656462E+01 -0.76938454111E+01 -0.10067604538E+02  0.12710707112E+02  0.00000000000E+00 0. -1.
</event>
<event>
 8    1  0.1269154E-006  0.9118800E+02  0.7816164E-02  0.1184000E+00
        -11   -1    0    0    0    0  0.00000000000E+00  0.00000000000E+00  0.45593999997E+02  0.45594000000E+02  0.51100000000E-03 0. -1.
         11   -1    0    0    0    0 -0.00000000000E+00 -0.00000000000E+00 -0.45593999997E+02  0.45594000000E+02  0.51100000000E-03 0.  1.
         23    2    1    2    0    0 -0.17763568394E-14  0.00000000000E+00  0.35527136788E-14  0.91188000000E+02  0.91188000000E+02 0.  0.
    9900012    2    3    3    0    0 -0.15228180594E+02 -0.26673498591E+02  0.20307722502E+02  0.54367128140E+02  0.40000100221E+02 0.  0.
        -12    1    3    3    0    0  0.15228180594E+02  0.26673498591E+02 -0.20307722502E+02  0.36820871860E+02  0.00000000000E+00 0.  1.
         11    1    4    4    0    0  0.17482534242E+01 -0.21943701102E+02 -0.85877719628E+00  0.22029977454E+02  0.51100000000E-03 0.  1.
        -11    1    4    4    0    0 -0.31402929684E+01  0.34941524927E+01  0.13908859087E+02  0.14680834545E+02  0.51100000000E-03 0. -1.
         12    1    4    4    0    0 -0.13836141050E+02 -0.82239499815E+01  0.72576406121E+01  0.17656316142E+02  0.00000000000E+00 0. -1.
</event>
<event>
 8    1  0.1269154E-006  0.9118800E+02  0.7816164E-02  0.1184000E+00
        -11   -1    0    0    0    0  0.00000000000E+00  0.00000000000E+00  0.45593999997E+02  0.45594000000E+02  0.51100000000E-03 0. -1.
         11   -1    0    0    0    0 -0.00000000000E+00 -0.00000000000E+00 -0.45593999997E+02  0.45594000000E+02  0.51100000000E-03 0.  1.
         23    2    1    2    0    0  0.35527136788E-14 -0.17763568394E-14  0.00000000000E+00  0.91188000000E+02  0.91188000000E+02 0.  0.
    9900012    2    3    3    0    0 -0.30776778645E+02 -0.84424192080E+01  0.18365656935E+02  0.54367056225E+02  0.39999936275E+02 0.  0.
         12    1    3    3    0    0  0.30776778645E+02  0.84424192080E+01 -0.18365656935E+02  0.36820943775E+02  0.00000000000E+00 0. -1.
         11    1    4    4    0    0 -0.48932020182E+01 -0.13111913895E+02  0.11171951438E+02  0.17907490365E+02  0.51100000000E-03 0. -1.
        -11    1    4    4    0    0 -0.19879118765E+02 -0.38039833345E+01  0.13481894003E+02  0.24318945665E+02  0.51100000000E-03 0.  1.
        -12    1    4    4    0    0 -0.60044578624E+01  0.84734780220E+01 -0.62881885065E+01  0.12140620194E+02  0.00000000000E+00 0.  1.
</event>
<event>
 8    1  0.1269154E-006  0.9118800E+02  0.7816164E-02  0.1184000E+00
        -11   -1    0    0    0    0  0.00000000000E+00  0.00000000000E+00  0.45593999997E+02  0.45594000000E+02  0.51100000000E-03 0. -1.
         11   -1    0    0    0    0 -0.00000000000E+00 -0.00000000000E+00 -0.45593999997E+02  0.45594000000E+02  0.51100000000E-03 0.  1.
         23    2    1    2    0    0 -0.35527136788E-14  0.00000000000E+00  0.00000000000E+00  0.91188000000E+02  0.91188000000E+02 0.  0.
    9900012    2    3    3    0    0  0.31334799106E+02  0.25815627077E+01 -0.19163406015E+02  0.54367214686E+02  0.40000297520E+02 0.  0.
         12    1    3    3    0    0 -0.31334799106E+02 -0.25815627077E+01  0.19163406015E+02  0.36820785314E+02  0.00000000000E+00 0. -1.
         11    1    4    4    0    0  0.14912368541E+02 -0.39403251347E+01 -0.12467290995E+02  0.19832756810E+02  0.51100000000E-03 0.  1.
        -11    1    4    4    0    0  0.29477286721E+00 -0.62324172377E+01  0.73440660186E+01  0.96366602936E+01  0.51100000000E-03 0. -1.
         12    1    4    4    0    0  0.16127657698E+02  0.12754305080E+02 -0.14040181038E+02  0.24897797583E+02  0.00000000000E+00 0. -1.
</event>
<event>
 8    1  0.1269154E-006  0.9118800E+02  0.7816164E-02  0.1184000E+00
        -11   -1    0    0    0    0  0.00000000000E+00  0.00000000000E+00  0.45593999997E+02  0.45594000000E+02  0.51100000000E-03 0. -1.
         11   -1    0    0    0    0 -0.00000000000E+00 -0.00000000000E+00 -0.45593999997E+02  0.45594000000E+02  0.51100000000E-03 0.  1.
         23    2    1    2    0    0  0.88817841970E-15  0.00000000000E+00 -0.35527136788E-14  0.91188000000E+02  0.91188000000E+02 0.  0.
    9900012    2    3    3    0    0  0.74352854864E+01  0.24400192586E+02  0.26554338804E+02  0.54367003574E+02  0.39999816248E+02 0.  0.
        -12    1    3    3    0    0 -0.74352854864E+01 -0.24400192586E+02 -0.26554338804E+02  0.36820996426E+02  0.00000000000E+00 0.  1.
         11    1    4    4    0    0  0.90149681920E+01  0.89439227228E+01 -0.37873011919E+01  0.13251681242E+02  0.51100000000E-03 0. -1.
        -11    1    4    4    0    0 -0.25953196015E+01 -0.42938815256E+01  0.15774330076E+02  0.16553023652E+02  0.51100000000E-03 0.  1.
         12    1    4    4    0    0  0.10156368960E+01  0.19750151388E+02  0.14567309919E+02  0.24562298680E+02  0.00000000000E+00 0. -1.
</event>
<event>
 8    1  0.1269154E-006  0.9118800E+02  0.7816164E-02  0.1184000E+00
        -11   -1    0    0    0    0  0.00000000000E+00  0.00000000000E+00  0.45593999997E+02  0.45594000000E+02  0.51100000000E-03 0.  1.
         11   -1    0    0    0    0 -0.00000000000E+00 -0.00000000000E+00 -0.45593999997E+02  0.45594000000E+02  0.51100000000E-03 0. -1.
         23    2    1    2    0    0  0.00000000000E+00 -0.35527136788E-14 -0.22204460493E-14  0.91188000000E+02  0.91188000000E+02 0.  0.
    9900012    2    3    3    0    0 -0.29585159897E+02  0.21560915250E+02 -0.39528314840E+01  0.54367087066E+02  0.40000006585E+02 0.  0.
        -12    1    3    3    0    0  0.29585159897E+02 -0.21560915250E+02  0.39528314840E+01  0.36820912934E+02  0.00000000000E+00 0.  1.
         11    1    4    4    0    0 -0.23495847511E+02  0.43158796108E+01  0.75193292597E+01  0.25044400169E+02  0.51100000000E-03 0. -1.
        -11    1    4    4    0    0  0.61060341580E+01  0.77612911289E+00 -0.46847835132E+01  0.77351940095E+01  0.51100000000E-03 0.  1.
         12    1    4    4    0    0 -0.12195346544E+02  0.16468906526E+02 -0.67873772304E+01  0.21587492888E+02  0.00000000000E+00 0. -1.
</event>
<event>
 8    1  0.1269154E-006  0.9118800E+02  0.7816164E-02  0.1184000E+00
        -11   -1    0    0    0    0  0.00000000000E+00  0.00000000000E+00  0.45593999997E+02  0.45594000000E+02  0.51100000000E-03 0. -1.
         11   -1    0    0    0    0 -0.00000000000E+00 -0.00000000000E+00 -0.45593999997E+02  0.45594000000E+02  0.51100000000E-03 0.  1.
         23    2    1    2    0    0  0.00000000000E+00 -0.35527136788E-14 -0.17763568394E-14  0.91188000000E+02  0.91188000000E+02 0.  0.
    9900012    2    3    3    0    0  0.19649514890E+02  0.28424483879E+02  0.12717168249E+02  0.54367067266E+02  0.39999961445E+02 0.  0.
        -12    1    3    3    0    0 -0.19649514890E+02 -0.28424483879E+02 -0.12717168249E+02  0.36820932734E+02  0.00000000000E+00 0.  1.
         11    1    4    4    0    0  0.14540141582E+01 -0.31278652830E+01 -0.31041674532E+01  0.46404260839E+01  0.51100000000E-03 0. -1.
        -11    1    4    4    0    0  0.29824772287E+01 -0.37619610334E+01  0.96562285731E+01  0.10783796723E+02  0.51100000000E-03 0.  1.
         12    1    4    4    0    0  0.15213023503E+02  0.35314310195E+02  0.61651071288E+01  0.38942844459E+02  0.00000000000E+00 0. -1.
</event>
<event>
 8    1  0.1269154E-006  0.9118800E+02  0.7816164E-02  0.1184000E+00
        -11   -1    0    0    0    0  0.00000000000E+00  0.00000000000E+00  0.45593999997E+02  0.45594000000E+02  0.51100000000E-03 0. -1.
         11   -1    0    0    0    0 -0.00000000000E+00 -0.00000000000E+00 -0.45593999997E+02  0.45594000000E+02  0.51100000000E-03 0.  1.
         23    2    1    2    0    0  0.00000000000E+00 -0.71054273576E-14 -0.88817841970E-15  0.91188000000E+02  0.91188000000E+02 0.  0.
    9900012    2    3    3    0    0  0.14204211384E+02  0.33645731471E+02  0.46889059964E+01  0.54367072436E+02  0.39999973232E+02 0.  0.
         12    1    3    3    0    0 -0.14204211384E+02 -0.33645731471E+02 -0.46889059964E+01  0.36820927564E+02  0.00000000000E+00 0. -1.
         11    1    4    4    0    0  0.10019332878E+02 -0.20661299033E+01  0.46891863773E+01  0.11253639111E+02  0.51100000000E-03 0.  1.
        -11    1    4    4    0    0  0.35505052909E+01 -0.28446068104E+01 -0.13551464857E+00  0.45515096624E+01  0.51100000000E-03 0. -1.
        -12    1    4    4    0    0  0.63437321534E+00  0.38556468184E+02  0.13523426772E+00  0.38561923662E+02  0.00000000000E+00 0.  1.
</event>
<event>
 8    1  0.1269154E-006  0.9118800E+02  0.7816164E-02  0.1184000E+00
        -11   -1    0    0    0    0  0.00000000000E+00  0.00000000000E+00  0.45593999997E+02  0.45594000000E+02  0.51100000000E-03 0.  1.
         11   -1    0    0    0    0 -0.00000000000E+00 -0.00000000000E+00 -0.45593999997E+02  0.45594000000E+02  0.51100000000E-03 0. -1.
         23    2    1    2    0    0  0.00000000000E+00  0.00000000000E+00  0.00000000000E+00  0.91188000000E+02  0.91188000000E+02 0.  0.
    9900012    2    3    3    0    0  0.25178914678E+02 -0.23063450988E+02 -0.13779721655E+02  0.54367065130E+02  0.39999956576E+02 0.  0.
         12    1    3    3    0    0 -0.25178914678E+02  0.23063450988E+02  0.13779721655E+02  0.36820934870E+02  0.00000000000E+00 0. -1.
         11    1    4    4    0    0 -0.23988119603E+01 -0.14324240370E+01  0.23938887458E+01  0.36792446278E+01  0.51100000000E-03 0. -1.
        -11    1    4    4    0    0  0.24701851923E+02 -0.30029746647E+02 -0.15230351613E+02  0.41760397299E+02  0.51100000000E-03 0.  1.
        -12    1    4    4    0    0  0.28758747152E+01  0.83987196953E+01 -0.94325878854E+00  0.89274232027E+01  0.00000000000E+00 0.  1.
</event>
<event>
 8    1  0.1269154E-006  0.9118800E+02  0.7816164E-02  0.1184000E+00
        -11   -1    0    0    0    0  0.00000000000E+00  0.00000000000E+00  0.45593999997E+02  0.45594000000E+02  0.51100000000E-03 0.  1.
         11   -1    0    0    0    0 -0.00000000000E+00 -0.00000000000E+00 -0.45593999997E+02  0.45594000000E+02  0.51100000000E-03 0. -1.
         23    2    1    2    0    0  0.00000000000E+00  0.00000000000E+00 -0.35527136788E-14  0.91188000000E+02  0.91188000000E+02 0.  0.
    9900012    2    3    3    0    0  0.20121305985E+02  0.83859767404E+01  0.29674728761E+02  0.54367067265E+02  0.39999961444E+02 0.  0.
         12    1    3    3    0    0 -0.20121305985E+02 -0.83859767404E+01 -0.29674728761E+02  0.36820932735E+02  0.00000000000E+00 0. -1.
         11    1    4    4    0    0  0.18813875422E+02 -0.57941569720E+01  0.18597890111E+02  0.27081648403E+02  0.51100000000E-03 0. -1.
        -11    1    4    4    0    0  0.74448181997E+01  0.74302535404E+01  0.14174598369E+02  0.17650870371E+02  0.51100000000E-03 0.  1.
        -12    1    4    4    0    0 -0.61373876359E+01  0.67498801720E+01 -0.30977597192E+01  0.96345484901E+01  0.00000000000E+00 0.  1.
</event>
<event>
 8    1  0.1269154E-006  0.9118800E+02  0.7816164E-02  0.1184000E+00
        -11   -1    0    0    0    0  0.00000000000E+00  0.00000000000E+00  0.45593999997E+02  0.45594000000E+02  0.51100000000E-03 0. -1.
         11   -1    0    0    0    0 -0.00000000000E+00 -0.00000000000E+00 -0.45593999997E+02  0.45594000000E+02  0.51100000000E-03 0.  1.
         23    2    1    2    0    0  0.35527136788E-14  0.00000000000E+00  0.35527136788E-14  0.91188000000E+02  0.91188000000E+02 0.  0.
    9900012    2    3    3    0    0  0.28393294172E+02  0.11676964026E+02  0.20328553699E+02  0.54367072006E+02  0.39999972253E+02 0.  0.
        -12    1    3    3    0    0 -0.28393294172E+02 -0.11676964026E+02 -0.20328553699E+02  0.36820927994E+02  0.00000000000E+00 0.  1.
         11    1    4    4    0    0  0.41554104313E+01  0.19372474118E+02  0.12877650259E+02  0.23630363217E+02  0.51100000000E-03 0. -1.
        -11    1    4    4    0    0  0.10940533285E+02 -0.73529440320E+01  0.10775648060E+02  0.17025734811E+02  0.51100000000E-03 0.  1.
         12    1    4    4    0    0  0.13297350456E+02 -0.34256605973E+00 -0.33247446193E+01  0.13710973978E+02  0.00000000000E+00 0. -1.
</event>
<event>
 8    1  0.1269154E-006  0.9118800E+02  0.7816164E-02  0.1184000E+00
        -11   -1    0    0    0    0  0.00000000000E+00  0.00000000000E+00  0.45593999997E+02  0.45594000000E+02  0.51100000000E-03 0.  1.
         11   -1    0    0    0    0 -0.00000000000E+00 -0.00000000000E+00 -0.45593999997E+02  0.45594000000E+02  0.51100000000E-03 0. -1.
         23    2    1    2    0    0  0.00000000000E+00  0.35527136788E-14  0.00000000000E+00  0.91188000000E+02  0.91188000000E+02 0.  0.
    9900012    2    3    3    0    0  0.12225150509E+02  0.29511206620E+02  0.18314345557E+02  0.54367070159E+02  0.39999968042E+02 0.  0.
         12    1    3    3    0    0 -0.12225150509E+02 -0.29511206620E+02 -0.18314345557E+02  0.36820929841E+02  0.00000000000E+00 0. -1.
         11    1    4    4    0    0 -0.39547012259E+01 -0.13159543378E+01 -0.10384758302E+01  0.42953265203E+01  0.51100000000E-03 0. -1.
        -11    1    4    4    0    0  0.11364242148E+02 -0.19255307119E+01 -0.37909011371E+00  0.11532448903E+02  0.51100000000E-03 0.  1.
        -12    1    4    4    0    0  0.48156095874E+01  0.32752691670E+02  0.19731911501E+02  0.38539294737E+02  0.00000000000E+00 0.  1.
</event>
<event>
 8    1  0.1269154E-006  0.9118800E+02  0.7816164E-02  0.1184000E+00
        -11   -1    0    0    0    0  0.00000000000E+00  0.00000000000E+00  0.45593999997E+02  0.45594000000E+02  0.51100000000E-03 0.  1.
         11   -1    0    0    0    0 -0.00000000000E+00 -0.00000000000E+00 -0.45593999997E+02  0.45594000000E+02  0.51100000000E-03 0. -1.
         23    2    1    2    0    0  0.00000000000E+00  0.00000000000E+00  0.00000000000E+00  0.91188000000E+02  0.91188000000E+02 0.  0.
    9900012    2    3    3    0    0 -0.23467632780E+02 -0.27288048858E+02 -0.77725416873E+01  0.54367084706E+02  0.40000001205E+02 0.  0.
        -12    1    3    3    0    0  0.23467632780E+02  0.27288048858E+02  0.77725416873E+01  0.36820915294E+02  0.00000000000E+00 0.  1.
         11    1    4    4    0    0 -0.95044240484E+01 -0.58801117560E+01 -0.62355110679E+01  0.12798101003E+02  0.51100000000E-03 0. -1.
        -11    1    4    4    0    0 -0.24544538086E+02 -0.17780233259E+02 -0.19965805158E+01  0.30373629659E+02  0.51100000000E-03 0.  1.
        -12    1    4    4    0    0  0.10581329354E+02 -0.36277038426E+01  0.45954989645E+00  0.11195354044E+02  0.00000000000E+00 0.  1.
</event>
<event>
 8    1  0.1269154E-006  0.9118800E+02  0.7816164E-02  0.1184000E+00
        -11   -1    0    0    0    0  0.00000000000E+00  0.00000000000E+00  0.45593999997E+02  0.45594000000E+02  0.51100000000E-03 0.  1.
         11   -1    0    0    0    0 -0.00000000000E+00 -0.00000000000E+00 -0.45593999997E+02  0.45594000000E+02  0.51100000000E-03 0. -1.
         23    2    1    2    0    0  0.00000000000E+00 -0.22204460493E-15  0.35527136788E-14  0.91188000000E+02  0.91188000000E+02 0.  0.
    9900012    2    3    3    0    0  0.23371104889E+02 -0.15615561327E+01 -0.28410088001E+02  0.54367080653E+02  0.39999991966E+02 0.  0.
        -12    1    3    3    0    0 -0.23371104889E+02  0.15615561327E+01  0.28410088001E+02  0.36820919347E+02  0.00000000000E+00 0.  1.
         11    1    4    4    0    0  0.11675379714E+02  0.70660051849E+01  0.23000775269E+01  0.13839554821E+02  0.51100000000E-03 0. -1.
        -11    1    4    4    0    0  0.34392057620E+01  0.11755007608E+01  0.28400211786E+01  0.46125544841E+01  0.51100000000E-03 0.  1.
         12    1    4    4    0    0  0.82565194129E+01 -0.98030620784E+01 -0.33550186706E+02  0.35914971349E+02  0.00000000000E+00 0. -1.
</event>
<event>
 8    1  0.1269154E-006  0.9118800E+02  0.7816164E-02  0.1184000E+00
        -11   -1    0    0    0    0  0.00000000000E+00  0.00000000000E+00  0.45593999997E+02  0.45594000000E+02  0.51100000000E-03 0.  1.
         11   -1    0    0    0    0 -0.00000000000E+00 -0.00000000000E+00 -0.45593999997E+02  0.45594000000E+02  0.51100000000E-03 0. -1.
         23    2    1    2    0    0  0.00000000000E+00 -0.35527136788E-14  0.00000000000E+00  0.91188000000E+02  0.91188000000E+02 0.  0.
    9900012    2    3    3    0    0  0.22645817297E+02  0.20333510267E+02  0.20724273755E+02  0.54367079269E+02  0.39999988809E+02 0.  0.
         12    1    3    3    0    0 -0.22645817297E+02 -0.20333510267E+02 -0.20724273755E+02  0.36820920731E+02  0.00000000000E+00 0. -1.
         11    1    4    4    0    0 -0.18272292479E+01  0.13855297799E+02 -0.64153250611E+01  0.15377400291E+02  0.51100000000E-03 0. -1.
        -11    1    4    4    0    0  0.99627830831E+01  0.83533098331E+01  0.96734970695E+01  0.16205288573E+02  0.51100000000E-03 0.  1.
         12    1    4    4    0    0  0.14510263462E+02 -0.18750973646E+01  0.17466101746E+02  0.22784390404E+02  0.00000000000E+00 0. -1.
</event>
<event>
 8    1  0.1269154E-006  0.9118800E+02  0.7816164E-02  0.1184000E+00
        -11   -1    0    0    0    0  0.00000000000E+00  0.00000000000E+00  0.45593999997E+02  0.45594000000E+02  0.51100000000E-03 0.  1.
         11   -1    0    0    0    0 -0.00000000000E+00 -0.00000000000E+00 -0.45593999997E+02  0.45594000000E+02  0.51100000000E-03 0. -1.
         23    2    1    2    0    0  0.00000000000E+00  0.00000000000E+00  0.17763568394E-14  0.91188000000E+02  0.91188000000E+02 0.  0.
    9900012    2    3    3    0    0 -0.80272747975E+01 -0.34472307435E+02  0.10149163449E+02  0.54367046193E+02  0.39999913406E+02 0.  0.
        -12    1    3    3    0    0  0.80272747975E+01  0.34472307435E+02 -0.10149163449E+02  0.36820953807E+02  0.00000000000E+00 0.  1.
         11    1    4    4    0    0 -0.87988466394E+01 -0.89705448606E+01 -0.13799932228E+02  0.18663560942E+02  0.51100000000E-03 0. -1.
        -11    1    4    4    0    0  0.12294603045E+01 -0.17567388061E+02  0.11844689792E+02  0.21223132955E+02  0.51100000000E-03 0.  1.
         12    1    4    4    0    0 -0.45788846265E+00 -0.79343745137E+01  0.12104405885E+02  0.14480352295E+02  0.00000000000E+00 0. -1.
</event>
<event>
 8    1  0.1269154E-006  0.9118800E+02  0.7816164E-02  0.1184000E+00
        -11   -1    0    0    0    0  0.00000000000E+00  0.00000000000E+00  0.45593999997E+02  0.45594000000E+02  0.51100000000E-03 0. -1.
         11   -1    0    0    0    0 -0.00000000000E+00 -0.00000000000E+00 -0.45593999997E+02  0.45594000000E+02  0.51100000000E-03 0.  1.
         23    2    1    2    0    0 -0.35527136788E-14  0.00000000000E+00  0.00000000000E+00  0.91188000000E+02  0.91188000000E+02 0.  0.
    9900012    2    3    3    0    0 -0.24036531441E+02 -0.24234369658E+02 -0.13810141730E+02  0.54367088401E+02  0.40000009627E+02 0.  0.
         12    1    3    3    0    0  0.24036531441E+02  0.24234369658E+02  0.13810141730E+02  0.36820911599E+02  0.00000000000E+00 0. -1.
         11    1    4    4    0    0 -0.10831180964E+01  0.35179637435E+01 -0.74489664259E+01  0.83088094687E+01  0.51100000000E-03 0. -1.
        -11    1    4    4    0    0 -0.22176279966E+02 -0.88698711812E+01 -0.11449447891E+02  0.26486824369E+02  0.51100000000E-03 0.  1.
         12    1    4    4    0    0 -0.77713337864E+00 -0.18882462220E+02  0.50882725876E+01  0.19571454563E+02  0.00000000000E+00 0. -1.
</event>
<event>
 8    1  0.1269154E-006  0.9118800E+02  0.7816164E-02  0.1184000E+00
        -11   -1    0    0    0    0  0.00000000000E+00  0.00000000000E+00  0.45593999997E+02  0.45594000000E+02  0.51100000000E-03 0.  1.
         11   -1    0    0    0    0 -0.00000000000E+00 -0.00000000000E+00 -0.45593999997E+02  0.45594000000E+02  0.51100000000E-03 0. -1.
         23    2    1    2    0    0  0.00000000000E+00  0.00000000000E+00 -0.17763568394E-14  0.91188000000E+02  0.91188000000E+02 0.  0.
    9900012    2    3    3    0    0 -0.33591200654E+02 -0.73665973594E+01  0.13158520595E+02  0.54367052398E+02  0.39999927553E+02 0.  0.
         12    1    3    3    0    0  0.33591200654E+02  0.73665973594E+01 -0.13158520595E+02  0.36820947602E+02  0.00000000000E+00 0. -1.
         11    1    4    4    0    0 -0.25173162889E+02 -0.10219030864E+02  0.45582216573E+01  0.27548032717E+02  0.51100000000E-03 0. -1.
        -11    1    4    4    0    0 -0.15080256958E+01 -0.10344135657E+02  0.26977292411E+01  0.10795972735E+02  0.51100000000E-03 0.  1.
         12    1    4    4    0    0 -0.69100120692E+01  0.13196569161E+02  0.59025696963E+01  0.16023046946E+02  0.00000000000E+00 0. -1.
</event>
<event>
 8    1  0.1269154E-006  0.9118800E+02  0.7816164E-02  0.1184000E+00
        -11   -1    0    0    0    0  0.00000000000E+00  0.00000000000E+00  0.45593999997E+02  0.45594000000E+02  0.51100000000E-03 0.  1.
         11   -1    0    0    0    0 -0.00000000000E+00 -0.00000000000E+00 -0.45593999997E+02  0.45594000000E+02  0.51100000000E-03 0. -1.
         23    2    1    2    0    0  0.00000000000E+00  0.35527136788E-14  0.88817841970E-15  0.91188000000E+02  0.91188000000E+02 0.  0.
    9900012    2    3    3    0    0 -0.25793100073E+02 -0.25073202596E+02 -0.78631766639E+01  0.54367094972E+02  0.40000024608E+02 0.  0.
        -12    1    3    3    0    0  0.25793100073E+02  0.25073202596E+02  0.78631766639E+01  0.36820905028E+02  0.00000000000E+00 0.  1.
         11    1    4    4    0    0 -0.10420876936E+01 -0.18602526580E+02 -0.11523214906E+02  0.21907177453E+02  0.51100000000E-03 0. -1.
        -11    1    4    4    0    0 -0.16147780175E+02 -0.12781940483E+02 -0.14181631603E+01  0.20643158530E+02  0.51100000000E-03 0.  1.
        -12    1    4    4    0    0 -0.86032322048E+01  0.63112644663E+01  0.50782014025E+01  0.11816758990E+02  0.00000000000E+00 0.  1.
</event>
<event>
 8    1  0.1269154E-006  0.9118800E+02  0.7816164E-02  0.1184000E+00
        -11   -1    0    0    0    0  0.00000000000E+00  0.00000000000E+00  0.45593999997E+02  0.45594000000E+02  0.51100000000E-03 0.  1.
         11   -1    0    0    0    0 -0.00000000000E+00 -0.00000000000E+00 -0.45593999997E+02  0.45594000000E+02  0.51100000000E-03 0. -1.
         23    2    1    2    0    0  0.17763568394E-14 -0.35527136788E-14  0.35527136788E-14  0.91188000000E+02  0.91188000000E+02 0.  0.
    9900012    2    3    3    0    0  0.13137508168E+02 -0.21584252944E+02  0.26782561470E+02  0.54367086175E+02  0.40000004554E+02 0.  0.
         12    1    3    3    0    0 -0.13137508168E+02  0.21584252944E+02 -0.26782561470E+02  0.36820913825E+02  0.00000000000E+00 0. -1.
         11    1    4    4    0    0  0.27802047609E+01  0.39401250938E+01 -0.88328122884E+00  0.49024800110E+01  0.51100000000E-03 0. -1.
        -11    1    4    4    0    0 -0.61691092133E+01 -0.12117055595E+02  0.24402400556E+02  0.27934890333E+02  0.51100000000E-03 0.  1.
        -12    1    4    4    0    0  0.16526412620E+02 -0.13407322442E+02  0.32634421428E+01  0.21529715831E+02  0.00000000000E+00 0.  1.
</event>
<event>
 8    1  0.1269154E-006  0.9118800E+02  0.7816164E-02  0.1184000E+00
        -11   -1    0    0    0    0  0.00000000000E+00  0.00000000000E+00  0.45593999997E+02  0.45594000000E+02  0.51100000000E-03 0.  1.
         11   -1    0    0    0    0 -0.00000000000E+00 -0.00000000000E+00 -0.45593999997E+02  0.45594000000E+02  0.51100000000E-03 0. -1.
         23    2    1    2    0    0  0.17763568394E-14  0.00000000000E+00 -0.35527136788E-14  0.91188000000E+02  0.91188000000E+02 0.  0.
    9900012    2    3    3    0    0 -0.11230265086E+02 -0.30889343416E+02 -0.16598510587E+02  0.54367069210E+02  0.39999965877E+02 0.  0.
        -12    1    3    3    0    0  0.11230265086E+02  0.30889343416E+02  0.16598510587E+02  0.36820930790E+02  0.00000000000E+00 0.  1.
         11    1    4    4    0    0 -0.33790579596E+01 -0.26427095899E+02  0.32843905587E+01  0.26843931381E+02  0.51100000000E-03 0. -1.
        -11    1    4    4    0    0 -0.64445271709E+01  0.13395477521E+01  0.18622776108E+00  0.65849069604E+01  0.51100000000E-03 0.  1.
         12    1    4    4    0    0 -0.14066799560E+01 -0.58017952685E+01 -0.20069128907E+02  0.20938230869E+02  0.00000000000E+00 0. -1.
</event>
<event>
 8    1  0.1269154E-006  0.9118800E+02  0.7816164E-02  0.1184000E+00
        -11   -1    0    0    0    0  0.00000000000E+00  0.00000000000E+00  0.45593999997E+02  0.45594000000E+02  0.51100000000E-03 0. -1.
         11   -1    0    0    0    0 -0.00000000000E+00 -0.00000000000E+00 -0.45593999997E+02  0.45594000000E+02  0.51100000000E-03 0.  1.
         23    2    1    2    0    0 -0.17763568394E-14  0.35527136788E-14  0.00000000000E+00  0.91188000000E+02  0.91188000000E+02 0.  0.
    9900012    2    3    3    0    0 -0.82863766566E+01  0.18276513677E+02 -0.30872078845E+02  0.54367078739E+02  0.39999987602E+02 0.  0.
         12    1    3    3    0    0  0.82863766566E+01 -0.18276513677E+02  0.30872078845E+02  0.36820921261E+02  0.00000000000E+00 0. -1.
         11    1    4    4    0    0  0.76819526045E+00 -0.33399245967E+01 -0.68588605564E+00  0.34950908733E+01  0.51100000000E-03 0. -1.
        -11    1    4    4    0    0  0.11592947836E+02  0.14598825741E+02 -0.17886460960E+02  0.25835008003E+02  0.51100000000E-03 0.  1.
         12    1    4    4    0    0 -0.20647519753E+02  0.70176125326E+01 -0.12299731829E+02  0.25036979864E+02  0.00000000000E+00 0. -1.
</event>
<event>
 8    1  0.1269154E-006  0.9118800E+02  0.7816164E-02  0.1184000E+00
        -11   -1    0    0    0    0  0.00000000000E+00  0.00000000000E+00  0.45593999997E+02  0.45594000000E+02  0.51100000000E-03 0. -1.
         11   -1    0    0    0    0 -0.00000000000E+00 -0.00000000000E+00 -0.45593999997E+02  0.45594000000E+02  0.51100000000E-03 0.  1.
         23    2    1    2    0    0  0.35527136788E-14  0.00000000000E+00  0.00000000000E+00  0.91188000000E+02  0.91188000000E+02 0.  0.
    9900012    2    3    3    0    0  0.31483824961E+02  0.15526861852E+02 -0.11111434151E+02  0.54367100472E+02  0.40000037146E+02 0.  0.
         12    1    3    3    0    0 -0.31483824961E+02 -0.15526861852E+02  0.11111434151E+02  0.36820899528E+02  0.00000000000E+00 0. -1.
         11    1    4    4    0    0  0.16160625249E+02 -0.94530058587E+01 -0.14276131563E+02  0.23544278728E+02  0.51100000000E-03 0. -1.
        -11    1    4    4    0    0  0.63890916972E+01  0.42577916598E+01  0.30365125382E+01  0.82564938799E+01  0.51100000000E-03 0.  1.
         12    1    4    4    0    0  0.89341080152E+01  0.20722076051E+02  0.12818487349E+00  0.22566327864E+02  0.00000000000E+00 0. -1.
</event>
<event>
 8    1  0.1269154E-006  0.9118800E+02  0.7816164E-02  0.1184000E+00
        -11   -1    0    0    0    0  0.00000000000E+00  0.00000000000E+00  0.45593999997E+02  0.45594000000E+02  0.51100000000E-03 0.  1.
         11   -1    0    0    0    0 -0.00000000000E+00 -0.00000000000E+00 -0.45593999997E+02  0.45594000000E+02  0.51100000000E-03 0. -1.
         23    2    1    2    0    0 -0.35527136788E-14 -0.35527136788E-14  0.00000000000E+00  0.91188000000E+02  0.91188000000E+02 0.  0.
    9900012    2    3    3    0    0  0.24378596146E+02 -0.26364661064E+02 -0.81467332785E+01  0.54367074344E+02  0.39999977581E+02 0.  0.
         12    1    3    3    0    0 -0.24378596146E+02  0.26364661064E+02  0.81467332785E+01  0.36820925656E+02  0.00000000000E+00 0. -1.
         11    1    4    4    0    0  0.27939858321E+02 -0.18003904360E+02 -0.94364668122E+01  0.34551746140E+02  0.51100000000E-03 0. -1.
        -11    1    4    4    0    0  0.45955831209E+01 -0.19203685142E+01 -0.54852717390E+01  0.74091433893E+01  0.51100000000E-03 0.  1.
        -12    1    4    4    0    0 -0.81568452951E+01 -0.64403881895E+01  0.67750052727E+01  0.12406184814E+02  0.00000000000E+00 0.  1.
</event>
<event>
 8    1  0.1269154E-006  0.9118800E+02  0.7816164E-02  0.1184000E+00
        -11   -1    0    0    0    0  0.00000000000E+00  0.00000000000E+00  0.45593999997E+02  0.45594000000E+02  0.51100000000E-03 0.  1.
         11   -1    0    0    0    0 -0.00000000000E+00 -0.00000000000E+00 -0.45593999997E+02  0.45594000000E+02  0.51100000000E-03 0. -1.
         23    2    1    2    0    0  0.00000000000E+00  0.00000000000E+00  0.71054273576E-14  0.91188000000E+02  0.91188000000E+02 0.  0.
    9900012    2    3    3    0    0  0.12735088129E+02 -0.11195824391E+02 -0.32684108737E+02  0.54367083154E+02  0.39999997666E+02 0.  0.
        -12    1    3    3    0    0 -0.12735088129E+02  0.11195824391E+02  0.32684108737E+02  0.36820916846E+02  0.00000000000E+00 0.  1.
         11    1    4    4    0    0  0.18316092392E+01  0.53255747544E+01 -0.26128936282E+02  0.26728970245E+02  0.51100000000E-03 0. -1.
        -11    1    4    4    0    0  0.22199621470E+01 -0.98708237161E+01  0.53719537865E+01  0.11455098451E+02  0.51100000000E-03 0.  1.
        -12    1    4    4    0    0  0.86835167425E+01 -0.66505754296E+01 -0.11927126241E+02  0.16183014458E+02  0.00000000000E+00 0.  1.
</event>
<event>
 8    1  0.1269154E-006  0.9118800E+02  0.7816164E-02  0.1184000E+00
        -11   -1    0    0    0    0  0.00000000000E+00  0.00000000000E+00  0.45593999997E+02  0.45594000000E+02  0.51100000000E-03 0. -1.
         11   -1    0    0    0    0 -0.00000000000E+00 -0.00000000000E+00 -0.45593999997E+02  0.45594000000E+02  0.51100000000E-03 0.  1.
         23    2    1    2    0    0  0.35527136788E-14  0.00000000000E+00  0.00000000000E+00  0.91188000000E+02  0.91188000000E+02 0.  0.
    9900012    2    3    3    0    0  0.18195868100E+02  0.12150207903E+02  0.29615247606E+02  0.54367081234E+02  0.39999993289E+02 0.  0.
        -12    1    3    3    0    0 -0.18195868100E+02 -0.12150207903E+02 -0.29615247606E+02  0.36820918766E+02  0.00000000000E+00 0.  1.
         11    1    4    4    0    0 -0.43738394095E+01 -0.90558963214E+00  0.18302146949E+02  0.18839297942E+02  0.51100000000E-03 0. -1.
        -11    1    4    4    0    0  0.10326661814E+02  0.15979056453E+02  0.65895175755E+00  0.19036922205E+02  0.51100000000E-03 0.  1.
         12    1    4    4    0    0  0.12243045695E+02 -0.29232589182E+01  0.10654148900E+02  0.16490861087E+02  0.00000000000E+00 0. -1.
</event>
<event>
 8    1  0.1269154E-006  0.9118800E+02  0.7816164E-02  0.1184000E+00
        -11   -1    0    0    0    0  0.00000000000E+00  0.00000000000E+00  0.45593999997E+02  0.45594000000E+02  0.51100000000E-03 0.  1.
         11   -1    0    0    0    0 -0.00000000000E+00 -0.00000000000E+00 -0.45593999997E+02  0.45594000000E+02  0.51100000000E-03 0. -1.
         23    2    1    2    0    0  0.00000000000E+00  0.35527136788E-14  0.00000000000E+00  0.91188000000E+02  0.91188000000E+02 0.  0.
    9900012    2    3    3    0    0  0.11400295898E+02 -0.20601950853E+02 -0.28308510356E+02  0.54367097185E+02  0.40000029654E+02 0.  0.
        -12    1    3    3    0    0 -0.11400295898E+02  0.20601950853E+02  0.28308510356E+02  0.36820902815E+02  0.00000000000E+00 0.  1.
         11    1    4    4    0    0  0.17320188575E+02 -0.40900247729E+01 -0.29269723085E+02  0.34255421829E+02  0.51100000000E-03 0. -1.
        -11    1    4    4    0    0 -0.80237932640E+00 -0.52138067133E+01  0.47958353303E+01  0.71293498865E+01  0.51100000000E-03 0.  1.
         12    1    4    4    0    0 -0.51175133512E+01 -0.11298119367E+02 -0.38346226011E+01  0.12982325470E+02  0.00000000000E+00 0. -1.
</event>
<event>
 8    1  0.1269154E-006  0.9118800E+02  0.7816164E-02  0.1184000E+00
        -11   -1    0    0    0    0  0.00000000000E+00  0.00000000000E+00  0.45593999997E+02  0.45594000000E+02  0.51100000000E-03 0.  1.
         11   -1    0    0    0    0 -0.00000000000E+00 -0.00000000000E+00 -0.45593999997E+02  0.45594000000E+02  0.51100000000E-03 0. -1.
         23    2    1    2    0    0  0.00000000000E+00 -0.17763568394E-14  0.00000000000E+00  0.91188000000E+02  0.91188000000E+02 0.  0.
    9900012    2    3    3    0    0 -0.26347172948E+01  0.89946034664E+01 -0.35608074298E+02  0.54367087708E+02  0.40000008049E+02 0.  0.
        -12    1    3    3    0    0  0.26347172948E+01 -0.89946034664E+01  0.35608074298E+02  0.36820912292E+02  0.00000000000E+00 0.  1.
         11    1    4    4    0    0  0.45958584137E+01 -0.26624721444E+01 -0.23796797313E+02  0.24382334488E+02  0.51100000000E-03 0. -1.
        -11    1    4    4    0    0 -0.96573831658E+01  0.83731525344E+01 -0.18297772262E+02  0.22320017988E+02  0.51100000000E-03 0.  1.
        -12    1    4    4    0    0  0.24268074573E+01  0.32839230764E+01  0.64864952766E+01  0.76647352322E+01  0.00000000000E+00 0.  1.
</event>
<event>
 8    1  0.1269154E-006  0.9118800E+02  0.7816164E-02  0.1184000E+00
        -11   -1    0    0    0    0  0.00000000000E+00  0.00000000000E+00  0.45593999997E+02  0.45594000000E+02  0.51100000000E-03 0.  1.
         11   -1    0    0    0    0 -0.00000000000E+00 -0.00000000000E+00 -0.45593999997E+02  0.45594000000E+02  0.51100000000E-03 0. -1.
         23    2    1    2    0    0  0.00000000000E+00 -0.71054273576E-14  0.00000000000E+00  0.91188000000E+02  0.91188000000E+02 0.  0.
    9900012    2    3    3    0    0  0.10111903337E+02 -0.34311069033E+02  0.87339988094E+01  0.54367044248E+02  0.39999908973E+02 0.  0.
        -12    1    3    3    0    0 -0.10111903337E+02  0.34311069033E+02 -0.87339988094E+01  0.36820955752E+02  0.00000000000E+00 0.  1.
         11    1    4    4    0    0  0.86439035540E+01 -0.22732041614E+01 -0.93247062983E+01  0.12916449730E+02  0.51100000000E-03 0. -1.
        -11    1    4    4    0    0 -0.75631686012E+01 -0.59753548456E+01  0.34476778146E+01  0.10236838740E+02  0.51100000000E-03 0.  1.
        -12    1    4    4    0    0  0.90311683846E+01 -0.26062510026E+02  0.14611027293E+02  0.31213755778E+02  0.00000000000E+00 0.  1.
</event>
<event>
 8    1  0.1269154E-006  0.9118800E+02  0.7816164E-02  0.1184000E+00
        -11   -1    0    0    0    0  0.00000000000E+00  0.00000000000E+00  0.45593999997E+02  0.45594000000E+02  0.51100000000E-03 0. -1.
         11   -1    0    0    0    0 -0.00000000000E+00 -0.00000000000E+00 -0.45593999997E+02  0.45594000000E+02  0.51100000000E-03 0.  1.
         23    2    1    2    0    0  0.00000000000E+00  0.88817841970E-15  0.00000000000E+00  0.91188000000E+02  0.91188000000E+02 0.  0.
    9900012    2    3    3    0    0 -0.28392604945E+02 -0.58973091927E+01 -0.22690614208E+02  0.54367051555E+02  0.39999925630E+02 0.  0.
         12    1    3    3    0    0  0.28392604945E+02  0.58973091927E+01  0.22690614208E+02  0.36820948445E+02  0.00000000000E+00 0. -1.
         11    1    4    4    0    0 -0.74416751655E+01  0.88098797557E+01  0.47798839085E+01  0.12483581258E+02  0.51100000000E-03 0. -1.
        -11    1    4    4    0    0 -0.19479748663E+02 -0.30261646483E+01 -0.15336391178E+02  0.24976452412E+02  0.51100000000E-03 0.  1.
         12    1    4    4    0    0 -0.14711811162E+01 -0.11681024300E+02 -0.12134106939E+02  0.16907017886E+02  0.00000000000E+00 0. -1.
</event>
<event>
 8    1  0.1269154E-006  0.9118800E+02  0.7816164E-02  0.1184000E+00
        -11   -1    0    0    0    0  0.00000000000E+00  0.00000000000E+00  0.45593999997E+02  0.45594000000E+02  0.51100000000E-03 0. -1.
         11   -1    0    0    0    0 -0.00000000000E+00 -0.00000000000E+00 -0.45593999997E+02  0.45594000000E+02  0.51100000000E-03 0.  1.
         23    2    1    2    0    0  0.00000000000E+00  0.00000000000E+00  0.00000000000E+00  0.91188000000E+02  0.91188000000E+02 0.  0.
    9900012    2    3    3    0    0 -0.34718674130E+02 -0.10732178421E+02 -0.59342198989E+01  0.54367069093E+02  0.39999965612E+02 0.  0.
        -12    1    3    3    0    0  0.34718674130E+02  0.10732178421E+02  0.59342198989E+01  0.36820930907E+02  0.00000000000E+00 0.  1.
         11    1    4    4    0    0  0.13403827800E+01 -0.17095711817E+01  0.57275959499E-01  0.21731406809E+01  0.51100000000E-03 0. -1.
        -11    1    4    4    0    0 -0.68990697155E+01 -0.13264080447E+02 -0.15201019519E+02  0.21321444317E+02  0.51100000000E-03 0.  1.
         12    1    4    4    0    0 -0.29159987195E+02  0.42414732075E+01  0.92095236611E+01  0.30872484096E+02  0.00000000000E+00 0. -1.
</event>
<event>
 8    1  0.1269154E-006  0.9118800E+02  0.7816164E-02  0.1184000E+00
        -11   -1    0    0    0    0  0.00000000000E+00  0.00000000000E+00  0.45593999997E+02  0.45594000000E+02  0.51100000000E-03 0.  1.
         11   -1    0    0    0    0 -0.00000000000E+00 -0.00000000000E+00 -0.45593999997E+02  0.45594000000E+02  0.51100000000E-03 0. -1.
         23    2    1    2    0    0  0.71054273576E-14 -0.17763568394E-14  0.00000000000E+00  0.91188000000E+02  0.91188000000E+02 0.  0.
    9900012    2    3    3    0    0  0.34304342220E+02  0.11895470314E+02 -0.61225699714E+01  0.54367136726E+02  0.40000119795E+02 0.  0.
        -12    1    3    3    0    0 -0.34304342220E+02 -0.11895470314E+02  0.61225699714E+01  0.36820863274E+02  0.00000000000E+00 0.  1.
         11    1    4    4    0    0  0.39264405912E+02  0.62296912063E+01 -0.20936811327E+01  0.39810628293E+02  0.51100000000E-03 0. -1.
        -11    1    4    4    0    0  0.70761792213E+00  0.42518044770E+01  0.31226338830E+01  0.53225376525E+01  0.51100000000E-03 0.  1.
        -12    1    4    4    0    0 -0.56676816141E+01  0.14139746308E+01 -0.71515227218E+01  0.92339707805E+01  0.00000000000E+00 0.  1.
</event>
<event>
 8    1  0.1269154E-006  0.9118800E+02  0.7816164E-02  0.1184000E+00
        -11   -1    0    0    0    0  0.00000000000E+00  0.00000000000E+00  0.45593999997E+02  0.45594000000E+02  0.51100000000E-03 0. -1.
         11   -1    0    0    0    0 -0.00000000000E+00 -0.00000000000E+00 -0.45593999997E+02  0.45594000000E+02  0.51100000000E-03 0.  1.
         23    2    1    2    0    0  0.00000000000E+00  0.00000000000E+00  0.88817841970E-15  0.91188000000E+02  0.91188000000E+02 0.  0.
    9900012    2    3    3    0    0  0.24739464516E+02 -0.26710440868E+02 -0.55037653436E+01  0.54367079468E+02  0.39999989263E+02 0.  0.
         12    1    3    3    0    0 -0.24739464516E+02  0.26710440868E+02  0.55037653436E+01  0.36820920532E+02  0.00000000000E+00 0. -1.
         11    1    4    4    0    0  0.49647959287E+01  0.38811888287E+01  0.11642752842E+01  0.64084602313E+01  0.51100000000E-03 0. -1.
        -11    1    4    4    0    0  0.97431946559E+01  0.42194947667E+01 -0.48839311086E+01  0.11687033906E+02  0.51100000000E-03 0.  1.
        -12    1    4    4    0    0  0.10031473931E+02 -0.34811124463E+02 -0.17841095192E+01  0.36271585331E+02  0.00000000000E+00 0.  1.
</event>
<event>
 8    1  0.1269154E-006  0.9118800E+02  0.7816164E-02  0.1184000E+00
        -11   -1    0    0    0    0  0.00000000000E+00  0.00000000000E+00  0.45593999997E+02  0.45594000000E+02  0.51100000000E-03 0.  1.
         11   -1    0    0    0    0 -0.00000000000E+00 -0.00000000000E+00 -0.45593999997E+02  0.45594000000E+02  0.51100000000E-03 0. -1.
         23    2    1    2    0    0  0.00000000000E+00  0.00000000000E+00  0.11102230246E-15  0.91188000000E+02  0.91188000000E+02 0.  0.
    9900012    2    3    3    0    0 -0.15444226609E+02 -0.33418369288E+02  0.68449234434E+00  0.54367081065E+02  0.39999992904E+02 0.  0.
        -12    1    3    3    0    0  0.15444226609E+02  0.33418369288E+02 -0.68449234434E+00  0.36820918935E+02  0.00000000000E+00 0.  1.
         11    1    4    4    0    0  0.37408352102E+01 -0.57030796400E+01 -0.44861368778E+00  0.68352190859E+01  0.51100000000E-03 0. -1.
        -11    1    4    4    0    0 -0.13949227677E+02 -0.32942732182E+02 -0.70900789072E+01  0.36470176522E+02  0.51100000000E-03 0.  1.
        -12    1    4    4    0    0 -0.52358341428E+01  0.52274425332E+01  0.82231849393E+01  0.11061685457E+02  0.00000000000E+00 0.  1.
</event>
<event>
 8    1  0.1269154E-006  0.9118800E+02  0.7816164E-02  0.1184000E+00
        -11   -1    0    0    0    0  0.00000000000E+00  0.00000000000E+00  0.45593999997E+02  0.45594000000E+02  0.51100000000E-03 0. -1.
         11   -1    0    0    0    0 -0.00000000000E+00 -0.00000000000E+00 -0.45593999997E+02  0.45594000000E+02  0.51100000000E-03 0.  1.
         23    2    1    2    0    0  0.35527136788E-14  0.00000000000E+00  0.35527136788E-14  0.91188000000E+02  0.91188000000E+02 0.  0.
    9900012    2    3    3    0    0 -0.16490076740E+02 -0.18660564868E+02 -0.27122686113E+02  0.54367089989E+02  0.40000013247E+02 0.  0.
         12    1    3    3    0    0  0.16490076740E+02  0.18660564868E+02  0.27122686113E+02  0.36820910011E+02  0.00000000000E+00 0. -1.
         11    1    4    4    0    0 -0.23453694878E+01 -0.94593923653E+01 -0.18020236989E+02  0.20486820236E+02  0.51100000000E-03 0. -1.
        -11    1    4    4    0    0 -0.96850802187E+01 -0.31288464093E+01 -0.18932656126E+02  0.21495020980E+02  0.51100000000E-03 0.  1.
         12    1    4    4    0    0 -0.44596270338E+01 -0.60723260935E+01  0.98302070023E+01  0.12385248773E+02  0.00000000000E+00 0. -1.
</event>
<event>
 8    1  0.1269154E-006  0.9118800E+02  0.7816164E-02  0.1184000E+00
        -11   -1    0    0    0    0  0.00000000000E+00  0.00000000000E+00  0.45593999997E+02  0.45594000000E+02  0.51100000000E-03 0.  1.
         11   -1    0    0    0    0 -0.00000000000E+00 -0.00000000000E+00 -0.45593999997E+02  0.45594000000E+02  0.51100000000E-03 0. -1.
         23    2    1    2    0    0  0.17763568394E-14  0.00000000000E+00  0.00000000000E+00  0.91188000000E+02  0.91188000000E+02 0.  0.
    9900012    2    3    3    0    0  0.15476161581E+02 -0.26002729688E+02  0.20979178735E+02  0.54367089244E+02  0.40000011550E+02 0.  0.
         12    1    3    3    0    0 -0.15476161581E+02  0.26002729688E+02 -0.20979178735E+02  0.36820910756E+02  0.00000000000E+00 0. -1.
         11    1    4    4    0    0 -0.87196684732E+01 -0.68269512032E+01  0.89875504627E+01  0.14262396173E+02  0.51100000000E-03 0. -1.
        -11    1    4    4    0    0  0.21596365163E+02 -0.16488222823E+02  0.18308782155E+02  0.32763943358E+02  0.51100000000E-03 0.  1.
        -12    1    4    4    0    0  0.25994648916E+01 -0.26875556620E+01 -0.63171538835E+01  0.73407497129E+01  0.00000000000E+00 0.  1.
</event>
<event>
 8    1  0.1269154E-006  0.9118800E+02  0.7816164E-02  0.1184000E+00
        -11   -1    0    0    0    0  0.00000000000E+00  0.00000000000E+00  0.45593999997E+02  0.45594000000E+02  0.51100000000E-03 0.  1.
         11   -1    0    0    0    0 -0.00000000000E+00 -0.00000000000E+00 -0.45593999997E+02  0.45594000000E+02  0.51100000000E-03 0. -1.
         23    2    1    2    0    0  0.00000000000E+00  0.00000000000E+00  0.35527136788E-14  0.91188000000E+02  0.91188000000E+02 0.  0.
    9900012    2    3    3    0    0 -0.18046612314E+02  0.10771713399E+02 -0.30233548569E+02  0.54367116189E+02  0.40000072976E+02 0.  0.
         12    1    3    3    0    0  0.18046612314E+02 -0.10771713399E+02  0.30233548569E+02  0.36820883811E+02  0.00000000000E+00 0. -1.
         11    1    4    4    0    0  0.10261767024E+02 -0.53546952347E-01 -0.81506750459E+01  0.13104969809E+02  0.51100000000E-03 0. -1.
        -11    1    4    4    0    0 -0.54611676267E+01  0.10748013813E+01  0.26882918921E+01  0.61811377120E+01  0.51100000000E-03 0.  1.
         12    1    4    4    0    0 -0.22847211711E+02  0.97504589699E+01 -0.24771165415E+02  0.35081008668E+02  0.00000000000E+00 0. -1.
</event>
<event>
 8    1  0.1269154E-006  0.9118800E+02  0.7816164E-02  0.1184000E+00
        -11   -1    0    0    0    0  0.00000000000E+00  0.00000000000E+00  0.45593999997E+02  0.45594000000E+02  0.51100000000E-03 0.  1.
         11   -1    0    0    0    0 -0.00000000000E+00 -0.00000000000E+00 -0.45593999997E+02  0.45594000000E+02  0.51100000000E-03 0. -1.
         23    2    1    2    0    0  0.35527136788E-14  0.00000000000E+00  0.00000000000E+00  0.91188000000E+02  0.91188000000E+02 0.  0.
    9900012    2    3    3    0    0 -0.19219863521E+02  0.16314107287E+02 -0.26837046860E+02  0.54367077490E+02  0.39999984754E+02 0.  0.
        -12    1    3    3    0    0  0.19219863521E+02 -0.16314107287E+02  0.26837046860E+02  0.36820922510E+02  0.00000000000E+00 0.  1.
         11    1    4    4    0    0  0.20351414876E+00  0.59978846813E+01 -0.30681335377E+02  0.31262763464E+02  0.51100000000E-03 0. -1.
        -11    1    4    4    0    0 -0.10711337439E+01  0.13335967837E+01  0.19350470979E+01  0.25826760174E+01  0.51100000000E-03 0.  1.
         12    1    4    4    0    0 -0.18352243925E+02  0.89826258224E+01  0.19092414192E+01  0.20521638009E+02  0.00000000000E+00 0. -1.
</event>
<event>
 8    1  0.1269154E-006  0.9118800E+02  0.7816164E-02  0.1184000E+00
        -11   -1    0    0    0    0  0.00000000000E+00  0.00000000000E+00  0.45593999997E+02  0.45594000000E+02  0.51100000000E-03 0.  1.
         11   -1    0    0    0    0 -0.00000000000E+00 -0.00000000000E+00 -0.45593999997E+02  0.45594000000E+02  0.51100000000E-03 0. -1.
         23    2    1    2    0    0 -0.55511151231E-16  0.00000000000E+00  0.17763568394E-14  0.91188000000E+02  0.91188000000E+02 0.  0.
    9900012    2    3    3    0    0 -0.18835353694E+00  0.35678406675E+02 -0.90992254664E+01  0.54367080891E+02  0.39999992507E+02 0.  0.
         12    1    3    3    0    0  0.18835353694E+00 -0.35678406675E+02  0.90992254664E+01  0.36820919109E+02  0.00000000000E+00 0. -1.
         11    1    4    4    0    0  0.11796412043E+02  0.15819991269E+02  0.76956312164E+01  0.21181364473E+02  0.51100000000E-03 0. -1.
        -11    1    4    4    0    0 -0.10409434358E+02  0.18703371343E+02 -0.60202438363E+01  0.22235461753E+02  0.51100000000E-03 0.  1.
         12    1    4    4    0    0 -0.15753312222E+01  0.11550440630E+01 -0.10774612846E+02  0.10950254665E+02  0.00000000000E+00 0. -1.
</event>
<event>
 8    1  0.1269154E-006  0.9118800E+02  0.7816164E-02  0.1184000E+00
        -11   -1    0    0    0    0  0.00000000000E+00  0.00000000000E+00  0.45593999997E+02  0.45594000000E+02  0.51100000000E-03 0.  1.
         11   -1    0    0    0    0 -0.00000000000E+00 -0.00000000000E+00 -0.45593999997E+02  0.45594000000E+02  0.51100000000E-03 0. -1.
         23    2    1    2    0    0  0.00000000000E+00 -0.17763568394E-14  0.00000000000E+00  0.91188000000E+02  0.91188000000E+02 0.  0.
    9900012    2    3    3    0    0 -0.66777499382E+01  0.10890596231E+02 -0.34533806704E+02  0.54367065248E+02  0.39999956847E+02 0.  0.
        -12    1    3    3    0    0  0.66777499382E+01 -0.10890596231E+02  0.34533806704E+02  0.36820934752E+02  0.00000000000E+00 0.  1.
         11    1    4    4    0    0  0.18563090574E+01  0.28047132693E+01  0.97464232034E+00  0.35017463862E+01  0.51100000000E-03 0. -1.
        -11    1    4    4    0    0 -0.29419639636E+01 -0.91039796331E+01  0.14940041492E+01  0.96834728162E+01  0.51100000000E-03 0.  1.
         12    1    4    4    0    0 -0.55920950320E+01  0.17189862595E+02 -0.37002453174E+02  0.41181846046E+02  0.00000000000E+00 0. -1.
</event>
<event>
 8    1  0.1269154E-006  0.9118800E+02  0.7816164E-02  0.1184000E+00
        -11   -1    0    0    0    0  0.00000000000E+00  0.00000000000E+00  0.45593999997E+02  0.45594000000E+02  0.51100000000E-03 0.  1.
         11   -1    0    0    0    0 -0.00000000000E+00 -0.00000000000E+00 -0.45593999997E+02  0.45594000000E+02  0.51100000000E-03 0. -1.
         23    2    1    2    0    0  0.44408920985E-15  0.00000000000E+00 -0.71054273576E-14  0.91188000000E+02  0.91188000000E+02 0.  0.
    9900012    2    3    3    0    0  0.26656257572E+01 -0.19661733296E+02 -0.31017603232E+02  0.54367068085E+02  0.39999963313E+02 0.  0.
        -12    1    3    3    0    0 -0.26656257572E+01  0.19661733296E+02  0.31017603232E+02  0.36820931915E+02  0.00000000000E+00 0.  1.
         11    1    4    4    0    0  0.45416039258E+01 -0.12443332027E+02  0.26681660016E+01  0.13512282865E+02  0.51100000000E-03 0. -1.
        -11    1    4    4    0    0 -0.15824853505E+01 -0.45086139199E+01  0.19165362354E+01  0.51482978513E+01  0.51100000000E-03 0.  1.
         12    1    4    4    0    0 -0.29349281809E+00 -0.27097873493E+01 -0.35602305469E+02  0.35706487368E+02  0.00000000000E+00 0. -1.
</event>
<event>
 8    1  0.1269154E-006  0.9118800E+02  0.7816164E-02  0.1184000E+00
        -11   -1    0    0    0    0  0.00000000000E+00  0.00000000000E+00  0.45593999997E+02  0.45594000000E+02  0.51100000000E-03 0.  1.
         11   -1    0    0    0    0 -0.00000000000E+00 -0.00000000000E+00 -0.45593999997E+02  0.45594000000E+02  0.51100000000E-03 0. -1.
         23    2    1    2    0    0  0.00000000000E+00  0.35527136788E-14  0.00000000000E+00  0.91188000000E+02  0.91188000000E+02 0.  0.
    9900012    2    3    3    0    0 -0.22125558329E+02  0.22801300393E+02 -0.18610227277E+02  0.54367079448E+02  0.39999989217E+02 0.  0.
        -12    1    3    3    0    0  0.22125558329E+02 -0.22801300393E+02  0.18610227277E+02  0.36820920552E+02  0.00000000000E+00 0.  1.
         11    1    4    4    0    0 -0.12466445448E+02 -0.73706158099E+01 -0.37624562009E+01  0.14963098491E+02  0.51100000000E-03 0. -1.
        -11    1    4    4    0    0 -0.60147625283E+01  0.39363302072E+01  0.26472338908E+01  0.76602814116E+01  0.51100000000E-03 0.  1.
         12    1    4    4    0    0 -0.36443503532E+01  0.26235585996E+02 -0.17495004967E+02  0.31743699546E+02  0.00000000000E+00 0. -1.
</event>
<event>
 8    1  0.1269154E-006  0.9118800E+02  0.7816164E-02  0.1184000E+00
        -11   -1    0    0    0    0  0.00000000000E+00  0.00000000000E+00  0.45593999997E+02  0.45594000000E+02  0.51100000000E-03 0.  1.
         11   -1    0    0    0    0 -0.00000000000E+00 -0.00000000000E+00 -0.45593999997E+02  0.45594000000E+02  0.51100000000E-03 0. -1.
         23    2    1    2    0    0 -0.88817841970E-15  0.71054273576E-14  0.17763568394E-14  0.91188000000E+02  0.91188000000E+02 0.  0.
    9900012    2    3    3    0    0  0.58826316224E+01 -0.34811184231E+02 -0.10457267817E+02  0.54367104403E+02  0.40000046108E+02 0.  0.
        -12    1    3    3    0    0 -0.58826316224E+01  0.34811184231E+02  0.10457267817E+02  0.36820895597E+02  0.00000000000E+00 0.  1.
         11    1    4    4    0    0  0.65178117972E+00 -0.48535618952E+01  0.39276254223E+01  0.62775889875E+01  0.51100000000E-03 0. -1.
        -11    1    4    4    0    0 -0.15874764829E+01 -0.11122092713E+02  0.11019926298E+02  0.15737210800E+02  0.51100000000E-03 0.  1.
         12    1    4    4    0    0  0.68183269255E+01 -0.18835529622E+02 -0.25404819537E+02  0.32352304615E+02  0.00000000000E+00 0. -1.
</event>
<event>
 8    1  0.1269154E-006  0.9118800E+02  0.7816164E-02  0.1184000E+00
        -11   -1    0    0    0    0  0.00000000000E+00  0.00000000000E+00  0.45593999997E+02  0.45594000000E+02  0.51100000000E-03 0. -1.
         11   -1    0    0    0    0 -0.00000000000E+00 -0.00000000000E+00 -0.45593999997E+02  0.45594000000E+02  0.51100000000E-03 0.  1.
         23    2    1    2    0    0  0.88817841970E-15  0.00000000000E+00  0.00000000000E+00  0.91188000000E+02  0.91188000000E+02 0.  0.
    9900012    2    3    3    0    0 -0.62549249683E+01 -0.26365240406E+02  0.24930519313E+02  0.54367071423E+02  0.39999970923E+02 0.  0.
        -12    1    3    3    0    0  0.62549249683E+01  0.26365240406E+02 -0.24930519313E+02  0.36820928577E+02  0.00000000000E+00 0.  1.
         11    1    4    4    0    0  0.54080123057E+01 -0.89442647352E+01  0.27479428946E+02  0.29400093268E+02  0.51100000000E-03 0. -1.
        -11    1    4    4    0    0 -0.75860534408E+01 -0.60840317267E+01 -0.71505472658E+01  0.12070375939E+02  0.51100000000E-03 0.  1.
         12    1    4    4    0    0 -0.40768838333E+01 -0.11336943945E+02  0.46016376330E+01  0.12896602215E+02  0.00000000000E+00 0. -1.
</event>
<event>
 8    1  0.1269154E-006  0.9118800E+02  0.7816164E-02  0.1184000E+00
        -11   -1    0    0    0    0  0.00000000000E+00  0.00000000000E+00  0.45593999997E+02  0.45594000000E+02  0.51100000000E-03 0. -1.
         11   -1    0    0    0    0 -0.00000000000E+00 -0.00000000000E+00 -0.45593999997E+02  0.45594000000E+02  0.51100000000E-03 0.  1.
         23    2    1    2    0    0  0.35527136788E-14  0.13322676296E-14  0.35527136788E-14  0.91188000000E+02  0.91188000000E+02 0.  0.
    9900012    2    3    3    0    0 -0.28847925963E+02 -0.21299854776E+01 -0.22782407079E+02  0.54367112683E+02  0.40000064982E+02 0.  0.
         12    1    3    3    0    0  0.28847925963E+02  0.21299854776E+01  0.22782407079E+02  0.36820887317E+02  0.00000000000E+00 0. -1.
         11    1    4    4    0    0 -0.16289238543E+02  0.53937536887E+00 -0.13101919288E+02  0.20911492232E+02  0.51100000000E-03 0. -1.
        -11    1    4    4    0    0  0.15710218055E+01  0.87026113611E+01  0.49664682789E+01  0.10142453423E+02  0.51100000000E-03 0.  1.
         12    1    4    4    0    0 -0.14129709225E+02 -0.11371972208E+02 -0.14646956071E+02  0.23313167027E+02  0.00000000000E+00 0. -1.
</event>
<event>
 8    1  0.1269154E-006  0.9118800E+02  0.7816164E-02  0.1184000E+00
        -11   -1    0    0    0    0  0.00000000000E+00  0.00000000000E+00  0.45593999997E+02  0.45594000000E+02  0.51100000000E-03 0. -1.
         11   -1    0    0    0    0 -0.00000000000E+00 -0.00000000000E+00 -0.45593999997E+02  0.45594000000E+02  0.51100000000E-03 0.  1.
         23    2    1    2    0    0  0.14210854715E-13  0.17763568394E-14  0.00000000000E+00  0.91188000000E+02  0.91188000000E+02 0.  0.
    9900012    2    3    3    0    0 -0.32590814074E+02 -0.15941963714E+02  0.62828485067E+01  0.54367060924E+02  0.39999946988E+02 0.  0.
        -12    1    3    3    0    0  0.32590814074E+02  0.15941963714E+02 -0.62828485067E+01  0.36820939076E+02  0.00000000000E+00 0.  1.
         11    1    4    4    0    0  0.20478916449E+01 -0.38080278731E+01  0.46720669423E+01  0.63657793118E+01  0.51100000000E-03 0. -1.
        -11    1    4    4    0    0  0.33694793574E+01  0.11506596869E+01  0.65313406028E+01  0.74388049569E+01  0.51100000000E-03 0.  1.
        -12    1    4    4    0    0 -0.38008185077E+02 -0.13284595528E+02 -0.49205590384E+01  0.40562476655E+02  0.00000000000E+00 0.  1.
</event>
<event>
 8    1  0.1269154E-006  0.9118800E+02  0.7816164E-02  0.1184000E+00
        -11   -1    0    0    0    0  0.00000000000E+00  0.00000000000E+00  0.45593999997E+02  0.45594000000E+02  0.51100000000E-03 0. -1.
         11   -1    0    0    0    0 -0.00000000000E+00 -0.00000000000E+00 -0.45593999997E+02  0.45594000000E+02  0.51100000000E-03 0.  1.
         23    2    1    2    0    0 -0.35527136788E-14  0.00000000000E+00  0.35527136788E-14  0.91188000000E+02  0.91188000000E+02 0.  0.
    9900012    2    3    3    0    0  0.17910544908E+02  0.14001749302E+02 -0.28964523527E+02  0.54367078969E+02  0.39999988127E+02 0.  0.
         12    1    3    3    0    0 -0.17910544908E+02 -0.14001749302E+02  0.28964523527E+02  0.36820921031E+02  0.00000000000E+00 0. -1.
         11    1    4    4    0    0  0.68595603482E+00 -0.60494591865E+01 -0.20414247585E+02  0.21302769699E+02  0.51100000000E-03 0. -1.
        -11    1    4    4    0    0  0.67800675539E+01  0.24180766904E+00 -0.82325736025E+01  0.10667851488E+02  0.51100000000E-03 0.  1.
         12    1    4    4    0    0  0.10444521319E+02  0.19809400820E+02 -0.31770233902E+00  0.22396457783E+02  0.00000000000E+00 0. -1.
</event>
<event>
 8    1  0.1269154E-006  0.9118800E+02  0.7816164E-02  0.1184000E+00
        -11   -1    0    0    0    0  0.00000000000E+00  0.00000000000E+00  0.45593999997E+02  0.45594000000E+02  0.51100000000E-03 0.  1.
         11   -1    0    0    0    0 -0.00000000000E+00 -0.00000000000E+00 -0.45593999997E+02  0.45594000000E+02  0.51100000000E-03 0. -1.
         23    2    1    2    0    0  0.00000000000E+00  0.00000000000E+00  0.88817841970E-15  0.91188000000E+02  0.91188000000E+02 0.  0.
    9900012    2    3    3    0    0 -0.24496154266E+01 -0.36266234391E+02 -0.58770117096E+01  0.54367086931E+02  0.40000006276E+02 0.  0.
        -12    1    3    3    0    0  0.24496154266E+01  0.36266234391E+02  0.58770117096E+01  0.36820913069E+02  0.00000000000E+00 0.  1.
         11    1    4    4    0    0  0.71609143137E+01 -0.18203138792E+01 -0.10148811232E+02  0.12553509713E+02  0.51100000000E-03 0. -1.
        -11    1    4    4    0    0 -0.76801787452E+01 -0.18822729200E+02 -0.80068137945E+01  0.21849241349E+02  0.51100000000E-03 0.  1.
        -12    1    4    4    0    0 -0.19303509951E+01 -0.15623191311E+02  0.12278613317E+02  0.19964335869E+02  0.00000000000E+00 0.  1.
</event>
<event>
 8    1  0.1269154E-006  0.9118800E+02  0.7816164E-02  0.1184000E+00
        -11   -1    0    0    0    0  0.00000000000E+00  0.00000000000E+00  0.45593999997E+02  0.45594000000E+02  0.51100000000E-03 0.  1.
         11   -1    0    0    0    0 -0.00000000000E+00 -0.00000000000E+00 -0.45593999997E+02  0.45594000000E+02  0.51100000000E-03 0. -1.
         23    2    1    2    0    0  0.17763568394E-14  0.17763568394E-14  0.71054273576E-14  0.91188000000E+02  0.91188000000E+02 0.  0.
    9900012    2    3    3    0    0  0.79058914577E+01  0.12748281643E+02  0.33626763689E+02  0.54367067899E+02  0.39999962890E+02 0.  0.
         12    1    3    3    0    0 -0.79058914577E+01 -0.12748281643E+02 -0.33626763689E+02  0.36820932101E+02  0.00000000000E+00 0. -1.
         11    1    4    4    0    0 -0.86838149752E+01 -0.16062211319E+01  0.13652333357E+02  0.16259606244E+02  0.51100000000E-03 0. -1.
        -11    1    4    4    0    0  0.18901165373E+02  0.12053769413E+02  0.24056507081E+02  0.32882562898E+02  0.51100000000E-03 0.  1.
         12    1    4    4    0    0 -0.23114589398E+01  0.23007333619E+01 -0.40820767500E+01  0.52248987574E+01  0.00000000000E+00 0. -1.
</event>
<event>
 8    1  0.1269154E-006  0.9118800E+02  0.7816164E-02  0.1184000E+00
        -11   -1    0    0    0    0  0.00000000000E+00  0.00000000000E+00  0.45593999997E+02  0.45594000000E+02  0.51100000000E-03 0. -1.
         11   -1    0    0    0    0 -0.00000000000E+00 -0.00000000000E+00 -0.45593999997E+02  0.45594000000E+02  0.51100000000E-03 0.  1.
         23    2    1    2    0    0  0.00000000000E+00  0.88817841970E-15  0.00000000000E+00  0.91188000000E+02  0.91188000000E+02 0.  0.
    9900012    2    3    3    0    0 -0.35178712065E+02  0.79623896837E+01 -0.74053093475E+01  0.54367081508E+02  0.39999993914E+02 0.  0.
         12    1    3    3    0    0  0.35178712065E+02 -0.79623896837E+01  0.74053093475E+01  0.36820918492E+02  0.00000000000E+00 0. -1.
         11    1    4    4    0    0 -0.24108989026E+02  0.16147269394E+02 -0.10133900686E+02  0.30735543010E+02  0.51100000000E-03 0.  1.
        -11    1    4    4    0    0  0.70819512699E+00 -0.58435390970E+01 -0.62892500859E+01  0.86141254007E+01  0.51100000000E-03 0. -1.
         12    1    4    4    0    0 -0.11777918167E+02 -0.23413406136E+01  0.90178414239E+01  0.15017413098E+02  0.00000000000E+00 0. -1.
</event>
<event>
 8    1  0.1269154E-006  0.9118800E+02  0.7816164E-02  0.1184000E+00
        -11   -1    0    0    0    0  0.00000000000E+00  0.00000000000E+00  0.45593999997E+02  0.45594000000E+02  0.51100000000E-03 0.  1.
         11   -1    0    0    0    0 -0.00000000000E+00 -0.00000000000E+00 -0.45593999997E+02  0.45594000000E+02  0.51100000000E-03 0. -1.
         23    2    1    2    0    0  0.00000000000E+00  0.00000000000E+00  0.00000000000E+00  0.91188000000E+02  0.91188000000E+02 0.  0.
    9900012    2    3    3    0    0  0.26112862984E+02  0.17383937501E+02 -0.19279436630E+02  0.54367087830E+02  0.40000008326E+02 0.  0.
        -12    1    3    3    0    0 -0.26112862984E+02 -0.17383937501E+02  0.19279436630E+02  0.36820912170E+02  0.00000000000E+00 0.  1.
         11    1    4    4    0    0  0.47459944320E+01 -0.18033312455E+00 -0.19080161071E+02  0.19662388714E+02  0.51100000000E-03 0. -1.
        -11    1    4    4    0    0  0.12965466834E+02  0.15116504131E+01 -0.76324939592E+01  0.15120958353E+02  0.51100000000E-03 0.  1.
         12    1    4    4    0    0  0.84014017177E+01  0.16052620213E+02  0.74332184000E+01  0.19583740764E+02  0.00000000000E+00 0. -1.
</event>
<event>
 8    1  0.1269154E-006  0.9118800E+02  0.7816164E-02  0.1184000E+00
        -11   -1    0    0    0    0  0.00000000000E+00  0.00000000000E+00  0.45593999997E+02  0.45594000000E+02  0.51100000000E-03 0.  1.
         11   -1    0    0    0    0 -0.00000000000E+00 -0.00000000000E+00 -0.45593999997E+02  0.45594000000E+02  0.51100000000E-03 0. -1.
         23    2    1    2    0    0 -0.35527136788E-14  0.22204460493E-14 -0.35527136788E-14  0.91188000000E+02  0.91188000000E+02 0.  0.
    9900012    2    3    3    0    0  0.25547785369E+02  0.28801275535E+01 -0.26358959066E+02  0.54367092963E+02  0.40000020028E+02 0.  0.
         12    1    3    3    0    0 -0.25547785369E+02 -0.28801275535E+01  0.26358959066E+02  0.36820907037E+02  0.00000000000E+00 0. -1.
         11    1    4    4    0    0  0.16513852432E+02  0.91253178199E+01 -0.40568411588E+01  0.19298619327E+02  0.51100000000E-03 0. -1.
        -11    1    4    4    0    0 -0.11808470955E+01  0.45328877831E+01  0.31192924108E+01  0.56277399480E+01  0.51100000000E-03 0.  1.
         12    1    4    4    0    0  0.10214780032E+02 -0.10778078050E+02 -0.25421410318E+02  0.29440733688E+02  0.00000000000E+00 0. -1.
</event>
<event>
 8    1  0.1269154E-006  0.9118800E+02  0.7816164E-02  0.1184000E+00
        -11   -1    0    0    0    0  0.00000000000E+00  0.00000000000E+00  0.45593999997E+02  0.45594000000E+02  0.51100000000E-03 0.  1.
         11   -1    0    0    0    0 -0.00000000000E+00 -0.00000000000E+00 -0.45593999997E+02  0.45594000000E+02  0.51100000000E-03 0. -1.
         23    2    1    2    0    0  0.00000000000E+00 -0.35527136788E-14  0.00000000000E+00  0.91188000000E+02  0.91188000000E+02 0.  0.
    9900012    2    3    3    0    0  0.18487674732E+02  0.20381584809E+02 -0.24465838833E+02  0.54367076789E+02  0.39999983155E+02 0.  0.
        -12    1    3    3    0    0 -0.18487674732E+02 -0.20381584809E+02  0.24465838833E+02  0.36820923211E+02  0.00000000000E+00 0.  1.
         11    1    4    4    0    0  0.75484344053E+01  0.12471708218E+02 -0.69513220151E+01  0.16150642274E+02  0.51100000000E-03 0. -1.
        -11    1    4    4    0    0  0.99042019924E+01 -0.11036641738E+02 -0.95487020595E+01  0.17637414472E+02  0.51100000000E-03 0.  1.
        -12    1    4    4    0    0  0.10350383347E+01  0.18946518330E+02 -0.79658147583E+01  0.20579020043E+02  0.00000000000E+00 0.  1.
</event>
<event>
 8    1  0.1269154E-006  0.9118800E+02  0.7816164E-02  0.1184000E+00
        -11   -1    0    0    0    0  0.00000000000E+00  0.00000000000E+00  0.45593999997E+02  0.45594000000E+02  0.51100000000E-03 0. -1.
         11   -1    0    0    0    0 -0.00000000000E+00 -0.00000000000E+00 -0.45593999997E+02  0.45594000000E+02  0.51100000000E-03 0.  1.
         23    2    1    2    0    0  0.35527136788E-14  0.35527136788E-14 -0.35527136788E-14  0.91188000000E+02  0.91188000000E+02 0.  0.
    9900012    2    3    3    0    0 -0.20387826209E+02 -0.21521376664E+02  0.21839121164E+02  0.54367077629E+02  0.39999985071E+02 0.  0.
        -12    1    3    3    0    0  0.20387826209E+02  0.21521376664E+02 -0.21839121164E+02  0.36820922371E+02  0.00000000000E+00 0.  1.
         11    1    4    4    0    0 -0.17742397507E+01 -0.10664266101E+02  0.17430197654E+02  0.20510638426E+02  0.51100000000E-03 0. -1.
        -11    1    4    4    0    0 -0.70598396544E+01 -0.17274309972E+02  0.77782975851E+01  0.20217443818E+02  0.51100000000E-03 0.  1.
        -12    1    4    4    0    0 -0.11553746804E+02  0.64171994081E+01 -0.33693740748E+01  0.13638995385E+02  0.00000000000E+00 0.  1.
</event>
<event>
 8    1  0.1269154E-006  0.9118800E+02  0.7816164E-02  0.1184000E+00
        -11   -1    0    0    0    0  0.00000000000E+00  0.00000000000E+00  0.45593999997E+02  0.45594000000E+02  0.51100000000E-03 0.  1.
         11   -1    0    0    0    0 -0.00000000000E+00 -0.00000000000E+00 -0.45593999997E+02  0.45594000000E+02  0.51100000000E-03 0. -1.
         23    2    1    2    0    0  0.00000000000E+00  0.00000000000E+00  0.35527136788E-14  0.91188000000E+02  0.91188000000E+02 0.  0.
    9900012    2    3    3    0    0  0.16349552627E+01  0.20973042529E+02  0.30219760034E+02  0.54367143299E+02  0.40000134780E+02 0.  0.
         12    1    3    3    0    0 -0.16349552627E+01 -0.20973042529E+02 -0.30219760034E+02  0.36820856701E+02  0.00000000000E+00 0. -1.
         11    1    4    4    0    0 -0.35878345817E+01  0.13076019669E+02 -0.11348410659E+01  0.13606715690E+02  0.51100000000E-03 0.  1.
        -11    1    4    4    0    0  0.25080906449E+01  0.15486577193E+02  0.27863252171E+02  0.31976325831E+02  0.51100000000E-03 0. -1.
         12    1    4    4    0    0  0.27146991995E+01 -0.75895543323E+01  0.34913489284E+01  0.87841017781E+01  0.00000000000E+00 0. -1.
</event>
<event>
 8    1  0.1269154E-006  0.9118800E+02  0.7816164E-02  0.1184000E+00
        -11   -1    0    0    0    0  0.00000000000E+00  0.00000000000E+00  0.45593999997E+02  0.45594000000E+02  0.51100000000E-03 0. -1.
         11   -1    0    0    0    0 -0.00000000000E+00 -0.00000000000E+00 -0.45593999997E+02  0.45594000000E+02  0.51100000000E-03 0.  1.
         23    2    1    2    0    0  0.35527136788E-14  0.88817841970E-15  0.35527136788E-14  0.91188000000E+02  0.91188000000E+02 0.  0.
    9900012    2    3    3    0    0 -0.25956589258E+02  0.49735127596E+01  0.25637862037E+02  0.54367077620E+02  0.39999985051E+02 0.  0.
        -12    1    3    3    0    0  0.25956589258E+02 -0.49735127596E+01 -0.25637862037E+02  0.36820922380E+02  0.00000000000E+00 0.  1.
         11    1    4    4    0    0 -0.76663621688E+01 -0.19223701939E+01  0.80744794537E+01  0.11298930692E+02  0.51100000000E-03 0. -1.
        -11    1    4    4    0    0 -0.29320643473E+01  0.44420537349E+01 -0.10052044264E+02  0.11374200494E+02  0.51100000000E-03 0.  1.
        -12    1    4    4    0    0 -0.15358162742E+02  0.24538292186E+01  0.27615426848E+02  0.31693946435E+02  0.00000000000E+00 0.  1.
</event>
<event>
 8    1  0.1269154E-006  0.9118800E+02  0.7816164E-02  0.1184000E+00
        -11   -1    0    0    0    0  0.00000000000E+00  0.00000000000E+00  0.45593999997E+02  0.45594000000E+02  0.51100000000E-03 0. -1.
         11   -1    0    0    0    0 -0.00000000000E+00 -0.00000000000E+00 -0.45593999997E+02  0.45594000000E+02  0.51100000000E-03 0.  1.
         23    2    1    2    0    0 -0.35527136788E-14  0.88817841970E-15  0.00000000000E+00  0.91188000000E+02  0.91188000000E+02 0.  0.
    9900012    2    3    3    0    0 -0.21281523724E+02  0.67894555312E+01 -0.29270785986E+02  0.54367097368E+02  0.40000030070E+02 0.  0.
         12    1    3    3    0    0  0.21281523724E+02 -0.67894555312E+01  0.29270785986E+02  0.36820902632E+02  0.00000000000E+00 0. -1.
         11    1    4    4    0    0 -0.89646703448E+01  0.47016881000E+01 -0.37348826489E+00  0.10129692943E+02  0.51100000000E-03 0. -1.
        -11    1    4    4    0    0 -0.14265253888E+02  0.81194133714E+01 -0.32881479683E+02  0.36750701332E+02  0.51100000000E-03 0.  1.
        -12    1    4    4    0    0  0.19484005087E+01 -0.60316459401E+01  0.39841819626E+01  0.74867030928E+01  0.00000000000E+00 0.  1.
</event>
<event>
 8    1  0.1269154E-006  0.9118800E+02  0.7816164E-02  0.1184000E+00
        -11   -1    0    0    0    0  0.00000000000E+00  0.00000000000E+00  0.45593999997E+02  0.45594000000E+02  0.51100000000E-03 0.  1.
         11   -1    0    0    0    0 -0.00000000000E+00 -0.00000000000E+00 -0.45593999997E+02  0.45594000000E+02  0.51100000000E-03 0. -1.
         23    2    1    2    0    0  0.17763568394E-14  0.71054273576E-14  0.00000000000E+00  0.91188000000E+02  0.91188000000E+02 0.  0.
    9900012    2    3    3    0    0 -0.10708432949E+02 -0.35099090653E+02  0.30271841074E+01  0.54367074639E+02  0.39999978253E+02 0.  0.
         12    1    3    3    0    0  0.10708432949E+02  0.35099090653E+02 -0.30271841074E+01  0.36820925361E+02  0.00000000000E+00 0. -1.
         11    1    4    4    0    0  0.38539465654E+01  0.37578159072E+01  0.29882882814E+01  0.61566185228E+01  0.51100000000E-03 0. -1.
        -11    1    4    4    0    0 -0.17442522569E+02 -0.11954222763E+02 -0.42471329707E+00  0.21150068962E+02  0.51100000000E-03 0.  1.
         12    1    4    4    0    0  0.28801430552E+01 -0.26902683797E+02  0.46360912308E+00  0.27060387154E+02  0.00000000000E+00 0. -1.
</event>
<event>
 8    1  0.1269154E-006  0.9118800E+02  0.7816164E-02  0.1184000E+00
        -11   -1    0    0    0    0  0.00000000000E+00  0.00000000000E+00  0.45593999997E+02  0.45594000000E+02  0.51100000000E-03 0.  1.
         11   -1    0    0    0    0 -0.00000000000E+00 -0.00000000000E+00 -0.45593999997E+02  0.45594000000E+02  0.51100000000E-03 0. -1.
         23    2    1    2    0    0 -0.27755575616E-16  0.00000000000E+00  0.00000000000E+00  0.91188000000E+02  0.91188000000E+02 0.  0.
    9900012    2    3    3    0    0  0.24045820745E+00  0.11464970487E+02  0.34989657758E+02  0.54367088571E+02  0.40000010015E+02 0.  0.
         12    1    3    3    0    0 -0.24045820745E+00 -0.11464970487E+02 -0.34989657758E+02  0.36820911429E+02  0.00000000000E+00 0. -1.
         11    1    4    4    0    0  0.13200430753E+02  0.16283448273E+02  0.18817899124E+02  0.28169405166E+02  0.51100000000E-03 0. -1.
        -11    1    4    4    0    0 -0.15221673324E+02 -0.74394365912E+01  0.14719763986E+02  0.22443618417E+02  0.51100000000E-03 0.  1.
         12    1    4    4    0    0  0.22617007785E+01  0.26209588053E+01  0.14519946482E+01  0.37540649873E+01  0.00000000000E+00 0. -1.
</event>
<event>
 8    1  0.1269154E-006  0.9118800E+02  0.7816164E-02  0.1184000E+00
        -11   -1    0    0    0    0  0.00000000000E+00  0.00000000000E+00  0.45593999997E+02  0.45594000000E+02  0.51100000000E-03 0. -1.
         11   -1    0    0    0    0 -0.00000000000E+00 -0.00000000000E+00 -0.45593999997E+02  0.45594000000E+02  0.51100000000E-03 0.  1.
         23    2    1    2    0    0  0.88817841970E-15  0.71054273576E-14  0.13322676296E-14  0.91188000000E+02  0.91188000000E+02 0.  0.
    9900012    2    3    3    0    0 -0.47227654393E+01  0.36333517589E+02  0.36539408126E+01  0.54367077995E+02  0.39999985906E+02 0.  0.
        -12    1    3    3    0    0  0.47227654393E+01 -0.36333517589E+02 -0.36539408126E+01  0.36820922005E+02  0.00000000000E+00 0.  1.
         11    1    4    4    0    0 -0.75733096879E+01  0.10482743071E+02 -0.12600383562E-01  0.12932249648E+02  0.51100000000E-03 0. -1.
        -11    1    4    4    0    0  0.44347454058E+01 -0.15813210584E+01 -0.97718209384E+01  0.10846936333E+02  0.51100000000E-03 0.  1.
         12    1    4    4    0    0 -0.15842011572E+01  0.27432095577E+02  0.13438362135E+02  0.30587892015E+02  0.00000000000E+00 0. -1.
</event>
<event>
 8    1  0.1269154E-006  0.9118800E+02  0.7816164E-02  0.1184000E+00
        -11   -1    0    0    0    0  0.00000000000E+00  0.00000000000E+00  0.45593999997E+02  0.45594000000E+02  0.51100000000E-03 0.  1.
         11   -1    0    0    0    0 -0.00000000000E+00 -0.00000000000E+00 -0.45593999997E+02  0.45594000000E+02  0.51100000000E-03 0. -1.
         23    2    1    2    0    0  0.17763568394E-14  0.00000000000E+00  0.44408920985E-15  0.91188000000E+02  0.91188000000E+02 0.  0.
    9900012    2    3    3    0    0 -0.12636300631E+02 -0.34571283727E+02  0.96543489975E+00  0.54367057362E+02  0.39999938868E+02 0.  0.
         12    1    3    3    0    0  0.12636300631E+02  0.34571283727E+02 -0.96543489975E+00  0.36820942638E+02  0.00000000000E+00 0. -1.
         11    1    4    4    0    0  0.38120772986E+01 -0.62289068146E+01  0.15059319241E+00  0.73043748539E+01  0.51100000000E-03 0. -1.
        -11    1    4    4    0    0 -0.25172208076E+02 -0.19722049429E+02 -0.67090981780E+01  0.32674321596E+02  0.51100000000E-03 0.  1.
        -12    1    4    4    0    0  0.87238301466E+01 -0.86203274837E+01  0.75239398853E+01  0.14388360913E+02  0.00000000000E+00 0.  1.
</event>
<event>
 8    1  0.1269154E-006  0.9118800E+02  0.7816164E-02  0.1184000E+00
        -11   -1    0    0    0    0  0.00000000000E+00  0.00000000000E+00  0.45593999997E+02  0.45594000000E+02  0.51100000000E-03 0. -1.
         11   -1    0    0    0    0 -0.00000000000E+00 -0.00000000000E+00 -0.45593999997E+02  0.45594000000E+02  0.51100000000E-03 0.  1.
         23    2    1    2    0    0  0.88817841970E-15  0.00000000000E+00  0.00000000000E+00  0.91188000000E+02  0.91188000000E+02 0.  0.
    9900012    2    3    3    0    0  0.41937058438E+01 -0.94197250959E+01 -0.35347716616E+02  0.54367089371E+02  0.40000011838E+02 0.  0.
         12    1    3    3    0    0 -0.41937058438E+01  0.94197250959E+01  0.35347716616E+02  0.36820910629E+02  0.00000000000E+00 0. -1.
         11    1    4    4    0    0 -0.84132737432E+01  0.87074166115E+01 -0.37281413089E+01  0.12668911437E+02  0.51100000000E-03 0. -1.
        -11    1    4    4    0    0 -0.33833297186E+01 -0.57244880494E+00 -0.36980678973E+01  0.50448314197E+01  0.51100000000E-03 0.  1.
        -12    1    4    4    0    0  0.15990309306E+02 -0.17554692902E+02 -0.27921507410E+02  0.36653346514E+02  0.00000000000E+00 0.  1.
</event>
<event>
 8    1  0.1269154E-006  0.9118800E+02  0.7816164E-02  0.1184000E+00
        -11   -1    0    0    0    0  0.00000000000E+00  0.00000000000E+00  0.45593999997E+02  0.45594000000E+02  0.51100000000E-03 0.  1.
         11   -1    0    0    0    0 -0.00000000000E+00 -0.00000000000E+00 -0.45593999997E+02  0.45594000000E+02  0.51100000000E-03 0. -1.
         23    2    1    2    0    0  0.00000000000E+00 -0.35527136788E-14  0.17763568394E-14  0.91188000000E+02  0.91188000000E+02 0.  0.
    9900012    2    3    3    0    0 -0.13692567523E+02 -0.31676552830E+02  0.12840872798E+02  0.54367103504E+02  0.40000044058E+02 0.  0.
         12    1    3    3    0    0  0.13692567523E+02  0.31676552830E+02 -0.12840872798E+02  0.36820896496E+02  0.00000000000E+00 0. -1.
         11    1    4    4    0    0 -0.69692691643E+01  0.62912087866E+01 -0.48662398552E+01  0.10574985166E+02  0.51100000000E-03 0. -1.
        -11    1    4    4    0    0  0.19954980118E+01 -0.19492385209E+02  0.95017893230E+01  0.21776572137E+02  0.51100000000E-03 0.  1.
         12    1    4    4    0    0 -0.87187963710E+01 -0.18475376407E+02  0.82053233303E+01  0.22015546200E+02  0.00000000000E+00 0. -1.
</event>
<event>
 8    1  0.1269154E-006  0.9118800E+02  0.7816164E-02  0.1184000E+00
        -11   -1    0    0    0    0  0.00000000000E+00  0.00000000000E+00  0.45593999997E+02  0.45594000000E+02  0.51100000000E-03 0. -1.
         11   -1    0    0    0    0 -0.00000000000E+00 -0.00000000000E+00 -0.45593999997E+02  0.45594000000E+02  0.51100000000E-03 0.  1.
         23    2    1    2    0    0  0.00000000000E+00 -0.88817841970E-15 -0.17763568394E-14  0.91188000000E+02  0.91188000000E+02 0.  0.
    9900012    2    3    3    0    0 -0.34200429685E+02  0.66865881143E+01 -0.11891172882E+02  0.54367084154E+02  0.39999999945E+02 0.  0.
         12    1    3    3    0    0  0.34200429685E+02 -0.66865881143E+01  0.11891172882E+02  0.36820915846E+02  0.00000000000E+00 0. -1.
         11    1    4    4    0    0 -0.36860621631E+01  0.14223281470E+01 -0.12116822285E+01  0.41325834186E+01  0.51100000000E-03 0. -1.
        -11    1    4    4    0    0 -0.25752956417E+02  0.10170036919E+02 -0.23098533364E+02  0.36058101156E+02  0.51100000000E-03 0.  1.
         12    1    4    4    0    0 -0.47614111048E+01 -0.49057769520E+01  0.12419042710E+02  0.14176399579E+02  0.00000000000E+00 0. -1.
</event>
<event>
 8    1  0.1269154E-006  0.9118800E+02  0.7816164E-02  0.1184000E+00
        -11   -1    0    0    0    0  0.00000000000E+00  0.00000000000E+00  0.45593999997E+02  0.45594000000E+02  0.51100000000E-03 0.  1.
         11   -1    0    0    0    0 -0.00000000000E+00 -0.00000000000E+00 -0.45593999997E+02  0.45594000000E+02  0.51100000000E-03 0. -1.
         23    2    1    2    0    0  0.00000000000E+00  0.00000000000E+00 -0.71054273576E-14  0.91188000000E+02  0.91188000000E+02 0.  0.
    9900012    2    3    3    0    0 -0.86532845747E+01  0.11821150828E+02 -0.33781064560E+02  0.54367092032E+02  0.40000017904E+02 0.  0.
        -12    1    3    3    0    0  0.86532845747E+01 -0.11821150828E+02  0.33781064560E+02  0.36820907968E+02  0.00000000000E+00 0.  1.
         11    1    4    4    0    0 -0.12799951668E+02 -0.19487438701E+01 -0.34820666895E+02  0.37149901866E+02  0.51100000000E-03 0. -1.
        -11    1    4    4    0    0 -0.29916385356E+01  0.45628565350E+01 -0.43826156293E+00  0.54737221655E+01  0.51100000000E-03 0.  1.
        -12    1    4    4    0    0  0.71383056287E+01  0.92070381627E+01  0.14778638977E+01  0.11743468000E+02  0.00000000000E+00 0.  1.
</event>
<event>
 8    1  0.1269154E-006  0.9118800E+02  0.7816164E-02  0.1184000E+00
        -11   -1    0    0    0    0  0.00000000000E+00  0.00000000000E+00  0.45593999997E+02  0.45594000000E+02  0.51100000000E-03 0.  1.
         11   -1    0    0    0    0 -0.00000000000E+00 -0.00000000000E+00 -0.45593999997E+02  0.45594000000E+02  0.51100000000E-03 0. -1.
         23    2    1    2    0    0  0.17763568394E-14  0.35527136788E-14  0.00000000000E+00  0.91188000000E+02  0.91188000000E+02 0.  0.
    9900012    2    3    3    0    0 -0.47676976052E+01 -0.19530886738E+02  0.30847897181E+02  0.54367092383E+02  0.40000018706E+02 0.  0.
         12    1    3    3    0    0  0.47676976052E+01  0.19530886738E+02 -0.30847897181E+02  0.36820907617E+02  0.00000000000E+00 0. -1.
         11    1    4    4    0    0  0.60225840418E+01  0.83883121280E+01  0.73409197313E+01  0.12669822479E+02  0.51100000000E-03 0. -1.
        -11    1    4    4    0    0 -0.25487325464E+01 -0.11078719445E+02 -0.32677773743E+00  0.11372811706E+02  0.51100000000E-03 0.  1.
        -12    1    4    4    0    0 -0.82415491007E+01 -0.16840479421E+02  0.23833755187E+02  0.30324458198E+02  0.00000000000E+00 0.  1.
</event>
<event>
 8    1  0.1269154E-006  0.9118800E+02  0.7816164E-02  0.1184000E+00
        -11   -1    0    0    0    0  0.00000000000E+00  0.00000000000E+00  0.45593999997E+02  0.45594000000E+02  0.51100000000E-03 0. -1.
         11   -1    0    0    0    0 -0.00000000000E+00 -0.00000000000E+00 -0.45593999997E+02  0.45594000000E+02  0.51100000000E-03 0.  1.
         23    2    1    2    0    0  0.00000000000E+00 -0.35527136788E-14  0.00000000000E+00  0.91188000000E+02  0.91188000000E+02 0.  0.
    9900012    2    3    3    0    0  0.14577648448E+02 -0.18378275712E+02 -0.28381530530E+02  0.54367080299E+02  0.39999991158E+02 0.  0.
         12    1    3    3    0    0 -0.14577648448E+02  0.18378275712E+02  0.28381530530E+02  0.36820919701E+02  0.00000000000E+00 0. -1.
         11    1    4    4    0    0  0.28362896895E+01  0.32046107214E-01  0.53254481832E+01  0.60337355568E+01  0.51100000000E-03 0. -1.
        -11    1    4    4    0    0  0.15865225948E+02 -0.17927871901E+02 -0.36266803172E+02  0.43455667039E+02  0.51100000000E-03 0.  1.
        -12    1    4    4    0    0 -0.41238671895E+01 -0.48244991796E+00  0.25598244584E+01  0.48776777034E+01  0.00000000000E+00 0.  1.
</event>
<event>
 8    1  0.1269154E-006  0.9118800E+02  0.7816164E-02  0.1184000E+00
        -11   -1    0    0    0    0  0.00000000000E+00  0.00000000000E+00  0.45593999997E+02  0.45594000000E+02  0.51100000000E-03 0. -1.
         11   -1    0    0    0    0 -0.00000000000E+00 -0.00000000000E+00 -0.45593999997E+02  0.45594000000E+02  0.51100000000E-03 0.  1.
         23    2    1    2    0    0 -0.71054273576E-14  0.44408920985E-15 -0.35527136788E-14  0.91188000000E+02  0.91188000000E+02 0.  0.
    9900012    2    3    3    0    0 -0.32868234598E+02  0.27217255372E+01  0.16372551377E+02  0.54366958813E+02  0.39999714205E+02 0.  0.
         12    1    3    3    0    0  0.32868234598E+02 -0.27217255372E+01 -0.16372551377E+02  0.36821041187E+02  0.00000000000E+00 0. -1.
         11    1    4    4    0    0  0.64786791749E+00 -0.34422093756E+01  0.66124109954E+00  0.35645165559E+01  0.51100000000E-03 0. -1.
        -11    1    4    4    0    0 -0.21133289800E+02  0.61882619753E+01 -0.85032283400E+01  0.23605410746E+02  0.51100000000E-03 0.  1.
         12    1    4    4    0    0 -0.12382812716E+02 -0.24327062479E-01  0.24214538617E+02  0.27197031511E+02  0.00000000000E+00 0. -1.
</event>
<event>
 8    1  0.1269154E-006  0.9118800E+02  0.7816164E-02  0.1184000E+00
        -11   -1    0    0    0    0  0.00000000000E+00  0.00000000000E+00  0.45593999997E+02  0.45594000000E+02  0.51100000000E-03 0.  1.
         11   -1    0    0    0    0 -0.00000000000E+00 -0.00000000000E+00 -0.45593999997E+02  0.45594000000E+02  0.51100000000E-03 0. -1.
         23    2    1    2    0    0 -0.35527136788E-14  0.00000000000E+00  0.00000000000E+00  0.91188000000E+02  0.91188000000E+02 0.  0.
    9900012    2    3    3    0    0 -0.26383907875E+02 -0.11649747041E+02  0.22889975382E+02  0.54367106829E+02  0.40000051639E+02 0.  0.
         12    1    3    3    0    0  0.26383907875E+02  0.11649747041E+02 -0.22889975382E+02  0.36820893171E+02  0.00000000000E+00 0. -1.
         11    1    4    4    0    0 -0.33860918154E+00 -0.12781194943E+02  0.15048898368E+02  0.19746973001E+02  0.51100000000E-03 0. -1.
        -11    1    4    4    0    0 -0.42387402345E+01  0.80496116559E+00  0.11701978074E+02  0.12472015569E+02  0.51100000000E-03 0.  1.
         12    1    4    4    0    0 -0.21806558459E+02  0.32648673635E+00 -0.38609010599E+01  0.22148118259E+02  0.00000000000E+00 0. -1.
</event>
<event>
 8    1  0.1269154E-006  0.9118800E+02  0.7816164E-02  0.1184000E+00
        -11   -1    0    0    0    0  0.00000000000E+00  0.00000000000E+00  0.45593999997E+02  0.45594000000E+02  0.51100000000E-03 0.  1.
         11   -1    0    0    0    0 -0.00000000000E+00 -0.00000000000E+00 -0.45593999997E+02  0.45594000000E+02  0.51100000000E-03 0. -1.
         23    2    1    2    0    0  0.13322676296E-14  0.35527136788E-14 -0.35527136788E-14  0.91188000000E+02  0.91188000000E+02 0.  0.
    9900012    2    3    3    0    0  0.20790950387E+01  0.29439417335E+02 -0.22017727181E+02  0.54367051622E+02  0.39999925783E+02 0.  0.
        -12    1    3    3    0    0 -0.20790950387E+01 -0.29439417335E+02  0.22017727181E+02  0.36820948378E+02  0.00000000000E+00 0.  1.
         11    1    4    4    0    0 -0.28274353279E+01  0.27358658229E+02 -0.17632786521E+02  0.32671175849E+02  0.51100000000E-03 0. -1.
        -11    1    4    4    0    0 -0.32714046726E+01 -0.77684636783E+01 -0.13150318681E+01  0.85311444442E+01  0.51100000000E-03 0.  1.
         12    1    4    4    0    0  0.81779350392E+01  0.98492227848E+01 -0.30699087914E+01  0.13164731329E+02  0.00000000000E+00 0. -1.
</event>
<event>
 8    1  0.1269154E-006  0.9118800E+02  0.7816164E-02  0.1184000E+00
        -11   -1    0    0    0    0  0.00000000000E+00  0.00000000000E+00  0.45593999997E+02  0.45594000000E+02  0.51100000000E-03 0. -1.
         11   -1    0    0    0    0 -0.00000000000E+00 -0.00000000000E+00 -0.45593999997E+02  0.45594000000E+02  0.51100000000E-03 0.  1.
         23    2    1    2    0    0  0.35527136788E-14  0.00000000000E+00  0.17763568394E-14  0.91188000000E+02  0.91188000000E+02 0.  0.
    9900012    2    3    3    0    0  0.31383851048E+02 -0.11922331639E+02 -0.15122550525E+02  0.54367087020E+02  0.40000006478E+02 0.  0.
         12    1    3    3    0    0 -0.31383851048E+02  0.11922331639E+02  0.15122550525E+02  0.36820912980E+02  0.00000000000E+00 0. -1.
         11    1    4    4    0    0  0.20911280049E+02 -0.14804772982E+02 -0.23965452010E+02  0.35082842340E+02  0.51100000000E-03 0. -1.
        -11    1    4    4    0    0  0.97621268079E+01 -0.36847892338E+01  0.44036399693E+01  0.11325583285E+02  0.51100000000E-03 0.  1.
         12    1    4    4    0    0  0.71044419123E+00  0.65672305763E+01  0.44392615155E+01  0.79586613946E+01  0.00000000000E+00 0. -1.
</event>
<event>
 8    1  0.1269154E-006  0.9118800E+02  0.7816164E-02  0.1184000E+00
        -11   -1    0    0    0    0  0.00000000000E+00  0.00000000000E+00  0.45593999997E+02  0.45594000000E+02  0.51100000000E-03 0.  1.
         11   -1    0    0    0    0 -0.00000000000E+00 -0.00000000000E+00 -0.45593999997E+02  0.45594000000E+02  0.51100000000E-03 0. -1.
         23    2    1    2    0    0  0.17763568394E-14  0.00000000000E+00  0.44408920985E-15  0.91188000000E+02  0.91188000000E+02 0.  0.
    9900012    2    3    3    0    0  0.23934159132E+01  0.36651291552E+02 -0.25954357941E+01  0.54367056244E+02  0.39999936319E+02 0.  0.
        -12    1    3    3    0    0 -0.23934159132E+01 -0.36651291552E+02  0.25954357941E+01  0.36820943756E+02  0.00000000000E+00 0.  1.
         11    1    4    4    0    0  0.11207036838E+02  0.18819496030E+02 -0.18247130417E+02  0.28508400065E+02  0.51100000000E-03 0. -1.
        -11    1    4    4    0    0 -0.86940597599E+01  0.12780858165E+02  0.12712120409E+02  0.20013370933E+02  0.51100000000E-03 0.  1.
         12    1    4    4    0    0 -0.11956116461E+00  0.50509373566E+01  0.29395742140E+01  0.58452852464E+01  0.00000000000E+00 0. -1.
</event>
<event>
 8    1  0.1269154E-006  0.9118800E+02  0.7816164E-02  0.1184000E+00
        -11   -1    0    0    0    0  0.00000000000E+00  0.00000000000E+00  0.45593999997E+02  0.45594000000E+02  0.51100000000E-03 0.  1.
         11   -1    0    0    0    0 -0.00000000000E+00 -0.00000000000E+00 -0.45593999997E+02  0.45594000000E+02  0.51100000000E-03 0. -1.
         23    2    1    2    0    0  0.00000000000E+00 -0.17763568394E-14  0.88817841970E-15  0.91188000000E+02  0.91188000000E+02 0.  0.
    9900012    2    3    3    0    0  0.35276927476E+02 -0.92451576727E+01  0.50837965421E+01  0.54367088281E+02  0.40000009354E+02 0.  0.
         12    1    3    3    0    0 -0.35276927476E+02  0.92451576727E+01 -0.50837965421E+01  0.36820911719E+02  0.00000000000E+00 0. -1.
         11    1    4    4    0    0  0.50878556996E+01 -0.70314101082E+00  0.13263810697E+02  0.14223549395E+02  0.51100000000E-03 0. -1.
        -11    1    4    4    0    0  0.14683029915E+02 -0.16294566888E+02 -0.37749484772E+01  0.22256561141E+02  0.51100000000E-03 0.  1.
        -12    1    4    4    0    0  0.15506041862E+02  0.77525502266E+01 -0.44050656782E+01  0.17886977745E+02  0.00000000000E+00 0.  1.
</event>
<event>
 8    1  0.1269154E-006  0.9118800E+02  0.7816164E-02  0.1184000E+00
        -11   -1    0    0    0    0  0.00000000000E+00  0.00000000000E+00  0.45593999997E+02  0.45594000000E+02  0.51100000000E-03 0. -1.
         11   -1    0    0    0    0 -0.00000000000E+00 -0.00000000000E+00 -0.45593999997E+02  0.45594000000E+02  0.51100000000E-03 0.  1.
         23    2    1    2    0    0  0.35527136788E-14  0.00000000000E+00  0.00000000000E+00  0.91188000000E+02  0.91188000000E+02 0.  0.
    9900012    2    3    3    0    0  0.18519721666E+02 -0.24519859996E+02  0.20287338444E+02  0.54367085753E+02  0.40000003592E+02 0.  0.
        -12    1    3    3    0    0 -0.18519721666E+02  0.24519859996E+02 -0.20287338444E+02  0.36820914247E+02  0.00000000000E+00 0.  1.
         11    1    4    4    0    0  0.61771192839E+01 -0.16362140057E+02  0.20271505501E+01  0.17606412738E+02  0.51100000000E-03 0. -1.
        -11    1    4    4    0    0  0.12629426184E+01 -0.88440776131E+01 -0.55308095708E+01  0.10507263566E+02  0.51100000000E-03 0.  1.
         12    1    4    4    0    0  0.11079659763E+02  0.68635767336E+00  0.23790997465E+02  0.26253409449E+02  0.00000000000E+00 0. -1.
</event>
<event>
 8    1  0.1269154E-006  0.9118800E+02  0.7816164E-02  0.1184000E+00
        -11   -1    0    0    0    0  0.00000000000E+00  0.00000000000E+00  0.45593999997E+02  0.45594000000E+02  0.51100000000E-03 0. -1.
         11   -1    0    0    0    0 -0.00000000000E+00 -0.00000000000E+00 -0.45593999997E+02  0.45594000000E+02  0.51100000000E-03 0.  1.
         23    2    1    2    0    0  0.00000000000E+00  0.00000000000E+00  0.00000000000E+00  0.91188000000E+02  0.91188000000E+02 0.  0.
    9900012    2    3    3    0    0 -0.95055949410E+01 -0.23583914068E+02 -0.26631276316E+02  0.54367051938E+02  0.39999926503E+02 0.  0.
         12    1    3    3    0    0  0.95055949410E+01  0.23583914068E+02  0.26631276316E+02  0.36820948062E+02  0.00000000000E+00 0. -1.
         11    1    4    4    0    0 -0.15617528001E+02 -0.59254913635E+01 -0.12924327988E+02  0.21120058782E+02  0.51100000000E-03 0. -1.
        -11    1    4    4    0    0 -0.46866636421E+01 -0.16630909536E+02 -0.14234365467E+02  0.22386807021E+02  0.51100000000E-03 0.  1.
         12    1    4    4    0    0  0.10798596702E+02 -0.10275131682E+01  0.52741713814E+00  0.10860186135E+02  0.00000000000E+00 0. -1.
</event>
<event>
 8    1  0.1269154E-006  0.9118800E+02  0.7816164E-02  0.1184000E+00
        -11   -1    0    0    0    0  0.00000000000E+00  0.00000000000E+00  0.45593999997E+02  0.45594000000E+02  0.51100000000E-03 0.  1.
         11   -1    0    0    0    0 -0.00000000000E+00 -0.00000000000E+00 -0.45593999997E+02  0.45594000000E+02  0.51100000000E-03 0. -1.
         23    2    1    2    0    0  0.00000000000E+00  0.88817841970E-15  0.00000000000E+00  0.91188000000E+02  0.91188000000E+02 0.  0.
    9900012    2    3    3    0    0  0.35074151161E+02  0.69988482922E+01 -0.87522550441E+01  0.54367055886E+02  0.39999935504E+02 0.  0.
        -12    1    3    3    0    0 -0.35074151161E+02 -0.69988482922E+01  0.87522550441E+01  0.36820944114E+02  0.00000000000E+00 0.  1.
         11    1    4    4    0    0  0.15160892683E+02  0.82277496214E+01 -0.14305561098E+02  0.22409765938E+02  0.51100000000E-03 0. -1.
        -11    1    4    4    0    0 -0.36449715673E+01 -0.32510220150E+01  0.66922769999E+01  0.82850186224E+01  0.51100000000E-03 0.  1.
         12    1    4    4    0    0  0.23558230045E+02  0.20221206857E+01 -0.11389709457E+01  0.23672271326E+02  0.00000000000E+00 0. -1.
</event>
<event>
 8    1  0.1269154E-006  0.9118800E+02  0.7816164E-02  0.1184000E+00
        -11   -1    0    0    0    0  0.00000000000E+00  0.00000000000E+00  0.45593999997E+02  0.45594000000E+02  0.51100000000E-03 0.  1.
         11   -1    0    0    0    0 -0.00000000000E+00 -0.00000000000E+00 -0.45593999997E+02  0.45594000000E+02  0.51100000000E-03 0. -1.
         23    2    1    2    0    0  0.00000000000E+00 -0.22204460493E-15  0.35527136788E-14  0.91188000000E+02  0.91188000000E+02 0.  0.
    9900012    2    3    3    0    0 -0.28237294216E+02  0.11336638179E+01  0.23604237228E+02  0.54366946330E+02  0.39999685746E+02 0.  0.
         12    1    3    3    0    0  0.28237294216E+02 -0.11336638179E+01 -0.23604237228E+02  0.36821053670E+02  0.00000000000E+00 0. -1.
         11    1    4    4    0    0 -0.74424310032E+01 -0.93289343923E+01 -0.79560792393E+01  0.14342872559E+02  0.51100000000E-03 0. -1.
        -11    1    4    4    0    0 -0.26031179521E+01  0.23714164073E+01  0.10352204640E+02  0.10934714447E+02  0.51100000000E-03 0.  1.
         12    1    4    4    0    0 -0.18191745261E+02  0.80911818028E+01  0.21208111827E+02  0.29089359324E+02  0.00000000000E+00 0. -1.
</event>
<event>
 8    1  0.1269154E-006  0.9118800E+02  0.7816164E-02  0.1184000E+00
        -11   -1    0    0    0    0  0.00000000000E+00  0.00000000000E+00  0.45593999997E+02  0.45594000000E+02  0.51100000000E-03 0.  1.
         11   -1    0    0    0    0 -0.00000000000E+00 -0.00000000000E+00 -0.45593999997E+02  0.45594000000E+02  0.51100000000E-03 0. -1.
         23    2    1    2    0    0  0.00000000000E+00  0.35527136788E-14 -0.35527136788E-14  0.91188000000E+02  0.91188000000E+02 0.  0.
    9900012    2    3    3    0    0 -0.10307795675E+02 -0.31511153420E+02 -0.16017962701E+02  0.54367101442E+02  0.40000039357E+02 0.  0.
        -12    1    3    3    0    0  0.10307795675E+02  0.31511153420E+02  0.16017962701E+02  0.36820898558E+02  0.00000000000E+00 0.  1.
         11    1    4    4    0    0 -0.84345060245E+00  0.12104807875E+01 -0.55730256178E+01  0.57650054166E+01  0.51100000000E-03 0. -1.
        -11    1    4    4    0    0  0.83770933863E+01 -0.19469577085E+02  0.46970019638E+01  0.21709489934E+02  0.51100000000E-03 0.  1.
        -12    1    4    4    0    0 -0.17841438459E+02 -0.13252057122E+02 -0.15141939047E+02  0.26892606091E+02  0.00000000000E+00 0.  1.
</event>
<event>
 8    1  0.1269154E-006  0.9118800E+02  0.7816164E-02  0.1184000E+00
        -11   -1    0    0    0    0  0.00000000000E+00  0.00000000000E+00  0.45593999997E+02  0.45594000000E+02  0.51100000000E-03 0.  1.
         11   -1    0    0    0    0 -0.00000000000E+00 -0.00000000000E+00 -0.45593999997E+02  0.45594000000E+02  0.51100000000E-03 0. -1.
         23    2    1    2    0    0  0.00000000000E+00  0.00000000000E+00  0.35527136788E-14  0.91188000000E+02  0.91188000000E+02 0.  0.
    9900012    2    3    3    0    0 -0.15807901327E+02 -0.11195152446E+02  0.31313879958E+02  0.54367078492E+02  0.39999987039E+02 0.  0.
         12    1    3    3    0    0  0.15807901327E+02  0.11195152446E+02 -0.31313879958E+02  0.36820921508E+02  0.00000000000E+00 0. -1.
         11    1    4    4    0    0 -0.10302001822E+02 -0.93674303643E+01  0.26756747776E+02  0.30162949872E+02  0.51100000000E-03 0. -1.
        -11    1    4    4    0    0  0.20270321057E+01  0.89531375740E+01  0.60101709578E+01  0.10972223420E+02  0.51100000000E-03 0.  1.
         12    1    4    4    0    0 -0.75329316105E+01 -0.10780859655E+02 -0.14530387755E+01  0.13231905201E+02  0.00000000000E+00 0. -1.
</event>
<event>
 8    1  0.1269154E-006  0.9118800E+02  0.7816164E-02  0.1184000E+00
        -11   -1    0    0    0    0  0.00000000000E+00  0.00000000000E+00  0.45593999997E+02  0.45594000000E+02  0.51100000000E-03 0.  1.
         11   -1    0    0    0    0 -0.00000000000E+00 -0.00000000000E+00 -0.45593999997E+02  0.45594000000E+02  0.51100000000E-03 0. -1.
         23    2    1    2    0    0  0.00000000000E+00  0.00000000000E+00  0.00000000000E+00  0.91188000000E+02  0.91188000000E+02 0.  0.
    9900012    2    3    3    0    0 -0.30253663531E+02  0.13374706830E+02 -0.16174439618E+02  0.54367089680E+02  0.40000012544E+02 0.  0.
        -12    1    3    3    0    0  0.30253663531E+02 -0.13374706830E+02  0.16174439618E+02  0.36820910320E+02  0.00000000000E+00 0.  1.
         11    1    4    4    0    0 -0.63805226031E+01  0.22340380773E+01  0.10445953468E+02  0.12442666070E+02  0.51100000000E-03 0.  1.
        -11    1    4    4    0    0 -0.82693843956E+01  0.98745051465E+01 -0.24250054045E+01  0.13106075753E+02  0.51100000000E-03 0. -1.
        -12    1    4    4    0    0 -0.15603756532E+02  0.12661636063E+01 -0.24195387681E+02  0.28818347857E+02  0.00000000000E+00 0.  1.
</event>
<event>
 8    1  0.1269154E-006  0.9118800E+02  0.7816164E-02  0.1184000E+00
        -11   -1    0    0    0    0  0.00000000000E+00  0.00000000000E+00  0.45593999997E+02  0.45594000000E+02  0.51100000000E-03 0. -1.
         11   -1    0    0    0    0 -0.00000000000E+00 -0.00000000000E+00 -0.45593999997E+02  0.45594000000E+02  0.51100000000E-03 0.  1.
         23    2    1    2    0    0 -0.35527136788E-14 -0.17763568394E-14  0.35527136788E-14  0.91188000000E+02  0.91188000000E+02 0.  0.
    9900012    2    3    3    0    0  0.29418633578E+02  0.12556071075E+02 -0.18239219525E+02  0.54367081335E+02  0.39999993520E+02 0.  0.
        -12    1    3    3    0    0 -0.29418633578E+02 -0.12556071075E+02  0.18239219525E+02  0.36820918665E+02  0.00000000000E+00 0.  1.
         11    1    4    4    0    0  0.15258706195E+02  0.16595870173E+01 -0.10403128890E+01  0.15383907013E+02  0.51100000000E-03 0. -1.
        -11    1    4    4    0    0  0.10431116765E+02  0.48015681162E+01  0.72039382229E+01  0.13555809807E+02  0.51100000000E-03 0.  1.
        -12    1    4    4    0    0  0.37288106173E+01  0.60949159412E+01 -0.24402844859E+02  0.25427364515E+02  0.00000000000E+00 0.  1.
</event>
<event>
 8    1  0.1269154E-006  0.9118800E+02  0.7816164E-02  0.1184000E+00
        -11   -1    0    0    0    0  0.00000000000E+00  0.00000000000E+00  0.45593999997E+02  0.45594000000E+02  0.51100000000E-03 0. -1.
         11   -1    0    0    0    0 -0.00000000000E+00 -0.00000000000E+00 -0.45593999997E+02  0.45594000000E+02  0.51100000000E-03 0.  1.
         23    2    1    2    0    0 -0.35527136788E-14  0.00000000000E+00  0.00000000000E+00  0.91188000000E+02  0.91188000000E+02 0.  0.
    9900012    2    3    3    0    0  0.31176190601E+02  0.99437260963E+01 -0.16880402914E+02  0.54367074542E+02  0.39999978034E+02 0.  0.
         12    1    3    3    0    0 -0.31176190601E+02 -0.99437260963E+01  0.16880402914E+02  0.36820925458E+02  0.00000000000E+00 0. -1.
         11    1    4    4    0    0 -0.56605235759E+00  0.14152166428E+02  0.22980319475E+01  0.14348699626E+02  0.51100000000E-03 0. -1.
        -11    1    4    4    0    0  0.34418991670E+01 -0.27156753073E+01 -0.88116538644E+01  0.98420935952E+01  0.51100000000E-03 0.  1.
         12    1    4    4    0    0  0.28300343791E+02 -0.14927650240E+01 -0.10366780997E+02  0.30176281321E+02  0.00000000000E+00 0. -1.
</event>
<event>
 8    1  0.1269154E-006  0.9118800E+02  0.7816164E-02  0.1184000E+00
        -11   -1    0    0    0    0  0.00000000000E+00  0.00000000000E+00  0.45593999997E+02  0.45594000000E+02  0.51100000000E-03 0. -1.
         11   -1    0    0    0    0 -0.00000000000E+00 -0.00000000000E+00 -0.45593999997E+02  0.45594000000E+02  0.51100000000E-03 0.  1.
         23    2    1    2    0    0  0.35527136788E-14 -0.27755575616E-15 -0.35527136788E-14  0.91188000000E+02  0.91188000000E+02 0.  0.
    9900012    2    3    3    0    0 -0.30677500959E+02  0.29864649672E+00  0.20361282455E+02  0.54367080973E+02  0.39999992693E+02 0.  0.
        -12    1    3    3    0    0  0.30677500959E+02 -0.29864649672E+00 -0.20361282455E+02  0.36820919027E+02  0.00000000000E+00 0.  1.
         11    1    4    4    0    0 -0.19712175485E+01  0.12039761499E+01  0.91115055093E+01  0.93997228736E+01  0.51100000000E-03 0. -1.
        -11    1    4    4    0    0 -0.18275751800E+02  0.13537250426E+02 -0.19030128028E+01  0.22822833105E+02  0.51100000000E-03 0.  1.
         12    1    4    4    0    0 -0.10430531610E+02 -0.14442580080E+02  0.13152789749E+02  0.22144524994E+02  0.00000000000E+00 0. -1.
</event>
<event>
 8    1  0.1269154E-006  0.9118800E+02  0.7816164E-02  0.1184000E+00
        -11   -1    0    0    0    0  0.00000000000E+00  0.00000000000E+00  0.45593999997E+02  0.45594000000E+02  0.51100000000E-03 0. -1.
         11   -1    0    0    0    0 -0.00000000000E+00 -0.00000000000E+00 -0.45593999997E+02  0.45594000000E+02  0.51100000000E-03 0.  1.
         23    2    1    2    0    0 -0.71054273576E-14  0.17763568394E-14  0.88817841970E-15  0.91188000000E+02  0.91188000000E+02 0.  0.
    9900012    2    3    3    0    0  0.33902684281E+02 -0.12199733661E+02 -0.75862590635E+01  0.54367125086E+02  0.40000093259E+02 0.  0.
         12    1    3    3    0    0 -0.33902684281E+02  0.12199733661E+02  0.75862590635E+01  0.36820874914E+02  0.00000000000E+00 0. -1.
         11    1    4    4    0    0 -0.23957828897E+01  0.93769004562E+00 -0.40923557754E+01  0.48338819110E+01  0.51100000000E-03 0. -1.
        -11    1    4    4    0    0  0.33927614904E+02 -0.21467105989E+02  0.12014700354E+00  0.40148899464E+02  0.51100000000E-03 0.  1.
        -12    1    4    4    0    0  0.23708522666E+01  0.83296822818E+01 -0.36140502916E+01  0.93843437115E+01  0.00000000000E+00 0.  1.
</event>
<event>
 8    1  0.1269154E-006  0.9118800E+02  0.7816164E-02  0.1184000E+00
        -11   -1    0    0    0    0  0.00000000000E+00  0.00000000000E+00  0.45593999997E+02  0.45594000000E+02  0.51100000000E-03 0. -1.
         11   -1    0    0    0    0 -0.00000000000E+00 -0.00000000000E+00 -0.45593999997E+02  0.45594000000E+02  0.51100000000E-03 0.  1.
         23    2    1    2    0    0 -0.88817841970E-15  0.00000000000E+00  0.00000000000E+00  0.91188000000E+02  0.91188000000E+02 0.  0.
    9900012    2    3    3    0    0 -0.45474113533E+01  0.21119259591E+02  0.29817408292E+02  0.54367083214E+02  0.39999997803E+02 0.  0.
        -12    1    3    3    0    0  0.45474113533E+01 -0.21119259591E+02 -0.29817408292E+02  0.36820916786E+02  0.00000000000E+00 0.  1.
         11    1    4    4    0    0  0.10344430986E+01  0.20899592766E+01  0.12246178080E+02  0.12466229587E+02  0.51100000000E-03 0. -1.
        -11    1    4    4    0    0 -0.20909299046E+01 -0.90412817781E+01  0.16006125293E+01  0.94169381854E+01  0.51100000000E-03 0.  1.
         12    1    4    4    0    0 -0.34909245473E+01  0.28070582093E+02  0.15970617683E+02  0.32483915441E+02  0.00000000000E+00 0. -1.
</event>
<event>
 8    1  0.1269154E-006  0.9118800E+02  0.7816164E-02  0.1184000E+00
        -11   -1    0    0    0    0  0.00000000000E+00  0.00000000000E+00  0.45593999997E+02  0.45594000000E+02  0.51100000000E-03 0.  1.
         11   -1    0    0    0    0 -0.00000000000E+00 -0.00000000000E+00 -0.45593999997E+02  0.45594000000E+02  0.51100000000E-03 0. -1.
         23    2    1    2    0    0  0.15543122345E-14  0.71054273576E-14 -0.17763568394E-14  0.91188000000E+02  0.91188000000E+02 0.  0.
    9900012    2    3    3    0    0  0.15029682867E+01 -0.33940770632E+02  0.14196665067E+02  0.54367080352E+02  0.39999991278E+02 0.  0.
         12    1    3    3    0    0 -0.15029682867E+01  0.33940770632E+02 -0.14196665067E+02  0.36820919648E+02  0.00000000000E+00 0. -1.
         11    1    4    4    0    0  0.84350963792E+01 -0.18461483630E+02  0.13602052638E+01  0.20342747783E+02  0.51100000000E-03 0. -1.
        -11    1    4    4    0    0  0.48625472234E+01 -0.39993116655E+01 -0.62156540881E+01  0.88472151156E+01  0.51100000000E-03 0.  1.
        -12    1    4    4    0    0 -0.11794675316E+02 -0.11479975336E+02  0.19052113891E+02  0.25177117453E+02  0.00000000000E+00 0.  1.
</event>
<event>
 8    1  0.1269154E-006  0.9118800E+02  0.7816164E-02  0.1184000E+00
        -11   -1    0    0    0    0  0.00000000000E+00  0.00000000000E+00  0.45593999997E+02  0.45594000000E+02  0.51100000000E-03 0. -1.
         11   -1    0    0    0    0 -0.00000000000E+00 -0.00000000000E+00 -0.45593999997E+02  0.45594000000E+02  0.51100000000E-03 0.  1.
         23    2    1    2    0    0  0.35527136788E-14  0.35527136788E-14  0.00000000000E+00  0.91188000000E+02  0.91188000000E+02 0.  0.
    9900012    2    3    3    0    0 -0.24045276784E+02  0.23020290333E+02 -0.15737641279E+02  0.54367048686E+02  0.39999919088E+02 0.  0.
         12    1    3    3    0    0  0.24045276784E+02 -0.23020290333E+02  0.15737641279E+02  0.36820951314E+02  0.00000000000E+00 0. -1.
         11    1    4    4    0    0 -0.84027645238E+00 -0.45985452546E+01  0.60107789849E+01  0.76146009246E+01  0.51100000000E-03 0. -1.
        -11    1    4    4    0    0 -0.31094565904E+01 -0.20300424619E+01  0.15502517582E+01  0.40240618111E+01  0.51100000000E-03 0.  1.
        -12    1    4    4    0    0 -0.20095543742E+02  0.29648878050E+02 -0.23298672022E+02  0.42728385950E+02  0.00000000000E+00 0.  1.
</event>
<event>
 8    1  0.1269154E-006  0.9118800E+02  0.7816164E-02  0.1184000E+00
        -11   -1    0    0    0    0  0.00000000000E+00  0.00000000000E+00  0.45593999997E+02  0.45594000000E+02  0.51100000000E-03 0.  1.
         11   -1    0    0    0    0 -0.00000000000E+00 -0.00000000000E+00 -0.45593999997E+02  0.45594000000E+02  0.51100000000E-03 0. -1.
         23    2    1    2    0    0  0.00000000000E+00  0.00000000000E+00  0.35527136788E-14  0.91188000000E+02  0.91188000000E+02 0.  0.
    9900012    2    3    3    0    0  0.34458555872E+02  0.11102632485E+02  0.67170539771E+01  0.54367091062E+02  0.40000015694E+02 0.  0.
        -12    1    3    3    0    0 -0.34458555872E+02 -0.11102632485E+02 -0.67170539771E+01  0.36820908938E+02  0.00000000000E+00 0.  1.
         11    1    4    4    0    0  0.58321964879E+01 -0.27968698874E+01 -0.68476886544E+01  0.94195454885E+01  0.51100000000E-03 0. -1.
        -11    1    4    4    0    0  0.10460323517E+02 -0.82890590552E+01  0.29491765423E+00  0.13349675831E+02  0.51100000000E-03 0.  1.
         12    1    4    4    0    0  0.18166035867E+02  0.22188561428E+02  0.13269824977E+02  0.31597869743E+02  0.00000000000E+00 0. -1.
</event>
<event>
 8    1  0.1269154E-006  0.9118800E+02  0.7816164E-02  0.1184000E+00
        -11   -1    0    0    0    0  0.00000000000E+00  0.00000000000E+00  0.45593999997E+02  0.45594000000E+02  0.51100000000E-03 0.  1.
         11   -1    0    0    0    0 -0.00000000000E+00 -0.00000000000E+00 -0.45593999997E+02  0.45594000000E+02  0.51100000000E-03 0. -1.
         23    2    1    2    0    0  0.00000000000E+00 -0.17763568394E-14  0.00000000000E+00  0.91188000000E+02  0.91188000000E+02 0.  0.
    9900012    2    3    3    0    0 -0.26697388250E+02  0.13484985482E+02 -0.21475207923E+02  0.54367083008E+02  0.39999997334E+02 0.  0.
        -12    1    3    3    0    0  0.26697388250E+02 -0.13484985482E+02  0.21475207923E+02  0.36820916992E+02  0.00000000000E+00 0.  1.
         11    1    4    4    0    0  0.18764897344E+00 -0.10261843323E+02 -0.98193053554E+01  0.14204203548E+02  0.51100000000E-03 0. -1.
        -11    1    4    4    0    0 -0.13670850686E+02  0.33691047593E+01 -0.31379039912E+01  0.14425306481E+02  0.51100000000E-03 0.  1.
         12    1    4    4    0    0 -0.13214186537E+02  0.20377724045E+02 -0.85179985762E+01  0.25737572979E+02  0.00000000000E+00 0. -1.
</event>
<event>
 8    1  0.1269154E-006  0.9118800E+02  0.7816164E-02  0.1184000E+00
        -11   -1    0    0    0    0  0.00000000000E+00  0.00000000000E+00  0.45593999997E+02  0.45594000000E+02  0.51100000000E-03 0. -1.
         11   -1    0    0    0    0 -0.00000000000E+00 -0.00000000000E+00 -0.45593999997E+02  0.45594000000E+02  0.51100000000E-03 0.  1.
         23    2    1    2    0    0  0.00000000000E+00  0.88817841970E-15  0.00000000000E+00  0.91188000000E+02  0.91188000000E+02 0.  0.
    9900012    2    3    3    0    0 -0.30952856107E+02  0.45541070995E+01 -0.19415413092E+02  0.54367116547E+02  0.40000073793E+02 0.  0.
         12    1    3    3    0    0  0.30952856107E+02 -0.45541070995E+01  0.19415413092E+02  0.36820883453E+02  0.00000000000E+00 0. -1.
         11    1    4    4    0    0  0.17292047041E+01  0.40273288030E+01 -0.18443181979E+01  0.47551063156E+01  0.51100000000E-03 0. -1.
        -11    1    4    4    0    0 -0.13387892906E+02  0.12459591558E+02 -0.19634100110E+02  0.26832349611E+02  0.51100000000E-03 0.  1.
        -12    1    4    4    0    0 -0.19294167905E+02 -0.11932813261E+02  0.20630052157E+01  0.22779660621E+02  0.00000000000E+00 0.  1.
</event>
<event>
 8    1  0.1269154E-006  0.9118800E+02  0.7816164E-02  0.1184000E+00
        -11   -1    0    0    0    0  0.00000000000E+00  0.00000000000E+00  0.45593999997E+02  0.45594000000E+02  0.51100000000E-03 0.  1.
         11   -1    0    0    0    0 -0.00000000000E+00 -0.00000000000E+00 -0.45593999997E+02  0.45594000000E+02  0.51100000000E-03 0. -1.
         23    2    1    2    0    0  0.00000000000E+00  0.17763568394E-14  0.00000000000E+00  0.91188000000E+02  0.91188000000E+02 0.  0.
    9900012    2    3    3    0    0 -0.20716046104E+02  0.14580300601E+02  0.26721519088E+02  0.54367091345E+02  0.40000016340E+02 0.  0.
         12    1    3    3    0    0  0.20716046104E+02 -0.14580300601E+02 -0.26721519088E+02  0.36820908655E+02  0.00000000000E+00 0. -1.
         11    1    4    4    0    0  0.41215367857E+01  0.90576306321E+01  0.53400624525E+01  0.11293538214E+02  0.51100000000E-03 0. -1.
        -11    1    4    4    0    0 -0.97666356178E+01  0.12371200448E+02  0.21327136441E+02  0.26519436661E+02  0.51100000000E-03 0.  1.
         12    1    4    4    0    0 -0.15070947272E+02 -0.68485304788E+01  0.54320194300E-01  0.16554116469E+02  0.00000000000E+00 0. -1.
</event>
<event>
 8    1  0.1269154E-006  0.9118800E+02  0.7816164E-02  0.1184000E+00
        -11   -1    0    0    0    0  0.00000000000E+00  0.00000000000E+00  0.45593999997E+02  0.45594000000E+02  0.51100000000E-03 0. -1.
         11   -1    0    0    0    0 -0.00000000000E+00 -0.00000000000E+00 -0.45593999997E+02  0.45594000000E+02  0.51100000000E-03 0.  1.
         23    2    1    2    0    0 -0.88817841970E-15  0.00000000000E+00 -0.55511151231E-15  0.91188000000E+02  0.91188000000E+02 0.  0.
    9900012    2    3    3    0    0  0.62190898334E+01 -0.36290187820E+02 -0.35367726058E+00  0.54367083418E+02  0.39999998268E+02 0.  0.
        -12    1    3    3    0    0 -0.62190898334E+01  0.36290187820E+02  0.35367726058E+00  0.36820916582E+02  0.00000000000E+00 0.  1.
         11    1    4    4    0    0 -0.94257593805E+01 -0.35901076921E+02  0.33534985405E+01  0.37268998064E+02  0.51100000000E-03 0. -1.
        -11    1    4    4    0    0  0.45211588233E+01 -0.20142807052E+01 -0.30993608793E+01  0.58398837305E+01  0.51100000000E-03 0.  1.
         12    1    4    4    0    0  0.11123690391E+02  0.16251698069E+01 -0.60781492182E+00  0.11258201623E+02  0.00000000000E+00 0. -1.
</event>
<event>
 8    1  0.1269154E-006  0.9118800E+02  0.7816164E-02  0.1184000E+00
        -11   -1    0    0    0    0  0.00000000000E+00  0.00000000000E+00  0.45593999997E+02  0.45594000000E+02  0.51100000000E-03 0.  1.
         11   -1    0    0    0    0 -0.00000000000E+00 -0.00000000000E+00 -0.45593999997E+02  0.45594000000E+02  0.51100000000E-03 0. -1.
         23    2    1    2    0    0 -0.88817841970E-15  0.35527136788E-14 -0.35527136788E-14  0.91188000000E+02  0.91188000000E+02 0.  0.
    9900012    2    3    3    0    0 -0.39683374536E+01  0.27091338810E+02 -0.24618928932E+02  0.54367081999E+02  0.39999995033E+02 0.  0.
        -12    1    3    3    0    0  0.39683374536E+01 -0.27091338810E+02  0.24618928932E+02  0.36820918001E+02  0.00000000000E+00 0.  1.
         11    1    4    4    0    0  0.42445216566E+01  0.34559840845E+02 -0.13682431725E+02  0.37411328519E+02  0.51100000000E-03 0.  1.
        -11    1    4    4    0    0 -0.45862204796E+01 -0.11067428574E+00 -0.52635508855E+01  0.69821655144E+01  0.51100000000E-03 0. -1.
        -12    1    4    4    0    0 -0.36266386306E+01 -0.73578277495E+01 -0.56729463213E+01  0.99735879659E+01  0.00000000000E+00 0.  1.
</event>
<event>
 8    1  0.1269154E-006  0.9118800E+02  0.7816164E-02  0.1184000E+00
        -11   -1    0    0    0    0  0.00000000000E+00  0.00000000000E+00  0.45593999997E+02  0.45594000000E+02  0.51100000000E-03 0. -1.
         11   -1    0    0    0    0 -0.00000000000E+00 -0.00000000000E+00 -0.45593999997E+02  0.45594000000E+02  0.51100000000E-03 0.  1.
         23    2    1    2    0    0  0.00000000000E+00  0.35527136788E-14  0.17763568394E-14  0.91188000000E+02  0.91188000000E+02 0.  0.
    9900012    2    3    3    0    0  0.16978938319E+02 -0.31672345812E+02 -0.80223352133E+01  0.54367086134E+02  0.40000004460E+02 0.  0.
        -12    1    3    3    0    0 -0.16978938319E+02  0.31672345812E+02  0.80223352133E+01  0.36820913866E+02  0.00000000000E+00 0.  1.
         11    1    4    4    0    0  0.25385941424E+02 -0.17276056126E+02 -0.43723104154E+01  0.31016531655E+02  0.51100000000E-03 0. -1.
        -11    1    4    4    0    0 -0.13147050924E+02 -0.94935577177E+01 -0.20458609725E+01  0.16344972729E+02  0.51100000000E-03 0.  1.
        -12    1    4    4    0    0  0.47400478192E+01 -0.49027319677E+01 -0.16041638255E+01  0.70055817499E+01  0.00000000000E+00 0.  1.
</event>
<event>
 8    1  0.1269154E-006  0.9118800E+02  0.7816164E-02  0.1184000E+00
        -11   -1    0    0    0    0  0.00000000000E+00  0.00000000000E+00  0.45593999997E+02  0.45594000000E+02  0.51100000000E-03 0.  1.
         11   -1    0    0    0    0 -0.00000000000E+00 -0.00000000000E+00 -0.45593999997E+02  0.45594000000E+02  0.51100000000E-03 0. -1.
         23    2    1    2    0    0 -0.35527136788E-14  0.00000000000E+00 -0.88817841970E-15  0.91188000000E+02  0.91188000000E+02 0.  0.
    9900012    2    3    3    0    0 -0.23120153446E+02  0.27932129358E+02 -0.64058834874E+01  0.54367072674E+02  0.39999973776E+02 0.  0.
        -12    1    3    3    0    0  0.23120153446E+02 -0.27932129358E+02  0.64058834874E+01  0.36820927326E+02  0.00000000000E+00 0.  1.
         11    1    4    4    0    0 -0.16277969316E+02  0.14478266445E+02 -0.19023903626E+02  0.28922333822E+02  0.51100000000E-03 0. -1.
        -11    1    4    4    0    0 -0.96142341540E+01  0.87564681605E+01  0.15378169722E+01  0.13094812496E+02  0.51100000000E-03 0.  1.
        -12    1    4    4    0    0  0.27720500232E+01  0.46973947525E+01  0.11080203166E+02  0.12349926356E+02  0.00000000000E+00 0.  1.
</event>
<event>
 8    1  0.1269154E-006  0.9118800E+02  0.7816164E-02  0.1184000E+00
        -11   -1    0    0    0    0  0.00000000000E+00  0.00000000000E+00  0.45593999997E+02  0.45594000000E+02  0.51100000000E-03 0. -1.
         11   -1    0    0    0    0 -0.00000000000E+00 -0.00000000000E+00 -0.45593999997E+02  0.45594000000E+02  0.51100000000E-03 0.  1.
         23    2    1    2    0    0  0.00000000000E+00 -0.35527136788E-14  0.35527136788E-14  0.91188000000E+02  0.91188000000E+02 0.  0.
    9900012    2    3    3    0    0  0.93996086378E+01  0.24250829734E+02 -0.26063845745E+02  0.54367089631E+02  0.40000012433E+02 0.  0.
         12    1    3    3    0    0 -0.93996086378E+01 -0.24250829734E+02  0.26063845745E+02  0.36820910369E+02  0.00000000000E+00 0. -1.
         11    1    4    4    0    0  0.15131878956E+01  0.50097029261E+01 -0.58624682889E+01  0.78584601363E+01  0.51100000000E-03 0. -1.
        -11    1    4    4    0    0  0.20881549656E+02  0.85033825678E+01 -0.19212782270E+02  0.29622248968E+02  0.51100000000E-03 0.  1.
         12    1    4    4    0    0 -0.12995128913E+02  0.10737744240E+02 -0.98859518567E+00  0.16886380527E+02  0.00000000000E+00 0. -1.
</event>
<event>
 8    1  0.1269154E-006  0.9118800E+02  0.7816164E-02  0.1184000E+00
        -11   -1    0    0    0    0  0.00000000000E+00  0.00000000000E+00  0.45593999997E+02  0.45594000000E+02  0.51100000000E-03 0.  1.
         11   -1    0    0    0    0 -0.00000000000E+00 -0.00000000000E+00 -0.45593999997E+02  0.45594000000E+02  0.51100000000E-03 0. -1.
         23    2    1    2    0    0  0.44408920985E-15 -0.17763568394E-14  0.00000000000E+00  0.91188000000E+02  0.91188000000E+02 0.  0.
    9900012    2    3    3    0    0 -0.24107453646E+01  0.15620083036E+02  0.33256320070E+02  0.54367061502E+02  0.39999948306E+02 0.  0.
         12    1    3    3    0    0  0.24107453646E+01 -0.15620083036E+02 -0.33256320070E+02  0.36820938498E+02  0.00000000000E+00 0. -1.
         11    1    4    4    0    0 -0.20686980518E+01  0.27950689914E+02  0.30555258068E+02  0.41462565938E+02  0.51100000000E-03 0. -1.
        -11    1    4    4    0    0  0.99635230430E+00 -0.65252527739E+01  0.20473579788E+01  0.69111009710E+01  0.51100000000E-03 0.  1.
         12    1    4    4    0    0 -0.13383996171E+01 -0.58053541033E+01  0.65370402360E+00  0.59933945933E+01  0.00000000000E+00 0. -1.
</event>
<event>
 8    1  0.1269154E-006  0.9118800E+02  0.7816164E-02  0.1184000E+00
        -11   -1    0    0    0    0  0.00000000000E+00  0.00000000000E+00  0.45593999997E+02  0.45594000000E+02  0.51100000000E-03 0.  1.
         11   -1    0    0    0    0 -0.00000000000E+00 -0.00000000000E+00 -0.45593999997E+02  0.45594000000E+02  0.51100000000E-03 0. -1.
         23    2    1    2    0    0  0.00000000000E+00 -0.13045120539E-14 -0.17763568394E-14  0.91188000000E+02  0.91188000000E+02 0.  0.
    9900012    2    3    3    0    0  0.35649031328E+02  0.76787872196E-01 -0.92152660643E+01  0.54367075791E+02  0.39999980880E+02 0.  0.
        -12    1    3    3    0    0 -0.35649031328E+02 -0.76787872196E-01  0.92152660643E+01  0.36820924209E+02  0.00000000000E+00 0.  1.
         11    1    4    4    0    0  0.17346865498E+02  0.83620433261E+01 -0.24608659734E+01  0.19413741854E+02  0.51100000000E-03 0. -1.
        -11    1    4    4    0    0  0.17745040194E+01  0.91243227018E+01 -0.57437785165E+01  0.10926715938E+02  0.51100000000E-03 0.  1.
         12    1    4    4    0    0  0.16527661811E+02 -0.17409578156E+02 -0.10106215743E+01  0.24026617999E+02  0.00000000000E+00 0. -1.
</event>
<event>
 8    1  0.1269154E-006  0.9118800E+02  0.7816164E-02  0.1184000E+00
        -11   -1    0    0    0    0  0.00000000000E+00  0.00000000000E+00  0.45593999997E+02  0.45594000000E+02  0.51100000000E-03 0. -1.
         11   -1    0    0    0    0 -0.00000000000E+00 -0.00000000000E+00 -0.45593999997E+02  0.45594000000E+02  0.51100000000E-03 0.  1.
         23    2    1    2    0    0  0.00000000000E+00  0.00000000000E+00  0.00000000000E+00  0.91188000000E+02  0.91188000000E+02 0.  0.
    9900012    2    3    3    0    0 -0.29953509836E+02  0.21204685701E+02 -0.29879645240E+01  0.54367090462E+02  0.40000014326E+02 0.  0.
        -12    1    3    3    0    0  0.29953509836E+02 -0.21204685701E+02  0.29879645240E+01  0.36820909538E+02  0.00000000000E+00 0.  1.
         11    1    4    4    0    0 -0.21031614753E+02  0.27616621696E+02 -0.10366991805E+02  0.36228181467E+02  0.51100000000E-03 0. -1.
        -11    1    4    4    0    0  0.21479190222E+01  0.10082754583E+00  0.44842835253E+01  0.49731802015E+01  0.51100000000E-03 0.  1.
         12    1    4    4    0    0 -0.11069814105E+02 -0.65127635410E+01  0.28947437554E+01  0.13165728794E+02  0.00000000000E+00 0. -1.
</event>
<event>
 8    1  0.1269154E-006  0.9118800E+02  0.7816164E-02  0.1184000E+00
        -11   -1    0    0    0    0  0.00000000000E+00  0.00000000000E+00  0.45593999997E+02  0.45594000000E+02  0.51100000000E-03 0.  1.
         11   -1    0    0    0    0 -0.00000000000E+00 -0.00000000000E+00 -0.45593999997E+02  0.45594000000E+02  0.51100000000E-03 0. -1.
         23    2    1    2    0    0  0.00000000000E+00 -0.88817841970E-15  0.00000000000E+00  0.91188000000E+02  0.91188000000E+02 0.  0.
    9900012    2    3    3    0    0 -0.16786437677E+02  0.48953441186E+01 -0.32404230987E+02  0.54367040347E+02  0.39999900079E+02 0.  0.
        -12    1    3    3    0    0  0.16786437677E+02 -0.48953441186E+01  0.32404230987E+02  0.36820959653E+02  0.00000000000E+00 0.  1.
         11    1    4    4    0    0 -0.95865513172E+00 -0.82693310966E+01  0.81599143728E+00  0.83646098973E+01  0.51100000000E-03 0. -1.
        -11    1    4    4    0    0  0.14792115444E+00 -0.19773779740E+00  0.36489329912E+01  0.36572794725E+01  0.51100000000E-03 0.  1.
         12    1    4    4    0    0 -0.15975703699E+02  0.13362413013E+02 -0.36869155416E+02  0.42345150977E+02  0.00000000000E+00 0. -1.
</event>
<event>
 8    1  0.1269154E-006  0.9118800E+02  0.7816164E-02  0.1184000E+00
        -11   -1    0    0    0    0  0.00000000000E+00  0.00000000000E+00  0.45593999997E+02  0.45594000000E+02  0.51100000000E-03 0.  1.
         11   -1    0    0    0    0 -0.00000000000E+00 -0.00000000000E+00 -0.45593999997E+02  0.45594000000E+02  0.51100000000E-03 0. -1.
         23    2    1    2    0    0  0.00000000000E+00 -0.88817841970E-15  0.17763568394E-14  0.91188000000E+02  0.91188000000E+02 0.  0.
    9900012    2    3    3    0    0 -0.35151676347E+02  0.55110020488E+01  0.94746113271E+01  0.54367085381E+02  0.40000002743E+02 0.  0.
         12    1    3    3    0    0  0.35151676347E+02 -0.55110020488E+01 -0.94746113271E+01  0.36820914619E+02  0.00000000000E+00 0. -1.
         11    1    4    4    0    0 -0.17065693175E+02  0.56104554301E+01 -0.11177607041E+02  0.21157835265E+02  0.51100000000E-03 0. -1.
        -11    1    4    4    0    0 -0.21717136947E+02 -0.16678927720E+01  0.15592649648E+02  0.26787060809E+02  0.51100000000E-03 0.  1.
        -12    1    4    4    0    0  0.36311537757E+01  0.15684393907E+01  0.50595687194E+01  0.64221893067E+01  0.00000000000E+00 0.  1.
</event>
<event>
 8    1  0.1269154E-006  0.9118800E+02  0.7816164E-02  0.1184000E+00
        -11   -1    0    0    0    0  0.00000000000E+00  0.00000000000E+00  0.45593999997E+02  0.45594000000E+02  0.51100000000E-03 0. -1.
         11   -1    0    0    0    0 -0.00000000000E+00 -0.00000000000E+00 -0.45593999997E+02  0.45594000000E+02  0.51100000000E-03 0.  1.
         23    2    1    2    0    0  0.00000000000E+00 -0.35527136788E-14  0.00000000000E+00  0.91188000000E+02  0.91188000000E+02 0.  0.
    9900012    2    3    3    0    0 -0.88548553679E+01 -0.28424977596E+02  0.21665491164E+02  0.54367064076E+02  0.39999954175E+02 0.  0.
        -12    1    3    3    0    0  0.88548553679E+01  0.28424977596E+02 -0.21665491164E+02  0.36820935924E+02  0.00000000000E+00 0.  1.
         11    1    4    4    0    0 -0.77200029876E+01  0.24645809063E+01 -0.42289615946E+01  0.91409365824E+01  0.51100000000E-03 0. -1.
        -11    1    4    4    0    0  0.91393808369E+00 -0.62529443540E+00 -0.30830741348E+01  0.32759154954E+01  0.51100000000E-03 0.  1.
         12    1    4    4    0    0 -0.20487904639E+01 -0.30264264067E+02  0.28977526893E+02  0.41950211999E+02  0.00000000000E+00 0. -1.
</event>
<event>
 8    1  0.1269154E-006  0.9118800E+02  0.7816164E-02  0.1184000E+00
        -11   -1    0    0    0    0  0.00000000000E+00  0.00000000000E+00  0.45593999997E+02  0.45594000000E+02  0.51100000000E-03 0.  1.
         11   -1    0    0    0    0 -0.00000000000E+00 -0.00000000000E+00 -0.45593999997E+02  0.45594000000E+02  0.51100000000E-03 0. -1.
         23    2    1    2    0    0 -0.35527136788E-14  0.00000000000E+00  0.00000000000E+00  0.91188000000E+02  0.91188000000E+02 0.  0.
    9900012    2    3    3    0    0  0.11712450472E+02 -0.33911961419E+02 -0.82811721266E+01  0.54367076124E+02  0.39999981639E+02 0.  0.
         12    1    3    3    0    0 -0.11712450472E+02  0.33911961419E+02  0.82811721266E+01  0.36820923876E+02  0.00000000000E+00 0. -1.
         11    1    4    4    0    0 -0.41700542529E+01  0.19271706535E+01 -0.12919844142E+02  0.13712246793E+02  0.51100000000E-03 0. -1.
        -11    1    4    4    0    0  0.12833221564E+02 -0.17041307130E+02  0.29610831535E+01  0.21537542527E+02  0.51100000000E-03 0.  1.
         12    1    4    4    0    0  0.30492831607E+01 -0.18797824942E+02  0.16775888616E+01  0.19117286804E+02  0.00000000000E+00 0. -1.
</event>
<event>
 8    1  0.1269154E-006  0.9118800E+02  0.7816164E-02  0.1184000E+00
        -11   -1    0    0    0    0  0.00000000000E+00  0.00000000000E+00  0.45593999997E+02  0.45594000000E+02  0.51100000000E-03 0.  1.
         11   -1    0    0    0    0 -0.00000000000E+00 -0.00000000000E+00 -0.45593999997E+02  0.45594000000E+02  0.51100000000E-03 0. -1.
         23    2    1    2    0    0  0.00000000000E+00  0.00000000000E+00  0.00000000000E+00  0.91188000000E+02  0.91188000000E+02 0.  0.
    9900012    2    3    3    0    0 -0.18068505767E+02  0.23885791455E+02  0.21419095554E+02  0.54367087621E+02  0.40000007849E+02 0.  0.
         12    1    3    3    0    0  0.18068505767E+02 -0.23885791455E+02 -0.21419095554E+02  0.36820912379E+02  0.00000000000E+00 0. -1.
         11    1    4    4    0    0 -0.40634753862E+01  0.16978951533E+01  0.25502579351E+01  0.50890564904E+01  0.51100000000E-03 0. -1.
        -11    1    4    4    0    0 -0.68562068461E+01 -0.38391323787E+01  0.20783377607E+02  0.22219255045E+02  0.51100000000E-03 0.  1.
         12    1    4    4    0    0 -0.71488235351E+01  0.26027028680E+02 -0.19145399890E+01  0.27058776085E+02  0.00000000000E+00 0. -1.
</event>
<event>
 8    1  0.1269154E-006  0.9118800E+02  0.7816164E-02  0.1184000E+00
        -11   -1    0    0    0    0  0.00000000000E+00  0.00000000000E+00  0.45593999997E+02  0.45594000000E+02  0.51100000000E-03 0. -1.
         11   -1    0    0    0    0 -0.00000000000E+00 -0.00000000000E+00 -0.45593999997E+02  0.45594000000E+02  0.51100000000E-03 0.  1.
         23    2    1    2    0    0  0.00000000000E+00  0.00000000000E+00  0.00000000000E+00  0.91188000000E+02  0.91188000000E+02 0.  0.
    9900012    2    3    3    0    0  0.29165293080E+02  0.15054491879E+02 -0.16689160672E+02  0.54367080265E+02  0.39999991080E+02 0.  0.
         12    1    3    3    0    0 -0.29165293080E+02 -0.15054491879E+02  0.16689160672E+02  0.36820919735E+02  0.00000000000E+00 0. -1.
         11    1    4    4    0    0  0.13791635435E+02  0.13856198916E+02 -0.17939316739E+01  0.19632158503E+02  0.51100000000E-03 0.  1.
        -11    1    4    4    0    0  0.28090974991E+01 -0.78539616431E+01  0.48442933191E+01  0.96458758168E+01  0.51100000000E-03 0. -1.
         12    1    4    4    0    0  0.12564560146E+02  0.90522546062E+01 -0.19739522317E+02  0.25089045945E+02  0.00000000000E+00 0. -1.
</event>
<event>
 8    1  0.1269154E-006  0.9118800E+02  0.7816164E-02  0.1184000E+00
        -11   -1    0    0    0    0  0.00000000000E+00  0.00000000000E+00  0.45593999997E+02  0.45594000000E+02  0.51100000000E-03 0. -1.
         11   -1    0    0    0    0 -0.00000000000E+00 -0.00000000000E+00 -0.45593999997E+02  0.45594000000E+02  0.51100000000E-03 0.  1.
         23    2    1    2    0    0  0.71054273576E-14  0.71054273576E-14  0.00000000000E+00  0.91188000000E+02  0.91188000000E+02 0.  0.
    9900012    2    3    3    0    0  0.23061716634E+02  0.20136851664E+02 -0.20455935914E+02  0.54367070039E+02  0.39999967768E+02 0.  0.
         12    1    3    3    0    0 -0.23061716634E+02 -0.20136851664E+02  0.20455935914E+02  0.36820929961E+02  0.00000000000E+00 0. -1.
         11    1    4    4    0    0 -0.33787012239E+01 -0.37361839977E+01 -0.15437092436E+01  0.52685606493E+01  0.51100000000E-03 0. -1.
        -11    1    4    4    0    0 -0.41292092031E+00  0.91785964852E+00 -0.13287903402E+02  0.13325965148E+02  0.51100000000E-03 0.  1.
        -12    1    4    4    0    0  0.26853338778E+02  0.22955176013E+02 -0.56243232681E+01  0.35772544242E+02  0.00000000000E+00 0.  1.
</event>
<event>
 8    1  0.1269154E-006  0.9118800E+02  0.7816164E-02  0.1184000E+00
        -11   -1    0    0    0    0  0.00000000000E+00  0.00000000000E+00  0.45593999997E+02  0.45594000000E+02  0.51100000000E-03 0. -1.
         11   -1    0    0    0    0 -0.00000000000E+00 -0.00000000000E+00 -0.45593999997E+02  0.45594000000E+02  0.51100000000E-03 0.  1.
         23    2    1    2    0    0  0.00000000000E+00 -0.88817841970E-15  0.00000000000E+00  0.91188000000E+02  0.91188000000E+02 0.  0.
    9900012    2    3    3    0    0 -0.29913208147E+02 -0.62928734977E+01  0.20527604336E+02  0.54367043763E+02  0.39999907866E+02 0.  0.
        -12    1    3    3    0    0  0.29913208147E+02  0.62928734977E+01 -0.20527604336E+02  0.36820956237E+02  0.00000000000E+00 0.  1.
         11    1    4    4    0    0 -0.17458945271E+02 -0.92274807543E+01  0.11987013258E+02  0.23100858386E+02  0.51100000000E-03 0. -1.
        -11    1    4    4    0    0 -0.20626930981E+02  0.55184970804E+01  0.75027579067E+01  0.22632177717E+02  0.51100000000E-03 0.  1.
         12    1    4    4    0    0  0.81726681057E+01 -0.25838898239E+01  0.10378331705E+01  0.86340076602E+01  0.00000000000E+00 0. -1.
</event>
<event>
 8    1  0.1269154E-006  0.9118800E+02  0.7816164E-02  0.1184000E+00
        -11   -1    0    0    0    0  0.00000000000E+00  0.00000000000E+00  0.45593999997E+02  0.45594000000E+02  0.51100000000E-03 0. -1.
         11   -1    0    0    0    0 -0.00000000000E+00 -0.00000000000E+00 -0.45593999997E+02  0.45594000000E+02  0.51100000000E-03 0.  1.
         23    2    1    2    0    0  0.00000000000E+00  0.00000000000E+00  0.00000000000E+00  0.91188000000E+02  0.91188000000E+02 0.  0.
    9900012    2    3    3    0    0  0.10423802875E+02  0.11839772735E+02 -0.33270761072E+02  0.54367089812E+02  0.40000012844E+02 0.  0.
         12    1    3    3    0    0 -0.10423802875E+02 -0.11839772735E+02  0.33270761072E+02  0.36820910188E+02  0.00000000000E+00 0. -1.
         11    1    4    4    0    0  0.11193181094E+02  0.76384879245E+01  0.14143266016E+01  0.13624761311E+02  0.51100000000E-03 0. -1.
        -11    1    4    4    0    0  0.76996901263E+01 -0.47539433239E+01 -0.14751914288E+02  0.17306189083E+02  0.51100000000E-03 0.  1.
        -12    1    4    4    0    0 -0.84690683456E+01  0.89552281343E+01 -0.19933173386E+02  0.23436139418E+02  0.00000000000E+00 0.  1.
</event>
<event>
 8    1  0.1269154E-006  0.9118800E+02  0.7816164E-02  0.1184000E+00
        -11   -1    0    0    0    0  0.00000000000E+00  0.00000000000E+00  0.45593999997E+02  0.45594000000E+02  0.51100000000E-03 0. -1.
         11   -1    0    0    0    0 -0.00000000000E+00 -0.00000000000E+00 -0.45593999997E+02  0.45594000000E+02  0.51100000000E-03 0.  1.
         23    2    1    2    0    0 -0.35527136788E-14  0.00000000000E+00 -0.88817841970E-15  0.91188000000E+02  0.91188000000E+02 0.  0.
    9900012    2    3    3    0    0 -0.23342359055E+02 -0.27728304825E+02  0.64849804532E+01  0.54367087651E+02  0.40000007918E+02 0.  0.
        -12    1    3    3    0    0  0.23342359055E+02  0.27728304825E+02 -0.64849804532E+01  0.36820912349E+02  0.00000000000E+00 0.  1.
         11    1    4    4    0    0  0.96328778337E+00 -0.88883424511E+01  0.26183441485E+01  0.93159154796E+01  0.51100000000E-03 0.  1.
        -11    1    4    4    0    0  0.14921914972E+01 -0.13727029844E+02  0.11165588417E+02  0.17757487119E+02  0.51100000000E-03 0. -1.
        -12    1    4    4    0    0 -0.25797838335E+02 -0.51129325298E+01 -0.72989521121E+01  0.27293685053E+02  0.00000000000E+00 0.  1.
</event>
<event>
 8    1  0.1269154E-006  0.9118800E+02  0.7816164E-02  0.1184000E+00
        -11   -1    0    0    0    0  0.00000000000E+00  0.00000000000E+00  0.45593999997E+02  0.45594000000E+02  0.51100000000E-03 0.  1.
         11   -1    0    0    0    0 -0.00000000000E+00 -0.00000000000E+00 -0.45593999997E+02  0.45594000000E+02  0.51100000000E-03 0. -1.
         23    2    1    2    0    0  0.00000000000E+00  0.44408920985E-15 -0.71054273576E-14  0.91188000000E+02  0.91188000000E+02 0.  0.
    9900012    2    3    3    0    0 -0.90980317302E+01 -0.39124437902E+01  0.35464033070E+02  0.54367095077E+02  0.40000024847E+02 0.  0.
         12    1    3    3    0    0  0.90980317302E+01  0.39124437902E+01 -0.35464033070E+02  0.36820904923E+02  0.00000000000E+00 0. -1.
         11    1    4    4    0    0  0.12963695532E+02  0.44491513865E+01  0.65974355506E+01  0.15211130990E+02  0.51100000000E-03 0. -1.
        -11    1    4    4    0    0 -0.10489021463E+02 -0.32208349709E-01  0.56593012879E+01  0.11918401737E+02  0.51100000000E-03 0.  1.
         12    1    4    4    0    0 -0.11572705799E+02 -0.83293868271E+01  0.23207296231E+02  0.27237562350E+02  0.00000000000E+00 0. -1.
</event>
<event>
 8    1  0.1269154E-006  0.9118800E+02  0.7816164E-02  0.1184000E+00
        -11   -1    0    0    0    0  0.00000000000E+00  0.00000000000E+00  0.45593999997E+02  0.45594000000E+02  0.51100000000E-03 0.  1.
         11   -1    0    0    0    0 -0.00000000000E+00 -0.00000000000E+00 -0.45593999997E+02  0.45594000000E+02  0.51100000000E-03 0. -1.
         23    2    1    2    0    0  0.00000000000E+00 -0.35527136788E-14  0.00000000000E+00  0.91188000000E+02  0.91188000000E+02 0.  0.
    9900012    2    3    3    0    0 -0.19502613929E+02 -0.27864716812E+02 -0.14106205428E+02  0.54367089845E+02  0.40000012919E+02 0.  0.
        -12    1    3    3    0    0  0.19502613929E+02  0.27864716812E+02  0.14106205428E+02  0.36820910155E+02  0.00000000000E+00 0.  1.
         11    1    4    4    0    0 -0.23819194858E+01 -0.15709127399E+02  0.61095720042E+01  0.17022840375E+02  0.51100000000E-03 0.  1.
        -11    1    4    4    0    0 -0.95438823215E+00 -0.35343052103E+01  0.49865190080E+01  0.61860764864E+01  0.51100000000E-03 0. -1.
         12    1    4    4    0    0 -0.16166306211E+02 -0.86212842024E+01 -0.25202296440E+02  0.31158172984E+02  0.00000000000E+00 0. -1.
</event>
<event>
 8    1  0.1269154E-006  0.9118800E+02  0.7816164E-02  0.1184000E+00
        -11   -1    0    0    0    0  0.00000000000E+00  0.00000000000E+00  0.45593999997E+02  0.45594000000E+02  0.51100000000E-03 0.  1.
         11   -1    0    0    0    0 -0.00000000000E+00 -0.00000000000E+00 -0.45593999997E+02  0.45594000000E+02  0.51100000000E-03 0. -1.
         23    2    1    2    0    0  0.35527136788E-14  0.00000000000E+00  0.00000000000E+00  0.91188000000E+02  0.91188000000E+02 0.  0.
    9900012    2    3    3    0    0 -0.26803791831E+02 -0.18100106043E+02 -0.17598858374E+02  0.54367123973E+02  0.40000090721E+02 0.  0.
        -12    1    3    3    0    0  0.26803791831E+02  0.18100106043E+02  0.17598858374E+02  0.36820876027E+02  0.00000000000E+00 0.  1.
         11    1    4    4    0    0 -0.12485063178E+02 -0.61670948377E+01 -0.40116415827E+01  0.14491484732E+02  0.51100000000E-03 0. -1.
        -11    1    4    4    0    0 -0.74244607047E+01 -0.63930393595E+01  0.10412982486E+02  0.14297684202E+02  0.51100000000E-03 0.  1.
        -12    1    4    4    0    0 -0.68942679491E+01 -0.55399718462E+01 -0.24000199278E+02  0.25577955039E+02  0.00000000000E+00 0.  1.
</event>
<event>
 8    1  0.1269154E-006  0.9118800E+02  0.7816164E-02  0.1184000E+00
        -11   -1    0    0    0    0  0.00000000000E+00  0.00000000000E+00  0.45593999997E+02  0.45594000000E+02  0.51100000000E-03 0.  1.
         11   -1    0    0    0    0 -0.00000000000E+00 -0.00000000000E+00 -0.45593999997E+02  0.45594000000E+02  0.51100000000E-03 0. -1.
         23    2    1    2    0    0  0.17763568394E-14 -0.88817841970E-15  0.00000000000E+00  0.91188000000E+02  0.91188000000E+02 0.  0.
    9900012    2    3    3    0    0  0.14568126887E+02  0.43328225985E+01  0.33537693801E+02  0.54367074181E+02  0.39999977211E+02 0.  0.
         12    1    3    3    0    0 -0.14568126887E+02 -0.43328225985E+01 -0.33537693801E+02  0.36820925819E+02  0.00000000000E+00 0. -1.
         11    1    4    4    0    0  0.32961190988E+01  0.18880856368E+01 -0.66389377931E+01  0.76488406812E+01  0.51100000000E-03 0. -1.
        -11    1    4    4    0    0 -0.33943161416E+01 -0.33018916749E+01  0.15166266545E+01  0.49723261530E+01  0.51100000000E-03 0.  1.
        -12    1    4    4    0    0  0.14666323930E+02  0.57466286366E+01  0.38660004939E+02  0.41745907347E+02  0.00000000000E+00 0.  1.
</event>
<event>
 8    1  0.1269154E-006  0.9118800E+02  0.7816164E-02  0.1184000E+00
        -11   -1    0    0    0    0  0.00000000000E+00  0.00000000000E+00  0.45593999997E+02  0.45594000000E+02  0.51100000000E-03 0.  1.
         11   -1    0    0    0    0 -0.00000000000E+00 -0.00000000000E+00 -0.45593999997E+02  0.45594000000E+02  0.51100000000E-03 0. -1.
         23    2    1    2    0    0 -0.88817841970E-15  0.35527136788E-14  0.00000000000E+00  0.91188000000E+02  0.91188000000E+02 0.  0.
    9900012    2    3    3    0    0 -0.40037529788E+01  0.22422518521E+02 -0.28930634211E+02  0.54367068852E+02  0.39999965063E+02 0.  0.
        -12    1    3    3    0    0  0.40037529788E+01 -0.22422518521E+02  0.28930634211E+02  0.36820931148E+02  0.00000000000E+00 0.  1.
         11    1    4    4    0    0  0.17075585524E+01  0.21428207299E+02 -0.14835256048E+02  0.26118358420E+02  0.51100000000E-03 0. -1.
        -11    1    4    4    0    0  0.62137182150E+01 -0.34677874454E+01 -0.13784001462E+02  0.15512399569E+02  0.51100000000E-03 0.  1.
         12    1    4    4    0    0 -0.11925029746E+02  0.44620986672E+01 -0.31137670084E+00  0.12736310864E+02  0.00000000000E+00 0. -1.
</event>
<event>
 8    1  0.1269154E-006  0.9118800E+02  0.7816164E-02  0.1184000E+00
        -11   -1    0    0    0    0  0.00000000000E+00  0.00000000000E+00  0.45593999997E+02  0.45594000000E+02  0.51100000000E-03 0. -1.
         11   -1    0    0    0    0 -0.00000000000E+00 -0.00000000000E+00 -0.45593999997E+02  0.45594000000E+02  0.51100000000E-03 0.  1.
         23    2    1    2    0    0  0.00000000000E+00 -0.35527136788E-14  0.35527136788E-14  0.91188000000E+02  0.91188000000E+02 0.  0.
    9900012    2    3    3    0    0  0.12407942225E+02  0.29033690928E+02 -0.18943791663E+02  0.54367089070E+02  0.40000011152E+02 0.  0.
        -12    1    3    3    0    0 -0.12407942225E+02 -0.29033690928E+02  0.18943791663E+02  0.36820910930E+02  0.00000000000E+00 0.  1.
         11    1    4    4    0    0  0.17674822971E+00  0.48355755128E+01 -0.10493090872E+02  0.11555041618E+02  0.51100000000E-03 0. -1.
        -11    1    4    4    0    0  0.16651293375E+02  0.15908764249E+02 -0.18140458898E+02  0.29316046805E+02  0.51100000000E-03 0.  1.
        -12    1    4    4    0    0 -0.44200993796E+01  0.82893511661E+01  0.96897581070E+01  0.13496000647E+02  0.00000000000E+00 0.  1.
</event>
<event>
 8    1  0.1269154E-006  0.9118800E+02  0.7816164E-02  0.1184000E+00
        -11   -1    0    0    0    0  0.00000000000E+00  0.00000000000E+00  0.45593999997E+02  0.45594000000E+02  0.51100000000E-03 0. -1.
         11   -1    0    0    0    0 -0.00000000000E+00 -0.00000000000E+00 -0.45593999997E+02  0.45594000000E+02  0.51100000000E-03 0.  1.
         23    2    1    2    0    0  0.00000000000E+00 -0.17763568394E-14 -0.17763568394E-14  0.91188000000E+02  0.91188000000E+02 0.  0.
    9900012    2    3    3    0    0  0.34183208060E+02 -0.11922437826E+02 -0.67191710801E+01  0.54367034545E+02  0.39999886853E+02 0.  0.
        -12    1    3    3    0    0 -0.34183208060E+02  0.11922437826E+02  0.67191710801E+01  0.36820965455E+02  0.00000000000E+00 0.  1.
         11    1    4    4    0    0  0.14632711584E+02 -0.52209800139E+00  0.11396718256E+02  0.18554622656E+02  0.51100000000E-03 0. -1.
        -11    1    4    4    0    0  0.83194634747E+01  0.41874669923E+01 -0.12888402728E+02  0.15901549530E+02  0.51100000000E-03 0.  1.
         12    1    4    4    0    0  0.11231033002E+02 -0.15587806817E+02 -0.52274866081E+01  0.19910862359E+02  0.00000000000E+00 0. -1.
</event>
<event>
 8    1  0.1269154E-006  0.9118800E+02  0.7816164E-02  0.1184000E+00
        -11   -1    0    0    0    0  0.00000000000E+00  0.00000000000E+00  0.45593999997E+02  0.45594000000E+02  0.51100000000E-03 0.  1.
         11   -1    0    0    0    0 -0.00000000000E+00 -0.00000000000E+00 -0.45593999997E+02  0.45594000000E+02  0.51100000000E-03 0. -1.
         23    2    1    2    0    0 -0.35527136788E-14 -0.35527136788E-14  0.35527136788E-14  0.91188000000E+02  0.91188000000E+02 0.  0.
    9900012    2    3    3    0    0 -0.28675629737E+02 -0.18714637142E+02  0.13536996669E+02  0.54367086609E+02  0.40000005542E+02 0.  0.
         12    1    3    3    0    0  0.28675629737E+02  0.18714637142E+02 -0.13536996669E+02  0.36820913391E+02  0.00000000000E+00 0. -1.
         11    1    4    4    0    0 -0.43683527996E+01 -0.12328850610E+02  0.17043760994E+02  0.21484246615E+02  0.51100000000E-03 0. -1.
        -11    1    4    4    0    0 -0.80434705301E+01  0.11369891473E+01  0.81488772463E+01  0.11506274946E+02  0.51100000000E-03 0.  1.
        -12    1    4    4    0    0 -0.16263806407E+02 -0.75227756792E+01 -0.11655641572E+02  0.21376565048E+02  0.00000000000E+00 0.  1.
</event>
<event>
 8    1  0.1269154E-006  0.9118800E+02  0.7816164E-02  0.1184000E+00
        -11   -1    0    0    0    0  0.00000000000E+00  0.00000000000E+00  0.45593999997E+02  0.45594000000E+02  0.51100000000E-03 0. -1.
         11   -1    0    0    0    0 -0.00000000000E+00 -0.00000000000E+00 -0.45593999997E+02  0.45594000000E+02  0.51100000000E-03 0.  1.
         23    2    1    2    0    0 -0.35527136788E-14  0.00000000000E+00 -0.35527136788E-14  0.91188000000E+02  0.91188000000E+02 0.  0.
    9900012    2    3    3    0    0  0.23053174200E+02 -0.14497078285E+02 -0.24782342822E+02  0.54367100564E+02  0.40000037356E+02 0.  0.
         12    1    3    3    0    0 -0.23053174200E+02  0.14497078285E+02  0.24782342822E+02  0.36820899436E+02  0.00000000000E+00 0. -1.
         11    1    4    4    0    0  0.79156418051E+00  0.24859014856E+00  0.66470944607E+01  0.66986741930E+01  0.51100000000E-03 0. -1.
        -11    1    4    4    0    0  0.60917151071E+01 -0.35017180393E+01  0.32848369262E+01  0.77563635852E+01  0.51100000000E-03 0.  1.
        -12    1    4    4    0    0  0.16169894912E+02 -0.11243950395E+02 -0.34714274209E+02  0.39912062786E+02  0.00000000000E+00 0.  1.
</event>
<event>
 8    1  0.1269154E-006  0.9118800E+02  0.7816164E-02  0.1184000E+00
        -11   -1    0    0    0    0  0.00000000000E+00  0.00000000000E+00  0.45593999997E+02  0.45594000000E+02  0.51100000000E-03 0.  1.
         11   -1    0    0    0    0 -0.00000000000E+00 -0.00000000000E+00 -0.45593999997E+02  0.45594000000E+02  0.51100000000E-03 0. -1.
         23    2    1    2    0    0  0.00000000000E+00  0.35527136788E-14  0.35527136788E-14  0.91188000000E+02  0.91188000000E+02 0.  0.
    9900012    2    3    3    0    0 -0.14474542542E+02  0.29246585528E+02 -0.17055974134E+02  0.54367063014E+02  0.39999951752E+02 0.  0.
        -12    1    3    3    0    0  0.14474542542E+02 -0.29246585528E+02  0.17055974134E+02  0.36820936986E+02  0.00000000000E+00 0.  1.
         11    1    4    4    0    0  0.81823884648E+01  0.13061951311E+02 -0.19833089460E+00  0.15414453881E+02  0.51100000000E-03 0. -1.
        -11    1    4    4    0    0  0.29006093660E+01 -0.33012090298E+00 -0.59501340100E+01  0.66277152551E+01  0.51100000000E-03 0.  1.
         12    1    4    4    0    0 -0.25557540373E+02  0.16514755120E+02 -0.10907509229E+02  0.32324893878E+02  0.00000000000E+00 0. -1.
</event>
<event>
 8    1  0.1269154E-006  0.9118800E+02  0.7816164E-02  0.1184000E+00
        -11   -1    0    0    0    0  0.00000000000E+00  0.00000000000E+00  0.45593999997E+02  0.45594000000E+02  0.51100000000E-03 0.  1.
         11   -1    0    0    0    0 -0.00000000000E+00 -0.00000000000E+00 -0.45593999997E+02  0.45594000000E+02  0.51100000000E-03 0. -1.
         23    2    1    2    0    0  0.00000000000E+00  0.53290705182E-14 -0.14210854715E-13  0.91188000000E+02  0.91188000000E+02 0.  0.
    9900012    2    3    3    0    0  0.89087281763E+01  0.13743921739E+02 -0.32977544752E+02  0.54367091805E+02  0.40000017387E+02 0.  0.
        -12    1    3    3    0    0 -0.89087281763E+01 -0.13743921739E+02  0.32977544752E+02  0.36820908195E+02  0.00000000000E+00 0.  1.
         11    1    4    4    0    0  0.67315965122E+01  0.89677580562E+01 -0.34400546732E+02  0.36181938752E+02  0.51100000000E-03 0. -1.
        -11    1    4    4    0    0  0.85136316459E+01 -0.20588206198E+01  0.13643470666E+01  0.88646550596E+01  0.51100000000E-03 0.  1.
        -12    1    4    4    0    0 -0.63364999818E+01  0.68349843028E+01  0.58654913479E-01  0.93204979930E+01  0.00000000000E+00 0.  1.
</event>
<event>
 8    1  0.1269154E-006  0.9118800E+02  0.7816164E-02  0.1184000E+00
        -11   -1    0    0    0    0  0.00000000000E+00  0.00000000000E+00  0.45593999997E+02  0.45594000000E+02  0.51100000000E-03 0.  1.
         11   -1    0    0    0    0 -0.00000000000E+00 -0.00000000000E+00 -0.45593999997E+02  0.45594000000E+02  0.51100000000E-03 0. -1.
         23    2    1    2    0    0 -0.35527136788E-14  0.00000000000E+00  0.00000000000E+00  0.91188000000E+02  0.91188000000E+02 0.  0.
    9900012    2    3    3    0    0 -0.11815261208E+02 -0.20929248197E+02  0.27895264766E+02  0.54367087140E+02  0.40000006752E+02 0.  0.
        -12    1    3    3    0    0  0.11815261208E+02  0.20929248197E+02 -0.27895264766E+02  0.36820912860E+02  0.00000000000E+00 0.  1.
         11    1    4    4    0    0  0.32291542544E+01 -0.34271124849E+01  0.96501910585E+01  0.10737724382E+02  0.51100000000E-03 0. -1.
        -11    1    4    4    0    0 -0.52507633592E+01 -0.23855591222E+02  0.20318528928E+02  0.31772666971E+02  0.51100000000E-03 0.  1.
         12    1    4    4    0    0 -0.97936521029E+01  0.63534555099E+01 -0.20734552199E+01  0.11856695787E+02  0.00000000000E+00 0. -1.
</event>
<event>
 8    1  0.1269154E-006  0.9118800E+02  0.7816164E-02  0.1184000E+00
        -11   -1    0    0    0    0  0.00000000000E+00  0.00000000000E+00  0.45593999997E+02  0.45594000000E+02  0.51100000000E-03 0.  1.
         11   -1    0    0    0    0 -0.00000000000E+00 -0.00000000000E+00 -0.45593999997E+02  0.45594000000E+02  0.51100000000E-03 0. -1.
         23    2    1    2    0    0  0.00000000000E+00  0.35527136788E-14  0.00000000000E+00  0.91188000000E+02  0.91188000000E+02 0.  0.
    9900012    2    3    3    0    0  0.96683834405E+01 -0.20571868719E+02  0.28967217625E+02  0.54367094011E+02  0.40000022416E+02 0.  0.
         12    1    3    3    0    0 -0.96683834405E+01  0.20571868719E+02 -0.28967217625E+02  0.36820905989E+02  0.00000000000E+00 0. -1.
         11    1    4    4    0    0 -0.43278242383E+00 -0.86370362488E+01 -0.76047740248E+01  0.11516001217E+02  0.51100000000E-03 0. -1.
        -11    1    4    4    0    0 -0.29892917679E+00 -0.37705673338E+01  0.24987628715E+02  0.25272279789E+02  0.51100000000E-03 0.  1.
         12    1    4    4    0    0  0.10400095041E+02 -0.81642651365E+01  0.11584362935E+02  0.17578813006E+02  0.00000000000E+00 0. -1.
</event>
<event>
 8    1  0.1269154E-006  0.9118800E+02  0.7816164E-02  0.1184000E+00
        -11   -1    0    0    0    0  0.00000000000E+00  0.00000000000E+00  0.45593999997E+02  0.45594000000E+02  0.51100000000E-03 0. -1.
         11   -1    0    0    0    0 -0.00000000000E+00 -0.00000000000E+00 -0.45593999997E+02  0.45594000000E+02  0.51100000000E-03 0.  1.
         23    2    1    2    0    0  0.35527136788E-14  0.00000000000E+00  0.35527136788E-14  0.91188000000E+02  0.91188000000E+02 0.  0.
    9900012    2    3    3    0    0 -0.16001172935E+02 -0.21806724582E+02 -0.24984163478E+02  0.54367092937E+02  0.40000019968E+02 0.  0.
         12    1    3    3    0    0  0.16001172935E+02  0.21806724582E+02  0.24984163478E+02  0.36820907063E+02  0.00000000000E+00 0. -1.
         11    1    4    4    0    0  0.29376708656E+01  0.80620546881E+01  0.17849005509E+00  0.85824527304E+01  0.51100000000E-03 0. -1.
        -11    1    4    4    0    0 -0.45366548803E+01 -0.13706093548E+02 -0.28884814672E+01  0.14723503771E+02  0.51100000000E-03 0.  1.
         12    1    4    4    0    0 -0.14402188920E+02 -0.16162685722E+02 -0.22274172066E+02  0.31061136435E+02  0.00000000000E+00 0. -1.
</event>
<event>
 8    1  0.1269154E-006  0.9118800E+02  0.7816164E-02  0.1184000E+00
        -11   -1    0    0    0    0  0.00000000000E+00  0.00000000000E+00  0.45593999997E+02  0.45594000000E+02  0.51100000000E-03 0. -1.
         11   -1    0    0    0    0 -0.00000000000E+00 -0.00000000000E+00 -0.45593999997E+02  0.45594000000E+02  0.51100000000E-03 0.  1.
         23    2    1    2    0    0  0.88817841970E-15  0.00000000000E+00 -0.71054273576E-14  0.91188000000E+02  0.91188000000E+02 0.  0.
    9900012    2    3    3    0    0 -0.57236501705E+01 -0.92610810028E+01  0.35174598095E+02  0.54367080080E+02  0.39999990658E+02 0.  0.
        -12    1    3    3    0    0  0.57236501705E+01  0.92610810028E+01 -0.35174598095E+02  0.36820919920E+02  0.00000000000E+00 0.  1.
         11    1    4    4    0    0 -0.13918707139E+01  0.19218984238E+01 -0.48472480455E+01  0.53969261169E+01  0.51100000000E-03 0.  1.
        -11    1    4    4    0    0 -0.14145314562E+02 -0.42873865915E+01  0.14190208973E+02  0.20489842332E+02  0.51100000000E-03 0. -1.
         12    1    4    4    0    0  0.98135351051E+01 -0.68955928352E+01  0.25831637168E+02  0.28480311631E+02  0.00000000000E+00 0. -1.
</event>
<event>
 8    1  0.1269154E-006  0.9118800E+02  0.7816164E-02  0.1184000E+00
        -11   -1    0    0    0    0  0.00000000000E+00  0.00000000000E+00  0.45593999997E+02  0.45594000000E+02  0.51100000000E-03 0.  1.
         11   -1    0    0    0    0 -0.00000000000E+00 -0.00000000000E+00 -0.45593999997E+02  0.45594000000E+02  0.51100000000E-03 0. -1.
         23    2    1    2    0    0  0.00000000000E+00  0.71054273576E-14 -0.17763568394E-14  0.91188000000E+02  0.91188000000E+02 0.  0.
    9900012    2    3    3    0    0 -0.52563396450E+01  0.35430180813E+02 -0.85354151207E+01  0.54367080264E+02  0.39999991079E+02 0.  0.
        -12    1    3    3    0    0  0.52563396450E+01 -0.35430180813E+02  0.85354151207E+01  0.36820919736E+02  0.00000000000E+00 0.  1.
         11    1    4    4    0    0 -0.22326697812E+01 -0.18513897641E+01 -0.35891317592E+01  0.46145774950E+01  0.51100000000E-03 0. -1.
        -11    1    4    4    0    0 -0.49740914869E+01 -0.10817451046E+00  0.86010229684E+01  0.99363415908E+01  0.51100000000E-03 0.  1.
         12    1    4    4    0    0  0.19504216231E+01  0.37389745087E+02 -0.13547306330E+02  0.39816161179E+02  0.00000000000E+00 0. -1.
</event>
<event>
 8    1  0.1269154E-006  0.9118800E+02  0.7816164E-02  0.1184000E+00
        -11   -1    0    0    0    0  0.00000000000E+00  0.00000000000E+00  0.45593999997E+02  0.45594000000E+02  0.51100000000E-03 0.  1.
         11   -1    0    0    0    0 -0.00000000000E+00 -0.00000000000E+00 -0.45593999997E+02  0.45594000000E+02  0.51100000000E-03 0. -1.
         23    2    1    2    0    0  0.00000000000E+00  0.35527136788E-14 -0.35527136788E-14  0.91188000000E+02  0.91188000000E+02 0.  0.
    9900012    2    3    3    0    0 -0.51722930546E+01  0.31153806635E+02 -0.18933296149E+02  0.54367055059E+02  0.39999933618E+02 0.  0.
        -12    1    3    3    0    0  0.51722930546E+01 -0.31153806635E+02  0.18933296149E+02  0.36820944941E+02  0.00000000000E+00 0.  1.
         11    1    4    4    0    0 -0.13563293442E+01  0.27417120795E+02 -0.13593454411E+02  0.30632011770E+02  0.51100000000E-03 0. -1.
        -11    1    4    4    0    0 -0.57045039103E+01  0.77294775583E+00  0.80472865023E+01  0.98943232920E+01  0.51100000000E-03 0.  1.
        -12    1    4    4    0    0  0.18885401999E+01  0.29637380839E+01 -0.13387128240E+02  0.13840719997E+02  0.00000000000E+00 0.  1.
</event>
<event>
 8    1  0.1269154E-006  0.9118800E+02  0.7816164E-02  0.1184000E+00
        -11   -1    0    0    0    0  0.00000000000E+00  0.00000000000E+00  0.45593999997E+02  0.45594000000E+02  0.51100000000E-03 0.  1.
         11   -1    0    0    0    0 -0.00000000000E+00 -0.00000000000E+00 -0.45593999997E+02  0.45594000000E+02  0.51100000000E-03 0. -1.
         23    2    1    2    0    0 -0.12212453271E-14 -0.17763568394E-14  0.00000000000E+00  0.91188000000E+02  0.91188000000E+02 0.  0.
    9900012    2    3    3    0    0 -0.44255579310E-01 -0.14165393869E+02  0.33987056505E+02  0.54367077253E+02  0.39999984214E+02 0.  0.
         12    1    3    3    0    0  0.44255579310E-01  0.14165393869E+02 -0.33987056505E+02  0.36820922747E+02  0.00000000000E+00 0. -1.
         11    1    4    4    0    0 -0.28223969286E+01 -0.11048364355E+02  0.52294778767E+01  0.12545107352E+02  0.51100000000E-03 0. -1.
        -11    1    4    4    0    0  0.88396974402E+01  0.11437005116E+02  0.11722182019E+02  0.18610612253E+02  0.51100000000E-03 0.  1.
        -12    1    4    4    0    0 -0.60615560909E+01 -0.14554034630E+02  0.17035396610E+02  0.23211357649E+02  0.00000000000E+00 0.  1.
</event>
<event>
 8    1  0.1269154E-006  0.9118800E+02  0.7816164E-02  0.1184000E+00
        -11   -1    0    0    0    0  0.00000000000E+00  0.00000000000E+00  0.45593999997E+02  0.45594000000E+02  0.51100000000E-03 0.  1.
         11   -1    0    0    0    0 -0.00000000000E+00 -0.00000000000E+00 -0.45593999997E+02  0.45594000000E+02  0.51100000000E-03 0. -1.
         23    2    1    2    0    0  0.00000000000E+00 -0.35527136788E-14  0.00000000000E+00  0.91188000000E+02  0.91188000000E+02 0.  0.
    9900012    2    3    3    0    0 -0.20301117044E+02 -0.27855692698E+02 -0.12950065217E+02  0.54367093465E+02  0.40000021171E+02 0.  0.
        -12    1    3    3    0    0  0.20301117044E+02  0.27855692698E+02  0.12950065217E+02  0.36820906535E+02  0.00000000000E+00 0.  1.
         11    1    4    4    0    0 -0.23712450798E+01 -0.19460887115E+02  0.75105414639E+01  0.20994217392E+02  0.51100000000E-03 0. -1.
        -11    1    4    4    0    0  0.17426125969E+01  0.25031575803E+01 -0.57223646529E+01  0.64844393757E+01  0.51100000000E-03 0.  1.
         12    1    4    4    0    0 -0.19672484562E+02 -0.10897963163E+02 -0.14738242028E+02  0.26888436697E+02  0.00000000000E+00 0. -1.
</event>
<event>
 8    1  0.1269154E-006  0.9118800E+02  0.7816164E-02  0.1184000E+00
        -11   -1    0    0    0    0  0.00000000000E+00  0.00000000000E+00  0.45593999997E+02  0.45594000000E+02  0.51100000000E-03 0.  1.
         11   -1    0    0    0    0 -0.00000000000E+00 -0.00000000000E+00 -0.45593999997E+02  0.45594000000E+02  0.51100000000E-03 0. -1.
         23    2    1    2    0    0  0.00000000000E+00  0.00000000000E+00 -0.35527136788E-14  0.91188000000E+02  0.91188000000E+02 0.  0.
    9900012    2    3    3    0    0 -0.69215879323E+01  0.23567524273E+02 -0.27430694842E+02  0.54367087472E+02  0.40000007511E+02 0.  0.
        -12    1    3    3    0    0  0.69215879323E+01 -0.23567524273E+02  0.27430694842E+02  0.36820912528E+02  0.00000000000E+00 0.  1.
         11    1    4    4    0    0 -0.12395917892E+02  0.15148448129E+02 -0.60896472832E+01  0.20499221092E+02  0.51100000000E-03 0.  1.
        -11    1    4    4    0    0  0.94069138549E+01  0.12222926871E+02 -0.23396757469E+02  0.28023173087E+02  0.51100000000E-03 0. -1.
         12    1    4    4    0    0 -0.39325838954E+01 -0.38038507275E+01  0.20557099100E+01  0.58446932926E+01  0.00000000000E+00 0. -1.
</event>
<event>
 8    1  0.1269154E-006  0.9118800E+02  0.7816164E-02  0.1184000E+00
        -11   -1    0    0    0    0  0.00000000000E+00  0.00000000000E+00  0.45593999997E+02  0.45594000000E+02  0.51100000000E-03 0.  1.
         11   -1    0    0    0    0 -0.00000000000E+00 -0.00000000000E+00 -0.45593999997E+02  0.45594000000E+02  0.51100000000E-03 0. -1.
         23    2    1    2    0    0  0.00000000000E+00  0.35527136788E-14  0.00000000000E+00  0.91188000000E+02  0.91188000000E+02 0.  0.
    9900012    2    3    3    0    0 -0.89588278242E+01  0.18383274329E+02  0.30619836117E+02  0.54367085632E+02  0.40000003316E+02 0.  0.
         12    1    3    3    0    0  0.89588278242E+01 -0.18383274329E+02 -0.30619836117E+02  0.36820914368E+02  0.00000000000E+00 0. -1.
         11    1    4    4    0    0 -0.89106331212E+01 -0.44444126016E+01 -0.37071993704E+01  0.10625230041E+02  0.51100000000E-03 0. -1.
        -11    1    4    4    0    0 -0.32552069196E+00  0.17686445896E+02  0.34300273732E+02  0.38593070758E+02  0.51100000000E-03 0.  1.
         12    1    4    4    0    0  0.27732598899E+00  0.51412410339E+01  0.26761755676E-01  0.51487848337E+01  0.00000000000E+00 0. -1.
</event>
<event>
 8    1  0.1269154E-006  0.9118800E+02  0.7816164E-02  0.1184000E+00
        -11   -1    0    0    0    0  0.00000000000E+00  0.00000000000E+00  0.45593999997E+02  0.45594000000E+02  0.51100000000E-03 0.  1.
         11   -1    0    0    0    0 -0.00000000000E+00 -0.00000000000E+00 -0.45593999997E+02  0.45594000000E+02  0.51100000000E-03 0. -1.
         23    2    1    2    0    0  0.00000000000E+00  0.35527136788E-14  0.00000000000E+00  0.91188000000E+02  0.91188000000E+02 0.  0.
    9900012    2    3    3    0    0  0.13432852419E+02  0.24751446210E+02 -0.23721381961E+02  0.54367087793E+02  0.40000008242E+02 0.  0.
        -12    1    3    3    0    0 -0.13432852419E+02 -0.24751446210E+02  0.23721381961E+02  0.36820912207E+02  0.00000000000E+00 0.  1.
         11    1    4    4    0    0 -0.49217371877E+01  0.49182275015E+00  0.45141890232E+00  0.49668064034E+01  0.51100000000E-03 0. -1.
        -11    1    4    4    0    0  0.15039911719E+02  0.28399378899E+02 -0.28189346029E+02  0.42747665389E+02  0.51100000000E-03 0.  1.
        -12    1    4    4    0    0  0.33146778873E+01 -0.41397554391E+01  0.40165451653E+01  0.66526160010E+01  0.00000000000E+00 0.  1.
</event>
<event>
 8    1  0.1269154E-006  0.9118800E+02  0.7816164E-02  0.1184000E+00
        -11   -1    0    0    0    0  0.00000000000E+00  0.00000000000E+00  0.45593999997E+02  0.45594000000E+02  0.51100000000E-03 0.  1.
         11   -1    0    0    0    0 -0.00000000000E+00 -0.00000000000E+00 -0.45593999997E+02  0.45594000000E+02  0.51100000000E-03 0. -1.
         23    2    1    2    0    0  0.00000000000E+00  0.00000000000E+00  0.00000000000E+00  0.91188000000E+02  0.91188000000E+02 0.  0.
    9900012    2    3    3    0    0  0.26054973499E+02  0.20958284929E+02 -0.15416493909E+02  0.54367086980E+02  0.40000006388E+02 0.  0.
        -12    1    3    3    0    0 -0.26054973499E+02 -0.20958284929E+02  0.15416493909E+02  0.36820913020E+02  0.00000000000E+00 0.  1.
         11    1    4    4    0    0  0.54258784016E+01 -0.27125675919E+01  0.72064179473E+01  0.94196942233E+01  0.51100000000E-03 0. -1.
        -11    1    4    4    0    0  0.93115227236E+01 -0.11943652119E+01  0.13770443902E+00  0.93888192263E+01  0.51100000000E-03 0.  1.
         12    1    4    4    0    0  0.11317572374E+02  0.24865217733E+02 -0.22760616295E+02  0.35558573530E+02  0.00000000000E+00 0. -1.
</event>
<event>
 8    1  0.1269154E-006  0.9118800E+02  0.7816164E-02  0.1184000E+00
        -11   -1    0    0    0    0  0.00000000000E+00  0.00000000000E+00  0.45593999997E+02  0.45594000000E+02  0.51100000000E-03 0. -1.
         11   -1    0    0    0    0 -0.00000000000E+00 -0.00000000000E+00 -0.45593999997E+02  0.45594000000E+02  0.51100000000E-03 0.  1.
         23    2    1    2    0    0 -0.35527136788E-14  0.00000000000E+00  0.00000000000E+00  0.91188000000E+02  0.91188000000E+02 0.  0.
    9900012    2    3    3    0    0 -0.30922184854E+02  0.17533165089E+02  0.96015306630E+01  0.54367044211E+02  0.39999908888E+02 0.  0.
        -12    1    3    3    0    0  0.30922184854E+02 -0.17533165089E+02 -0.96015306630E+01  0.36820955789E+02  0.00000000000E+00 0.  1.
         11    1    4    4    0    0 -0.29605282391E+02  0.15474536377E+02 -0.57953278757E+01  0.33904569706E+02  0.51100000000E-03 0. -1.
        -11    1    4    4    0    0  0.48659116658E+01 -0.27488673285E+01  0.54946338858E+01  0.78373700773E+01  0.51100000000E-03 0.  1.
         12    1    4    4    0    0 -0.61828141285E+01  0.48074960401E+01  0.99022246529E+01  0.12625104427E+02  0.00000000000E+00 0. -1.
</event>
<event>
 8    1  0.1269154E-006  0.9118800E+02  0.7816164E-02  0.1184000E+00
        -11   -1    0    0    0    0  0.00000000000E+00  0.00000000000E+00  0.45593999997E+02  0.45594000000E+02  0.51100000000E-03 0. -1.
         11   -1    0    0    0    0 -0.00000000000E+00 -0.00000000000E+00 -0.45593999997E+02  0.45594000000E+02  0.51100000000E-03 0.  1.
         23    2    1    2    0    0  0.00000000000E+00 -0.71054273576E-14  0.77715611724E-15  0.91188000000E+02  0.91188000000E+02 0.  0.
    9900012    2    3    3    0    0 -0.99796182694E+01  0.35436244477E+02 -0.67709819955E+00  0.54367100155E+02  0.40000036423E+02 0.  0.
        -12    1    3    3    0    0  0.99796182694E+01 -0.35436244477E+02  0.67709819955E+00  0.36820899845E+02  0.00000000000E+00 0.  1.
         11    1    4    4    0    0 -0.10363506487E+02  0.29751474578E+02 -0.84707118929E+01  0.32623694863E+02  0.51100000000E-03 0. -1.
        -11    1    4    4    0    0  0.83880061195E+00  0.12823487140E+02  0.67459369581E+01  0.14513892469E+02  0.51100000000E-03 0.  1.
        -12    1    4    4    0    0 -0.45491239422E+00 -0.71387172402E+01  0.10476767353E+01  0.72295128234E+01  0.00000000000E+00 0.  1.
</event>
<event>
 8    1  0.1269154E-006  0.9118800E+02  0.7816164E-02  0.1184000E+00
        -11   -1    0    0    0    0  0.00000000000E+00  0.00000000000E+00  0.45593999997E+02  0.45594000000E+02  0.51100000000E-03 0.  1.
         11   -1    0    0    0    0 -0.00000000000E+00 -0.00000000000E+00 -0.45593999997E+02  0.45594000000E+02  0.51100000000E-03 0. -1.
         23    2    1    2    0    0  0.00000000000E+00  0.00000000000E+00  0.17763568394E-14  0.91188000000E+02  0.91188000000E+02 0.  0.
    9900012    2    3    3    0    0 -0.20088158197E+02 -0.30377390636E+02 -0.54277232323E+01  0.54367080117E+02  0.39999990742E+02 0.  0.
        -12    1    3    3    0    0  0.20088158197E+02  0.30377390636E+02  0.54277232323E+01  0.36820919883E+02  0.00000000000E+00 0.  1.
         11    1    4    4    0    0 -0.11629565375E+02 -0.13470408028E+02 -0.16459291710E+02  0.24240605750E+02  0.51100000000E-03 0. -1.
        -11    1    4    4    0    0 -0.10795618945E+02  0.43340151701E-01  0.56781029308E+01  0.12197873582E+02  0.51100000000E-03 0.  1.
        -12    1    4    4    0    0  0.23370261224E+01 -0.16950322759E+02  0.53534655473E+01  0.17928600785E+02  0.00000000000E+00 0.  1.
</event>
<event>
 8    1  0.1269154E-006  0.9118800E+02  0.7816164E-02  0.1184000E+00
        -11   -1    0    0    0    0  0.00000000000E+00  0.00000000000E+00  0.45593999997E+02  0.45594000000E+02  0.51100000000E-03 0.  1.
         11   -1    0    0    0    0 -0.00000000000E+00 -0.00000000000E+00 -0.45593999997E+02  0.45594000000E+02  0.51100000000E-03 0. -1.
         23    2    1    2    0    0  0.00000000000E+00  0.22204460493E-15  0.00000000000E+00  0.91188000000E+02  0.91188000000E+02 0.  0.
    9900012    2    3    3    0    0  0.16148419197E+02  0.61321803768E+00 -0.33085230395E+02  0.54367082721E+02  0.39999996680E+02 0.  0.
        -12    1    3    3    0    0 -0.16148419197E+02 -0.61321803768E+00  0.33085230395E+02  0.36820917279E+02  0.00000000000E+00 0.  1.
         11    1    4    4    0    0  0.53817698711E+01 -0.57899533639E+01 -0.13685892028E+02  0.15804766615E+02  0.51100000000E-03 0. -1.
        -11    1    4    4    0    0 -0.71866150272E+01  0.24037069213E+01 -0.18675876131E+02  0.20154741180E+02  0.51100000000E-03 0.  1.
         12    1    4    4    0    0  0.17953264353E+02  0.39994644803E+01 -0.72346223704E+00  0.18407574927E+02  0.00000000000E+00 0. -1.
</event>
<event>
 8    1  0.1269154E-006  0.9118800E+02  0.7816164E-02  0.1184000E+00
        -11   -1    0    0    0    0  0.00000000000E+00  0.00000000000E+00  0.45593999997E+02  0.45594000000E+02  0.51100000000E-03 0.  1.
         11   -1    0    0    0    0 -0.00000000000E+00 -0.00000000000E+00 -0.45593999997E+02  0.45594000000E+02  0.51100000000E-03 0. -1.
         23    2    1    2    0    0  0.17763568394E-14  0.00000000000E+00 -0.17763568394E-14  0.91188000000E+02  0.91188000000E+02 0.  0.
    9900012    2    3    3    0    0 -0.11303828530E+02  0.32424445940E+02 -0.13291239693E+02  0.54367105300E+02  0.40000048152E+02 0.  0.
        -12    1    3    3    0    0  0.11303828530E+02 -0.32424445940E+02  0.13291239693E+02  0.36820894700E+02  0.00000000000E+00 0.  1.
         11    1    4    4    0    0 -0.14021119769E+01  0.19409964007E+02 -0.13484123385E+02  0.23675603571E+02  0.51100000000E-03 0. -1.
        -11    1    4    4    0    0  0.39294462395E+01 -0.36240984336E+01 -0.61460148750E+01  0.81454365328E+01  0.51100000000E-03 0.  1.
        -12    1    4    4    0    0 -0.13831162792E+02  0.16638580367E+02  0.63388985661E+01  0.22546065196E+02  0.00000000000E+00 0.  1.
</event>
<event>
 8    1  0.1269154E-006  0.9118800E+02  0.7816164E-02  0.1184000E+00
        -11   -1    0    0    0    0  0.00000000000E+00  0.00000000000E+00  0.45593999997E+02  0.45594000000E+02  0.51100000000E-03 0. -1.
         11   -1    0    0    0    0 -0.00000000000E+00 -0.00000000000E+00 -0.45593999997E+02  0.45594000000E+02  0.51100000000E-03 0.  1.
         23    2    1    2    0    0 -0.35527136788E-14 -0.17763568394E-14  0.00000000000E+00  0.91188000000E+02  0.91188000000E+02 0.  0.
    9900012    2    3    3    0    0  0.20312721151E+02 -0.60507771405E+01  0.30109157948E+02  0.54367082889E+02  0.39999997061E+02 0.  0.
        -12    1    3    3    0    0 -0.20312721151E+02  0.60507771405E+01 -0.30109157948E+02  0.36820917111E+02  0.00000000000E+00 0.  1.
         11    1    4    4    0    0 -0.62690951349E-01 -0.18375495919E+01  0.10027062829E+02  0.10194238957E+02  0.51100000000E-03 0. -1.
        -11    1    4    4    0    0 -0.59924118807E+01  0.55904333607E+01  0.12656237148E+02  0.15077873998E+02  0.51100000000E-03 0.  1.
        -12    1    4    4    0    0  0.26367823983E+02 -0.98036609094E+01  0.74258579710E+01  0.29094969934E+02  0.00000000000E+00 0.  1.
</event>
<event>
 8    1  0.1269154E-006  0.9118800E+02  0.7816164E-02  0.1184000E+00
        -11   -1    0    0    0    0  0.00000000000E+00  0.00000000000E+00  0.45593999997E+02  0.45594000000E+02  0.51100000000E-03 0. -1.
         11   -1    0    0    0    0 -0.00000000000E+00 -0.00000000000E+00 -0.45593999997E+02  0.45594000000E+02  0.51100000000E-03 0.  1.
         23    2    1    2    0    0 -0.53290705182E-14  0.00000000000E+00  0.00000000000E+00  0.91188000000E+02  0.91188000000E+02 0.  0.
    9900012    2    3    3    0    0  0.13063549404E+02  0.20003145068E+02  0.28017811524E+02  0.54367083414E+02  0.39999998258E+02 0.  0.
        -12    1    3    3    0    0 -0.13063549404E+02 -0.20003145068E+02 -0.28017811524E+02  0.36820916586E+02  0.00000000000E+00 0.  1.
         11    1    4    4    0    0  0.28743755778E+01  0.73758710714E+01  0.18067606833E+02  0.19725717375E+02  0.51100000000E-03 0. -1.
        -11    1    4    4    0    0 -0.10175052075E+02  0.41299682929E+01  0.47875821846E+01  0.11979535311E+02  0.51100000000E-03 0.  1.
        -12    1    4    4    0    0  0.20364225902E+02  0.84973057038E+01  0.51626225065E+01  0.22661830728E+02  0.00000000000E+00 0.  1.
</event>
<event>
 8    1  0.1269154E-006  0.9118800E+02  0.7816164E-02  0.1184000E+00
        -11   -1    0    0    0    0  0.00000000000E+00  0.00000000000E+00  0.45593999997E+02  0.45594000000E+02  0.51100000000E-03 0. -1.
         11   -1    0    0    0    0 -0.00000000000E+00 -0.00000000000E+00 -0.45593999997E+02  0.45594000000E+02  0.51100000000E-03 0.  1.
         23    2    1    2    0    0 -0.44408920985E-15 -0.17763568394E-14  0.00000000000E+00  0.91188000000E+02  0.91188000000E+02 0.  0.
    9900012    2    3    3    0    0 -0.38574558583E+01 -0.15237779763E+02  0.33297302055E+02  0.54367079018E+02  0.39999988238E+02 0.  0.
        -12    1    3    3    0    0  0.38574558583E+01  0.15237779763E+02 -0.33297302055E+02  0.36820920982E+02  0.00000000000E+00 0.  1.
         11    1    4    4    0    0  0.11441973883E+02 -0.67890270467E+01  0.11492345841E+02  0.17580775517E+02  0.51100000000E-03 0. -1.
        -11    1    4    4    0    0 -0.15070635838E+02  0.51470299878E+01  0.13292881359E+02  0.20744075717E+02  0.51100000000E-03 0.  1.
        -12    1    4    4    0    0 -0.22879390366E+00 -0.13595782704E+02  0.85120748546E+01  0.16042227785E+02  0.00000000000E+00 0.  1.
</event>
<event>
 8    1  0.1269154E-006  0.9118800E+02  0.7816164E-02  0.1184000E+00
        -11   -1    0    0    0    0  0.00000000000E+00  0.00000000000E+00  0.45593999997E+02  0.45594000000E+02  0.51100000000E-03 0.  1.
         11   -1    0    0    0    0 -0.00000000000E+00 -0.00000000000E+00 -0.45593999997E+02  0.45594000000E+02  0.51100000000E-03 0. -1.
         23    2    1    2    0    0  0.00000000000E+00 -0.17763568394E-14  0.00000000000E+00  0.91188000000E+02  0.91188000000E+02 0.  0.
    9900012    2    3    3    0    0  0.31099850799E+02 -0.10602864664E+02 -0.16618029265E+02  0.54367077205E+02  0.39999984105E+02 0.  0.
         12    1    3    3    0    0 -0.31099850799E+02  0.10602864664E+02  0.16618029265E+02  0.36820922795E+02  0.00000000000E+00 0. -1.
         11    1    4    4    0    0  0.25132679142E+02 -0.37951543127E+01 -0.12834551508E+02  0.28474207097E+02  0.51100000000E-03 0. -1.
        -11    1    4    4    0    0  0.77236969163E+01  0.77533072772E+01 -0.13778201821E+01  0.11030306274E+02  0.51100000000E-03 0.  1.
         12    1    4    4    0    0 -0.17565252594E+01 -0.14561017629E+02 -0.24056575746E+01  0.14862563835E+02  0.00000000000E+00 0. -1.
</event>
<event>
 8    1  0.1269154E-006  0.9118800E+02  0.7816164E-02  0.1184000E+00
        -11   -1    0    0    0    0  0.00000000000E+00  0.00000000000E+00  0.45593999997E+02  0.45594000000E+02  0.51100000000E-03 0.  1.
         11   -1    0    0    0    0 -0.00000000000E+00 -0.00000000000E+00 -0.45593999997E+02  0.45594000000E+02  0.51100000000E-03 0. -1.
         23    2    1    2    0    0 -0.13322676296E-14  0.00000000000E+00  0.00000000000E+00  0.91188000000E+02  0.91188000000E+02 0.  0.
    9900012    2    3    3    0    0 -0.35557508525E+01  0.54335936083E+01 -0.36243765566E+02  0.54367111281E+02  0.40000061788E+02 0.  0.
        -12    1    3    3    0    0  0.35557508525E+01 -0.54335936083E+01  0.36243765566E+02  0.36820888719E+02  0.00000000000E+00 0.  1.
         11    1    4    4    0    0 -0.13607461193E+02 -0.78746810625E+00 -0.11797466330E+02  0.18026738979E+02  0.51100000000E-03 0. -1.
        -11    1    4    4    0    0  0.10051417336E+02 -0.16906568917E+01 -0.26307218060E+02  0.28212745941E+02  0.51100000000E-03 0.  1.
        -12    1    4    4    0    0  0.29300481004E-03  0.79117186063E+01  0.18609188245E+01  0.81276263609E+01  0.00000000000E+00 0.  1.
</event>
<event>
 8    1  0.1269154E-006  0.9118800E+02  0.7816164E-02  0.1184000E+00
        -11   -1    0    0    0    0  0.00000000000E+00  0.00000000000E+00  0.45593999997E+02  0.45594000000E+02  0.51100000000E-03 0. -1.
         11   -1    0    0    0    0 -0.00000000000E+00 -0.00000000000E+00 -0.45593999997E+02  0.45594000000E+02  0.51100000000E-03 0.  1.
         23    2    1    2    0    0  0.00000000000E+00 -0.17763568394E-14 -0.71054273576E-14  0.91188000000E+02  0.91188000000E+02 0.  0.
    9900012    2    3    3    0    0 -0.17331357365E+02  0.80167800099E+01  0.31482305573E+02  0.54367078311E+02  0.39999986625E+02 0.  0.
        -12    1    3    3    0    0  0.17331357365E+02 -0.80167800099E+01 -0.31482305573E+02  0.36820921689E+02  0.00000000000E+00 0.  1.
         11    1    4    4    0    0 -0.93451378669E+01  0.10221044533E+01  0.34695901998E+01  0.10020696367E+02  0.51100000000E-03 0. -1.
        -11    1    4    4    0    0 -0.14627278419E+02  0.71846443468E+01  0.78022639143E+00  0.16315181329E+02  0.51100000000E-03 0.  1.
         12    1    4    4    0    0  0.66410589209E+01 -0.18996879022E+00  0.27232488982E+02  0.28031200615E+02  0.00000000000E+00 0. -1.
</event>
<event>
 8    1  0.1269154E-006  0.9118800E+02  0.7816164E-02  0.1184000E+00
        -11   -1    0    0    0    0  0.00000000000E+00  0.00000000000E+00  0.45593999997E+02  0.45594000000E+02  0.51100000000E-03 0.  1.
         11   -1    0    0    0    0 -0.00000000000E+00 -0.00000000000E+00 -0.45593999997E+02  0.45594000000E+02  0.51100000000E-03 0. -1.
         23    2    1    2    0    0  0.00000000000E+00 -0.88817841970E-15 -0.17763568394E-14  0.91188000000E+02  0.91188000000E+02 0.  0.
    9900012    2    3    3    0    0 -0.34631442530E+02 -0.56122170259E+01 -0.11177920531E+02  0.54367086119E+02  0.40000004425E+02 0.  0.
        -12    1    3    3    0    0  0.34631442530E+02  0.56122170259E+01  0.11177920531E+02  0.36820913881E+02  0.00000000000E+00 0.  1.
         11    1    4    4    0    0 -0.64974184508E+01 -0.60808068484E+00 -0.17489554330E+02  0.18667370452E+02  0.51100000000E-03 0. -1.
        -11    1    4    4    0    0 -0.63139646138E+01 -0.55468097218E+01 -0.62889421438E+01  0.10496858615E+02  0.51100000000E-03 0.  1.
        -12    1    4    4    0    0 -0.21820059465E+02  0.54267338079E+00  0.12600575943E+02  0.25202857052E+02  0.00000000000E+00 0.  1.
</event>
<event>
 8    1  0.1269154E-006  0.9118800E+02  0.7816164E-02  0.1184000E+00
        -11   -1    0    0    0    0  0.00000000000E+00  0.00000000000E+00  0.45593999997E+02  0.45594000000E+02  0.51100000000E-03 0.  1.
         11   -1    0    0    0    0 -0.00000000000E+00 -0.00000000000E+00 -0.45593999997E+02  0.45594000000E+02  0.51100000000E-03 0. -1.
         23    2    1    2    0    0 -0.88817841970E-15 -0.35527136788E-14 -0.35527136788E-14  0.91188000000E+02  0.91188000000E+02 0.  0.
    9900012    2    3    3    0    0  0.54827640412E+01  0.20905262892E+02  0.29810881209E+02  0.54367090769E+02  0.40000015027E+02 0.  0.
         12    1    3    3    0    0 -0.54827640412E+01 -0.20905262892E+02 -0.29810881209E+02  0.36820909231E+02  0.00000000000E+00 0. -1.
         11    1    4    4    0    0  0.12611348236E+02  0.19452967812E+02  0.18097115298E+02  0.29410366257E+02  0.51100000000E-03 0.  1.
        -11    1    4    4    0    0  0.22401613826E+01  0.75362726120E-01  0.14821798604E+02  0.14990320766E+02  0.51100000000E-03 0. -1.
         12    1    4    4    0    0 -0.93687455777E+01  0.13769323534E+01 -0.31080326924E+01  0.99664037457E+01  0.00000000000E+00 0. -1.
</event>
<event>
 8    1  0.1269154E-006  0.9118800E+02  0.7816164E-02  0.1184000E+00
        -11   -1    0    0    0    0  0.00000000000E+00  0.00000000000E+00  0.45593999997E+02  0.45594000000E+02  0.51100000000E-03 0. -1.
         11   -1    0    0    0    0 -0.00000000000E+00 -0.00000000000E+00 -0.45593999997E+02  0.45594000000E+02  0.51100000000E-03 0.  1.
         23    2    1    2    0    0  0.35527136788E-14  0.00000000000E+00  0.00000000000E+00  0.91188000000E+02  0.91188000000E+02 0.  0.
    9900012    2    3    3    0    0 -0.29167215451E+02 -0.18921204385E+02  0.12126041623E+02  0.54367091293E+02  0.40000016221E+02 0.  0.
        -12    1    3    3    0    0  0.29167215451E+02  0.18921204385E+02 -0.12126041623E+02  0.36820908707E+02  0.00000000000E+00 0.  1.
         11    1    4    4    0    0  0.18772186455E+01  0.45014851159E+01 -0.13221406157E+01  0.50532538192E+01  0.51100000000E-03 0. -1.
        -11    1    4    4    0    0 -0.31247523113E+01  0.27911394911E+01 -0.52326983664E+01  0.67034072769E+01  0.51100000000E-03 0.  1.
         12    1    4    4    0    0 -0.27919681785E+02 -0.26213828992E+02  0.18680880605E+02  0.42610430197E+02  0.00000000000E+00 0. -1.
</event>
<event>
 8    1  0.1269154E-006  0.9118800E+02  0.7816164E-02  0.1184000E+00
        -11   -1    0    0    0    0  0.00000000000E+00  0.00000000000E+00  0.45593999997E+02  0.45594000000E+02  0.51100000000E-03 0.  1.
         11   -1    0    0    0    0 -0.00000000000E+00 -0.00000000000E+00 -0.45593999997E+02  0.45594000000E+02  0.51100000000E-03 0. -1.
         23    2    1    2    0    0  0.00000000000E+00 -0.17763568394E-14 -0.71054273576E-14  0.91188000000E+02  0.91188000000E+02 0.  0.
    9900012    2    3    3    0    0  0.82863841545E+01  0.15771867996E+02  0.32223654601E+02  0.54367083413E+02  0.39999998258E+02 0.  0.
         12    1    3    3    0    0 -0.82863841545E+01 -0.15771867996E+02 -0.32223654601E+02  0.36820916587E+02  0.00000000000E+00 0. -1.
         11    1    4    4    0    0  0.89061311319E+01  0.14781765938E+02  0.96856611131E+01  0.19789689422E+02  0.51100000000E-03 0. -1.
        -11    1    4    4    0    0  0.71206722032E+01 -0.60010256772E+01 -0.46125542273E+00  0.93235743484E+01  0.51100000000E-03 0.  1.
        -12    1    4    4    0    0 -0.77404191806E+01  0.69911277358E+01  0.22999248910E+02  0.25253819643E+02  0.00000000000E+00 0.  1.
</event>
<event>
 8    1  0.1269154E-006  0.9118800E+02  0.7816164E-02  0.1184000E+00
        -11   -1    0    0    0    0  0.00000000000E+00  0.00000000000E+00  0.45593999997E+02  0.45594000000E+02  0.51100000000E-03 0. -1.
         11   -1    0    0    0    0 -0.00000000000E+00 -0.00000000000E+00 -0.45593999997E+02  0.45594000000E+02  0.51100000000E-03 0.  1.
         23    2    1    2    0    0  0.71054273576E-14  0.00000000000E+00  0.00000000000E+00  0.91188000000E+02  0.91188000000E+02 0.  0.
    9900012    2    3    3    0    0  0.35394372601E+02 -0.92701085909E+01  0.41342139655E+01  0.54366970000E+02  0.39999739709E+02 0.  0.
         12    1    3    3    0    0 -0.35394372601E+02  0.92701085909E+01 -0.41342139655E+01  0.36821030000E+02  0.00000000000E+00 0. -1.
         11    1    4    4    0    0 -0.25409870880E+01 -0.13606801705E+01  0.81969407781E-01  0.28835369172E+01  0.51100000000E-03 0. -1.
        -11    1    4    4    0    0  0.42227961442E+02 -0.88939218860E+00  0.68565813799E+01  0.42790237841E+02  0.51100000000E-03 0.  1.
        -12    1    4    4    0    0 -0.42926017528E+01 -0.70200362318E+01 -0.28043368222E+01  0.86931952421E+01  0.00000000000E+00 0.  1.
</event>
<event>
 8    1  0.1269154E-006  0.9118800E+02  0.7816164E-02  0.1184000E+00
        -11   -1    0    0    0    0  0.00000000000E+00  0.00000000000E+00  0.45593999997E+02  0.45594000000E+02  0.51100000000E-03 0.  1.
         11   -1    0    0    0    0 -0.00000000000E+00 -0.00000000000E+00 -0.45593999997E+02  0.45594000000E+02  0.51100000000E-03 0. -1.
         23    2    1    2    0    0  0.00000000000E+00  0.00000000000E+00  0.00000000000E+00  0.91188000000E+02  0.91188000000E+02 0.  0.
    9900012    2    3    3    0    0  0.50268529547E+01  0.24151001835E+02 -0.27335691093E+02  0.54367080025E+02  0.39999990533E+02 0.  0.
        -12    1    3    3    0    0 -0.50268529547E+01 -0.24151001835E+02  0.27335691093E+02  0.36820919975E+02  0.00000000000E+00 0.  1.
         11    1    4    4    0    0  0.87450514265E+01  0.16940073690E+01 -0.20589502722E+02  0.22433751537E+02  0.51100000000E-03 0. -1.
        -11    1    4    4    0    0 -0.11272234874E+02  0.18297012096E+02 -0.85396233117E+01  0.23125075076E+02  0.51100000000E-03 0.  1.
        -12    1    4    4    0    0  0.75540364019E+01  0.41599823701E+01  0.17934349408E+01  0.88082534119E+01  0.00000000000E+00 0.  1.
</event>
<event>
 8    1  0.1269154E-006  0.9118800E+02  0.7816164E-02  0.1184000E+00
        -11   -1    0    0    0    0  0.00000000000E+00  0.00000000000E+00  0.45593999997E+02  0.45594000000E+02  0.51100000000E-03 0.  1.
         11   -1    0    0    0    0 -0.00000000000E+00 -0.00000000000E+00 -0.45593999997E+02  0.45594000000E+02  0.51100000000E-03 0. -1.
         23    2    1    2    0    0 -0.35527136788E-14 -0.17763568394E-14  0.35527136788E-14  0.91188000000E+02  0.91188000000E+02 0.  0.
    9900012    2    3    3    0    0 -0.21875867438E+02 -0.91265773476E+01  0.28176803702E+02  0.54367078541E+02  0.39999987150E+02 0.  0.
         12    1    3    3    0    0  0.21875867438E+02  0.91265773476E+01 -0.28176803702E+02  0.36820921459E+02  0.00000000000E+00 0. -1.
         11    1    4    4    0    0  0.76888661751E+01 -0.11120040868E+02  0.72042560939E+01  0.15319114795E+02  0.51100000000E-03 0. -1.
        -11    1    4    4    0    0 -0.27561962439E+02  0.44910342404E+01  0.13706399371E+02  0.31107821300E+02  0.51100000000E-03 0.  1.
         12    1    4    4    0    0 -0.20027711743E+01 -0.24975707197E+01  0.72661482364E+01  0.79401424465E+01  0.00000000000E+00 0. -1.
</event>
<event>
 8    1  0.1269154E-006  0.9118800E+02  0.7816164E-02  0.1184000E+00
        -11   -1    0    0    0    0  0.00000000000E+00  0.00000000000E+00  0.45593999997E+02  0.45594000000E+02  0.51100000000E-03 0. -1.
         11   -1    0    0    0    0 -0.00000000000E+00 -0.00000000000E+00 -0.45593999997E+02  0.45594000000E+02  0.51100000000E-03 0.  1.
         23    2    1    2    0    0  0.00000000000E+00  0.00000000000E+00  0.17763568394E-14  0.91188000000E+02  0.91188000000E+02 0.  0.
    9900012    2    3    3    0    0  0.22255862565E+01 -0.33161079633E+02 -0.15848347440E+02  0.54367074521E+02  0.39999977985E+02 0.  0.
        -12    1    3    3    0    0 -0.22255862565E+01  0.33161079633E+02  0.15848347440E+02  0.36820925479E+02  0.00000000000E+00 0.  1.
         11    1    4    4    0    0  0.32428864289E+00 -0.26761880543E+02 -0.22059539299E+02  0.34683233523E+02  0.51100000000E-03 0. -1.
        -11    1    4    4    0    0  0.85762288217E+00  0.60587282762E+01  0.13224935232E+01  0.62604069128E+01  0.51100000000E-03 0.  1.
        -12    1    4    4    0    0  0.10436747315E+01 -0.12457927366E+02  0.48886983355E+01  0.13423434084E+02  0.00000000000E+00 0.  1.
</event>
<event>
 8    1  0.1269154E-006  0.9118800E+02  0.7816164E-02  0.1184000E+00
        -11   -1    0    0    0    0  0.00000000000E+00  0.00000000000E+00  0.45593999997E+02  0.45594000000E+02  0.51100000000E-03 0.  1.
         11   -1    0    0    0    0 -0.00000000000E+00 -0.00000000000E+00 -0.45593999997E+02  0.45594000000E+02  0.51100000000E-03 0. -1.
         23    2    1    2    0    0 -0.35527136788E-14  0.00000000000E+00  0.88817841970E-15  0.91188000000E+02  0.91188000000E+02 0.  0.
    9900012    2    3    3    0    0  0.23334776414E+02 -0.28017777806E+02 -0.51256087801E+01  0.54367088430E+02  0.40000009693E+02 0.  0.
        -12    1    3    3    0    0 -0.23334776414E+02  0.28017777806E+02  0.51256087801E+01  0.36820911570E+02  0.00000000000E+00 0.  1.
         11    1    4    4    0    0 -0.81092236618E+01  0.73713357055E-01  0.23168586503E+01  0.84340249183E+01  0.51100000000E-03 0. -1.
        -11    1    4    4    0    0  0.19100266034E+01  0.16338931026E+01 -0.28174372861E+01  0.37756802591E+01  0.51100000000E-03 0.  1.
         12    1    4    4    0    0  0.29533973473E+02 -0.29725384266E+02 -0.46250301443E+01  0.42157383252E+02  0.00000000000E+00 0. -1.
</event>
<event>
 8    1  0.1269154E-006  0.9118800E+02  0.7816164E-02  0.1184000E+00
        -11   -1    0    0    0    0  0.00000000000E+00  0.00000000000E+00  0.45593999997E+02  0.45594000000E+02  0.51100000000E-03 0. -1.
         11   -1    0    0    0    0 -0.00000000000E+00 -0.00000000000E+00 -0.45593999997E+02  0.45594000000E+02  0.51100000000E-03 0.  1.
         23    2    1    2    0    0  0.35527136788E-14  0.35527136788E-14 -0.88817841970E-15  0.91188000000E+02  0.91188000000E+02 0.  0.
    9900012    2    3    3    0    0  0.31723561705E+02  0.17690020333E+02 -0.60381202797E+01  0.54367080903E+02  0.39999992534E+02 0.  0.
         12    1    3    3    0    0 -0.31723561705E+02 -0.17690020333E+02  0.60381202797E+01  0.36820919097E+02  0.00000000000E+00 0. -1.
         11    1    4    4    0    0  0.81184170972E+01  0.18292979652E+01 -0.52744109938E+01  0.98526361347E+01  0.51100000000E-03 0. -1.
        -11    1    4    4    0    0  0.27710253627E+02  0.63615765053E+01 -0.10497975057E+02  0.30307347166E+02  0.51100000000E-03 0.  1.
         12    1    4    4    0    0 -0.41051090192E+01  0.94991458622E+01  0.97342657706E+01  0.14207097602E+02  0.00000000000E+00 0. -1.
</event>
<event>
 8    1  0.1269154E-006  0.9118800E+02  0.7816164E-02  0.1184000E+00
        -11   -1    0    0    0    0  0.00000000000E+00  0.00000000000E+00  0.45593999997E+02  0.45594000000E+02  0.51100000000E-03 0.  1.
         11   -1    0    0    0    0 -0.00000000000E+00 -0.00000000000E+00 -0.45593999997E+02  0.45594000000E+02  0.51100000000E-03 0. -1.
         23    2    1    2    0    0  0.00000000000E+00 -0.55511151231E-16 -0.88817841970E-15  0.91188000000E+02  0.91188000000E+02 0.  0.
    9900012    2    3    3    0    0 -0.36501617349E+02 -0.43605445219E+00 -0.48182696797E+01  0.54367164387E+02  0.40000182852E+02 0.  0.
        -12    1    3    3    0    0  0.36501617349E+02  0.43605445219E+00  0.48182696797E+01  0.36820835613E+02  0.00000000000E+00 0.  1.
         11    1    4    4    0    0 -0.13743940418E+02  0.80415588103E+01 -0.16058648266E+02  0.22615100059E+02  0.51100000000E-03 0. -1.
        -11    1    4    4    0    0 -0.59436935697E+01  0.31479273293E+01  0.89309977566E+01  0.11180324723E+02  0.51100000000E-03 0.  1.
        -12    1    4    4    0    0 -0.16813983361E+02 -0.11625540592E+02  0.23093808297E+01  0.20571739604E+02  0.00000000000E+00 0.  1.
</event>
<event>
 8    1  0.1269154E-006  0.9118800E+02  0.7816164E-02  0.1184000E+00
        -11   -1    0    0    0    0  0.00000000000E+00  0.00000000000E+00  0.45593999997E+02  0.45594000000E+02  0.51100000000E-03 0.  1.
         11   -1    0    0    0    0 -0.00000000000E+00 -0.00000000000E+00 -0.45593999997E+02  0.45594000000E+02  0.51100000000E-03 0. -1.
         23    2    1    2    0    0  0.00000000000E+00  0.71054273576E-14 -0.17763568394E-14  0.91188000000E+02  0.91188000000E+02 0.  0.
    9900012    2    3    3    0    0  0.13023875544E+01 -0.34568657062E+02 -0.12613162890E+02  0.54367080097E+02  0.39999990697E+02 0.  0.
        -12    1    3    3    0    0 -0.13023875544E+01  0.34568657062E+02  0.12613162890E+02  0.36820919903E+02  0.00000000000E+00 0.  1.
         11    1    4    4    0    0 -0.19533091862E+01  0.45302408362E+01  0.48712442409E+01  0.69330743200E+01  0.51100000000E-03 0. -1.
        -11    1    4    4    0    0  0.16018450853E+01 -0.85917836451E-01  0.29532653501E+01  0.33608133005E+01  0.51100000000E-03 0.  1.
         12    1    4    4    0    0  0.16538516553E+01 -0.39012980062E+02 -0.20437672481E+02  0.44073192476E+02  0.00000000000E+00 0. -1.
</event>
<event>
 8    1  0.1269154E-006  0.9118800E+02  0.7816164E-02  0.1184000E+00
        -11   -1    0    0    0    0  0.00000000000E+00  0.00000000000E+00  0.45593999997E+02  0.45594000000E+02  0.51100000000E-03 0. -1.
         11   -1    0    0    0    0 -0.00000000000E+00 -0.00000000000E+00 -0.45593999997E+02  0.45594000000E+02  0.51100000000E-03 0.  1.
         23    2    1    2    0    0 -0.35527136788E-14 -0.44408920985E-15  0.35527136788E-14  0.91188000000E+02  0.91188000000E+02 0.  0.
    9900012    2    3    3    0    0 -0.30002047757E+02  0.28454802775E+01 -0.21155618913E+02  0.54367084216E+02  0.40000000086E+02 0.  0.
         12    1    3    3    0    0  0.30002047757E+02 -0.28454802775E+01  0.21155618913E+02  0.36820915784E+02  0.00000000000E+00 0. -1.
         11    1    4    4    0    0 -0.12426173802E+02 -0.17022605921E+01 -0.91018548050E+01  0.15496814113E+02  0.51100000000E-03 0. -1.
        -11    1    4    4    0    0 -0.25924930030E+02  0.85027152722E+01 -0.63497320375E+01  0.28012805309E+02  0.51100000000E-03 0.  1.
         12    1    4    4    0    0  0.83490560761E+01 -0.39549744025E+01 -0.57040320705E+01  0.10857464794E+02  0.00000000000E+00 0. -1.
</event>
<event>
 8    1  0.1269154E-006  0.9118800E+02  0.7816164E-02  0.1184000E+00
        -11   -1    0    0    0    0  0.00000000000E+00  0.00000000000E+00  0.45593999997E+02  0.45594000000E+02  0.51100000000E-03 0.  1.
         11   -1    0    0    0    0 -0.00000000000E+00 -0.00000000000E+00 -0.45593999997E+02  0.45594000000E+02  0.51100000000E-03 0. -1.
         23    2    1    2    0    0 -0.17763568394E-14  0.00000000000E+00  0.00000000000E+00  0.91188000000E+02  0.91188000000E+02 0.  0.
    9900012    2    3    3    0    0 -0.13509215074E+02  0.22370729790E+02 -0.25938994733E+02  0.54367083512E+02  0.39999998482E+02 0.  0.
        -12    1    3    3    0    0  0.13509215074E+02 -0.22370729790E+02  0.25938994733E+02  0.36820916488E+02  0.00000000000E+00 0.  1.
         11    1    4    4    0    0 -0.56759718203E+01  0.56896739410E+01 -0.19187122207E+02  0.20802276426E+02  0.51100000000E-03 0. -1.
        -11    1    4    4    0    0 -0.85645876688E+01  0.23951397845E+02 -0.64974214194E+01  0.26253344663E+02  0.51100000000E-03 0.  1.
        -12    1    4    4    0    0  0.73134441516E+00 -0.72703419961E+01 -0.25445110728E+00  0.73114624228E+01  0.00000000000E+00 0.  1.
</event>
<event>
 8    1  0.1269154E-006  0.9118800E+02  0.7816164E-02  0.1184000E+00
        -11   -1    0    0    0    0  0.00000000000E+00  0.00000000000E+00  0.45593999997E+02  0.45594000000E+02  0.51100000000E-03 0.  1.
         11   -1    0    0    0    0 -0.00000000000E+00 -0.00000000000E+00 -0.45593999997E+02  0.45594000000E+02  0.51100000000E-03 0. -1.
         23    2    1    2    0    0 -0.35527136788E-14 -0.35527136788E-14  0.00000000000E+00  0.91188000000E+02  0.91188000000E+02 0.  0.
    9900012    2    3    3    0    0 -0.17130086158E+02  0.18857788895E+02  0.26584290404E+02  0.54367074562E+02  0.39999978080E+02 0.  0.
         12    1    3    3    0    0  0.17130086158E+02 -0.18857788895E+02 -0.26584290404E+02  0.36820925438E+02  0.00000000000E+00 0. -1.
         11    1    4    4    0    0 -0.14833819053E+02  0.19333899695E+02  0.20852429455E+02  0.32072818391E+02  0.51100000000E-03 0.  1.
        -11    1    4    4    0    0 -0.92298970150E+01 -0.72684502810E+01  0.21212789619E+01  0.11938224034E+02  0.51100000000E-03 0. -1.
        -12    1    4    4    0    0  0.69336299094E+01  0.67923394810E+01  0.36105819869E+01  0.10356032137E+02  0.00000000000E+00 0.  1.
</event>
<event>
 8    1  0.1269154E-006  0.9118800E+02  0.7816164E-02  0.1184000E+00
        -11   -1    0    0    0    0  0.00000000000E+00  0.00000000000E+00  0.45593999997E+02  0.45594000000E+02  0.51100000000E-03 0.  1.
         11   -1    0    0    0    0 -0.00000000000E+00 -0.00000000000E+00 -0.45593999997E+02  0.45594000000E+02  0.51100000000E-03 0. -1.
         23    2    1    2    0    0 -0.35527136788E-14  0.17763568394E-14  0.00000000000E+00  0.91188000000E+02  0.91188000000E+02 0.  0.
    9900012    2    3    3    0    0  0.25613243530E+02 -0.97683965082E+01 -0.24582883298E+02  0.54367109656E+02  0.40000058083E+02 0.  0.
        -12    1    3    3    0    0 -0.25613243530E+02  0.97683965082E+01  0.24582883298E+02  0.36820890344E+02  0.00000000000E+00 0.  1.
         11    1    4    4    0    0  0.66185862059E+01 -0.16595032383E+02 -0.26778021273E+01  0.18065752341E+02  0.51100000000E-03 0. -1.
        -11    1    4    4    0    0  0.66043451712E+00  0.68611192130E+01 -0.15356829156E+02  0.16832805251E+02  0.51100000000E-03 0.  1.
         12    1    4    4    0    0  0.18334222807E+02 -0.34483338344E-01 -0.65482520141E+01  0.19468552065E+02  0.00000000000E+00 0. -1.
</event>
<event>
 8    1  0.1269154E-006  0.9118800E+02  0.7816164E-02  0.1184000E+00
        -11   -1    0    0    0    0  0.00000000000E+00  0.00000000000E+00  0.45593999997E+02  0.45594000000E+02  0.51100000000E-03 0. -1.
         11   -1    0    0    0    0 -0.00000000000E+00 -0.00000000000E+00 -0.45593999997E+02  0.45594000000E+02  0.51100000000E-03 0.  1.
         23    2    1    2    0    0  0.00000000000E+00  0.00000000000E+00 -0.35527136788E-14  0.91188000000E+02  0.91188000000E+02 0.  0.
    9900012    2    3    3    0    0  0.12654718987E+02 -0.21367146541E+02  0.27186007422E+02  0.54367138203E+02  0.40000123161E+02 0.  0.
        -12    1    3    3    0    0 -0.12654718987E+02  0.21367146541E+02 -0.27186007422E+02  0.36820861797E+02  0.00000000000E+00 0.  1.
         11    1    4    4    0    0  0.67285877474E+01  0.95043879961E+01  0.13949930997E+02  0.18171622364E+02  0.51100000000E-03 0. -1.
        -11    1    4    4    0    0  0.89306414894E+01 -0.26551698271E+02  0.89484268965E+01  0.29407879601E+02  0.51100000000E-03 0.  1.
        -12    1    4    4    0    0 -0.30045102500E+01 -0.43198362662E+01  0.42876495291E+01  0.67876362376E+01  0.00000000000E+00 0.  1.
</event>
<event>
 8    1  0.1269154E-006  0.9118800E+02  0.7816164E-02  0.1184000E+00
        -11   -1    0    0    0    0  0.00000000000E+00  0.00000000000E+00  0.45593999997E+02  0.45594000000E+02  0.51100000000E-03 0.  1.
         11   -1    0    0    0    0 -0.00000000000E+00 -0.00000000000E+00 -0.45593999997E+02  0.45594000000E+02  0.51100000000E-03 0. -1.
         23    2    1    2    0    0 -0.17763568394E-14 -0.71054273576E-14  0.17763568394E-14  0.91188000000E+02  0.91188000000E+02 0.  0.
    9900012    2    3    3    0    0 -0.65705202321E+01 -0.35524015194E+02 -0.71169152377E+01  0.54367110900E+02  0.40000060919E+02 0.  0.
         12    1    3    3    0    0  0.65705202321E+01  0.35524015194E+02  0.71169152377E+01  0.36820889100E+02  0.00000000000E+00 0. -1.
         11    1    4    4    0    0  0.84836159648E+00 -0.16563899987E+02 -0.19901534290E+02  0.25906631728E+02  0.51100000000E-03 0. -1.
        -11    1    4    4    0    0 -0.10045437408E+01  0.20380010281E+01  0.44112285517E+01  0.49620050297E+01  0.51100000000E-03 0.  1.
         12    1    4    4    0    0 -0.64143380877E+01 -0.20998116235E+02  0.83733905001E+01  0.23498474142E+02  0.00000000000E+00 0. -1.
</event>
<event>
 8    1  0.1269154E-006  0.9118800E+02  0.7816164E-02  0.1184000E+00
        -11   -1    0    0    0    0  0.00000000000E+00  0.00000000000E+00  0.45593999997E+02  0.45594000000E+02  0.51100000000E-03 0. -1.
         11   -1    0    0    0    0 -0.00000000000E+00 -0.00000000000E+00 -0.45593999997E+02  0.45594000000E+02  0.51100000000E-03 0.  1.
         23    2    1    2    0    0  0.44408920985E-15  0.26645352591E-14  0.00000000000E+00  0.91188000000E+02  0.91188000000E+02 0.  0.
    9900012    2    3    3    0    0 -0.27338564419E+01  0.67376167013E+01  0.36095853312E+02  0.54367080998E+02  0.39999992751E+02 0.  0.
        -12    1    3    3    0    0  0.27338564419E+01 -0.67376167013E+01 -0.36095853312E+02  0.36820919002E+02  0.00000000000E+00 0.  1.
         11    1    4    4    0    0 -0.16193731371E+02  0.33313737019E+01  0.12496316804E+02  0.20724210971E+02  0.51100000000E-03 0. -1.
        -11    1    4    4    0    0  0.71816422765E+01 -0.60003686309E+01  0.24728817825E+01  0.96796463813E+01  0.51100000000E-03 0.  1.
        -12    1    4    4    0    0  0.62782326525E+01  0.94066116303E+01  0.21126654725E+02  0.23963223645E+02  0.00000000000E+00 0.  1.
</event>
<event>
 8    1  0.1269154E-006  0.9118800E+02  0.7816164E-02  0.1184000E+00
        -11   -1    0    0    0    0  0.00000000000E+00  0.00000000000E+00  0.45593999997E+02  0.45594000000E+02  0.51100000000E-03 0.  1.
         11   -1    0    0    0    0 -0.00000000000E+00 -0.00000000000E+00 -0.45593999997E+02  0.45594000000E+02  0.51100000000E-03 0. -1.
         23    2    1    2    0    0  0.26645352591E-14  0.00000000000E+00 -0.71054273576E-14  0.91188000000E+02  0.91188000000E+02 0.  0.
    9900012    2    3    3    0    0  0.57125000877E+01  0.11781588571E+02 -0.34414262308E+02  0.54367082892E+02  0.39999997068E+02 0.  0.
        -12    1    3    3    0    0 -0.57125000877E+01 -0.11781588571E+02  0.34414262308E+02  0.36820917108E+02  0.00000000000E+00 0.  1.
         11    1    4    4    0    0  0.87370240050E+01  0.23756022904E+02 -0.26159742688E+02  0.36400774036E+02  0.51100000000E-03 0. -1.
        -11    1    4    4    0    0 -0.49421595228E+01 -0.12416193615E+02 -0.52145039515E+01  0.14344959267E+02  0.51100000000E-03 0.  1.
        -12    1    4    4    0    0  0.19176356055E+01  0.44175928215E+00 -0.30400156687E+01  0.36213495889E+01  0.00000000000E+00 0.  1.
</event>
<event>
 8    1  0.1269154E-006  0.9118800E+02  0.7816164E-02  0.1184000E+00
        -11   -1    0    0    0    0  0.00000000000E+00  0.00000000000E+00  0.45593999997E+02  0.45594000000E+02  0.51100000000E-03 0. -1.
         11   -1    0    0    0    0 -0.00000000000E+00 -0.00000000000E+00 -0.45593999997E+02  0.45594000000E+02  0.51100000000E-03 0.  1.
         23    2    1    2    0    0  0.35527136788E-14  0.17763568394E-14  0.00000000000E+00  0.91188000000E+02  0.91188000000E+02 0.  0.
    9900012    2    3    3    0    0 -0.27066732110E+02  0.10901404800E+02  0.22457649041E+02  0.54366883583E+02  0.39999542701E+02 0.  0.
        -12    1    3    3    0    0  0.27066732110E+02 -0.10901404800E+02 -0.22457649041E+02  0.36821116417E+02  0.00000000000E+00 0.  1.
         11    1    4    4    0    0 -0.41735469091E+01 -0.88603619420E+01  0.12175379309E+02  0.15625759794E+02  0.51100000000E-03 0. -1.
        -11    1    4    4    0    0 -0.23728304543E+02  0.13013614822E+02  0.14537165011E+02  0.30719957260E+02  0.51100000000E-03 0.  1.
         12    1    4    4    0    0  0.83511934144E+00  0.67481519203E+01 -0.42548952792E+01  0.80211665293E+01  0.00000000000E+00 0. -1.
</event>
<event>
 8    1  0.1269154E-006  0.9118800E+02  0.7816164E-02  0.1184000E+00
        -11   -1    0    0    0    0  0.00000000000E+00  0.00000000000E+00  0.45593999997E+02  0.45594000000E+02  0.51100000000E-03 0. -1.
         11   -1    0    0    0    0 -0.00000000000E+00 -0.00000000000E+00 -0.45593999997E+02  0.45594000000E+02  0.51100000000E-03 0.  1.
         23    2    1    2    0    0 -0.71054273576E-14  0.00000000000E+00  0.44408920985E-15  0.91188000000E+02  0.91188000000E+02 0.  0.
    9900012    2    3    3    0    0 -0.34321094533E+02 -0.13107886267E+02 -0.24547962625E+01  0.54367078814E+02  0.39999987772E+02 0.  0.
         12    1    3    3    0    0  0.34321094533E+02  0.13107886267E+02  0.24547962625E+01  0.36820921186E+02  0.00000000000E+00 0. -1.
         11    1    4    4    0    0 -0.87086765255E+01  0.14846640639E+01 -0.86318192813E+01  0.12351258178E+02  0.51100000000E-03 0.  1.
        -11    1    4    4    0    0  0.55311473742E+01 -0.38053483669E+01 -0.36255482149E+01  0.76301289366E+01  0.51100000000E-03 0. -1.
         12    1    4    4    0    0 -0.31143565381E+02 -0.10787201964E+02  0.98025712337E+01  0.34385691700E+02  0.00000000000E+00 0. -1.
</event>
<event>
 8    1  0.1269154E-006  0.9118800E+02  0.7816164E-02  0.1184000E+00
        -11   -1    0    0    0    0  0.00000000000E+00  0.00000000000E+00  0.45593999997E+02  0.45594000000E+02  0.51100000000E-03 0.  1.
         11   -1    0    0    0    0 -0.00000000000E+00 -0.00000000000E+00 -0.45593999997E+02  0.45594000000E+02  0.51100000000E-03 0. -1.
         23    2    1    2    0    0  0.00000000000E+00 -0.17763568394E-14  0.00000000000E+00  0.91188000000E+02  0.91188000000E+02 0.  0.
    9900012    2    3    3    0    0 -0.12416918664E+02  0.12802908605E+02  0.32213190608E+02  0.54367027891E+02  0.39999871684E+02 0.  0.
         12    1    3    3    0    0  0.12416918664E+02 -0.12802908605E+02 -0.32213190608E+02  0.36820972109E+02  0.00000000000E+00 0. -1.
         11    1    4    4    0    0 -0.10290737110E+02  0.37669060275E+01  0.60826627884E+00  0.10975374227E+02  0.51100000000E-03 0. -1.
        -11    1    4    4    0    0 -0.13537193275E+02 -0.21469527337E+01  0.15826104768E+02  0.20936346391E+02  0.51100000000E-03 0.  1.
        -12    1    4    4    0    0  0.11411011721E+02  0.11182955311E+02  0.15778819562E+02  0.22455307274E+02  0.00000000000E+00 0.  1.
</event>
<event>
 8    1  0.1269154E-006  0.9118800E+02  0.7816164E-02  0.1184000E+00
        -11   -1    0    0    0    0  0.00000000000E+00  0.00000000000E+00  0.45593999997E+02  0.45594000000E+02  0.51100000000E-03 0.  1.
         11   -1    0    0    0    0 -0.00000000000E+00 -0.00000000000E+00 -0.45593999997E+02  0.45594000000E+02  0.51100000000E-03 0. -1.
         23    2    1    2    0    0  0.17763568394E-14  0.00000000000E+00  0.00000000000E+00  0.91188000000E+02  0.91188000000E+02 0.  0.
    9900012    2    3    3    0    0  0.11530514245E+02 -0.94430852572E+01  0.33669771224E+02  0.54367107667E+02  0.40000053548E+02 0.  0.
         12    1    3    3    0    0 -0.11530514245E+02  0.94430852572E+01 -0.33669771224E+02  0.36820892333E+02  0.00000000000E+00 0. -1.
         11    1    4    4    0    0 -0.56253836853E+01 -0.57653453544E+01  0.28611577311E+01  0.85481209915E+01  0.51100000000E-03 0. -1.
        -11    1    4    4    0    0  0.25195328671E+02 -0.40423847685E+01  0.20445763964E+02  0.32698237350E+02  0.51100000000E-03 0.  1.
        -12    1    4    4    0    0 -0.80394307401E+01  0.36464486575E+00  0.10362849529E+02  0.13120749326E+02  0.00000000000E+00 0.  1.
</event>
<event>
 8    1  0.1269154E-006  0.9118800E+02  0.7816164E-02  0.1184000E+00
        -11   -1    0    0    0    0  0.00000000000E+00  0.00000000000E+00  0.45593999997E+02  0.45594000000E+02  0.51100000000E-03 0.  1.
         11   -1    0    0    0    0 -0.00000000000E+00 -0.00000000000E+00 -0.45593999997E+02  0.45594000000E+02  0.51100000000E-03 0. -1.
         23    2    1    2    0    0  0.00000000000E+00  0.00000000000E+00 -0.53290705182E-14  0.91188000000E+02  0.91188000000E+02 0.  0.
    9900012    2    3    3    0    0  0.99252791275E+01  0.34366457662E+02 -0.87301159961E+01  0.54367088777E+02  0.40000010484E+02 0.  0.
         12    1    3    3    0    0 -0.99252791275E+01 -0.34366457662E+02  0.87301159961E+01  0.36820911223E+02  0.00000000000E+00 0. -1.
         11    1    4    4    0    0 -0.99751076974E+01  0.15654531379E+02 -0.41100336919E+01  0.19012088351E+02  0.51100000000E-03 0. -1.
        -11    1    4    4    0    0  0.36075838295E+01  0.66104871106E+01  0.83694174356E+01  0.11258789873E+02  0.51100000000E-03 0.  1.
        -12    1    4    4    0    0  0.16292802995E+02  0.12101439173E+02 -0.12989499740E+02  0.24096210553E+02  0.00000000000E+00 0.  1.
</event>
<event>
 8    1  0.1269154E-006  0.9118800E+02  0.7816164E-02  0.1184000E+00
        -11   -1    0    0    0    0  0.00000000000E+00  0.00000000000E+00  0.45593999997E+02  0.45594000000E+02  0.51100000000E-03 0.  1.
         11   -1    0    0    0    0 -0.00000000000E+00 -0.00000000000E+00 -0.45593999997E+02  0.45594000000E+02  0.51100000000E-03 0. -1.
         23    2    1    2    0    0  0.35527136788E-14  0.35527136788E-14 -0.17763568394E-14  0.91188000000E+02  0.91188000000E+02 0.  0.
    9900012    2    3    3    0    0  0.24555430036E+02 -0.23077637514E+02  0.14840224829E+02  0.54367098728E+02  0.40000033171E+02 0.  0.
         12    1    3    3    0    0 -0.24555430036E+02  0.23077637514E+02 -0.14840224829E+02  0.36820901272E+02  0.00000000000E+00 0. -1.
         11    1    4    4    0    0  0.51959752932E+01 -0.13009623054E+02  0.66603037227E+01  0.15511547221E+02  0.51100000000E-03 0. -1.
        -11    1    4    4    0    0  0.86621375976E+01 -0.16557144015E+02  0.15571420618E+02  0.24323667199E+02  0.51100000000E-03 0.  1.
         12    1    4    4    0    0  0.10697317145E+02  0.64891295552E+01 -0.73914995117E+01  0.14531884307E+02  0.00000000000E+00 0. -1.
</event>
<event>
 8    1  0.1269154E-006  0.9118800E+02  0.7816164E-02  0.1184000E+00
        -11   -1    0    0    0    0  0.00000000000E+00  0.00000000000E+00  0.45593999997E+02  0.45594000000E+02  0.51100000000E-03 0. -1.
         11   -1    0    0    0    0 -0.00000000000E+00 -0.00000000000E+00 -0.45593999997E+02  0.45594000000E+02  0.51100000000E-03 0.  1.
         23    2    1    2    0    0  0.00000000000E+00 -0.17763568394E-14  0.71054273576E-14  0.91188000000E+02  0.91188000000E+02 0.  0.
    9900012    2    3    3    0    0 -0.74516107010E+00 -0.10143977374E+02 -0.35388200461E+02  0.54367078314E+02  0.39999986632E+02 0.  0.
         12    1    3    3    0    0  0.74516107010E+00  0.10143977374E+02  0.35388200461E+02  0.36820921686E+02  0.00000000000E+00 0. -1.
         11    1    4    4    0    0 -0.72571167949E+00 -0.84222309780E+01 -0.28716555560E+02  0.29934949400E+02  0.51100000000E-03 0. -1.
        -11    1    4    4    0    0 -0.15407502198E+01 -0.86295159019E+01 -0.12499682165E+02  0.15267105503E+02  0.51100000000E-03 0.  1.
         12    1    4    4    0    0  0.15213008292E+01  0.69077695060E+01  0.58280372647E+01  0.91650234107E+01  0.00000000000E+00 0. -1.
</event>
<event>
 8    1  0.1269154E-006  0.9118800E+02  0.7816164E-02  0.1184000E+00
        -11   -1    0    0    0    0  0.00000000000E+00  0.00000000000E+00  0.45593999997E+02  0.45594000000E+02  0.51100000000E-03 0. -1.
         11   -1    0    0    0    0 -0.00000000000E+00 -0.00000000000E+00 -0.45593999997E+02  0.45594000000E+02  0.51100000000E-03 0.  1.
         23    2    1    2    0    0  0.00000000000E+00 -0.17763568394E-14  0.35527136788E-14  0.91188000000E+02  0.91188000000E+02 0.  0.
    9900012    2    3    3    0    0 -0.25141091823E+02  0.11878771272E+02 -0.24137294690E+02  0.54366963894E+02  0.39999725788E+02 0.  0.
         12    1    3    3    0    0  0.25141091823E+02 -0.11878771272E+02  0.24137294690E+02  0.36821036106E+02  0.00000000000E+00 0. -1.
         11    1    4    4    0    0 -0.16704023786E+02  0.16117463396E+02  0.44346401934E+01  0.23631823266E+02  0.51100000000E-03 0. -1.
        -11    1    4    4    0    0 -0.66741199502E+00 -0.32606752894E+01 -0.62752928782E+01  0.71032910037E+01  0.51100000000E-03 0.  1.
         12    1    4    4    0    0 -0.77696560417E+01 -0.97801683501E+00 -0.22296642005E+02  0.23631849624E+02  0.00000000000E+00 0. -1.
</event>
<event>
 8    1  0.1269154E-006  0.9118800E+02  0.7816164E-02  0.1184000E+00
        -11   -1    0    0    0    0  0.00000000000E+00  0.00000000000E+00  0.45593999997E+02  0.45594000000E+02  0.51100000000E-03 0.  1.
         11   -1    0    0    0    0 -0.00000000000E+00 -0.00000000000E+00 -0.45593999997E+02  0.45594000000E+02  0.51100000000E-03 0. -1.
         23    2    1    2    0    0  0.00000000000E+00 -0.17763568394E-14  0.00000000000E+00  0.91188000000E+02  0.91188000000E+02 0.  0.
    9900012    2    3    3    0    0  0.20650453786E+02 -0.13002205365E+02 -0.27573201181E+02  0.54367081906E+02  0.39999994821E+02 0.  0.
        -12    1    3    3    0    0 -0.20650453786E+02  0.13002205365E+02  0.27573201181E+02  0.36820918094E+02  0.00000000000E+00 0.  1.
         11    1    4    4    0    0 -0.50198735878E+01 -0.61238923925E+01 -0.86896986680E+01  0.11756362196E+02  0.51100000000E-03 0. -1.
        -11    1    4    4    0    0 -0.55185454416E+01 -0.27839810660E+01 -0.60123750219E+01  0.86228503427E+01  0.51100000000E-03 0.  1.
        -12    1    4    4    0    0  0.31188872815E+02 -0.40943319069E+01 -0.12871127491E+02  0.33987869368E+02  0.00000000000E+00 0.  1.
</event>
<event>
 8    1  0.1269154E-006  0.9118800E+02  0.7816164E-02  0.1184000E+00
        -11   -1    0    0    0    0  0.00000000000E+00  0.00000000000E+00  0.45593999997E+02  0.45594000000E+02  0.51100000000E-03 0.  1.
         11   -1    0    0    0    0 -0.00000000000E+00 -0.00000000000E+00 -0.45593999997E+02  0.45594000000E+02  0.51100000000E-03 0. -1.
         23    2    1    2    0    0 -0.88817841970E-15 -0.88817841970E-15  0.00000000000E+00  0.91188000000E+02  0.91188000000E+02 0.  0.
    9900012    2    3    3    0    0  0.71907029934E+01  0.79351596771E+01  0.35229358936E+02  0.54367072531E+02  0.39999973448E+02 0.  0.
         12    1    3    3    0    0 -0.71907029934E+01 -0.79351596771E+01 -0.35229358936E+02  0.36820927469E+02  0.00000000000E+00 0. -1.
         11    1    4    4    0    0  0.12175007329E+01  0.83439122761E+00 -0.39471967078E+01  0.42141284825E+01  0.51100000000E-03 0. -1.
        -11    1    4    4    0    0 -0.99069756897E+01 -0.10689582701E+01  0.40669509643E+01  0.10762477852E+02  0.51100000000E-03 0.  1.
        -12    1    4    4    0    0  0.15880177950E+02  0.81697267196E+01  0.35109604680E+02  0.39390466197E+02  0.00000000000E+00 0.  1.
</event>
<event>
 8    1  0.1269154E-006  0.9118800E+02  0.7816164E-02  0.1184000E+00
        -11   -1    0    0    0    0  0.00000000000E+00  0.00000000000E+00  0.45593999997E+02  0.45594000000E+02  0.51100000000E-03 0.  1.
         11   -1    0    0    0    0 -0.00000000000E+00 -0.00000000000E+00 -0.45593999997E+02  0.45594000000E+02  0.51100000000E-03 0. -1.
         23    2    1    2    0    0  0.00000000000E+00  0.26645352591E-14 -0.17763568394E-14  0.91188000000E+02  0.91188000000E+02 0.  0.
    9900012    2    3    3    0    0 -0.34889726891E+02  0.38015025230E+01  0.11137123561E+02  0.54367082233E+02  0.39999995567E+02 0.  0.
         12    1    3    3    0    0  0.34889726891E+02 -0.38015025230E+01 -0.11137123561E+02  0.36820917767E+02  0.00000000000E+00 0. -1.
         11    1    4    4    0    0 -0.19112832543E+02 -0.91146191549E+01 -0.13285562479E+01  0.21216543359E+02  0.51100000000E-03 0. -1.
        -11    1    4    4    0    0 -0.13518121337E+02  0.16291439622E+02  0.12321771026E+01  0.21205397193E+02  0.51100000000E-03 0.  1.
        -12    1    4    4    0    0 -0.22587730116E+01 -0.33753179439E+01  0.11233502706E+02  0.11945141681E+02  0.00000000000E+00 0.  1.
</event>
<event>
 8    1  0.1269154E-006  0.9118800E+02  0.7816164E-02  0.1184000E+00
        -11   -1    0    0    0    0  0.00000000000E+00  0.00000000000E+00  0.45593999997E+02  0.45594000000E+02  0.51100000000E-03 0.  1.
         11   -1    0    0    0    0 -0.00000000000E+00 -0.00000000000E+00 -0.45593999997E+02  0.45594000000E+02  0.51100000000E-03 0. -1.
         23    2    1    2    0    0 -0.35527136788E-14  0.00000000000E+00 -0.35527136788E-14  0.91188000000E+02  0.91188000000E+02 0.  0.
    9900012    2    3    3    0    0 -0.30780516252E+02  0.86687799899E+01 -0.18253535609E+02  0.54367088964E+02  0.40000010912E+02 0.  0.
        -12    1    3    3    0    0  0.30780516252E+02 -0.86687799899E+01  0.18253535609E+02  0.36820911036E+02  0.00000000000E+00 0.  1.
         11    1    4    4    0    0  0.59851946328E+01  0.10522966915E+01  0.79446792907E+00  0.61287080752E+01  0.51100000000E-03 0. -1.
        -11    1    4    4    0    0 -0.10900365280E+02  0.82999093246E+01  0.32509297158E+01  0.14081015670E+02  0.51100000000E-03 0.  1.
         12    1    4    4    0    0 -0.25865345605E+02 -0.68342602618E+00 -0.22298933254E+02  0.34157365219E+02  0.00000000000E+00 0. -1.
</event>
<event>
 8    1  0.1269154E-006  0.9118800E+02  0.7816164E-02  0.1184000E+00
        -11   -1    0    0    0    0  0.00000000000E+00  0.00000000000E+00  0.45593999997E+02  0.45594000000E+02  0.51100000000E-03 0.  1.
         11   -1    0    0    0    0 -0.00000000000E+00 -0.00000000000E+00 -0.45593999997E+02  0.45594000000E+02  0.51100000000E-03 0. -1.
         23    2    1    2    0    0  0.35527136788E-14  0.71054273576E-14  0.00000000000E+00  0.91188000000E+02  0.91188000000E+02 0.  0.
    9900012    2    3    3    0    0 -0.13316690521E+02 -0.33070810616E+02 -0.92068023583E+01  0.54367109585E+02  0.40000057922E+02 0.  0.
        -12    1    3    3    0    0  0.13316690521E+02  0.33070810616E+02  0.92068023583E+01  0.36820890415E+02  0.00000000000E+00 0.  1.
         11    1    4    4    0    0 -0.38432029026E+01  0.19963111798E+01  0.19310067799E+01  0.47417564596E+01  0.51100000000E-03 0. -1.
        -11    1    4    4    0    0 -0.16923911696E+02 -0.20691341188E+02  0.45091358029E+01  0.27108719873E+02  0.51100000000E-03 0.  1.
         12    1    4    4    0    0  0.74504240772E+01 -0.14375780609E+02 -0.15646944941E+02  0.22516633253E+02  0.00000000000E+00 0. -1.
</event>
<event>
 8    1  0.1269154E-006  0.9118800E+02  0.7816164E-02  0.1184000E+00
        -11   -1    0    0    0    0  0.00000000000E+00  0.00000000000E+00  0.45593999997E+02  0.45594000000E+02  0.51100000000E-03 0.  1.
         11   -1    0    0    0    0 -0.00000000000E+00 -0.00000000000E+00 -0.45593999997E+02  0.45594000000E+02  0.51100000000E-03 0. -1.
         23    2    1    2    0    0  0.13322676296E-14  0.00000000000E+00  0.00000000000E+00  0.91188000000E+02  0.91188000000E+02 0.  0.
    9900012    2    3    3    0    0  0.35801259986E+01  0.36429007798E+02  0.39862177094E+01  0.54367084165E+02  0.39999999970E+02 0.  0.
         12    1    3    3    0    0 -0.35801259986E+01 -0.36429007798E+02 -0.39862177094E+01  0.36820915835E+02  0.00000000000E+00 0. -1.
         11    1    4    4    0    0  0.83817487083E+01  0.16509729316E+02 -0.40860416475E+01  0.18961028719E+02  0.51100000000E-03 0. -1.
        -11    1    4    4    0    0  0.10027896847E+02  0.41701320784E+01  0.84659818298E+01  0.13770314642E+02  0.51100000000E-03 0.  1.
         12    1    4    4    0    0 -0.14829519557E+02  0.15749146404E+02 -0.39372247293E+00  0.21635740804E+02  0.00000000000E+00 0. -1.
</event>
<event>
 8    1  0.1269154E-006  0.9118800E+02  0.7816164E-02  0.1184000E+00
        -11   -1    0    0    0    0  0.00000000000E+00  0.00000000000E+00  0.45593999997E+02  0.45594000000E+02  0.51100000000E-03 0. -1.
         11   -1    0    0    0    0 -0.00000000000E+00 -0.00000000000E+00 -0.45593999997E+02  0.45594000000E+02  0.51100000000E-03 0.  1.
         23    2    1    2    0    0 -0.44408920985E-15  0.00000000000E+00  0.00000000000E+00  0.91188000000E+02  0.91188000000E+02 0.  0.
    9900012    2    3    3    0    0  0.23817103648E+01 -0.27296346591E+02  0.24597106114E+02  0.54367072382E+02  0.39999973109E+02 0.  0.
        -12    1    3    3    0    0 -0.23817103648E+01  0.27296346591E+02 -0.24597106114E+02  0.36820927618E+02  0.00000000000E+00 0.  1.
         11    1    4    4    0    0 -0.65691776188E+01 -0.12268518883E+01  0.12838717675E+02  0.14473836117E+02  0.51100000000E-03 0. -1.
        -11    1    4    4    0    0  0.71256323053E+01  0.30277256480E+01  0.68318672764E+01  0.10325510597E+02  0.51100000000E-03 0.  1.
        -12    1    4    4    0    0  0.18252556783E+01 -0.29097220350E+02  0.49265211630E+01  0.29567725668E+02  0.00000000000E+00 0.  1.
</event>
<event>
 8    1  0.1269154E-006  0.9118800E+02  0.7816164E-02  0.1184000E+00
        -11   -1    0    0    0    0  0.00000000000E+00  0.00000000000E+00  0.45593999997E+02  0.45594000000E+02  0.51100000000E-03 0. -1.
         11   -1    0    0    0    0 -0.00000000000E+00 -0.00000000000E+00 -0.45593999997E+02  0.45594000000E+02  0.51100000000E-03 0.  1.
         23    2    1    2    0    0  0.17763568394E-14 -0.44408920985E-15  0.00000000000E+00  0.91188000000E+02  0.91188000000E+02 0.  0.
    9900012    2    3    3    0    0 -0.11265060704E+02 -0.36416678646E+01 -0.34865701101E+02  0.54367075911E+02  0.39999981154E+02 0.  0.
         12    1    3    3    0    0  0.11265060704E+02  0.36416678646E+01  0.34865701101E+02  0.36820924089E+02  0.00000000000E+00 0. -1.
         11    1    4    4    0    0 -0.81177000536E+01 -0.70120349498E+01 -0.32603639695E+01  0.11211407662E+02  0.51100000000E-03 0. -1.
        -11    1    4    4    0    0  0.12208140016E+02  0.66351437521E+00 -0.71821681893E+01  0.14179650000E+02  0.51100000000E-03 0.  1.
        -12    1    4    4    0    0 -0.15355500666E+02  0.27068527101E+01 -0.24423168942E+02  0.28976018248E+02  0.00000000000E+00 0.  1.
</event>
<event>
 8    1  0.1269154E-006  0.9118800E+02  0.7816164E-02  0.1184000E+00
        -11   -1    0    0    0    0  0.00000000000E+00  0.00000000000E+00  0.45593999997E+02  0.45594000000E+02  0.51100000000E-03 0.  1.
         11   -1    0    0    0    0 -0.00000000000E+00 -0.00000000000E+00 -0.45593999997E+02  0.45594000000E+02  0.51100000000E-03 0. -1.
         23    2    1    2    0    0  0.00000000000E+00 -0.71054273576E-14 -0.88817841970E-15  0.91188000000E+02  0.91188000000E+02 0.  0.
    9900012    2    3    3    0    0 -0.16184188389E+02 -0.32893632658E+02  0.34439285550E+01  0.54367086552E+02  0.40000005412E+02 0.  0.
        -12    1    3    3    0    0  0.16184188389E+02  0.32893632658E+02 -0.34439285550E+01  0.36820913448E+02  0.00000000000E+00 0.  1.
         11    1    4    4    0    0 -0.68590408927E+01 -0.29244377600E+02 -0.11507501690E+02  0.32166794347E+02  0.51100000000E-03 0. -1.
        -11    1    4    4    0    0 -0.40122455629E+01  0.41404465257E+01  0.18430171302E+01  0.60529434404E+01  0.51100000000E-03 0.  1.
        -12    1    4    4    0    0 -0.53129019334E+01 -0.77897015841E+01  0.13108413115E+02  0.16147348764E+02  0.00000000000E+00 0.  1.
</event>
<event>
 8    1  0.1269154E-006  0.9118800E+02  0.7816164E-02  0.1184000E+00
        -11   -1    0    0    0    0  0.00000000000E+00  0.00000000000E+00  0.45593999997E+02  0.45594000000E+02  0.51100000000E-03 0. -1.
         11   -1    0    0    0    0 -0.00000000000E+00 -0.00000000000E+00 -0.45593999997E+02  0.45594000000E+02  0.51100000000E-03 0.  1.
         23    2    1    2    0    0  0.17763568394E-14  0.00000000000E+00 -0.88817841970E-15  0.91188000000E+02  0.91188000000E+02 0.  0.
    9900012    2    3    3    0    0 -0.12365860290E+02  0.34463977072E+02  0.38870803392E+01  0.54366951537E+02  0.39999697618E+02 0.  0.
        -12    1    3    3    0    0  0.12365860290E+02 -0.34463977072E+02 -0.38870803392E+01  0.36821048463E+02  0.00000000000E+00 0.  1.
         11    1    4    4    0    0  0.17444058732E+01  0.13941861095E+02  0.18122283734E+01  0.14166955022E+02  0.51100000000E-03 0. -1.
        -11    1    4    4    0    0  0.82192943490E+01  0.10649784563E+02 -0.56521335296E+01  0.14591823893E+02  0.51100000000E-03 0.  1.
         12    1    4    4    0    0 -0.22329560512E+02  0.98723314143E+01  0.77269854954E+01  0.25608172622E+02  0.00000000000E+00 0. -1.
</event>
<event>
 8    1  0.1269154E-006  0.9118800E+02  0.7816164E-02  0.1184000E+00
        -11   -1    0    0    0    0  0.00000000000E+00  0.00000000000E+00  0.45593999997E+02  0.45594000000E+02  0.51100000000E-03 0. -1.
         11   -1    0    0    0    0 -0.00000000000E+00 -0.00000000000E+00 -0.45593999997E+02  0.45594000000E+02  0.51100000000E-03 0.  1.
         23    2    1    2    0    0 -0.71054273576E-14  0.35527136788E-14  0.14432899320E-14  0.91188000000E+02  0.91188000000E+02 0.  0.
    9900012    2    3    3    0    0 -0.18862822294E+02  0.31609020088E+02  0.91833195106E+00  0.54367088151E+02  0.40000009057E+02 0.  0.
         12    1    3    3    0    0  0.18862822294E+02 -0.31609020088E+02 -0.91833195106E+00  0.36820911849E+02  0.00000000000E+00 0. -1.
         11    1    4    4    0    0 -0.84161440046E+01  0.94242077059E+01 -0.59483667592E+01  0.13965322701E+02  0.51100000000E-03 0. -1.
        -11    1    4    4    0    0  0.75072493461E+01  0.20409526531E+02  0.44798741411E+01  0.22203081736E+02  0.51100000000E-03 0.  1.
         12    1    4    4    0    0 -0.17953927635E+02  0.17752858513E+01  0.23868245692E+01  0.18198683714E+02  0.00000000000E+00 0. -1.
</event>
<event>
 8    1  0.1269154E-006  0.9118800E+02  0.7816164E-02  0.1184000E+00
        -11   -1    0    0    0    0  0.00000000000E+00  0.00000000000E+00  0.45593999997E+02  0.45594000000E+02  0.51100000000E-03 0. -1.
         11   -1    0    0    0    0 -0.00000000000E+00 -0.00000000000E+00 -0.45593999997E+02  0.45594000000E+02  0.51100000000E-03 0.  1.
         23    2    1    2    0    0  0.00000000000E+00 -0.72164496601E-15  0.17763568394E-14  0.91188000000E+02  0.91188000000E+02 0.  0.
    9900012    2    3    3    0    0  0.34624551434E+02  0.75042260000E-01 -0.12526518657E+02  0.54367097471E+02  0.40000030305E+02 0.  0.
        -12    1    3    3    0    0 -0.34624551434E+02 -0.75042260000E-01  0.12526518657E+02  0.36820902529E+02  0.00000000000E+00 0.  1.
         11    1    4    4    0    0  0.99079006159E+01 -0.10580858634E+02  0.48826627224E+01  0.15295798756E+02  0.51100000000E-03 0. -1.
        -11    1    4    4    0    0  0.19904859551E+02  0.24237334446E+00 -0.18965668321E+02  0.27494704103E+02  0.51100000000E-03 0.  1.
        -12    1    4    4    0    0  0.48117912676E+01  0.10413527550E+02  0.15564869409E+01  0.11576594613E+02  0.00000000000E+00 0.  1.
</event>
<event>
 8    1  0.1269154E-006  0.9118800E+02  0.7816164E-02  0.1184000E+00
        -11   -1    0    0    0    0  0.00000000000E+00  0.00000000000E+00  0.45593999997E+02  0.45594000000E+02  0.51100000000E-03 0.  1.
         11   -1    0    0    0    0 -0.00000000000E+00 -0.00000000000E+00 -0.45593999997E+02  0.45594000000E+02  0.51100000000E-03 0. -1.
         23    2    1    2    0    0  0.44408920985E-15  0.35527136788E-14  0.00000000000E+00  0.91188000000E+02  0.91188000000E+02 0.  0.
    9900012    2    3    3    0    0  0.15137792632E+01  0.14425915991E+02 -0.33843474236E+02  0.54367091155E+02  0.40000015906E+02 0.  0.
        -12    1    3    3    0    0 -0.15137792632E+01 -0.14425915991E+02  0.33843474236E+02  0.36820908845E+02  0.00000000000E+00 0.  1.
         11    1    4    4    0    0  0.78577062444E+01 -0.23864380855E+01 -0.36944725365E+01  0.90048743324E+01  0.51100000000E-03 0. -1.
        -11    1    4    4    0    0 -0.11521254147E+02 -0.28847591347E+01 -0.47141306359E+01  0.12778269065E+02  0.51100000000E-03 0.  1.
         12    1    4    4    0    0  0.51773271661E+01  0.19697113211E+02 -0.25434871063E+02  0.32583947757E+02  0.00000000000E+00 0. -1.
</event>
<event>
 8    1  0.1269154E-006  0.9118800E+02  0.7816164E-02  0.1184000E+00
        -11   -1    0    0    0    0  0.00000000000E+00  0.00000000000E+00  0.45593999997E+02  0.45594000000E+02  0.51100000000E-03 0.  1.
         11   -1    0    0    0    0 -0.00000000000E+00 -0.00000000000E+00 -0.45593999997E+02  0.45594000000E+02  0.51100000000E-03 0. -1.
         23    2    1    2    0    0 -0.71054273576E-14 -0.17763568394E-14 -0.88817841970E-15  0.91188000000E+02  0.91188000000E+02 0.  0.
    9900012    2    3    3    0    0  0.35612929717E+02 -0.51814017369E+01 -0.77880730310E+01  0.54367058017E+02  0.39999940361E+02 0.  0.
         12    1    3    3    0    0 -0.35612929717E+02  0.51814017369E+01  0.77880730310E+01  0.36820941983E+02  0.00000000000E+00 0. -1.
         11    1    4    4    0    0  0.81702922467E+01 -0.17466433384E+02 -0.38583649246E+01  0.19665120155E+02  0.51100000000E-03 0. -1.
        -11    1    4    4    0    0  0.11915596608E+02  0.20033462340E+01  0.61160500386E+01  0.13542559101E+02  0.51100000000E-03 0.  1.
         12    1    4    4    0    0  0.15527040862E+02  0.10281685413E+02 -0.10045758145E+02  0.21159378761E+02  0.00000000000E+00 0. -1.
</event>
<event>
 8    1  0.1269154E-006  0.9118800E+02  0.7816164E-02  0.1184000E+00
        -11   -1    0    0    0    0  0.00000000000E+00  0.00000000000E+00  0.45593999997E+02  0.45594000000E+02  0.51100000000E-03 0.  1.
         11   -1    0    0    0    0 -0.00000000000E+00 -0.00000000000E+00 -0.45593999997E+02  0.45594000000E+02  0.51100000000E-03 0. -1.
         23    2    1    2    0    0  0.35527136788E-14  0.00000000000E+00  0.00000000000E+00  0.91188000000E+02  0.91188000000E+02 0.  0.
    9900012    2    3    3    0    0 -0.24469798905E+02  0.20153629534E+02 -0.18730717105E+02  0.54367087394E+02  0.40000007333E+02 0.  0.
         12    1    3    3    0    0  0.24469798905E+02 -0.20153629534E+02  0.18730717105E+02  0.36820912606E+02  0.00000000000E+00 0. -1.
         11    1    4    4    0    0 -0.13106497005E+02 -0.15063224065E+01 -0.11484934356E+02  0.17491511895E+02  0.51100000000E-03 0. -1.
        -11    1    4    4    0    0 -0.23836288181E+01  0.69644343255E+01 -0.15959110245E+02  0.17574931917E+02  0.51100000000E-03 0.  1.
        -12    1    4    4    0    0 -0.89796730817E+01  0.14695517615E+02  0.87133274963E+01  0.19300643582E+02  0.00000000000E+00 0.  1.
</event>
<event>
 8    1  0.1269154E-006  0.9118800E+02  0.7816164E-02  0.1184000E+00
        -11   -1    0    0    0    0  0.00000000000E+00  0.00000000000E+00  0.45593999997E+02  0.45594000000E+02  0.51100000000E-03 0.  1.
         11   -1    0    0    0    0 -0.00000000000E+00 -0.00000000000E+00 -0.45593999997E+02  0.45594000000E+02  0.51100000000E-03 0. -1.
         23    2    1    2    0    0 -0.17763568394E-14 -0.22204460493E-15  0.00000000000E+00  0.91188000000E+02  0.91188000000E+02 0.  0.
    9900012    2    3    3    0    0  0.15835169347E+02  0.19448882695E+01 -0.33185002202E+02  0.54367088146E+02  0.40000009046E+02 0.  0.
        -12    1    3    3    0    0 -0.15835169347E+02 -0.19448882695E+01  0.33185002202E+02  0.36820911854E+02  0.00000000000E+00 0.  1.
         11    1    4    4    0    0  0.13801409369E+02  0.10363355958E+02 -0.28731167603E+02  0.33516533821E+02  0.51100000000E-03 0. -1.
        -11    1    4    4    0    0  0.42072330059E+01  0.16040317296E+01  0.51218299851E+01  0.68195945637E+01  0.51100000000E-03 0.  1.
         12    1    4    4    0    0 -0.21734730271E+01 -0.10022499418E+02 -0.95756645839E+01  0.14030959761E+02  0.00000000000E+00 0. -1.
</event>
<event>
 8    1  0.1269154E-006  0.9118800E+02  0.7816164E-02  0.1184000E+00
        -11   -1    0    0    0    0  0.00000000000E+00  0.00000000000E+00  0.45593999997E+02  0.45594000000E+02  0.51100000000E-03 0. -1.
         11   -1    0    0    0    0 -0.00000000000E+00 -0.00000000000E+00 -0.45593999997E+02  0.45594000000E+02  0.51100000000E-03 0.  1.
         23    2    1    2    0    0  0.35527136788E-14 -0.71054273576E-14 -0.53290705182E-14  0.91188000000E+02  0.91188000000E+02 0.  0.
    9900012    2    3    3    0    0  0.27554618203E+02 -0.19793162884E+02 -0.14309219451E+02  0.54367081454E+02  0.39999993790E+02 0.  0.
         12    1    3    3    0    0 -0.27554618203E+02  0.19793162884E+02  0.14309219451E+02  0.36820918546E+02  0.00000000000E+00 0. -1.
         11    1    4    4    0    0  0.30076356345E+01  0.37905593583E+01  0.53561015824E+01  0.72181740614E+01  0.51100000000E-03 0. -1.
        -11    1    4    4    0    0  0.29892129176E+02 -0.18160183417E+02 -0.14073089455E+02  0.37701239973E+02  0.51100000000E-03 0.  1.
         12    1    4    4    0    0 -0.53451466073E+01 -0.54235388258E+01 -0.55922315782E+01  0.94476674196E+01  0.00000000000E+00 0. -1.
</event>
<event>
 8    1  0.1269154E-006  0.9118800E+02  0.7816164E-02  0.1184000E+00
        -11   -1    0    0    0    0  0.00000000000E+00  0.00000000000E+00  0.45593999997E+02  0.45594000000E+02  0.51100000000E-03 0. -1.
         11   -1    0    0    0    0 -0.00000000000E+00 -0.00000000000E+00 -0.45593999997E+02  0.45594000000E+02  0.51100000000E-03 0.  1.
         23    2    1    2    0    0  0.44408920985E-15  0.00000000000E+00  0.00000000000E+00  0.91188000000E+02  0.91188000000E+02 0.  0.
    9900012    2    3    3    0    0 -0.13954882646E+01  0.22020741964E+02 -0.29477430026E+02  0.54367090926E+02  0.40000015383E+02 0.  0.
         12    1    3    3    0    0  0.13954882646E+01 -0.22020741964E+02  0.29477430026E+02  0.36820909074E+02  0.00000000000E+00 0. -1.
         11    1    4    4    0    0  0.13116356979E+02  0.62568334418E+00 -0.23194835251E+02  0.26653905579E+02  0.51100000000E-03 0. -1.
        -11    1    4    4    0    0 -0.37688493458E+01  0.10147315760E+02  0.28786566775E+00  0.10828439843E+02  0.51100000000E-03 0.  1.
         12    1    4    4    0    0 -0.10742995897E+02  0.11247742860E+02 -0.65704604425E+01  0.16884745504E+02  0.00000000000E+00 0. -1.
</event>
<event>
 8    1  0.1269154E-006  0.9118800E+02  0.7816164E-02  0.1184000E+00
        -11   -1    0    0    0    0  0.00000000000E+00  0.00000000000E+00  0.45593999997E+02  0.45594000000E+02  0.51100000000E-03 0.  1.
         11   -1    0    0    0    0 -0.00000000000E+00 -0.00000000000E+00 -0.45593999997E+02  0.45594000000E+02  0.51100000000E-03 0. -1.
         23    2    1    2    0    0  0.00000000000E+00  0.17763568394E-14  0.00000000000E+00  0.91188000000E+02  0.91188000000E+02 0.  0.
    9900012    2    3    3    0    0  0.76923323740E+01 -0.95810347277E+01  0.34710395916E+02  0.54367084905E+02  0.40000001658E+02 0.  0.
         12    1    3    3    0    0 -0.76923323740E+01  0.95810347277E+01 -0.34710395916E+02  0.36820915095E+02  0.00000000000E+00 0. -1.
         11    1    4    4    0    0 -0.97396695629E+01 -0.44695912612E+01 -0.39522814334E+00  0.10723554205E+02  0.51100000000E-03 0. -1.
        -11    1    4    4    0    0  0.14143865475E+02 -0.11543213945E+02  0.21229171141E+02  0.27999507610E+02  0.51100000000E-03 0.  1.
        -12    1    4    4    0    0  0.32881364617E+01  0.64317704784E+01  0.13876452918E+02  0.15644023091E+02  0.00000000000E+00 0.  1.
</event>
<event>
 8    1  0.1269154E-006  0.9118800E+02  0.7816164E-02  0.1184000E+00
        -11   -1    0    0    0    0  0.00000000000E+00  0.00000000000E+00  0.45593999997E+02  0.45594000000E+02  0.51100000000E-03 0. -1.
         11   -1    0    0    0    0 -0.00000000000E+00 -0.00000000000E+00 -0.45593999997E+02  0.45594000000E+02  0.51100000000E-03 0.  1.
         23    2    1    2    0    0  0.71054273576E-14  0.44408920985E-15  0.35527136788E-14  0.91188000000E+02  0.91188000000E+02 0.  0.
    9900012    2    3    3    0    0 -0.32457113045E+02 -0.35830589200E+01 -0.17014140317E+02  0.54367034923E+02  0.39999887714E+02 0.  0.
        -12    1    3    3    0    0  0.32457113045E+02  0.35830589200E+01  0.17014140317E+02  0.36820965077E+02  0.00000000000E+00 0.  1.
         11    1    4    4    0    0  0.12818590949E+01 -0.45539526438E+01 -0.75667094451E+00  0.47910540177E+01  0.51100000000E-03 0. -1.
        -11    1    4    4    0    0 -0.36898703148E+02  0.67935051023E+01 -0.69587309789E+01  0.38158746608E+02  0.51100000000E-03 0.  1.
        -12    1    4    4    0    0  0.31597310073E+01 -0.58226113785E+01 -0.92987383934E+01  0.11417234298E+02  0.00000000000E+00 0.  1.
</event>
<event>
 8    1  0.1269154E-006  0.9118800E+02  0.7816164E-02  0.1184000E+00
        -11   -1    0    0    0    0  0.00000000000E+00  0.00000000000E+00  0.45593999997E+02  0.45594000000E+02  0.51100000000E-03 0.  1.
         11   -1    0    0    0    0 -0.00000000000E+00 -0.00000000000E+00 -0.45593999997E+02  0.45594000000E+02  0.51100000000E-03 0. -1.
         23    2    1    2    0    0  0.00000000000E+00  0.00000000000E+00  0.00000000000E+00  0.91188000000E+02  0.91188000000E+02 0.  0.
    9900012    2    3    3    0    0  0.17943957721E+02 -0.64010787713E+01 -0.31509067747E+02  0.54367071462E+02  0.39999971012E+02 0.  0.
        -12    1    3    3    0    0 -0.17943957721E+02  0.64010787713E+01  0.31509067747E+02  0.36820928538E+02  0.00000000000E+00 0.  1.
         11    1    4    4    0    0  0.17796086584E+02 -0.40859787947E+00 -0.25188782050E+01  0.17978108844E+02  0.51100000000E-03 0. -1.
        -11    1    4    4    0    0 -0.51350118352E+01 -0.10870540412E+02 -0.86377439860E+01  0.14803635257E+02  0.51100000000E-03 0.  1.
         12    1    4    4    0    0  0.52828829726E+01  0.48780595200E+01 -0.20352445556E+02  0.21585327361E+02  0.00000000000E+00 0. -1.
</event>
<event>
 8    1  0.1269154E-006  0.9118800E+02  0.7816164E-02  0.1184000E+00
        -11   -1    0    0    0    0  0.00000000000E+00  0.00000000000E+00  0.45593999997E+02  0.45594000000E+02  0.51100000000E-03 0. -1.
         11   -1    0    0    0    0 -0.00000000000E+00 -0.00000000000E+00 -0.45593999997E+02  0.45594000000E+02  0.51100000000E-03 0.  1.
         23    2    1    2    0    0  0.00000000000E+00  0.71054273576E-14 -0.22204460493E-14  0.91188000000E+02  0.91188000000E+02 0.  0.
    9900012    2    3    3    0    0  0.86126976998E+01 -0.35674283423E+02  0.29910667317E+01  0.54367088283E+02  0.40000009360E+02 0.  0.
         12    1    3    3    0    0 -0.86126976998E+01  0.35674283423E+02 -0.29910667317E+01  0.36820911717E+02  0.00000000000E+00 0. -1.
         11    1    4    4    0    0  0.71424141369E+01  0.41734271000E+01 -0.52008538983E+01  0.97714100822E+01  0.51100000000E-03 0. -1.
        -11    1    4    4    0    0  0.97462679780E+01 -0.23701805071E+02  0.35889365172E+01  0.25877514732E+02  0.51100000000E-03 0.  1.
         12    1    4    4    0    0 -0.82759844150E+01 -0.16145905453E+02  0.46029841127E+01  0.18718163469E+02  0.00000000000E+00 0. -1.
</event>
<event>
 8    1  0.1269154E-006  0.9118800E+02  0.7816164E-02  0.1184000E+00
        -11   -1    0    0    0    0  0.00000000000E+00  0.00000000000E+00  0.45593999997E+02  0.45594000000E+02  0.51100000000E-03 0.  1.
         11   -1    0    0    0    0 -0.00000000000E+00 -0.00000000000E+00 -0.45593999997E+02  0.45594000000E+02  0.51100000000E-03 0. -1.
         23    2    1    2    0    0 -0.35527136788E-14 -0.88817841970E-15 -0.35527136788E-14  0.91188000000E+02  0.91188000000E+02 0.  0.
    9900012    2    3    3    0    0  0.21845816151E+02  0.73442817800E+01  0.28715884782E+02  0.54367079357E+02  0.39999989009E+02 0.  0.
         12    1    3    3    0    0 -0.21845816151E+02 -0.73442817800E+01 -0.28715884782E+02  0.36820920643E+02  0.00000000000E+00 0. -1.
         11    1    4    4    0    0  0.10022528092E+02  0.13696426782E+02 -0.10052540437E+01  0.17001579688E+02  0.51100000000E-03 0.  1.
        -11    1    4    4    0    0 -0.29652161595E+01 -0.63146238166E+01  0.14777375755E+02  0.16341291727E+02  0.51100000000E-03 0. -1.
        -12    1    4    4    0    0  0.14788504219E+02 -0.37521185028E-01  0.14943763071E+02  0.21024207942E+02  0.00000000000E+00 0.  1.
</event>
<event>
 8    1  0.1269154E-006  0.9118800E+02  0.7816164E-02  0.1184000E+00
        -11   -1    0    0    0    0  0.00000000000E+00  0.00000000000E+00  0.45593999997E+02  0.45594000000E+02  0.51100000000E-03 0.  1.
         11   -1    0    0    0    0 -0.00000000000E+00 -0.00000000000E+00 -0.45593999997E+02  0.45594000000E+02  0.51100000000E-03 0. -1.
         23    2    1    2    0    0 -0.35527136788E-14  0.00000000000E+00  0.00000000000E+00  0.91188000000E+02  0.91188000000E+02 0.  0.
    9900012    2    3    3    0    0 -0.28881067139E+02 -0.17456743151E+02 -0.14728470126E+02  0.54367058231E+02  0.39999940849E+02 0.  0.
        -12    1    3    3    0    0  0.28881067139E+02  0.17456743151E+02  0.14728470126E+02  0.36820941769E+02  0.00000000000E+00 0.  1.
         11    1    4    4    0    0 -0.55937629566E+01 -0.14555889400E+02  0.38702154455E+01  0.16066818854E+02  0.51100000000E-03 0. -1.
        -11    1    4    4    0    0 -0.17940991355E+02  0.78733638180E+01 -0.51509021740E+01  0.20258351909E+02  0.51100000000E-03 0.  1.
         12    1    4    4    0    0 -0.53463128274E+01 -0.10774217569E+02 -0.13447783398E+02  0.18041887467E+02  0.00000000000E+00 0. -1.
</event>
<event>
 8    1  0.1269154E-006  0.9118800E+02  0.7816164E-02  0.1184000E+00
        -11   -1    0    0    0    0  0.00000000000E+00  0.00000000000E+00  0.45593999997E+02  0.45594000000E+02  0.51100000000E-03 0. -1.
         11   -1    0    0    0    0 -0.00000000000E+00 -0.00000000000E+00 -0.45593999997E+02  0.45594000000E+02  0.51100000000E-03 0.  1.
         23    2    1    2    0    0  0.00000000000E+00 -0.17763568394E-14  0.71054273576E-14  0.91188000000E+02  0.91188000000E+02 0.  0.
    9900012    2    3    3    0    0 -0.22142600019E+02 -0.98023348009E+01  0.27738046037E+02  0.54367086091E+02  0.40000004362E+02 0.  0.
        -12    1    3    3    0    0  0.22142600019E+02  0.98023348009E+01 -0.27738046037E+02  0.36820913909E+02  0.00000000000E+00 0.  1.
         11    1    4    4    0    0 -0.99439948930E+01 -0.48926436447E+01 -0.73868786351E+01  0.13318670072E+02  0.51100000000E-03 0. -1.
        -11    1    4    4    0    0  0.40401154998E+01 -0.12123794989E+01  0.10548427011E+02  0.11360532996E+02  0.51100000000E-03 0.  1.
         12    1    4    4    0    0 -0.16238720626E+02 -0.36973116573E+01  0.24576497661E+02  0.29687883022E+02  0.00000000000E+00 0. -1.
</event>
<event>
 8    1  0.1269154E-006  0.9118800E+02  0.7816164E-02  0.1184000E+00
        -11   -1    0    0    0    0  0.00000000000E+00  0.00000000000E+00  0.45593999997E+02  0.45594000000E+02  0.51100000000E-03 0.  1.
         11   -1    0    0    0    0 -0.00000000000E+00 -0.00000000000E+00 -0.45593999997E+02  0.45594000000E+02  0.51100000000E-03 0. -1.
         23    2    1    2    0    0  0.00000000000E+00  0.00000000000E+00  0.35527136788E-14  0.91188000000E+02  0.91188000000E+02 0.  0.
    9900012    2    3    3    0    0 -0.28048352023E+02  0.39728093959E+01 -0.23522043577E+02  0.54367084751E+02  0.40000001308E+02 0.  0.
        -12    1    3    3    0    0  0.28048352023E+02 -0.39728093959E+01  0.23522043577E+02  0.36820915249E+02  0.00000000000E+00 0.  1.
         11    1    4    4    0    0 -0.15564550745E+01 -0.91060337809E+01  0.16475564261E+01  0.93838609354E+01  0.51100000000E-03 0. -1.
        -11    1    4    4    0    0 -0.19990058574E+01  0.10016958594E+02 -0.15307199066E+02  0.18402332118E+02  0.51100000000E-03 0.  1.
         12    1    4    4    0    0 -0.24492891091E+02  0.30618845832E+01 -0.98624009372E+01  0.26580891698E+02  0.00000000000E+00 0. -1.
</event>
<event>
 8    1  0.1269154E-006  0.9118800E+02  0.7816164E-02  0.1184000E+00
        -11   -1    0    0    0    0  0.00000000000E+00  0.00000000000E+00  0.45593999997E+02  0.45594000000E+02  0.51100000000E-03 0. -1.
         11   -1    0    0    0    0 -0.00000000000E+00 -0.00000000000E+00 -0.45593999997E+02  0.45594000000E+02  0.51100000000E-03 0.  1.
         23    2    1    2    0    0  0.00000000000E+00  0.17763568394E-14  0.00000000000E+00  0.91188000000E+02  0.91188000000E+02 0.  0.
    9900012    2    3    3    0    0  0.95989916938E+01  0.12393322165E+02  0.33317326557E+02  0.54367091202E+02  0.40000016012E+02 0.  0.
        -12    1    3    3    0    0 -0.95989916938E+01 -0.12393322165E+02 -0.33317326557E+02  0.36820908798E+02  0.00000000000E+00 0.  1.
         11    1    4    4    0    0  0.81633296130E+01  0.19106184579E+02  0.11964322027E+02  0.23975638498E+02  0.51100000000E-03 0. -1.
        -11    1    4    4    0    0 -0.94569896267E+01 -0.20083327269E+01  0.81954542459E+01  0.12674128124E+02  0.51100000000E-03 0.  1.
        -12    1    4    4    0    0  0.10892651707E+02 -0.47045296873E+01  0.13157550284E+02  0.17717324580E+02  0.00000000000E+00 0.  1.
</event>
<event>
 8    1  0.1269154E-006  0.9118800E+02  0.7816164E-02  0.1184000E+00
        -11   -1    0    0    0    0  0.00000000000E+00  0.00000000000E+00  0.45593999997E+02  0.45594000000E+02  0.51100000000E-03 0.  1.
         11   -1    0    0    0    0 -0.00000000000E+00 -0.00000000000E+00 -0.45593999997E+02  0.45594000000E+02  0.51100000000E-03 0. -1.
         23    2    1    2    0    0  0.88817841970E-15 -0.71054273576E-14 -0.17763568394E-14  0.91188000000E+02  0.91188000000E+02 0.  0.
    9900012    2    3    3    0    0  0.42745278009E+01 -0.35250817601E+02 -0.97410609360E+01  0.54367082065E+02  0.39999995183E+02 0.  0.
        -12    1    3    3    0    0 -0.42745278009E+01  0.35250817601E+02  0.97410609360E+01  0.36820917935E+02  0.00000000000E+00 0.  1.
         11    1    4    4    0    0  0.15912589871E+00  0.25167474980E+01  0.10432268439E+01  0.27290404045E+01  0.51100000000E-03 0. -1.
        -11    1    4    4    0    0  0.47033805390E+01 -0.16396023092E+02  0.11643682404E+02  0.20652522894E+02  0.51100000000E-03 0.  1.
         12    1    4    4    0    0 -0.58797863682E+00 -0.21371542007E+02 -0.22427970183E+02  0.30985518766E+02  0.00000000000E+00 0. -1.
</event>
<event>
 8    1  0.1269154E-006  0.9118800E+02  0.7816164E-02  0.1184000E+00
        -11   -1    0    0    0    0  0.00000000000E+00  0.00000000000E+00  0.45593999997E+02  0.45594000000E+02  0.51100000000E-03 0. -1.
         11   -1    0    0    0    0 -0.00000000000E+00 -0.00000000000E+00 -0.45593999997E+02  0.45594000000E+02  0.51100000000E-03 0.  1.
         23    2    1    2    0    0  0.22204460493E-15  0.00000000000E+00  0.00000000000E+00  0.91188000000E+02  0.91188000000E+02 0.  0.
    9900012    2    3    3    0    0 -0.83281621563E+00 -0.27935588204E+02 -0.23972675034E+02  0.54367084484E+02  0.40000000697E+02 0.  0.
         12    1    3    3    0    0  0.83281621563E+00  0.27935588204E+02  0.23972675034E+02  0.36820915516E+02  0.00000000000E+00 0. -1.
         11    1    4    4    0    0 -0.10774511861E+02 -0.25219329897E+02 -0.20387656641E+01  0.27500204945E+02  0.51100000000E-03 0. -1.
        -11    1    4    4    0    0 -0.19447670391E+01  0.18970029618E+01 -0.47067292033E+01  0.54345228979E+01  0.51100000000E-03 0.  1.
        -12    1    4    4    0    0  0.11886462685E+02 -0.46132612686E+01 -0.17227180167E+02  0.21432356641E+02  0.00000000000E+00 0.  1.
</event>
<event>
 8    1  0.1269154E-006  0.9118800E+02  0.7816164E-02  0.1184000E+00
        -11   -1    0    0    0    0  0.00000000000E+00  0.00000000000E+00  0.45593999997E+02  0.45594000000E+02  0.51100000000E-03 0. -1.
         11   -1    0    0    0    0 -0.00000000000E+00 -0.00000000000E+00 -0.45593999997E+02  0.45594000000E+02  0.51100000000E-03 0.  1.
         23    2    1    2    0    0  0.00000000000E+00  0.00000000000E+00  0.88817841970E-15  0.91188000000E+02  0.91188000000E+02 0.  0.
    9900012    2    3    3    0    0 -0.20899324442E+02 -0.30256949895E+02 -0.18751126016E+01  0.54367070810E+02  0.39999969527E+02 0.  0.
        -12    1    3    3    0    0  0.20899324442E+02  0.30256949895E+02  0.18751126016E+01  0.36820929190E+02  0.00000000000E+00 0.  1.
         11    1    4    4    0    0 -0.12813822827E+02 -0.18673168046E+02 -0.16789222486E+02  0.28191474816E+02  0.51100000000E-03 0. -1.
        -11    1    4    4    0    0 -0.96755681239E+01 -0.42891785128E+01  0.13191829406E+01  0.10665548027E+02  0.51100000000E-03 0.  1.
        -12    1    4    4    0    0  0.15900665083E+01 -0.72946033360E+01  0.13594926944E+02  0.15510047967E+02  0.00000000000E+00 0.  1.
</event>
<event>
 8    1  0.1269154E-006  0.9118800E+02  0.7816164E-02  0.1184000E+00
        -11   -1    0    0    0    0  0.00000000000E+00  0.00000000000E+00  0.45593999997E+02  0.45594000000E+02  0.51100000000E-03 0.  1.
         11   -1    0    0    0    0 -0.00000000000E+00 -0.00000000000E+00 -0.45593999997E+02  0.45594000000E+02  0.51100000000E-03 0. -1.
         23    2    1    2    0    0  0.00000000000E+00  0.00000000000E+00 -0.17763568394E-14  0.91188000000E+02  0.91188000000E+02 0.  0.
    9900012    2    3    3    0    0 -0.32885167166E+02  0.16363119346E+02 -0.25677814656E+01  0.54367090235E+02  0.40000013809E+02 0.  0.
        -12    1    3    3    0    0  0.32885167166E+02 -0.16363119346E+02  0.25677814656E+01  0.36820909765E+02  0.00000000000E+00 0.  1.
         11    1    4    4    0    0 -0.29585577200E+02  0.72995217670E+01 -0.11904512965E+02  0.32715544096E+02  0.51100000000E-03 0. -1.
        -11    1    4    4    0    0 -0.28501222774E+01 -0.11862464970E+00  0.11795234955E+02  0.12135272420E+02  0.51100000000E-03 0.  1.
         12    1    4    4    0    0 -0.44946768834E+00  0.91822222290E+01 -0.24585034553E+01  0.95162737196E+01  0.00000000000E+00 0. -1.
</event>
<event>
 8    1  0.1269154E-006  0.9118800E+02  0.7816164E-02  0.1184000E+00
        -11   -1    0    0    0    0  0.00000000000E+00  0.00000000000E+00  0.45593999997E+02  0.45594000000E+02  0.51100000000E-03 0. -1.
         11   -1    0    0    0    0 -0.00000000000E+00 -0.00000000000E+00 -0.45593999997E+02  0.45594000000E+02  0.51100000000E-03 0.  1.
         23    2    1    2    0    0 -0.53290705182E-14 -0.71054273576E-14  0.00000000000E+00  0.91188000000E+02  0.91188000000E+02 0.  0.
    9900012    2    3    3    0    0  0.14815985308E+02  0.32687897592E+02  0.82321462539E+01  0.54367077936E+02  0.39999985772E+02 0.  0.
        -12    1    3    3    0    0 -0.14815985308E+02 -0.32687897592E+02 -0.82321462539E+01  0.36820922064E+02  0.00000000000E+00 0.  1.
         11    1    4    4    0    0  0.24235150189E+02  0.30734353058E+02  0.39030710663E+01  0.39334169962E+02  0.51100000000E-03 0. -1.
        -11    1    4    4    0    0 -0.15171518582E+01  0.55172551747E+01  0.15164821793E+01  0.59195922905E+01  0.51100000000E-03 0.  1.
        -12    1    4    4    0    0 -0.79020130223E+01 -0.35637106401E+01  0.28125930083E+01  0.91133156843E+01  0.00000000000E+00 0.  1.
</event>
<event>
 8    1  0.1269154E-006  0.9118800E+02  0.7816164E-02  0.1184000E+00
        -11   -1    0    0    0    0  0.00000000000E+00  0.00000000000E+00  0.45593999997E+02  0.45594000000E+02  0.51100000000E-03 0.  1.
         11   -1    0    0    0    0 -0.00000000000E+00 -0.00000000000E+00 -0.45593999997E+02  0.45594000000E+02  0.51100000000E-03 0. -1.
         23    2    1    2    0    0  0.00000000000E+00  0.00000000000E+00 -0.17763568394E-14  0.91188000000E+02  0.91188000000E+02 0.  0.
    9900012    2    3    3    0    0  0.27319382924E+02 -0.21570579785E+02 -0.12005850343E+02  0.54367095094E+02  0.40000024886E+02 0.  0.
         12    1    3    3    0    0 -0.27319382924E+02  0.21570579785E+02  0.12005850343E+02  0.36820904906E+02  0.00000000000E+00 0. -1.
         11    1    4    4    0    0 -0.30997084612E+01 -0.10038806517E+02 -0.14599473618E+02  0.17986952466E+02  0.51100000000E-03 0. -1.
        -11    1    4    4    0    0  0.31508038196E+02 -0.10400660833E+02 -0.19391113948E+00  0.33180835109E+02  0.51100000000E-03 0.  1.
         12    1    4    4    0    0 -0.10889468104E+01 -0.11311124349E+01  0.27875344141E+01  0.31993075198E+01  0.00000000000E+00 0. -1.
</event>
<event>
 8    1  0.1269154E-006  0.9118800E+02  0.7816164E-02  0.1184000E+00
        -11   -1    0    0    0    0  0.00000000000E+00  0.00000000000E+00  0.45593999997E+02  0.45594000000E+02  0.51100000000E-03 0.  1.
         11   -1    0    0    0    0 -0.00000000000E+00 -0.00000000000E+00 -0.45593999997E+02  0.45594000000E+02  0.51100000000E-03 0. -1.
         23    2    1    2    0    0 -0.17763568394E-14 -0.26645352591E-14  0.00000000000E+00  0.91188000000E+02  0.91188000000E+02 0.  0.
    9900012    2    3    3    0    0 -0.95570350637E+01  0.42619009770E+01  0.35302673740E+02  0.54367088926E+02  0.40000010824E+02 0.  0.
         12    1    3    3    0    0  0.95570350637E+01 -0.42619009770E+01 -0.35302673740E+02  0.36820911074E+02  0.00000000000E+00 0. -1.
         11    1    4    4    0    0  0.87959946086E+01 -0.19316417814E+01  0.26657046946E+01  0.93918444890E+01  0.51100000000E-03 0. -1.
        -11    1    4    4    0    0  0.33168302686E+01 -0.47630687970E+01  0.26248279255E+01  0.63700792221E+01  0.51100000000E-03 0.  1.
        -12    1    4    4    0    0 -0.21669859941E+02  0.10956611555E+02  0.30012141120E+02  0.38605165215E+02  0.00000000000E+00 0.  1.
</event>
<event>
 8    1  0.1269154E-006  0.9118800E+02  0.7816164E-02  0.1184000E+00
        -11   -1    0    0    0    0  0.00000000000E+00  0.00000000000E+00  0.45593999997E+02  0.45594000000E+02  0.51100000000E-03 0. -1.
         11   -1    0    0    0    0 -0.00000000000E+00 -0.00000000000E+00 -0.45593999997E+02  0.45594000000E+02  0.51100000000E-03 0.  1.
         23    2    1    2    0    0 -0.17763568394E-14  0.00000000000E+00  0.00000000000E+00  0.91188000000E+02  0.91188000000E+02 0.  0.
    9900012    2    3    3    0    0 -0.11893908464E+02 -0.32895809294E+02  0.11497156078E+02  0.54367028726E+02  0.39999873587E+02 0.  0.
        -12    1    3    3    0    0  0.11893908464E+02  0.32895809294E+02 -0.11497156078E+02  0.36820971274E+02  0.00000000000E+00 0.  1.
         11    1    4    4    0    0  0.31011452816E+01 -0.30520580143E+01 -0.77631874011E+01  0.88993954326E+01  0.51100000000E-03 0. -1.
        -11    1    4    4    0    0 -0.10615306753E+02 -0.22618433853E+02  0.24927540095E+02  0.35293916514E+02  0.51100000000E-03 0.  1.
        -12    1    4    4    0    0 -0.43797469917E+01 -0.72253174268E+01 -0.56671966161E+01  0.10173716780E+02  0.00000000000E+00 0.  1.
</event>
<event>
 8    1  0.1269154E-006  0.9118800E+02  0.7816164E-02  0.1184000E+00
        -11   -1    0    0    0    0  0.00000000000E+00  0.00000000000E+00  0.45593999997E+02  0.45594000000E+02  0.51100000000E-03 0. -1.
         11   -1    0    0    0    0 -0.00000000000E+00 -0.00000000000E+00 -0.45593999997E+02  0.45594000000E+02  0.51100000000E-03 0.  1.
         23    2    1    2    0    0  0.00000000000E+00  0.00000000000E+00  0.00000000000E+00  0.91188000000E+02  0.91188000000E+02 0.  0.
    9900012    2    3    3    0    0  0.23905399070E+02 -0.88766263591E+01 -0.26561575666E+02  0.54367083362E+02  0.39999998139E+02 0.  0.
         12    1    3    3    0    0 -0.23905399070E+02  0.88766263591E+01  0.26561575666E+02  0.36820916638E+02  0.00000000000E+00 0. -1.
         11    1    4    4    0    0 -0.43283069804E+01 -0.38939548145E+01 -0.20564471124E+01  0.61746336249E+01  0.51100000000E-03 0. -1.
        -11    1    4    4    0    0  0.22723337641E+02 -0.15597274895E+02 -0.98314746258E+01  0.29262312815E+02  0.51100000000E-03 0.  1.
        -12    1    4    4    0    0  0.55103684101E+01  0.10614603350E+02 -0.14673653928E+02  0.18930136922E+02  0.00000000000E+00 0.  1.
</event>
<event>
 8    1  0.1269154E-006  0.9118800E+02  0.7816164E-02  0.1184000E+00
        -11   -1    0    0    0    0  0.00000000000E+00  0.00000000000E+00  0.45593999997E+02  0.45594000000E+02  0.51100000000E-03 0. -1.
         11   -1    0    0    0    0 -0.00000000000E+00 -0.00000000000E+00 -0.45593999997E+02  0.45594000000E+02  0.51100000000E-03 0.  1.
         23    2    1    2    0    0  0.00000000000E+00 -0.66613381478E-15  0.88817841970E-15  0.91188000000E+02  0.91188000000E+02 0.  0.
    9900012    2    3    3    0    0 -0.36297771970E+02 -0.17483344121E+01  0.59324080309E+01  0.54367103918E+02  0.40000045002E+02 0.  0.
         12    1    3    3    0    0  0.36297771970E+02  0.17483344121E+01 -0.59324080309E+01  0.36820896082E+02  0.00000000000E+00 0. -1.
         11    1    4    4    0    0 -0.51653374803E+01  0.25681879595E+01 -0.70119262610E+01  0.90798353967E+01  0.51100000000E-03 0. -1.
        -11    1    4    4    0    0 -0.19741352921E+02  0.10629125628E+02 -0.83785116436E-01  0.22421113865E+02  0.51100000000E-03 0.  1.
         12    1    4    4    0    0 -0.11391081569E+02 -0.14945648000E+02  0.13028119408E+02  0.22866154656E+02  0.00000000000E+00 0. -1.
</event>
<event>
 8    1  0.1269154E-006  0.9118800E+02  0.7816164E-02  0.1184000E+00
        -11   -1    0    0    0    0  0.00000000000E+00  0.00000000000E+00  0.45593999997E+02  0.45594000000E+02  0.51100000000E-03 0. -1.
         11   -1    0    0    0    0 -0.00000000000E+00 -0.00000000000E+00 -0.45593999997E+02  0.45594000000E+02  0.51100000000E-03 0.  1.
         23    2    1    2    0    0  0.00000000000E+00  0.44408920985E-15  0.00000000000E+00  0.91188000000E+02  0.91188000000E+02 0.  0.
    9900012    2    3    3    0    0  0.31290433617E+02 -0.26305310901E+01 -0.19229395555E+02  0.54367074113E+02  0.39999977056E+02 0.  0.
         12    1    3    3    0    0 -0.31290433617E+02  0.26305310901E+01  0.19229395555E+02  0.36820925887E+02  0.00000000000E+00 0. -1.
         11    1    4    4    0    0 -0.34539900809E+00  0.54890442930E+01 -0.59483769004E+00  0.55319743188E+01  0.51100000000E-03 0. -1.
        -11    1    4    4    0    0  0.22597783024E+02 -0.63888749847E+01 -0.27427405580E+02  0.36107341335E+02  0.51100000000E-03 0.  1.
        -12    1    4    4    0    0  0.90380496012E+01 -0.17307003984E+01  0.87928477148E+01  0.12727758459E+02  0.00000000000E+00 0.  1.
</event>
<event>
 8    1  0.1269154E-006  0.9118800E+02  0.7816164E-02  0.1184000E+00
        -11   -1    0    0    0    0  0.00000000000E+00  0.00000000000E+00  0.45593999997E+02  0.45594000000E+02  0.51100000000E-03 0.  1.
         11   -1    0    0    0    0 -0.00000000000E+00 -0.00000000000E+00 -0.45593999997E+02  0.45594000000E+02  0.51100000000E-03 0. -1.
         23    2    1    2    0    0  0.00000000000E+00  0.00000000000E+00 -0.35527136788E-14  0.91188000000E+02  0.91188000000E+02 0.  0.
    9900012    2    3    3    0    0  0.17325922456E+02  0.87435879776E+01 -0.31291243289E+02  0.54367084391E+02  0.40000000487E+02 0.  0.
        -12    1    3    3    0    0 -0.17325922456E+02 -0.87435879776E+01  0.31291243289E+02  0.36820915609E+02  0.00000000000E+00 0.  1.
         11    1    4    4    0    0  0.10191252818E+01  0.60817938709E+00 -0.70335823807E+01  0.71330063700E+01  0.51100000000E-03 0. -1.
        -11    1    4    4    0    0  0.91819459162E+00  0.18869939604E+02 -0.20900229572E+02  0.28173343756E+02  0.51100000000E-03 0.  1.
        -12    1    4    4    0    0  0.15388602583E+02 -0.10734531014E+02 -0.33574313360E+01  0.19060734265E+02  0.00000000000E+00 0.  1.
</event>
<event>
 8    1  0.1269154E-006  0.9118800E+02  0.7816164E-02  0.1184000E+00
        -11   -1    0    0    0    0  0.00000000000E+00  0.00000000000E+00  0.45593999997E+02  0.45594000000E+02  0.51100000000E-03 0.  1.
         11   -1    0    0    0    0 -0.00000000000E+00 -0.00000000000E+00 -0.45593999997E+02  0.45594000000E+02  0.51100000000E-03 0. -1.
         23    2    1    2    0    0  0.00000000000E+00  0.00000000000E+00 -0.35527136788E-14  0.91188000000E+02  0.91188000000E+02 0.  0.
    9900012    2    3    3    0    0 -0.29048366797E+02 -0.80850227520E+01  0.21133083952E+02  0.54367048847E+02  0.39999919458E+02 0.  0.
         12    1    3    3    0    0  0.29048366797E+02  0.80850227520E+01 -0.21133083952E+02  0.36820951153E+02  0.00000000000E+00 0. -1.
         11    1    4    4    0    0 -0.12796024147E+02 -0.47916481300E+01  0.33851096394E+01  0.14076828240E+02  0.51100000000E-03 0. -1.
        -11    1    4    4    0    0 -0.15467880925E+02  0.82874122579E+01 -0.17119994811E+01  0.17631434563E+02  0.51100000000E-03 0.  1.
         12    1    4    4    0    0 -0.78446172419E+00 -0.11580786880E+02  0.19459973794E+02  0.22658786045E+02  0.00000000000E+00 0. -1.
</event>
<event>
 8    1  0.1269154E-006  0.9118800E+02  0.7816164E-02  0.1184000E+00
        -11   -1    0    0    0    0  0.00000000000E+00  0.00000000000E+00  0.45593999997E+02  0.45594000000E+02  0.51100000000E-03 0.  1.
         11   -1    0    0    0    0 -0.00000000000E+00 -0.00000000000E+00 -0.45593999997E+02  0.45594000000E+02  0.51100000000E-03 0. -1.
         23    2    1    2    0    0  0.44408920985E-15 -0.17763568394E-14  0.00000000000E+00  0.91188000000E+02  0.91188000000E+02 0.  0.
    9900012    2    3    3    0    0  0.31929252576E+01  0.12023853364E+02 -0.34655630199E+02  0.54367074891E+02  0.39999978829E+02 0.  0.
        -12    1    3    3    0    0 -0.31929252576E+01 -0.12023853364E+02  0.34655630199E+02  0.36820925109E+02  0.00000000000E+00 0.  1.
         11    1    4    4    0    0  0.77657679620E+01  0.82922682848E+01 -0.41577184907E+02  0.43101405666E+02  0.51100000000E-03 0. -1.
        -11    1    4    4    0    0 -0.57842926095E+01  0.13787961089E+01  0.33645840066E+01  0.68322430798E+01  0.51100000000E-03 0.  1.
         12    1    4    4    0    0  0.12114499050E+01  0.23527889702E+01  0.35569707017E+01  0.44334261451E+01  0.00000000000E+00 0. -1.
</event>
<event>
 8    1  0.1269154E-006  0.9118800E+02  0.7816164E-02  0.1184000E+00
        -11   -1    0    0    0    0  0.00000000000E+00  0.00000000000E+00  0.45593999997E+02  0.45594000000E+02  0.51100000000E-03 0. -1.
         11   -1    0    0    0    0 -0.00000000000E+00 -0.00000000000E+00 -0.45593999997E+02  0.45594000000E+02  0.51100000000E-03 0.  1.
         23    2    1    2    0    0  0.00000000000E+00  0.00000000000E+00  0.00000000000E+00  0.91188000000E+02  0.91188000000E+02 0.  0.
    9900012    2    3    3    0    0  0.14664978551E+02  0.33478837897E+02  0.44593176852E+01  0.54367086145E+02  0.40000004486E+02 0.  0.
         12    1    3    3    0    0 -0.14664978551E+02 -0.33478837897E+02 -0.44593176852E+01  0.36820913855E+02  0.00000000000E+00 0. -1.
         11    1    4    4    0    0 -0.75028691182E+01  0.49688002383E+01  0.10027085798E+01  0.90546919092E+01  0.51100000000E-03 0. -1.
        -11    1    4    4    0    0 -0.59328135586E+01  0.55073792686E+01 -0.25863816689E+01  0.84981688337E+01  0.51100000000E-03 0.  1.
         12    1    4    4    0    0  0.28100661228E+02  0.23002658391E+02  0.60429907744E+01  0.36814225402E+02  0.00000000000E+00 0. -1.
</event>
<event>
 8    1  0.1269154E-006  0.9118800E+02  0.7816164E-02  0.1184000E+00
        -11   -1    0    0    0    0  0.00000000000E+00  0.00000000000E+00  0.45593999997E+02  0.45594000000E+02  0.51100000000E-03 0.  1.
         11   -1    0    0    0    0 -0.00000000000E+00 -0.00000000000E+00 -0.45593999997E+02  0.45594000000E+02  0.51100000000E-03 0. -1.
         23    2    1    2    0    0  0.17763568394E-14 -0.17763568394E-14 -0.71054273576E-14  0.91188000000E+02  0.91188000000E+02 0.  0.
    9900012    2    3    3    0    0  0.14845896320E+02  0.88821327430E+01 -0.32503639369E+02  0.54367088932E+02  0.40000010839E+02 0.  0.
        -12    1    3    3    0    0 -0.14845896320E+02 -0.88821327430E+01  0.32503639369E+02  0.36820911068E+02  0.00000000000E+00 0.  1.
         11    1    4    4    0    0  0.17782418370E+01  0.91396364715E+01 -0.35280417551E+01  0.99570165084E+01  0.51100000000E-03 0. -1.
        -11    1    4    4    0    0 -0.33393075522E+01 -0.12044328089E+02 -0.61541920029E+01  0.13931650782E+02  0.51100000000E-03 0.  1.
        -12    1    4    4    0    0  0.16406962035E+02  0.11786824361E+02 -0.22821405611E+02  0.30478421642E+02  0.00000000000E+00 0.  1.
</event>
<event>
 8    1  0.1269154E-006  0.9118800E+02  0.7816164E-02  0.1184000E+00
        -11   -1    0    0    0    0  0.00000000000E+00  0.00000000000E+00  0.45593999997E+02  0.45594000000E+02  0.51100000000E-03 0. -1.
         11   -1    0    0    0    0 -0.00000000000E+00 -0.00000000000E+00 -0.45593999997E+02  0.45594000000E+02  0.51100000000E-03 0.  1.
         23    2    1    2    0    0  0.35527136788E-14 -0.35527136788E-14  0.35527136788E-14  0.91188000000E+02  0.91188000000E+02 0.  0.
    9900012    2    3    3    0    0  0.28477799050E+02 -0.16751606422E+02  0.16253842130E+02  0.54366963343E+02  0.39999724533E+02 0.  0.
        -12    1    3    3    0    0 -0.28477799050E+02  0.16751606422E+02 -0.16253842130E+02  0.36821036657E+02  0.00000000000E+00 0.  1.
         11    1    4    4    0    0 -0.26889766522E+01 -0.78900382019E+00 -0.34833114567E+01  0.44706354615E+01  0.51100000000E-03 0. -1.
        -11    1    4    4    0    0  0.41627192660E+01  0.34132827043E+01  0.15479153251E+02  0.16388499509E+02  0.51100000000E-03 0.  1.
         12    1    4    4    0    0  0.27004056436E+02 -0.19375885307E+02  0.42580003359E+01  0.33507828373E+02  0.00000000000E+00 0. -1.
</event>
<event>
 8    1  0.1269154E-006  0.9118800E+02  0.7816164E-02  0.1184000E+00
        -11   -1    0    0    0    0  0.00000000000E+00  0.00000000000E+00  0.45593999997E+02  0.45594000000E+02  0.51100000000E-03 0.  1.
         11   -1    0    0    0    0 -0.00000000000E+00 -0.00000000000E+00 -0.45593999997E+02  0.45594000000E+02  0.51100000000E-03 0. -1.
         23    2    1    2    0    0 -0.35527136788E-14  0.00000000000E+00  0.35527136788E-14  0.91188000000E+02  0.91188000000E+02 0.  0.
    9900012    2    3    3    0    0  0.28300157834E+02 -0.12105279632E+02 -0.20207496515E+02  0.54367086869E+02  0.40000006136E+02 0.  0.
        -12    1    3    3    0    0 -0.28300157834E+02  0.12105279632E+02  0.20207496515E+02  0.36820913131E+02  0.00000000000E+00 0.  1.
         11    1    4    4    0    0  0.19958000865E+01  0.63215388251E+01 -0.62128719473E+01  0.90854195939E+01  0.51100000000E-03 0. -1.
        -11    1    4    4    0    0  0.84517235791E+00 -0.12842073257E+02 -0.14269190252E+02  0.19215695474E+02  0.51100000000E-03 0.  1.
        -12    1    4    4    0    0  0.25459185389E+02 -0.55847452003E+01  0.27456568410E+00  0.26065971801E+02  0.00000000000E+00 0.  1.
</event>
<event>
 8    1  0.1269154E-006  0.9118800E+02  0.7816164E-02  0.1184000E+00
        -11   -1    0    0    0    0  0.00000000000E+00  0.00000000000E+00  0.45593999997E+02  0.45594000000E+02  0.51100000000E-03 0.  1.
         11   -1    0    0    0    0 -0.00000000000E+00 -0.00000000000E+00 -0.45593999997E+02  0.45594000000E+02  0.51100000000E-03 0. -1.
         23    2    1    2    0    0  0.00000000000E+00  0.00000000000E+00 -0.35527136788E-14  0.91188000000E+02  0.91188000000E+02 0.  0.
    9900012    2    3    3    0    0 -0.22186242147E+02  0.27873541426E+02  0.93065419062E+01  0.54367144843E+02  0.40000138299E+02 0.  0.
         12    1    3    3    0    0  0.22186242147E+02 -0.27873541426E+02 -0.93065419062E+01  0.36820855157E+02  0.00000000000E+00 0. -1.
         11    1    4    4    0    0 -0.18115414715E+02  0.14978866856E+02  0.17969100703E+02  0.29587552838E+02  0.51100000000E-03 0.  1.
        -11    1    4    4    0    0  0.37356959597E+01  0.11459326790E+02  0.12082794645E+01  0.12113279255E+02  0.51100000000E-03 0. -1.
         12    1    4    4    0    0 -0.78065233913E+01  0.14353477795E+01 -0.98708382611E+01  0.12666312750E+02  0.00000000000E+00 0. -1.
</event>
<event>
 8    1  0.1269154E-006  0.9118800E+02  0.7816164E-02  0.1184000E+00
        -11   -1    0    0    0    0  0.00000000000E+00  0.00000000000E+00  0.45593999997E+02  0.45594000000E+02  0.51100000000E-03 0.  1.
         11   -1    0    0    0    0 -0.00000000000E+00 -0.00000000000E+00 -0.45593999997E+02  0.45594000000E+02  0.51100000000E-03 0. -1.
         23    2    1    2    0    0 -0.11102230246E-15 -0.17763568394E-14  0.00000000000E+00  0.91188000000E+02  0.91188000000E+02 0.  0.
    9900012    2    3    3    0    0  0.35451136680E+00 -0.97870724418E+01 -0.35494614535E+02  0.54367080317E+02  0.39999991198E+02 0.  0.
        -12    1    3    3    0    0 -0.35451136680E+00  0.97870724418E+01  0.35494614535E+02  0.36820919683E+02  0.00000000000E+00 0.  1.
         11    1    4    4    0    0  0.74083233843E+01 -0.17695134832E+02 -0.20014146901E+02  0.27723043277E+02  0.51100000000E-03 0. -1.
        -11    1    4    4    0    0 -0.89052138304E+01  0.11719346431E+02 -0.16674826722E+02  0.22241757138E+02  0.51100000000E-03 0.  1.
        -12    1    4    4    0    0  0.18514018129E+01 -0.38112840401E+01  0.11943590871E+01  0.44022799020E+01  0.00000000000E+00 0.  1.
</event>
<event>
 8    1  0.1269154E-006  0.9118800E+02  0.7816164E-02  0.1184000E+00
        -11   -1    0    0    0    0  0.00000000000E+00  0.00000000000E+00  0.45593999997E+02  0.45594000000E+02  0.51100000000E-03 0.  1.
         11   -1    0    0    0    0 -0.00000000000E+00 -0.00000000000E+00 -0.45593999997E+02  0.45594000000E+02  0.51100000000E-03 0. -1.
         23    2    1    2    0    0  0.00000000000E+00  0.35527136788E-14  0.44408920985E-15  0.91188000000E+02  0.91188000000E+02 0.  0.
    9900012    2    3    3    0    0 -0.20642378204E+02 -0.30415497729E+02 -0.21378024496E+01  0.54367075523E+02  0.39999980270E+02 0.  0.
        -12    1    3    3    0    0  0.20642378204E+02  0.30415497729E+02  0.21378024496E+01  0.36820924477E+02  0.00000000000E+00 0.  1.
         11    1    4    4    0    0 -0.23142521414E+02 -0.81775044451E+01  0.19164574301E+01  0.24619518389E+02  0.51100000000E-03 0. -1.
        -11    1    4    4    0    0  0.97081502398E+01 -0.19180635293E+02 -0.16669956007E+01  0.21562092336E+02  0.51100000000E-03 0.  1.
        -12    1    4    4    0    0 -0.72080070297E+01 -0.30573579916E+01 -0.23872642790E+01  0.81854647984E+01  0.00000000000E+00 0.  1.
</event>
<event>
 8    1  0.1269154E-006  0.9118800E+02  0.7816164E-02  0.1184000E+00
        -11   -1    0    0    0    0  0.00000000000E+00  0.00000000000E+00  0.45593999997E+02  0.45594000000E+02  0.51100000000E-03 0. -1.
         11   -1    0    0    0    0 -0.00000000000E+00 -0.00000000000E+00 -0.45593999997E+02  0.45594000000E+02  0.51100000000E-03 0.  1.
         23    2    1    2    0    0  0.35527136788E-14  0.00000000000E+00 -0.71054273576E-14  0.91188000000E+02  0.91188000000E+02 0.  0.
    9900012    2    3    3    0    0  0.93518544707E+01 -0.11689826761E+02  0.33640303785E+02  0.54367091938E+02  0.40000017692E+02 0.  0.
        -12    1    3    3    0    0 -0.93518544707E+01  0.11689826761E+02 -0.33640303785E+02  0.36820908062E+02  0.00000000000E+00 0.  1.
         11    1    4    4    0    0 -0.16138460607E+01 -0.22106791749E+01  0.46165284372E+01  0.53669299040E+01  0.51100000000E-03 0. -1.
        -11    1    4    4    0    0 -0.82656113228E+01 -0.11886084940E+02  0.46399401872E+00  0.14484979684E+02  0.51100000000E-03 0.  1.
        -12    1    4    4    0    0  0.19231311854E+02  0.24069373546E+01  0.28559781329E+02  0.34515182350E+02  0.00000000000E+00 0.  1.
</event>
<event>
 8    1  0.1269154E-006  0.9118800E+02  0.7816164E-02  0.1184000E+00
        -11   -1    0    0    0    0  0.00000000000E+00  0.00000000000E+00  0.45593999997E+02  0.45594000000E+02  0.51100000000E-03 0. -1.
         11   -1    0    0    0    0 -0.00000000000E+00 -0.00000000000E+00 -0.45593999997E+02  0.45594000000E+02  0.51100000000E-03 0.  1.
         23    2    1    2    0    0  0.00000000000E+00  0.13322676296E-14  0.00000000000E+00  0.91188000000E+02  0.91188000000E+02 0.  0.
    9900012    2    3    3    0    0  0.72033832395E+01 -0.28501620517E+01  0.35996740841E+02  0.54367115912E+02  0.40000072345E+02 0.  0.
        -12    1    3    3    0    0 -0.72033832395E+01  0.28501620517E+01 -0.35996740841E+02  0.36820884088E+02  0.00000000000E+00 0.  1.
         11    1    4    4    0    0 -0.35738388946E+01  0.84498428786E+01  0.33705630157E+01  0.97740914883E+01  0.51100000000E-03 0. -1.
        -11    1    4    4    0    0  0.52981951171E+01 -0.15238087873E+01 -0.36589204649E+01  0.66166882917E+01  0.51100000000E-03 0.  1.
         12    1    4    4    0    0  0.54790270170E+01 -0.97761961430E+01  0.36285098290E+02  0.37976336132E+02  0.00000000000E+00 0. -1.
</event>
<event>
 8    1  0.1269154E-006  0.9118800E+02  0.7816164E-02  0.1184000E+00
        -11   -1    0    0    0    0  0.00000000000E+00  0.00000000000E+00  0.45593999997E+02  0.45594000000E+02  0.51100000000E-03 0.  1.
         11   -1    0    0    0    0 -0.00000000000E+00 -0.00000000000E+00 -0.45593999997E+02  0.45594000000E+02  0.51100000000E-03 0. -1.
         23    2    1    2    0    0  0.00000000000E+00  0.00000000000E+00  0.00000000000E+00  0.91188000000E+02  0.91188000000E+02 0.  0.
    9900012    2    3    3    0    0 -0.83324793649E+01 -0.34930535208E+02 -0.81367947268E+01  0.54367082973E+02  0.39999997254E+02 0.  0.
        -12    1    3    3    0    0  0.83324793649E+01  0.34930535208E+02  0.81367947268E+01  0.36820917027E+02  0.00000000000E+00 0.  1.
         11    1    4    4    0    0 -0.56473305186E+01 -0.26462570368E+01 -0.18674125510E+02  0.19688016205E+02  0.51100000000E-03 0. -1.
        -11    1    4    4    0    0 -0.36097710972E+01 -0.97223056544E+01  0.21536608239E+01  0.10592069194E+02  0.51100000000E-03 0.  1.
        -12    1    4    4    0    0  0.92462225099E+00 -0.22561972516E+02  0.83836699588E+01  0.24086997574E+02  0.00000000000E+00 0.  1.
</event>
<event>
 8    1  0.1269154E-006  0.9118800E+02  0.7816164E-02  0.1184000E+00
        -11   -1    0    0    0    0  0.00000000000E+00  0.00000000000E+00  0.45593999997E+02  0.45594000000E+02  0.51100000000E-03 0.  1.
         11   -1    0    0    0    0 -0.00000000000E+00 -0.00000000000E+00 -0.45593999997E+02  0.45594000000E+02  0.51100000000E-03 0. -1.
         23    2    1    2    0    0  0.17763568394E-14  0.35527136788E-14 -0.17763568394E-14  0.91188000000E+02  0.91188000000E+02 0.  0.
    9900012    2    3    3    0    0  0.14280256614E+02 -0.29944823339E+02  0.15973788121E+02  0.54367080936E+02  0.39999992611E+02 0.  0.
        -12    1    3    3    0    0 -0.14280256614E+02  0.29944823339E+02 -0.15973788121E+02  0.36820919064E+02  0.00000000000E+00 0.  1.
         11    1    4    4    0    0  0.41042478565E+00 -0.18905295674E+02  0.96238934027E+01  0.21217869297E+02  0.51100000000E-03 0. -1.
        -11    1    4    4    0    0 -0.35332202022E+00  0.38089933451E+01  0.11359416046E+02  0.11986225425E+02  0.51100000000E-03 0.  1.
        -12    1    4    4    0    0  0.14223153849E+02 -0.14848521010E+02 -0.50095213282E+01  0.21162986215E+02  0.00000000000E+00 0.  1.
</event>
<event>
 8    1  0.1269154E-006  0.9118800E+02  0.7816164E-02  0.1184000E+00
        -11   -1    0    0    0    0  0.00000000000E+00  0.00000000000E+00  0.45593999997E+02  0.45594000000E+02  0.51100000000E-03 0. -1.
         11   -1    0    0    0    0 -0.00000000000E+00 -0.00000000000E+00 -0.45593999997E+02  0.45594000000E+02  0.51100000000E-03 0.  1.
         23    2    1    2    0    0  0.00000000000E+00  0.44408920985E-15  0.00000000000E+00  0.91188000000E+02  0.91188000000E+02 0.  0.
    9900012    2    3    3    0    0  0.41976130644E+01 -0.25342051248E+01 -0.36493010814E+02  0.54367055019E+02  0.39999933527E+02 0.  0.
         12    1    3    3    0    0 -0.41976130644E+01  0.25342051248E+01  0.36493010814E+02  0.36820944981E+02  0.00000000000E+00 0. -1.
         11    1    4    4    0    0 -0.91784098390E-01  0.14938961458E+02 -0.13449699021E+02  0.20101626744E+02  0.51100000000E-03 0. -1.
        -11    1    4    4    0    0 -0.23341339231E+01  0.17708470453E+01 -0.91906187206E+01  0.96463232973E+01  0.51100000000E-03 0.  1.
        -12    1    4    4    0    0  0.66235310859E+01 -0.19244013628E+02 -0.13852693072E+02  0.24619104978E+02  0.00000000000E+00 0.  1.
</event>
<event>
 8    1  0.1269154E-006  0.9118800E+02  0.7816164E-02  0.1184000E+00
        -11   -1    0    0    0    0  0.00000000000E+00  0.00000000000E+00  0.45593999997E+02  0.45594000000E+02  0.51100000000E-03 0.  1.
         11   -1    0    0    0    0 -0.00000000000E+00 -0.00000000000E+00 -0.45593999997E+02  0.45594000000E+02  0.51100000000E-03 0. -1.
         23    2    1    2    0    0  0.00000000000E+00 -0.71054273576E-14  0.00000000000E+00  0.91188000000E+02  0.91188000000E+02 0.  0.
    9900012    2    3    3    0    0  0.21718344166E+02 -0.28233713243E+02  0.93251032453E+01  0.54366992581E+02  0.39999791186E+02 0.  0.
         12    1    3    3    0    0 -0.21718344166E+02  0.28233713243E+02 -0.93251032453E+01  0.36821007419E+02  0.00000000000E+00 0. -1.
         11    1    4    4    0    0  0.11074057291E+02 -0.80074501404E+01 -0.63003365609E+01  0.15048197357E+02  0.51100000000E-03 0. -1.
        -11    1    4    4    0    0  0.91192686326E+01 -0.20999173782E+02 -0.69957981603E+00  0.22904492400E+02  0.51100000000E-03 0.  1.
         12    1    4    4    0    0  0.15250182421E+01  0.77291067883E+00  0.16325019622E+02  0.16414302825E+02  0.00000000000E+00 0. -1.
</event>
<event>
 8    1  0.1269154E-006  0.9118800E+02  0.7816164E-02  0.1184000E+00
        -11   -1    0    0    0    0  0.00000000000E+00  0.00000000000E+00  0.45593999997E+02  0.45594000000E+02  0.51100000000E-03 0.  1.
         11   -1    0    0    0    0 -0.00000000000E+00 -0.00000000000E+00 -0.45593999997E+02  0.45594000000E+02  0.51100000000E-03 0. -1.
         23    2    1    2    0    0  0.00000000000E+00  0.00000000000E+00 -0.35527136788E-14  0.91188000000E+02  0.91188000000E+02 0.  0.
    9900012    2    3    3    0    0  0.89522769400E+01  0.25240746221E+02  0.25269409281E+02  0.54367060610E+02  0.39999946271E+02 0.  0.
         12    1    3    3    0    0 -0.89522769400E+01 -0.25240746221E+02 -0.25269409281E+02  0.36820939390E+02  0.00000000000E+00 0. -1.
         11    1    4    4    0    0  0.40158487557E+01 -0.27992399915E+01  0.73125220078E+01  0.87997593225E+01  0.51100000000E-03 0.  1.
        -11    1    4    4    0    0 -0.23377705843E+01  0.13708837392E+02 -0.72420796937E+01  0.15679448731E+02  0.51100000000E-03 0. -1.
        -12    1    4    4    0    0  0.72741987687E+01  0.14331148820E+02  0.25198966967E+02  0.29887852556E+02  0.00000000000E+00 0.  1.
</event>
<event>
 8    1  0.1269154E-006  0.9118800E+02  0.7816164E-02  0.1184000E+00
        -11   -1    0    0    0    0  0.00000000000E+00  0.00000000000E+00  0.45593999997E+02  0.45594000000E+02  0.51100000000E-03 0.  1.
         11   -1    0    0    0    0 -0.00000000000E+00 -0.00000000000E+00 -0.45593999997E+02  0.45594000000E+02  0.51100000000E-03 0. -1.
         23    2    1    2    0    0  0.00000000000E+00 -0.35527136788E-14  0.00000000000E+00  0.91188000000E+02  0.91188000000E+02 0.  0.
    9900012    2    3    3    0    0 -0.14820973804E+02  0.30342640801E+02  0.14677999198E+02  0.54367071498E+02  0.39999971094E+02 0.  0.
        -12    1    3    3    0    0  0.14820973804E+02 -0.30342640801E+02 -0.14677999198E+02  0.36820928502E+02  0.00000000000E+00 0.  1.
         11    1    4    4    0    0  0.66678051675E+01  0.26950637796E+02  0.66098718768E+01  0.28539217051E+02  0.51100000000E-03 0. -1.
        -11    1    4    4    0    0 -0.89455146052E+01  0.72155269268E+00  0.93248867582E+01  0.12942039374E+02  0.51100000000E-03 0.  1.
        -12    1    4    4    0    0 -0.12543264366E+02  0.26704503126E+01 -0.12567594374E+01  0.12885815074E+02  0.00000000000E+00 0.  1.
</event>
<event>
 8    1  0.1269154E-006  0.9118800E+02  0.7816164E-02  0.1184000E+00
        -11   -1    0    0    0    0  0.00000000000E+00  0.00000000000E+00  0.45593999997E+02  0.45594000000E+02  0.51100000000E-03 0. -1.
         11   -1    0    0    0    0 -0.00000000000E+00 -0.00000000000E+00 -0.45593999997E+02  0.45594000000E+02  0.51100000000E-03 0.  1.
         23    2    1    2    0    0 -0.53290705182E-14 -0.71054273576E-14  0.17763568394E-14  0.91188000000E+02  0.91188000000E+02 0.  0.
    9900012    2    3    3    0    0  0.84693252376E+01  0.34333421135E+02 -0.10259984424E+02  0.54367074466E+02  0.39999977860E+02 0.  0.
        -12    1    3    3    0    0 -0.84693252376E+01 -0.34333421135E+02  0.10259984424E+02  0.36820925534E+02  0.00000000000E+00 0.  1.
         11    1    4    4    0    0 -0.13518473212E+02  0.11269455122E+02  0.52245450506E+01  0.18358801921E+02  0.51100000000E-03 0. -1.
        -11    1    4    4    0    0  0.67949471560E+01  0.32285384785E+01 -0.34942129743E+01  0.82948352684E+01  0.51100000000E-03 0.  1.
         12    1    4    4    0    0  0.15192851294E+02  0.19835427534E+02 -0.11990316501E+02  0.27713437277E+02  0.00000000000E+00 0. -1.
</event>
<event>
 8    1  0.1269154E-006  0.9118800E+02  0.7816164E-02  0.1184000E+00
        -11   -1    0    0    0    0  0.00000000000E+00  0.00000000000E+00  0.45593999997E+02  0.45594000000E+02  0.51100000000E-03 0.  1.
         11   -1    0    0    0    0 -0.00000000000E+00 -0.00000000000E+00 -0.45593999997E+02  0.45594000000E+02  0.51100000000E-03 0. -1.
         23    2    1    2    0    0 -0.35527136788E-14  0.88817841970E-15  0.00000000000E+00  0.91188000000E+02  0.91188000000E+02 0.  0.
    9900012    2    3    3    0    0 -0.21332366708E+02  0.61472411361E+01 -0.29375511839E+02  0.54367093727E+02  0.40000021770E+02 0.  0.
        -12    1    3    3    0    0  0.21332366708E+02 -0.61472411361E+01  0.29375511839E+02  0.36820906273E+02  0.00000000000E+00 0.  1.
         11    1    4    4    0    0 -0.25988998674E+02  0.49798693792E+01 -0.35622077355E+02  0.44375213198E+02  0.51100000000E-03 0. -1.
        -11    1    4    4    0    0 -0.14404696984E+01  0.59034389997E+00  0.20218434310E+01  0.25517268648E+01  0.51100000000E-03 0.  1.
        -12    1    4    4    0    0  0.60971016642E+01  0.57702785691E+00  0.42247220845E+01  0.74401536639E+01  0.00000000000E+00 0.  1.
</event>
<event>
 8    1  0.1269154E-006  0.9118800E+02  0.7816164E-02  0.1184000E+00
        -11   -1    0    0    0    0  0.00000000000E+00  0.00000000000E+00  0.45593999997E+02  0.45594000000E+02  0.51100000000E-03 0.  1.
         11   -1    0    0    0    0 -0.00000000000E+00 -0.00000000000E+00 -0.45593999997E+02  0.45594000000E+02  0.51100000000E-03 0. -1.
         23    2    1    2    0    0  0.00000000000E+00  0.00000000000E+00  0.00000000000E+00  0.91188000000E+02  0.91188000000E+02 0.  0.
    9900012    2    3    3    0    0  0.90004806397E+01  0.23132666442E+02 -0.27196535786E+02  0.54367075687E+02  0.39999980645E+02 0.  0.
        -12    1    3    3    0    0 -0.90004806397E+01 -0.23132666442E+02  0.27196535786E+02  0.36820924313E+02  0.00000000000E+00 0.  1.
         11    1    4    4    0    0  0.60187301171E+00 -0.54620951519E+00 -0.18322779297E+02  0.18340797076E+02  0.51100000000E-03 0. -1.
        -11    1    4    4    0    0  0.96751918080E+01  0.21565458182E+02 -0.15961358306E+02  0.28520927095E+02  0.51100000000E-03 0.  1.
        -12    1    4    4    0    0 -0.12765841800E+01  0.21134177756E+01  0.70876018174E+01  0.75053515164E+01  0.00000000000E+00 0.  1.
</event>
<event>
 8    1  0.1269154E-006  0.9118800E+02  0.7816164E-02  0.1184000E+00
        -11   -1    0    0    0    0  0.00000000000E+00  0.00000000000E+00  0.45593999997E+02  0.45594000000E+02  0.51100000000E-03 0. -1.
         11   -1    0    0    0    0 -0.00000000000E+00 -0.00000000000E+00 -0.45593999997E+02  0.45594000000E+02  0.51100000000E-03 0.  1.
         23    2    1    2    0    0  0.35527136788E-14  0.00000000000E+00  0.35527136788E-14  0.91188000000E+02  0.91188000000E+02 0.  0.
    9900012    2    3    3    0    0  0.25862376514E+02  0.13928276846E+02  0.22201824598E+02  0.54367076188E+02  0.39999981786E+02 0.  0.
        -12    1    3    3    0    0 -0.25862376514E+02 -0.13928276846E+02 -0.22201824598E+02  0.36820923812E+02  0.00000000000E+00 0.  1.
         11    1    4    4    0    0  0.38007895655E+00  0.12762469973E+01  0.21989719805E+01  0.25707478374E+01  0.51100000000E-03 0. -1.
        -11    1    4    4    0    0  0.71515010929E+01  0.74527770837E+01  0.28956512922E+02  0.30743576483E+02  0.51100000000E-03 0.  1.
        -12    1    4    4    0    0  0.18330796465E+02  0.51992527655E+01 -0.89536603042E+01  0.21052751867E+02  0.00000000000E+00 0.  1.
</event>
<event>
 8    1  0.1269154E-006  0.9118800E+02  0.7816164E-02  0.1184000E+00
        -11   -1    0    0    0    0  0.00000000000E+00  0.00000000000E+00  0.45593999997E+02  0.45594000000E+02  0.51100000000E-03 0. -1.
         11   -1    0    0    0    0 -0.00000000000E+00 -0.00000000000E+00 -0.45593999997E+02  0.45594000000E+02  0.51100000000E-03 0.  1.
         23    2    1    2    0    0  0.35527136788E-14  0.00000000000E+00  0.35527136788E-14  0.91188000000E+02  0.91188000000E+02 0.  0.
    9900012    2    3    3    0    0  0.23317114512E+02 -0.21070396851E+02  0.19186716665E+02  0.54367088156E+02  0.40000009070E+02 0.  0.
        -12    1    3    3    0    0 -0.23317114512E+02  0.21070396851E+02 -0.19186716665E+02  0.36820911844E+02  0.00000000000E+00 0.  1.
         11    1    4    4    0    0 -0.22206269409E+01 -0.48753920305E+01 -0.33634792394E+01  0.63256323254E+01  0.51100000000E-03 0. -1.
        -11    1    4    4    0    0  0.19333843615E+02 -0.24873742270E+02  0.14521318350E+02  0.34689613004E+02  0.51100000000E-03 0.  1.
         12    1    4    4    0    0  0.62038978385E+01  0.86787374496E+01  0.80288775536E+01  0.13351842827E+02  0.00000000000E+00 0. -1.
</event>
<event>
 8    1  0.1269154E-006  0.9118800E+02  0.7816164E-02  0.1184000E+00
        -11   -1    0    0    0    0  0.00000000000E+00  0.00000000000E+00  0.45593999997E+02  0.45594000000E+02  0.51100000000E-03 0. -1.
         11   -1    0    0    0    0 -0.00000000000E+00 -0.00000000000E+00 -0.45593999997E+02  0.45594000000E+02  0.51100000000E-03 0.  1.
         23    2    1    2    0    0 -0.17763568394E-14  0.00000000000E+00  0.00000000000E+00  0.91188000000E+02  0.91188000000E+02 0.  0.
    9900012    2    3    3    0    0 -0.94039135601E+01 -0.34655105037E+02  0.81467823253E+01  0.54367082607E+02  0.39999996420E+02 0.  0.
        -12    1    3    3    0    0  0.94039135601E+01  0.34655105037E+02 -0.81467823253E+01  0.36820917393E+02  0.00000000000E+00 0.  1.
         11    1    4    4    0    0 -0.76610935815E+01 -0.19696509051E+02  0.62781201736E+01  0.22046759781E+02  0.51100000000E-03 0. -1.
        -11    1    4    4    0    0 -0.47688882327E+01 -0.56198877208E+01  0.14533937946E+02  0.16296035882E+02  0.51100000000E-03 0.  1.
        -12    1    4    4    0    0  0.30260682542E+01 -0.93387082658E+01 -0.12665275794E+02  0.16024286945E+02  0.00000000000E+00 0.  1.
</event>
<event>
 8    1  0.1269154E-006  0.9118800E+02  0.7816164E-02  0.1184000E+00
        -11   -1    0    0    0    0  0.00000000000E+00  0.00000000000E+00  0.45593999997E+02  0.45594000000E+02  0.51100000000E-03 0. -1.
         11   -1    0    0    0    0 -0.00000000000E+00 -0.00000000000E+00 -0.45593999997E+02  0.45594000000E+02  0.51100000000E-03 0.  1.
         23    2    1    2    0    0 -0.35527136788E-14 -0.17763568394E-14  0.71054273576E-14  0.91188000000E+02  0.91188000000E+02 0.  0.
    9900012    2    3    3    0    0 -0.12977429025E+02 -0.10662981597E+02  0.32766812820E+02  0.54367124630E+02  0.40000092218E+02 0.  0.
        -12    1    3    3    0    0  0.12977429025E+02  0.10662981597E+02 -0.32766812820E+02  0.36820875370E+02  0.00000000000E+00 0.  1.
         11    1    4    4    0    0  0.81974324621E+01 -0.81474065514E+01  0.50478621332E+01  0.12611861277E+02  0.51100000000E-03 0. -1.
        -11    1    4    4    0    0  0.22557947214E+01 -0.44475810014E+01 -0.51618108115E+00  0.50135845220E+01  0.51100000000E-03 0.  1.
         12    1    4    4    0    0 -0.23430656208E+02  0.19320059560E+01  0.28235131768E+02  0.36741678831E+02  0.00000000000E+00 0. -1.
</event>
<event>
 8    1  0.1269154E-006  0.9118800E+02  0.7816164E-02  0.1184000E+00
        -11   -1    0    0    0    0  0.00000000000E+00  0.00000000000E+00  0.45593999997E+02  0.45594000000E+02  0.51100000000E-03 0. -1.
         11   -1    0    0    0    0 -0.00000000000E+00 -0.00000000000E+00 -0.45593999997E+02  0.45594000000E+02  0.51100000000E-03 0.  1.
         23    2    1    2    0    0  0.00000000000E+00 -0.35527136788E-14  0.35527136788E-14  0.91188000000E+02  0.91188000000E+02 0.  0.
    9900012    2    3    3    0    0  0.17981063323E+02 -0.25656633498E+02  0.19344180914E+02  0.54367098111E+02  0.40000031764E+02 0.  0.
        -12    1    3    3    0    0 -0.17981063323E+02  0.25656633498E+02 -0.19344180914E+02  0.36820901889E+02  0.00000000000E+00 0.  1.
         11    1    4    4    0    0  0.18710747091E+01 -0.11529393820E+02  0.15978746680E+02  0.19792629642E+02  0.51100000000E-03 0. -1.
        -11    1    4    4    0    0  0.10099631664E+01  0.51784472800E+01 -0.63092358799E+01  0.82245242707E+01  0.51100000000E-03 0.  1.
        -12    1    4    4    0    0  0.15100025448E+02 -0.19305686958E+02  0.96746701140E+01  0.26349944199E+02  0.00000000000E+00 0.  1.
</event>
<event>
 8    1  0.1269154E-006  0.9118800E+02  0.7816164E-02  0.1184000E+00
        -11   -1    0    0    0    0  0.00000000000E+00  0.00000000000E+00  0.45593999997E+02  0.45594000000E+02  0.51100000000E-03 0.  1.
         11   -1    0    0    0    0 -0.00000000000E+00 -0.00000000000E+00 -0.45593999997E+02  0.45594000000E+02  0.51100000000E-03 0. -1.
         23    2    1    2    0    0 -0.88817841970E-15  0.00000000000E+00  0.00000000000E+00  0.91188000000E+02  0.91188000000E+02 0.  0.
    9900012    2    3    3    0    0 -0.71946392141E+01  0.25511555508E+02  0.25557377788E+02  0.54367056812E+02  0.39999937614E+02 0.  0.
         12    1    3    3    0    0  0.71946392141E+01 -0.25511555508E+02 -0.25557377788E+02  0.36820943188E+02  0.00000000000E+00 0. -1.
         11    1    4    4    0    0 -0.24276459723E+01  0.20259077850E+02 -0.78506493872E+00  0.20419109372E+02  0.51100000000E-03 0.  1.
        -11    1    4    4    0    0  0.65126299750E+01 -0.12757038887E+01  0.15961920385E+02  0.17286545990E+02  0.51100000000E-03 0. -1.
         12    1    4    4    0    0 -0.11279623217E+02  0.65281815466E+01  0.10380522341E+02  0.16661401451E+02  0.00000000000E+00 0. -1.
</event>
<event>
 8    1  0.1269154E-006  0.9118800E+02  0.7816164E-02  0.1184000E+00
        -11   -1    0    0    0    0  0.00000000000E+00  0.00000000000E+00  0.45593999997E+02  0.45594000000E+02  0.51100000000E-03 0. -1.
         11   -1    0    0    0    0 -0.00000000000E+00 -0.00000000000E+00 -0.45593999997E+02  0.45594000000E+02  0.51100000000E-03 0.  1.
         23    2    1    2    0    0  0.00000000000E+00 -0.44408920985E-15  0.00000000000E+00  0.91188000000E+02  0.91188000000E+02 0.  0.
    9900012    2    3    3    0    0 -0.19757615338E+02  0.29562409752E+01 -0.30930191517E+02  0.54367089204E+02  0.40000011459E+02 0.  0.
         12    1    3    3    0    0  0.19757615338E+02 -0.29562409752E+01  0.30930191517E+02  0.36820910796E+02  0.00000000000E+00 0. -1.
         11    1    4    4    0    0 -0.20734123256E+02 -0.88881543359E+00 -0.55714970186E+01  0.21488030142E+02  0.51100000000E-03 0. -1.
        -11    1    4    4    0    0 -0.53978519067E+01  0.24328391892E+01 -0.25668782968E+02  0.26342777588E+02  0.51100000000E-03 0.  1.
         12    1    4    4    0    0  0.63743598253E+01  0.14122172196E+01  0.31008846950E+00  0.65362814747E+01  0.00000000000E+00 0. -1.
</event>
<event>
 8    1  0.1269154E-006  0.9118800E+02  0.7816164E-02  0.1184000E+00
        -11   -1    0    0    0    0  0.00000000000E+00  0.00000000000E+00  0.45593999997E+02  0.45594000000E+02  0.51100000000E-03 0.  1.
         11   -1    0    0    0    0 -0.00000000000E+00 -0.00000000000E+00 -0.45593999997E+02  0.45594000000E+02  0.51100000000E-03 0. -1.
         23    2    1    2    0    0  0.00000000000E+00  0.00000000000E+00  0.00000000000E+00  0.91188000000E+02  0.91188000000E+02 0.  0.
    9900012    2    3    3    0    0  0.24969463113E+02  0.25334283507E+02  0.95121202643E+01  0.54367076045E+02  0.39999981460E+02 0.  0.
        -12    1    3    3    0    0 -0.24969463113E+02 -0.25334283507E+02 -0.95121202643E+01  0.36820923955E+02  0.00000000000E+00 0.  1.
         11    1    4    4    0    0 -0.52965952525E+01 -0.24980101343E+01 -0.49987849654E+01  0.76994692864E+01  0.51100000000E-03 0. -1.
        -11    1    4    4    0    0  0.12502304953E+02  0.22326164455E+02  0.10400233019E+02  0.27621189249E+02  0.51100000000E-03 0.  1.
        -12    1    4    4    0    0  0.17763753413E+02  0.55061291856E+01  0.41106722111E+01  0.19046417509E+02  0.00000000000E+00 0.  1.
</event>
<event>
 8    1  0.1269154E-006  0.9118800E+02  0.7816164E-02  0.1184000E+00
        -11   -1    0    0    0    0  0.00000000000E+00  0.00000000000E+00  0.45593999997E+02  0.45594000000E+02  0.51100000000E-03 0. -1.
         11   -1    0    0    0    0 -0.00000000000E+00 -0.00000000000E+00 -0.45593999997E+02  0.45594000000E+02  0.51100000000E-03 0.  1.
         23    2    1    2    0    0  0.00000000000E+00  0.88817841970E-15  0.35527136788E-14  0.91188000000E+02  0.91188000000E+02 0.  0.
    9900012    2    3    3    0    0  0.31417658597E+02  0.68732550837E+01 -0.17929564637E+02  0.54367079381E+02  0.39999989066E+02 0.  0.
         12    1    3    3    0    0 -0.31417658597E+02 -0.68732550837E+01  0.17929564637E+02  0.36820920619E+02  0.00000000000E+00 0. -1.
         11    1    4    4    0    0  0.17643856397E+02  0.13191956376E+02 -0.54569751724E+00  0.22037040809E+02  0.51100000000E-03 0. -1.
        -11    1    4    4    0    0 -0.18450189314E+01  0.48159857044E+01  0.15425850251E+01  0.53830643673E+01  0.51100000000E-03 0.  1.
        -12    1    4    4    0    0  0.15618821132E+02 -0.11134686996E+02 -0.18926452145E+02  0.26946974205E+02  0.00000000000E+00 0.  1.
</event>
<event>
 8    1  0.1269154E-006  0.9118800E+02  0.7816164E-02  0.1184000E+00
        -11   -1    0    0    0    0  0.00000000000E+00  0.00000000000E+00  0.45593999997E+02  0.45594000000E+02  0.51100000000E-03 0.  1.
         11   -1    0    0    0    0 -0.00000000000E+00 -0.00000000000E+00 -0.45593999997E+02  0.45594000000E+02  0.51100000000E-03 0. -1.
         23    2    1    2    0    0  0.35527136788E-14  0.00000000000E+00  0.00000000000E+00  0.91188000000E+02  0.91188000000E+02 0.  0.
    9900012    2    3    3    0    0 -0.21155591500E+02 -0.29827272142E+02  0.43074515489E+01  0.54367090805E+02  0.40000015107E+02 0.  0.
         12    1    3    3    0    0  0.21155591500E+02  0.29827272142E+02 -0.43074515489E+01  0.36820909195E+02  0.00000000000E+00 0. -1.
         11    1    4    4    0    0 -0.32756176616E+01 -0.84993003973E+01 -0.14185599089E+02  0.16858202754E+02  0.51100000000E-03 0. -1.
        -11    1    4    4    0    0  0.17852115105E+01 -0.31675910832E+01  0.79454271388E+01  0.87378730871E+01  0.51100000000E-03 0.  1.
        -12    1    4    4    0    0 -0.19665185348E+02 -0.18160380661E+02  0.10547623499E+02  0.28771014964E+02  0.00000000000E+00 0.  1.
</event>
<event>
 8    1  0.1269154E-006  0.9118800E+02  0.7816164E-02  0.1184000E+00
        -11   -1    0    0    0    0  0.00000000000E+00  0.00000000000E+00  0.45593999997E+02  0.45594000000E+02  0.51100000000E-03 0. -1.
         11   -1    0    0    0    0 -0.00000000000E+00 -0.00000000000E+00 -0.45593999997E+02  0.45594000000E+02  0.51100000000E-03 0.  1.
         23    2    1    2    0    0  0.00000000000E+00  0.88817841970E-15  0.00000000000E+00  0.91188000000E+02  0.91188000000E+02 0.  0.
    9900012    2    3    3    0    0  0.16033738876E+02  0.56327924352E+01 -0.32664508482E+02  0.54367092253E+02  0.40000018408E+02 0.  0.
         12    1    3    3    0    0 -0.16033738876E+02 -0.56327924352E+01  0.32664508482E+02  0.36820907747E+02  0.00000000000E+00 0. -1.
         11    1    4    4    0    0 -0.10287735040E+01 -0.15865965867E+01  0.54294954857E-01  0.18917219285E+01  0.51100000000E-03 0. -1.
        -11    1    4    4    0    0 -0.57536043405E+00 -0.85390251804E+01 -0.26744366819E+02  0.28080369433E+02  0.51100000000E-03 0.  1.
         12    1    4    4    0    0  0.17637872814E+02  0.15758414202E+02 -0.59744366173E+01  0.24395000891E+02  0.00000000000E+00 0. -1.
</event>
<event>
 8    1  0.1269154E-006  0.9118800E+02  0.7816164E-02  0.1184000E+00
        -11   -1    0    0    0    0  0.00000000000E+00  0.00000000000E+00  0.45593999997E+02  0.45594000000E+02  0.51100000000E-03 0. -1.
         11   -1    0    0    0    0 -0.00000000000E+00 -0.00000000000E+00 -0.45593999997E+02  0.45594000000E+02  0.51100000000E-03 0.  1.
         23    2    1    2    0    0  0.35527136788E-14 -0.41633363423E-16  0.00000000000E+00  0.91188000000E+02  0.91188000000E+02 0.  0.
    9900012    2    3    3    0    0 -0.30887759779E+02 -0.62833952566E-01  0.20042982444E+02  0.54367098361E+02  0.40000032333E+02 0.  0.
         12    1    3    3    0    0  0.30887759779E+02  0.62833952566E-01 -0.20042982444E+02  0.36820901639E+02  0.00000000000E+00 0. -1.
         11    1    4    4    0    0 -0.66288473826E+01 -0.18200861519E+01  0.23760486530E+01  0.72732344032E+01  0.51100000000E-03 0. -1.
        -11    1    4    4    0    0 -0.31620666998E+02 -0.63800769830E+01  0.10242515211E+02  0.33844956520E+02  0.51100000000E-03 0.  1.
         12    1    4    4    0    0  0.73617546018E+01  0.81373291823E+01  0.74244185797E+01  0.13248907437E+02  0.00000000000E+00 0. -1.
</event>
<event>
 8    1  0.1269154E-006  0.9118800E+02  0.7816164E-02  0.1184000E+00
        -11   -1    0    0    0    0  0.00000000000E+00  0.00000000000E+00  0.45593999997E+02  0.45594000000E+02  0.51100000000E-03 0. -1.
         11   -1    0    0    0    0 -0.00000000000E+00 -0.00000000000E+00 -0.45593999997E+02  0.45594000000E+02  0.51100000000E-03 0.  1.
         23    2    1    2    0    0  0.00000000000E+00  0.35527136788E-14  0.00000000000E+00  0.91188000000E+02  0.91188000000E+02 0.  0.
    9900012    2    3    3    0    0 -0.16551076788E+02  0.28499886482E+02  0.16419455604E+02  0.54367079389E+02  0.39999989083E+02 0.  0.
        -12    1    3    3    0    0  0.16551076788E+02 -0.28499886482E+02 -0.16419455604E+02  0.36820920611E+02  0.00000000000E+00 0.  1.
         11    1    4    4    0    0 -0.88158730971E+01  0.23914142092E+02 -0.13029930986E+01  0.25520650496E+02  0.51100000000E-03 0. -1.
        -11    1    4    4    0    0 -0.89327407900E+01 -0.66900734757E+01  0.66151005469E+01  0.12973453536E+02  0.51100000000E-03 0.  1.
         12    1    4    4    0    0  0.11975370993E+01  0.11275817865E+02  0.11107348156E+02  0.15872975357E+02  0.00000000000E+00 0. -1.
</event>
<event>
 8    1  0.1269154E-006  0.9118800E+02  0.7816164E-02  0.1184000E+00
        -11   -1    0    0    0    0  0.00000000000E+00  0.00000000000E+00  0.45593999997E+02  0.45594000000E+02  0.51100000000E-03 0.  1.
         11   -1    0    0    0    0 -0.00000000000E+00 -0.00000000000E+00 -0.45593999997E+02  0.45594000000E+02  0.51100000000E-03 0. -1.
         23    2    1    2    0    0 -0.88817841970E-15  0.35527136788E-14  0.00000000000E+00  0.91188000000E+02  0.91188000000E+02 0.  0.
    9900012    2    3    3    0    0 -0.74040888713E+01  0.92080579271E+01  0.34873610051E+02  0.54367115427E+02  0.40000071238E+02 0.  0.
         12    1    3    3    0    0  0.74040888713E+01 -0.92080579271E+01 -0.34873610051E+02  0.36820884573E+02  0.00000000000E+00 0. -1.
         11    1    4    4    0    0 -0.10917080131E+02 -0.10924892813E+02  0.95147152201E+01  0.18140168895E+02  0.51100000000E-03 0. -1.
        -11    1    4    4    0    0  0.53618958858E+01 -0.72393570047E-01  0.73465349054E+01  0.90954243275E+01  0.51100000000E-03 0.  1.
         12    1    4    4    0    0 -0.18489046266E+01  0.20205344311E+02  0.18012359925E+02  0.27131522204E+02  0.00000000000E+00 0. -1.
</event>
<event>
 8    1  0.1269154E-006  0.9118800E+02  0.7816164E-02  0.1184000E+00
        -11   -1    0    0    0    0  0.00000000000E+00  0.00000000000E+00  0.45593999997E+02  0.45594000000E+02  0.51100000000E-03 0. -1.
         11   -1    0    0    0    0 -0.00000000000E+00 -0.00000000000E+00 -0.45593999997E+02  0.45594000000E+02  0.51100000000E-03 0.  1.
         23    2    1    2    0    0  0.00000000000E+00  0.00000000000E+00  0.00000000000E+00  0.91188000000E+02  0.91188000000E+02 0.  0.
    9900012    2    3    3    0    0  0.27949209245E+02 -0.11030568576E+02  0.21282599207E+02  0.54367071582E+02  0.39999971286E+02 0.  0.
        -12    1    3    3    0    0 -0.27949209245E+02  0.11030568576E+02 -0.21282599207E+02  0.36820928418E+02  0.00000000000E+00 0.  1.
         11    1    4    4    0    0  0.33998774441E+01  0.17282247650E+01  0.63884186052E+01  0.74402835974E+01  0.51100000000E-03 0.  1.
        -11    1    4    4    0    0  0.14847247685E+02  0.15536293182E+01  0.23322533832E+02  0.27691065572E+02  0.51100000000E-03 0. -1.
        -12    1    4    4    0    0  0.97020841159E+01 -0.14312422659E+02 -0.84283532301E+01  0.19235722413E+02  0.00000000000E+00 0.  1.
</event>
<event>
 8    1  0.1269154E-006  0.9118800E+02  0.7816164E-02  0.1184000E+00
        -11   -1    0    0    0    0  0.00000000000E+00  0.00000000000E+00  0.45593999997E+02  0.45594000000E+02  0.51100000000E-03 0.  1.
         11   -1    0    0    0    0 -0.00000000000E+00 -0.00000000000E+00 -0.45593999997E+02  0.45594000000E+02  0.51100000000E-03 0. -1.
         23    2    1    2    0    0 -0.88817841970E-15  0.00000000000E+00  0.17763568394E-14  0.91188000000E+02  0.91188000000E+02 0.  0.
    9900012    2    3    3    0    0  0.59023883018E+01  0.34693641675E+02  0.10830344009E+02  0.54367037062E+02  0.39999892591E+02 0.  0.
         12    1    3    3    0    0 -0.59023883018E+01 -0.34693641675E+02 -0.10830344009E+02  0.36820962938E+02  0.00000000000E+00 0. -1.
         11    1    4    4    0    0 -0.41026303125E+01 -0.10562115290E+01  0.11358620405E+02  0.12122929351E+02  0.51100000000E-03 0. -1.
        -11    1    4    4    0    0 -0.47824232619E+01  0.11741472695E+02 -0.51252066608E+01  0.13674849062E+02  0.51100000000E-03 0.  1.
         12    1    4    4    0    0  0.14787441876E+02  0.24008380509E+02  0.45969302645E+01  0.28569258649E+02  0.00000000000E+00 0. -1.
</event>
<event>
 8    1  0.1269154E-006  0.9118800E+02  0.7816164E-02  0.1184000E+00
        -11   -1    0    0    0    0  0.00000000000E+00  0.00000000000E+00  0.45593999997E+02  0.45594000000E+02  0.51100000000E-03 0.  1.
         11   -1    0    0    0    0 -0.00000000000E+00 -0.00000000000E+00 -0.45593999997E+02  0.45594000000E+02  0.51100000000E-03 0. -1.
         23    2    1    2    0    0  0.35527136788E-14  0.00000000000E+00  0.00000000000E+00  0.91188000000E+02  0.91188000000E+02 0.  0.
    9900012    2    3    3    0    0  0.28177597634E+02 -0.16900386598E+02  0.16618632747E+02  0.54367095204E+02  0.40000025137E+02 0.  0.
        -12    1    3    3    0    0 -0.28177597634E+02  0.16900386598E+02 -0.16618632747E+02  0.36820904796E+02  0.00000000000E+00 0.  1.
         11    1    4    4    0    0  0.32523227514E+01 -0.70887472703E+01 -0.34665312373E+01  0.85349153612E+01  0.51100000000E-03 0. -1.
        -11    1    4    4    0    0 -0.31836673011E+01 -0.73990317929E+01 -0.37632157211E+01  0.88906243752E+01  0.51100000000E-03 0.  1.
        -12    1    4    4    0    0  0.28108942184E+02 -0.24126075348E+01  0.23848379706E+02  0.36941555468E+02  0.00000000000E+00 0.  1.
</event>
<event>
 8    1  0.1269154E-006  0.9118800E+02  0.7816164E-02  0.1184000E+00
        -11   -1    0    0    0    0  0.00000000000E+00  0.00000000000E+00  0.45593999997E+02  0.45594000000E+02  0.51100000000E-03 0.  1.
         11   -1    0    0    0    0 -0.00000000000E+00 -0.00000000000E+00 -0.45593999997E+02  0.45594000000E+02  0.51100000000E-03 0. -1.
         23    2    1    2    0    0  0.17763568394E-14  0.00000000000E+00  0.00000000000E+00  0.91188000000E+02  0.91188000000E+02 0.  0.
    9900012    2    3    3    0    0 -0.15019137135E+02 -0.30547913051E+02 -0.14036775654E+02  0.54367074661E+02  0.39999978305E+02 0.  0.
        -12    1    3    3    0    0  0.15019137135E+02  0.30547913051E+02  0.14036775654E+02  0.36820925339E+02  0.00000000000E+00 0.  1.
         11    1    4    4    0    0 -0.57440490959E+01 -0.20121419704E+02 -0.20046704209E+02  0.28978198371E+02  0.51100000000E-03 0. -1.
        -11    1    4    4    0    0  0.55276867176E+00  0.57125425285E+01  0.85606105123E+00  0.58027179950E+01  0.51100000000E-03 0.  1.
         12    1    4    4    0    0 -0.98278567114E+01 -0.16139035875E+02  0.51538675041E+01  0.19586158295E+02  0.00000000000E+00 0. -1.
</event>
<event>
 8    1  0.1269154E-006  0.9118800E+02  0.7816164E-02  0.1184000E+00
        -11   -1    0    0    0    0  0.00000000000E+00  0.00000000000E+00  0.45593999997E+02  0.45594000000E+02  0.51100000000E-03 0. -1.
         11   -1    0    0    0    0 -0.00000000000E+00 -0.00000000000E+00 -0.45593999997E+02  0.45594000000E+02  0.51100000000E-03 0.  1.
         23    2    1    2    0    0  0.17763568394E-14  0.17763568394E-14  0.00000000000E+00  0.91188000000E+02  0.91188000000E+02 0.  0.
    9900012    2    3    3    0    0  0.74685397028E+01  0.10273989612E+02 -0.34560792328E+02  0.54367050608E+02  0.39999923470E+02 0.  0.
         12    1    3    3    0    0 -0.74685397028E+01 -0.10273989612E+02  0.34560792328E+02  0.36820949392E+02  0.00000000000E+00 0. -1.
         11    1    4    4    0    0 -0.11483932437E+02  0.14241055310E+02 -0.16196357697E+02  0.24433795519E+02  0.51100000000E-03 0. -1.
        -11    1    4    4    0    0  0.18565797315E+02 -0.10670394848E+01 -0.10091256664E+02  0.21157997649E+02  0.51100000000E-03 0.  1.
        -12    1    4    4    0    0  0.38667482446E+00 -0.29000262134E+01 -0.82731779667E+01  0.87752574393E+01  0.00000000000E+00 0.  1.
</event>
<event>
 8    1  0.1269154E-006  0.9118800E+02  0.7816164E-02  0.1184000E+00
        -11   -1    0    0    0    0  0.00000000000E+00  0.00000000000E+00  0.45593999997E+02  0.45594000000E+02  0.51100000000E-03 0. -1.
         11   -1    0    0    0    0 -0.00000000000E+00 -0.00000000000E+00 -0.45593999997E+02  0.45594000000E+02  0.51100000000E-03 0.  1.
         23    2    1    2    0    0  0.00000000000E+00  0.35527136788E-14  0.00000000000E+00  0.91188000000E+02  0.91188000000E+02 0.  0.
    9900012    2    3    3    0    0 -0.24157201616E+02  0.25775195190E+02  0.10385036351E+02  0.54367081258E+02  0.39999993344E+02 0.  0.
        -12    1    3    3    0    0  0.24157201616E+02 -0.25775195190E+02 -0.10385036351E+02  0.36820918742E+02  0.00000000000E+00 0.  1.
         11    1    4    4    0    0  0.11917462965E+01  0.14500028426E+01 -0.22003959658E+01  0.28921462871E+01  0.51100000000E-03 0. -1.
        -11    1    4    4    0    0  0.55587135031E+01 -0.34026973995E+01 -0.29333175989E+01  0.71471671171E+01  0.51100000000E-03 0.  1.
         12    1    4    4    0    0 -0.30907661416E+02  0.27727889747E+02  0.15518749915E+02  0.44327767854E+02  0.00000000000E+00 0. -1.
</event>
<event>
 8    1  0.1269154E-006  0.9118800E+02  0.7816164E-02  0.1184000E+00
        -11   -1    0    0    0    0  0.00000000000E+00  0.00000000000E+00  0.45593999997E+02  0.45594000000E+02  0.51100000000E-03 0.  1.
         11   -1    0    0    0    0 -0.00000000000E+00 -0.00000000000E+00 -0.45593999997E+02  0.45594000000E+02  0.51100000000E-03 0. -1.
         23    2    1    2    0    0  0.44408920985E-15  0.00000000000E+00  0.35527136788E-14  0.91188000000E+02  0.91188000000E+02 0.  0.
    9900012    2    3    3    0    0 -0.34686248074E+01 -0.19075534905E+02  0.31302923575E+02  0.54367076406E+02  0.39999982283E+02 0.  0.
         12    1    3    3    0    0  0.34686248074E+01  0.19075534905E+02 -0.31302923575E+02  0.36820923594E+02  0.00000000000E+00 0. -1.
         11    1    4    4    0    0  0.63756872563E+01 -0.18949302356E+02  0.44034506629E+01  0.20472318524E+02  0.51100000000E-03 0. -1.
        -11    1    4    4    0    0 -0.45927514621E+01  0.60326884493E+01  0.24204106244E+02  0.25363861206E+02  0.51100000000E-03 0.  1.
        -12    1    4    4    0    0 -0.52515606016E+01 -0.61589209983E+01  0.26953666680E+01  0.85308966757E+01  0.00000000000E+00 0.  1.
</event>
<event>
 8    1  0.1269154E-006  0.9118800E+02  0.7816164E-02  0.1184000E+00
        -11   -1    0    0    0    0  0.00000000000E+00  0.00000000000E+00  0.45593999997E+02  0.45594000000E+02  0.51100000000E-03 0. -1.
         11   -1    0    0    0    0 -0.00000000000E+00 -0.00000000000E+00 -0.45593999997E+02  0.45594000000E+02  0.51100000000E-03 0.  1.
         23    2    1    2    0    0  0.00000000000E+00  0.00000000000E+00  0.17763568394E-14  0.91188000000E+02  0.91188000000E+02 0.  0.
    9900012    2    3    3    0    0  0.17418496791E+02  0.29012587151E+02  0.14513634309E+02  0.54367084415E+02  0.40000000542E+02 0.  0.
        -12    1    3    3    0    0 -0.17418496791E+02 -0.29012587151E+02 -0.14513634309E+02  0.36820915585E+02  0.00000000000E+00 0.  1.
         11    1    4    4    0    0 -0.17932152186E+01  0.11604919979E+02  0.23213706353E+00  0.11744942589E+02  0.51100000000E-03 0.  1.
        -11    1    4    4    0    0  0.90709040434E+01  0.15309238335E+02  0.23003457252E+02  0.29082866509E+02  0.51100000000E-03 0. -1.
        -12    1    4    4    0    0  0.10140807966E+02  0.20984288372E+01 -0.87219600063E+01  0.13539275318E+02  0.00000000000E+00 0.  1.
</event>
<event>
 8    1  0.1269154E-006  0.9118800E+02  0.7816164E-02  0.1184000E+00
        -11   -1    0    0    0    0  0.00000000000E+00  0.00000000000E+00  0.45593999997E+02  0.45594000000E+02  0.51100000000E-03 0.  1.
         11   -1    0    0    0    0 -0.00000000000E+00 -0.00000000000E+00 -0.45593999997E+02  0.45594000000E+02  0.51100000000E-03 0. -1.
         23    2    1    2    0    0 -0.35527136788E-14  0.10658141036E-13  0.00000000000E+00  0.91188000000E+02  0.91188000000E+02 0.  0.
    9900012    2    3    3    0    0  0.25036440671E+02 -0.26395650810E+02  0.56767985117E+01  0.54367084959E+02  0.40000001780E+02 0.  0.
         12    1    3    3    0    0 -0.25036440671E+02  0.26395650810E+02 -0.56767985117E+01  0.36820915041E+02  0.00000000000E+00 0. -1.
         11    1    4    4    0    0  0.21861115054E+01  0.35757424321E+01  0.51444407007E+01  0.66355322197E+01  0.51100000000E-03 0. -1.
        -11    1    4    4    0    0  0.89681254493E+01  0.47527464727E+01  0.18273564691E+01  0.10312861147E+02  0.51100000000E-03 0.  1.
         12    1    4    4    0    0  0.13882203716E+02 -0.34724139714E+02 -0.12949986581E+01  0.37418691592E+02  0.00000000000E+00 0. -1.
</event>
<event>
 8    1  0.1269154E-006  0.9118800E+02  0.7816164E-02  0.1184000E+00
        -11   -1    0    0    0    0  0.00000000000E+00  0.00000000000E+00  0.45593999997E+02  0.45594000000E+02  0.51100000000E-03 0.  1.
         11   -1    0    0    0    0 -0.00000000000E+00 -0.00000000000E+00 -0.45593999997E+02  0.45594000000E+02  0.51100000000E-03 0. -1.
         23    2    1    2    0    0  0.00000000000E+00  0.00000000000E+00 -0.17763568394E-14  0.91188000000E+02  0.91188000000E+02 0.  0.
    9900012    2    3    3    0    0 -0.71631098979E+01 -0.34185384054E+02  0.11654556192E+02  0.54367091451E+02  0.40000016581E+02 0.  0.
        -12    1    3    3    0    0  0.71631098979E+01  0.34185384054E+02 -0.11654556192E+02  0.36820908549E+02  0.00000000000E+00 0.  1.
         11    1    4    4    0    0 -0.20169606338E+02 -0.20629641564E+02  0.74447526654E+01  0.29796299660E+02  0.51100000000E-03 0. -1.
        -11    1    4    4    0    0  0.38995945501E+01  0.32132170435E+01  0.16618519332E+01  0.53191497002E+01  0.51100000000E-03 0.  1.
         12    1    4    4    0    0  0.91069018903E+01 -0.16768959534E+02  0.25479515932E+01  0.19251642091E+02  0.00000000000E+00 0. -1.
</event>
<event>
 8    1  0.1269154E-006  0.9118800E+02  0.7816164E-02  0.1184000E+00
        -11   -1    0    0    0    0  0.00000000000E+00  0.00000000000E+00  0.45593999997E+02  0.45594000000E+02  0.51100000000E-03 0.  1.
         11   -1    0    0    0    0 -0.00000000000E+00 -0.00000000000E+00 -0.45593999997E+02  0.45594000000E+02  0.51100000000E-03 0. -1.
         23    2    1    2    0    0  0.00000000000E+00  0.00000000000E+00  0.00000000000E+00  0.91188000000E+02  0.91188000000E+02 0.  0.
    9900012    2    3    3    0    0  0.82193005522E+01  0.10164926542E+02  0.34422332720E+02  0.54367087151E+02  0.40000006777E+02 0.  0.
         12    1    3    3    0    0 -0.82193005522E+01 -0.10164926542E+02 -0.34422332720E+02  0.36820912849E+02  0.00000000000E+00 0. -1.
         11    1    4    4    0    0 -0.95416849791E+00  0.56414047373E+01 -0.21997087064E+01  0.61298126877E+01  0.51100000000E-03 0. -1.
        -11    1    4    4    0    0 -0.17263277917E+01  0.19139505904E+01  0.36935245899E+02  0.37025069945E+02  0.51100000000E-03 0.  1.
        -12    1    4    4    0    0  0.10899796842E+02  0.26095712139E+01 -0.31320447279E+00  0.11212204518E+02  0.00000000000E+00 0.  1.
</event>
<event>
 8    1  0.1269154E-006  0.9118800E+02  0.7816164E-02  0.1184000E+00
        -11   -1    0    0    0    0  0.00000000000E+00  0.00000000000E+00  0.45593999997E+02  0.45594000000E+02  0.51100000000E-03 0.  1.
         11   -1    0    0    0    0 -0.00000000000E+00 -0.00000000000E+00 -0.45593999997E+02  0.45594000000E+02  0.51100000000E-03 0. -1.
         23    2    1    2    0    0  0.88817841970E-15  0.00000000000E+00 -0.17763568394E-14  0.91188000000E+02  0.91188000000E+02 0.  0.
    9900012    2    3    3    0    0  0.79491854952E+01 -0.34248848133E+02 -0.10936475455E+02  0.54367086868E+02  0.40000006134E+02 0.  0.
        -12    1    3    3    0    0 -0.79491854952E+01  0.34248848133E+02  0.10936475455E+02  0.36820913132E+02  0.00000000000E+00 0.  1.
         11    1    4    4    0    0  0.76257010499E+01 -0.83160403843E+01 -0.18323029190E+02  0.21518393136E+02  0.51100000000E-03 0. -1.
        -11    1    4    4    0    0  0.36389763537E+01 -0.19069352877E+01 -0.42820443879E+01  0.59341769013E+01  0.51100000000E-03 0.  1.
         12    1    4    4    0    0 -0.33154919085E+01 -0.24025872461E+02  0.11668598123E+02  0.26914516831E+02  0.00000000000E+00 0. -1.
</event>
<event>
 8    1  0.1269154E-006  0.9118800E+02  0.7816164E-02  0.1184000E+00
        -11   -1    0    0    0    0  0.00000000000E+00  0.00000000000E+00  0.45593999997E+02  0.45594000000E+02  0.51100000000E-03 0.  1.
         11   -1    0    0    0    0 -0.00000000000E+00 -0.00000000000E+00 -0.45593999997E+02  0.45594000000E+02  0.51100000000E-03 0. -1.
         23    2    1    2    0    0  0.00000000000E+00  0.35527136788E-14 -0.35527136788E-14  0.91188000000E+02  0.91188000000E+02 0.  0.
    9900012    2    3    3    0    0 -0.18454582767E+02  0.25610387955E+02 -0.18955629554E+02  0.54367088984E+02  0.40000010956E+02 0.  0.
        -12    1    3    3    0    0  0.18454582767E+02 -0.25610387955E+02  0.18955629554E+02  0.36820911016E+02  0.00000000000E+00 0.  1.
         11    1    4    4    0    0  0.14237169216E+01  0.16140575052E+02 -0.14902943903E+02  0.22014605836E+02  0.51100000000E-03 0. -1.
        -11    1    4    4    0    0 -0.20196148807E+02 -0.22862871673E+01 -0.29949473029E+01  0.20544615968E+02  0.51100000000E-03 0.  1.
        -12    1    4    4    0    0  0.31784911874E+00  0.11756100070E+02 -0.10577383476E+01  0.11807867180E+02  0.00000000000E+00 0.  1.
</event>
<event>
 8    1  0.1269154E-006  0.9118800E+02  0.7816164E-02  0.1184000E+00
        -11   -1    0    0    0    0  0.00000000000E+00  0.00000000000E+00  0.45593999997E+02  0.45594000000E+02  0.51100000000E-03 0. -1.
         11   -1    0    0    0    0 -0.00000000000E+00 -0.00000000000E+00 -0.45593999997E+02  0.45594000000E+02  0.51100000000E-03 0.  1.
         23    2    1    2    0    0  0.35527136788E-14  0.00000000000E+00 -0.33306690739E-15  0.91188000000E+02  0.91188000000E+02 0.  0.
    9900012    2    3    3    0    0  0.24178781141E+02 -0.27764868543E+02 -0.52763083886E+00  0.54367085061E+02  0.40000002013E+02 0.  0.
         12    1    3    3    0    0 -0.24178781141E+02  0.27764868543E+02  0.52763083886E+00  0.36820914939E+02  0.00000000000E+00 0. -1.
         11    1    4    4    0    0 -0.82461432969E+00 -0.66578535834E+01 -0.73827870969E+01  0.99755976618E+01  0.51100000000E-03 0. -1.
        -11    1    4    4    0    0  0.22813566827E+01  0.68672162427E+01  0.39271189874E+01  0.82331956760E+01  0.51100000000E-03 0.  1.
         12    1    4    4    0    0  0.22722038788E+02 -0.27974231202E+02  0.29280372707E+01  0.36158291723E+02  0.00000000000E+00 0. -1.
</event>
<event>
 8    1  0.1269154E-006  0.9118800E+02  0.7816164E-02  0.1184000E+00
        -11   -1    0    0    0    0  0.00000000000E+00  0.00000000000E+00  0.45593999997E+02  0.45594000000E+02  0.51100000000E-03 0.  1.
         11   -1    0    0    0    0 -0.00000000000E+00 -0.00000000000E+00 -0.45593999997E+02  0.45594000000E+02  0.51100000000E-03 0. -1.
         23    2    1    2    0    0  0.17763568394E-14  0.00000000000E+00  0.00000000000E+00  0.91188000000E+02  0.91188000000E+02 0.  0.
    9900012    2    3    3    0    0  0.57108719642E+01  0.45323509433E+01  0.36091869223E+02  0.54367091705E+02  0.40000017159E+02 0.  0.
         12    1    3    3    0    0 -0.57108719642E+01 -0.45323509433E+01 -0.36091869223E+02  0.36820908295E+02  0.00000000000E+00 0. -1.
         11    1    4    4    0    0 -0.36204613045E+01  0.75282796037E+01 -0.11315116573E+01  0.84298904347E+01  0.51100000000E-03 0. -1.
        -11    1    4    4    0    0 -0.48967280106E+01 -0.78378049081E+01  0.24705870410E+02  0.26377815754E+02  0.51100000000E-03 0.  1.
         12    1    4    4    0    0  0.14228061279E+02  0.48418762477E+01  0.12517510470E+02  0.19559385516E+02  0.00000000000E+00 0. -1.
</event>
<event>
 8    1  0.1269154E-006  0.9118800E+02  0.7816164E-02  0.1184000E+00
        -11   -1    0    0    0    0  0.00000000000E+00  0.00000000000E+00  0.45593999997E+02  0.45594000000E+02  0.51100000000E-03 0.  1.
         11   -1    0    0    0    0 -0.00000000000E+00 -0.00000000000E+00 -0.45593999997E+02  0.45594000000E+02  0.51100000000E-03 0. -1.
         23    2    1    2    0    0  0.44408920985E-15 -0.17763568394E-14  0.00000000000E+00  0.91188000000E+02  0.91188000000E+02 0.  0.
    9900012    2    3    3    0    0 -0.35302819249E+01 -0.14078066234E+02  0.33839700573E+02  0.54367079666E+02  0.39999989715E+02 0.  0.
         12    1    3    3    0    0  0.35302819249E+01  0.14078066234E+02 -0.33839700573E+02  0.36820920334E+02  0.00000000000E+00 0. -1.
         11    1    4    4    0    0 -0.19231627836E+01  0.19315363655E+01 -0.84022894993E-01  0.27269851359E+01  0.51100000000E-03 0. -1.
        -11    1    4    4    0    0 -0.15127355898E+02 -0.17173630638E+02  0.29563049792E+02  0.37386419981E+02  0.51100000000E-03 0.  1.
        -12    1    4    4    0    0  0.13520236757E+02  0.11640280386E+01  0.43606736763E+01  0.14253674549E+02  0.00000000000E+00 0.  1.
</event>
<event>
 8    1  0.1269154E-006  0.9118800E+02  0.7816164E-02  0.1184000E+00
        -11   -1    0    0    0    0  0.00000000000E+00  0.00000000000E+00  0.45593999997E+02  0.45594000000E+02  0.51100000000E-03 0. -1.
         11   -1    0    0    0    0 -0.00000000000E+00 -0.00000000000E+00 -0.45593999997E+02  0.45594000000E+02  0.51100000000E-03 0.  1.
         23    2    1    2    0    0  0.00000000000E+00 -0.17763568394E-14 -0.35527136788E-14  0.91188000000E+02  0.91188000000E+02 0.  0.
    9900012    2    3    3    0    0 -0.16522378479E+02 -0.79575905877E+01  0.31929103245E+02  0.54367083763E+02  0.39999999053E+02 0.  0.
        -12    1    3    3    0    0  0.16522378479E+02  0.79575905877E+01 -0.31929103245E+02  0.36820916237E+02  0.00000000000E+00 0.  1.
         11    1    4    4    0    0 -0.81940207040E+01  0.53289576906E+01  0.25332710313E+02  0.27153010467E+02  0.51100000000E-03 0. -1.
        -11    1    4    4    0    0 -0.64040357898E+01  0.19968651273E+01 -0.46320303968E+01  0.81519844573E+01  0.51100000000E-03 0.  1.
         12    1    4    4    0    0 -0.19243219848E+01 -0.15283413406E+02  0.11228423329E+02  0.19062088838E+02  0.00000000000E+00 0. -1.
</event>
<event>
 8    1  0.1269154E-006  0.9118800E+02  0.7816164E-02  0.1184000E+00
        -11   -1    0    0    0    0  0.00000000000E+00  0.00000000000E+00  0.45593999997E+02  0.45594000000E+02  0.51100000000E-03 0.  1.
         11   -1    0    0    0    0 -0.00000000000E+00 -0.00000000000E+00 -0.45593999997E+02  0.45594000000E+02  0.51100000000E-03 0. -1.
         23    2    1    2    0    0  0.00000000000E+00  0.17763568394E-14  0.00000000000E+00  0.91188000000E+02  0.91188000000E+02 0.  0.
    9900012    2    3    3    0    0 -0.24385239278E+02 -0.13741750576E+02 -0.23922873740E+02  0.54367088936E+02  0.40000010848E+02 0.  0.
        -12    1    3    3    0    0  0.24385239278E+02  0.13741750576E+02  0.23922873740E+02  0.36820911064E+02  0.00000000000E+00 0.  1.
         11    1    4    4    0    0 -0.27085869918E+02  0.34549674277E+01 -0.54629141091E+01  0.27846446451E+02  0.51100000000E-03 0. -1.
        -11    1    4    4    0    0  0.10631639734E+01 -0.11838646782E+02 -0.16978006338E+02  0.20725264166E+02  0.51100000000E-03 0.  1.
         12    1    4    4    0    0  0.16374666658E+01 -0.53580712222E+01 -0.14819532929E+01  0.57953783196E+01  0.00000000000E+00 0. -1.
</event>
<event>
 8    1  0.1269154E-006  0.9118800E+02  0.7816164E-02  0.1184000E+00
        -11   -1    0    0    0    0  0.00000000000E+00  0.00000000000E+00  0.45593999997E+02  0.45594000000E+02  0.51100000000E-03 0.  1.
         11   -1    0    0    0    0 -0.00000000000E+00 -0.00000000000E+00 -0.45593999997E+02  0.45594000000E+02  0.51100000000E-03 0. -1.
         23    2    1    2    0    0  0.35527136788E-14  0.00000000000E+00  0.00000000000E+00  0.91188000000E+02  0.91188000000E+02 0.  0.
    9900012    2    3    3    0    0 -0.23023371750E+02 -0.19964063759E+02 -0.20667354979E+02  0.54367094928E+02  0.40000024507E+02 0.  0.
        -12    1    3    3    0    0  0.23023371750E+02  0.19964063759E+02  0.20667354979E+02  0.36820905072E+02  0.00000000000E+00 0.  1.
         11    1    4    4    0    0 -0.95091263462E+01 -0.23782892378E+02 -0.22369492534E+02  0.34006523642E+02  0.51100000000E-03 0. -1.
        -11    1    4    4    0    0 -0.10988833556E+02 -0.42669265591E+01  0.15374298044E+01  0.11888011434E+02  0.51100000000E-03 0.  1.
        -12    1    4    4    0    0 -0.25254118477E+01  0.80857551780E+01  0.16470775047E+00  0.84725598518E+01  0.00000000000E+00 0.  1.
</event>
<event>
 8    1  0.1269154E-006  0.9118800E+02  0.7816164E-02  0.1184000E+00
        -11   -1    0    0    0    0  0.00000000000E+00  0.00000000000E+00  0.45593999997E+02  0.45594000000E+02  0.51100000000E-03 0. -1.
         11   -1    0    0    0    0 -0.00000000000E+00 -0.00000000000E+00 -0.45593999997E+02  0.45594000000E+02  0.51100000000E-03 0.  1.
         23    2    1    2    0    0 -0.26645352591E-14  0.35527136788E-14  0.00000000000E+00  0.91188000000E+02  0.91188000000E+02 0.  0.
    9900012    2    3    3    0    0 -0.73997613369E+01  0.20477322117E+02  0.29693413717E+02  0.54367136253E+02  0.40000118715E+02 0.  0.
        -12    1    3    3    0    0  0.73997613369E+01 -0.20477322117E+02 -0.29693413717E+02  0.36820863747E+02  0.00000000000E+00 0.  1.
         11    1    4    4    0    0  0.12210310574E+02  0.14492599836E+02  0.11613062173E+02  0.22225893629E+02  0.51100000000E-03 0. -1.
        -11    1    4    4    0    0 -0.17894298970E+02 -0.22147447565E+01  0.10633977800E+02  0.20933048370E+02  0.51100000000E-03 0.  1.
         12    1    4    4    0    0 -0.17157729413E+01  0.81994670376E+01  0.74463737439E+01  0.11208194253E+02  0.00000000000E+00 0. -1.
</event>
<event>
 8    1  0.1269154E-006  0.9118800E+02  0.7816164E-02  0.1184000E+00
        -11   -1    0    0    0    0  0.00000000000E+00  0.00000000000E+00  0.45593999997E+02  0.45594000000E+02  0.51100000000E-03 0. -1.
         11   -1    0    0    0    0 -0.00000000000E+00 -0.00000000000E+00 -0.45593999997E+02  0.45594000000E+02  0.51100000000E-03 0.  1.
         23    2    1    2    0    0 -0.71054273576E-14 -0.17763568394E-14  0.00000000000E+00  0.91188000000E+02  0.91188000000E+02 0.  0.
    9900012    2    3    3    0    0 -0.30475000969E+02 -0.13671979104E+02 -0.15496399477E+02  0.54366985709E+02  0.39999775520E+02 0.  0.
         12    1    3    3    0    0  0.30475000969E+02  0.13671979104E+02  0.15496399477E+02  0.36821014291E+02  0.00000000000E+00 0. -1.
         11    1    4    4    0    0  0.43255971314E+01 -0.23417276604E+01 -0.10152394276E+01  0.50224685499E+01  0.51100000000E-03 0. -1.
        -11    1    4    4    0    0 -0.12422988956E+00  0.61574534493E+01 -0.77988095455E+01  0.99373586347E+01  0.51100000000E-03 0.  1.
        -12    1    4    4    0    0 -0.34676368211E+02 -0.17487704892E+02 -0.66823505040E+01  0.39407158524E+02  0.00000000000E+00 0.  1.
</event>
<event>
 8    1  0.1269154E-006  0.9118800E+02  0.7816164E-02  0.1184000E+00
        -11   -1    0    0    0    0  0.00000000000E+00  0.00000000000E+00  0.45593999997E+02  0.45594000000E+02  0.51100000000E-03 0.  1.
         11   -1    0    0    0    0 -0.00000000000E+00 -0.00000000000E+00 -0.45593999997E+02  0.45594000000E+02  0.51100000000E-03 0. -1.
         23    2    1    2    0    0  0.00000000000E+00 -0.35527136788E-14  0.00000000000E+00  0.91188000000E+02  0.91188000000E+02 0.  0.
    9900012    2    3    3    0    0  0.24168863451E+02  0.27471198964E+02 -0.41217528191E+01  0.54366951952E+02  0.39999698564E+02 0.  0.
        -12    1    3    3    0    0 -0.24168863451E+02 -0.27471198964E+02  0.41217528191E+01  0.36821048048E+02  0.00000000000E+00 0.  1.
         11    1    4    4    0    0  0.37068149078E+01  0.87386822659E+01 -0.29632413951E+01  0.99441361783E+01  0.51100000000E-03 0. -1.
        -11    1    4    4    0    0 -0.69448635259E+01 -0.46283691374E+01  0.60376407759E+00  0.83676437297E+01  0.51100000000E-03 0.  1.
         12    1    4    4    0    0  0.27406912069E+02  0.23360885835E+02 -0.17622755016E+01  0.36055172044E+02  0.00000000000E+00 0. -1.
</event>
<event>
 8    1  0.1269154E-006  0.9118800E+02  0.7816164E-02  0.1184000E+00
        -11   -1    0    0    0    0  0.00000000000E+00  0.00000000000E+00  0.45593999997E+02  0.45594000000E+02  0.51100000000E-03 0. -1.
         11   -1    0    0    0    0 -0.00000000000E+00 -0.00000000000E+00 -0.45593999997E+02  0.45594000000E+02  0.51100000000E-03 0.  1.
         23    2    1    2    0    0  0.00000000000E+00  0.00000000000E+00  0.00000000000E+00  0.91188000000E+02  0.91188000000E+02 0.  0.
    9900012    2    3    3    0    0 -0.53636013475E+01 -0.13472614428E+02 -0.33845239972E+02  0.54367084372E+02  0.40000000443E+02 0.  0.
         12    1    3    3    0    0  0.53636013475E+01  0.13472614428E+02  0.33845239972E+02  0.36820915628E+02  0.00000000000E+00 0. -1.
         11    1    4    4    0    0 -0.32428873208E+01 -0.35748468726E+01  0.53806307256E+01  0.72282110930E+01  0.51100000000E-03 0. -1.
        -11    1    4    4    0    0  0.37557830213E+01 -0.67979989624E+01 -0.43020430661E+00  0.77784170627E+01  0.51100000000E-03 0.  1.
         12    1    4    4    0    0 -0.58764970480E+01 -0.30997685927E+01 -0.38795666391E+02  0.39360456217E+02  0.00000000000E+00 0. -1.
</event>
<event>
 8    1  0.1269154E-006  0.9118800E+02  0.7816164E-02  0.1184000E+00
        -11   -1    0    0    0    0  0.00000000000E+00  0.00000000000E+00  0.45593999997E+02  0.45594000000E+02  0.51100000000E-03 0. -1.
         11   -1    0    0    0    0 -0.00000000000E+00 -0.00000000000E+00 -0.45593999997E+02  0.45594000000E+02  0.51100000000E-03 0.  1.
         23    2    1    2    0    0  0.00000000000E+00  0.00000000000E+00  0.00000000000E+00  0.91188000000E+02  0.91188000000E+02 0.  0.
    9900012    2    3    3    0    0  0.11642640914E+02  0.26000413083E+02  0.23328228404E+02  0.54367098213E+02  0.40000031997E+02 0.  0.
        -12    1    3    3    0    0 -0.11642640914E+02 -0.26000413083E+02 -0.23328228404E+02  0.36820901787E+02  0.00000000000E+00 0.  1.
         11    1    4    4    0    0 -0.14163718852E+01  0.89261291042E+01  0.15762557531E+02  0.18169758124E+02  0.51100000000E-03 0. -1.
        -11    1    4    4    0    0  0.18083975737E+02  0.19292265309E+02  0.12095349234E+02  0.29077812032E+02  0.51100000000E-03 0.  1.
        -12    1    4    4    0    0 -0.50249629373E+01 -0.22179813303E+01 -0.45296783617E+01  0.71195280576E+01  0.00000000000E+00 0.  1.
</event>
<event>
 8    1  0.1269154E-006  0.9118800E+02  0.7816164E-02  0.1184000E+00
        -11   -1    0    0    0    0  0.00000000000E+00  0.00000000000E+00  0.45593999997E+02  0.45594000000E+02  0.51100000000E-03 0. -1.
         11   -1    0    0    0    0 -0.00000000000E+00 -0.00000000000E+00 -0.45593999997E+02  0.45594000000E+02  0.51100000000E-03 0.  1.
         23    2    1    2    0    0  0.35527136788E-14  0.35527136788E-14 -0.44408920985E-15  0.91188000000E+02  0.91188000000E+02 0.  0.
    9900012    2    3    3    0    0  0.21679080839E+02  0.29628607972E+02 -0.28183439979E+01  0.54367081770E+02  0.39999994512E+02 0.  0.
        -12    1    3    3    0    0 -0.21679080839E+02 -0.29628607972E+02  0.28183439979E+01  0.36820918230E+02  0.00000000000E+00 0.  1.
         11    1    4    4    0    0  0.16778710194E+02 -0.48388662779E+01 -0.67061879906E+00  0.17475396204E+02  0.51100000000E-03 0.  1.
        -11    1    4    4    0    0 -0.37941875018E+01  0.13573148524E+02 -0.21763770910E+01  0.14260534252E+02  0.51100000000E-03 0. -1.
        -12    1    4    4    0    0  0.86945581465E+01  0.20894325726E+02  0.28651892140E-01  0.22631151315E+02  0.00000000000E+00 0.  1.
</event>
<event>
 8    1  0.1269154E-006  0.9118800E+02  0.7816164E-02  0.1184000E+00
        -11   -1    0    0    0    0  0.00000000000E+00  0.00000000000E+00  0.45593999997E+02  0.45594000000E+02  0.51100000000E-03 0.  1.
         11   -1    0    0    0    0 -0.00000000000E+00 -0.00000000000E+00 -0.45593999997E+02  0.45594000000E+02  0.51100000000E-03 0. -1.
         23    2    1    2    0    0  0.17763568394E-14  0.35527136788E-14 -0.17763568394E-14  0.91188000000E+02  0.91188000000E+02 0.  0.
    9900012    2    3    3    0    0  0.13429697168E+02  0.30657720537E+02  0.15346906734E+02  0.54367080120E+02  0.39999990749E+02 0.  0.
         12    1    3    3    0    0 -0.13429697168E+02 -0.30657720537E+02 -0.15346906734E+02  0.36820919880E+02  0.00000000000E+00 0. -1.
         11    1    4    4    0    0 -0.25090276758E+01  0.12081769906E+02 -0.61526778950E+01  0.13788394739E+02  0.51100000000E-03 0. -1.
        -11    1    4    4    0    0 -0.50979863327E+00  0.16592106127E+02  0.53464340903E+01  0.17439674255E+02  0.51100000000E-03 0.  1.
        -12    1    4    4    0    0  0.16448523477E+02  0.19838445043E+01  0.16153150538E+02  0.23139011126E+02  0.00000000000E+00 0.  1.
</event>
<event>
 8    1  0.1269154E-006  0.9118800E+02  0.7816164E-02  0.1184000E+00
        -11   -1    0    0    0    0  0.00000000000E+00  0.00000000000E+00  0.45593999997E+02  0.45594000000E+02  0.51100000000E-03 0. -1.
         11   -1    0    0    0    0 -0.00000000000E+00 -0.00000000000E+00 -0.45593999997E+02  0.45594000000E+02  0.51100000000E-03 0.  1.
         23    2    1    2    0    0  0.00000000000E+00  0.00000000000E+00  0.00000000000E+00  0.91188000000E+02  0.91188000000E+02 0.  0.
    9900012    2    3    3    0    0  0.98259862773E+01 -0.22180322934E+02 -0.27699499086E+02  0.54367095864E+02  0.40000026641E+02 0.  0.
         12    1    3    3    0    0 -0.98259862773E+01  0.22180322934E+02  0.27699499086E+02  0.36820904136E+02  0.00000000000E+00 0. -1.
         11    1    4    4    0    0  0.52186640648E+01 -0.21543510414E+02 -0.10451823294E+02  0.24507099094E+02  0.51100000000E-03 0. -1.
        -11    1    4    4    0    0  0.71790358511E+01  0.52272326477E+01 -0.20743656147E+02  0.22564613613E+02  0.51100000000E-03 0.  1.
        -12    1    4    4    0    0 -0.25717136386E+01 -0.58640451676E+01  0.34959803543E+01  0.72953831568E+01  0.00000000000E+00 0.  1.
</event>
<event>
 8    1  0.1269154E-006  0.9118800E+02  0.7816164E-02  0.1184000E+00
        -11   -1    0    0    0    0  0.00000000000E+00  0.00000000000E+00  0.45593999997E+02  0.45594000000E+02  0.51100000000E-03 0. -1.
         11   -1    0    0    0    0 -0.00000000000E+00 -0.00000000000E+00 -0.45593999997E+02  0.45594000000E+02  0.51100000000E-03 0.  1.
         23    2    1    2    0    0  0.00000000000E+00  0.00000000000E+00  0.33306690739E-15  0.91188000000E+02  0.91188000000E+02 0.  0.
    9900012    2    3    3    0    0 -0.17053447343E+02 -0.32628877146E+02  0.55805467072E+00  0.54367148365E+02  0.40000146327E+02 0.  0.
         12    1    3    3    0    0  0.17053447343E+02  0.32628877146E+02 -0.55805467072E+00  0.36820851635E+02  0.00000000000E+00 0. -1.
         11    1    4    4    0    0 -0.75526086465E+01 -0.30896253428E+01 -0.10050796266E+02  0.12946280855E+02  0.51100000000E-03 0.  1.
        -11    1    4    4    0    0 -0.12350989487E+01 -0.17073226418E+02 -0.68441797564E+01  0.18435382462E+02  0.51100000000E-03 0. -1.
         12    1    4    4    0    0 -0.82657397482E+01 -0.12466025386E+02  0.17453030693E+02  0.22985485048E+02  0.00000000000E+00 0. -1.
</event>
<event>
 8    1  0.1269154E-006  0.9118800E+02  0.7816164E-02  0.1184000E+00
        -11   -1    0    0    0    0  0.00000000000E+00  0.00000000000E+00  0.45593999997E+02  0.45594000000E+02  0.51100000000E-03 0. -1.
         11   -1    0    0    0    0 -0.00000000000E+00 -0.00000000000E+00 -0.45593999997E+02  0.45594000000E+02  0.51100000000E-03 0.  1.
         23    2    1    2    0    0 -0.17763568394E-14  0.35527136788E-14  0.00000000000E+00  0.91188000000E+02  0.91188000000E+02 0.  0.
    9900012    2    3    3    0    0 -0.14715338385E+02  0.26324968110E+02  0.21124269249E+02  0.54367083647E+02  0.39999998791E+02 0.  0.
        -12    1    3    3    0    0  0.14715338385E+02 -0.26324968110E+02 -0.21124269249E+02  0.36820916353E+02  0.00000000000E+00 0.  1.
         11    1    4    4    0    0 -0.36629524338E+01  0.15806182655E+02  0.43953877131E+01  0.16809879954E+02  0.51100000000E-03 0. -1.
        -11    1    4    4    0    0  0.15429543482E+01  0.12452079881E+02 -0.40477814910E+01  0.13184063742E+02  0.51100000000E-03 0.  1.
         12    1    4    4    0    0 -0.12595340299E+02 -0.19332944262E+01  0.20776663027E+02  0.24373139952E+02  0.00000000000E+00 0. -1.
</event>
<event>
 8    1  0.1269154E-006  0.9118800E+02  0.7816164E-02  0.1184000E+00
        -11   -1    0    0    0    0  0.00000000000E+00  0.00000000000E+00  0.45593999997E+02  0.45594000000E+02  0.51100000000E-03 0.  1.
         11   -1    0    0    0    0 -0.00000000000E+00 -0.00000000000E+00 -0.45593999997E+02  0.45594000000E+02  0.51100000000E-03 0. -1.
         23    2    1    2    0    0  0.00000000000E+00  0.35527136788E-14  0.17763568394E-14  0.91188000000E+02  0.91188000000E+02 0.  0.
    9900012    2    3    3    0    0 -0.34563029227E+02  0.11514923597E+02 -0.53465857127E+01  0.54367048986E+02  0.39999919772E+02 0.  0.
         12    1    3    3    0    0  0.34563029227E+02 -0.11514923597E+02  0.53465857127E+01  0.36820951014E+02  0.00000000000E+00 0. -1.
         11    1    4    4    0    0 -0.11151898977E+02  0.20902960942E+01  0.14723693287E+02  0.18588204131E+02  0.51100000000E-03 0. -1.
        -11    1    4    4    0    0 -0.23370864046E+02  0.90290823564E+01 -0.12143615475E+02  0.27842216354E+02  0.51100000000E-03 0.  1.
         12    1    4    4    0    0 -0.40266204921E-01  0.39554514662E+00 -0.79266635242E+01  0.79366285006E+01  0.00000000000E+00 0. -1.
</event>
<event>
 8    1  0.1269154E-006  0.9118800E+02  0.7816164E-02  0.1184000E+00
        -11   -1    0    0    0    0  0.00000000000E+00  0.00000000000E+00  0.45593999997E+02  0.45594000000E+02  0.51100000000E-03 0.  1.
         11   -1    0    0    0    0 -0.00000000000E+00 -0.00000000000E+00 -0.45593999997E+02  0.45594000000E+02  0.51100000000E-03 0. -1.
         23    2    1    2    0    0  0.00000000000E+00  0.00000000000E+00 -0.44408920985E-15  0.91188000000E+02  0.91188000000E+02 0.  0.
    9900012    2    3    3    0    0  0.17528124943E+02 -0.32272753210E+02  0.26481596433E+01  0.54367102221E+02  0.40000041134E+02 0.  0.
         12    1    3    3    0    0 -0.17528124943E+02  0.32272753210E+02 -0.26481596433E+01  0.36820897779E+02  0.00000000000E+00 0. -1.
         11    1    4    4    0    0 -0.87175865454E+01 -0.50077174057E+01 -0.93018169993E+01  0.13696618143E+02  0.51100000000E-03 0. -1.
        -11    1    4    4    0    0  0.12361562513E+02 -0.19147973817E+02  0.68655130273E+01  0.23803117411E+02  0.51100000000E-03 0.  1.
         12    1    4    4    0    0  0.13884148975E+02 -0.81170619868E+01  0.50844636153E+01  0.16867366668E+02  0.00000000000E+00 0. -1.
</event>
<event>
 8    1  0.1269154E-006  0.9118800E+02  0.7816164E-02  0.1184000E+00
        -11   -1    0    0    0    0  0.00000000000E+00  0.00000000000E+00  0.45593999997E+02  0.45594000000E+02  0.51100000000E-03 0. -1.
         11   -1    0    0    0    0 -0.00000000000E+00 -0.00000000000E+00 -0.45593999997E+02  0.45594000000E+02  0.51100000000E-03 0.  1.
         23    2    1    2    0    0 -0.17763568394E-14  0.00000000000E+00 -0.35527136788E-14  0.91188000000E+02  0.91188000000E+02 0.  0.
    9900012    2    3    3    0    0  0.10994470714E+02 -0.23346388436E+02  0.26264915377E+02  0.54367108932E+02  0.40000056432E+02 0.  0.
        -12    1    3    3    0    0 -0.10994470714E+02  0.23346388436E+02 -0.26264915377E+02  0.36820891068E+02  0.00000000000E+00 0.  1.
         11    1    4    4    0    0  0.16572812412E+02 -0.18866158232E+02  0.70030859114E+01  0.26069776567E+02  0.51100000000E-03 0. -1.
        -11    1    4    4    0    0 -0.38423864064E+01 -0.12114966201E+02  0.13736865277E+02  0.18714641521E+02  0.51100000000E-03 0.  1.
         12    1    4    4    0    0 -0.17359552917E+01  0.76347359976E+01  0.55249641890E+01  0.95826908444E+01  0.00000000000E+00 0. -1.
</event>
<event>
 8    1  0.1269154E-006  0.9118800E+02  0.7816164E-02  0.1184000E+00
        -11   -1    0    0    0    0  0.00000000000E+00  0.00000000000E+00  0.45593999997E+02  0.45594000000E+02  0.51100000000E-03 0. -1.
         11   -1    0    0    0    0 -0.00000000000E+00 -0.00000000000E+00 -0.45593999997E+02  0.45594000000E+02  0.51100000000E-03 0.  1.
         23    2    1    2    0    0  0.35527136788E-14  0.88817841970E-15  0.00000000000E+00  0.91188000000E+02  0.91188000000E+02 0.  0.
    9900012    2    3    3    0    0  0.27779616684E+02  0.55311083441E+01 -0.23525938878E+02  0.54367216973E+02  0.40000302733E+02 0.  0.
         12    1    3    3    0    0 -0.27779616684E+02 -0.55311083441E+01  0.23525938878E+02  0.36820783027E+02  0.00000000000E+00 0. -1.
         11    1    4    4    0    0 -0.69942295602E+00 -0.55155588161E+00 -0.65901259255E+01  0.66500501003E+01  0.51100000000E-03 0. -1.
        -11    1    4    4    0    0 -0.33934806243E+01 -0.50475278397E+01 -0.12192769401E+02  0.13625596279E+02  0.51100000000E-03 0.  1.
         12    1    4    4    0    0  0.31872520264E+02  0.11130192065E+02 -0.47430435512E+01  0.34091570594E+02  0.00000000000E+00 0. -1.
</event>
<event>
 8    1  0.1269154E-006  0.9118800E+02  0.7816164E-02  0.1184000E+00
        -11   -1    0    0    0    0  0.00000000000E+00  0.00000000000E+00  0.45593999997E+02  0.45594000000E+02  0.51100000000E-03 0. -1.
         11   -1    0    0    0    0 -0.00000000000E+00 -0.00000000000E+00 -0.45593999997E+02  0.45594000000E+02  0.51100000000E-03 0.  1.
         23    2    1    2    0    0  0.35527136788E-14  0.00000000000E+00 -0.35527136788E-14  0.91188000000E+02  0.91188000000E+02 0.  0.
    9900012    2    3    3    0    0  0.18900577572E+02 -0.16274175255E+02 -0.27086878295E+02  0.54367087619E+02  0.40000007845E+02 0.  0.
         12    1    3    3    0    0 -0.18900577572E+02  0.16274175255E+02  0.27086878295E+02  0.36820912381E+02  0.00000000000E+00 0. -1.
         11    1    4    4    0    0  0.16663885132E+02 -0.14477903198E+02 -0.31670873295E+02  0.38604908551E+02  0.51100000000E-03 0. -1.
        -11    1    4    4    0    0  0.36294988651E+01 -0.50291047339E+01 -0.33740174654E+01  0.70603930878E+01  0.51100000000E-03 0.  1.
         12    1    4    4    0    0 -0.13928064248E+01  0.32328326775E+01  0.79580124650E+01  0.87017859805E+01  0.00000000000E+00 0. -1.
</event>
<event>
 8    1  0.1269154E-006  0.9118800E+02  0.7816164E-02  0.1184000E+00
        -11   -1    0    0    0    0  0.00000000000E+00  0.00000000000E+00  0.45593999997E+02  0.45594000000E+02  0.51100000000E-03 0.  1.
         11   -1    0    0    0    0 -0.00000000000E+00 -0.00000000000E+00 -0.45593999997E+02  0.45594000000E+02  0.51100000000E-03 0. -1.
         23    2    1    2    0    0  0.00000000000E+00 -0.17763568394E-14 -0.17763568394E-14  0.91188000000E+02  0.91188000000E+02 0.  0.
    9900012    2    3    3    0    0 -0.29966394293E+02 -0.14811729824E+02 -0.15440439209E+02  0.54367091670E+02  0.40000017080E+02 0.  0.
        -12    1    3    3    0    0  0.29966394293E+02  0.14811729824E+02  0.15440439209E+02  0.36820908330E+02  0.00000000000E+00 0.  1.
         11    1    4    4    0    0  0.26894658184E+01  0.14395057340E+01 -0.10700800574E+02  0.11127108175E+02  0.51100000000E-03 0. -1.
        -11    1    4    4    0    0 -0.14395837818E+02 -0.15674197656E+02  0.59179650173E+01  0.22089430251E+02  0.51100000000E-03 0.  1.
        -12    1    4    4    0    0 -0.18260022293E+02 -0.57703790210E+00 -0.10657603653E+02  0.21150553244E+02  0.00000000000E+00 0.  1.
</event>
<event>
 8    1  0.1269154E-006  0.9118800E+02  0.7816164E-02  0.1184000E+00
        -11   -1    0    0    0    0  0.00000000000E+00  0.00000000000E+00  0.45593999997E+02  0.45594000000E+02  0.51100000000E-03 0.  1.
         11   -1    0    0    0    0 -0.00000000000E+00 -0.00000000000E+00 -0.45593999997E+02  0.45594000000E+02  0.51100000000E-03 0. -1.
         23    2    1    2    0    0  0.00000000000E+00 -0.35527136788E-14  0.35527136788E-14  0.91188000000E+02  0.91188000000E+02 0.  0.
    9900012    2    3    3    0    0  0.26951418745E+02  0.19877782349E+02 -0.15305954483E+02  0.54367116712E+02  0.40000074168E+02 0.  0.
        -12    1    3    3    0    0 -0.26951418745E+02 -0.19877782349E+02  0.15305954483E+02  0.36820883288E+02  0.00000000000E+00 0.  1.
         11    1    4    4    0    0  0.29081285667E+02 -0.16761854157E+01 -0.80002143082E+01  0.30208181058E+02  0.51100000000E-03 0. -1.
        -11    1    4    4    0    0  0.21634712176E+01  0.14665579192E+02 -0.57147024285E+01  0.15887656997E+02  0.51100000000E-03 0.  1.
         12    1    4    4    0    0 -0.42933381399E+01  0.68883885726E+01 -0.15910377468E+01  0.82712786570E+01  0.00000000000E+00 0. -1.
</event>
<event>
 8    1  0.1269154E-006  0.9118800E+02  0.7816164E-02  0.1184000E+00
        -11   -1    0    0    0    0  0.00000000000E+00  0.00000000000E+00  0.45593999997E+02  0.45594000000E+02  0.51100000000E-03 0.  1.
         11   -1    0    0    0    0 -0.00000000000E+00 -0.00000000000E+00 -0.45593999997E+02  0.45594000000E+02  0.51100000000E-03 0. -1.
         23    2    1    2    0    0  0.00000000000E+00  0.17763568394E-14  0.35527136788E-14  0.91188000000E+02  0.91188000000E+02 0.  0.
    9900012    2    3    3    0    0 -0.28894160046E+02  0.46241024834E+01  0.22350173427E+02  0.54367013311E+02  0.39999838444E+02 0.  0.
         12    1    3    3    0    0  0.28894160046E+02 -0.46241024834E+01 -0.22350173427E+02  0.36820986689E+02  0.00000000000E+00 0. -1.
         11    1    4    4    0    0 -0.59301927938E+01  0.30802824088E+01 -0.30157332406E+01  0.73314373440E+01  0.51100000000E-03 0. -1.
        -11    1    4    4    0    0 -0.20761132519E+02  0.15229267696E+02  0.16461439253E+02  0.30560337049E+02  0.51100000000E-03 0.  1.
        -12    1    4    4    0    0 -0.22028347330E+01 -0.13685447621E+02  0.89044674152E+01  0.16475238918E+02  0.00000000000E+00 0.  1.
</event>
<event>
 8    1  0.1269154E-006  0.9118800E+02  0.7816164E-02  0.1184000E+00
        -11   -1    0    0    0    0  0.00000000000E+00  0.00000000000E+00  0.45593999997E+02  0.45594000000E+02  0.51100000000E-03 0.  1.
         11   -1    0    0    0    0 -0.00000000000E+00 -0.00000000000E+00 -0.45593999997E+02  0.45594000000E+02  0.51100000000E-03 0. -1.
         23    2    1    2    0    0  0.35527136788E-14  0.00000000000E+00 -0.44408920985E-14  0.91188000000E+02  0.91188000000E+02 0.  0.
    9900012    2    3    3    0    0 -0.21189331714E+02 -0.29309136684E+02  0.69109872105E+01  0.54367149713E+02  0.40000149400E+02 0.  0.
        -12    1    3    3    0    0  0.21189331714E+02  0.29309136684E+02 -0.69109872105E+01  0.36820850287E+02  0.00000000000E+00 0.  1.
         11    1    4    4    0    0 -0.12078748205E+02 -0.67152897506E+01 -0.71078579226E+01  0.15540685929E+02  0.51100000000E-03 0. -1.
        -11    1    4    4    0    0 -0.47057306139E+01 -0.79773733033E+01 -0.78604944822E+01  0.12147829403E+02  0.51100000000E-03 0.  1.
        -12    1    4    4    0    0 -0.44048528944E+01 -0.14616473631E+02  0.21879339615E+02  0.26678634381E+02  0.00000000000E+00 0.  1.
</event>
<event>
 8    1  0.1269154E-006  0.9118800E+02  0.7816164E-02  0.1184000E+00
        -11   -1    0    0    0    0  0.00000000000E+00  0.00000000000E+00  0.45593999997E+02  0.45594000000E+02  0.51100000000E-03 0.  1.
         11   -1    0    0    0    0 -0.00000000000E+00 -0.00000000000E+00 -0.45593999997E+02  0.45594000000E+02  0.51100000000E-03 0. -1.
         23    2    1    2    0    0  0.00000000000E+00  0.17763568394E-14 -0.35527136788E-14  0.91188000000E+02  0.91188000000E+02 0.  0.
    9900012    2    3    3    0    0  0.22234622090E+02 -0.15054318363E+02  0.25194589135E+02  0.54367105897E+02  0.40000049513E+02 0.  0.
         12    1    3    3    0    0 -0.22234622090E+02  0.15054318363E+02 -0.25194589135E+02  0.36820894103E+02  0.00000000000E+00 0. -1.
         11    1    4    4    0    0  0.21764354997E+02 -0.98439359635E+01  0.66162515512E+00  0.23896191575E+02  0.51100000000E-03 0. -1.
        -11    1    4    4    0    0  0.77172178222E+01 -0.42338468019E+01  0.62950986241E+01  0.10821699340E+02  0.51100000000E-03 0.  1.
         12    1    4    4    0    0 -0.72469507292E+01 -0.97653559767E+00  0.18237865356E+02  0.19649214981E+02  0.00000000000E+00 0. -1.
</event>
<event>
 8    1  0.1269154E-006  0.9118800E+02  0.7816164E-02  0.1184000E+00
        -11   -1    0    0    0    0  0.00000000000E+00  0.00000000000E+00  0.45593999997E+02  0.45594000000E+02  0.51100000000E-03 0.  1.
         11   -1    0    0    0    0 -0.00000000000E+00 -0.00000000000E+00 -0.45593999997E+02  0.45594000000E+02  0.51100000000E-03 0. -1.
         23    2    1    2    0    0 -0.11102230246E-15  0.00000000000E+00  0.71054273576E-14  0.91188000000E+02  0.91188000000E+02 0.  0.
    9900012    2    3    3    0    0 -0.95289491580E+00  0.96314503478E+01 -0.35526124821E+02  0.54367103904E+02  0.40000044970E+02 0.  0.
        -12    1    3    3    0    0  0.95289491580E+00 -0.96314503478E+01  0.35526124821E+02  0.36820896096E+02  0.00000000000E+00 0.  1.
         11    1    4    4    0    0  0.11479911867E+00  0.11336318582E+02 -0.34149088780E+02  0.35981739294E+02  0.51100000000E-03 0. -1.
        -11    1    4    4    0    0 -0.12908551451E-01  0.51787208963E+01  0.62105612967E+01  0.80864323799E+01  0.51100000000E-03 0.  1.
        -12    1    4    4    0    0 -0.10547854830E+01 -0.68835891308E+01 -0.75875973373E+01  0.10298932231E+02  0.00000000000E+00 0.  1.
</event>
<event>
 8    1  0.1269154E-006  0.9118800E+02  0.7816164E-02  0.1184000E+00
        -11   -1    0    0    0    0  0.00000000000E+00  0.00000000000E+00  0.45593999997E+02  0.45594000000E+02  0.51100000000E-03 0.  1.
         11   -1    0    0    0    0 -0.00000000000E+00 -0.00000000000E+00 -0.45593999997E+02  0.45594000000E+02  0.51100000000E-03 0. -1.
         23    2    1    2    0    0  0.00000000000E+00 -0.14432899320E-14 -0.35527136788E-14  0.91188000000E+02  0.91188000000E+02 0.  0.
    9900012    2    3    3    0    0 -0.21868047584E+02  0.61156212556E+00 -0.29617461970E+02  0.54367087913E+02  0.40000008516E+02 0.  0.
        -12    1    3    3    0    0  0.21868047584E+02 -0.61156212556E+00  0.29617461970E+02  0.36820912087E+02  0.00000000000E+00 0.  1.
         11    1    4    4    0    0  0.61263936967E+01  0.35711505254E+01 -0.58234945687E+01  0.91759961342E+01  0.51100000000E-03 0. -1.
        -11    1    4    4    0    0 -0.15061664593E+02 -0.11440393988E+02 -0.22898397005E+02  0.29699712803E+02  0.51100000000E-03 0.  1.
        -12    1    4    4    0    0 -0.12932776687E+02  0.84808055882E+01 -0.89557039633E+00  0.15491378976E+02  0.00000000000E+00 0.  1.
</event>
<event>
 8    1  0.1269154E-006  0.9118800E+02  0.7816164E-02  0.1184000E+00
        -11   -1    0    0    0    0  0.00000000000E+00  0.00000000000E+00  0.45593999997E+02  0.45594000000E+02  0.51100000000E-03 0.  1.
         11   -1    0    0    0    0 -0.00000000000E+00 -0.00000000000E+00 -0.45593999997E+02  0.45594000000E+02  0.51100000000E-03 0. -1.
         23    2    1    2    0    0  0.00000000000E+00  0.35527136788E-14  0.35527136788E-14  0.91188000000E+02  0.91188000000E+02 0.  0.
    9900012    2    3    3    0    0 -0.17173290839E+02  0.65566792332E+01 -0.31904038895E+02  0.54367086667E+02  0.40000005676E+02 0.  0.
         12    1    3    3    0    0  0.17173290839E+02 -0.65566792332E+01  0.31904038895E+02  0.36820913333E+02  0.00000000000E+00 0. -1.
         11    1    4    4    0    0 -0.47932506110E+01  0.22127085868E+02 -0.15504282432E+02  0.27440225116E+02  0.51100000000E-03 0.  1.
        -11    1    4    4    0    0 -0.11527556005E+02 -0.93131996581E+01 -0.96552706340E+01  0.17687410398E+02  0.51100000000E-03 0. -1.
         12    1    4    4    0    0 -0.85248422343E+00 -0.62572069771E+01 -0.67444858292E+01  0.92394511529E+01  0.00000000000E+00 0. -1.
</event>
<event>
 8    1  0.1269154E-006  0.9118800E+02  0.7816164E-02  0.1184000E+00
        -11   -1    0    0    0    0  0.00000000000E+00  0.00000000000E+00  0.45593999997E+02  0.45594000000E+02  0.51100000000E-03 0.  1.
         11   -1    0    0    0    0 -0.00000000000E+00 -0.00000000000E+00 -0.45593999997E+02  0.45594000000E+02  0.51100000000E-03 0. -1.
         23    2    1    2    0    0  0.88817841970E-15  0.00000000000E+00  0.00000000000E+00  0.91188000000E+02  0.91188000000E+02 0.  0.
    9900012    2    3    3    0    0 -0.28719051888E+01  0.10922457879E+02  0.35046142844E+02  0.54367081302E+02  0.39999993443E+02 0.  0.
         12    1    3    3    0    0  0.28719051888E+01 -0.10922457879E+02 -0.35046142844E+02  0.36820918698E+02  0.00000000000E+00 0. -1.
         11    1    4    4    0    0  0.69222969054E+01  0.20743161060E+02  0.19373169791E+02  0.29215006987E+02  0.51100000000E-03 0. -1.
        -11    1    4    4    0    0 -0.84711727342E+01  0.65036011361E-01  0.11633854989E+02  0.14391371698E+02  0.51100000000E-03 0.  1.
         12    1    4    4    0    0 -0.13230293601E+01 -0.98857391927E+01  0.40391180637E+01  0.10760702617E+02  0.00000000000E+00 0. -1.
</event>
<event>
 8    1  0.1269154E-006  0.9118800E+02  0.7816164E-02  0.1184000E+00
        -11   -1    0    0    0    0  0.00000000000E+00  0.00000000000E+00  0.45593999997E+02  0.45594000000E+02  0.51100000000E-03 0.  1.
         11   -1    0    0    0    0 -0.00000000000E+00 -0.00000000000E+00 -0.45593999997E+02  0.45594000000E+02  0.51100000000E-03 0. -1.
         23    2    1    2    0    0 -0.35527136788E-14  0.00000000000E+00 -0.35527136788E-14  0.91188000000E+02  0.91188000000E+02 0.  0.
    9900012    2    3    3    0    0 -0.24816836311E+02  0.12566395710E+02 -0.24124299555E+02  0.54367197528E+02  0.40000258404E+02 0.  0.
        -12    1    3    3    0    0  0.24816836311E+02 -0.12566395710E+02  0.24124299555E+02  0.36820802472E+02  0.00000000000E+00 0.  1.
         11    1    4    4    0    0 -0.19568269549E+02  0.30723434513E+01 -0.14409330259E+02  0.24494596673E+02  0.51100000000E-03 0. -1.
        -11    1    4    4    0    0 -0.46049594943E+01  0.59801431781E+01  0.84671527505E+01  0.11342858561E+02  0.51100000000E-03 0.  1.
        -12    1    4    4    0    0 -0.64360726815E+00  0.35139090810E+01 -0.18182122047E+02  0.18529742294E+02  0.00000000000E+00 0.  1.
</event>
<event>
 8    1  0.1269154E-006  0.9118800E+02  0.7816164E-02  0.1184000E+00
        -11   -1    0    0    0    0  0.00000000000E+00  0.00000000000E+00  0.45593999997E+02  0.45594000000E+02  0.51100000000E-03 0.  1.
         11   -1    0    0    0    0 -0.00000000000E+00 -0.00000000000E+00 -0.45593999997E+02  0.45594000000E+02  0.51100000000E-03 0. -1.
         23    2    1    2    0    0  0.00000000000E+00  0.00000000000E+00  0.00000000000E+00  0.91188000000E+02  0.91188000000E+02 0.  0.
    9900012    2    3    3    0    0 -0.26056742142E+02  0.19181654275E+02 -0.17575234888E+02  0.54367101679E+02  0.40000039897E+02 0.  0.
        -12    1    3    3    0    0  0.26056742142E+02 -0.19181654275E+02  0.17575234888E+02  0.36820898321E+02  0.00000000000E+00 0.  1.
         11    1    4    4    0    0 -0.19784230719E+02  0.15241188982E+01  0.30805573869E+01  0.20080551726E+02  0.51100000000E-03 0. -1.
        -11    1    4    4    0    0 -0.12192223648E+01 -0.44760196946E+01 -0.29778253836E+01  0.55125946484E+01  0.51100000000E-03 0.  1.
        -12    1    4    4    0    0 -0.50532890586E+01  0.22133555072E+02 -0.17677966892E+02  0.28773955304E+02  0.00000000000E+00 0.  1.
</event>
<event>
 8    1  0.1269154E-006  0.9118800E+02  0.7816164E-02  0.1184000E+00
        -11   -1    0    0    0    0  0.00000000000E+00  0.00000000000E+00  0.45593999997E+02  0.45594000000E+02  0.51100000000E-03 0. -1.
         11   -1    0    0    0    0 -0.00000000000E+00 -0.00000000000E+00 -0.45593999997E+02  0.45594000000E+02  0.51100000000E-03 0.  1.
         23    2    1    2    0    0  0.00000000000E+00  0.00000000000E+00  0.71054273576E-14  0.91188000000E+02  0.91188000000E+02 0.  0.
    9900012    2    3    3    0    0 -0.12205753785E+02 -0.83159064438E+01 -0.33729015297E+02  0.54367065759E+02  0.39999958012E+02 0.  0.
         12    1    3    3    0    0  0.12205753785E+02  0.83159064438E+01  0.33729015297E+02  0.36820934241E+02  0.00000000000E+00 0. -1.
         11    1    4    4    0    0 -0.34609530844E+01 -0.15851211525E+02 -0.18223997320E+02  0.24399860280E+02  0.51100000000E-03 0. -1.
        -11    1    4    4    0    0 -0.93051973671E+01  0.92710948503E+01 -0.20669453983E+02  0.24490125071E+02  0.51100000000E-03 0.  1.
         12    1    4    4    0    0  0.56039666636E+00 -0.17357897689E+01  0.51644360062E+01  0.54770804091E+01  0.00000000000E+00 0. -1.
</event>
<event>
 8    1  0.1269154E-006  0.9118800E+02  0.7816164E-02  0.1184000E+00
        -11   -1    0    0    0    0  0.00000000000E+00  0.00000000000E+00  0.45593999997E+02  0.45594000000E+02  0.51100000000E-03 0.  1.
         11   -1    0    0    0    0 -0.00000000000E+00 -0.00000000000E+00 -0.45593999997E+02  0.45594000000E+02  0.51100000000E-03 0. -1.
         23    2    1    2    0    0  0.00000000000E+00  0.35527136788E-14  0.00000000000E+00  0.91188000000E+02  0.91188000000E+02 0.  0.
    9900012    2    3    3    0    0  0.12043503928E+02  0.25097210949E+02  0.24101050387E+02  0.54367128010E+02  0.40000099925E+02 0.  0.
         12    1    3    3    0    0 -0.12043503928E+02 -0.25097210949E+02 -0.24101050387E+02  0.36820871990E+02  0.00000000000E+00 0. -1.
         11    1    4    4    0    0 -0.20614383732E+01  0.13427633038E+02 -0.31502991336E+01  0.13945438038E+02  0.51100000000E-03 0. -1.
        -11    1    4    4    0    0  0.17783865708E+02  0.39328061721E+01  0.91221026819E+01  0.20370213585E+02  0.51100000000E-03 0.  1.
        -12    1    4    4    0    0 -0.36789234065E+01  0.77367717394E+01  0.18129246839E+02  0.20051476388E+02  0.00000000000E+00 0.  1.
</event>
<event>
 8    1  0.1269154E-006  0.9118800E+02  0.7816164E-02  0.1184000E+00
        -11   -1    0    0    0    0  0.00000000000E+00  0.00000000000E+00  0.45593999997E+02  0.45594000000E+02  0.51100000000E-03 0.  1.
         11   -1    0    0    0    0 -0.00000000000E+00 -0.00000000000E+00 -0.45593999997E+02  0.45594000000E+02  0.51100000000E-03 0. -1.
         23    2    1    2    0    0  0.00000000000E+00 -0.35527136788E-14  0.00000000000E+00  0.91188000000E+02  0.91188000000E+02 0.  0.
    9900012    2    3    3    0    0 -0.19416819869E+02  0.22372429413E+02  0.21868723695E+02  0.54367087903E+02  0.40000008492E+02 0.  0.
         12    1    3    3    0    0  0.19416819869E+02 -0.22372429413E+02 -0.21868723695E+02  0.36820912097E+02  0.00000000000E+00 0. -1.
         11    1    4    4    0    0  0.55504782279E+01  0.76622401453E+01 -0.12566551352E+01  0.95444703883E+01  0.51100000000E-03 0. -1.
        -11    1    4    4    0    0  0.45130381587E+01  0.62740563120E+01  0.49215611650E+01  0.91625902773E+01  0.51100000000E-03 0.  1.
        -12    1    4    4    0    0 -0.29480336255E+02  0.84361329554E+01  0.18203817665E+02  0.35660027237E+02  0.00000000000E+00 0.  1.
</event>
<event>
 8    1  0.1269154E-006  0.9118800E+02  0.7816164E-02  0.1184000E+00
        -11   -1    0    0    0    0  0.00000000000E+00  0.00000000000E+00  0.45593999997E+02  0.45594000000E+02  0.51100000000E-03 0.  1.
         11   -1    0    0    0    0 -0.00000000000E+00 -0.00000000000E+00 -0.45593999997E+02  0.45594000000E+02  0.51100000000E-03 0. -1.
         23    2    1    2    0    0 -0.88817841970E-15  0.17763568394E-14  0.00000000000E+00  0.91188000000E+02  0.91188000000E+02 0.  0.
    9900012    2    3    3    0    0  0.63780382950E+01 -0.10601860600E+02  0.34679998704E+02  0.54367066677E+02  0.39999960104E+02 0.  0.
         12    1    3    3    0    0 -0.63780382950E+01  0.10601860600E+02 -0.34679998704E+02  0.36820933323E+02  0.00000000000E+00 0. -1.
         11    1    4    4    0    0 -0.23918177368E+01  0.38377723467E+01  0.13080420258E+01  0.47074688394E+01  0.51100000000E-03 0. -1.
        -11    1    4    4    0    0  0.12349055690E+02  0.31915927221E+00 -0.68284508940E+00  0.12372037696E+02  0.51100000000E-03 0.  1.
        -12    1    4    4    0    0 -0.35791996580E+01 -0.14758792219E+02  0.34054801767E+02  0.37287560142E+02  0.00000000000E+00 0.  1.
</event>
<event>
 8    1  0.1269154E-006  0.9118800E+02  0.7816164E-02  0.1184000E+00
        -11   -1    0    0    0    0  0.00000000000E+00  0.00000000000E+00  0.45593999997E+02  0.45594000000E+02  0.51100000000E-03 0. -1.
         11   -1    0    0    0    0 -0.00000000000E+00 -0.00000000000E+00 -0.45593999997E+02  0.45594000000E+02  0.51100000000E-03 0.  1.
         23    2    1    2    0    0  0.00000000000E+00  0.44408920985E-15  0.00000000000E+00  0.91188000000E+02  0.91188000000E+02 0.  0.
    9900012    2    3    3    0    0 -0.17594961881E+02 -0.32372168628E+01  0.32182557072E+02  0.54367092403E+02  0.40000018750E+02 0.  0.
        -12    1    3    3    0    0  0.17594961881E+02  0.32372168628E+01 -0.32182557072E+02  0.36820907597E+02  0.00000000000E+00 0.  1.
         11    1    4    4    0    0 -0.11007296671E+02  0.44511193308E+01  0.69589903337E+01  0.13762288691E+02  0.51100000000E-03 0. -1.
        -11    1    4    4    0    0 -0.49752515082E+00 -0.15809293686E+01 -0.70275312866E+01  0.72203230669E+01  0.51100000000E-03 0.  1.
         12    1    4    4    0    0 -0.60901400589E+01 -0.61074068250E+01  0.32251098025E+02  0.33384480644E+02  0.00000000000E+00 0. -1.
</event>
<event>
 8    1  0.1269154E-006  0.9118800E+02  0.7816164E-02  0.1184000E+00
        -11   -1    0    0    0    0  0.00000000000E+00  0.00000000000E+00  0.45593999997E+02  0.45594000000E+02  0.51100000000E-03 0. -1.
         11   -1    0    0    0    0 -0.00000000000E+00 -0.00000000000E+00 -0.45593999997E+02  0.45594000000E+02  0.51100000000E-03 0.  1.
         23    2    1    2    0    0  0.00000000000E+00  0.00000000000E+00  0.17763568394E-14  0.91188000000E+02  0.91188000000E+02 0.  0.
    9900012    2    3    3    0    0 -0.17568532342E+02 -0.28276590677E+02  0.15734098536E+02  0.54367071634E+02  0.39999971405E+02 0.  0.
        -12    1    3    3    0    0  0.17568532342E+02  0.28276590677E+02 -0.15734098536E+02  0.36820928366E+02  0.00000000000E+00 0.  1.
         11    1    4    4    0    0  0.29452826219E+01 -0.27491160309E+02  0.55258587545E+01  0.28195277975E+02  0.51100000000E-03 0. -1.
        -11    1    4    4    0    0 -0.40515013626E+01 -0.55199087308E+01  0.17476857277E+01  0.70667150326E+01  0.51100000000E-03 0.  1.
        -12    1    4    4    0    0 -0.16462313601E+02  0.47344783620E+01  0.84605540535E+01  0.19105078627E+02  0.00000000000E+00 0.  1.
</event>
<event>
 8    1  0.1269154E-006  0.9118800E+02  0.7816164E-02  0.1184000E+00
        -11   -1    0    0    0    0  0.00000000000E+00  0.00000000000E+00  0.45593999997E+02  0.45594000000E+02  0.51100000000E-03 0.  1.
         11   -1    0    0    0    0 -0.00000000000E+00 -0.00000000000E+00 -0.45593999997E+02  0.45594000000E+02  0.51100000000E-03 0. -1.
         23    2    1    2    0    0 -0.17763568394E-14 -0.35527136788E-14 -0.10658141036E-13  0.91188000000E+02  0.91188000000E+02 0.  0.
    9900012    2    3    3    0    0  0.64413329262E+01  0.19438327410E+02  0.30601298150E+02  0.54367098451E+02  0.40000032539E+02 0.  0.
         12    1    3    3    0    0 -0.64413329262E+01 -0.19438327410E+02 -0.30601298150E+02  0.36820901549E+02  0.00000000000E+00 0. -1.
         11    1    4    4    0    0 -0.28707966392E+01  0.11863988207E+02 -0.94193528450E+00  0.12242668494E+02  0.51100000000E-03 0. -1.
        -11    1    4    4    0    0  0.17988578516E+01 -0.62096971646E+01 -0.45672195036E+00  0.64811128402E+01  0.51100000000E-03 0.  1.
        -12    1    4    4    0    0  0.75132717138E+01  0.13784036368E+02  0.31999955385E+02  0.35643317117E+02  0.00000000000E+00 0.  1.
</event>
<event>
 8    1  0.1269154E-006  0.9118800E+02  0.7816164E-02  0.1184000E+00
        -11   -1    0    0    0    0  0.00000000000E+00  0.00000000000E+00  0.45593999997E+02  0.45594000000E+02  0.51100000000E-03 0. -1.
         11   -1    0    0    0    0 -0.00000000000E+00 -0.00000000000E+00 -0.45593999997E+02  0.45594000000E+02  0.51100000000E-03 0.  1.
         23    2    1    2    0    0  0.00000000000E+00  0.35527136788E-14  0.00000000000E+00  0.91188000000E+02  0.91188000000E+02 0.  0.
    9900012    2    3    3    0    0 -0.28671279761E+02 -0.16656019533E+02  0.16009849256E+02  0.54367074658E+02  0.39999978298E+02 0.  0.
        -12    1    3    3    0    0  0.28671279761E+02  0.16656019533E+02 -0.16009849256E+02  0.36820925342E+02  0.00000000000E+00 0.  1.
         11    1    4    4    0    0 -0.12009616645E+02  0.48603074959E+01  0.92605735275E+00  0.12988882299E+02  0.51100000000E-03 0. -1.
        -11    1    4    4    0    0  0.56270994381E+01  0.17859828097E+01  0.45563376376E+01  0.74574925821E+01  0.51100000000E-03 0.  1.
         12    1    4    4    0    0 -0.22288762555E+02 -0.23302309838E+02  0.10527454266E+02  0.33920699777E+02  0.00000000000E+00 0. -1.
</event>
<event>
 8    1  0.1269154E-006  0.9118800E+02  0.7816164E-02  0.1184000E+00
        -11   -1    0    0    0    0  0.00000000000E+00  0.00000000000E+00  0.45593999997E+02  0.45594000000E+02  0.51100000000E-03 0.  1.
         11   -1    0    0    0    0 -0.00000000000E+00 -0.00000000000E+00 -0.45593999997E+02  0.45594000000E+02  0.51100000000E-03 0. -1.
         23    2    1    2    0    0  0.00000000000E+00 -0.53290705182E-14 -0.88817841970E-15  0.91188000000E+02  0.91188000000E+02 0.  0.
    9900012    2    3    3    0    0 -0.35218340306E+02 -0.10290342744E+02  0.30915322006E+01  0.54367079058E+02  0.39999988328E+02 0.  0.
         12    1    3    3    0    0  0.35218340306E+02  0.10290342744E+02 -0.30915322006E+01  0.36820920942E+02  0.00000000000E+00 0. -1.
         11    1    4    4    0    0  0.67219346081E+00  0.11576396424E+00  0.80845258988E+01  0.81132487089E+01  0.51100000000E-03 0.  1.
        -11    1    4    4    0    0 -0.35280593470E+01  0.78832549105E+01 -0.25285422829E+01  0.89992464727E+01  0.51100000000E-03 0. -1.
        -12    1    4    4    0    0 -0.32362474420E+02 -0.18289361619E+02 -0.24644514153E+01  0.37254583876E+02  0.00000000000E+00 0.  1.
</event>
<event>
 8    1  0.1269154E-006  0.9118800E+02  0.7816164E-02  0.1184000E+00
        -11   -1    0    0    0    0  0.00000000000E+00  0.00000000000E+00  0.45593999997E+02  0.45594000000E+02  0.51100000000E-03 0. -1.
         11   -1    0    0    0    0 -0.00000000000E+00 -0.00000000000E+00 -0.45593999997E+02  0.45594000000E+02  0.51100000000E-03 0.  1.
         23    2    1    2    0    0  0.00000000000E+00  0.35527136788E-14 -0.17763568394E-14  0.91188000000E+02  0.91188000000E+02 0.  0.
    9900012    2    3    3    0    0  0.32197341782E+02 -0.13745412354E+02  0.11409412086E+02  0.54367083896E+02  0.39999999357E+02 0.  0.
        -12    1    3    3    0    0 -0.32197341782E+02  0.13745412354E+02 -0.11409412086E+02  0.36820916104E+02  0.00000000000E+00 0.  1.
         11    1    4    4    0    0  0.22788052931E+01 -0.27657653135E+01 -0.66201481524E+01  0.75278664410E+01  0.51100000000E-03 0.  1.
        -11    1    4    4    0    0  0.23061077600E+02  0.56797378105E+01  0.41795619355E+01  0.24115170742E+02  0.51100000000E-03 0. -1.
         12    1    4    4    0    0  0.68574588887E+01 -0.16659384851E+02  0.13849998303E+02  0.22724046713E+02  0.00000000000E+00 0. -1.
</event>
<event>
 8    1  0.1269154E-006  0.9118800E+02  0.7816164E-02  0.1184000E+00
        -11   -1    0    0    0    0  0.00000000000E+00  0.00000000000E+00  0.45593999997E+02  0.45594000000E+02  0.51100000000E-03 0.  1.
         11   -1    0    0    0    0 -0.00000000000E+00 -0.00000000000E+00 -0.45593999997E+02  0.45594000000E+02  0.51100000000E-03 0. -1.
         23    2    1    2    0    0  0.00000000000E+00  0.35527136788E-14  0.00000000000E+00  0.91188000000E+02  0.91188000000E+02 0.  0.
    9900012    2    3    3    0    0 -0.21622802174E+02 -0.22067223622E+02 -0.20031753143E+02  0.54367094712E+02  0.40000024014E+02 0.  0.
        -12    1    3    3    0    0  0.21622802174E+02  0.22067223622E+02  0.20031753143E+02  0.36820905288E+02  0.00000000000E+00 0.  1.
         11    1    4    4    0    0 -0.21572563986E+02 -0.14329389727E+02  0.16769221314E+00  0.25898553006E+02  0.51100000000E-03 0. -1.
        -11    1    4    4    0    0 -0.10594131571E+01  0.55669174201E+01 -0.10638700422E+02  0.12053832284E+02  0.51100000000E-03 0.  1.
        -12    1    4    4    0    0  0.10091749689E+01 -0.13304751315E+02 -0.95607449343E+01  0.16414709421E+02  0.00000000000E+00 0.  1.
</event>
<event>
 8    1  0.1269154E-006  0.9118800E+02  0.7816164E-02  0.1184000E+00
        -11   -1    0    0    0    0  0.00000000000E+00  0.00000000000E+00  0.45593999997E+02  0.45594000000E+02  0.51100000000E-03 0.  1.
         11   -1    0    0    0    0 -0.00000000000E+00 -0.00000000000E+00 -0.45593999997E+02  0.45594000000E+02  0.51100000000E-03 0. -1.
         23    2    1    2    0    0  0.00000000000E+00 -0.35527136788E-14 -0.35527136788E-14  0.91188000000E+02  0.91188000000E+02 0.  0.
    9900012    2    3    3    0    0  0.41358271318E+01 -0.25919942841E+02 -0.25822965198E+02  0.54367163039E+02  0.40000179779E+02 0.  0.
        -12    1    3    3    0    0 -0.41358271318E+01  0.25919942841E+02  0.25822965198E+02  0.36820836961E+02  0.00000000000E+00 0.  1.
         11    1    4    4    0    0 -0.48383517123E+01 -0.48729371424E+00  0.13570415380E+01  0.50486299580E+01  0.51100000000E-03 0. -1.
        -11    1    4    4    0    0 -0.58069144601E+01  0.44380177626E+00  0.32977080740E+01  0.66926896212E+01  0.51100000000E-03 0.  1.
         12    1    4    4    0    0  0.14781093304E+02 -0.25876450903E+02 -0.30477714810E+02  0.42625843459E+02  0.00000000000E+00 0. -1.
</event>
<event>
 8    1  0.1269154E-006  0.9118800E+02  0.7816164E-02  0.1184000E+00
        -11   -1    0    0    0    0  0.00000000000E+00  0.00000000000E+00  0.45593999997E+02  0.45594000000E+02  0.51100000000E-03 0.  1.
         11   -1    0    0    0    0 -0.00000000000E+00 -0.00000000000E+00 -0.45593999997E+02  0.45594000000E+02  0.51100000000E-03 0. -1.
         23    2    1    2    0    0  0.00000000000E+00  0.00000000000E+00  0.00000000000E+00  0.91188000000E+02  0.91188000000E+02 0.  0.
    9900012    2    3    3    0    0 -0.15410256396E+02  0.82693418574E+01  0.32402448794E+02  0.54367126779E+02  0.40000097117E+02 0.  0.
         12    1    3    3    0    0  0.15410256396E+02 -0.82693418574E+01 -0.32402448794E+02  0.36820873221E+02  0.00000000000E+00 0. -1.
         11    1    4    4    0    0 -0.15432838331E+02  0.85409829232E+01  0.31469019241E+00  0.17641426201E+02  0.51100000000E-03 0. -1.
        -11    1    4    4    0    0  0.70195168638E+01 -0.74019549896E+00  0.27390305257E+02  0.28285160928E+02  0.51100000000E-03 0.  1.
        -12    1    4    4    0    0 -0.69969349287E+01  0.46855443314E+00  0.46974533447E+01  0.84405396497E+01  0.00000000000E+00 0.  1.
</event>
<event>
 8    1  0.1269154E-006  0.9118800E+02  0.7816164E-02  0.1184000E+00
        -11   -1    0    0    0    0  0.00000000000E+00  0.00000000000E+00  0.45593999997E+02  0.45594000000E+02  0.51100000000E-03 0.  1.
         11   -1    0    0    0    0 -0.00000000000E+00 -0.00000000000E+00 -0.45593999997E+02  0.45594000000E+02  0.51100000000E-03 0. -1.
         23    2    1    2    0    0  0.00000000000E+00  0.00000000000E+00  0.00000000000E+00  0.91188000000E+02  0.91188000000E+02 0.  0.
    9900012    2    3    3    0    0  0.25846228164E+02  0.24419208681E+02  0.95631981547E+01  0.54367081735E+02  0.39999994431E+02 0.  0.
        -12    1    3    3    0    0 -0.25846228164E+02 -0.24419208681E+02 -0.95631981547E+01  0.36820918265E+02  0.00000000000E+00 0.  1.
         11    1    4    4    0    0  0.95590698145E+01  0.26216026986E+02  0.43315811175E+01  0.28238599149E+02  0.51100000000E-03 0. -1.
        -11    1    4    4    0    0  0.18780474493E+02  0.15828864041E+01 -0.70055627987E+00  0.18860077701E+02  0.51100000000E-03 0.  1.
        -12    1    4    4    0    0 -0.24933161429E+01 -0.33797047089E+01  0.59321733171E+01  0.72684048850E+01  0.00000000000E+00 0.  1.
</event>
<event>
 8    1  0.1269154E-006  0.9118800E+02  0.7816164E-02  0.1184000E+00
        -11   -1    0    0    0    0  0.00000000000E+00  0.00000000000E+00  0.45593999997E+02  0.45594000000E+02  0.51100000000E-03 0.  1.
         11   -1    0    0    0    0 -0.00000000000E+00 -0.00000000000E+00 -0.45593999997E+02  0.45594000000E+02  0.51100000000E-03 0. -1.
         23    2    1    2    0    0  0.35527136788E-14 -0.35527136788E-14  0.35527136788E-14  0.91188000000E+02  0.91188000000E+02 0.  0.
    9900012    2    3    3    0    0 -0.17188103302E+02  0.29450099035E+02 -0.13893922468E+02  0.54367077825E+02  0.39999985517E+02 0.  0.
        -12    1    3    3    0    0  0.17188103302E+02 -0.29450099035E+02  0.13893922468E+02  0.36820922175E+02  0.00000000000E+00 0.  1.
         11    1    4    4    0    0  0.52095501767E+01 -0.37749449291E+01 -0.81404906729E+01  0.10375799291E+02  0.51100000000E-03 0. -1.
        -11    1    4    4    0    0  0.26252908213E+01  0.10474233652E+01 -0.74199055267E+00  0.29222932508E+01  0.51100000000E-03 0.  1.
         12    1    4    4    0    0 -0.25022944300E+02  0.32177620599E+02 -0.50114412422E+01  0.41068985283E+02  0.00000000000E+00 0. -1.
</event>
<event>
 8    1  0.1269154E-006  0.9118800E+02  0.7816164E-02  0.1184000E+00
        -11   -1    0    0    0    0  0.00000000000E+00  0.00000000000E+00  0.45593999997E+02  0.45594000000E+02  0.51100000000E-03 0. -1.
         11   -1    0    0    0    0 -0.00000000000E+00 -0.00000000000E+00 -0.45593999997E+02  0.45594000000E+02  0.51100000000E-03 0.  1.
         23    2    1    2    0    0  0.00000000000E+00 -0.35527136788E-14  0.00000000000E+00  0.91188000000E+02  0.91188000000E+02 0.  0.
    9900012    2    3    3    0    0  0.93486295169E+01  0.24398839187E+02  0.25943780038E+02  0.54367082709E+02  0.39999996651E+02 0.  0.
        -12    1    3    3    0    0 -0.93486295169E+01 -0.24398839187E+02 -0.25943780038E+02  0.36820917291E+02  0.00000000000E+00 0.  1.
         11    1    4    4    0    0  0.15043934075E+02  0.28995599110E+02  0.19111315634E+02  0.37845833400E+02  0.51100000000E-03 0. -1.
        -11    1    4    4    0    0 -0.17579550968E+01 -0.42103116588E+00  0.98655480632E+01  0.10029791235E+02  0.51100000000E-03 0.  1.
         12    1    4    4    0    0 -0.39373494615E+01 -0.41757287576E+01 -0.30330836590E+01  0.64914580736E+01  0.00000000000E+00 0. -1.
</event>
<event>
 8    1  0.1269154E-006  0.9118800E+02  0.7816164E-02  0.1184000E+00
        -11   -1    0    0    0    0  0.00000000000E+00  0.00000000000E+00  0.45593999997E+02  0.45594000000E+02  0.51100000000E-03 0. -1.
         11   -1    0    0    0    0 -0.00000000000E+00 -0.00000000000E+00 -0.45593999997E+02  0.45594000000E+02  0.51100000000E-03 0.  1.
         23    2    1    2    0    0  0.26645352591E-14  0.00000000000E+00  0.00000000000E+00  0.91188000000E+02  0.91188000000E+02 0.  0.
    9900012    2    3    3    0    0  0.42185672652E+01 -0.23874259799E+02 -0.27712879002E+02  0.54367078592E+02  0.39999987267E+02 0.  0.
         12    1    3    3    0    0 -0.42185672652E+01  0.23874259799E+02  0.27712879002E+02  0.36820921408E+02  0.00000000000E+00 0. -1.
         11    1    4    4    0    0 -0.36611716907E+01 -0.10719391050E+02  0.28482586442E+01  0.11679987166E+02  0.51100000000E-03 0. -1.
        -11    1    4    4    0    0 -0.93169070019E+01 -0.28031437770E+01 -0.97866329530E+01  0.13800020143E+02  0.51100000000E-03 0.  1.
         12    1    4    4    0    0  0.17196645958E+02 -0.10351724972E+02 -0.20774504693E+02  0.28887071284E+02  0.00000000000E+00 0. -1.
</event>
<event>
 8    1  0.1269154E-006  0.9118800E+02  0.7816164E-02  0.1184000E+00
        -11   -1    0    0    0    0  0.00000000000E+00  0.00000000000E+00  0.45593999997E+02  0.45594000000E+02  0.51100000000E-03 0.  1.
         11   -1    0    0    0    0 -0.00000000000E+00 -0.00000000000E+00 -0.45593999997E+02  0.45594000000E+02  0.51100000000E-03 0. -1.
         23    2    1    2    0    0  0.17763568394E-14 -0.35527136788E-14 -0.71054273576E-14  0.91188000000E+02  0.91188000000E+02 0.  0.
    9900012    2    3    3    0    0 -0.33367587970E+01 -0.17653538632E+02  0.32140283219E+02  0.54367093019E+02  0.40000020155E+02 0.  0.
         12    1    3    3    0    0  0.33367587970E+01  0.17653538632E+02 -0.32140283219E+02  0.36820906981E+02  0.00000000000E+00 0. -1.
         11    1    4    4    0    0 -0.11246445293E+01  0.10215374079E+01  0.25617249018E+01  0.29783886125E+01  0.51100000000E-03 0. -1.
        -11    1    4    4    0    0  0.16589339105E+02 -0.16859581959E+01  0.12222555455E+02  0.20674609769E+02  0.51100000000E-03 0.  1.
         12    1    4    4    0    0 -0.18801453373E+02 -0.16989117844E+02  0.17356002863E+02  0.30714094638E+02  0.00000000000E+00 0. -1.
</event>
<event>
 8    1  0.1269154E-006  0.9118800E+02  0.7816164E-02  0.1184000E+00
        -11   -1    0    0    0    0  0.00000000000E+00  0.00000000000E+00  0.45593999997E+02  0.45594000000E+02  0.51100000000E-03 0. -1.
         11   -1    0    0    0    0 -0.00000000000E+00 -0.00000000000E+00 -0.45593999997E+02  0.45594000000E+02  0.51100000000E-03 0.  1.
         23    2    1    2    0    0  0.35527136788E-14  0.00000000000E+00  0.17763568394E-14  0.91188000000E+02  0.91188000000E+02 0.  0.
    9900012    2    3    3    0    0  0.27093679844E+02 -0.23645167788E+02 -0.79131735324E+01  0.54367085257E+02  0.40000002459E+02 0.  0.
         12    1    3    3    0    0 -0.27093679844E+02  0.23645167788E+02  0.79131735324E+01  0.36820914743E+02  0.00000000000E+00 0. -1.
         11    1    4    4    0    0  0.11108677537E+00 -0.97358681132E+01  0.61450869093E-01  0.97366957773E+01  0.51100000000E-03 0. -1.
        -11    1    4    4    0    0  0.10452998399E+02 -0.19426034771E+02  0.53436425581E+01  0.22697808672E+02  0.51100000000E-03 0.  1.
        -12    1    4    4    0    0  0.16529594669E+02  0.55167350965E+01 -0.13318266960E+02  0.21932580807E+02  0.00000000000E+00 0.  1.
</event>
<event>
 8    1  0.1269154E-006  0.9118800E+02  0.7816164E-02  0.1184000E+00
        -11   -1    0    0    0    0  0.00000000000E+00  0.00000000000E+00  0.45593999997E+02  0.45594000000E+02  0.51100000000E-03 0.  1.
         11   -1    0    0    0    0 -0.00000000000E+00 -0.00000000000E+00 -0.45593999997E+02  0.45594000000E+02  0.51100000000E-03 0. -1.
         23    2    1    2    0    0  0.00000000000E+00 -0.35527136788E-14 -0.35527136788E-14  0.91188000000E+02  0.91188000000E+02 0.  0.
    9900012    2    3    3    0    0 -0.92523619212E+01 -0.29013443990E+02 -0.20697663373E+02  0.54367090147E+02  0.40000013609E+02 0.  0.
        -12    1    3    3    0    0  0.92523619212E+01  0.29013443990E+02  0.20697663373E+02  0.36820909853E+02  0.00000000000E+00 0.  1.
         11    1    4    4    0    0 -0.67140378856E+01 -0.71264245188E+01 -0.18233840655E+02  0.20696308281E+02  0.51100000000E-03 0. -1.
        -11    1    4    4    0    0  0.98156840243E+01 -0.18056958253E+01 -0.16385431222E+00  0.99817352587E+01  0.51100000000E-03 0.  1.
        -12    1    4    4    0    0 -0.12354008060E+02 -0.20081323646E+02 -0.22999684059E+01  0.23689046608E+02  0.00000000000E+00 0.  1.
</event>
<event>
 8    1  0.1269154E-006  0.9118800E+02  0.7816164E-02  0.1184000E+00
        -11   -1    0    0    0    0  0.00000000000E+00  0.00000000000E+00  0.45593999997E+02  0.45594000000E+02  0.51100000000E-03 0. -1.
         11   -1    0    0    0    0 -0.00000000000E+00 -0.00000000000E+00 -0.45593999997E+02  0.45594000000E+02  0.51100000000E-03 0.  1.
         23    2    1    2    0    0 -0.71054273576E-14 -0.88817841970E-15  0.88817841970E-15  0.91188000000E+02  0.91188000000E+02 0.  0.
    9900012    2    3    3    0    0 -0.36180412502E+02  0.49771486278E+01  0.46886941820E+01  0.54367107691E+02  0.40000053603E+02 0.  0.
         12    1    3    3    0    0  0.36180412502E+02 -0.49771486278E+01 -0.46886941820E+01  0.36820892309E+02  0.00000000000E+00 0. -1.
         11    1    4    4    0    0  0.16573032176E+01  0.92002688129E+01 -0.74834761466E+01  0.11974724034E+02  0.51100000000E-03 0. -1.
        -11    1    4    4    0    0 -0.90973768180E+01 -0.73513651499E+01  0.33819122318E+01  0.12175473919E+02  0.51100000000E-03 0.  1.
         12    1    4    4    0    0 -0.28740338902E+02  0.31282449649E+01  0.87902580968E+01  0.30216909739E+02  0.00000000000E+00 0. -1.
</event>
<event>
 8    1  0.1269154E-006  0.9118800E+02  0.7816164E-02  0.1184000E+00
        -11   -1    0    0    0    0  0.00000000000E+00  0.00000000000E+00  0.45593999997E+02  0.45594000000E+02  0.51100000000E-03 0.  1.
         11   -1    0    0    0    0 -0.00000000000E+00 -0.00000000000E+00 -0.45593999997E+02  0.45594000000E+02  0.51100000000E-03 0. -1.
         23    2    1    2    0    0 -0.35527136788E-14  0.00000000000E+00  0.00000000000E+00  0.91188000000E+02  0.91188000000E+02 0.  0.
    9900012    2    3    3    0    0  0.27390960188E+02 -0.24392807074E+02 -0.32412255810E+01  0.54367091806E+02  0.40000017390E+02 0.  0.
        -12    1    3    3    0    0 -0.27390960188E+02  0.24392807074E+02  0.32412255810E+01  0.36820908194E+02  0.00000000000E+00 0.  1.
         11    1    4    4    0    0  0.30664287710E+02 -0.11884525674E+02 -0.35196003233E+01  0.33074583565E+02  0.51100000000E-03 0. -1.
        -11    1    4    4    0    0 -0.45244454191E+01 -0.10651875496E+02  0.74607230281E+01  0.13769366227E+02  0.51100000000E-03 0.  1.
         12    1    4    4    0    0  0.12511178965E+01 -0.18564059048E+01 -0.71823482858E+01  0.75231420146E+01  0.00000000000E+00 0. -1.
</event>
<event>
 8    1  0.1269154E-006  0.9118800E+02  0.7816164E-02  0.1184000E+00
        -11   -1    0    0    0    0  0.00000000000E+00  0.00000000000E+00  0.45593999997E+02  0.45594000000E+02  0.51100000000E-03 0. -1.
         11   -1    0    0    0    0 -0.00000000000E+00 -0.00000000000E+00 -0.45593999997E+02  0.45594000000E+02  0.51100000000E-03 0.  1.
         23    2    1    2    0    0  0.00000000000E+00  0.00000000000E+00 -0.17763568394E-14  0.91188000000E+02  0.91188000000E+02 0.  0.
    9900012    2    3    3    0    0 -0.17831425769E+01 -0.34175086572E+02  0.13589122543E+02  0.54367076721E+02  0.39999983001E+02 0.  0.
         12    1    3    3    0    0  0.17831425769E+01  0.34175086572E+02 -0.13589122543E+02  0.36820923279E+02  0.00000000000E+00 0. -1.
         11    1    4    4    0    0  0.11222021386E+02 -0.47190160932E+00  0.88275574963E+01  0.14285735078E+02  0.51100000000E-03 0. -1.
        -11    1    4    4    0    0 -0.43633989080E+01 -0.23820857352E+02  0.96553189703E+01  0.26071012249E+02  0.51100000000E-03 0.  1.
         12    1    4    4    0    0 -0.86417650545E+01 -0.98823276103E+01 -0.48937539240E+01  0.14010329394E+02  0.00000000000E+00 0. -1.
</event>
<event>
 8    1  0.1269154E-006  0.9118800E+02  0.7816164E-02  0.1184000E+00
        -11   -1    0    0    0    0  0.00000000000E+00  0.00000000000E+00  0.45593999997E+02  0.45594000000E+02  0.51100000000E-03 0. -1.
         11   -1    0    0    0    0 -0.00000000000E+00 -0.00000000000E+00 -0.45593999997E+02  0.45594000000E+02  0.51100000000E-03 0.  1.
         23    2    1    2    0    0  0.00000000000E+00  0.00000000000E+00 -0.17763568394E-14  0.91188000000E+02  0.91188000000E+02 0.  0.
    9900012    2    3    3    0    0 -0.10170481195E+02 -0.34335162881E+02 -0.85695833224E+01  0.54367083986E+02  0.39999999562E+02 0.  0.
         12    1    3    3    0    0  0.10170481195E+02  0.34335162881E+02  0.85695833224E+01  0.36820916014E+02  0.00000000000E+00 0. -1.
         11    1    4    4    0    0  0.57373181768E+01 -0.41619906918E+01  0.76467567692E+01  0.10426498728E+02  0.51100000000E-03 0. -1.
        -11    1    4    4    0    0 -0.14872399070E+02 -0.13791712657E+02 -0.18395559751E+02  0.27382406960E+02  0.51100000000E-03 0.  1.
        -12    1    4    4    0    0 -0.10354003019E+01 -0.16381459532E+02  0.21792196597E+01  0.16558178297E+02  0.00000000000E+00 0.  1.
</event>
<event>
 8    1  0.1269154E-006  0.9118800E+02  0.7816164E-02  0.1184000E+00
        -11   -1    0    0    0    0  0.00000000000E+00  0.00000000000E+00  0.45593999997E+02  0.45594000000E+02  0.51100000000E-03 0.  1.
         11   -1    0    0    0    0 -0.00000000000E+00 -0.00000000000E+00 -0.45593999997E+02  0.45594000000E+02  0.51100000000E-03 0. -1.
         23    2    1    2    0    0  0.00000000000E+00  0.00000000000E+00  0.17763568394E-14  0.91188000000E+02  0.91188000000E+02 0.  0.
    9900012    2    3    3    0    0  0.32844144670E+02 -0.61114061270E+01 -0.15482023211E+02  0.54367079769E+02  0.39999989950E+02 0.  0.
        -12    1    3    3    0    0 -0.32844144670E+02  0.61114061270E+01  0.15482023211E+02  0.36820920231E+02  0.00000000000E+00 0.  1.
         11    1    4    4    0    0  0.16385218604E+02 -0.74367435515E+01 -0.18840819052E+02  0.26052965401E+02  0.51100000000E-03 0. -1.
        -11    1    4    4    0    0  0.16563936655E+02  0.67972151265E+01 -0.47568970799E+01  0.18525501372E+02  0.51100000000E-03 0.  1.
         12    1    4    4    0    0 -0.10501058924E+00 -0.54718777020E+01  0.81156929209E+01  0.97886129966E+01  0.00000000000E+00 0. -1.
</event>
<event>
 8    1  0.1269154E-006  0.9118800E+02  0.7816164E-02  0.1184000E+00
        -11   -1    0    0    0    0  0.00000000000E+00  0.00000000000E+00  0.45593999997E+02  0.45594000000E+02  0.51100000000E-03 0. -1.
         11   -1    0    0    0    0 -0.00000000000E+00 -0.00000000000E+00 -0.45593999997E+02  0.45594000000E+02  0.51100000000E-03 0.  1.
         23    2    1    2    0    0  0.00000000000E+00  0.00000000000E+00 -0.35527136788E-14  0.91188000000E+02  0.91188000000E+02 0.  0.
    9900012    2    3    3    0    0 -0.21924574209E+02 -0.24548953310E+02 -0.16505749014E+02  0.54367111725E+02  0.40000062800E+02 0.  0.
         12    1    3    3    0    0  0.21924574209E+02  0.24548953310E+02  0.16505749014E+02  0.36820888275E+02  0.00000000000E+00 0. -1.
         11    1    4    4    0    0 -0.20903893845E+01 -0.29536374492E+01  0.80232654867E+01  0.88015050583E+01  0.51100000000E-03 0. -1.
        -11    1    4    4    0    0 -0.30869614930E+01  0.55130036103E+01 -0.23449121728E+01  0.67395217506E+01  0.51100000000E-03 0.  1.
        -12    1    4    4    0    0 -0.16747223331E+02 -0.27108319471E+02 -0.22184102327E+02  0.38826084916E+02  0.00000000000E+00 0.  1.
</event>
<event>
 8    1  0.1269154E-006  0.9118800E+02  0.7816164E-02  0.1184000E+00
        -11   -1    0    0    0    0  0.00000000000E+00  0.00000000000E+00  0.45593999997E+02  0.45594000000E+02  0.51100000000E-03 0. -1.
         11   -1    0    0    0    0 -0.00000000000E+00 -0.00000000000E+00 -0.45593999997E+02  0.45594000000E+02  0.51100000000E-03 0.  1.
         23    2    1    2    0    0  0.00000000000E+00  0.88817841970E-15  0.88817841970E-15  0.91188000000E+02  0.91188000000E+02 0.  0.
    9900012    2    3    3    0    0 -0.35693990705E+02  0.50183036719E+01  0.75190627345E+01  0.54367073225E+02  0.39999975030E+02 0.  0.
        -12    1    3    3    0    0  0.35693990705E+02 -0.50183036719E+01 -0.75190627345E+01  0.36820926775E+02  0.00000000000E+00 0.  1.
         11    1    4    4    0    0 -0.26183206493E+01 -0.21095464843E+01  0.50835392415E+01  0.60949291114E+01  0.51100000000E-03 0. -1.
        -11    1    4    4    0    0 -0.70252145886E+01 -0.72694148970E+01 -0.11581102664E+02  0.15372702175E+02  0.51100000000E-03 0.  1.
        -12    1    4    4    0    0 -0.26050455467E+02  0.14397265053E+02  0.14016626157E+02  0.32899441939E+02  0.00000000000E+00 0.  1.
</event>
<event>
 8    1  0.1269154E-006  0.9118800E+02  0.7816164E-02  0.1184000E+00
        -11   -1    0    0    0    0  0.00000000000E+00  0.00000000000E+00  0.45593999997E+02  0.45594000000E+02  0.51100000000E-03 0. -1.
         11   -1    0    0    0    0 -0.00000000000E+00 -0.00000000000E+00 -0.45593999997E+02  0.45594000000E+02  0.51100000000E-03 0.  1.
         23    2    1    2    0    0  0.35527136788E-14  0.00000000000E+00  0.35527136788E-14  0.91188000000E+02  0.91188000000E+02 0.  0.
    9900012    2    3    3    0    0  0.10451091281E+02 -0.19497355742E+02  0.29434806260E+02  0.54367081904E+02  0.39999994816E+02 0.  0.
        -12    1    3    3    0    0 -0.10451091281E+02  0.19497355742E+02 -0.29434806260E+02  0.36820918096E+02  0.00000000000E+00 0.  1.
         11    1    4    4    0    0 -0.84173786551E+01 -0.16474085175E+02  0.88696917213E+01  0.20516314904E+02  0.51100000000E-03 0. -1.
        -11    1    4    4    0    0  0.67682114623E+01 -0.36685977773E+01  0.20321494685E+02  0.21730863824E+02  0.51100000000E-03 0.  1.
         12    1    4    4    0    0  0.12100258474E+02  0.64532721041E+00  0.24361985352E+00  0.12119903175E+02  0.00000000000E+00 0. -1.
</event>
<event>
 8    1  0.1269154E-006  0.9118800E+02  0.7816164E-02  0.1184000E+00
        -11   -1    0    0    0    0  0.00000000000E+00  0.00000000000E+00  0.45593999997E+02  0.45594000000E+02  0.51100000000E-03 0. -1.
         11   -1    0    0    0    0 -0.00000000000E+00 -0.00000000000E+00 -0.45593999997E+02  0.45594000000E+02  0.51100000000E-03 0.  1.
         23    2    1    2    0    0  0.88817841970E-15 -0.88817841970E-15  0.00000000000E+00  0.91188000000E+02  0.91188000000E+02 0.  0.
    9900012    2    3    3    0    0 -0.61763929194E+01 -0.42431021153E+01  0.36050349342E+02  0.54367089736E+02  0.40000012670E+02 0.  0.
        -12    1    3    3    0    0  0.61763929194E+01  0.42431021153E+01 -0.36050349342E+02  0.36820910264E+02  0.00000000000E+00 0.  1.
         11    1    4    4    0    0 -0.94837068572E+01 -0.15297329526E+02  0.14082812046E+02  0.22853327587E+02  0.51100000000E-03 0. -1.
        -11    1    4    4    0    0  0.39572651055E+01 -0.50606770768E+01  0.71533263437E+01  0.96145971123E+01  0.51100000000E-03 0.  1.
        -12    1    4    4    0    0 -0.64995116773E+00  0.16114904488E+02  0.14814210952E+02  0.21899165037E+02  0.00000000000E+00 0.  1.
</event>
<event>
 8    1  0.1269154E-006  0.9118800E+02  0.7816164E-02  0.1184000E+00
        -11   -1    0    0    0    0  0.00000000000E+00  0.00000000000E+00  0.45593999997E+02  0.45594000000E+02  0.51100000000E-03 0.  1.
         11   -1    0    0    0    0 -0.00000000000E+00 -0.00000000000E+00 -0.45593999997E+02  0.45594000000E+02  0.51100000000E-03 0. -1.
         23    2    1    2    0    0  0.00000000000E+00 -0.17763568394E-14 -0.35527136788E-14  0.91188000000E+02  0.91188000000E+02 0.  0.
    9900012    2    3    3    0    0  0.27123158227E+02 -0.91056754390E+01  0.23177598519E+02  0.54367080531E+02  0.39999991688E+02 0.  0.
         12    1    3    3    0    0 -0.27123158227E+02  0.91056754390E+01 -0.23177598519E+02  0.36820919469E+02  0.00000000000E+00 0. -1.
         11    1    4    4    0    0  0.62022896509E+00  0.19815451556E+01  0.48431687084E+01  0.52694865568E+01  0.51100000000E-03 0. -1.
        -11    1    4    4    0    0 -0.16003102223E+01  0.88043172643E+00  0.18461872385E+02  0.18552004880E+02  0.51100000000E-03 0.  1.
         12    1    4    4    0    0  0.28103239484E+02 -0.11967652321E+02 -0.12744257400E+00  0.30545589095E+02  0.00000000000E+00 0. -1.
</event>
<event>
 8    1  0.1269154E-006  0.9118800E+02  0.7816164E-02  0.1184000E+00
        -11   -1    0    0    0    0  0.00000000000E+00  0.00000000000E+00  0.45593999997E+02  0.45594000000E+02  0.51100000000E-03 0. -1.
         11   -1    0    0    0    0 -0.00000000000E+00 -0.00000000000E+00 -0.45593999997E+02  0.45594000000E+02  0.51100000000E-03 0.  1.
         23    2    1    2    0    0  0.17763568394E-14  0.00000000000E+00 -0.35527136788E-14  0.91188000000E+02  0.91188000000E+02 0.  0.
    9900012    2    3    3    0    0  0.10491351694E+02  0.21413524135E+02  0.28056586876E+02  0.54367088232E+02  0.40000009243E+02 0.  0.
        -12    1    3    3    0    0 -0.10491351694E+02 -0.21413524135E+02 -0.28056586876E+02  0.36820911768E+02  0.00000000000E+00 0.  1.
         11    1    4    4    0    0  0.18920788599E+02  0.49681176123E+01  0.38077033434E+01  0.19929301012E+02  0.51100000000E-03 0. -1.
        -11    1    4    4    0    0 -0.92954665075E+01  0.15537570675E+01  0.78107450143E+01  0.12240408349E+02  0.51100000000E-03 0.  1.
         12    1    4    4    0    0  0.86602960236E+00  0.14891649455E+02  0.16438138519E+02  0.22197378871E+02  0.00000000000E+00 0. -1.
</event>
<event>
 8    1  0.1269154E-006  0.9118800E+02  0.7816164E-02  0.1184000E+00
        -11   -1    0    0    0    0  0.00000000000E+00  0.00000000000E+00  0.45593999997E+02  0.45594000000E+02  0.51100000000E-03 0.  1.
         11   -1    0    0    0    0 -0.00000000000E+00 -0.00000000000E+00 -0.45593999997E+02  0.45594000000E+02  0.51100000000E-03 0. -1.
         23    2    1    2    0    0 -0.11102230246E-14 -0.35527136788E-14  0.35527136788E-14  0.91188000000E+02  0.91188000000E+02 0.  0.
    9900012    2    3    3    0    0  0.16432183920E+01  0.27549414416E+02 -0.24374370257E+02  0.54367077595E+02  0.39999984993E+02 0.  0.
        -12    1    3    3    0    0 -0.16432183920E+01 -0.27549414416E+02  0.24374370257E+02  0.36820922405E+02  0.00000000000E+00 0.  1.
         11    1    4    4    0    0 -0.11932098284E+00 -0.73283338276E+01 -0.32321271346E+01  0.80103283491E+01  0.51100000000E-03 0. -1.
        -11    1    4    4    0    0 -0.96073891336E+01  0.13363920742E+02 -0.11972531230E+02  0.20352832920E+02  0.51100000000E-03 0.  1.
         12    1    4    4    0    0  0.11369928508E+02  0.21513827502E+02 -0.91697118916E+01  0.26003916325E+02  0.00000000000E+00 0. -1.
</event>
<event>
 8    1  0.1269154E-006  0.9118800E+02  0.7816164E-02  0.1184000E+00
        -11   -1    0    0    0    0  0.00000000000E+00  0.00000000000E+00  0.45593999997E+02  0.45594000000E+02  0.51100000000E-03 0. -1.
         11   -1    0    0    0    0 -0.00000000000E+00 -0.00000000000E+00 -0.45593999997E+02  0.45594000000E+02  0.51100000000E-03 0.  1.
         23    2    1    2    0    0 -0.22204460493E-15  0.35527136788E-14  0.35527136788E-14  0.91188000000E+02  0.91188000000E+02 0.  0.
    9900012    2    3    3    0    0 -0.19409761604E+01 -0.26934217436E+02  0.25031129633E+02  0.54367124019E+02  0.40000090826E+02 0.  0.
        -12    1    3    3    0    0  0.19409761604E+01  0.26934217436E+02 -0.25031129633E+02  0.36820875981E+02  0.00000000000E+00 0.  1.
         11    1    4    4    0    0 -0.11849465690E+02 -0.29514095538E+02  0.18217136976E+02  0.36651817860E+02  0.51100000000E-03 0. -1.
        -11    1    4    4    0    0 -0.18693022531E+01 -0.21964309874E+01 -0.67691743304E+00  0.29625694031E+01  0.51100000000E-03 0.  1.
        -12    1    4    4    0    0  0.11777791783E+02  0.47763090902E+01  0.74909100899E+01  0.14752736756E+02  0.00000000000E+00 0.  1.
</event>
<event>
 8    1  0.1269154E-006  0.9118800E+02  0.7816164E-02  0.1184000E+00
        -11   -1    0    0    0    0  0.00000000000E+00  0.00000000000E+00  0.45593999997E+02  0.45594000000E+02  0.51100000000E-03 0.  1.
         11   -1    0    0    0    0 -0.00000000000E+00 -0.00000000000E+00 -0.45593999997E+02  0.45594000000E+02  0.51100000000E-03 0. -1.
         23    2    1    2    0    0  0.00000000000E+00 -0.41633363423E-15 -0.71054273576E-14  0.91188000000E+02  0.91188000000E+02 0.  0.
    9900012    2    3    3    0    0 -0.14341539499E+02  0.13900453486E+00 -0.33912849630E+02  0.54367075956E+02  0.39999981256E+02 0.  0.
        -12    1    3    3    0    0  0.14341539499E+02 -0.13900453486E+00  0.33912849630E+02  0.36820924044E+02  0.00000000000E+00 0.  1.
         11    1    4    4    0    0  0.30404764838E+01  0.90985260585E+01 -0.24241059813E+02  0.26070225446E+02  0.51100000000E-03 0. -1.
        -11    1    4    4    0    0  0.11134805972E+01  0.32146712098E+01  0.12280101245E+01  0.36168991076E+01  0.51100000000E-03 0.  1.
        -12    1    4    4    0    0 -0.18495496580E+02 -0.12174192733E+02 -0.10899799941E+02  0.24679951402E+02  0.00000000000E+00 0.  1.
</event>
<event>
 8    1  0.1269154E-006  0.9118800E+02  0.7816164E-02  0.1184000E+00
        -11   -1    0    0    0    0  0.00000000000E+00  0.00000000000E+00  0.45593999997E+02  0.45594000000E+02  0.51100000000E-03 0.  1.
         11   -1    0    0    0    0 -0.00000000000E+00 -0.00000000000E+00 -0.45593999997E+02  0.45594000000E+02  0.51100000000E-03 0. -1.
         23    2    1    2    0    0  0.88817841970E-15  0.35527136788E-14 -0.71054273576E-14  0.91188000000E+02  0.91188000000E+02 0.  0.
    9900012    2    3    3    0    0  0.60189358637E+01  0.14696170987E+02 -0.33220104217E+02  0.54367077214E+02  0.39999984125E+02 0.  0.
        -12    1    3    3    0    0 -0.60189358637E+01 -0.14696170987E+02  0.33220104217E+02  0.36820922786E+02  0.00000000000E+00 0.  1.
         11    1    4    4    0    0 -0.52120806216E+01  0.81205865068E+01 -0.13488276669E+02  0.16584429968E+02  0.51100000000E-03 0. -1.
        -11    1    4    4    0    0 -0.22630944437E+01 -0.10240260664E+02 -0.46585823341E+01  0.11475492345E+02  0.51100000000E-03 0.  1.
        -12    1    4    4    0    0  0.13494110929E+02  0.16815845144E+02 -0.15073245214E+02  0.26307154901E+02  0.00000000000E+00 0.  1.
</event>
<event>
 8    1  0.1269154E-006  0.9118800E+02  0.7816164E-02  0.1184000E+00
        -11   -1    0    0    0    0  0.00000000000E+00  0.00000000000E+00  0.45593999997E+02  0.45594000000E+02  0.51100000000E-03 0. -1.
         11   -1    0    0    0    0 -0.00000000000E+00 -0.00000000000E+00 -0.45593999997E+02  0.45594000000E+02  0.51100000000E-03 0.  1.
         23    2    1    2    0    0  0.00000000000E+00  0.00000000000E+00 -0.11102230246E-15  0.91188000000E+02  0.91188000000E+02 0.  0.
    9900012    2    3    3    0    0 -0.82418479037E+01 -0.35877255872E+02  0.82165807801E+00  0.54367072964E+02  0.39999974436E+02 0.  0.
         12    1    3    3    0    0  0.82418479037E+01  0.35877255872E+02 -0.82165807801E+00  0.36820927036E+02  0.00000000000E+00 0. -1.
         11    1    4    4    0    0  0.53617652710E+01  0.21311083168E+01  0.13630877782E+01  0.59285881988E+01  0.51100000000E-03 0. -1.
        -11    1    4    4    0    0 -0.19712073508E+02 -0.36279318641E+02  0.25699468457E+01  0.41368580228E+02  0.51100000000E-03 0.  1.
        -12    1    4    4    0    0  0.61084603334E+01 -0.17290455482E+01 -0.31113765460E+01  0.70699045371E+01  0.00000000000E+00 0.  1.
</event>
<event>
 8    1  0.1269154E-006  0.9118800E+02  0.7816164E-02  0.1184000E+00
        -11   -1    0    0    0    0  0.00000000000E+00  0.00000000000E+00  0.45593999997E+02  0.45594000000E+02  0.51100000000E-03 0. -1.
         11   -1    0    0    0    0 -0.00000000000E+00 -0.00000000000E+00 -0.45593999997E+02  0.45594000000E+02  0.51100000000E-03 0.  1.
         23    2    1    2    0    0 -0.71054273576E-14 -0.35527136788E-14  0.00000000000E+00  0.91188000000E+02  0.91188000000E+02 0.  0.
    9900012    2    3    3    0    0  0.32581119301E+02  0.12861234093E+02 -0.11350754005E+02  0.54367078043E+02  0.39999986014E+02 0.  0.
         12    1    3    3    0    0 -0.32581119301E+02 -0.12861234093E+02  0.11350754005E+02  0.36820921957E+02  0.00000000000E+00 0. -1.
         11    1    4    4    0    0  0.21597691014E+02 -0.63648600657E+01  0.28223872006E+01  0.22692235909E+02  0.51100000000E-03 0. -1.
        -11    1    4    4    0    0  0.25371019311E+01 -0.14030936771E+00  0.33646211885E+01  0.42163074995E+01  0.51100000000E-03 0.  1.
         12    1    4    4    0    0  0.84463263556E+01  0.19366403526E+02 -0.17537762395E+02  0.27458534634E+02  0.00000000000E+00 0. -1.
</event>
<event>
 8    1  0.1269154E-006  0.9118800E+02  0.7816164E-02  0.1184000E+00
        -11   -1    0    0    0    0  0.00000000000E+00  0.00000000000E+00  0.45593999997E+02  0.45594000000E+02  0.51100000000E-03 0.  1.
         11   -1    0    0    0    0 -0.00000000000E+00 -0.00000000000E+00 -0.45593999997E+02  0.45594000000E+02  0.51100000000E-03 0. -1.
         23    2    1    2    0    0  0.00000000000E+00  0.00000000000E+00  0.00000000000E+00  0.91188000000E+02  0.91188000000E+02 0.  0.
    9900012    2    3    3    0    0 -0.87217879093E+01 -0.29772485175E+02  0.19831688682E+02  0.54367267609E+02  0.40000418167E+02 0.  0.
         12    1    3    3    0    0  0.87217879093E+01  0.29772485175E+02 -0.19831688682E+02  0.36820732391E+02  0.00000000000E+00 0. -1.
         11    1    4    4    0    0 -0.64852610421E+01 -0.48355779581E+01 -0.25977373309E+01  0.84964501102E+01  0.51100000000E-03 0. -1.
        -11    1    4    4    0    0 -0.16259173028E+02 -0.13569004277E+02  0.16578125755E+02  0.26894475984E+02  0.51100000000E-03 0.  1.
        -12    1    4    4    0    0  0.14022646161E+02 -0.11367902939E+02  0.58513002577E+01  0.18976341515E+02  0.00000000000E+00 0.  1.
</event>
<event>
 8    1  0.1269154E-006  0.9118800E+02  0.7816164E-02  0.1184000E+00
        -11   -1    0    0    0    0  0.00000000000E+00  0.00000000000E+00  0.45593999997E+02  0.45594000000E+02  0.51100000000E-03 0.  1.
         11   -1    0    0    0    0 -0.00000000000E+00 -0.00000000000E+00 -0.45593999997E+02  0.45594000000E+02  0.51100000000E-03 0. -1.
         23    2    1    2    0    0  0.88817841970E-15  0.00000000000E+00  0.00000000000E+00  0.91188000000E+02  0.91188000000E+02 0.  0.
    9900012    2    3    3    0    0 -0.20882646654E+01  0.16536053210E+02 -0.32832536921E+02  0.54367117532E+02  0.40000076037E+02 0.  0.
        -12    1    3    3    0    0  0.20882646654E+01 -0.16536053210E+02  0.32832536921E+02  0.36820882468E+02  0.00000000000E+00 0.  1.
         11    1    4    4    0    0  0.12381440513E+02  0.88418609164E+01 -0.27915275155E+02  0.31792155650E+02  0.51100000000E-03 0. -1.
        -11    1    4    4    0    0 -0.41919169528E+01  0.10463815889E+02 -0.13708435955E+01  0.11355299341E+02  0.51100000000E-03 0.  1.
         12    1    4    4    0    0 -0.10277788226E+02 -0.27696235957E+01 -0.35464181705E+01  0.11219662540E+02  0.00000000000E+00 0. -1.
</event>
<event>
 8    1  0.1269154E-006  0.9118800E+02  0.7816164E-02  0.1184000E+00
        -11   -1    0    0    0    0  0.00000000000E+00  0.00000000000E+00  0.45593999997E+02  0.45594000000E+02  0.51100000000E-03 0. -1.
         11   -1    0    0    0    0 -0.00000000000E+00 -0.00000000000E+00 -0.45593999997E+02  0.45594000000E+02  0.51100000000E-03 0.  1.
         23    2    1    2    0    0  0.00000000000E+00  0.00000000000E+00  0.00000000000E+00  0.91188000000E+02  0.91188000000E+02 0.  0.
    9900012    2    3    3    0    0 -0.16620343773E+02  0.29070258360E+01 -0.32727563554E+02  0.54367081455E+02  0.39999993792E+02 0.  0.
         12    1    3    3    0    0  0.16620343773E+02 -0.29070258360E+01  0.32727563554E+02  0.36820918545E+02  0.00000000000E+00 0. -1.
         11    1    4    4    0    0 -0.14736200601E+02 -0.92431116034E+00 -0.36353464189E+01  0.15206107428E+02  0.51100000000E-03 0. -1.
        -11    1    4    4    0    0 -0.11519797539E+02  0.95840420272E+01 -0.16173616665E+02  0.22048706838E+02  0.51100000000E-03 0.  1.
        -12    1    4    4    0    0  0.96356543667E+01 -0.57527050309E+01 -0.12918600470E+02  0.17112267189E+02  0.00000000000E+00 0.  1.
</event>
<event>
 8    1  0.1269154E-006  0.9118800E+02  0.7816164E-02  0.1184000E+00
        -11   -1    0    0    0    0  0.00000000000E+00  0.00000000000E+00  0.45593999997E+02  0.45594000000E+02  0.51100000000E-03 0.  1.
         11   -1    0    0    0    0 -0.00000000000E+00 -0.00000000000E+00 -0.45593999997E+02  0.45594000000E+02  0.51100000000E-03 0. -1.
         23    2    1    2    0    0  0.00000000000E+00  0.00000000000E+00 -0.26645352591E-14  0.91188000000E+02  0.91188000000E+02 0.  0.
    9900012    2    3    3    0    0 -0.36361245813E+02 -0.52341207365E+01  0.24984337041E+01  0.54367103923E+02  0.40000045013E+02 0.  0.
        -12    1    3    3    0    0  0.36361245813E+02  0.52341207365E+01 -0.24984337041E+01  0.36820896077E+02  0.00000000000E+00 0.  1.
         11    1    4    4    0    0 -0.30124486012E+02 -0.12017211352E+02  0.15607581043E+02  0.35992980044E+02  0.51100000000E-03 0.  1.
        -11    1    4    4    0    0 -0.57324695759E+00 -0.20152016315E+01 -0.86131600544E+00  0.22652847972E+01  0.51100000000E-03 0. -1.
         12    1    4    4    0    0 -0.56635128431E+01  0.87982922467E+01 -0.12247831334E+02  0.16108839082E+02  0.00000000000E+00 0. -1.
</event>
<event>
 8    1  0.1269154E-006  0.9118800E+02  0.7816164E-02  0.1184000E+00
        -11   -1    0    0    0    0  0.00000000000E+00  0.00000000000E+00  0.45593999997E+02  0.45594000000E+02  0.51100000000E-03 0.  1.
         11   -1    0    0    0    0 -0.00000000000E+00 -0.00000000000E+00 -0.45593999997E+02  0.45594000000E+02  0.51100000000E-03 0. -1.
         23    2    1    2    0    0  0.00000000000E+00  0.00000000000E+00  0.00000000000E+00  0.91188000000E+02  0.91188000000E+02 0.  0.
    9900012    2    3    3    0    0  0.13490555795E+02  0.30663707849E+02  0.15281422195E+02  0.54367082860E+02  0.39999996997E+02 0.  0.
         12    1    3    3    0    0 -0.13490555795E+02 -0.30663707849E+02 -0.15281422195E+02  0.36820917140E+02  0.00000000000E+00 0. -1.
         11    1    4    4    0    0  0.84659956523E+00  0.11485947975E+02  0.20766132062E+02  0.23746072787E+02  0.51100000000E-03 0.  1.
        -11    1    4    4    0    0 -0.72757113662E+00  0.12333522526E+01 -0.79766320186E+01  0.81041456156E+01  0.51100000000E-03 0. -1.
         12    1    4    4    0    0  0.13371527366E+02  0.17944407622E+02  0.24919221510E+01  0.22516864458E+02  0.00000000000E+00 0. -1.
</event>
<event>
 8    1  0.1269154E-006  0.9118800E+02  0.7816164E-02  0.1184000E+00
        -11   -1    0    0    0    0  0.00000000000E+00  0.00000000000E+00  0.45593999997E+02  0.45594000000E+02  0.51100000000E-03 0.  1.
         11   -1    0    0    0    0 -0.00000000000E+00 -0.00000000000E+00 -0.45593999997E+02  0.45594000000E+02  0.51100000000E-03 0. -1.
         23    2    1    2    0    0  0.88817841970E-15  0.00000000000E+00  0.00000000000E+00  0.91188000000E+02  0.91188000000E+02 0.  0.
    9900012    2    3    3    0    0  0.68721154716E+01 -0.71395453184E+01 -0.35462399490E+02  0.54367070409E+02  0.39999968611E+02 0.  0.
        -12    1    3    3    0    0 -0.68721154716E+01  0.71395453184E+01  0.35462399490E+02  0.36820929591E+02  0.00000000000E+00 0.  1.
         11    1    4    4    0    0  0.99266459898E+01 -0.18027625178E+02 -0.10953557027E+02  0.23313386326E+02  0.51100000000E-03 0. -1.
        -11    1    4    4    0    0 -0.46534288856E+01  0.10742057852E+02 -0.73561905527E+01  0.13826053196E+02  0.51100000000E-03 0.  1.
        -12    1    4    4    0    0  0.15988983673E+01  0.14602200815E+00 -0.17152651910E+02  0.17227630886E+02  0.00000000000E+00 0.  1.
</event>
<event>
 8    1  0.1269154E-006  0.9118800E+02  0.7816164E-02  0.1184000E+00
        -11   -1    0    0    0    0  0.00000000000E+00  0.00000000000E+00  0.45593999997E+02  0.45594000000E+02  0.51100000000E-03 0.  1.
         11   -1    0    0    0    0 -0.00000000000E+00 -0.00000000000E+00 -0.45593999997E+02  0.45594000000E+02  0.51100000000E-03 0. -1.
         23    2    1    2    0    0 -0.88817841970E-15  0.00000000000E+00  0.00000000000E+00  0.91188000000E+02  0.91188000000E+02 0.  0.
    9900012    2    3    3    0    0 -0.41034186247E+01 -0.10951910528E+02  0.34914292855E+02  0.54366943060E+02  0.39999678293E+02 0.  0.
         12    1    3    3    0    0  0.41034186247E+01  0.10951910528E+02 -0.34914292855E+02  0.36821056940E+02  0.00000000000E+00 0. -1.
         11    1    4    4    0    0 -0.71753907802E+00 -0.24243858231E+02  0.28632436957E+02  0.37524604869E+02  0.51100000000E-03 0. -1.
        -11    1    4    4    0    0  0.22698451489E+01  0.33174315880E+01  0.26497864030E+01  0.48144488349E+01  0.51100000000E-03 0.  1.
         12    1    4    4    0    0 -0.56557246956E+01  0.99745161144E+01  0.36320694951E+01  0.12027889356E+02  0.00000000000E+00 0. -1.
</event>
<event>
 8    1  0.1269154E-006  0.9118800E+02  0.7816164E-02  0.1184000E+00
        -11   -1    0    0    0    0  0.00000000000E+00  0.00000000000E+00  0.45593999997E+02  0.45594000000E+02  0.51100000000E-03 0.  1.
         11   -1    0    0    0    0 -0.00000000000E+00 -0.00000000000E+00 -0.45593999997E+02  0.45594000000E+02  0.51100000000E-03 0. -1.
         23    2    1    2    0    0  0.00000000000E+00 -0.71054273576E-14 -0.44408920985E-15  0.91188000000E+02  0.91188000000E+02 0.  0.
    9900012    2    3    3    0    0 -0.17132080576E+02  0.32585177344E+02 -0.69099535810E+00  0.54367089609E+02  0.40000012381E+02 0.  0.
         12    1    3    3    0    0  0.17132080576E+02 -0.32585177344E+02  0.69099535810E+00  0.36820910391E+02  0.00000000000E+00 0. -1.
         11    1    4    4    0    0 -0.47271001354E+01  0.12938310144E+02 -0.14772042927E+02  0.20197984988E+02  0.51100000000E-03 0. -1.
        -11    1    4    4    0    0 -0.82565398764E+01  0.58149562321E+01 -0.41445134645E+01  0.10916096318E+02  0.51100000000E-03 0.  1.
         12    1    4    4    0    0 -0.41484405645E+01  0.13831910968E+02  0.18225561033E+02  0.23253008303E+02  0.00000000000E+00 0. -1.
</event>
<event>
 8    1  0.1269154E-006  0.9118800E+02  0.7816164E-02  0.1184000E+00
        -11   -1    0    0    0    0  0.00000000000E+00  0.00000000000E+00  0.45593999997E+02  0.45594000000E+02  0.51100000000E-03 0.  1.
         11   -1    0    0    0    0 -0.00000000000E+00 -0.00000000000E+00 -0.45593999997E+02  0.45594000000E+02  0.51100000000E-03 0. -1.
         23    2    1    2    0    0  0.35527136788E-14 -0.17763568394E-14  0.35527136788E-14  0.91188000000E+02  0.91188000000E+02 0.  0.
    9900012    2    3    3    0    0  0.20724121928E+02 -0.69966553816E+01  0.29619884621E+02  0.54367082288E+02  0.39999995692E+02 0.  0.
         12    1    3    3    0    0 -0.20724121928E+02  0.69966553816E+01 -0.29619884621E+02  0.36820917712E+02  0.00000000000E+00 0. -1.
         11    1    4    4    0    0  0.44655348144E+00 -0.13827355436E+02 -0.26126093095E+00  0.13837030964E+02  0.51100000000E-03 0. -1.
        -11    1    4    4    0    0  0.12261903001E+01  0.15807321077E+01 -0.21226018436E+01  0.29167954155E+01  0.51100000000E-03 0.  1.
        -12    1    4    4    0    0  0.19051378146E+02  0.52499679468E+01  0.32003747395E+02  0.37613255909E+02  0.00000000000E+00 0.  1.
</event>
<event>
 8    1  0.1269154E-006  0.9118800E+02  0.7816164E-02  0.1184000E+00
        -11   -1    0    0    0    0  0.00000000000E+00  0.00000000000E+00  0.45593999997E+02  0.45594000000E+02  0.51100000000E-03 0.  1.
         11   -1    0    0    0    0 -0.00000000000E+00 -0.00000000000E+00 -0.45593999997E+02  0.45594000000E+02  0.51100000000E-03 0. -1.
         23    2    1    2    0    0  0.00000000000E+00  0.17763568394E-14  0.00000000000E+00  0.91188000000E+02  0.91188000000E+02 0.  0.
    9900012    2    3    3    0    0 -0.63221059727E+01 -0.92881962599E+01  0.35064802565E+02  0.54367082132E+02  0.39999995336E+02 0.  0.
         12    1    3    3    0    0  0.63221059727E+01  0.92881962599E+01 -0.35064802565E+02  0.36820917868E+02  0.00000000000E+00 0. -1.
         11    1    4    4    0    0 -0.89414014572E+01  0.86379832029E+01  0.76409813629E+01  0.14592738272E+02  0.51100000000E-03 0. -1.
        -11    1    4    4    0    0  0.31802342999E+01 -0.14961826738E+02  0.31314698701E+02  0.34850832193E+02  0.51100000000E-03 0.  1.
         12    1    4    4    0    0 -0.56093881550E+00 -0.29643527244E+01 -0.38908774982E+01  0.49235116671E+01  0.00000000000E+00 0. -1.
</event>
<event>
 8    1  0.1269154E-006  0.9118800E+02  0.7816164E-02  0.1184000E+00
        -11   -1    0    0    0    0  0.00000000000E+00  0.00000000000E+00  0.45593999997E+02  0.45594000000E+02  0.51100000000E-03 0.  1.
         11   -1    0    0    0    0 -0.00000000000E+00 -0.00000000000E+00 -0.45593999997E+02  0.45594000000E+02  0.51100000000E-03 0. -1.
         23    2    1    2    0    0  0.00000000000E+00  0.00000000000E+00  0.00000000000E+00  0.91188000000E+02  0.91188000000E+02 0.  0.
    9900012    2    3    3    0    0 -0.20678788054E+02 -0.20347337672E+02 -0.22674819131E+02  0.54367165567E+02  0.40000185543E+02 0.  0.
        -12    1    3    3    0    0  0.20678788054E+02  0.20347337672E+02  0.22674819131E+02  0.36820834433E+02  0.00000000000E+00 0.  1.
         11    1    4    4    0    0 -0.58643701407E+01  0.14738436170E+01 -0.56622986837E+00  0.60731926266E+01  0.51100000000E-03 0. -1.
        -11    1    4    4    0    0 -0.11405761258E+02 -0.26770810188E+02 -0.41961793592E+01  0.29400265126E+02  0.51100000000E-03 0.  1.
        -12    1    4    4    0    0 -0.34086566554E+01  0.49496288993E+01 -0.17912409903E+02  0.18893707815E+02  0.00000000000E+00 0.  1.
</event>
<event>
 8    1  0.1269154E-006  0.9118800E+02  0.7816164E-02  0.1184000E+00
        -11   -1    0    0    0    0  0.00000000000E+00  0.00000000000E+00  0.45593999997E+02  0.45594000000E+02  0.51100000000E-03 0.  1.
         11   -1    0    0    0    0 -0.00000000000E+00 -0.00000000000E+00 -0.45593999997E+02  0.45594000000E+02  0.51100000000E-03 0. -1.
         23    2    1    2    0    0  0.88817841970E-15  0.35527136788E-14  0.35527136788E-14  0.91188000000E+02  0.91188000000E+02 0.  0.
    9900012    2    3    3    0    0  0.55551858319E+01  0.31610521732E+02  0.18046934638E+02  0.54367122449E+02  0.40000087248E+02 0.  0.
         12    1    3    3    0    0 -0.55551858319E+01 -0.31610521732E+02 -0.18046934638E+02  0.36820877551E+02  0.00000000000E+00 0. -1.
         11    1    4    4    0    0 -0.36858216257E+01  0.88382952373E+01 -0.82851208478E+01  0.12662700008E+02  0.51100000000E-03 0. -1.
        -11    1    4    4    0    0  0.12433641169E+01  0.12005312153E+02  0.25564249791E+02  0.28270202366E+02  0.51100000000E-03 0.  1.
        -12    1    4    4    0    0  0.79976433407E+01  0.10766914342E+02  0.76780569481E+00  0.13434220075E+02  0.00000000000E+00 0.  1.
</event>
<event>
 8    1  0.1269154E-006  0.9118800E+02  0.7816164E-02  0.1184000E+00
        -11   -1    0    0    0    0  0.00000000000E+00  0.00000000000E+00  0.45593999997E+02  0.45594000000E+02  0.51100000000E-03 0.  1.
         11   -1    0    0    0    0 -0.00000000000E+00 -0.00000000000E+00 -0.45593999997E+02  0.45594000000E+02  0.51100000000E-03 0. -1.
         23    2    1    2    0    0 -0.17763568394E-14 -0.35527136788E-14 -0.35527136788E-14  0.91188000000E+02  0.91188000000E+02 0.  0.
    9900012    2    3    3    0    0 -0.15706416497E+02 -0.22958301883E+02 -0.24124813355E+02  0.54367058079E+02  0.39999940503E+02 0.  0.
        -12    1    3    3    0    0  0.15706416497E+02  0.22958301883E+02  0.24124813355E+02  0.36820941921E+02  0.00000000000E+00 0.  1.
         11    1    4    4    0    0 -0.11204874432E+02 -0.88769988497E+01 -0.75397064774E+01  0.16161605540E+02  0.51100000000E-03 0. -1.
        -11    1    4    4    0    0  0.24389305615E+00 -0.13521101495E+01  0.90711027234E+01  0.91745621454E+01  0.51100000000E-03 0.  1.
         12    1    4    4    0    0 -0.47454351213E+01 -0.12729192884E+02 -0.25656209601E+02  0.29030890393E+02  0.00000000000E+00 0. -1.
</event>
<event>
 8    1  0.1269154E-006  0.9118800E+02  0.7816164E-02  0.1184000E+00
        -11   -1    0    0    0    0  0.00000000000E+00  0.00000000000E+00  0.45593999997E+02  0.45594000000E+02  0.51100000000E-03 0.  1.
         11   -1    0    0    0    0 -0.00000000000E+00 -0.00000000000E+00 -0.45593999997E+02  0.45594000000E+02  0.51100000000E-03 0. -1.
         23    2    1    2    0    0  0.35527136788E-14  0.22204460493E-15  0.35527136788E-14  0.91188000000E+02  0.91188000000E+02 0.  0.
    9900012    2    3    3    0    0 -0.18994717972E+02 -0.11891168111E+01 -0.31520893396E+02  0.54367081623E+02  0.39999994177E+02 0.  0.
        -12    1    3    3    0    0  0.18994717972E+02  0.11891168111E+01  0.31520893396E+02  0.36820918377E+02  0.00000000000E+00 0.  1.
         11    1    4    4    0    0 -0.61389041379E+01 -0.10884342884E+02 -0.22202287770E+02  0.25477375189E+02  0.51100000000E-03 0. -1.
        -11    1    4    4    0    0 -0.10823765329E+02 -0.46731980131E+01 -0.81479778482E+01  0.14331162509E+02  0.51100000000E-03 0.  1.
         12    1    4    4    0    0 -0.20320485045E+01  0.14368424086E+02 -0.11706277776E+01  0.14558543926E+02  0.00000000000E+00 0. -1.
</event>
<event>
 8    1  0.1269154E-006  0.9118800E+02  0.7816164E-02  0.1184000E+00
        -11   -1    0    0    0    0  0.00000000000E+00  0.00000000000E+00  0.45593999997E+02  0.45594000000E+02  0.51100000000E-03 0. -1.
         11   -1    0    0    0    0 -0.00000000000E+00 -0.00000000000E+00 -0.45593999997E+02  0.45594000000E+02  0.51100000000E-03 0.  1.
         23    2    1    2    0    0  0.35527136788E-14  0.00000000000E+00  0.35527136788E-14  0.91188000000E+02  0.91188000000E+02 0.  0.
    9900012    2    3    3    0    0 -0.12420413507E+02 -0.30135445696E+02  0.17127575186E+02  0.54367277699E+02  0.40000441169E+02 0.  0.
         12    1    3    3    0    0  0.12420413507E+02  0.30135445696E+02 -0.17127575186E+02  0.36820722301E+02  0.00000000000E+00 0. -1.
         11    1    4    4    0    0 -0.12466688257E+01  0.49419348865E+01 -0.57127870795E+01  0.76559023021E+01  0.51100000000E-03 0. -1.
        -11    1    4    4    0    0  0.46593727513E+01 -0.62966032962E+01  0.33800726420E+01  0.85312284480E+01  0.51100000000E-03 0.  1.
         12    1    4    4    0    0 -0.15833117433E+02 -0.28780777286E+02  0.19460289623E+02  0.38180146949E+02  0.00000000000E+00 0. -1.
</event>
<event>
 8    1  0.1269154E-006  0.9118800E+02  0.7816164E-02  0.1184000E+00
        -11   -1    0    0    0    0  0.00000000000E+00  0.00000000000E+00  0.45593999997E+02  0.45594000000E+02  0.51100000000E-03 0.  1.
         11   -1    0    0    0    0 -0.00000000000E+00 -0.00000000000E+00 -0.45593999997E+02  0.45594000000E+02  0.51100000000E-03 0. -1.
         23    2    1    2    0    0  0.00000000000E+00  0.00000000000E+00 -0.35527136788E-14  0.91188000000E+02  0.91188000000E+02 0.  0.
    9900012    2    3    3    0    0  0.28069523767E+02 -0.16615926541E+02  0.17081972108E+02  0.54367069126E+02  0.39999965686E+02 0.  0.
         12    1    3    3    0    0 -0.28069523767E+02  0.16615926541E+02 -0.17081972108E+02  0.36820930874E+02  0.00000000000E+00 0. -1.
         11    1    4    4    0    0  0.20680878542E+01  0.10042347222E+02 -0.46339981738E+01  0.11251651631E+02  0.51100000000E-03 0. -1.
        -11    1    4    4    0    0  0.21259706613E+02 -0.22223126632E+02  0.17948466450E+02  0.35608846243E+02  0.51100000000E-03 0.  1.
         12    1    4    4    0    0  0.47417292996E+01 -0.44351471315E+01  0.37675038321E+01  0.75065712515E+01  0.00000000000E+00 0. -1.
</event>
<event>
 8    1  0.1269154E-006  0.9118800E+02  0.7816164E-02  0.1184000E+00
        -11   -1    0    0    0    0  0.00000000000E+00  0.00000000000E+00  0.45593999997E+02  0.45594000000E+02  0.51100000000E-03 0.  1.
         11   -1    0    0    0    0 -0.00000000000E+00 -0.00000000000E+00 -0.45593999997E+02  0.45594000000E+02  0.51100000000E-03 0. -1.
         23    2    1    2    0    0  0.00000000000E+00 -0.35527136788E-14  0.17763568394E-14  0.91188000000E+02  0.91188000000E+02 0.  0.
    9900012    2    3    3    0    0 -0.19328972399E+02  0.28753356596E+02 -0.12466607862E+02  0.54367068437E+02  0.39999964117E+02 0.  0.
         12    1    3    3    0    0  0.19328972399E+02 -0.28753356596E+02  0.12466607862E+02  0.36820931563E+02  0.00000000000E+00 0. -1.
         11    1    4    4    0    0 -0.54862379122E+01  0.41089523019E+01 -0.39673861776E+01  0.79197505512E+01  0.51100000000E-03 0. -1.
        -11    1    4    4    0    0 -0.18282214044E+02  0.21312675847E+02 -0.19458280361E+02  0.34162760090E+02  0.51100000000E-03 0.  1.
        -12    1    4    4    0    0  0.44394795568E+01  0.33317284471E+01  0.10959058676E+02  0.12284557796E+02  0.00000000000E+00 0.  1.
</event>
<event>
 8    1  0.1269154E-006  0.9118800E+02  0.7816164E-02  0.1184000E+00
        -11   -1    0    0    0    0  0.00000000000E+00  0.00000000000E+00  0.45593999997E+02  0.45594000000E+02  0.51100000000E-03 0.  1.
         11   -1    0    0    0    0 -0.00000000000E+00 -0.00000000000E+00 -0.45593999997E+02  0.45594000000E+02  0.51100000000E-03 0. -1.
         23    2    1    2    0    0 -0.35527136788E-14  0.17763568394E-14  0.00000000000E+00  0.91188000000E+02  0.91188000000E+02 0.  0.
    9900012    2    3    3    0    0 -0.23920376031E+02  0.15554877104E+02 -0.23273184170E+02  0.54367086206E+02  0.40000004624E+02 0.  0.
        -12    1    3    3    0    0  0.23920376031E+02 -0.15554877104E+02  0.23273184170E+02  0.36820913794E+02  0.00000000000E+00 0.  1.
         11    1    4    4    0    0 -0.73923009998E+01  0.11182587566E+02 -0.80133579838E+01  0.15617627386E+02  0.51100000000E-03 0. -1.
        -11    1    4    4    0    0 -0.22127274387E+02  0.81086569272E+00 -0.35906205847E-01  0.22142155823E+02  0.51100000000E-03 0.  1.
         12    1    4    4    0    0  0.55991993559E+01  0.35614238452E+01 -0.15223919981E+02  0.16607302996E+02  0.00000000000E+00 0. -1.
</event>
<event>
 8    1  0.1269154E-006  0.9118800E+02  0.7816164E-02  0.1184000E+00
        -11   -1    0    0    0    0  0.00000000000E+00  0.00000000000E+00  0.45593999997E+02  0.45594000000E+02  0.51100000000E-03 0. -1.
         11   -1    0    0    0    0 -0.00000000000E+00 -0.00000000000E+00 -0.45593999997E+02  0.45594000000E+02  0.51100000000E-03 0.  1.
         23    2    1    2    0    0  0.00000000000E+00  0.17763568394E-14 -0.44408920985E-15  0.91188000000E+02  0.91188000000E+02 0.  0.
    9900012    2    3    3    0    0  0.33673103186E+02  0.14460515335E+02 -0.35772338882E+01  0.54367068667E+02  0.39999964640E+02 0.  0.
        -12    1    3    3    0    0 -0.33673103186E+02 -0.14460515335E+02  0.35772338882E+01  0.36820931333E+02  0.00000000000E+00 0.  1.
         11    1    4    4    0    0  0.51712497132E+01 -0.55064039778E+01 -0.17321584395E+01  0.77500117086E+01  0.51100000000E-03 0.  1.
        -11    1    4    4    0    0  0.33464261456E+02  0.17252136268E+02  0.47278847152E+01  0.37945301352E+02  0.51100000000E-03 0. -1.
         12    1    4    4    0    0 -0.49624079830E+01  0.27147830453E+01 -0.65729601640E+01  0.86717556060E+01  0.00000000000E+00 0. -1.
</event>
<event>
 8    1  0.1269154E-006  0.9118800E+02  0.7816164E-02  0.1184000E+00
        -11   -1    0    0    0    0  0.00000000000E+00  0.00000000000E+00  0.45593999997E+02  0.45594000000E+02  0.51100000000E-03 0. -1.
         11   -1    0    0    0    0 -0.00000000000E+00 -0.00000000000E+00 -0.45593999997E+02  0.45594000000E+02  0.51100000000E-03 0.  1.
         23    2    1    2    0    0  0.35527136788E-14  0.00000000000E+00  0.00000000000E+00  0.91188000000E+02  0.91188000000E+02 0.  0.
    9900012    2    3    3    0    0 -0.23381720012E+02 -0.27798889198E+02  0.60246849046E+01  0.54367083395E+02  0.39999998217E+02 0.  0.
         12    1    3    3    0    0  0.23381720012E+02  0.27798889198E+02 -0.60246849046E+01  0.36820916605E+02  0.00000000000E+00 0. -1.
         11    1    4    4    0    0 -0.13658913182E+01 -0.86058434727E+01  0.59541373584E+01  0.10553575362E+02  0.51100000000E-03 0. -1.
        -11    1    4    4    0    0 -0.97620054155E+01 -0.26873555983E+02  0.38916529459E+01  0.28855324012E+02  0.51100000000E-03 0.  1.
         12    1    4    4    0    0 -0.12253823279E+02  0.76805102576E+01 -0.38211053996E+01  0.14958184022E+02  0.00000000000E+00 0. -1.
</event>
<event>
 8    1  0.1269154E-006  0.9118800E+02  0.7816164E-02  0.1184000E+00
        -11   -1    0    0    0    0  0.00000000000E+00  0.00000000000E+00  0.45593999997E+02  0.45594000000E+02  0.51100000000E-03 0. -1.
         11   -1    0    0    0    0 -0.00000000000E+00 -0.00000000000E+00 -0.45593999997E+02  0.45594000000E+02  0.51100000000E-03 0.  1.
         23    2    1    2    0    0 -0.17763568394E-14  0.77715611724E-15  0.71054273576E-14  0.91188000000E+02  0.91188000000E+02 0.  0.
    9900012    2    3    3    0    0 -0.11578684297E+02 -0.78125333563E+00  0.34944290418E+02  0.54367085839E+02  0.40000003787E+02 0.  0.
        -12    1    3    3    0    0  0.11578684297E+02  0.78125333563E+00 -0.34944290418E+02  0.36820914161E+02  0.00000000000E+00 0.  1.
         11    1    4    4    0    0 -0.16087491529E+02 -0.98598704574E+01  0.12064055164E+02  0.22395666018E+02  0.51100000000E-03 0.  1.
        -11    1    4    4    0    0 -0.55690387530E+01  0.69691791577E+00  0.11535460585E-01  0.56124879102E+01  0.51100000000E-03 0. -1.
         12    1    4    4    0    0  0.10077845984E+02  0.83816992060E+01  0.22868699793E+02  0.26358931911E+02  0.00000000000E+00 0. -1.
</event>
<event>
 8    1  0.1269154E-006  0.9118800E+02  0.7816164E-02  0.1184000E+00
        -11   -1    0    0    0    0  0.00000000000E+00  0.00000000000E+00  0.45593999997E+02  0.45594000000E+02  0.51100000000E-03 0.  1.
         11   -1    0    0    0    0 -0.00000000000E+00 -0.00000000000E+00 -0.45593999997E+02  0.45594000000E+02  0.51100000000E-03 0. -1.
         23    2    1    2    0    0  0.17763568394E-14 -0.35527136788E-14  0.00000000000E+00  0.91188000000E+02  0.91188000000E+02 0.  0.
    9900012    2    3    3    0    0 -0.44082704645E+01  0.81025030906E+01  0.35646833334E+02  0.54367080246E+02  0.39999991036E+02 0.  0.
         12    1    3    3    0    0  0.44082704645E+01 -0.81025030906E+01 -0.35646833334E+02  0.36820919754E+02  0.00000000000E+00 0. -1.
         11    1    4    4    0    0  0.81744051222E+01 -0.18517285101E+01  0.45029617237E+01  0.95145395119E+01  0.51100000000E-03 0. -1.
        -11    1    4    4    0    0 -0.72452664045E+01  0.13699796006E+02  0.34277478152E+02  0.37618131328E+02  0.51100000000E-03 0.  1.
         12    1    4    4    0    0 -0.53374091823E+01 -0.37455644049E+01 -0.31336065420E+01  0.72344094058E+01  0.00000000000E+00 0. -1.
</event>
<event>
 8    1  0.1269154E-006  0.9118800E+02  0.7816164E-02  0.1184000E+00
        -11   -1    0    0    0    0  0.00000000000E+00  0.00000000000E+00  0.45593999997E+02  0.45594000000E+02  0.51100000000E-03 0.  1.
         11   -1    0    0    0    0 -0.00000000000E+00 -0.00000000000E+00 -0.45593999997E+02  0.45594000000E+02  0.51100000000E-03 0. -1.
         23    2    1    2    0    0 -0.17763568394E-14  0.00000000000E+00 -0.35527136788E-14  0.91188000000E+02  0.91188000000E+02 0.  0.
    9900012    2    3    3    0    0 -0.99763213722E+01 -0.23479696665E+02 -0.26550995026E+02  0.54367102666E+02  0.40000042148E+02 0.  0.
        -12    1    3    3    0    0  0.99763213722E+01  0.23479696665E+02  0.26550995026E+02  0.36820897334E+02  0.00000000000E+00 0.  1.
         11    1    4    4    0    0 -0.39624342815E+00  0.42184041709E+01 -0.17267827022E+02  0.17780039171E+02  0.51100000000E-03 0. -1.
        -11    1    4    4    0    0  0.32678775588E+01 -0.20453106474E+00  0.24091966413E+01  0.40651058305E+01  0.51100000000E-03 0.  1.
         12    1    4    4    0    0 -0.12847955503E+02 -0.27493569771E+02 -0.11692364645E+02  0.32521957665E+02  0.00000000000E+00 0. -1.
</event>
<event>
 8    1  0.1269154E-006  0.9118800E+02  0.7816164E-02  0.1184000E+00
        -11   -1    0    0    0    0  0.00000000000E+00  0.00000000000E+00  0.45593999997E+02  0.45594000000E+02  0.51100000000E-03 0.  1.
         11   -1    0    0    0    0 -0.00000000000E+00 -0.00000000000E+00 -0.45593999997E+02  0.45594000000E+02  0.51100000000E-03 0. -1.
         23    2    1    2    0    0  0.00000000000E+00 -0.35527136788E-14  0.35527136788E-14  0.91188000000E+02  0.91188000000E+02 0.  0.
    9900012    2    3    3    0    0  0.39942057046E+01  0.25690372681E+02 -0.26073564861E+02  0.54367085939E+02  0.40000004015E+02 0.  0.
        -12    1    3    3    0    0 -0.39942057046E+01 -0.25690372681E+02  0.26073564861E+02  0.36820914061E+02  0.00000000000E+00 0.  1.
         11    1    4    4    0    0  0.98514614555E+00 -0.36653949908E+01  0.26349128322E+01  0.46204328002E+01  0.51100000000E-03 0. -1.
        -11    1    4    4    0    0  0.46988882679E+00 -0.53453931746E+01 -0.14835600644E+01  0.55673130347E+01  0.51100000000E-03 0.  1.
         12    1    4    4    0    0  0.25391707323E+01  0.34701160847E+02 -0.27224917629E+02  0.44179340104E+02  0.00000000000E+00 0. -1.
</event>
<event>
 8    1  0.1269154E-006  0.9118800E+02  0.7816164E-02  0.1184000E+00
        -11   -1    0    0    0    0  0.00000000000E+00  0.00000000000E+00  0.45593999997E+02  0.45594000000E+02  0.51100000000E-03 0.  1.
         11   -1    0    0    0    0 -0.00000000000E+00 -0.00000000000E+00 -0.45593999997E+02  0.45594000000E+02  0.51100000000E-03 0. -1.
         23    2    1    2    0    0 -0.17763568394E-14  0.00000000000E+00  0.00000000000E+00  0.91188000000E+02  0.91188000000E+02 0.  0.
    9900012    2    3    3    0    0 -0.10466923551E+02  0.34553164074E+02 -0.72322712557E+01  0.54367036084E+02  0.39999890361E+02 0.  0.
        -12    1    3    3    0    0  0.10466923551E+02 -0.34553164074E+02  0.72322712557E+01  0.36820963916E+02  0.00000000000E+00 0.  1.
         11    1    4    4    0    0 -0.36730633001E+01  0.19865088906E+02  0.12524348098E+02  0.23769149055E+02  0.51100000000E-03 0. -1.
        -11    1    4    4    0    0 -0.55916893716E+01 -0.14321772120E+01 -0.10468698749E+02  0.11954571316E+02  0.51100000000E-03 0.  1.
        -12    1    4    4    0    0 -0.12021708793E+01  0.16120252380E+02 -0.92879206041E+01  0.18643315713E+02  0.00000000000E+00 0.  1.
</event>
<event>
 8    1  0.1269154E-006  0.9118800E+02  0.7816164E-02  0.1184000E+00
        -11   -1    0    0    0    0  0.00000000000E+00  0.00000000000E+00  0.45593999997E+02  0.45594000000E+02  0.51100000000E-03 0. -1.
         11   -1    0    0    0    0 -0.00000000000E+00 -0.00000000000E+00 -0.45593999997E+02  0.45594000000E+02  0.51100000000E-03 0.  1.
         23    2    1    2    0    0  0.00000000000E+00  0.00000000000E+00 -0.17763568394E-14  0.91188000000E+02  0.91188000000E+02 0.  0.
    9900012    2    3    3    0    0  0.28329871438E+02 -0.17427564995E+02  0.15794898211E+02  0.54367075964E+02  0.39999981276E+02 0.  0.
         12    1    3    3    0    0 -0.28329871438E+02  0.17427564995E+02 -0.15794898211E+02  0.36820924036E+02  0.00000000000E+00 0. -1.
         11    1    4    4    0    0  0.77728035670E+01 -0.10769897009E+01 -0.19439993817E+01  0.80842758466E+01  0.51100000000E-03 0.  1.
        -11    1    4    4    0    0  0.27146570744E+02 -0.58553263676E+01  0.19262022791E+02  0.33797140002E+02  0.51100000000E-03 0. -1.
         12    1    4    4    0    0 -0.65895028733E+01 -0.10495248927E+02 -0.15231251990E+01  0.12485660116E+02  0.00000000000E+00 0. -1.
</event>
<event>
 8    1  0.1269154E-006  0.9118800E+02  0.7816164E-02  0.1184000E+00
        -11   -1    0    0    0    0  0.00000000000E+00  0.00000000000E+00  0.45593999997E+02  0.45594000000E+02  0.51100000000E-03 0.  1.
         11   -1    0    0    0    0 -0.00000000000E+00 -0.00000000000E+00 -0.45593999997E+02  0.45594000000E+02  0.51100000000E-03 0. -1.
         23    2    1    2    0    0  0.00000000000E+00  0.88817841970E-15 -0.26645352591E-14  0.91188000000E+02  0.91188000000E+02 0.  0.
    9900012    2    3    3    0    0 -0.35763934663E+02  0.43289236943E+01 -0.76146609277E+01  0.54367059437E+02  0.39999943598E+02 0.  0.
         12    1    3    3    0    0  0.35763934663E+02 -0.43289236943E+01  0.76146609277E+01  0.36820940563E+02  0.00000000000E+00 0. -1.
         11    1    4    4    0    0 -0.33950675647E+02 -0.73705546809E+01 -0.79188475440E+01  0.35632591821E+02  0.51100000000E-03 0. -1.
        -11    1    4    4    0    0  0.91213743830E+00 -0.22760906282E+01  0.33716176342E+01  0.41689793699E+01  0.51100000000E-03 0.  1.
        -12    1    4    4    0    0 -0.27253964544E+01  0.13975569003E+02 -0.30674310179E+01  0.14565488246E+02  0.00000000000E+00 0.  1.
</event>
<event>
 8    1  0.1269154E-006  0.9118800E+02  0.7816164E-02  0.1184000E+00
        -11   -1    0    0    0    0  0.00000000000E+00  0.00000000000E+00  0.45593999997E+02  0.45594000000E+02  0.51100000000E-03 0.  1.
         11   -1    0    0    0    0 -0.00000000000E+00 -0.00000000000E+00 -0.45593999997E+02  0.45594000000E+02  0.51100000000E-03 0. -1.
         23    2    1    2    0    0  0.71054273576E-14  0.00000000000E+00  0.17763568394E-14  0.91188000000E+02  0.91188000000E+02 0.  0.
    9900012    2    3    3    0    0  0.34662732101E+02 -0.64548945678E+01  0.10611803177E+02  0.54367068083E+02  0.39999963309E+02 0.  0.
         12    1    3    3    0    0 -0.34662732101E+02  0.64548945678E+01 -0.10611803177E+02  0.36820931917E+02  0.00000000000E+00 0. -1.
         11    1    4    4    0    0  0.16150924406E+02  0.32107575312E+01 -0.11622236436E+02  0.20155339320E+02  0.51100000000E-03 0. -1.
        -11    1    4    4    0    0  0.40616387847E+00 -0.34958179022E+01  0.12025796217E+02  0.12530183032E+02  0.51100000000E-03 0.  1.
        -12    1    4    4    0    0  0.18105643817E+02 -0.61698341968E+01  0.10208243396E+02  0.21681545730E+02  0.00000000000E+00 0.  1.
</event>
<event>
 8    1  0.1269154E-006  0.9118800E+02  0.7816164E-02  0.1184000E+00
        -11   -1    0    0    0    0  0.00000000000E+00  0.00000000000E+00  0.45593999997E+02  0.45594000000E+02  0.51100000000E-03 0. -1.
         11   -1    0    0    0    0 -0.00000000000E+00 -0.00000000000E+00 -0.45593999997E+02  0.45594000000E+02  0.51100000000E-03 0.  1.
         23    2    1    2    0    0 -0.35527136788E-14  0.88817841970E-15  0.00000000000E+00  0.91188000000E+02  0.91188000000E+02 0.  0.
    9900012    2    3    3    0    0 -0.19808892156E+02 -0.48695906778E+01 -0.30654107029E+02  0.54367090186E+02  0.40000013696E+02 0.  0.
         12    1    3    3    0    0  0.19808892156E+02  0.48695906778E+01  0.30654107029E+02  0.36820909814E+02  0.00000000000E+00 0. -1.
         11    1    4    4    0    0 -0.17675538551E+02  0.51402976706E+01 -0.18049716851E+02  0.25780605150E+02  0.51100000000E-03 0.  1.
        -11    1    4    4    0    0 -0.72093227209E+01  0.53110539606E+01 -0.74355196558E+01  0.11639097090E+02  0.51100000000E-03 0. -1.
         12    1    4    4    0    0  0.50759691157E+01 -0.15320942309E+02 -0.51688705218E+01  0.16947387945E+02  0.00000000000E+00 0. -1.
</event>
<event>
 8    1  0.1269154E-006  0.9118800E+02  0.7816164E-02  0.1184000E+00
        -11   -1    0    0    0    0  0.00000000000E+00  0.00000000000E+00  0.45593999997E+02  0.45594000000E+02  0.51100000000E-03 0.  1.
         11   -1    0    0    0    0 -0.00000000000E+00 -0.00000000000E+00 -0.45593999997E+02  0.45594000000E+02  0.51100000000E-03 0. -1.
         23    2    1    2    0    0  0.00000000000E+00  0.71054273576E-14 -0.17763568394E-14  0.91188000000E+02  0.91188000000E+02 0.  0.
    9900012    2    3    3    0    0 -0.22313678146E+02 -0.25714414767E+02  0.14023173339E+02  0.54367071852E+02  0.39999971901E+02 0.  0.
         12    1    3    3    0    0  0.22313678146E+02  0.25714414767E+02 -0.14023173339E+02  0.36820928148E+02  0.00000000000E+00 0. -1.
         11    1    4    4    0    0 -0.18520016319E+02 -0.69253472191E+01  0.85241541272E+01  0.21531666039E+02  0.51100000000E-03 0. -1.
        -11    1    4    4    0    0  0.60929062711E+00  0.40283721212E+01  0.84787168638E+01  0.94067878116E+01  0.51100000000E-03 0.  1.
        -12    1    4    4    0    0 -0.44029524536E+01 -0.22817439669E+02 -0.29796976518E+01  0.23428618001E+02  0.00000000000E+00 0.  1.
</event>
<event>
 8    1  0.1269154E-006  0.9118800E+02  0.7816164E-02  0.1184000E+00
        -11   -1    0    0    0    0  0.00000000000E+00  0.00000000000E+00  0.45593999997E+02  0.45594000000E+02  0.51100000000E-03 0. -1.
         11   -1    0    0    0    0 -0.00000000000E+00 -0.00000000000E+00 -0.45593999997E+02  0.45594000000E+02  0.51100000000E-03 0.  1.
         23    2    1    2    0    0  0.71054273576E-14 -0.88817841970E-15  0.00000000000E+00  0.91188000000E+02  0.91188000000E+02 0.  0.
    9900012    2    3    3    0    0  0.35284351155E+02 -0.40492861644E+01 -0.97158187676E+01  0.54367091684E+02  0.40000017113E+02 0.  0.
         12    1    3    3    0    0 -0.35284351155E+02  0.40492861644E+01  0.97158187676E+01  0.36820908316E+02  0.00000000000E+00 0. -1.
         11    1    4    4    0    0 -0.22399280670E+01  0.56592606669E+01 -0.55253088835E+01  0.82203131060E+01  0.51100000000E-03 0. -1.
        -11    1    4    4    0    0  0.37102246255E+02 -0.15195738318E+02 -0.55557251102E+01  0.40476576214E+02  0.51100000000E-03 0.  1.
         12    1    4    4    0    0  0.42203296669E+00  0.54871914872E+01  0.13652152261E+01  0.56702023646E+01  0.00000000000E+00 0. -1.
</event>
<event>
 8    1  0.1269154E-006  0.9118800E+02  0.7816164E-02  0.1184000E+00
        -11   -1    0    0    0    0  0.00000000000E+00  0.00000000000E+00  0.45593999997E+02  0.45594000000E+02  0.51100000000E-03 0. -1.
         11   -1    0    0    0    0 -0.00000000000E+00 -0.00000000000E+00 -0.45593999997E+02  0.45594000000E+02  0.51100000000E-03 0.  1.
         23    2    1    2    0    0 -0.35527136788E-14 -0.17763568394E-14  0.00000000000E+00  0.91188000000E+02  0.91188000000E+02 0.  0.
    9900012    2    3    3    0    0  0.31053951258E+02 -0.38334979754E+01  0.19409956516E+02  0.54366946139E+02  0.39999685312E+02 0.  0.
        -12    1    3    3    0    0 -0.31053951258E+02  0.38334979754E+01 -0.19409956516E+02  0.36821053861E+02  0.00000000000E+00 0.  1.
         11    1    4    4    0    0  0.57530366952E+01 -0.14698346505E+02 -0.25256971177E+01  0.15984929383E+02  0.51100000000E-03 0. -1.
        -11    1    4    4    0    0  0.17799659827E+02  0.96126674831E+00  0.75075445092E+01  0.19342056471E+02  0.51100000000E-03 0.  1.
         12    1    4    4    0    0  0.75012547358E+01  0.99035817811E+01  0.14428109125E+02  0.19039960284E+02  0.00000000000E+00 0. -1.
</event>
<event>
 8    1  0.1269154E-006  0.9118800E+02  0.7816164E-02  0.1184000E+00
        -11   -1    0    0    0    0  0.00000000000E+00  0.00000000000E+00  0.45593999997E+02  0.45594000000E+02  0.51100000000E-03 0.  1.
         11   -1    0    0    0    0 -0.00000000000E+00 -0.00000000000E+00 -0.45593999997E+02  0.45594000000E+02  0.51100000000E-03 0. -1.
         23    2    1    2    0    0  0.71054273576E-14 -0.17763568394E-14 -0.35527136788E-14  0.91188000000E+02  0.91188000000E+02 0.  0.
    9900012    2    3    3    0    0  0.15930884215E+02 -0.12284765636E+02 -0.30839446898E+02  0.54367081711E+02  0.39999994378E+02 0.  0.
        -12    1    3    3    0    0 -0.15930884215E+02  0.12284765636E+02  0.30839446898E+02  0.36820918289E+02  0.00000000000E+00 0.  1.
         11    1    4    4    0    0 -0.91263434231E+01 -0.25315151106E+01 -0.19262349644E+01  0.96648380447E+01  0.51100000000E-03 0. -1.
        -11    1    4    4    0    0  0.10230816312E+01  0.52848503580E+01 -0.72095003967E+01  0.89974016006E+01  0.51100000000E-03 0.  1.
         12    1    4    4    0    0  0.24034146007E+02 -0.15038100884E+02 -0.21703711537E+02  0.35704842066E+02  0.00000000000E+00 0. -1.
</event>
<event>
 8    1  0.1269154E-006  0.9118800E+02  0.7816164E-02  0.1184000E+00
        -11   -1    0    0    0    0  0.00000000000E+00  0.00000000000E+00  0.45593999997E+02  0.45594000000E+02  0.51100000000E-03 0.  1.
         11   -1    0    0    0    0 -0.00000000000E+00 -0.00000000000E+00 -0.45593999997E+02  0.45594000000E+02  0.51100000000E-03 0. -1.
         23    2    1    2    0    0  0.00000000000E+00 -0.35527136788E-14  0.00000000000E+00  0.91188000000E+02  0.91188000000E+02 0.  0.
    9900012    2    3    3    0    0 -0.14209668096E+02  0.23826580467E+02  0.24210749064E+02  0.54367068800E+02  0.39999964944E+02 0.  0.
        -12    1    3    3    0    0  0.14209668096E+02 -0.23826580467E+02 -0.24210749064E+02  0.36820931200E+02  0.00000000000E+00 0.  1.
         11    1    4    4    0    0  0.18484153184E+01  0.18514894504E+02  0.51619807069E+01  0.19309686760E+02  0.51100000000E-03 0. -1.
        -11    1    4    4    0    0  0.23511139517E-01 -0.38040219787E+01  0.15846318660E+02  0.16296531880E+02  0.51100000000E-03 0.  1.
        -12    1    4    4    0    0 -0.16081594554E+02  0.91157079421E+01  0.32024496975E+01  0.18760850160E+02  0.00000000000E+00 0.  1.
</event>
<event>
 8    1  0.1269154E-006  0.9118800E+02  0.7816164E-02  0.1184000E+00
        -11   -1    0    0    0    0  0.00000000000E+00  0.00000000000E+00  0.45593999997E+02  0.45594000000E+02  0.51100000000E-03 0. -1.
         11   -1    0    0    0    0 -0.00000000000E+00 -0.00000000000E+00 -0.45593999997E+02  0.45594000000E+02  0.51100000000E-03 0.  1.
         23    2    1    2    0    0  0.00000000000E+00  0.88817841970E-15  0.35527136788E-14  0.91188000000E+02  0.91188000000E+02 0.  0.
    9900012    2    3    3    0    0  0.21787387682E+02  0.66291084983E+01 -0.28933445383E+02  0.54367087420E+02  0.40000007392E+02 0.  0.
         12    1    3    3    0    0 -0.21787387682E+02 -0.66291084983E+01  0.28933445383E+02  0.36820912580E+02  0.00000000000E+00 0. -1.
         11    1    4    4    0    0 -0.14269996532E+01 -0.81309706284E+01  0.34198194671E+01  0.89355568835E+01  0.51100000000E-03 0. -1.
        -11    1    4    4    0    0  0.22459520747E+02  0.13207090179E+02 -0.19708176660E+02  0.32669091366E+02  0.51100000000E-03 0.  1.
        -12    1    4    4    0    0  0.75486658800E+00  0.15529889479E+01 -0.12645088190E+02  0.12762439170E+02  0.00000000000E+00 0.  1.
</event>
<event>
 8    1  0.1269154E-006  0.9118800E+02  0.7816164E-02  0.1184000E+00
        -11   -1    0    0    0    0  0.00000000000E+00  0.00000000000E+00  0.45593999997E+02  0.45594000000E+02  0.51100000000E-03 0. -1.
         11   -1    0    0    0    0 -0.00000000000E+00 -0.00000000000E+00 -0.45593999997E+02  0.45594000000E+02  0.51100000000E-03 0.  1.
         23    2    1    2    0    0  0.88817841970E-15  0.00000000000E+00  0.17763568394E-14  0.91188000000E+02  0.91188000000E+02 0.  0.
    9900012    2    3    3    0    0  0.43941872104E+01  0.33802167274E+02 -0.13924265197E+02  0.54367074496E+02  0.39999977928E+02 0.  0.
         12    1    3    3    0    0 -0.43941872104E+01 -0.33802167274E+02  0.13924265197E+02  0.36820925504E+02  0.00000000000E+00 0. -1.
         11    1    4    4    0    0 -0.97609403446E+01  0.44026394715E+01 -0.14005823093E+01  0.10799112084E+02  0.51100000000E-03 0. -1.
        -11    1    4    4    0    0 -0.43635730609E+01  0.19533673335E+02 -0.20599455367E+01  0.20120848384E+02  0.51100000000E-03 0.  1.
        -12    1    4    4    0    0  0.18518700616E+02  0.98658544675E+01 -0.10463737351E+02  0.23447114028E+02  0.00000000000E+00 0.  1.
</event>
<event>
 8    1  0.1269154E-006  0.9118800E+02  0.7816164E-02  0.1184000E+00
        -11   -1    0    0    0    0  0.00000000000E+00  0.00000000000E+00  0.45593999997E+02  0.45594000000E+02  0.51100000000E-03 0.  1.
         11   -1    0    0    0    0 -0.00000000000E+00 -0.00000000000E+00 -0.45593999997E+02  0.45594000000E+02  0.51100000000E-03 0. -1.
         23    2    1    2    0    0 -0.35527136788E-14  0.00000000000E+00 -0.17763568394E-14  0.91188000000E+02  0.91188000000E+02 0.  0.
    9900012    2    3    3    0    0 -0.28440752351E+02 -0.21569660273E+02 -0.90361052062E+01  0.54367111419E+02  0.40000062102E+02 0.  0.
        -12    1    3    3    0    0  0.28440752351E+02  0.21569660273E+02  0.90361052062E+01  0.36820888581E+02  0.00000000000E+00 0.  1.
         11    1    4    4    0    0 -0.17134366105E+01 -0.14954931034E+02 -0.35175826751E+01  0.15458305709E+02  0.51100000000E-03 0. -1.
        -11    1    4    4    0    0 -0.31653637089E+02 -0.41080839220E+01 -0.79125932416E+01  0.32885228090E+02  0.51100000000E-03 0.  1.
        -12    1    4    4    0    0  0.49263213484E+01 -0.25066453164E+01  0.23940707104E+01  0.60235776193E+01  0.00000000000E+00 0.  1.
</event>
<event>
 8    1  0.1269154E-006  0.9118800E+02  0.7816164E-02  0.1184000E+00
        -11   -1    0    0    0    0  0.00000000000E+00  0.00000000000E+00  0.45593999997E+02  0.45594000000E+02  0.51100000000E-03 0. -1.
         11   -1    0    0    0    0 -0.00000000000E+00 -0.00000000000E+00 -0.45593999997E+02  0.45594000000E+02  0.51100000000E-03 0.  1.
         23    2    1    2    0    0  0.00000000000E+00  0.00000000000E+00  0.88817841970E-15  0.91188000000E+02  0.91188000000E+02 0.  0.
    9900012    2    3    3    0    0 -0.31642402091E+02  0.17929736752E+02 -0.57498605949E+01  0.54367109640E+02  0.40000058046E+02 0.  0.
         12    1    3    3    0    0  0.31642402091E+02 -0.17929736752E+02  0.57498605949E+01  0.36820890360E+02  0.00000000000E+00 0. -1.
         11    1    4    4    0    0  0.62115131871E+01  0.80440859377E+00 -0.22092383796E+01  0.66415889468E+01  0.51100000000E-03 0. -1.
        -11    1    4    4    0    0 -0.12096347149E+02  0.16561295831E+02  0.39703074461E+01  0.20889266991E+02  0.51100000000E-03 0.  1.
        -12    1    4    4    0    0 -0.25757568129E+02  0.56403232756E+00 -0.75109296613E+01  0.26836253702E+02  0.00000000000E+00 0.  1.
</event>
<event>
 8    1  0.1269154E-006  0.9118800E+02  0.7816164E-02  0.1184000E+00
        -11   -1    0    0    0    0  0.00000000000E+00  0.00000000000E+00  0.45593999997E+02  0.45594000000E+02  0.51100000000E-03 0. -1.
         11   -1    0    0    0    0 -0.00000000000E+00 -0.00000000000E+00 -0.45593999997E+02  0.45594000000E+02  0.51100000000E-03 0.  1.
         23    2    1    2    0    0  0.00000000000E+00  0.35527136788E-14  0.00000000000E+00  0.91188000000E+02  0.91188000000E+02 0.  0.
    9900012    2    3    3    0    0  0.17301460814E+02 -0.16494740299E+02  0.28006499096E+02  0.54367068515E+02  0.39999964293E+02 0.  0.
        -12    1    3    3    0    0 -0.17301460814E+02  0.16494740299E+02 -0.28006499096E+02  0.36820931485E+02  0.00000000000E+00 0.  1.
         11    1    4    4    0    0  0.19970754911E+02 -0.84088232239E+01  0.10070785367E+02  0.23894770932E+02  0.51100000000E-03 0. -1.
        -11    1    4    4    0    0  0.10459279316E+01  0.49386987823E+01  0.16016036358E+02  0.16792799998E+02  0.51100000000E-03 0.  1.
        -12    1    4    4    0    0 -0.37152220283E+01 -0.13024615857E+02  0.19196773708E+01  0.13679497584E+02  0.00000000000E+00 0.  1.
</event>
<event>
 8    1  0.1269154E-006  0.9118800E+02  0.7816164E-02  0.1184000E+00
        -11   -1    0    0    0    0  0.00000000000E+00  0.00000000000E+00  0.45593999997E+02  0.45594000000E+02  0.51100000000E-03 0. -1.
         11   -1    0    0    0    0 -0.00000000000E+00 -0.00000000000E+00 -0.45593999997E+02  0.45594000000E+02  0.51100000000E-03 0.  1.
         23    2    1    2    0    0  0.17763568394E-14  0.00000000000E+00  0.88817841970E-15  0.91188000000E+02  0.91188000000E+02 0.  0.
    9900012    2    3    3    0    0 -0.11703888521E+02  0.34309075544E+02 -0.64564250898E+01  0.54367094306E+02  0.40000023089E+02 0.  0.
        -12    1    3    3    0    0  0.11703888521E+02 -0.34309075544E+02  0.64564250898E+01  0.36820905694E+02  0.00000000000E+00 0.  1.
         11    1    4    4    0    0  0.55118806218E+01  0.77610122281E+01 -0.13133889122E+01  0.96093251319E+01  0.51100000000E-03 0. -1.
        -11    1    4    4    0    0  0.62122556615E+01 -0.41651449397E+00 -0.65138609316E+01  0.90108817118E+01  0.51100000000E-03 0.  1.
         12    1    4    4    0    0 -0.23428024804E+02  0.26964577810E+02  0.13708247540E+01  0.35746887462E+02  0.00000000000E+00 0. -1.
</event>
<event>
 8    1  0.1269154E-006  0.9118800E+02  0.7816164E-02  0.1184000E+00
        -11   -1    0    0    0    0  0.00000000000E+00  0.00000000000E+00  0.45593999997E+02  0.45594000000E+02  0.51100000000E-03 0.  1.
         11   -1    0    0    0    0 -0.00000000000E+00 -0.00000000000E+00 -0.45593999997E+02  0.45594000000E+02  0.51100000000E-03 0. -1.
         23    2    1    2    0    0  0.88817841970E-15 -0.88817841970E-15  0.00000000000E+00  0.91188000000E+02  0.91188000000E+02 0.  0.
    9900012    2    3    3    0    0 -0.54833824780E+01  0.29066336901E+01  0.36294129871E+02  0.54367083853E+02  0.39999999260E+02 0.  0.
         12    1    3    3    0    0  0.54833824780E+01 -0.29066336901E+01 -0.36294129871E+02  0.36820916147E+02  0.00000000000E+00 0. -1.
         11    1    4    4    0    0  0.25540937809E+01  0.62632144105E+01  0.48228067970E+01  0.83072688325E+01  0.51100000000E-03 0. -1.
        -11    1    4    4    0    0  0.39866629110E+01  0.11700693000E+02  0.20354010130E+02  0.23813555520E+02  0.51100000000E-03 0.  1.
         12    1    4    4    0    0 -0.12024139170E+02 -0.15057273721E+02  0.11117312944E+02  0.22246259501E+02  0.00000000000E+00 0. -1.
</event>
<event>
 8    1  0.1269154E-006  0.9118800E+02  0.7816164E-02  0.1184000E+00
        -11   -1    0    0    0    0  0.00000000000E+00  0.00000000000E+00  0.45593999997E+02  0.45594000000E+02  0.51100000000E-03 0.  1.
         11   -1    0    0    0    0 -0.00000000000E+00 -0.00000000000E+00 -0.45593999997E+02  0.45594000000E+02  0.51100000000E-03 0. -1.
         23    2    1    2    0    0  0.00000000000E+00  0.00000000000E+00 -0.35527136788E-14  0.91188000000E+02  0.91188000000E+02 0.  0.
    9900012    2    3    3    0    0 -0.64602696504E+01  0.21811046109E+02  0.28953804808E+02  0.54367087068E+02  0.40000006589E+02 0.  0.
         12    1    3    3    0    0  0.64602696504E+01 -0.21811046109E+02 -0.28953804808E+02  0.36820912932E+02  0.00000000000E+00 0. -1.
         11    1    4    4    0    0  0.37249684048E+01 -0.78661731180E+01  0.24690749429E+01  0.90470105822E+01  0.51100000000E-03 0. -1.
        -11    1    4    4    0    0 -0.12526903200E+02  0.89469850632E+01  0.75464319996E+01  0.17144109241E+02  0.51100000000E-03 0.  1.
        -12    1    4    4    0    0  0.23416651444E+01  0.20730234164E+02  0.18938297865E+02  0.28175967244E+02  0.00000000000E+00 0.  1.
</event>
<event>
 8    1  0.1269154E-006  0.9118800E+02  0.7816164E-02  0.1184000E+00
        -11   -1    0    0    0    0  0.00000000000E+00  0.00000000000E+00  0.45593999997E+02  0.45594000000E+02  0.51100000000E-03 0. -1.
         11   -1    0    0    0    0 -0.00000000000E+00 -0.00000000000E+00 -0.45593999997E+02  0.45594000000E+02  0.51100000000E-03 0.  1.
         23    2    1    2    0    0  0.00000000000E+00 -0.17763568394E-14  0.00000000000E+00  0.91188000000E+02  0.91188000000E+02 0.  0.
    9900012    2    3    3    0    0  0.32819598140E+02 -0.11523130527E+02  0.12077731432E+02  0.54367079917E+02  0.39999990287E+02 0.  0.
        -12    1    3    3    0    0 -0.32819598140E+02  0.11523130527E+02 -0.12077731432E+02  0.36820920083E+02  0.00000000000E+00 0.  1.
         11    1    4    4    0    0  0.29405905731E+02 -0.18208383209E+02  0.21961177431E+02  0.40970060110E+02  0.51100000000E-03 0. -1.
        -11    1    4    4    0    0  0.14095835390E+01  0.10563733595E+00 -0.43360952995E+01  0.45606806189E+01  0.51100000000E-03 0.  1.
         12    1    4    4    0    0  0.20041088697E+01  0.65796153462E+01 -0.55473507000E+01  0.88363391885E+01  0.00000000000E+00 0. -1.
</event>
<event>
 8    1  0.1269154E-006  0.9118800E+02  0.7816164E-02  0.1184000E+00
        -11   -1    0    0    0    0  0.00000000000E+00  0.00000000000E+00  0.45593999997E+02  0.45594000000E+02  0.51100000000E-03 0. -1.
         11   -1    0    0    0    0 -0.00000000000E+00 -0.00000000000E+00 -0.45593999997E+02  0.45594000000E+02  0.51100000000E-03 0.  1.
         23    2    1    2    0    0  0.00000000000E+00  0.00000000000E+00  0.35527136788E-14  0.91188000000E+02  0.91188000000E+02 0.  0.
    9900012    2    3    3    0    0  0.44968049933E+01  0.21169394109E+02  0.29789521286E+02  0.54367080938E+02  0.39999992615E+02 0.  0.
        -12    1    3    3    0    0 -0.44968049933E+01 -0.21169394109E+02 -0.29789521286E+02  0.36820919062E+02  0.00000000000E+00 0.  1.
         11    1    4    4    0    0 -0.59053064001E+00  0.10599405051E+02  0.17492312599E+02  0.20461600968E+02  0.51100000000E-03 0. -1.
        -11    1    4    4    0    0 -0.12267658536E+02  0.35331136393E+01  0.63368433742E+01  0.14252505820E+02  0.51100000000E-03 0.  1.
        -12    1    4    4    0    0  0.17354994169E+02  0.70368754188E+01  0.59603653130E+01  0.19652974150E+02  0.00000000000E+00 0.  1.
</event>
<event>
 8    1  0.1269154E-006  0.9118800E+02  0.7816164E-02  0.1184000E+00
        -11   -1    0    0    0    0  0.00000000000E+00  0.00000000000E+00  0.45593999997E+02  0.45594000000E+02  0.51100000000E-03 0. -1.
         11   -1    0    0    0    0 -0.00000000000E+00 -0.00000000000E+00 -0.45593999997E+02  0.45594000000E+02  0.51100000000E-03 0.  1.
         23    2    1    2    0    0 -0.88817841970E-15  0.35527136788E-14  0.35527136788E-14  0.91188000000E+02  0.91188000000E+02 0.  0.
    9900012    2    3    3    0    0  0.46262932154E+01  0.26099776469E+02  0.25557336714E+02  0.54367104022E+02  0.40000045240E+02 0.  0.
        -12    1    3    3    0    0 -0.46262932154E+01 -0.26099776469E+02 -0.25557336714E+02  0.36820895978E+02  0.00000000000E+00 0.  1.
         11    1    4    4    0    0  0.68855117916E+01  0.40814366629E+01  0.65681054814E+01  0.10354149301E+02  0.51100000000E-03 0. -1.
        -11    1    4    4    0    0 -0.12040454877E+02  0.86725682436E+01  0.22639207223E+02  0.27068795642E+02  0.51100000000E-03 0.  1.
        -12    1    4    4    0    0  0.97812363008E+01  0.13345771563E+02 -0.36499759898E+01  0.16944159079E+02  0.00000000000E+00 0.  1.
</event>
<event>
 8    1  0.1269154E-006  0.9118800E+02  0.7816164E-02  0.1184000E+00
        -11   -1    0    0    0    0  0.00000000000E+00  0.00000000000E+00  0.45593999997E+02  0.45594000000E+02  0.51100000000E-03 0.  1.
         11   -1    0    0    0    0 -0.00000000000E+00 -0.00000000000E+00 -0.45593999997E+02  0.45594000000E+02  0.51100000000E-03 0. -1.
         23    2    1    2    0    0  0.33306690739E-15  0.00000000000E+00  0.00000000000E+00  0.91188000000E+02  0.91188000000E+02 0.  0.
    9900012    2    3    3    0    0 -0.65937096313E+00  0.10837457642E+02 -0.35183719606E+02  0.54367090404E+02  0.40000014193E+02 0.  0.
        -12    1    3    3    0    0  0.65937096313E+00 -0.10837457642E+02  0.35183719606E+02  0.36820909596E+02  0.00000000000E+00 0.  1.
         11    1    4    4    0    0  0.31165373647E+01  0.67837872974E+01 -0.21757241733E+02  0.23002394295E+02  0.51100000000E-03 0. -1.
        -11    1    4    4    0    0 -0.82725057928E+01  0.84832285842E+01 -0.19362280367E+02  0.22700163449E+02  0.51100000000E-03 0.  1.
        -12    1    4    4    0    0  0.44965974650E+01 -0.44295582395E+01  0.59358024946E+01  0.86645326599E+01  0.00000000000E+00 0.  1.
</event>
<event>
 8    1  0.1269154E-006  0.9118800E+02  0.7816164E-02  0.1184000E+00
        -11   -1    0    0    0    0  0.00000000000E+00  0.00000000000E+00  0.45593999997E+02  0.45594000000E+02  0.51100000000E-03 0.  1.
         11   -1    0    0    0    0 -0.00000000000E+00 -0.00000000000E+00 -0.45593999997E+02  0.45594000000E+02  0.51100000000E-03 0. -1.
         23    2    1    2    0    0  0.00000000000E+00 -0.35527136788E-14 -0.44408920985E-15  0.91188000000E+02  0.91188000000E+02 0.  0.
    9900012    2    3    3    0    0  0.18697712043E+02 -0.31485308758E+02  0.38546742283E+01  0.54366978604E+02  0.39999759323E+02 0.  0.
         12    1    3    3    0    0 -0.18697712043E+02  0.31485308758E+02 -0.38546742283E+01  0.36821021396E+02  0.00000000000E+00 0. -1.
         11    1    4    4    0    0 -0.78634949316E+01 -0.87890397483E+01 -0.47157855711E+01  0.12701197032E+02  0.51100000000E-03 0. -1.
        -11    1    4    4    0    0  0.11801052613E+00 -0.13355583647E+00 -0.45186989216E+01  0.45222122740E+01  0.51100000000E-03 0.  1.
        -12    1    4    4    0    0  0.26443196448E+02 -0.22562713174E+02  0.13089158721E+02  0.37143569298E+02  0.00000000000E+00 0.  1.
</event>
<event>
 8    1  0.1269154E-006  0.9118800E+02  0.7816164E-02  0.1184000E+00
        -11   -1    0    0    0    0  0.00000000000E+00  0.00000000000E+00  0.45593999997E+02  0.45594000000E+02  0.51100000000E-03 0.  1.
         11   -1    0    0    0    0 -0.00000000000E+00 -0.00000000000E+00 -0.45593999997E+02  0.45594000000E+02  0.51100000000E-03 0. -1.
         23    2    1    2    0    0  0.44408920985E-15  0.00000000000E+00  0.71054273576E-14  0.91188000000E+02  0.91188000000E+02 0.  0.
    9900012    2    3    3    0    0 -0.30237482067E+01  0.23895937651E+02  0.27849968830E+02  0.54367086740E+02  0.40000005841E+02 0.  0.
         12    1    3    3    0    0  0.30237482067E+01 -0.23895937651E+02 -0.27849968830E+02  0.36820913260E+02  0.00000000000E+00 0. -1.
         11    1    4    4    0    0 -0.63138196497E+01  0.96461234597E+01  0.76178889395E+01  0.13818257796E+02  0.51100000000E-03 0. -1.
        -11    1    4    4    0    0 -0.41286854032E+00  0.17476939931E+02 -0.21687358442E+01  0.17615825419E+02  0.51100000000E-03 0.  1.
        -12    1    4    4    0    0  0.37029399834E+01 -0.32271257390E+01  0.22400815735E+02  0.22933003524E+02  0.00000000000E+00 0.  1.
</event>
<event>
 8    1  0.1269154E-006  0.9118800E+02  0.7816164E-02  0.1184000E+00
        -11   -1    0    0    0    0  0.00000000000E+00  0.00000000000E+00  0.45593999997E+02  0.45594000000E+02  0.51100000000E-03 0. -1.
         11   -1    0    0    0    0 -0.00000000000E+00 -0.00000000000E+00 -0.45593999997E+02  0.45594000000E+02  0.51100000000E-03 0.  1.
         23    2    1    2    0    0  0.00000000000E+00  0.00000000000E+00  0.00000000000E+00  0.91188000000E+02  0.91188000000E+02 0.  0.
    9900012    2    3    3    0    0  0.36238051379E+02 -0.61843100584E+01 -0.20839636325E+01  0.54367014637E+02  0.39999841469E+02 0.  0.
        -12    1    3    3    0    0 -0.36238051379E+02  0.61843100584E+01  0.20839636325E+01  0.36820985363E+02  0.00000000000E+00 0.  1.
         11    1    4    4    0    0  0.11568845992E+02 -0.11734925436E+02  0.12217732519E+02  0.20513889459E+02  0.51100000000E-03 0. -1.
        -11    1    4    4    0    0  0.16773229105E+02  0.32067892121E+01  0.31005326575E+00  0.17079837380E+02  0.51100000000E-03 0.  1.
        -12    1    4    4    0    0  0.78959762822E+01  0.23438261650E+01 -0.14611749417E+02  0.16773287798E+02  0.00000000000E+00 0.  1.
</event>
<event>
 8    1  0.1269154E-006  0.9118800E+02  0.7816164E-02  0.1184000E+00
        -11   -1    0    0    0    0  0.00000000000E+00  0.00000000000E+00  0.45593999997E+02  0.45594000000E+02  0.51100000000E-03 0. -1.
         11   -1    0    0    0    0 -0.00000000000E+00 -0.00000000000E+00 -0.45593999997E+02  0.45594000000E+02  0.51100000000E-03 0.  1.
         23    2    1    2    0    0  0.22204460493E-15  0.17763568394E-14  0.00000000000E+00  0.91188000000E+02  0.91188000000E+02 0.  0.
    9900012    2    3    3    0    0 -0.74931373230E+00 -0.59606139590E+01  0.36327545993E+02  0.54367068620E+02  0.39999964532E+02 0.  0.
        -12    1    3    3    0    0  0.74931373230E+00  0.59606139590E+01 -0.36327545993E+02  0.36820931380E+02  0.00000000000E+00 0.  1.
         11    1    4    4    0    0 -0.90120327691E+00  0.48309977942E+01  0.10666978273E+00  0.49154944551E+01  0.51100000000E-03 0. -1.
        -11    1    4    4    0    0 -0.57260781476E+01  0.10032519518E+02  0.16723661803E+02  0.20325360592E+02  0.51100000000E-03 0.  1.
        -12    1    4    4    0    0  0.58779676923E+01 -0.20824131272E+02  0.19497214408E+02  0.29126213572E+02  0.00000000000E+00 0.  1.
</event>
<event>
 8    1  0.1269154E-006  0.9118800E+02  0.7816164E-02  0.1184000E+00
        -11   -1    0    0    0    0  0.00000000000E+00  0.00000000000E+00  0.45593999997E+02  0.45594000000E+02  0.51100000000E-03 0.  1.
         11   -1    0    0    0    0 -0.00000000000E+00 -0.00000000000E+00 -0.45593999997E+02  0.45594000000E+02  0.51100000000E-03 0. -1.
         23    2    1    2    0    0  0.00000000000E+00  0.00000000000E+00  0.00000000000E+00  0.91188000000E+02  0.91188000000E+02 0.  0.
    9900012    2    3    3    0    0 -0.88297323964E+00  0.36784796930E+02  0.13698368701E+01  0.54367117610E+02  0.40000076216E+02 0.  0.
        -12    1    3    3    0    0  0.88297323964E+00 -0.36784796930E+02 -0.13698368701E+01  0.36820882390E+02  0.00000000000E+00 0.  1.
         11    1    4    4    0    0  0.59247567215E+01  0.30346506279E+02  0.73491381754E+01  0.31780859298E+02  0.51100000000E-03 0.  1.
        -11    1    4    4    0    0 -0.19341640887E+01  0.10346411914E+02 -0.10505974496E+02  0.14871608204E+02  0.51100000000E-03 0. -1.
        -12    1    4    4    0    0 -0.48735658724E+01 -0.39081212627E+01  0.45266731905E+01  0.77146501081E+01  0.00000000000E+00 0.  1.
</event>
<event>
 8    1  0.1269154E-006  0.9118800E+02  0.7816164E-02  0.1184000E+00
        -11   -1    0    0    0    0  0.00000000000E+00  0.00000000000E+00  0.45593999997E+02  0.45594000000E+02  0.51100000000E-03 0. -1.
         11   -1    0    0    0    0 -0.00000000000E+00 -0.00000000000E+00 -0.45593999997E+02  0.45594000000E+02  0.51100000000E-03 0.  1.
         23    2    1    2    0    0  0.00000000000E+00  0.00000000000E+00  0.00000000000E+00  0.91188000000E+02  0.91188000000E+02 0.  0.
    9900012    2    3    3    0    0  0.22287661900E+02  0.72396366873E+01  0.28401198310E+02  0.54367078261E+02  0.39999986511E+02 0.  0.
        -12    1    3    3    0    0 -0.22287661900E+02 -0.72396366873E+01 -0.28401198310E+02  0.36820921739E+02  0.00000000000E+00 0.  1.
         11    1    4    4    0    0  0.22033381158E+02  0.52354377694E+00  0.28600466104E+02  0.36107210429E+02  0.51100000000E-03 0. -1.
        -11    1    4    4    0    0  0.26742526557E+01  0.25183437435E+01 -0.81553549564E+01  0.89444674074E+01  0.51100000000E-03 0.  1.
        -12    1    4    4    0    0 -0.24199719141E+01  0.41977491668E+01  0.79560871618E+01  0.93154004240E+01  0.00000000000E+00 0.  1.
</event>
<event>
 8    1  0.1269154E-006  0.9118800E+02  0.7816164E-02  0.1184000E+00
        -11   -1    0    0    0    0  0.00000000000E+00  0.00000000000E+00  0.45593999997E+02  0.45594000000E+02  0.51100000000E-03 0.  1.
         11   -1    0    0    0    0 -0.00000000000E+00 -0.00000000000E+00 -0.45593999997E+02  0.45594000000E+02  0.51100000000E-03 0. -1.
         23    2    1    2    0    0 -0.17763568394E-14  0.00000000000E+00  0.71054273576E-14  0.91188000000E+02  0.91188000000E+02 0.  0.
    9900012    2    3    3    0    0 -0.13722602733E+02 -0.22698239074E+02  0.25539377259E+02  0.54367086464E+02  0.40000005213E+02 0.  0.
         12    1    3    3    0    0  0.13722602733E+02  0.22698239074E+02 -0.25539377259E+02  0.36820913536E+02  0.00000000000E+00 0. -1.
         11    1    4    4    0    0 -0.85450042654E+01 -0.32523158615E+01 -0.68304536337E+01  0.11412701409E+02  0.51100000000E-03 0. -1.
        -11    1    4    4    0    0 -0.95078816795E+01 -0.31416595703E+01  0.18815467038E+02  0.21314118302E+02  0.51100000000E-03 0.  1.
         12    1    4    4    0    0  0.43302832123E+01 -0.16304263642E+02  0.13554363855E+02  0.21640266753E+02  0.00000000000E+00 0. -1.
</event>
<event>
 8    1  0.1269154E-006  0.9118800E+02  0.7816164E-02  0.1184000E+00
        -11   -1    0    0    0    0  0.00000000000E+00  0.00000000000E+00  0.45593999997E+02  0.45594000000E+02  0.51100000000E-03 0.  1.
         11   -1    0    0    0    0 -0.00000000000E+00 -0.00000000000E+00 -0.45593999997E+02  0.45594000000E+02  0.51100000000E-03 0. -1.
         23    2    1    2    0    0  0.00000000000E+00  0.00000000000E+00 -0.88817841970E-15  0.91188000000E+02  0.91188000000E+02 0.  0.
    9900012    2    3    3    0    0  0.24358230574E+02  0.27448212432E+02  0.30086974273E+01  0.54367081725E+02  0.39999994410E+02 0.  0.
         12    1    3    3    0    0 -0.24358230574E+02 -0.27448212432E+02 -0.30086974273E+01  0.36820918275E+02  0.00000000000E+00 0. -1.
         11    1    4    4    0    0  0.13154994976E+02  0.48416897327E+01 -0.11133796130E+02  0.17901320309E+02  0.51100000000E-03 0. -1.
        -11    1    4    4    0    0  0.12566211236E+02  0.85752443972E+01 -0.16429605958E+01  0.15301758105E+02  0.51100000000E-03 0.  1.
        -12    1    4    4    0    0 -0.13629756391E+01  0.14031278302E+02  0.15785454153E+02  0.21164003312E+02  0.00000000000E+00 0.  1.
</event>
<event>
 8    1  0.1269154E-006  0.9118800E+02  0.7816164E-02  0.1184000E+00
        -11   -1    0    0    0    0  0.00000000000E+00  0.00000000000E+00  0.45593999997E+02  0.45594000000E+02  0.51100000000E-03 0. -1.
         11   -1    0    0    0    0 -0.00000000000E+00 -0.00000000000E+00 -0.45593999997E+02  0.45594000000E+02  0.51100000000E-03 0.  1.
         23    2    1    2    0    0 -0.35527136788E-14 -0.71054273576E-14 -0.17763568394E-14  0.91188000000E+02  0.91188000000E+02 0.  0.
    9900012    2    3    3    0    0 -0.20137019486E+02 -0.28562523964E+02  0.11595966696E+02  0.54367030803E+02  0.39999878322E+02 0.  0.
        -12    1    3    3    0    0  0.20137019486E+02  0.28562523964E+02 -0.11595966696E+02  0.36820969197E+02  0.00000000000E+00 0.  1.
         11    1    4    4    0    0  0.59594876722E+00  0.47551189262E+00  0.69454780352E+01  0.69871977138E+01  0.51100000000E-03 0. -1.
        -11    1    4    4    0    0 -0.48544707627E+01  0.12846379723E+01 -0.91792294499E+01  0.10463003138E+02  0.51100000000E-03 0.  1.
         12    1    4    4    0    0 -0.15878497491E+02 -0.30322673829E+02  0.13829718111E+02  0.36916829952E+02  0.00000000000E+00 0. -1.
</event>
<event>
 8    1  0.1269154E-006  0.9118800E+02  0.7816164E-02  0.1184000E+00
        -11   -1    0    0    0    0  0.00000000000E+00  0.00000000000E+00  0.45593999997E+02  0.45594000000E+02  0.51100000000E-03 0. -1.
         11   -1    0    0    0    0 -0.00000000000E+00 -0.00000000000E+00 -0.45593999997E+02  0.45594000000E+02  0.51100000000E-03 0.  1.
         23    2    1    2    0    0  0.17763568394E-14  0.35527136788E-14  0.35527136788E-14  0.91188000000E+02  0.91188000000E+02 0.  0.
    9900012    2    3    3    0    0  0.15980389053E+02  0.14375932662E+02  0.29895479759E+02  0.54367082246E+02  0.39999995597E+02 0.  0.
         12    1    3    3    0    0 -0.15980389053E+02 -0.14375932662E+02 -0.29895479759E+02  0.36820917754E+02  0.00000000000E+00 0. -1.
         11    1    4    4    0    0 -0.10069184280E+02  0.19763988278E+01  0.15297191778E+02  0.18420062458E+02  0.51100000000E-03 0. -1.
        -11    1    4    4    0    0  0.14759798943E+02  0.13162027517E+02  0.14683515329E+02  0.24631204922E+02  0.51100000000E-03 0.  1.
         12    1    4    4    0    0  0.11289774390E+02 -0.76249368367E+00 -0.85227347276E-01  0.11315814867E+02  0.00000000000E+00 0. -1.
</event>
<event>
 8    1  0.1269154E-006  0.9118800E+02  0.7816164E-02  0.1184000E+00
        -11   -1    0    0    0    0  0.00000000000E+00  0.00000000000E+00  0.45593999997E+02  0.45594000000E+02  0.51100000000E-03 0.  1.
         11   -1    0    0    0    0 -0.00000000000E+00 -0.00000000000E+00 -0.45593999997E+02  0.45594000000E+02  0.51100000000E-03 0. -1.
         23    2    1    2    0    0  0.00000000000E+00  0.00000000000E+00  0.00000000000E+00  0.91188000000E+02  0.91188000000E+02 0.  0.
    9900012    2    3    3    0    0  0.26185924052E+02 -0.11937101071E+02 -0.22969174153E+02  0.54367082552E+02  0.39999996294E+02 0.  0.
        -12    1    3    3    0    0 -0.26185924052E+02  0.11937101071E+02  0.22969174153E+02  0.36820917448E+02  0.00000000000E+00 0.  1.
         11    1    4    4    0    0  0.99792330818E+01 -0.62730637950E+01 -0.19460761658E+02  0.22752091483E+02  0.51100000000E-03 0. -1.
        -11    1    4    4    0    0 -0.58584044178E+01 -0.70066881958E+01 -0.25757441548E+01  0.94894172639E+01  0.51100000000E-03 0.  1.
         12    1    4    4    0    0  0.22065095388E+02  0.13426509197E+01 -0.93266833996E+00  0.22125573805E+02  0.00000000000E+00 0. -1.
</event>
<event>
 8    1  0.1269154E-006  0.9118800E+02  0.7816164E-02  0.1184000E+00
        -11   -1    0    0    0    0  0.00000000000E+00  0.00000000000E+00  0.45593999997E+02  0.45594000000E+02  0.51100000000E-03 0.  1.
         11   -1    0    0    0    0 -0.00000000000E+00 -0.00000000000E+00 -0.45593999997E+02  0.45594000000E+02  0.51100000000E-03 0. -1.
         23    2    1    2    0    0 -0.35527136788E-14  0.00000000000E+00  0.44408920985E-15  0.91188000000E+02  0.91188000000E+02 0.  0.
    9900012    2    3    3    0    0  0.25446631644E+02 -0.26456826351E+02  0.28783128995E+01  0.54367090075E+02  0.40000013443E+02 0.  0.
         12    1    3    3    0    0 -0.25446631644E+02  0.26456826351E+02 -0.28783128995E+01  0.36820909925E+02  0.00000000000E+00 0. -1.
         11    1    4    4    0    0 -0.11118634436E+01 -0.65752177245E+01  0.14508583353E+02  0.15967739966E+02  0.51100000000E-03 0. -1.
        -11    1    4    4    0    0  0.22783474792E+02 -0.13338394949E+02 -0.24552386317E+01  0.26514669532E+02  0.51100000000E-03 0.  1.
         12    1    4    4    0    0  0.37750202956E+01 -0.65432136775E+01 -0.91750318220E+01  0.11884680576E+02  0.00000000000E+00 0. -1.
</event>
<event>
 8    1  0.1269154E-006  0.9118800E+02  0.7816164E-02  0.1184000E+00
        -11   -1    0    0    0    0  0.00000000000E+00  0.00000000000E+00  0.45593999997E+02  0.45594000000E+02  0.51100000000E-03 0. -1.
         11   -1    0    0    0    0 -0.00000000000E+00 -0.00000000000E+00 -0.45593999997E+02  0.45594000000E+02  0.51100000000E-03 0.  1.
         23    2    1    2    0    0 -0.22204460493E-15  0.44408920985E-15  0.00000000000E+00  0.91188000000E+02  0.91188000000E+02 0.  0.
    9900012    2    3    3    0    0  0.15558594960E+01 -0.31840119672E+01 -0.36649977152E+02  0.54367089416E+02  0.40000011941E+02 0.  0.
         12    1    3    3    0    0 -0.15558594960E+01  0.31840119672E+01  0.36649977152E+02  0.36820910584E+02  0.00000000000E+00 0. -1.
         11    1    4    4    0    0 -0.96017539982E+01  0.11423238291E+01 -0.28082457862E+02  0.29700555944E+02  0.51100000000E-03 0. -1.
        -11    1    4    4    0    0  0.28060133500E+01 -0.64350266589E+01 -0.13152349318E+02  0.14908640845E+02  0.51100000000E-03 0.  1.
         12    1    4    4    0    0  0.83516001442E+01  0.21086908627E+01  0.45848300274E+01  0.97578926261E+01  0.00000000000E+00 0. -1.
</event>
<event>
 8    1  0.1269154E-006  0.9118800E+02  0.7816164E-02  0.1184000E+00
        -11   -1    0    0    0    0  0.00000000000E+00  0.00000000000E+00  0.45593999997E+02  0.45594000000E+02  0.51100000000E-03 0. -1.
         11   -1    0    0    0    0 -0.00000000000E+00 -0.00000000000E+00 -0.45593999997E+02  0.45594000000E+02  0.51100000000E-03 0.  1.
         23    2    1    2    0    0  0.00000000000E+00  0.35527136788E-14  0.00000000000E+00  0.91188000000E+02  0.91188000000E+02 0.  0.
    9900012    2    3    3    0    0  0.86637082877E+01 -0.31932985521E+02 -0.16155582231E+02  0.54367105893E+02  0.40000049505E+02 0.  0.
         12    1    3    3    0    0 -0.86637082877E+01  0.31932985521E+02  0.16155582231E+02  0.36820894107E+02  0.00000000000E+00 0. -1.
         11    1    4    4    0    0 -0.64683798801E+01 -0.43297795669E-01  0.18812043389E+01  0.67365230644E+01  0.51100000000E-03 0.  1.
        -11    1    4    4    0    0  0.48061295569E+01 -0.22619899164E+02  0.20513711983E+01  0.23215659447E+02  0.51100000000E-03 0. -1.
         12    1    4    4    0    0  0.10325958611E+02 -0.92697885609E+01 -0.20088157768E+02  0.24414923382E+02  0.00000000000E+00 0. -1.
</event>
<event>
 8    1  0.1269154E-006  0.9118800E+02  0.7816164E-02  0.1184000E+00
        -11   -1    0    0    0    0  0.00000000000E+00  0.00000000000E+00  0.45593999997E+02  0.45594000000E+02  0.51100000000E-03 0.  1.
         11   -1    0    0    0    0 -0.00000000000E+00 -0.00000000000E+00 -0.45593999997E+02  0.45594000000E+02  0.51100000000E-03 0. -1.
         23    2    1    2    0    0  0.00000000000E+00 -0.88817841970E-15  0.00000000000E+00  0.91188000000E+02  0.91188000000E+02 0.  0.
    9900012    2    3    3    0    0  0.33978568202E+02  0.74799256014E+01 -0.12053550683E+02  0.54367075676E+02  0.39999980617E+02 0.  0.
         12    1    3    3    0    0 -0.33978568202E+02 -0.74799256014E+01  0.12053550683E+02  0.36820924324E+02  0.00000000000E+00 0. -1.
         11    1    4    4    0    0  0.22301693975E+02 -0.44952477471E+01 -0.17941686127E+02  0.28973727890E+02  0.51100000000E-03 0. -1.
        -11    1    4    4    0    0  0.50307985252E+01 -0.37996263419E+01 -0.19038486660E+01  0.65856460688E+01  0.51100000000E-03 0.  1.
         12    1    4    4    0    0  0.66460757015E+01  0.15774799690E+02  0.77919841106E+01  0.18807701717E+02  0.00000000000E+00 0. -1.
</event>
<event>
 8    1  0.1269154E-006  0.9118800E+02  0.7816164E-02  0.1184000E+00
        -11   -1    0    0    0    0  0.00000000000E+00  0.00000000000E+00  0.45593999997E+02  0.45594000000E+02  0.51100000000E-03 0.  1.
         11   -1    0    0    0    0 -0.00000000000E+00 -0.00000000000E+00 -0.45593999997E+02  0.45594000000E+02  0.51100000000E-03 0. -1.
         23    2    1    2    0    0  0.00000000000E+00  0.35527136788E-14  0.17763568394E-14  0.91188000000E+02  0.91188000000E+02 0.  0.
    9900012    2    3    3    0    0  0.33703489158E+02  0.91557795084E+01  0.11663009538E+02  0.54367091927E+02  0.40000017665E+02 0.  0.
        -12    1    3    3    0    0 -0.33703489158E+02 -0.91557795084E+01 -0.11663009538E+02  0.36820908073E+02  0.00000000000E+00 0.  1.
         11    1    4    4    0    0  0.90963407933E+01 -0.59547837718E+01 -0.70875391195E+00  0.10895191507E+02  0.51100000000E-03 0. -1.
        -11    1    4    4    0    0 -0.38259130823E+01  0.26332158563E+01  0.11507622305E+02  0.12409545037E+02  0.51100000000E-03 0.  1.
         12    1    4    4    0    0  0.28433061447E+02  0.12477347424E+02  0.86414114489E+00  0.31062355383E+02  0.00000000000E+00 0. -1.
</event>
<event>
 8    1  0.1269154E-006  0.9118800E+02  0.7816164E-02  0.1184000E+00
        -11   -1    0    0    0    0  0.00000000000E+00  0.00000000000E+00  0.45593999997E+02  0.45594000000E+02  0.51100000000E-03 0.  1.
         11   -1    0    0    0    0 -0.00000000000E+00 -0.00000000000E+00 -0.45593999997E+02  0.45594000000E+02  0.51100000000E-03 0. -1.
         23    2    1    2    0    0  0.13322676296E-14 -0.17763568394E-14  0.00000000000E+00  0.91188000000E+02  0.91188000000E+02 0.  0.
    9900012    2    3    3    0    0  0.21137758859E+01 -0.14237731929E+02 -0.33891006003E+02  0.54367063743E+02  0.39999953415E+02 0.  0.
        -12    1    3    3    0    0 -0.21137758859E+01  0.14237731929E+02  0.33891006003E+02  0.36820936257E+02  0.00000000000E+00 0.  1.
         11    1    4    4    0    0 -0.46905599432E+01 -0.10703435963E+02 -0.81112662823E+01  0.14225242879E+02  0.51100000000E-03 0. -1.
        -11    1    4    4    0    0 -0.43915995359E+01 -0.14022075150E+02 -0.82653084483E+01  0.16858827421E+02  0.51100000000E-03 0.  1.
         12    1    4    4    0    0  0.11195935365E+02  0.10487779184E+02 -0.17514431272E+02  0.23282993444E+02  0.00000000000E+00 0. -1.
</event>
<event>
 8    1  0.1269154E-006  0.9118800E+02  0.7816164E-02  0.1184000E+00
        -11   -1    0    0    0    0  0.00000000000E+00  0.00000000000E+00  0.45593999997E+02  0.45594000000E+02  0.51100000000E-03 0. -1.
         11   -1    0    0    0    0 -0.00000000000E+00 -0.00000000000E+00 -0.45593999997E+02  0.45594000000E+02  0.51100000000E-03 0.  1.
         23    2    1    2    0    0 -0.71054273576E-14  0.00000000000E+00  0.71054273576E-14  0.91188000000E+02  0.91188000000E+02 0.  0.
    9900012    2    3    3    0    0  0.27366242284E+02  0.53245739994E+01 -0.24052390483E+02  0.54367084843E+02  0.40000001517E+02 0.  0.
         12    1    3    3    0    0 -0.27366242284E+02 -0.53245739994E+01  0.24052390483E+02  0.36820915157E+02  0.00000000000E+00 0. -1.
         11    1    4    4    0    0  0.12334471530E+02  0.51046073510E+01  0.58350396665E+01  0.14568592667E+02  0.51100000000E-03 0. -1.
        -11    1    4    4    0    0  0.15105255858E+01  0.24863085653E+01  0.29932420428E+01  0.41740766662E+01  0.51100000000E-03 0.  1.
        -12    1    4    4    0    0  0.13521245168E+02 -0.22663419169E+01 -0.32880672192E+02  0.35624415510E+02  0.00000000000E+00 0.  1.
</event>
<event>
 8    1  0.1269154E-006  0.9118800E+02  0.7816164E-02  0.1184000E+00
        -11   -1    0    0    0    0  0.00000000000E+00  0.00000000000E+00  0.45593999997E+02  0.45594000000E+02  0.51100000000E-03 0.  1.
         11   -1    0    0    0    0 -0.00000000000E+00 -0.00000000000E+00 -0.45593999997E+02  0.45594000000E+02  0.51100000000E-03 0. -1.
         23    2    1    2    0    0 -0.88817841970E-15  0.00000000000E+00  0.35527136788E-14  0.91188000000E+02  0.91188000000E+02 0.  0.
    9900012    2    3    3    0    0  0.66253082083E+01 -0.33032550355E+02  0.14857169069E+02  0.54367087945E+02  0.40000008589E+02 0.  0.
         12    1    3    3    0    0 -0.66253082083E+01  0.33032550355E+02 -0.14857169069E+02  0.36820912055E+02  0.00000000000E+00 0. -1.
         11    1    4    4    0    0 -0.54277321641E+01 -0.61329194568E+01 -0.23118511890E+01  0.85098550922E+01  0.51100000000E-03 0. -1.
        -11    1    4    4    0    0  0.18395536069E+02 -0.18225608221E+02  0.22091161360E+02  0.34038036853E+02  0.51100000000E-03 0.  1.
        -12    1    4    4    0    0 -0.63424956969E+01 -0.86740226764E+01 -0.49221411021E+01  0.11819196000E+02  0.00000000000E+00 0.  1.
</event>
<event>
 8    1  0.1269154E-006  0.9118800E+02  0.7816164E-02  0.1184000E+00
        -11   -1    0    0    0    0  0.00000000000E+00  0.00000000000E+00  0.45593999997E+02  0.45594000000E+02  0.51100000000E-03 0.  1.
         11   -1    0    0    0    0 -0.00000000000E+00 -0.00000000000E+00 -0.45593999997E+02  0.45594000000E+02  0.51100000000E-03 0. -1.
         23    2    1    2    0    0  0.00000000000E+00  0.00000000000E+00 -0.35527136788E-14  0.91188000000E+02  0.91188000000E+02 0.  0.
    9900012    2    3    3    0    0  0.17821096985E+02 -0.14369223638E+02  0.28839434284E+02  0.54367094857E+02  0.40000024346E+02 0.  0.
         12    1    3    3    0    0 -0.17821096985E+02  0.14369223638E+02 -0.28839434284E+02  0.36820905143E+02  0.00000000000E+00 0. -1.
         11    1    4    4    0    0 -0.60011909195E+01 -0.67743200238E+01  0.59430421539E+01  0.10827070451E+02  0.51100000000E-03 0. -1.
        -11    1    4    4    0    0  0.19751908527E+02 -0.15619721394E+02  0.23603319415E+02  0.34514203953E+02  0.51100000000E-03 0.  1.
        -12    1    4    4    0    0  0.40703793773E+01  0.80248177797E+01 -0.70692728452E+00  0.90258204535E+01  0.00000000000E+00 0.  1.
</event>
<event>
 8    1  0.1269154E-006  0.9118800E+02  0.7816164E-02  0.1184000E+00
        -11   -1    0    0    0    0  0.00000000000E+00  0.00000000000E+00  0.45593999997E+02  0.45594000000E+02  0.51100000000E-03 0.  1.
         11   -1    0    0    0    0 -0.00000000000E+00 -0.00000000000E+00 -0.45593999997E+02  0.45594000000E+02  0.51100000000E-03 0. -1.
         23    2    1    2    0    0  0.00000000000E+00  0.00000000000E+00  0.35527136788E-14  0.91188000000E+02  0.91188000000E+02 0.  0.
    9900012    2    3    3    0    0 -0.15064396248E+02  0.11698072612E+02 -0.31495977475E+02  0.54367115515E+02  0.40000071439E+02 0.  0.
        -12    1    3    3    0    0  0.15064396248E+02 -0.11698072612E+02  0.31495977475E+02  0.36820884485E+02  0.00000000000E+00 0.  1.
         11    1    4    4    0    0 -0.13518318497E+02 -0.10632289325E+01 -0.27023570967E+02  0.30234893399E+02  0.51100000000E-03 0. -1.
        -11    1    4    4    0    0 -0.10264213691E+02  0.36063546929E+01 -0.53977208271E+00  0.10892714585E+02  0.51100000000E-03 0.  1.
         12    1    4    4    0    0  0.87181359404E+01  0.91549468517E+01 -0.39326344249E+01  0.13239507531E+02  0.00000000000E+00 0. -1.
</event>
<event>
 8    1  0.1269154E-006  0.9118800E+02  0.7816164E-02  0.1184000E+00
        -11   -1    0    0    0    0  0.00000000000E+00  0.00000000000E+00  0.45593999997E+02  0.45594000000E+02  0.51100000000E-03 0. -1.
         11   -1    0    0    0    0 -0.00000000000E+00 -0.00000000000E+00 -0.45593999997E+02  0.45594000000E+02  0.51100000000E-03 0.  1.
         23    2    1    2    0    0 -0.17763568394E-14  0.00000000000E+00  0.00000000000E+00  0.91188000000E+02  0.91188000000E+02 0.  0.
    9900012    2    3    3    0    0  0.10946421766E+02 -0.20707644189E+02  0.28410367158E+02  0.54367086929E+02  0.40000006272E+02 0.  0.
        -12    1    3    3    0    0 -0.10946421766E+02  0.20707644189E+02 -0.28410367158E+02  0.36820913071E+02  0.00000000000E+00 0.  1.
         11    1    4    4    0    0 -0.53595629943E+01 -0.11412784458E+02  0.36746630900E+01  0.13133153227E+02  0.51100000000E-03 0. -1.
        -11    1    4    4    0    0  0.13926152213E+02  0.27223749256E+01  0.64158974873E+00  0.14204248603E+02  0.51100000000E-03 0.  1.
        -12    1    4    4    0    0  0.23798325467E+01 -0.12017234656E+02  0.24094114319E+02  0.27029685099E+02  0.00000000000E+00 0.  1.
</event>
<event>
 8    1  0.1269154E-006  0.9118800E+02  0.7816164E-02  0.1184000E+00
        -11   -1    0    0    0    0  0.00000000000E+00  0.00000000000E+00  0.45593999997E+02  0.45594000000E+02  0.51100000000E-03 0.  1.
         11   -1    0    0    0    0 -0.00000000000E+00 -0.00000000000E+00 -0.45593999997E+02  0.45594000000E+02  0.51100000000E-03 0. -1.
         23    2    1    2    0    0  0.88817841970E-15  0.00000000000E+00  0.00000000000E+00  0.91188000000E+02  0.91188000000E+02 0.  0.
    9900012    2    3    3    0    0 -0.77676263527E+01 -0.13051308336E+02 -0.33542613835E+02  0.54367087310E+02  0.40000007141E+02 0.  0.
        -12    1    3    3    0    0  0.77676263527E+01  0.13051308336E+02  0.33542613835E+02  0.36820912690E+02  0.00000000000E+00 0.  1.
         11    1    4    4    0    0 -0.79543763385E+01 -0.17684908485E+02 -0.30069189227E+02  0.35779662269E+02  0.51100000000E-03 0. -1.
        -11    1    4    4    0    0 -0.72343489595E+01 -0.10588020193E+01  0.22161910349E+01  0.76399194727E+01  0.51100000000E-03 0.  1.
         12    1    4    4    0    0  0.74210989453E+01  0.56924021686E+01 -0.56896156430E+01  0.10947505568E+02  0.00000000000E+00 0. -1.
</event>
<event>
 8    1  0.1269154E-006  0.9118800E+02  0.7816164E-02  0.1184000E+00
        -11   -1    0    0    0    0  0.00000000000E+00  0.00000000000E+00  0.45593999997E+02  0.45594000000E+02  0.51100000000E-03 0.  1.
         11   -1    0    0    0    0 -0.00000000000E+00 -0.00000000000E+00 -0.45593999997E+02  0.45594000000E+02  0.51100000000E-03 0. -1.
         23    2    1    2    0    0  0.44408920985E-15  0.00000000000E+00  0.00000000000E+00  0.91188000000E+02  0.91188000000E+02 0.  0.
    9900012    2    3    3    0    0  0.27762519704E+01 -0.34062877111E+02  0.13703755477E+02  0.54367080861E+02  0.39999992439E+02 0.  0.
         12    1    3    3    0    0 -0.27762519704E+01  0.34062877111E+02 -0.13703755477E+02  0.36820919139E+02  0.00000000000E+00 0. -1.
         11    1    4    4    0    0 -0.96380115378E+01 -0.79497422438E+01 -0.68587224474E+01  0.14252429337E+02  0.51100000000E-03 0. -1.
        -11    1    4    4    0    0  0.15160117718E+02 -0.25480475567E+02  0.22029773763E+02  0.36937714286E+02  0.51100000000E-03 0.  1.
        -12    1    4    4    0    0 -0.27458542102E+01 -0.63265929962E+00 -0.14672958390E+01  0.31769372377E+01  0.00000000000E+00 0.  1.
</event>
<event>
 8    1  0.1269154E-006  0.9118800E+02  0.7816164E-02  0.1184000E+00
        -11   -1    0    0    0    0  0.00000000000E+00  0.00000000000E+00  0.45593999997E+02  0.45594000000E+02  0.51100000000E-03 0.  1.
         11   -1    0    0    0    0 -0.00000000000E+00 -0.00000000000E+00 -0.45593999997E+02  0.45594000000E+02  0.51100000000E-03 0. -1.
         23    2    1    2    0    0 -0.17763568394E-14  0.35527136788E-14  0.00000000000E+00  0.91188000000E+02  0.91188000000E+02 0.  0.
    9900012    2    3    3    0    0  0.56911908113E+01  0.24139794448E+02 -0.27214866443E+02  0.54367241122E+02  0.40000357784E+02 0.  0.
        -12    1    3    3    0    0 -0.56911908113E+01 -0.24139794448E+02  0.27214866443E+02  0.36820758878E+02  0.00000000000E+00 0.  1.
         11    1    4    4    0    0 -0.33665933142E+01 -0.14972001527E+01 -0.23105499813E+01  0.43490459089E+01  0.51100000000E-03 0. -1.
        -11    1    4    4    0    0  0.10954527832E+02  0.17042635397E+02 -0.32563184765E+02  0.38351194292E+02  0.51100000000E-03 0.  1.
         12    1    4    4    0    0 -0.18967437061E+01  0.85943592040E+01  0.76588683030E+01  0.11667000921E+02  0.00000000000E+00 0. -1.
</event>
<event>
 8    1  0.1269154E-006  0.9118800E+02  0.7816164E-02  0.1184000E+00
        -11   -1    0    0    0    0  0.00000000000E+00  0.00000000000E+00  0.45593999997E+02  0.45594000000E+02  0.51100000000E-03 0.  1.
         11   -1    0    0    0    0 -0.00000000000E+00 -0.00000000000E+00 -0.45593999997E+02  0.45594000000E+02  0.51100000000E-03 0. -1.
         23    2    1    2    0    0  0.88817841970E-15 -0.53290705182E-14  0.71054273576E-14  0.91188000000E+02  0.91188000000E+02 0.  0.
    9900012    2    3    3    0    0  0.48507589591E+01 -0.14479546245E+02  0.33505104662E+02  0.54367093434E+02  0.40000021101E+02 0.  0.
         12    1    3    3    0    0 -0.48507589591E+01  0.14479546245E+02 -0.33505104662E+02  0.36820906566E+02  0.00000000000E+00 0. -1.
         11    1    4    4    0    0  0.28272683807E+01  0.41193608986E+01  0.19508657445E+01  0.53636236001E+01  0.51100000000E-03 0.  1.
        -11    1    4    4    0    0  0.76865018375E+01 -0.25903606854E+02  0.17533352939E+02  0.32210209936E+02  0.51100000000E-03 0. -1.
         12    1    4    4    0    0 -0.56630112591E+01  0.73046997104E+01  0.14020885979E+02  0.16793259898E+02  0.00000000000E+00 0. -1.
</event>
<event>
 8    1  0.1269154E-006  0.9118800E+02  0.7816164E-02  0.1184000E+00
        -11   -1    0    0    0    0  0.00000000000E+00  0.00000000000E+00  0.45593999997E+02  0.45594000000E+02  0.51100000000E-03 0.  1.
         11   -1    0    0    0    0 -0.00000000000E+00 -0.00000000000E+00 -0.45593999997E+02  0.45594000000E+02  0.51100000000E-03 0. -1.
         23    2    1    2    0    0 -0.35527136788E-14  0.88817841970E-15  0.00000000000E+00  0.91188000000E+02  0.91188000000E+02 0.  0.
    9900012    2    3    3    0    0  0.24484198002E+02 -0.26354862397E+01 -0.27374451282E+02  0.54367050494E+02  0.39999923211E+02 0.  0.
        -12    1    3    3    0    0 -0.24484198002E+02  0.26354862397E+01  0.27374451282E+02  0.36820949506E+02  0.00000000000E+00 0.  1.
         11    1    4    4    0    0  0.63218912441E+01  0.11603797958E+02 -0.13483268919E+02  0.18878902960E+02  0.51100000000E-03 0. -1.
        -11    1    4    4    0    0 -0.41589595566E+01 -0.75409634853E+01 -0.72458083385E+01  0.11254546353E+02  0.51100000000E-03 0.  1.
         12    1    4    4    0    0  0.22321266315E+02 -0.66983207128E+01 -0.66453740246E+01  0.24233601181E+02  0.00000000000E+00 0. -1.
</event>
<event>
 8    1  0.1269154E-006  0.9118800E+02  0.7816164E-02  0.1184000E+00
        -11   -1    0    0    0    0  0.00000000000E+00  0.00000000000E+00  0.45593999997E+02  0.45594000000E+02  0.51100000000E-03 0. -1.
         11   -1    0    0    0    0 -0.00000000000E+00 -0.00000000000E+00 -0.45593999997E+02  0.45594000000E+02  0.51100000000E-03 0.  1.
         23    2    1    2    0    0  0.17763568394E-14  0.00000000000E+00 -0.71054273576E-14  0.91188000000E+02  0.91188000000E+02 0.  0.
    9900012    2    3    3    0    0 -0.11970866271E+02  0.11628717517E+02 -0.32821527454E+02  0.54367063364E+02  0.39999952551E+02 0.  0.
         12    1    3    3    0    0  0.11970866271E+02 -0.11628717517E+02  0.32821527454E+02  0.36820936636E+02  0.00000000000E+00 0. -1.
         11    1    4    4    0    0 -0.22244587398E+02  0.15324786781E+02 -0.14243949557E+02  0.30537859414E+02  0.51100000000E-03 0. -1.
        -11    1    4    4    0    0  0.67094065494E+00  0.29921104800E+01 -0.53638161672E+01  0.61784634517E+01  0.51100000000E-03 0.  1.
         12    1    4    4    0    0  0.96027804718E+01 -0.66881797437E+01 -0.13213761730E+02  0.17650740498E+02  0.00000000000E+00 0. -1.
</event>
<event>
 8    1  0.1269154E-006  0.9118800E+02  0.7816164E-02  0.1184000E+00
        -11   -1    0    0    0    0  0.00000000000E+00  0.00000000000E+00  0.45593999997E+02  0.45594000000E+02  0.51100000000E-03 0. -1.
         11   -1    0    0    0    0 -0.00000000000E+00 -0.00000000000E+00 -0.45593999997E+02  0.45594000000E+02  0.51100000000E-03 0.  1.
         23    2    1    2    0    0 -0.35527136788E-14  0.17763568394E-14  0.00000000000E+00  0.91188000000E+02  0.91188000000E+02 0.  0.
    9900012    2    3    3    0    0  0.26131645046E+02 -0.12934144298E+02 -0.22486104297E+02  0.54367084096E+02  0.39999999814E+02 0.  0.
         12    1    3    3    0    0 -0.26131645046E+02  0.12934144298E+02  0.22486104297E+02  0.36820915904E+02  0.00000000000E+00 0. -1.
         11    1    4    4    0    0  0.14705791087E+02 -0.56679363195E+01 -0.33232838925E+00  0.15763763384E+02  0.51100000000E-03 0. -1.
        -11    1    4    4    0    0  0.19790432094E+02 -0.76440145447E+01 -0.21499570328E+02  0.30204696413E+02  0.51100000000E-03 0.  1.
         12    1    4    4    0    0 -0.83645781349E+01  0.37780656617E+00 -0.65420557927E+00  0.83986242991E+01  0.00000000000E+00 0. -1.
</event>
<event>
 8    1  0.1269154E-006  0.9118800E+02  0.7816164E-02  0.1184000E+00
        -11   -1    0    0    0    0  0.00000000000E+00  0.00000000000E+00  0.45593999997E+02  0.45594000000E+02  0.51100000000E-03 0.  1.
         11   -1    0    0    0    0 -0.00000000000E+00 -0.00000000000E+00 -0.45593999997E+02  0.45594000000E+02  0.51100000000E-03 0. -1.
         23    2    1    2    0    0  0.66613381478E-15  0.00000000000E+00  0.53290705182E-14  0.91188000000E+02  0.91188000000E+02 0.  0.
    9900012    2    3    3    0    0 -0.13789964874E+01 -0.35331089129E+02  0.10275839072E+02  0.54367077157E+02  0.39999983995E+02 0.  0.
         12    1    3    3    0    0  0.13789964874E+01  0.35331089129E+02 -0.10275839072E+02  0.36820922843E+02  0.00000000000E+00 0. -1.
         11    1    4    4    0    0 -0.14914206373E+02 -0.78728552838E+01  0.38951434856E+01  0.17308597433E+02  0.51100000000E-03 0. -1.
        -11    1    4    4    0    0 -0.23755122421E+00 -0.77946087770E+01 -0.61926708104E+01  0.99579881802E+01  0.51100000000E-03 0.  1.
        -12    1    4    4    0    0  0.13772761110E+02 -0.19663625068E+02  0.12573366397E+02  0.27100491544E+02  0.00000000000E+00 0.  1.
</event>
<event>
 8    1  0.1269154E-006  0.9118800E+02  0.7816164E-02  0.1184000E+00
        -11   -1    0    0    0    0  0.00000000000E+00  0.00000000000E+00  0.45593999997E+02  0.45594000000E+02  0.51100000000E-03 0. -1.
         11   -1    0    0    0    0 -0.00000000000E+00 -0.00000000000E+00 -0.45593999997E+02  0.45594000000E+02  0.51100000000E-03 0.  1.
         23    2    1    2    0    0 -0.17763568394E-14 -0.66613381478E-15 -0.71054273576E-14  0.91188000000E+02  0.91188000000E+02 0.  0.
    9900012    2    3    3    0    0 -0.89869741747E+01  0.25326630821E+00 -0.35706458073E+02  0.54367068497E+02  0.39999964253E+02 0.  0.
         12    1    3    3    0    0  0.89869741747E+01 -0.25326630821E+00  0.35706458073E+02  0.36820931503E+02  0.00000000000E+00 0. -1.
         11    1    4    4    0    0 -0.13952518021E+01 -0.29561200964E+01 -0.20696261052E+01  0.38689437954E+01  0.51100000000E-03 0. -1.
        -11    1    4    4    0    0 -0.30169245745E+01 -0.14512111431E+02 -0.27417816733E+02  0.31167930421E+02  0.51100000000E-03 0.  1.
         12    1    4    4    0    0 -0.45747977981E+01  0.17721497836E+02 -0.62190152349E+01  0.19330194281E+02  0.00000000000E+00 0. -1.
</event>
<event>
 8    1  0.1269154E-006  0.9118800E+02  0.7816164E-02  0.1184000E+00
        -11   -1    0    0    0    0  0.00000000000E+00  0.00000000000E+00  0.45593999997E+02  0.45594000000E+02  0.51100000000E-03 0.  1.
         11   -1    0    0    0    0 -0.00000000000E+00 -0.00000000000E+00 -0.45593999997E+02  0.45594000000E+02  0.51100000000E-03 0. -1.
         23    2    1    2    0    0 -0.35527136788E-14  0.00000000000E+00 -0.44408920985E-15  0.91188000000E+02  0.91188000000E+02 0.  0.
    9900012    2    3    3    0    0 -0.24283457427E+02 -0.27577242855E+02  0.23642258733E+01  0.54367079424E+02  0.39999989162E+02 0.  0.
        -12    1    3    3    0    0  0.24283457427E+02  0.27577242855E+02 -0.23642258733E+01  0.36820920576E+02  0.00000000000E+00 0.  1.
         11    1    4    4    0    0  0.20213181747E+01 -0.50818885175E+01 -0.63336159246E+01  0.83681544565E+01  0.51100000000E-03 0. -1.
        -11    1    4    4    0    0 -0.13536756011E+01  0.57903975926E+01  0.55762817273E+01  0.81520586404E+01  0.51100000000E-03 0.  1.
        -12    1    4    4    0    0 -0.24951100000E+02 -0.28285751930E+02  0.31215600705E+01  0.37846866327E+02  0.00000000000E+00 0.  1.
</event>
<event>
 8    1  0.1269154E-006  0.9118800E+02  0.7816164E-02  0.1184000E+00
        -11   -1    0    0    0    0  0.00000000000E+00  0.00000000000E+00  0.45593999997E+02  0.45594000000E+02  0.51100000000E-03 0.  1.
         11   -1    0    0    0    0 -0.00000000000E+00 -0.00000000000E+00 -0.45593999997E+02  0.45594000000E+02  0.51100000000E-03 0. -1.
         23    2    1    2    0    0 -0.17763568394E-14  0.31918911958E-15  0.00000000000E+00  0.91188000000E+02  0.91188000000E+02 0.  0.
    9900012    2    3    3    0    0  0.14508866441E+02  0.56296253014E-01  0.33841834053E+02  0.54367080582E+02  0.39999991804E+02 0.  0.
         12    1    3    3    0    0 -0.14508866441E+02 -0.56296253014E-01 -0.33841834053E+02  0.36820919418E+02  0.00000000000E+00 0. -1.
         11    1    4    4    0    0  0.28167927371E+01 -0.14020253615E+02 -0.44369007761E+00  0.14307295128E+02  0.51100000000E-03 0. -1.
        -11    1    4    4    0    0  0.12600280860E+01  0.41209281541E+00  0.11190361678E+02  0.11268615088E+02  0.51100000000E-03 0.  1.
         12    1    4    4    0    0  0.10432045618E+02  0.13664457052E+02  0.23095162453E+02  0.28791170366E+02  0.00000000000E+00 0. -1.
</event>
<event>
 8    1  0.1269154E-006  0.9118800E+02  0.7816164E-02  0.1184000E+00
        -11   -1    0    0    0    0  0.00000000000E+00  0.00000000000E+00  0.45593999997E+02  0.45594000000E+02  0.51100000000E-03 0.  1.
         11   -1    0    0    0    0 -0.00000000000E+00 -0.00000000000E+00 -0.45593999997E+02  0.45594000000E+02  0.51100000000E-03 0. -1.
         23    2    1    2    0    0  0.00000000000E+00 -0.17763568394E-14  0.35527136788E-14  0.91188000000E+02  0.91188000000E+02 0.  0.
    9900012    2    3    3    0    0  0.27223528885E+02  0.11809114697E+02 -0.21799252113E+02  0.54367039833E+02  0.39999898908E+02 0.  0.
         12    1    3    3    0    0 -0.27223528885E+02 -0.11809114697E+02  0.21799252113E+02  0.36820960167E+02  0.00000000000E+00 0. -1.
         11    1    4    4    0    0  0.38483592396E+01  0.12952302560E+02 -0.18043340637E+02  0.22541831161E+02  0.51100000000E-03 0. -1.
        -11    1    4    4    0    0  0.75051525207E+01  0.95935732919E+01  0.52594509450E+00  0.12191824366E+02  0.51100000000E-03 0.  1.
         12    1    4    4    0    0  0.15870017125E+02 -0.10736761155E+02 -0.42818565705E+01  0.19633384307E+02  0.00000000000E+00 0. -1.
</event>
<event>
 8    1  0.1269154E-006  0.9118800E+02  0.7816164E-02  0.1184000E+00
        -11   -1    0    0    0    0  0.00000000000E+00  0.00000000000E+00  0.45593999997E+02  0.45594000000E+02  0.51100000000E-03 0.  1.
         11   -1    0    0    0    0 -0.00000000000E+00 -0.00000000000E+00 -0.45593999997E+02  0.45594000000E+02  0.51100000000E-03 0. -1.
         23    2    1    2    0    0 -0.35527136788E-14  0.00000000000E+00 -0.17763568394E-14  0.91188000000E+02  0.91188000000E+02 0.  0.
    9900012    2    3    3    0    0  0.28915718321E+02  0.20314203806E+02  0.10343859124E+02  0.54367067585E+02  0.39999962174E+02 0.  0.
        -12    1    3    3    0    0 -0.28915718321E+02 -0.20314203806E+02 -0.10343859124E+02  0.36820932415E+02  0.00000000000E+00 0.  1.
         11    1    4    4    0    0 -0.57972729367E+01  0.14021327411E+01  0.28585677660E+01  0.66140577303E+01  0.51100000000E-03 0. -1.
        -11    1    4    4    0    0  0.50980796317E+00  0.72167091526E+01  0.90322212967E+01  0.11572459417E+02  0.51100000000E-03 0.  1.
         12    1    4    4    0    0  0.34203183295E+02  0.11695361912E+02 -0.15469299383E+01  0.36180550438E+02  0.00000000000E+00 0. -1.
</event>
<event>
 8    1  0.1269154E-006  0.9118800E+02  0.7816164E-02  0.1184000E+00
        -11   -1    0    0    0    0  0.00000000000E+00  0.00000000000E+00  0.45593999997E+02  0.45594000000E+02  0.51100000000E-03 0.  1.
         11   -1    0    0    0    0 -0.00000000000E+00 -0.00000000000E+00 -0.45593999997E+02  0.45594000000E+02  0.51100000000E-03 0. -1.
         23    2    1    2    0    0  0.00000000000E+00  0.00000000000E+00 -0.17763568394E-14  0.91188000000E+02  0.91188000000E+02 0.  0.
    9900012    2    3    3    0    0 -0.21900259346E+02 -0.28639839287E+02  0.74778406034E+01  0.54367084016E+02  0.39999999631E+02 0.  0.
        -12    1    3    3    0    0  0.21900259346E+02  0.28639839287E+02 -0.74778406034E+01  0.36820915984E+02  0.00000000000E+00 0.  1.
         11    1    4    4    0    0 -0.50558638096E+01 -0.14239577633E+02  0.15695699857E+02  0.21787205518E+02  0.51100000000E-03 0. -1.
        -11    1    4    4    0    0 -0.39758185761E+01 -0.11617708969E+01  0.73455299128E+01  0.84328912555E+01  0.51100000000E-03 0.  1.
         12    1    4    4    0    0 -0.12868576961E+02 -0.13238490757E+02 -0.15563389167E+02  0.24146987242E+02  0.00000000000E+00 0. -1.
</event>
<event>
 8    1  0.1269154E-006  0.9118800E+02  0.7816164E-02  0.1184000E+00
        -11   -1    0    0    0    0  0.00000000000E+00  0.00000000000E+00  0.45593999997E+02  0.45594000000E+02  0.51100000000E-03 0.  1.
         11   -1    0    0    0    0 -0.00000000000E+00 -0.00000000000E+00 -0.45593999997E+02  0.45594000000E+02  0.51100000000E-03 0. -1.
         23    2    1    2    0    0  0.00000000000E+00  0.00000000000E+00 -0.17763568394E-14  0.91188000000E+02  0.91188000000E+02 0.  0.
    9900012    2    3    3    0    0 -0.13376119440E+02 -0.34035996349E+02 -0.42907130719E+01  0.54367084240E+02  0.40000000141E+02 0.  0.
         12    1    3    3    0    0  0.13376119440E+02  0.34035996349E+02  0.42907130719E+01  0.36820915760E+02  0.00000000000E+00 0. -1.
         11    1    4    4    0    0  0.12291369747E+01 -0.13774490498E+02  0.45092019540E+01  0.14545799005E+02  0.51100000000E-03 0. -1.
        -11    1    4    4    0    0 -0.23628839562E+02 -0.17481877115E+02 -0.64883068496E+01  0.30100435421E+02  0.51100000000E-03 0.  1.
         12    1    4    4    0    0  0.90235831476E+01 -0.27796287367E+01 -0.23116081762E+01  0.97208498135E+01  0.00000000000E+00 0. -1.
</event>
<event>
 8    1  0.1269154E-006  0.9118800E+02  0.7816164E-02  0.1184000E+00
        -11   -1    0    0    0    0  0.00000000000E+00  0.00000000000E+00  0.45593999997E+02  0.45594000000E+02  0.51100000000E-03 0.  1.
         11   -1    0    0    0    0 -0.00000000000E+00 -0.00000000000E+00 -0.45593999997E+02  0.45594000000E+02  0.51100000000E-03 0. -1.
         23    2    1    2    0    0  0.00000000000E+00  0.00000000000E+00 -0.35527136788E-14  0.91188000000E+02  0.91188000000E+02 0.  0.
    9900012    2    3    3    0    0 -0.30617681114E+02 -0.34660095545E+01  0.20157516882E+02  0.54367067015E+02  0.39999960874E+02 0.  0.
         12    1    3    3    0    0  0.30617681114E+02  0.34660095545E+01 -0.20157516882E+02  0.36820932985E+02  0.00000000000E+00 0. -1.
         11    1    4    4    0    0  0.39463051884E+01  0.90566981819E+00  0.96600477944E+01  0.10474258261E+02  0.51100000000E-03 0. -1.
        -11    1    4    4    0    0 -0.55292360275E+01  0.85324283684E+01 -0.73197233468E+00  0.10193653352E+02  0.51100000000E-03 0.  1.
        -12    1    4    4    0    0 -0.29034750275E+02 -0.12904107741E+02  0.11229441422E+02  0.33699155402E+02  0.00000000000E+00 0.  1.
</event>
<event>
 8    1  0.1269154E-006  0.9118800E+02  0.7816164E-02  0.1184000E+00
        -11   -1    0    0    0    0  0.00000000000E+00  0.00000000000E+00  0.45593999997E+02  0.45594000000E+02  0.51100000000E-03 0.  1.
         11   -1    0    0    0    0 -0.00000000000E+00 -0.00000000000E+00 -0.45593999997E+02  0.45594000000E+02  0.51100000000E-03 0. -1.
         23    2    1    2    0    0  0.88817841970E-15  0.00000000000E+00  0.71054273576E-14  0.91188000000E+02  0.91188000000E+02 0.  0.
    9900012    2    3    3    0    0 -0.79762853888E+01 -0.77495177799E+01 -0.35101304936E+02  0.54367112414E+02  0.40000064370E+02 0.  0.
        -12    1    3    3    0    0  0.79762853888E+01  0.77495177799E+01  0.35101304936E+02  0.36820887586E+02  0.00000000000E+00 0.  1.
         11    1    4    4    0    0 -0.50347081449E+01  0.16038233184E+01 -0.61960656011E+01  0.81432035794E+01  0.51100000000E-03 0. -1.
        -11    1    4    4    0    0  0.90659187708E+01 -0.13135957958E+02 -0.14579149652E+01  0.16027157918E+02  0.51100000000E-03 0.  1.
        -12    1    4    4    0    0 -0.12007496015E+02  0.37826168594E+01 -0.27447324370E+02  0.30196750916E+02  0.00000000000E+00 0.  1.
</event>
<event>
 8    1  0.1269154E-006  0.9118800E+02  0.7816164E-02  0.1184000E+00
        -11   -1    0    0    0    0  0.00000000000E+00  0.00000000000E+00  0.45593999997E+02  0.45594000000E+02  0.51100000000E-03 0.  1.
         11   -1    0    0    0    0 -0.00000000000E+00 -0.00000000000E+00 -0.45593999997E+02  0.45594000000E+02  0.51100000000E-03 0. -1.
         23    2    1    2    0    0  0.00000000000E+00  0.17763568394E-14  0.00000000000E+00  0.91188000000E+02  0.91188000000E+02 0.  0.
    9900012    2    3    3    0    0 -0.19336768992E+02 -0.68785500619E+01 -0.30570496315E+02  0.54367077538E+02  0.39999984863E+02 0.  0.
        -12    1    3    3    0    0  0.19336768992E+02  0.68785500619E+01  0.30570496315E+02  0.36820922462E+02  0.00000000000E+00 0.  1.
         11    1    4    4    0    0 -0.38662624465E+01 -0.17935250287E+01 -0.18319452599E+02  0.18808696423E+02  0.51100000000E-03 0. -1.
        -11    1    4    4    0    0 -0.17604413980E+01  0.99855129468E+01 -0.11271714727E+02  0.15161173301E+02  0.51100000000E-03 0.  1.
         12    1    4    4    0    0 -0.13710065147E+02 -0.15070537980E+02 -0.97932898973E+00  0.20397207814E+02  0.00000000000E+00 0. -1.
</event>
<event>
 8    1  0.1269154E-006  0.9118800E+02  0.7816164E-02  0.1184000E+00
        -11   -1    0    0    0    0  0.00000000000E+00  0.00000000000E+00  0.45593999997E+02  0.45594000000E+02  0.51100000000E-03 0. -1.
         11   -1    0    0    0    0 -0.00000000000E+00 -0.00000000000E+00 -0.45593999997E+02  0.45594000000E+02  0.51100000000E-03 0.  1.
         23    2    1    2    0    0  0.00000000000E+00  0.44408920985E-14  0.00000000000E+00  0.91188000000E+02  0.91188000000E+02 0.  0.
    9900012    2    3    3    0    0 -0.23892076449E+02  0.70495272948E+01 -0.27115546817E+02  0.54367081607E+02  0.39999994139E+02 0.  0.
         12    1    3    3    0    0  0.23892076449E+02 -0.70495272948E+01  0.27115546817E+02  0.36820918393E+02  0.00000000000E+00 0. -1.
         11    1    4    4    0    0 -0.12113542656E+02 -0.74064597945E+01  0.91295577139E+00  0.14227686069E+02  0.51100000000E-03 0. -1.
        -11    1    4    4    0    0 -0.17863678848E+02  0.12664593187E+02 -0.18361750643E+02  0.28577208218E+02  0.51100000000E-03 0.  1.
         12    1    4    4    0    0  0.60851450553E+01  0.17913939026E+01 -0.96667519454E+01  0.11562187320E+02  0.00000000000E+00 0. -1.
</event>
<event>
 8    1  0.1269154E-006  0.9118800E+02  0.7816164E-02  0.1184000E+00
        -11   -1    0    0    0    0  0.00000000000E+00  0.00000000000E+00  0.45593999997E+02  0.45594000000E+02  0.51100000000E-03 0.  1.
         11   -1    0    0    0    0 -0.00000000000E+00 -0.00000000000E+00 -0.45593999997E+02  0.45594000000E+02  0.51100000000E-03 0. -1.
         23    2    1    2    0    0 -0.13322676296E-14  0.71054273576E-14  0.00000000000E+00  0.91188000000E+02  0.91188000000E+02 0.  0.
    9900012    2    3    3    0    0  0.27572381253E+01  0.30022250216E+02  0.21138692375E+02  0.54367052355E+02  0.39999927454E+02 0.  0.
         12    1    3    3    0    0 -0.27572381253E+01 -0.30022250216E+02 -0.21138692375E+02  0.36820947645E+02  0.00000000000E+00 0. -1.
         11    1    4    4    0    0  0.15454672796E+02  0.11340484639E+02  0.69369281431E+01  0.20385643856E+02  0.51100000000E-03 0. -1.
        -11    1    4    4    0    0 -0.96884382669E+01 -0.33935007221E+00  0.10645445873E+02  0.14398142680E+02  0.51100000000E-03 0.  1.
        -12    1    4    4    0    0 -0.30089964041E+01  0.19021115649E+02  0.35563183588E+01  0.19583265820E+02  0.00000000000E+00 0.  1.
</event>
<event>
 8    1  0.1269154E-006  0.9118800E+02  0.7816164E-02  0.1184000E+00
        -11   -1    0    0    0    0  0.00000000000E+00  0.00000000000E+00  0.45593999997E+02  0.45594000000E+02  0.51100000000E-03 0.  1.
         11   -1    0    0    0    0 -0.00000000000E+00 -0.00000000000E+00 -0.45593999997E+02  0.45594000000E+02  0.51100000000E-03 0. -1.
         23    2    1    2    0    0  0.00000000000E+00 -0.11102230246E-15  0.00000000000E+00  0.91188000000E+02  0.91188000000E+02 0.  0.
    9900012    2    3    3    0    0  0.13882515531E+02 -0.70534765099E+00 -0.34096315999E+02  0.54367075005E+02  0.39999979088E+02 0.  0.
        -12    1    3    3    0    0 -0.13882515531E+02  0.70534765099E+00  0.34096315999E+02  0.36820924995E+02  0.00000000000E+00 0.  1.
         11    1    4    4    0    0  0.28793662340E+01 -0.12901517357E+02 -0.17298730351E+02  0.21771218892E+02  0.51100000000E-03 0. -1.
        -11    1    4    4    0    0  0.79752877517E+01  0.52552748493E+01  0.40809968323E+01  0.10386417278E+02  0.51100000000E-03 0.  1.
         12    1    4    4    0    0  0.30278615454E+01  0.69408948568E+01 -0.20878582481E+02  0.22209438835E+02  0.00000000000E+00 0. -1.
</event>
<event>
 8    1  0.1269154E-006  0.9118800E+02  0.7816164E-02  0.1184000E+00
        -11   -1    0    0    0    0  0.00000000000E+00  0.00000000000E+00  0.45593999997E+02  0.45594000000E+02  0.51100000000E-03 0.  1.
         11   -1    0    0    0    0 -0.00000000000E+00 -0.00000000000E+00 -0.45593999997E+02  0.45594000000E+02  0.51100000000E-03 0. -1.
         23    2    1    2    0    0  0.00000000000E+00 -0.44408920985E-15  0.00000000000E+00  0.91188000000E+02  0.91188000000E+02 0.  0.
    9900012    2    3    3    0    0 -0.23360189936E+02  0.88959920717E+00  0.28448032817E+02  0.54367076169E+02  0.39999981743E+02 0.  0.
         12    1    3    3    0    0  0.23360189936E+02 -0.88959920717E+00 -0.28448032817E+02  0.36820923831E+02  0.00000000000E+00 0. -1.
         11    1    4    4    0    0 -0.24019482155E+01 -0.10048282494E+02 -0.16698046780E+01  0.10465447159E+02  0.51100000000E-03 0. -1.
        -11    1    4    4    0    0 -0.90639353669E+01  0.15766029356E+01  0.26896346443E+02  0.28426291587E+02  0.51100000000E-03 0.  1.
        -12    1    4    4    0    0 -0.11894306354E+02  0.93612787656E+01  0.32214910516E+01  0.15475337423E+02  0.00000000000E+00 0.  1.
</event>
<event>
 8    1  0.1269154E-006  0.9118800E+02  0.7816164E-02  0.1184000E+00
        -11   -1    0    0    0    0  0.00000000000E+00  0.00000000000E+00  0.45593999997E+02  0.45594000000E+02  0.51100000000E-03 0. -1.
         11   -1    0    0    0    0 -0.00000000000E+00 -0.00000000000E+00 -0.45593999997E+02  0.45594000000E+02  0.51100000000E-03 0.  1.
         23    2    1    2    0    0 -0.35527136788E-14  0.00000000000E+00  0.00000000000E+00  0.91188000000E+02  0.91188000000E+02 0.  0.
    9900012    2    3    3    0    0 -0.25520945798E+02 -0.25772081498E+02  0.63457337289E+01  0.54366984320E+02  0.39999772353E+02 0.  0.
        -12    1    3    3    0    0  0.25520945798E+02  0.25772081498E+02 -0.63457337289E+01  0.36821015680E+02  0.00000000000E+00 0.  1.
         11    1    4    4    0    0 -0.13828228593E+02 -0.15265872737E+02  0.61261259702E+01  0.21489443830E+02  0.51100000000E-03 0. -1.
        -11    1    4    4    0    0 -0.17282462578E+01  0.29041078412E+01  0.11979222031E+02  0.12446784252E+02  0.51100000000E-03 0.  1.
        -12    1    4    4    0    0 -0.99644709471E+01 -0.13410316602E+02 -0.11759614273E+02  0.20430756238E+02  0.00000000000E+00 0.  1.
</event>
<event>
 8    1  0.1269154E-006  0.9118800E+02  0.7816164E-02  0.1184000E+00
        -11   -1    0    0    0    0  0.00000000000E+00  0.00000000000E+00  0.45593999997E+02  0.45594000000E+02  0.51100000000E-03 0.  1.
         11   -1    0    0    0    0 -0.00000000000E+00 -0.00000000000E+00 -0.45593999997E+02  0.45594000000E+02  0.51100000000E-03 0. -1.
         23    2    1    2    0    0  0.00000000000E+00  0.00000000000E+00  0.35527136788E-14  0.91188000000E+02  0.91188000000E+02 0.  0.
    9900012    2    3    3    0    0 -0.92140334523E+01 -0.25516843314E+02  0.24895216538E+02  0.54367088664E+02  0.40000010226E+02 0.  0.
         12    1    3    3    0    0  0.92140334523E+01  0.25516843314E+02 -0.24895216538E+02  0.36820911336E+02  0.00000000000E+00 0. -1.
         11    1    4    4    0    0 -0.96551023659E+01  0.50215514584E+01  0.28237748978E+01  0.11243250672E+02  0.51100000000E-03 0. -1.
        -11    1    4    4    0    0 -0.70080532954E+01 -0.17632971435E+02  0.34688019775E+01  0.19289040412E+02  0.51100000000E-03 0.  1.
         12    1    4    4    0    0  0.74491222091E+01 -0.12905423338E+02  0.18602639663E+02  0.23834797579E+02  0.00000000000E+00 0. -1.
</event>
<event>
 8    1  0.1269154E-006  0.9118800E+02  0.7816164E-02  0.1184000E+00
        -11   -1    0    0    0    0  0.00000000000E+00  0.00000000000E+00  0.45593999997E+02  0.45594000000E+02  0.51100000000E-03 0. -1.
         11   -1    0    0    0    0 -0.00000000000E+00 -0.00000000000E+00 -0.45593999997E+02  0.45594000000E+02  0.51100000000E-03 0.  1.
         23    2    1    2    0    0 -0.88817841970E-15  0.35527136788E-14  0.00000000000E+00  0.91188000000E+02  0.91188000000E+02 0.  0.
    9900012    2    3    3    0    0 -0.59233163822E+01 -0.29964315491E+02 -0.20562930966E+02  0.54367081900E+02  0.39999994807E+02 0.  0.
         12    1    3    3    0    0  0.59233163822E+01  0.29964315491E+02  0.20562930966E+02  0.36820918100E+02  0.00000000000E+00 0. -1.
         11    1    4    4    0    0 -0.11387194270E+02 -0.12070620844E+01 -0.10087601891E+02  0.15260566975E+02  0.51100000000E-03 0. -1.
        -11    1    4    4    0    0  0.72862684612E+00 -0.27837764563E+02 -0.15722374088E+02  0.31979135075E+02  0.51100000000E-03 0.  1.
         12    1    4    4    0    0  0.47352510415E+01 -0.91948884386E+00  0.52470450127E+01  0.71273798499E+01  0.00000000000E+00 0. -1.
</event>
<event>
 8    1  0.1269154E-006  0.9118800E+02  0.7816164E-02  0.1184000E+00
        -11   -1    0    0    0    0  0.00000000000E+00  0.00000000000E+00  0.45593999997E+02  0.45594000000E+02  0.51100000000E-03 0. -1.
         11   -1    0    0    0    0 -0.00000000000E+00 -0.00000000000E+00 -0.45593999997E+02  0.45594000000E+02  0.51100000000E-03 0.  1.
         23    2    1    2    0    0 -0.71054273576E-14  0.35527136788E-14 -0.88817841970E-15  0.91188000000E+02  0.91188000000E+02 0.  0.
    9900012    2    3    3    0    0 -0.33445151317E+02 -0.14453671550E+02  0.53193059764E+01  0.54367057807E+02  0.39999939883E+02 0.  0.
        -12    1    3    3    0    0  0.33445151317E+02  0.14453671550E+02 -0.53193059764E+01  0.36820942193E+02  0.00000000000E+00 0.  1.
         11    1    4    4    0    0  0.57532776735E+01 -0.32367301502E+01 -0.26455260981E+01  0.71116407847E+01  0.51100000000E-03 0. -1.
        -11    1    4    4    0    0  0.55516789886E+00 -0.48364586588E+01  0.48514359642E+01  0.68728432930E+01  0.51100000000E-03 0.  1.
         12    1    4    4    0    0 -0.39753596890E+02 -0.63804827412E+01  0.31133961103E+01  0.40382573729E+02  0.00000000000E+00 0. -1.
</event>
<event>
 8    1  0.1269154E-006  0.9118800E+02  0.7816164E-02  0.1184000E+00
        -11   -1    0    0    0    0  0.00000000000E+00  0.00000000000E+00  0.45593999997E+02  0.45594000000E+02  0.51100000000E-03 0. -1.
         11   -1    0    0    0    0 -0.00000000000E+00 -0.00000000000E+00 -0.45593999997E+02  0.45594000000E+02  0.51100000000E-03 0.  1.
         23    2    1    2    0    0  0.17763568394E-14  0.00000000000E+00 -0.35527136788E-14  0.91188000000E+02  0.91188000000E+02 0.  0.
    9900012    2    3    3    0    0 -0.10290098830E+02  0.27861183974E+02 -0.21763475176E+02  0.54367074453E+02  0.39999977832E+02 0.  0.
         12    1    3    3    0    0  0.10290098830E+02 -0.27861183974E+02  0.21763475176E+02  0.36820925547E+02  0.00000000000E+00 0. -1.
         11    1    4    4    0    0 -0.17648812330E+02  0.11481256457E+02  0.39498701353E+00  0.21058391237E+02  0.51100000000E-03 0. -1.
        -11    1    4    4    0    0 -0.57830978769E+00  0.61744315583E+01 -0.19018806690E+02  0.20004325919E+02  0.51100000000E-03 0.  1.
         12    1    4    4    0    0  0.79370232884E+01  0.10205495959E+02 -0.31396554996E+01  0.13304357298E+02  0.00000000000E+00 0. -1.
</event>
<event>
 8    1  0.1269154E-006  0.9118800E+02  0.7816164E-02  0.1184000E+00
        -11   -1    0    0    0    0  0.00000000000E+00  0.00000000000E+00  0.45593999997E+02  0.45594000000E+02  0.51100000000E-03 0.  1.
         11   -1    0    0    0    0 -0.00000000000E+00 -0.00000000000E+00 -0.45593999997E+02  0.45594000000E+02  0.51100000000E-03 0. -1.
         23    2    1    2    0    0  0.00000000000E+00  0.00000000000E+00  0.00000000000E+00  0.91188000000E+02  0.91188000000E+02 0.  0.
    9900012    2    3    3    0    0 -0.57068071556E+01 -0.11406215891E+02 -0.34541432702E+02  0.54367082277E+02  0.39999995667E+02 0.  0.
        -12    1    3    3    0    0  0.57068071556E+01  0.11406215891E+02  0.34541432702E+02  0.36820917723E+02  0.00000000000E+00 0.  1.
         11    1    4    4    0    0 -0.45059564445E+01 -0.64541417567E+01 -0.19841021626E+02  0.21345391276E+02  0.51100000000E-03 0. -1.
        -11    1    4    4    0    0 -0.70720656723E+01 -0.15753413795E+02 -0.82282920882E+01  0.19128223911E+02  0.51100000000E-03 0.  1.
        -12    1    4    4    0    0  0.58712149612E+01  0.10801339660E+02 -0.64721189873E+01  0.13893467089E+02  0.00000000000E+00 0.  1.
</event>
<event>
 8    1  0.1269154E-006  0.9118800E+02  0.7816164E-02  0.1184000E+00
        -11   -1    0    0    0    0  0.00000000000E+00  0.00000000000E+00  0.45593999997E+02  0.45594000000E+02  0.51100000000E-03 0.  1.
         11   -1    0    0    0    0 -0.00000000000E+00 -0.00000000000E+00 -0.45593999997E+02  0.45594000000E+02  0.51100000000E-03 0. -1.
         23    2    1    2    0    0  0.00000000000E+00  0.00000000000E+00  0.35527136788E-14  0.91188000000E+02  0.91188000000E+02 0.  0.
    9900012    2    3    3    0    0 -0.26699571836E+02  0.12910109621E+02  0.21822991089E+02  0.54367068361E+02  0.39999963943E+02 0.  0.
        -12    1    3    3    0    0  0.26699571836E+02 -0.12910109621E+02 -0.21822991089E+02  0.36820931639E+02  0.00000000000E+00 0.  1.
         11    1    4    4    0    0 -0.20565569569E+02  0.76908909799E+01 -0.22435407363E+01  0.22070929546E+02  0.51100000000E-03 0. -1.
        -11    1    4    4    0    0 -0.45493407713E+01  0.35966176074E+01  0.27542085393E+02  0.28146023302E+02  0.51100000000E-03 0.  1.
        -12    1    4    4    0    0 -0.15846614965E+01  0.16226010338E+01 -0.34755535673E+01  0.41501155131E+01  0.00000000000E+00 0.  1.
</event>
<event>
 8    1  0.1269154E-006  0.9118800E+02  0.7816164E-02  0.1184000E+00
        -11   -1    0    0    0    0  0.00000000000E+00  0.00000000000E+00  0.45593999997E+02  0.45594000000E+02  0.51100000000E-03 0. -1.
         11   -1    0    0    0    0 -0.00000000000E+00 -0.00000000000E+00 -0.45593999997E+02  0.45594000000E+02  0.51100000000E-03 0.  1.
         23    2    1    2    0    0  0.00000000000E+00  0.35527136788E-14  0.00000000000E+00  0.91188000000E+02  0.91188000000E+02 0.  0.
    9900012    2    3    3    0    0  0.10158147428E+02 -0.17426145763E+02  0.30804514736E+02  0.54367127612E+02  0.40000099017E+02 0.  0.
        -12    1    3    3    0    0 -0.10158147428E+02  0.17426145763E+02 -0.30804514736E+02  0.36820872388E+02  0.00000000000E+00 0.  1.
         11    1    4    4    0    0  0.81580311687E+01 -0.14224409866E+02  0.16486908312E+02  0.23253074088E+02  0.51100000000E-03 0. -1.
        -11    1    4    4    0    0  0.95687313912E+01  0.87847370940E+01  0.96761464115E+01  0.16197531784E+02  0.51100000000E-03 0.  1.
        -12    1    4    4    0    0 -0.75686151321E+01 -0.11986472991E+02  0.46414600123E+01  0.14916521741E+02  0.00000000000E+00 0.  1.
</event>
<event>
 8    1  0.1269154E-006  0.9118800E+02  0.7816164E-02  0.1184000E+00
        -11   -1    0    0    0    0  0.00000000000E+00  0.00000000000E+00  0.45593999997E+02  0.45594000000E+02  0.51100000000E-03 0.  1.
         11   -1    0    0    0    0 -0.00000000000E+00 -0.00000000000E+00 -0.45593999997E+02  0.45594000000E+02  0.51100000000E-03 0. -1.
         23    2    1    2    0    0 -0.22204460493E-15 -0.11102230246E-14  0.00000000000E+00  0.91188000000E+02  0.91188000000E+02 0.  0.
    9900012    2    3    3    0    0  0.16367933476E+01 -0.18469426289E+01  0.36738098641E+02  0.54367106729E+02  0.40000051410E+02 0.  0.
         12    1    3    3    0    0 -0.16367933476E+01  0.18469426289E+01 -0.36738098641E+02  0.36820893271E+02  0.00000000000E+00 0. -1.
         11    1    4    4    0    0 -0.27215963996E+01 -0.77994043499E+01  0.13086889122E+01  0.83636392860E+01  0.51100000000E-03 0. -1.
        -11    1    4    4    0    0  0.53156588592E+01 -0.10841272911E+02  0.18847624011E+02  0.22383528733E+02  0.51100000000E-03 0.  1.
        -12    1    4    4    0    0 -0.95726911203E+00  0.16793734632E+02  0.16581785718E+02  0.23619938710E+02  0.00000000000E+00 0.  1.
</event>
<event>
 8    1  0.1269154E-006  0.9118800E+02  0.7816164E-02  0.1184000E+00
        -11   -1    0    0    0    0  0.00000000000E+00  0.00000000000E+00  0.45593999997E+02  0.45594000000E+02  0.51100000000E-03 0.  1.
         11   -1    0    0    0    0 -0.00000000000E+00 -0.00000000000E+00 -0.45593999997E+02  0.45594000000E+02  0.51100000000E-03 0. -1.
         23    2    1    2    0    0  0.00000000000E+00 -0.71054273576E-14  0.35527136788E-14  0.91188000000E+02  0.91188000000E+02 0.  0.
    9900012    2    3    3    0    0  0.90302715950E+01  0.34501944752E+02 -0.91570382397E+01  0.54367063753E+02  0.39999953439E+02 0.  0.
        -12    1    3    3    0    0 -0.90302715950E+01 -0.34501944752E+02  0.91570382397E+01  0.36820936247E+02  0.00000000000E+00 0.  1.
         11    1    4    4    0    0 -0.20968873933E+01  0.15010678301E+02 -0.21903516978E+02  0.26636093108E+02  0.51100000000E-03 0. -1.
        -11    1    4    4    0    0  0.11194206057E+02  0.99214370454E+01  0.89782892149E+01  0.17445768535E+02  0.51100000000E-03 0.  1.
        -12    1    4    4    0    0 -0.67047069182E-01  0.95698294053E+01  0.37681895234E+01  0.10285202110E+02  0.00000000000E+00 0.  1.
</event>
<event>
 8    1  0.1269154E-006  0.9118800E+02  0.7816164E-02  0.1184000E+00
        -11   -1    0    0    0    0  0.00000000000E+00  0.00000000000E+00  0.45593999997E+02  0.45594000000E+02  0.51100000000E-03 0.  1.
         11   -1    0    0    0    0 -0.00000000000E+00 -0.00000000000E+00 -0.45593999997E+02  0.45594000000E+02  0.51100000000E-03 0. -1.
         23    2    1    2    0    0  0.17763568394E-14  0.35527136788E-14  0.00000000000E+00  0.91188000000E+02  0.91188000000E+02 0.  0.
    9900012    2    3    3    0    0  0.89911366592E+01  0.17934857121E+02  0.30875234506E+02  0.54367085506E+02  0.40000003028E+02 0.  0.
         12    1    3    3    0    0 -0.89911366592E+01 -0.17934857121E+02 -0.30875234506E+02  0.36820914494E+02  0.00000000000E+00 0. -1.
         11    1    4    4    0    0  0.23481994483E+01 -0.89093055136E+00 -0.66943676899E+01  0.71499899947E+01  0.51100000000E-03 0. -1.
        -11    1    4    4    0    0  0.54576711735E+01  0.10696137380E+02  0.37092358370E+02  0.38987646494E+02  0.51100000000E-03 0.  1.
        -12    1    4    4    0    0  0.11852660375E+01  0.81296502922E+01  0.47724382594E+00  0.82294490170E+01  0.00000000000E+00 0.  1.
</event>
<event>
 8    1  0.1269154E-006  0.9118800E+02  0.7816164E-02  0.1184000E+00
        -11   -1    0    0    0    0  0.00000000000E+00  0.00000000000E+00  0.45593999997E+02  0.45594000000E+02  0.51100000000E-03 0. -1.
         11   -1    0    0    0    0 -0.00000000000E+00 -0.00000000000E+00 -0.45593999997E+02  0.45594000000E+02  0.51100000000E-03 0.  1.
         23    2    1    2    0    0  0.00000000000E+00  0.17763568394E-14  0.00000000000E+00  0.91188000000E+02  0.91188000000E+02 0.  0.
    9900012    2    3    3    0    0 -0.67286731098E+01 -0.93455044038E+01  0.34973802395E+02  0.54367077302E+02  0.39999984325E+02 0.  0.
        -12    1    3    3    0    0  0.67286731098E+01  0.93455044038E+01 -0.34973802395E+02  0.36820922698E+02  0.00000000000E+00 0.  1.
         11    1    4    4    0    0  0.73310256518E+01 -0.14462972987E+01  0.51989393476E+01  0.91030040967E+01  0.51100000000E-03 0. -1.
        -11    1    4    4    0    0 -0.71390382313E+01 -0.10364682462E+02  0.34367884359E+02  0.36599781215E+02  0.51100000000E-03 0.  1.
        -12    1    4    4    0    0 -0.69206605303E+01  0.24654753574E+01 -0.45930213119E+01  0.86642919899E+01  0.00000000000E+00 0.  1.
</event>
<event>
 8    1  0.1269154E-006  0.9118800E+02  0.7816164E-02  0.1184000E+00
        -11   -1    0    0    0    0  0.00000000000E+00  0.00000000000E+00  0.45593999997E+02  0.45594000000E+02  0.51100000000E-03 0. -1.
         11   -1    0    0    0    0 -0.00000000000E+00 -0.00000000000E+00 -0.45593999997E+02  0.45594000000E+02  0.51100000000E-03 0.  1.
         23    2    1    2    0    0  0.00000000000E+00  0.00000000000E+00  0.17763568394E-14  0.91188000000E+02  0.91188000000E+02 0.  0.
    9900012    2    3    3    0    0 -0.31686099685E+02  0.13372701550E+02  0.13150718674E+02  0.54367089343E+02  0.40000011775E+02 0.  0.
         12    1    3    3    0    0  0.31686099685E+02 -0.13372701550E+02 -0.13150718674E+02  0.36820910657E+02  0.00000000000E+00 0. -1.
         11    1    4    4    0    0 -0.99720746711E+01 -0.82095872297E+01  0.91955997085E+01  0.15855555808E+02  0.51100000000E-03 0. -1.
        -11    1    4    4    0    0 -0.80666556863E+01 -0.31005249751E+01 -0.35230336214E+01  0.93325213764E+01  0.51100000000E-03 0.  1.
        -12    1    4    4    0    0 -0.13647369328E+02  0.24682813755E+02  0.74781525868E+01  0.29179012158E+02  0.00000000000E+00 0.  1.
</event>
<event>
 8    1  0.1269154E-006  0.9118800E+02  0.7816164E-02  0.1184000E+00
        -11   -1    0    0    0    0  0.00000000000E+00  0.00000000000E+00  0.45593999997E+02  0.45594000000E+02  0.51100000000E-03 0. -1.
         11   -1    0    0    0    0 -0.00000000000E+00 -0.00000000000E+00 -0.45593999997E+02  0.45594000000E+02  0.51100000000E-03 0.  1.
         23    2    1    2    0    0  0.00000000000E+00  0.27755575616E-15 -0.71054273576E-14  0.91188000000E+02  0.91188000000E+02 0.  0.
    9900012    2    3    3    0    0 -0.11103428347E+02 -0.32092773741E+00 -0.35105434654E+02  0.54367073098E+02  0.39999974742E+02 0.  0.
         12    1    3    3    0    0  0.11103428347E+02  0.32092773741E+00  0.35105434654E+02  0.36820926902E+02  0.00000000000E+00 0. -1.
         11    1    4    4    0    0 -0.12447138016E+02  0.13089853387E+02 -0.17842778866E+02  0.25389766923E+02  0.51100000000E-03 0. -1.
        -11    1    4    4    0    0  0.40475692202E+00  0.77648501915E+00 -0.14458660404E+02  0.14485151642E+02  0.51100000000E-03 0.  1.
        -12    1    4    4    0    0  0.93895274710E+00 -0.14187266144E+02 -0.28039953842E+01  0.14492154533E+02  0.00000000000E+00 0.  1.
</event>
<event>
 8    1  0.1269154E-006  0.9118800E+02  0.7816164E-02  0.1184000E+00
        -11   -1    0    0    0    0  0.00000000000E+00  0.00000000000E+00  0.45593999997E+02  0.45594000000E+02  0.51100000000E-03 0.  1.
         11   -1    0    0    0    0 -0.00000000000E+00 -0.00000000000E+00 -0.45593999997E+02  0.45594000000E+02  0.51100000000E-03 0. -1.
         23    2    1    2    0    0 -0.35527136788E-14  0.00000000000E+00  0.21094237468E-14  0.91188000000E+02  0.91188000000E+02 0.  0.
    9900012    2    3    3    0    0 -0.31842559721E+02 -0.18478922430E+02 -0.60025064288E+00  0.54367089031E+02  0.40000011063E+02 0.  0.
         12    1    3    3    0    0  0.31842559721E+02  0.18478922430E+02  0.60025064288E+00  0.36820910969E+02  0.00000000000E+00 0. -1.
         11    1    4    4    0    0 -0.20295324918E+01 -0.40594428314E+01 -0.11376638342E+02  0.12248509234E+02  0.51100000000E-03 0. -1.
        -11    1    4    4    0    0 -0.52576380369E+01 -0.15145588048E+02  0.26935723905E+01  0.16256903996E+02  0.51100000000E-03 0.  1.
        -12    1    4    4    0    0 -0.24555389193E+02  0.72610844927E+00  0.80828153087E+01  0.25861675800E+02  0.00000000000E+00 0.  1.
</event>
<event>
 8    1  0.1269154E-006  0.9118800E+02  0.7816164E-02  0.1184000E+00
        -11   -1    0    0    0    0  0.00000000000E+00  0.00000000000E+00  0.45593999997E+02  0.45594000000E+02  0.51100000000E-03 0. -1.
         11   -1    0    0    0    0 -0.00000000000E+00 -0.00000000000E+00 -0.45593999997E+02  0.45594000000E+02  0.51100000000E-03 0.  1.
         23    2    1    2    0    0  0.00000000000E+00  0.17763568394E-14 -0.35527136788E-14  0.91188000000E+02  0.91188000000E+02 0.  0.
    9900012    2    3    3    0    0 -0.28180084492E+02  0.95319118019E+01 -0.21698056227E+02  0.54367080014E+02  0.39999990509E+02 0.  0.
         12    1    3    3    0    0  0.28180084492E+02 -0.95319118019E+01  0.21698056227E+02  0.36820919986E+02  0.00000000000E+00 0. -1.
         11    1    4    4    0    0 -0.69944078827E+00 -0.79864354180E+01  0.28728240121E+00  0.80221505559E+01  0.51100000000E-03 0. -1.
        -11    1    4    4    0    0 -0.54116539612E+01 -0.62434257746E+01 -0.31496288556E+01  0.88423145266E+01  0.51100000000E-03 0.  1.
        -12    1    4    4    0    0 -0.22068989743E+02  0.23761772994E+02 -0.18835709772E+02  0.37502614932E+02  0.00000000000E+00 0.  1.
</event>
<event>
 8    1  0.1269154E-006  0.9118800E+02  0.7816164E-02  0.1184000E+00
        -11   -1    0    0    0    0  0.00000000000E+00  0.00000000000E+00  0.45593999997E+02  0.45594000000E+02  0.51100000000E-03 0.  1.
         11   -1    0    0    0    0 -0.00000000000E+00 -0.00000000000E+00 -0.45593999997E+02  0.45594000000E+02  0.51100000000E-03 0. -1.
         23    2    1    2    0    0  0.00000000000E+00  0.00000000000E+00  0.00000000000E+00  0.91188000000E+02  0.91188000000E+02 0.  0.
    9900012    2    3    3    0    0 -0.19195047332E+02 -0.28812053016E+02  0.12537745199E+02  0.54367091595E+02  0.40000016910E+02 0.  0.
         12    1    3    3    0    0  0.19195047332E+02  0.28812053016E+02 -0.12537745199E+02  0.36820908405E+02  0.00000000000E+00 0. -1.
         11    1    4    4    0    0  0.82581418869E+01 -0.11768856111E+02 -0.74815921328E+00  0.14396618494E+02  0.51100000000E-03 0. -1.
        -11    1    4    4    0    0 -0.53320035569E+01 -0.10491905233E+02  0.12084259793E+02  0.16868303778E+02  0.51100000000E-03 0.  1.
         12    1    4    4    0    0 -0.22121185662E+02 -0.65512916724E+01  0.12016446194E+01  0.23102169324E+02  0.00000000000E+00 0. -1.
</event>
<event>
 8    1  0.1269154E-006  0.9118800E+02  0.7816164E-02  0.1184000E+00
        -11   -1    0    0    0    0  0.00000000000E+00  0.00000000000E+00  0.45593999997E+02  0.45594000000E+02  0.51100000000E-03 0. -1.
         11   -1    0    0    0    0 -0.00000000000E+00 -0.00000000000E+00 -0.45593999997E+02  0.45594000000E+02  0.51100000000E-03 0.  1.
         23    2    1    2    0    0  0.17763568394E-14  0.44408920985E-15  0.00000000000E+00  0.91188000000E+02  0.91188000000E+02 0.  0.
    9900012    2    3    3    0    0 -0.10762170001E+02  0.25525290666E+01  0.35120387497E+02  0.54367064030E+02  0.39999954069E+02 0.  0.
        -12    1    3    3    0    0  0.10762170001E+02 -0.25525290666E+01 -0.35120387497E+02  0.36820935970E+02  0.00000000000E+00 0.  1.
         11    1    4    4    0    0 -0.84006858378E+01 -0.76003295079E+01 -0.22074453929E+01  0.11541635352E+02  0.51100000000E-03 0. -1.
        -11    1    4    4    0    0  0.52243001632E+01 -0.28373914412E+01  0.10934531893E+02  0.12446207871E+02  0.51100000000E-03 0.  1.
         12    1    4    4    0    0 -0.75857843266E+01  0.12990250016E+02  0.26393300997E+02  0.30379220807E+02  0.00000000000E+00 0. -1.
</event>
<event>
 8    1  0.1269154E-006  0.9118800E+02  0.7816164E-02  0.1184000E+00
        -11   -1    0    0    0    0  0.00000000000E+00  0.00000000000E+00  0.45593999997E+02  0.45594000000E+02  0.51100000000E-03 0. -1.
         11   -1    0    0    0    0 -0.00000000000E+00 -0.00000000000E+00 -0.45593999997E+02  0.45594000000E+02  0.51100000000E-03 0.  1.
         23    2    1    2    0    0  0.35527136788E-14  0.35527136788E-14  0.17763568394E-14  0.91188000000E+02  0.91188000000E+02 0.  0.
    9900012    2    3    3    0    0  0.27586344141E+02  0.24236995378E+02 -0.27102171550E+01  0.54367033078E+02  0.39999883508E+02 0.  0.
        -12    1    3    3    0    0 -0.27586344141E+02 -0.24236995378E+02  0.27102171550E+01  0.36820966922E+02  0.00000000000E+00 0.  1.
         11    1    4    4    0    0  0.19516960316E+02  0.14758743058E+02  0.85035680167E+01  0.25904495863E+02  0.51100000000E-03 0. -1.
        -11    1    4    4    0    0  0.49618884521E+01  0.37973956283E+01  0.68509625956E+01  0.92723373168E+01  0.51100000000E-03 0.  1.
        -12    1    4    4    0    0  0.31074953736E+01  0.56808566919E+01 -0.18064747767E+02  0.19190199899E+02  0.00000000000E+00 0.  1.
</event>
<event>
 8    1  0.1269154E-006  0.9118800E+02  0.7816164E-02  0.1184000E+00
        -11   -1    0    0    0    0  0.00000000000E+00  0.00000000000E+00  0.45593999997E+02  0.45594000000E+02  0.51100000000E-03 0.  1.
         11   -1    0    0    0    0 -0.00000000000E+00 -0.00000000000E+00 -0.45593999997E+02  0.45594000000E+02  0.51100000000E-03 0. -1.
         23    2    1    2    0    0  0.00000000000E+00  0.00000000000E+00  0.35527136788E-14  0.91188000000E+02  0.91188000000E+02 0.  0.
    9900012    2    3    3    0    0  0.16654042967E+02  0.16825722308E+02  0.28201384437E+02  0.54367079825E+02  0.39999990077E+02 0.  0.
         12    1    3    3    0    0 -0.16654042967E+02 -0.16825722308E+02 -0.28201384437E+02  0.36820920175E+02  0.00000000000E+00 0. -1.
         11    1    4    4    0    0  0.20259345006E+01  0.93206892252E+00 -0.16317862655E+01  0.27633113748E+01  0.51100000000E-03 0. -1.
        -11    1    4    4    0    0  0.41146488113E+01  0.26691208170E+02  0.18221001471E+02  0.32578456429E+02  0.51100000000E-03 0.  1.
        -12    1    4    4    0    0  0.10513459655E+02 -0.10797554784E+02  0.11612169232E+02  0.19025312022E+02  0.00000000000E+00 0.  1.
</event>
<event>
 8    1  0.1269154E-006  0.9118800E+02  0.7816164E-02  0.1184000E+00
        -11   -1    0    0    0    0  0.00000000000E+00  0.00000000000E+00  0.45593999997E+02  0.45594000000E+02  0.51100000000E-03 0. -1.
         11   -1    0    0    0    0 -0.00000000000E+00 -0.00000000000E+00 -0.45593999997E+02  0.45594000000E+02  0.51100000000E-03 0.  1.
         23    2    1    2    0    0  0.00000000000E+00  0.17763568394E-14  0.00000000000E+00  0.91188000000E+02  0.91188000000E+02 0.  0.
    9900012    2    3    3    0    0 -0.69606649809E+01 -0.13242801771E+02  0.33644558008E+02  0.54367096436E+02  0.40000027946E+02 0.  0.
        -12    1    3    3    0    0  0.69606649809E+01  0.13242801771E+02 -0.33644558008E+02  0.36820903564E+02  0.00000000000E+00 0.  1.
         11    1    4    4    0    0 -0.25143434564E+01 -0.16156875102E+01  0.17323009906E+02  0.17578937443E+02  0.51100000000E-03 0. -1.
        -11    1    4    4    0    0  0.10884721509E+02  0.12243873953E+01  0.12139512843E+02  0.16350659288E+02  0.51100000000E-03 0.  1.
        -12    1    4    4    0    0 -0.15331043033E+02 -0.12851501656E+02  0.41820352576E+01  0.20437499705E+02  0.00000000000E+00 0.  1.
</event>
<event>
 8    1  0.1269154E-006  0.9118800E+02  0.7816164E-02  0.1184000E+00
        -11   -1    0    0    0    0  0.00000000000E+00  0.00000000000E+00  0.45593999997E+02  0.45594000000E+02  0.51100000000E-03 0. -1.
         11   -1    0    0    0    0 -0.00000000000E+00 -0.00000000000E+00 -0.45593999997E+02  0.45594000000E+02  0.51100000000E-03 0.  1.
         23    2    1    2    0    0  0.00000000000E+00  0.00000000000E+00  0.00000000000E+00  0.91188000000E+02  0.91188000000E+02 0.  0.
    9900012    2    3    3    0    0 -0.16603006003E+02  0.26470049706E+02  0.19479603204E+02  0.54367105378E+02  0.40000048329E+02 0.  0.
         12    1    3    3    0    0  0.16603006003E+02 -0.26470049706E+02 -0.19479603204E+02  0.36820894622E+02  0.00000000000E+00 0. -1.
         11    1    4    4    0    0  0.58075169119E+01  0.37418482744E+01  0.24214959758E+01  0.73206778520E+01  0.51100000000E-03 0. -1.
        -11    1    4    4    0    0 -0.95417079376E+01  0.28149997547E+02  0.97243255335E+01  0.31273456151E+02  0.51100000000E-03 0.  1.
         12    1    4    4    0    0 -0.12868814978E+02 -0.54217961150E+01  0.73337816948E+01  0.15772971375E+02  0.00000000000E+00 0. -1.
</event>
<event>
 8    1  0.1269154E-006  0.9118800E+02  0.7816164E-02  0.1184000E+00
        -11   -1    0    0    0    0  0.00000000000E+00  0.00000000000E+00  0.45593999997E+02  0.45594000000E+02  0.51100000000E-03 0.  1.
         11   -1    0    0    0    0 -0.00000000000E+00 -0.00000000000E+00 -0.45593999997E+02  0.45594000000E+02  0.51100000000E-03 0. -1.
         23    2    1    2    0    0  0.00000000000E+00 -0.17763568394E-14  0.00000000000E+00  0.91188000000E+02  0.91188000000E+02 0.  0.
    9900012    2    3    3    0    0  0.25523960005E+02 -0.14260200119E+02  0.22381966075E+02  0.54367105835E+02  0.40000049372E+02 0.  0.
         12    1    3    3    0    0 -0.25523960005E+02  0.14260200119E+02 -0.22381966075E+02  0.36820894165E+02  0.00000000000E+00 0. -1.
         11    1    4    4    0    0  0.79683824341E+01 -0.89303738842E+01 -0.59338996127E+00  0.11983272017E+02  0.51100000000E-03 0. -1.
        -11    1    4    4    0    0  0.20981001155E+02 -0.11161374808E+02  0.25779615589E+02  0.35062334167E+02  0.51100000000E-03 0.  1.
         12    1    4    4    0    0 -0.34254235849E+01  0.58315485734E+01 -0.28042595524E+01  0.73214996508E+01  0.00000000000E+00 0. -1.
</event>
<event>
 8    1  0.1269154E-006  0.9118800E+02  0.7816164E-02  0.1184000E+00
        -11   -1    0    0    0    0  0.00000000000E+00  0.00000000000E+00  0.45593999997E+02  0.45594000000E+02  0.51100000000E-03 0.  1.
         11   -1    0    0    0    0 -0.00000000000E+00 -0.00000000000E+00 -0.45593999997E+02  0.45594000000E+02  0.51100000000E-03 0. -1.
         23    2    1    2    0    0  0.00000000000E+00 -0.22204460493E-15  0.00000000000E+00  0.91188000000E+02  0.91188000000E+02 0.  0.
    9900012    2    3    3    0    0 -0.21695898385E+02 -0.16752619965E+01 -0.29702803639E+02  0.54367149202E+02  0.40000148234E+02 0.  0.
        -12    1    3    3    0    0  0.21695898385E+02  0.16752619965E+01  0.29702803639E+02  0.36820850798E+02  0.00000000000E+00 0.  1.
         11    1    4    4    0    0 -0.23252671427E+02  0.29461660129E+01 -0.16248293562E+02  0.28519706637E+02  0.51100000000E-03 0. -1.
        -11    1    4    4    0    0 -0.41985793832E+01 -0.11897333961E+02 -0.93477974501E+01  0.15702099912E+02  0.51100000000E-03 0.  1.
        -12    1    4    4    0    0  0.57553524255E+01  0.72759059512E+01 -0.41067126266E+01  0.10145342653E+02  0.00000000000E+00 0.  1.
</event>
<event>
 8    1  0.1269154E-006  0.9118800E+02  0.7816164E-02  0.1184000E+00
        -11   -1    0    0    0    0  0.00000000000E+00  0.00000000000E+00  0.45593999997E+02  0.45594000000E+02  0.51100000000E-03 0. -1.
         11   -1    0    0    0    0 -0.00000000000E+00 -0.00000000000E+00 -0.45593999997E+02  0.45594000000E+02  0.51100000000E-03 0.  1.
         23    2    1    2    0    0 -0.88817841970E-15  0.00000000000E+00  0.00000000000E+00  0.91188000000E+02  0.91188000000E+02 0.  0.
    9900012    2    3    3    0    0  0.59924190287E+01 -0.36304207966E+02  0.13692230586E+01  0.54367090538E+02  0.40000014499E+02 0.  0.
        -12    1    3    3    0    0 -0.59924190287E+01  0.36304207966E+02 -0.13692230586E+01  0.36820909462E+02  0.00000000000E+00 0.  1.
         11    1    4    4    0    0 -0.99372717512E+01 -0.27543783748E+02  0.31998733930E+01  0.29455875187E+02  0.51100000000E-03 0. -1.
        -11    1    4    4    0    0  0.18614141957E+02 -0.10737289338E+02 -0.12334174973E+01  0.21524334649E+02  0.51100000000E-03 0.  1.
         12    1    4    4    0    0 -0.26844511771E+01  0.19768651204E+01 -0.59723283714E+00  0.33868807018E+01  0.00000000000E+00 0. -1.
</event>
<event>
 8    1  0.1269154E-006  0.9118800E+02  0.7816164E-02  0.1184000E+00
        -11   -1    0    0    0    0  0.00000000000E+00  0.00000000000E+00  0.45593999997E+02  0.45594000000E+02  0.51100000000E-03 0.  1.
         11   -1    0    0    0    0 -0.00000000000E+00 -0.00000000000E+00 -0.45593999997E+02  0.45594000000E+02  0.51100000000E-03 0. -1.
         23    2    1    2    0    0  0.00000000000E+00  0.44408920985E-15  0.17763568394E-14  0.91188000000E+02  0.91188000000E+02 0.  0.
    9900012    2    3    3    0    0 -0.34948695295E+02 -0.23916927446E+01  0.11342374400E+02  0.54367069077E+02  0.39999965574E+02 0.  0.
         12    1    3    3    0    0  0.34948695295E+02  0.23916927446E+01 -0.11342374400E+02  0.36820930923E+02  0.00000000000E+00 0. -1.
         11    1    4    4    0    0 -0.34006963020E+02 -0.61046861891E+01  0.25643562681E+01  0.34645586309E+02  0.51100000000E-03 0. -1.
        -11    1    4    4    0    0 -0.29204684671E+01  0.98935980623E+01  0.82527846360E+01  0.13210634852E+02  0.51100000000E-03 0.  1.
        -12    1    4    4    0    0  0.19787361924E+01 -0.61806046178E+01  0.52523349623E+00  0.65108479160E+01  0.00000000000E+00 0.  1.
</event>
<event>
 8    1  0.1269154E-006  0.9118800E+02  0.7816164E-02  0.1184000E+00
        -11   -1    0    0    0    0  0.00000000000E+00  0.00000000000E+00  0.45593999997E+02  0.45594000000E+02  0.51100000000E-03 0.  1.
         11   -1    0    0    0    0 -0.00000000000E+00 -0.00000000000E+00 -0.45593999997E+02  0.45594000000E+02  0.51100000000E-03 0. -1.
         23    2    1    2    0    0  0.88817841970E-15  0.00000000000E+00  0.00000000000E+00  0.91188000000E+02  0.91188000000E+02 0.  0.
    9900012    2    3    3    0    0 -0.65088983865E+01 -0.11253958895E+02  0.34449441819E+02  0.54367063148E+02  0.39999952059E+02 0.  0.
         12    1    3    3    0    0  0.65088983865E+01  0.11253958895E+02 -0.34449441819E+02  0.36820936852E+02  0.00000000000E+00 0. -1.
         11    1    4    4    0    0  0.71748509988E+01 -0.15888852491E+02  0.28980073222E+01  0.17672933175E+02  0.51100000000E-03 0. -1.
        -11    1    4    4    0    0  0.12361106140E+01 -0.13205441216E+01  0.78894514300E+01  0.80941491433E+01  0.51100000000E-03 0.  1.
        -12    1    4    4    0    0 -0.14919859999E+02  0.59554377176E+01  0.23661983067E+02  0.28599980830E+02  0.00000000000E+00 0.  1.
</event>
<event>
 8    1  0.1269154E-006  0.9118800E+02  0.7816164E-02  0.1184000E+00
        -11   -1    0    0    0    0  0.00000000000E+00  0.00000000000E+00  0.45593999997E+02  0.45594000000E+02  0.51100000000E-03 0.  1.
         11   -1    0    0    0    0 -0.00000000000E+00 -0.00000000000E+00 -0.45593999997E+02  0.45594000000E+02  0.51100000000E-03 0. -1.
         23    2    1    2    0    0 -0.71054273576E-14  0.00000000000E+00  0.71054273576E-14  0.91188000000E+02  0.91188000000E+02 0.  0.
    9900012    2    3    3    0    0  0.30745863046E+02 -0.10790794719E+02 -0.17147309812E+02  0.54367087750E+02  0.40000008144E+02 0.  0.
        -12    1    3    3    0    0 -0.30745863046E+02  0.10790794719E+02  0.17147309812E+02  0.36820912250E+02  0.00000000000E+00 0.  1.
         11    1    4    4    0    0  0.10042013593E+02 -0.70939740264E+01 -0.10056054231E+02  0.15883662406E+02  0.51100000000E-03 0. -1.
        -11    1    4    4    0    0  0.13704524514E+02 -0.11300387517E+02  0.85681318086E+01  0.19721197558E+02  0.51100000000E-03 0.  1.
        -12    1    4    4    0    0  0.69993249396E+01  0.76035668241E+01 -0.15659387390E+02  0.18762227785E+02  0.00000000000E+00 0.  1.
</event>
<event>
 8    1  0.1269154E-006  0.9118800E+02  0.7816164E-02  0.1184000E+00
        -11   -1    0    0    0    0  0.00000000000E+00  0.00000000000E+00  0.45593999997E+02  0.45594000000E+02  0.51100000000E-03 0.  1.
         11   -1    0    0    0    0 -0.00000000000E+00 -0.00000000000E+00 -0.45593999997E+02  0.45594000000E+02  0.51100000000E-03 0. -1.
         23    2    1    2    0    0 -0.17763568394E-14  0.00000000000E+00 -0.44408920985E-15  0.91188000000E+02  0.91188000000E+02 0.  0.
    9900012    2    3    3    0    0 -0.60735395219E+01  0.36261310790E+02  0.20018506530E+01  0.54367109889E+02  0.40000058613E+02 0.  0.
         12    1    3    3    0    0  0.60735395219E+01 -0.36261310790E+02 -0.20018506530E+01  0.36820890111E+02  0.00000000000E+00 0. -1.
         11    1    4    4    0    0  0.83690316159E+01 -0.44383645851E+01  0.31585743046E+01  0.99858080433E+01  0.51100000000E-03 0.  1.
        -11    1    4    4    0    0  0.82434918457E+00  0.50563425437E+00 -0.99170993982E+00  0.13851737953E+01  0.51100000000E-03 0. -1.
         12    1    4    4    0    0 -0.15266920322E+02  0.40194041121E+02 -0.16501371176E+00  0.42996128050E+02  0.00000000000E+00 0. -1.
</event>
<event>
 8    1  0.1269154E-006  0.9118800E+02  0.7816164E-02  0.1184000E+00
        -11   -1    0    0    0    0  0.00000000000E+00  0.00000000000E+00  0.45593999997E+02  0.45594000000E+02  0.51100000000E-03 0. -1.
         11   -1    0    0    0    0 -0.00000000000E+00 -0.00000000000E+00 -0.45593999997E+02  0.45594000000E+02  0.51100000000E-03 0.  1.
         23    2    1    2    0    0 -0.17763568394E-14  0.00000000000E+00 -0.71054273576E-14  0.91188000000E+02  0.91188000000E+02 0.  0.
    9900012    2    3    3    0    0  0.14455108506E+02 -0.10849386422E+02  0.32079887572E+02  0.54367101935E+02  0.40000040482E+02 0.  0.
        -12    1    3    3    0    0 -0.14455108506E+02  0.10849386422E+02 -0.32079887572E+02  0.36820898065E+02  0.00000000000E+00 0.  1.
         11    1    4    4    0    0  0.20732988865E+02 -0.19354138534E+02  0.28050061695E+02  0.39890418236E+02  0.51100000000E-03 0. -1.
        -11    1    4    4    0    0 -0.67949482428E+01  0.78757775329E+01  0.62340123066E+01  0.12126916470E+02  0.51100000000E-03 0.  1.
         12    1    4    4    0    0  0.51706788409E+00  0.62897457962E+00 -0.22041864291E+01  0.23497672295E+01  0.00000000000E+00 0. -1.
</event>
<event>
 8    1  0.1269154E-006  0.9118800E+02  0.7816164E-02  0.1184000E+00
        -11   -1    0    0    0    0  0.00000000000E+00  0.00000000000E+00  0.45593999997E+02  0.45594000000E+02  0.51100000000E-03 0. -1.
         11   -1    0    0    0    0 -0.00000000000E+00 -0.00000000000E+00 -0.45593999997E+02  0.45594000000E+02  0.51100000000E-03 0.  1.
         23    2    1    2    0    0 -0.35527136788E-14 -0.88817841970E-15  0.35527136788E-14  0.91188000000E+02  0.91188000000E+02 0.  0.
    9900012    2    3    3    0    0  0.28040012288E+02  0.72619132439E+01 -0.22733259804E+02  0.54367098674E+02  0.40000033048E+02 0.  0.
        -12    1    3    3    0    0 -0.28040012288E+02 -0.72619132439E+01  0.22733259804E+02  0.36820901326E+02  0.00000000000E+00 0.  1.
         11    1    4    4    0    0  0.15091157126E+02  0.52643096006E+01 -0.40387547259E+01  0.16485372879E+02  0.51100000000E-03 0. -1.
        -11    1    4    4    0    0  0.16903535475E+02  0.60015399126E+01  0.43396520470E+00  0.17942583953E+02  0.51100000000E-03 0.  1.
        -12    1    4    4    0    0 -0.39546803120E+01 -0.40039362692E+01 -0.19128470283E+02  0.19939141842E+02  0.00000000000E+00 0.  1.
</event>
<event>
 8    1  0.1269154E-006  0.9118800E+02  0.7816164E-02  0.1184000E+00
        -11   -1    0    0    0    0  0.00000000000E+00  0.00000000000E+00  0.45593999997E+02  0.45594000000E+02  0.51100000000E-03 0.  1.
         11   -1    0    0    0    0 -0.00000000000E+00 -0.00000000000E+00 -0.45593999997E+02  0.45594000000E+02  0.51100000000E-03 0. -1.
         23    2    1    2    0    0  0.00000000000E+00  0.35527136788E-14  0.00000000000E+00  0.91188000000E+02  0.91188000000E+02 0.  0.
    9900012    2    3    3    0    0 -0.29624711822E+02 -0.18765443393E+02 -0.11225571154E+02  0.54367097458E+02  0.40000030275E+02 0.  0.
        -12    1    3    3    0    0  0.29624711822E+02  0.18765443393E+02  0.11225571154E+02  0.36820902542E+02  0.00000000000E+00 0.  1.
         11    1    4    4    0    0 -0.17582382041E+02 -0.26006364313E+02 -0.12820941662E+02  0.33909404129E+02  0.51100000000E-03 0. -1.
        -11    1    4    4    0    0 -0.11902899128E+02  0.67136145854E+01  0.67725552564E+01  0.15251856720E+02  0.51100000000E-03 0.  1.
         12    1    4    4    0    0 -0.13943065302E+00  0.52730633469E+00 -0.51771847480E+01  0.52058366084E+01  0.00000000000E+00 0. -1.
</event>
<event>
 8    1  0.1269154E-006  0.9118800E+02  0.7816164E-02  0.1184000E+00
        -11   -1    0    0    0    0  0.00000000000E+00  0.00000000000E+00  0.45593999997E+02  0.45594000000E+02  0.51100000000E-03 0.  1.
         11   -1    0    0    0    0 -0.00000000000E+00 -0.00000000000E+00 -0.45593999997E+02  0.45594000000E+02  0.51100000000E-03 0. -1.
         23    2    1    2    0    0  0.00000000000E+00  0.35527136788E-14 -0.17763568394E-14  0.91188000000E+02  0.91188000000E+02 0.  0.
    9900012    2    3    3    0    0 -0.18712348923E+02  0.29184535724E+02  0.12405258628E+02  0.54367087881E+02  0.40000008443E+02 0.  0.
         12    1    3    3    0    0  0.18712348923E+02 -0.29184535724E+02 -0.12405258628E+02  0.36820912119E+02  0.00000000000E+00 0. -1.
         11    1    4    4    0    0 -0.13034495434E+02  0.17034689691E+02 -0.53185105956E+00  0.21456038542E+02  0.51100000000E-03 0. -1.
        -11    1    4    4    0    0 -0.38898479174E+01  0.13439201565E+02 -0.49861259986E+01  0.14852760964E+02  0.51100000000E-03 0.  1.
         12    1    4    4    0    0 -0.17880055721E+01 -0.12893555321E+01  0.17923235686E+02  0.18058288376E+02  0.00000000000E+00 0. -1.
</event>
<event>
 8    1  0.1269154E-006  0.9118800E+02  0.7816164E-02  0.1184000E+00
        -11   -1    0    0    0    0  0.00000000000E+00  0.00000000000E+00  0.45593999997E+02  0.45594000000E+02  0.51100000000E-03 0.  1.
         11   -1    0    0    0    0 -0.00000000000E+00 -0.00000000000E+00 -0.45593999997E+02  0.45594000000E+02  0.51100000000E-03 0. -1.
         23    2    1    2    0    0 -0.44408920985E-15 -0.17763568394E-14  0.00000000000E+00  0.91188000000E+02  0.91188000000E+02 0.  0.
    9900012    2    3    3    0    0 -0.37284385629E+01 -0.37823960952E+01  0.36435860198E+02  0.54367086341E+02  0.40000004931E+02 0.  0.
         12    1    3    3    0    0  0.37284385629E+01  0.37823960952E+01 -0.36435860198E+02  0.36820913659E+02  0.00000000000E+00 0. -1.
         11    1    4    4    0    0 -0.68487060289E+01 -0.18140564662E+02  0.66143042338E+01  0.20487407871E+02  0.51100000000E-03 0. -1.
        -11    1    4    4    0    0 -0.67107107337E+00  0.33205791710E+01  0.12805244461E+02  0.13245786817E+02  0.51100000000E-03 0.  1.
         12    1    4    4    0    0  0.37913385393E+01  0.11037589395E+02  0.17016311503E+02  0.20633891653E+02  0.00000000000E+00 0. -1.
</event>
<event>
 8    1  0.1269154E-006  0.9118800E+02  0.7816164E-02  0.1184000E+00
        -11   -1    0    0    0    0  0.00000000000E+00  0.00000000000E+00  0.45593999997E+02  0.45594000000E+02  0.51100000000E-03 0. -1.
         11   -1    0    0    0    0 -0.00000000000E+00 -0.00000000000E+00 -0.45593999997E+02  0.45594000000E+02  0.51100000000E-03 0.  1.
         23    2    1    2    0    0  0.35527136788E-14  0.35527136788E-14  0.00000000000E+00  0.91188000000E+02  0.91188000000E+02 0.  0.
    9900012    2    3    3    0    0 -0.26666726331E+02  0.18181525174E+02  0.17722763581E+02  0.54367102404E+02  0.40000041550E+02 0.  0.
        -12    1    3    3    0    0  0.26666726331E+02 -0.18181525174E+02 -0.17722763581E+02  0.36820897596E+02  0.00000000000E+00 0.  1.
         11    1    4    4    0    0 -0.15043574075E+01  0.76780589622E+00  0.65576805044E+01  0.67716904066E+01  0.51100000000E-03 0. -1.
        -11    1    4    4    0    0  0.86801937296E+01  0.39542163231E+01  0.12922255390E+00  0.95393023143E+01  0.51100000000E-03 0.  1.
        -12    1    4    4    0    0 -0.33842562653E+02  0.13459502954E+02  0.11035860523E+02  0.38056109683E+02  0.00000000000E+00 0.  1.
</event>
<event>
 8    1  0.1269154E-006  0.9118800E+02  0.7816164E-02  0.1184000E+00
        -11   -1    0    0    0    0  0.00000000000E+00  0.00000000000E+00  0.45593999997E+02  0.45594000000E+02  0.51100000000E-03 0. -1.
         11   -1    0    0    0    0 -0.00000000000E+00 -0.00000000000E+00 -0.45593999997E+02  0.45594000000E+02  0.51100000000E-03 0.  1.
         23    2    1    2    0    0  0.17763568394E-14  0.17763568394E-14  0.71054273576E-14  0.91188000000E+02  0.91188000000E+02 0.  0.
    9900012    2    3    3    0    0  0.13011013820E+02  0.70895096745E+01  0.33708054697E+02  0.54367074163E+02  0.39999977169E+02 0.  0.
        -12    1    3    3    0    0 -0.13011013820E+02 -0.70895096745E+01 -0.33708054697E+02  0.36820925837E+02  0.00000000000E+00 0.  1.
         11    1    4    4    0    0  0.17712800676E+02  0.99298915628E+01  0.97263157103E+01  0.22515489597E+02  0.51100000000E-03 0. -1.
        -11    1    4    4    0    0  0.37357323907E+01  0.53195946436E+01  0.17826440870E+01  0.67402970164E+01  0.51100000000E-03 0.  1.
        -12    1    4    4    0    0 -0.84375192462E+01 -0.81599765319E+01  0.22199094900E+02  0.25111287550E+02  0.00000000000E+00 0.  1.
</event>
<event>
 8    1  0.1269154E-006  0.9118800E+02  0.7816164E-02  0.1184000E+00
        -11   -1    0    0    0    0  0.00000000000E+00  0.00000000000E+00  0.45593999997E+02  0.45594000000E+02  0.51100000000E-03 0.  1.
         11   -1    0    0    0    0 -0.00000000000E+00 -0.00000000000E+00 -0.45593999997E+02  0.45594000000E+02  0.51100000000E-03 0. -1.
         23    2    1    2    0    0  0.35527136788E-14 -0.35527136788E-14 -0.35527136788E-14  0.91188000000E+02  0.91188000000E+02 0.  0.
    9900012    2    3    3    0    0 -0.17990362464E+02  0.19929533257E+02  0.25198011517E+02  0.54367092599E+02  0.40000019199E+02 0.  0.
         12    1    3    3    0    0  0.17990362464E+02 -0.19929533257E+02 -0.25198011517E+02  0.36820907401E+02  0.00000000000E+00 0. -1.
         11    1    4    4    0    0 -0.11564125150E+02  0.84079456259E+01  0.16304576825E+02  0.21685519727E+02  0.51100000000E-03 0. -1.
        -11    1    4    4    0    0  0.86475647249E+01  0.93347430145E+01  0.11591553693E+02  0.17212841721E+02  0.51100000000E-03 0.  1.
         12    1    4    4    0    0 -0.15073802039E+02  0.21868446163E+01 -0.26981190016E+01  0.15468731152E+02  0.00000000000E+00 0. -1.
</event>
<event>
 8    1  0.1269154E-006  0.9118800E+02  0.7816164E-02  0.1184000E+00
        -11   -1    0    0    0    0  0.00000000000E+00  0.00000000000E+00  0.45593999997E+02  0.45594000000E+02  0.51100000000E-03 0. -1.
         11   -1    0    0    0    0 -0.00000000000E+00 -0.00000000000E+00 -0.45593999997E+02  0.45594000000E+02  0.51100000000E-03 0.  1.
         23    2    1    2    0    0  0.00000000000E+00  0.00000000000E+00  0.00000000000E+00  0.91188000000E+02  0.91188000000E+02 0.  0.
    9900012    2    3    3    0    0  0.27928294892E+02  0.20586153327E+02  0.12328816296E+02  0.54367094585E+02  0.40000023724E+02 0.  0.
        -12    1    3    3    0    0 -0.27928294892E+02 -0.20586153327E+02 -0.12328816296E+02  0.36820905415E+02  0.00000000000E+00 0.  1.
         11    1    4    4    0    0  0.39595756272E+01 -0.19656862540E+01 -0.55645045263E+01  0.71067483761E+01  0.51100000000E-03 0. -1.
        -11    1    4    4    0    0  0.19703202661E+02  0.49949944543E-01  0.13645782378E+02  0.23967187300E+02  0.51100000000E-03 0.  1.
        -12    1    4    4    0    0  0.42655166032E+01  0.22501889636E+02  0.42475384444E+01  0.23293158909E+02  0.00000000000E+00 0.  1.
</event>
<event>
 8    1  0.1269154E-006  0.9118800E+02  0.7816164E-02  0.1184000E+00
        -11   -1    0    0    0    0  0.00000000000E+00  0.00000000000E+00  0.45593999997E+02  0.45594000000E+02  0.51100000000E-03 0. -1.
         11   -1    0    0    0    0 -0.00000000000E+00 -0.00000000000E+00 -0.45593999997E+02  0.45594000000E+02  0.51100000000E-03 0.  1.
         23    2    1    2    0    0  0.00000000000E+00  0.00000000000E+00  0.00000000000E+00  0.91188000000E+02  0.91188000000E+02 0.  0.
    9900012    2    3    3    0    0  0.19762650121E+02 -0.85107317505E+01 -0.29879501567E+02  0.54367088704E+02  0.40000010319E+02 0.  0.
         12    1    3    3    0    0 -0.19762650121E+02  0.85107317505E+01  0.29879501567E+02  0.36820911296E+02  0.00000000000E+00 0. -1.
         11    1    4    4    0    0  0.78693531878E+01  0.54404978968E+01  0.42628772881E+01  0.10473674618E+02  0.51100000000E-03 0. -1.
        -11    1    4    4    0    0  0.15214112648E+02 -0.22177698176E+01 -0.19774057681E+02  0.25047975648E+02  0.51100000000E-03 0.  1.
         12    1    4    4    0    0 -0.33208157141E+01 -0.11733459830E+02 -0.14368321174E+02  0.18845438439E+02  0.00000000000E+00 0. -1.
</event>
<event>
 8    1  0.1269154E-006  0.9118800E+02  0.7816164E-02  0.1184000E+00
        -11   -1    0    0    0    0  0.00000000000E+00  0.00000000000E+00  0.45593999997E+02  0.45594000000E+02  0.51100000000E-03 0.  1.
         11   -1    0    0    0    0 -0.00000000000E+00 -0.00000000000E+00 -0.45593999997E+02  0.45594000000E+02  0.51100000000E-03 0. -1.
         23    2    1    2    0    0 -0.71054273576E-14  0.00000000000E+00 -0.17763568394E-14  0.91188000000E+02  0.91188000000E+02 0.  0.
    9900012    2    3    3    0    0  0.34831626403E+02 -0.57554165500E+01  0.10460046162E+02  0.54367087692E+02  0.40000008011E+02 0.  0.
         12    1    3    3    0    0 -0.34831626403E+02  0.57554165500E+01 -0.10460046162E+02  0.36820912308E+02  0.00000000000E+00 0. -1.
         11    1    4    4    0    0  0.41189163980E+01  0.72927851271E+01 -0.45235854604E+01  0.95190867672E+01  0.51100000000E-03 0. -1.
        -11    1    4    4    0    0 -0.27169685875E+01 -0.74806228945E+01  0.54380859914E+01  0.96392124526E+01  0.51100000000E-03 0.  1.
        -12    1    4    4    0    0  0.33429678592E+02 -0.55675787826E+01  0.95455456308E+01  0.35208788472E+02  0.00000000000E+00 0.  1.
</event>
<event>
 8    1  0.1269154E-006  0.9118800E+02  0.7816164E-02  0.1184000E+00
        -11   -1    0    0    0    0  0.00000000000E+00  0.00000000000E+00  0.45593999997E+02  0.45594000000E+02  0.51100000000E-03 0.  1.
         11   -1    0    0    0    0 -0.00000000000E+00 -0.00000000000E+00 -0.45593999997E+02  0.45594000000E+02  0.51100000000E-03 0. -1.
         23    2    1    2    0    0 -0.17763568394E-14  0.00000000000E+00  0.35527136788E-14  0.91188000000E+02  0.91188000000E+02 0.  0.
    9900012    2    3    3    0    0 -0.12238782807E+02 -0.19722917182E+02  0.28583181553E+02  0.54367088354E+02  0.40000009520E+02 0.  0.
         12    1    3    3    0    0  0.12238782807E+02  0.19722917182E+02 -0.28583181553E+02  0.36820911646E+02  0.00000000000E+00 0. -1.
         11    1    4    4    0    0  0.97500361737E+01  0.27477811683E+01  0.85990122345E+01  0.13287457184E+02  0.51100000000E-03 0. -1.
        -11    1    4    4    0    0 -0.14438805214E+02 -0.21838724396E+02  0.20830322198E+02  0.33456110091E+02  0.51100000000E-03 0.  1.
        -12    1    4    4    0    0 -0.75500137667E+01 -0.63197395441E+00 -0.84615288000E+00  0.76235210797E+01  0.00000000000E+00 0.  1.
</event>
<event>
 8    1  0.1269154E-006  0.9118800E+02  0.7816164E-02  0.1184000E+00
        -11   -1    0    0    0    0  0.00000000000E+00  0.00000000000E+00  0.45593999997E+02  0.45594000000E+02  0.51100000000E-03 0. -1.
         11   -1    0    0    0    0 -0.00000000000E+00 -0.00000000000E+00 -0.45593999997E+02  0.45594000000E+02  0.51100000000E-03 0.  1.
         23    2    1    2    0    0  0.00000000000E+00  0.17763568394E-14  0.17763568394E-14  0.91188000000E+02  0.91188000000E+02 0.  0.
    9900012    2    3    3    0    0  0.33746049080E+02  0.10813076083E+02  0.10002296173E+02  0.54367294255E+02  0.40000478909E+02 0.  0.
        -12    1    3    3    0    0 -0.33746049080E+02 -0.10813076083E+02 -0.10002296173E+02  0.36820705745E+02  0.00000000000E+00 0.  1.
         11    1    4    4    0    0  0.18479955215E+02  0.55426876447E+01  0.17603408508E+02  0.26117238032E+02  0.51100000000E-03 0. -1.
        -11    1    4    4    0    0 -0.31024208428E+01  0.60874949419E+01  0.24950976711E+01  0.72737969729E+01  0.51100000000E-03 0.  1.
         12    1    4    4    0    0  0.18368514708E+02 -0.81710650402E+00 -0.10096210006E+02  0.20976259249E+02  0.00000000000E+00 0. -1.
</event>
<event>
 8    1  0.1269154E-006  0.9118800E+02  0.7816164E-02  0.1184000E+00
        -11   -1    0    0    0    0  0.00000000000E+00  0.00000000000E+00  0.45593999997E+02  0.45594000000E+02  0.51100000000E-03 0.  1.
         11   -1    0    0    0    0 -0.00000000000E+00 -0.00000000000E+00 -0.45593999997E+02  0.45594000000E+02  0.51100000000E-03 0. -1.
         23    2    1    2    0    0  0.00000000000E+00  0.35527136788E-14 -0.35527136788E-14  0.91188000000E+02  0.91188000000E+02 0.  0.
    9900012    2    3    3    0    0  0.75362564473E+00 -0.28368179348E+02  0.23461859090E+02  0.54367076830E+02  0.39999983250E+02 0.  0.
         12    1    3    3    0    0 -0.75362564473E+00  0.28368179348E+02 -0.23461859090E+02  0.36820923170E+02  0.00000000000E+00 0. -1.
         11    1    4    4    0    0  0.63104113289E+01 -0.14654600699E+02  0.84119694256E+01  0.18037179454E+02  0.51100000000E-03 0. -1.
        -11    1    4    4    0    0 -0.32370196535E+01 -0.22378784472E+02  0.15391583212E+02  0.27353045986E+02  0.51100000000E-03 0.  1.
        -12    1    4    4    0    0 -0.23197660306E+01  0.86652058232E+01 -0.34169354743E+00  0.89768513899E+01  0.00000000000E+00 0.  1.
</event>
<event>
 8    1  0.1269154E-006  0.9118800E+02  0.7816164E-02  0.1184000E+00
        -11   -1    0    0    0    0  0.00000000000E+00  0.00000000000E+00  0.45593999997E+02  0.45594000000E+02  0.51100000000E-03 0.  1.
         11   -1    0    0    0    0 -0.00000000000E+00 -0.00000000000E+00 -0.45593999997E+02  0.45594000000E+02  0.51100000000E-03 0. -1.
         23    2    1    2    0    0  0.17763568394E-14  0.00000000000E+00 -0.71054273576E-14  0.91188000000E+02  0.91188000000E+02 0.  0.
    9900012    2    3    3    0    0 -0.11706243267E+02 -0.13287440638E+02  0.32282927332E+02  0.54367087365E+02  0.40000007266E+02 0.  0.
         12    1    3    3    0    0  0.11706243267E+02  0.13287440638E+02 -0.32282927332E+02  0.36820912635E+02  0.00000000000E+00 0. -1.
         11    1    4    4    0    0 -0.99517538403E+01  0.70456110435E+01 -0.24275993294E+01  0.12432669795E+02  0.51100000000E-03 0. -1.
        -11    1    4    4    0    0 -0.52670127652E+01 -0.16277815293E+02  0.20244730208E+02  0.26505806829E+02  0.51100000000E-03 0.  1.
         12    1    4    4    0    0  0.35125233385E+01 -0.40552363888E+01  0.14465796453E+02  0.15428610741E+02  0.00000000000E+00 0. -1.
</event>
<event>
 8    1  0.1269154E-006  0.9118800E+02  0.7816164E-02  0.1184000E+00
        -11   -1    0    0    0    0  0.00000000000E+00  0.00000000000E+00  0.45593999997E+02  0.45594000000E+02  0.51100000000E-03 0. -1.
         11   -1    0    0    0    0 -0.00000000000E+00 -0.00000000000E+00 -0.45593999997E+02  0.45594000000E+02  0.51100000000E-03 0.  1.
         23    2    1    2    0    0  0.88817841970E-15  0.00000000000E+00  0.00000000000E+00  0.91188000000E+02  0.91188000000E+02 0.  0.
    9900012    2    3    3    0    0  0.36285486283E+01 -0.29129154765E+02 -0.22228451877E+02  0.54367107896E+02  0.40000054071E+02 0.  0.
         12    1    3    3    0    0 -0.36285486283E+01  0.29129154765E+02  0.22228451877E+02  0.36820892104E+02  0.00000000000E+00 0. -1.
         11    1    4    4    0    0  0.12972882591E+02 -0.94290288610E+01 -0.11547387276E+02  0.19762196769E+02  0.51100000000E-03 0. -1.
        -11    1    4    4    0    0  0.29444915292E+01 -0.17959184820E+02 -0.12475318617E+02  0.22064358695E+02  0.51100000000E-03 0.  1.
         12    1    4    4    0    0 -0.12288825492E+02 -0.17409410841E+01  0.17942540156E+01  0.12540552432E+02  0.00000000000E+00 0. -1.
</event>
<event>
 8    1  0.1269154E-006  0.9118800E+02  0.7816164E-02  0.1184000E+00
        -11   -1    0    0    0    0  0.00000000000E+00  0.00000000000E+00  0.45593999997E+02  0.45594000000E+02  0.51100000000E-03 0.  1.
         11   -1    0    0    0    0 -0.00000000000E+00 -0.00000000000E+00 -0.45593999997E+02  0.45594000000E+02  0.51100000000E-03 0. -1.
         23    2    1    2    0    0 -0.88817841970E-15 -0.35527136788E-14  0.35527136788E-14  0.91188000000E+02  0.91188000000E+02 0.  0.
    9900012    2    3    3    0    0 -0.20053500834E+01 -0.30163565876E+02  0.21021836838E+02  0.54367085300E+02  0.40000002558E+02 0.  0.
         12    1    3    3    0    0  0.20053500834E+01  0.30163565876E+02 -0.21021836838E+02  0.36820914700E+02  0.00000000000E+00 0. -1.
         11    1    4    4    0    0 -0.11581935969E+02 -0.17921458483E+02 -0.65630977013E+00  0.21348317445E+02  0.51100000000E-03 0. -1.
        -11    1    4    4    0    0 -0.34192876027E+01  0.13996428271E+01  0.10454057021E+02  0.11087733593E+02  0.51100000000E-03 0.  1.
         12    1    4    4    0    0  0.12995873488E+02 -0.13641750220E+02  0.11224089587E+02  0.21931034262E+02  0.00000000000E+00 0. -1.
</event>
<event>
 8    1  0.1269154E-006  0.9118800E+02  0.7816164E-02  0.1184000E+00
        -11   -1    0    0    0    0  0.00000000000E+00  0.00000000000E+00  0.45593999997E+02  0.45594000000E+02  0.51100000000E-03 0. -1.
         11   -1    0    0    0    0 -0.00000000000E+00 -0.00000000000E+00 -0.45593999997E+02  0.45594000000E+02  0.51100000000E-03 0.  1.
         23    2    1    2    0    0 -0.71054273576E-14 -0.17763568394E-14 -0.44408920985E-15  0.91188000000E+02  0.91188000000E+02 0.  0.
    9900012    2    3    3    0    0  0.34444747421E+02  0.12998901646E+02 -0.60825783275E+00  0.54367054242E+02  0.39999931756E+02 0.  0.
         12    1    3    3    0    0 -0.34444747421E+02 -0.12998901646E+02  0.60825783275E+00  0.36820945758E+02  0.00000000000E+00 0. -1.
         11    1    4    4    0    0 -0.17978316768E+01 -0.41584568593E+01 -0.22386618951E+00  0.45359760274E+01  0.51100000000E-03 0. -1.
        -11    1    4    4    0    0  0.41914943262E+01  0.76962440574E+01 -0.11638185009E+02  0.14568738719E+02  0.51100000000E-03 0.  1.
         12    1    4    4    0    0  0.32051084772E+02  0.94611144477E+01  0.11253793366E+02  0.35262339496E+02  0.00000000000E+00 0. -1.
</event>
<event>
 8    1  0.1269154E-006  0.9118800E+02  0.7816164E-02  0.1184000E+00
        -11   -1    0    0    0    0  0.00000000000E+00  0.00000000000E+00  0.45593999997E+02  0.45594000000E+02  0.51100000000E-03 0. -1.
         11   -1    0    0    0    0 -0.00000000000E+00 -0.00000000000E+00 -0.45593999997E+02  0.45594000000E+02  0.51100000000E-03 0.  1.
         23    2    1    2    0    0  0.35527136788E-14  0.00000000000E+00 -0.35527136788E-14  0.91188000000E+02  0.91188000000E+02 0.  0.
    9900012    2    3    3    0    0  0.23186678233E+02  0.21587135224E+02 -0.18765751689E+02  0.54367083511E+02  0.39999998479E+02 0.  0.
        -12    1    3    3    0    0 -0.23186678233E+02 -0.21587135224E+02  0.18765751689E+02  0.36820916489E+02  0.00000000000E+00 0.  1.
         11    1    4    4    0    0  0.27058954726E+01  0.14099810470E+02 -0.20115722319E+01  0.14497342815E+02  0.51100000000E-03 0.  1.
        -11    1    4    4    0    0  0.17577987147E+02  0.75471608336E+01  0.34668745810E+01  0.19441308814E+02  0.51100000000E-03 0. -1.
        -12    1    4    4    0    0  0.29027956133E+01 -0.59836079069E-01 -0.20221054039E+02  0.20428431882E+02  0.00000000000E+00 0.  1.
</event>
<event>
 8    1  0.1269154E-006  0.9118800E+02  0.7816164E-02  0.1184000E+00
        -11   -1    0    0    0    0  0.00000000000E+00  0.00000000000E+00  0.45593999997E+02  0.45594000000E+02  0.51100000000E-03 0.  1.
         11   -1    0    0    0    0 -0.00000000000E+00 -0.00000000000E+00 -0.45593999997E+02  0.45594000000E+02  0.51100000000E-03 0. -1.
         23    2    1    2    0    0  0.00000000000E+00  0.00000000000E+00  0.00000000000E+00  0.91188000000E+02  0.91188000000E+02 0.  0.
    9900012    2    3    3    0    0 -0.74101352317E+01 -0.68325888724E+01 -0.35414476210E+02  0.54367088820E+02  0.40000010584E+02 0.  0.
        -12    1    3    3    0    0  0.74101352317E+01  0.68325888724E+01  0.35414476210E+02  0.36820911180E+02  0.00000000000E+00 0.  1.
         11    1    4    4    0    0 -0.98627898069E+01 -0.86035399734E+01 -0.12940582479E+02  0.18405276363E+02  0.51100000000E-03 0. -1.
        -11    1    4    4    0    0  0.34386989095E+01  0.14694817687E+02 -0.12786430656E+02  0.19780170025E+02  0.51100000000E-03 0.  1.
        -12    1    4    4    0    0 -0.98604433422E+00 -0.12923866586E+02 -0.96874630752E+01  0.16181642432E+02  0.00000000000E+00 0.  1.
</event>
<event>
 8    1  0.1269154E-006  0.9118800E+02  0.7816164E-02  0.1184000E+00
        -11   -1    0    0    0    0  0.00000000000E+00  0.00000000000E+00  0.45593999997E+02  0.45594000000E+02  0.51100000000E-03 0.  1.
         11   -1    0    0    0    0 -0.00000000000E+00 -0.00000000000E+00 -0.45593999997E+02  0.45594000000E+02  0.51100000000E-03 0. -1.
         23    2    1    2    0    0  0.00000000000E+00 -0.88817841970E-15  0.00000000000E+00  0.91188000000E+02  0.91188000000E+02 0.  0.
    9900012    2    3    3    0    0  0.77398284952E+01 -0.75689779984E+01 -0.35193497666E+02  0.54367127508E+02  0.40000098780E+02 0.  0.
        -12    1    3    3    0    0 -0.77398284952E+01  0.75689779984E+01  0.35193497666E+02  0.36820872492E+02  0.00000000000E+00 0.  1.
         11    1    4    4    0    0 -0.44095809334E-02  0.64677407135E+01 -0.22336360642E+02  0.23253917872E+02  0.51100000000E-03 0. -1.
        -11    1    4    4    0    0 -0.48029740192E+01  0.37039079316E+01 -0.54557180833E+01  0.81579625802E+01  0.51100000000E-03 0.  1.
         12    1    4    4    0    0  0.12547212095E+02 -0.17740626644E+02 -0.74014189410E+01  0.22955247056E+02  0.00000000000E+00 0. -1.
</event>
<event>
 8    1  0.1269154E-006  0.9118800E+02  0.7816164E-02  0.1184000E+00
        -11   -1    0    0    0    0  0.00000000000E+00  0.00000000000E+00  0.45593999997E+02  0.45594000000E+02  0.51100000000E-03 0. -1.
         11   -1    0    0    0    0 -0.00000000000E+00 -0.00000000000E+00 -0.45593999997E+02  0.45594000000E+02  0.51100000000E-03 0.  1.
         23    2    1    2    0    0  0.00000000000E+00  0.00000000000E+00  0.35527136788E-14  0.91188000000E+02  0.91188000000E+02 0.  0.
    9900012    2    3    3    0    0 -0.10294232652E+02  0.15221273115E+02 -0.31908026567E+02  0.54367074692E+02  0.39999978375E+02 0.  0.
         12    1    3    3    0    0  0.10294232652E+02 -0.15221273115E+02  0.31908026567E+02  0.36820925308E+02  0.00000000000E+00 0. -1.
         11    1    4    4    0    0 -0.12711082508E+02  0.28736692231E+01 -0.48574086840E+01  0.13907696168E+02  0.51100000000E-03 0. -1.
        -11    1    4    4    0    0 -0.98076124020E+01 -0.38523772829E+00 -0.23369948335E+01  0.10089559666E+02  0.51100000000E-03 0.  1.
        -12    1    4    4    0    0  0.12224462258E+02  0.12732841620E+02 -0.24713623050E+02  0.30369818858E+02  0.00000000000E+00 0.  1.
</event>
<event>
 8    1  0.1269154E-006  0.9118800E+02  0.7816164E-02  0.1184000E+00
        -11   -1    0    0    0    0  0.00000000000E+00  0.00000000000E+00  0.45593999997E+02  0.45594000000E+02  0.51100000000E-03 0.  1.
         11   -1    0    0    0    0 -0.00000000000E+00 -0.00000000000E+00 -0.45593999997E+02  0.45594000000E+02  0.51100000000E-03 0. -1.
         23    2    1    2    0    0 -0.35527136788E-14  0.35527136788E-14  0.00000000000E+00  0.91188000000E+02  0.91188000000E+02 0.  0.
    9900012    2    3    3    0    0  0.17709241140E+02 -0.25490644162E+02 -0.19808822482E+02  0.54367087332E+02  0.40000007191E+02 0.  0.
        -12    1    3    3    0    0 -0.17709241140E+02  0.25490644162E+02  0.19808822482E+02  0.36820912668E+02  0.00000000000E+00 0.  1.
         11    1    4    4    0    0 -0.32392596408E+01 -0.13428956052E+02 -0.66086253459E+01  0.15313510143E+02  0.51100000000E-03 0. -1.
        -11    1    4    4    0    0  0.34368391030E+01 -0.15864032017E+02  0.89196238805E+00  0.16256536286E+02  0.51100000000E-03 0.  1.
        -12    1    4    4    0    0  0.17511661678E+02  0.38023439067E+01 -0.14092159525E+02  0.22797040904E+02  0.00000000000E+00 0.  1.
</event>
<event>
 8    1  0.1269154E-006  0.9118800E+02  0.7816164E-02  0.1184000E+00
        -11   -1    0    0    0    0  0.00000000000E+00  0.00000000000E+00  0.45593999997E+02  0.45594000000E+02  0.51100000000E-03 0.  1.
         11   -1    0    0    0    0 -0.00000000000E+00 -0.00000000000E+00 -0.45593999997E+02  0.45594000000E+02  0.51100000000E-03 0. -1.
         23    2    1    2    0    0  0.00000000000E+00  0.00000000000E+00  0.17763568394E-14  0.91188000000E+02  0.91188000000E+02 0.  0.
    9900012    2    3    3    0    0  0.34189706731E+02  0.12125964516E+02 -0.63089599529E+01  0.54367108681E+02  0.40000055861E+02 0.  0.
        -12    1    3    3    0    0 -0.34189706731E+02 -0.12125964516E+02  0.63089599529E+01  0.36820891319E+02  0.00000000000E+00 0.  1.
         11    1    4    4    0    0  0.13989193352E+02 -0.78470597894E+00 -0.69629915657E+01  0.15645975390E+02  0.51100000000E-03 0. -1.
        -11    1    4    4    0    0  0.11425492704E+02  0.16286656733E+02  0.12577260445E+02  0.23536876421E+02  0.51100000000E-03 0.  1.
        -12    1    4    4    0    0  0.87750206751E+01 -0.33759862379E+01 -0.11923228832E+02  0.15184256871E+02  0.00000000000E+00 0.  1.
</event>
<event>
 8    1  0.1269154E-006  0.9118800E+02  0.7816164E-02  0.1184000E+00
        -11   -1    0    0    0    0  0.00000000000E+00  0.00000000000E+00  0.45593999997E+02  0.45594000000E+02  0.51100000000E-03 0.  1.
         11   -1    0    0    0    0 -0.00000000000E+00 -0.00000000000E+00 -0.45593999997E+02  0.45594000000E+02  0.51100000000E-03 0. -1.
         23    2    1    2    0    0  0.00000000000E+00 -0.17763568394E-14  0.35527136788E-14  0.91188000000E+02  0.91188000000E+02 0.  0.
    9900012    2    3    3    0    0 -0.25107350541E+02 -0.93855871183E+01  0.25245023765E+02  0.54367088528E+02  0.40000009917E+02 0.  0.
         12    1    3    3    0    0  0.25107350541E+02  0.93855871183E+01 -0.25245023765E+02  0.36820911472E+02  0.00000000000E+00 0. -1.
         11    1    4    4    0    0  0.84177027661E+01  0.22587746217E+01  0.39067195569E+01  0.95510334837E+01  0.51100000000E-03 0. -1.
        -11    1    4    4    0    0 -0.22651019399E+02 -0.29826990865E+01  0.50434005997E+01  0.23396603675E+02  0.51100000000E-03 0.  1.
         12    1    4    4    0    0 -0.10874033908E+02 -0.86616626534E+01  0.16294903608E+02  0.21419451369E+02  0.00000000000E+00 0. -1.
</event>
<event>
 8    1  0.1269154E-006  0.9118800E+02  0.7816164E-02  0.1184000E+00
        -11   -1    0    0    0    0  0.00000000000E+00  0.00000000000E+00  0.45593999997E+02  0.45594000000E+02  0.51100000000E-03 0. -1.
         11   -1    0    0    0    0 -0.00000000000E+00 -0.00000000000E+00 -0.45593999997E+02  0.45594000000E+02  0.51100000000E-03 0.  1.
         23    2    1    2    0    0  0.00000000000E+00  0.00000000000E+00  0.00000000000E+00  0.91188000000E+02  0.91188000000E+02 0.  0.
    9900012    2    3    3    0    0  0.30505175113E+02 -0.26949202873E+01  0.20443848548E+02  0.54367092251E+02  0.40000018404E+02 0.  0.
         12    1    3    3    0    0 -0.30505175113E+02  0.26949202873E+01 -0.20443848548E+02  0.36820907749E+02  0.00000000000E+00 0. -1.
         11    1    4    4    0    0  0.27465928326E+02 -0.12629456244E+01  0.25960244606E+02  0.37814105183E+02  0.51100000000E-03 0. -1.
        -11    1    4    4    0    0  0.83023382223E+01  0.20001734895E+01 -0.57463162239E+00  0.85591889632E+01  0.51100000000E-03 0.  1.
         12    1    4    4    0    0 -0.52630914357E+01 -0.34321481524E+01 -0.49417644357E+01  0.79937981047E+01  0.00000000000E+00 0. -1.
</event>
<event>
 8    1  0.1269154E-006  0.9118800E+02  0.7816164E-02  0.1184000E+00
        -11   -1    0    0    0    0  0.00000000000E+00  0.00000000000E+00  0.45593999997E+02  0.45594000000E+02  0.51100000000E-03 0. -1.
         11   -1    0    0    0    0 -0.00000000000E+00 -0.00000000000E+00 -0.45593999997E+02  0.45594000000E+02  0.51100000000E-03 0.  1.
         23    2    1    2    0    0 -0.17763568394E-14  0.00000000000E+00  0.00000000000E+00  0.91188000000E+02  0.91188000000E+02 0.  0.
    9900012    2    3    3    0    0 -0.15163582627E+02 -0.23858180865E+02  0.23593058726E+02  0.54367089469E+02  0.40000012063E+02 0.  0.
        -12    1    3    3    0    0  0.15163582627E+02  0.23858180865E+02 -0.23593058726E+02  0.36820910531E+02  0.00000000000E+00 0.  1.
         11    1    4    4    0    0 -0.84589631738E+01 -0.29750722105E+02  0.18547101931E+02  0.36064588089E+02  0.51100000000E-03 0. -1.
        -11    1    4    4    0    0 -0.99349412160E+01  0.49670827577E+01 -0.12383181176E+01  0.11176242665E+02  0.51100000000E-03 0.  1.
        -12    1    4    4    0    0  0.32303217629E+01  0.92545848210E+00  0.62842749132E+01  0.71262587153E+01  0.00000000000E+00 0.  1.
</event>
<event>
 8    1  0.1269154E-006  0.9118800E+02  0.7816164E-02  0.1184000E+00
        -11   -1    0    0    0    0  0.00000000000E+00  0.00000000000E+00  0.45593999997E+02  0.45594000000E+02  0.51100000000E-03 0. -1.
         11   -1    0    0    0    0 -0.00000000000E+00 -0.00000000000E+00 -0.45593999997E+02  0.45594000000E+02  0.51100000000E-03 0.  1.
         23    2    1    2    0    0  0.00000000000E+00  0.00000000000E+00  0.00000000000E+00  0.91188000000E+02  0.91188000000E+02 0.  0.
    9900012    2    3    3    0    0  0.30706113849E+02  0.11778459920E+02  0.16558378394E+02  0.54367116784E+02  0.40000074332E+02 0.  0.
        -12    1    3    3    0    0 -0.30706113849E+02 -0.11778459920E+02 -0.16558378394E+02  0.36820883216E+02  0.00000000000E+00 0.  1.
         11    1    4    4    0    0  0.39281595650E+02  0.14756843504E+02  0.10186812273E+02  0.43180775023E+02  0.51100000000E-03 0. -1.
        -11    1    4    4    0    0 -0.83721353849E+01 -0.28103802815E+01  0.58245420958E+01  0.10579044339E+02  0.51100000000E-03 0.  1.
         12    1    4    4    0    0 -0.20334641663E+00 -0.16800330323E+00  0.54702402557E+00  0.60729742269E+00  0.00000000000E+00 0. -1.
</event>
<event>
 8    1  0.1269154E-006  0.9118800E+02  0.7816164E-02  0.1184000E+00
        -11   -1    0    0    0    0  0.00000000000E+00  0.00000000000E+00  0.45593999997E+02  0.45594000000E+02  0.51100000000E-03 0.  1.
         11   -1    0    0    0    0 -0.00000000000E+00 -0.00000000000E+00 -0.45593999997E+02  0.45594000000E+02  0.51100000000E-03 0. -1.
         23    2    1    2    0    0  0.00000000000E+00  0.00000000000E+00  0.00000000000E+00  0.91188000000E+02  0.91188000000E+02 0.  0.
    9900012    2    3    3    0    0 -0.72992578482E+01  0.16895007162E+02  0.31891343584E+02  0.54367106098E+02  0.40000049971E+02 0.  0.
         12    1    3    3    0    0  0.72992578482E+01 -0.16895007162E+02 -0.31891343584E+02  0.36820893902E+02  0.00000000000E+00 0. -1.
         11    1    4    4    0    0 -0.19305922613E+01  0.61932687181E+00 -0.24513597071E+01  0.31811816874E+01  0.51100000000E-03 0. -1.
        -11    1    4    4    0    0 -0.22362740362E+01  0.17900778062E+02  0.14430370935E+01  0.18097544947E+02  0.51100000000E-03 0.  1.
        -12    1    4    4    0    0 -0.31323915507E+01 -0.16250977716E+01  0.32899666198E+02  0.33088379464E+02  0.00000000000E+00 0.  1.
</event>
<event>
 8    1  0.1269154E-006  0.9118800E+02  0.7816164E-02  0.1184000E+00
        -11   -1    0    0    0    0  0.00000000000E+00  0.00000000000E+00  0.45593999997E+02  0.45594000000E+02  0.51100000000E-03 0.  1.
         11   -1    0    0    0    0 -0.00000000000E+00 -0.00000000000E+00 -0.45593999997E+02  0.45594000000E+02  0.51100000000E-03 0. -1.
         23    2    1    2    0    0  0.00000000000E+00 -0.17763568394E-14 -0.17763568394E-14  0.91188000000E+02  0.91188000000E+02 0.  0.
    9900012    2    3    3    0    0  0.31088568372E+02 -0.13046051694E+02 -0.14801431093E+02  0.54367069667E+02  0.39999966919E+02 0.  0.
        -12    1    3    3    0    0 -0.31088568372E+02  0.13046051694E+02  0.14801431093E+02  0.36820930333E+02  0.00000000000E+00 0.  1.
         11    1    4    4    0    0  0.10817194187E+02  0.73071289238E+01 -0.10677579993E+02  0.16864653508E+02  0.51100000000E-03 0. -1.
        -11    1    4    4    0    0  0.19713596572E+02 -0.34290249392E+01  0.25817814818E+00  0.20011265778E+02  0.51100000000E-03 0.  1.
         12    1    4    4    0    0  0.55777761387E+00 -0.16924155678E+02 -0.43820292478E+01  0.17491150380E+02  0.00000000000E+00 0. -1.
</event>
<event>
 8    1  0.1269154E-006  0.9118800E+02  0.7816164E-02  0.1184000E+00
        -11   -1    0    0    0    0  0.00000000000E+00  0.00000000000E+00  0.45593999997E+02  0.45594000000E+02  0.51100000000E-03 0.  1.
         11   -1    0    0    0    0 -0.00000000000E+00 -0.00000000000E+00 -0.45593999997E+02  0.45594000000E+02  0.51100000000E-03 0. -1.
         23    2    1    2    0    0  0.17763568394E-14  0.88817841970E-15  0.00000000000E+00  0.91188000000E+02  0.91188000000E+02 0.  0.
    9900012    2    3    3    0    0  0.10188238521E+02  0.72289715352E+01 -0.34636996889E+02  0.54367084923E+02  0.40000001699E+02 0.  0.
        -12    1    3    3    0    0 -0.10188238521E+02 -0.72289715352E+01  0.34636996889E+02  0.36820915077E+02  0.00000000000E+00 0.  1.
         11    1    4    4    0    0 -0.22861007061E+01  0.32620228756E+01  0.33272033017E+01  0.51901186645E+01  0.51100000000E-03 0. -1.
        -11    1    4    4    0    0 -0.20003518282E+01  0.38113480161E+01  0.33151854371E+01  0.54330687351E+01  0.51100000000E-03 0.  1.
         12    1    4    4    0    0  0.14474691055E+02  0.15560064336E+00 -0.41279385628E+02  0.43743897523E+02  0.00000000000E+00 0. -1.
</event>
<event>
 8    1  0.1269154E-006  0.9118800E+02  0.7816164E-02  0.1184000E+00
        -11   -1    0    0    0    0  0.00000000000E+00  0.00000000000E+00  0.45593999997E+02  0.45594000000E+02  0.51100000000E-03 0. -1.
         11   -1    0    0    0    0 -0.00000000000E+00 -0.00000000000E+00 -0.45593999997E+02  0.45594000000E+02  0.51100000000E-03 0.  1.
         23    2    1    2    0    0 -0.35527136788E-14  0.35527136788E-14  0.00000000000E+00  0.91188000000E+02  0.91188000000E+02 0.  0.
    9900012    2    3    3    0    0 -0.26796181085E+02 -0.23658806589E+02 -0.88320871753E+01  0.54367079128E+02  0.39999988488E+02 0.  0.
         12    1    3    3    0    0  0.26796181085E+02  0.23658806589E+02  0.88320871753E+01  0.36820920872E+02  0.00000000000E+00 0. -1.
         11    1    4    4    0    0 -0.34357497392E+01  0.25895108566E+01  0.18098195213E+01  0.46674821593E+01  0.51100000000E-03 0. -1.
        -11    1    4    4    0    0 -0.29731886328E+02 -0.28624612729E+02 -0.66204667084E+01  0.41799331313E+02  0.51100000000E-03 0.  1.
        -12    1    4    4    0    0  0.63714549813E+01  0.23762952837E+01 -0.40214399882E+01  0.79002656558E+01  0.00000000000E+00 0.  1.
</event>
<event>
 8    1  0.1269154E-006  0.9118800E+02  0.7816164E-02  0.1184000E+00
        -11   -1    0    0    0    0  0.00000000000E+00  0.00000000000E+00  0.45593999997E+02  0.45594000000E+02  0.51100000000E-03 0.  1.
         11   -1    0    0    0    0 -0.00000000000E+00 -0.00000000000E+00 -0.45593999997E+02  0.45594000000E+02  0.51100000000E-03 0. -1.
         23    2    1    2    0    0 -0.88817841970E-15  0.00000000000E+00 -0.88817841970E-15  0.91188000000E+02  0.91188000000E+02 0.  0.
    9900012    2    3    3    0    0  0.62645874945E+01  0.35734175418E+02  0.62931146631E+01  0.54367086901E+02  0.40000006208E+02 0.  0.
         12    1    3    3    0    0 -0.62645874945E+01 -0.35734175418E+02 -0.62931146631E+01  0.36820913099E+02  0.00000000000E+00 0. -1.
         11    1    4    4    0    0 -0.78659587670E+01  0.28832880680E+02  0.10439431810E+02  0.31657385433E+02  0.51100000000E-03 0. -1.
        -11    1    4    4    0    0  0.37338654840E+00 -0.39987889388E+01  0.14766529777E+01  0.42790460116E+01  0.51100000000E-03 0.  1.
         12    1    4    4    0    0  0.13757159713E+02  0.10900083677E+02 -0.56229701248E+01  0.18430655456E+02  0.00000000000E+00 0. -1.
</event>
<event>
 8    1  0.1269154E-006  0.9118800E+02  0.7816164E-02  0.1184000E+00
        -11   -1    0    0    0    0  0.00000000000E+00  0.00000000000E+00  0.45593999997E+02  0.45594000000E+02  0.51100000000E-03 0.  1.
         11   -1    0    0    0    0 -0.00000000000E+00 -0.00000000000E+00 -0.45593999997E+02  0.45594000000E+02  0.51100000000E-03 0. -1.
         23    2    1    2    0    0  0.00000000000E+00  0.00000000000E+00 -0.44408920985E-15  0.91188000000E+02  0.91188000000E+02 0.  0.
    9900012    2    3    3    0    0 -0.32874490882E+02  0.16433675603E+02 -0.22320643777E+01  0.54367082631E+02  0.39999996473E+02 0.  0.
        -12    1    3    3    0    0  0.32874490882E+02 -0.16433675603E+02  0.22320643777E+01  0.36820917369E+02  0.00000000000E+00 0.  1.
         11    1    4    4    0    0 -0.15221076961E+02 -0.11133420723E+01 -0.26993775529E+01  0.15498624256E+02  0.51100000000E-03 0. -1.
        -11    1    4    4    0    0  0.66958466076E+01  0.39732310712E+01 -0.64901698215E+01  0.10136233596E+02  0.51100000000E-03 0.  1.
        -12    1    4    4    0    0 -0.24349260529E+02  0.13573786604E+02  0.69574829967E+01  0.28732224778E+02  0.00000000000E+00 0.  1.
</event>
<event>
 8    1  0.1269154E-006  0.9118800E+02  0.7816164E-02  0.1184000E+00
        -11   -1    0    0    0    0  0.00000000000E+00  0.00000000000E+00  0.45593999997E+02  0.45594000000E+02  0.51100000000E-03 0. -1.
         11   -1    0    0    0    0 -0.00000000000E+00 -0.00000000000E+00 -0.45593999997E+02  0.45594000000E+02  0.51100000000E-03 0.  1.
         23    2    1    2    0    0  0.00000000000E+00  0.00000000000E+00 -0.44408920985E-15  0.91188000000E+02  0.91188000000E+02 0.  0.
    9900012    2    3    3    0    0  0.73976435581E+01 -0.35995051452E+02  0.23257696223E+01  0.54367108327E+02  0.40000055053E+02 0.  0.
        -12    1    3    3    0    0 -0.73976435581E+01  0.35995051452E+02 -0.23257696223E+01  0.36820891673E+02  0.00000000000E+00 0.  1.
         11    1    4    4    0    0  0.61204197931E+01 -0.38469978598E+02  0.96302089001E+01  0.40126546269E+02  0.51100000000E-03 0. -1.
        -11    1    4    4    0    0  0.51534867755E-01 -0.40957636828E+01 -0.62517969824E+01  0.74741488986E+01  0.51100000000E-03 0.  1.
         12    1    4    4    0    0  0.12256888973E+01  0.65706908284E+01 -0.10526422954E+01  0.67664131590E+01  0.00000000000E+00 0. -1.
</event>
<event>
 8    1  0.1269154E-006  0.9118800E+02  0.7816164E-02  0.1184000E+00
        -11   -1    0    0    0    0  0.00000000000E+00  0.00000000000E+00  0.45593999997E+02  0.45594000000E+02  0.51100000000E-03 0. -1.
         11   -1    0    0    0    0 -0.00000000000E+00 -0.00000000000E+00 -0.45593999997E+02  0.45594000000E+02  0.51100000000E-03 0.  1.
         23    2    1    2    0    0  0.00000000000E+00  0.00000000000E+00  0.00000000000E+00  0.91188000000E+02  0.91188000000E+02 0.  0.
    9900012    2    3    3    0    0  0.17083768875E+02 -0.27347305015E+02  0.17777789302E+02  0.54367081448E+02  0.39999993777E+02 0.  0.
        -12    1    3    3    0    0 -0.17083768875E+02  0.27347305015E+02 -0.17777789302E+02  0.36820918552E+02  0.00000000000E+00 0.  1.
         11    1    4    4    0    0  0.22694230240E+01 -0.20779759851E+02  0.90847924904E+01  0.22792151175E+02  0.51100000000E-03 0. -1.
        -11    1    4    4    0    0  0.20731609927E+02 -0.19296309962E+00  0.95671185459E+01  0.22833454457E+02  0.51100000000E-03 0.  1.
        -12    1    4    4    0    0 -0.59172640761E+01 -0.63745820641E+01 -0.87412173433E+00  0.87414758162E+01  0.00000000000E+00 0.  1.
</event>
<event>
 8    1  0.1269154E-006  0.9118800E+02  0.7816164E-02  0.1184000E+00
        -11   -1    0    0    0    0  0.00000000000E+00  0.00000000000E+00  0.45593999997E+02  0.45594000000E+02  0.51100000000E-03 0.  1.
         11   -1    0    0    0    0 -0.00000000000E+00 -0.00000000000E+00 -0.45593999997E+02  0.45594000000E+02  0.51100000000E-03 0. -1.
         23    2    1    2    0    0  0.00000000000E+00  0.00000000000E+00  0.88817841970E-15  0.91188000000E+02  0.91188000000E+02 0.  0.
    9900012    2    3    3    0    0  0.11083985913E+02 -0.34304021268E+02 -0.74946399295E+01  0.54366942892E+02  0.39999677911E+02 0.  0.
         12    1    3    3    0    0 -0.11083985913E+02  0.34304021268E+02  0.74946399295E+01  0.36821057108E+02  0.00000000000E+00 0. -1.
         11    1    4    4    0    0 -0.27066756563E+00 -0.68388900493E+01 -0.15381960543E+02  0.16835925529E+02  0.51100000000E-03 0. -1.
        -11    1    4    4    0    0  0.48562530429E+01 -0.14951685583E+02  0.15008535746E+02  0.21734586283E+02  0.51100000000E-03 0.  1.
        -12    1    4    4    0    0  0.64984004357E+01 -0.12513445636E+02 -0.71212151332E+01  0.15796431080E+02  0.00000000000E+00 0.  1.
</event>
<event>
 8    1  0.1269154E-006  0.9118800E+02  0.7816164E-02  0.1184000E+00
        -11   -1    0    0    0    0  0.00000000000E+00  0.00000000000E+00  0.45593999997E+02  0.45594000000E+02  0.51100000000E-03 0. -1.
         11   -1    0    0    0    0 -0.00000000000E+00 -0.00000000000E+00 -0.45593999997E+02  0.45594000000E+02  0.51100000000E-03 0.  1.
         23    2    1    2    0    0  0.00000000000E+00  0.00000000000E+00  0.00000000000E+00  0.91188000000E+02  0.91188000000E+02 0.  0.
    9900012    2    3    3    0    0  0.14265727184E+02 -0.13889026259E+02 -0.30973600841E+02  0.54367082418E+02  0.39999995988E+02 0.  0.
         12    1    3    3    0    0 -0.14265727184E+02  0.13889026259E+02  0.30973600841E+02  0.36820917582E+02  0.00000000000E+00 0. -1.
         11    1    4    4    0    0  0.54944962362E+01  0.11236522233E+02 -0.21594593359E+02  0.24955468006E+02  0.51100000000E-03 0. -1.
        -11    1    4    4    0    0  0.68774028195E+01 -0.21054548054E+02 -0.41767312074E+01  0.22539692703E+02  0.51100000000E-03 0.  1.
         12    1    4    4    0    0  0.18938281285E+01 -0.40710004380E+01 -0.52022762746E+01  0.68719217097E+01  0.00000000000E+00 0. -1.
</event>
<event>
 8    1  0.1269154E-006  0.9118800E+02  0.7816164E-02  0.1184000E+00
        -11   -1    0    0    0    0  0.00000000000E+00  0.00000000000E+00  0.45593999997E+02  0.45594000000E+02  0.51100000000E-03 0.  1.
         11   -1    0    0    0    0 -0.00000000000E+00 -0.00000000000E+00 -0.45593999997E+02  0.45594000000E+02  0.51100000000E-03 0. -1.
         23    2    1    2    0    0 -0.35527136788E-14 -0.17763568394E-14  0.00000000000E+00  0.91188000000E+02  0.91188000000E+02 0.  0.
    9900012    2    3    3    0    0  0.17959684597E+02 -0.14723665944E+02  0.28573432532E+02  0.54367113857E+02  0.40000067660E+02 0.  0.
         12    1    3    3    0    0 -0.17959684597E+02  0.14723665944E+02 -0.28573432532E+02  0.36820886143E+02  0.00000000000E+00 0. -1.
         11    1    4    4    0    0  0.18968535626E+01 -0.91787418259E+01  0.15365616237E+02  0.17998597655E+02  0.51100000000E-03 0. -1.
        -11    1    4    4    0    0  0.21401266330E+02 -0.12589067088E+02  0.11514126175E+02  0.27369214686E+02  0.51100000000E-03 0.  1.
         12    1    4    4    0    0 -0.53384352950E+01  0.70441429691E+01  0.16936901201E+01  0.89993015168E+01  0.00000000000E+00 0. -1.
</event>
<event>
 8    1  0.1269154E-006  0.9118800E+02  0.7816164E-02  0.1184000E+00
        -11   -1    0    0    0    0  0.00000000000E+00  0.00000000000E+00  0.45593999997E+02  0.45594000000E+02  0.51100000000E-03 0. -1.
         11   -1    0    0    0    0 -0.00000000000E+00 -0.00000000000E+00 -0.45593999997E+02  0.45594000000E+02  0.51100000000E-03 0.  1.
         23    2    1    2    0    0  0.00000000000E+00  0.00000000000E+00  0.17763568394E-14  0.91188000000E+02  0.91188000000E+02 0.  0.
    9900012    2    3    3    0    0  0.16609824511E+02 -0.30065629046E+02 -0.13264723036E+02  0.54367065772E+02  0.39999958040E+02 0.  0.
        -12    1    3    3    0    0 -0.16609824511E+02  0.30065629046E+02  0.13264723036E+02  0.36820934228E+02  0.00000000000E+00 0.  1.
         11    1    4    4    0    0  0.19561895981E+02 -0.78835987033E+01 -0.15115183759E+02  0.25947787636E+02  0.51100000000E-03 0. -1.
        -11    1    4    4    0    0 -0.34264665573E+01  0.73996660474E+00  0.40859954724E+01  0.53836403025E+01  0.51100000000E-03 0.  1.
         12    1    4    4    0    0  0.47439508790E+00 -0.22921996947E+02 -0.22355347494E+01  0.23035637833E+02  0.00000000000E+00 0. -1.
</event>
<event>
 8    1  0.1269154E-006  0.9118800E+02  0.7816164E-02  0.1184000E+00
        -11   -1    0    0    0    0  0.00000000000E+00  0.00000000000E+00  0.45593999997E+02  0.45594000000E+02  0.51100000000E-03 0.  1.
         11   -1    0    0    0    0 -0.00000000000E+00 -0.00000000000E+00 -0.45593999997E+02  0.45594000000E+02  0.51100000000E-03 0. -1.
         23    2    1    2    0    0  0.22204460493E-15 -0.35527136788E-14  0.00000000000E+00  0.91188000000E+02  0.91188000000E+02 0.  0.
    9900012    2    3    3    0    0 -0.19287013431E+01  0.17762184176E+02 -0.32195719131E+02  0.54367090099E+02  0.40000013499E+02 0.  0.
        -12    1    3    3    0    0  0.19287013431E+01 -0.17762184176E+02  0.32195719131E+02  0.36820909901E+02  0.00000000000E+00 0.  1.
         11    1    4    4    0    0 -0.72682401861E+00 -0.66109787091E+01 -0.68718047322E+01  0.95632114472E+01  0.51100000000E-03 0. -1.
        -11    1    4    4    0    0 -0.12895677066E+01 -0.58731778369E+01 -0.77964072141E+01  0.98458706311E+01  0.51100000000E-03 0.  1.
         12    1    4    4    0    0  0.87690382065E-01  0.30246340722E+02 -0.17527507184E+02  0.34958008021E+02  0.00000000000E+00 0. -1.
</event>
<event>
 8    1  0.1269154E-006  0.9118800E+02  0.7816164E-02  0.1184000E+00
        -11   -1    0    0    0    0  0.00000000000E+00  0.00000000000E+00  0.45593999997E+02  0.45594000000E+02  0.51100000000E-03 0.  1.
         11   -1    0    0    0    0 -0.00000000000E+00 -0.00000000000E+00 -0.45593999997E+02  0.45594000000E+02  0.51100000000E-03 0. -1.
         23    2    1    2    0    0 -0.17763568394E-14  0.00000000000E+00  0.00000000000E+00  0.91188000000E+02  0.91188000000E+02 0.  0.
    9900012    2    3    3    0    0 -0.13567832880E+02 -0.18999686907E+02  0.28472874687E+02  0.54367098537E+02  0.40000032734E+02 0.  0.
         12    1    3    3    0    0  0.13567832880E+02  0.18999686907E+02 -0.28472874687E+02  0.36820901463E+02  0.00000000000E+00 0. -1.
         11    1    4    4    0    0  0.46560795880E+00  0.10285877161E+01  0.33241098828E+01  0.35106253339E+01  0.51100000000E-03 0. -1.
        -11    1    4    4    0    0 -0.24287928449E+02 -0.45466941399E+01  0.91636872315E+01  0.26354298699E+02  0.51100000000E-03 0.  1.
         12    1    4    4    0    0  0.10254487611E+02 -0.15481580483E+02  0.15985077573E+02  0.24502174504E+02  0.00000000000E+00 0. -1.
</event>
<event>
 8    1  0.1269154E-006  0.9118800E+02  0.7816164E-02  0.1184000E+00
        -11   -1    0    0    0    0  0.00000000000E+00  0.00000000000E+00  0.45593999997E+02  0.45594000000E+02  0.51100000000E-03 0.  1.
         11   -1    0    0    0    0 -0.00000000000E+00 -0.00000000000E+00 -0.45593999997E+02  0.45594000000E+02  0.51100000000E-03 0. -1.
         23    2    1    2    0    0  0.00000000000E+00 -0.88817841970E-15  0.00000000000E+00  0.91188000000E+02  0.91188000000E+02 0.  0.
    9900012    2    3    3    0    0  0.35097999674E+02  0.78930220618E+01  0.78492892046E+01  0.54367072263E+02  0.39999972838E+02 0.  0.
         12    1    3    3    0    0 -0.35097999674E+02 -0.78930220618E+01 -0.78492892046E+01  0.36820927737E+02  0.00000000000E+00 0. -1.
         11    1    4    4    0    0 -0.22323144228E+01  0.72203528387E+01 -0.98562382795E+00  0.76215600364E+01  0.51100000000E-03 0. -1.
        -11    1    4    4    0    0  0.63662552946E+01 -0.78178517679E+01 -0.56110737620E+01  0.11538291111E+02  0.51100000000E-03 0.  1.
        -12    1    4    4    0    0  0.30964058802E+02  0.84905209910E+01  0.14445986795E+02  0.35207221116E+02  0.00000000000E+00 0.  1.
</event>
<event>
 8    1  0.1269154E-006  0.9118800E+02  0.7816164E-02  0.1184000E+00
        -11   -1    0    0    0    0  0.00000000000E+00  0.00000000000E+00  0.45593999997E+02  0.45594000000E+02  0.51100000000E-03 0.  1.
         11   -1    0    0    0    0 -0.00000000000E+00 -0.00000000000E+00 -0.45593999997E+02  0.45594000000E+02  0.51100000000E-03 0. -1.
         23    2    1    2    0    0  0.00000000000E+00  0.00000000000E+00 -0.17763568394E-14  0.91188000000E+02  0.91188000000E+02 0.  0.
    9900012    2    3    3    0    0  0.10771204252E+02 -0.33676249771E+02  0.10279712167E+02  0.54367066797E+02  0.39999960378E+02 0.  0.
        -12    1    3    3    0    0 -0.10771204252E+02  0.33676249771E+02 -0.10279712167E+02  0.36820933203E+02  0.00000000000E+00 0.  1.
         11    1    4    4    0    0  0.14727235648E+02 -0.38526869384E+02  0.48008145237E+01  0.41524197219E+02  0.51100000000E-03 0. -1.
        -11    1    4    4    0    0 -0.18503183812E+01  0.25448543973E+01  0.81483673256E+01  0.87347497016E+01  0.51100000000E-03 0.  1.
         12    1    4    4    0    0 -0.21057130150E+01  0.23057652155E+01 -0.26694696827E+01  0.41081198762E+01  0.00000000000E+00 0. -1.
</event>
<event>
 8    1  0.1269154E-006  0.9118800E+02  0.7816164E-02  0.1184000E+00
        -11   -1    0    0    0    0  0.00000000000E+00  0.00000000000E+00  0.45593999997E+02  0.45594000000E+02  0.51100000000E-03 0. -1.
         11   -1    0    0    0    0 -0.00000000000E+00 -0.00000000000E+00 -0.45593999997E+02  0.45594000000E+02  0.51100000000E-03 0.  1.
         23    2    1    2    0    0  0.00000000000E+00  0.00000000000E+00  0.71054273576E-14  0.91188000000E+02  0.91188000000E+02 0.  0.
    9900012    2    3    3    0    0 -0.21164950181E+01 -0.90958454851E+01  0.35616930699E+02  0.54367085988E+02  0.40000004127E+02 0.  0.
        -12    1    3    3    0    0  0.21164950181E+01  0.90958454851E+01 -0.35616930699E+02  0.36820914012E+02  0.00000000000E+00 0.  1.
         11    1    4    4    0    0 -0.20634886386E+01 -0.23219288618E+01  0.35688568011E+02  0.35823501028E+02  0.51100000000E-03 0. -1.
        -11    1    4    4    0    0  0.41889122639E+01  0.11782170467E+01 -0.62505918472E+01  0.76161066212E+01  0.51100000000E-03 0.  1.
         12    1    4    4    0    0 -0.42419186434E+01 -0.79521336701E+01  0.61789545356E+01  0.10927478338E+02  0.00000000000E+00 0. -1.
</event>
<event>
 8    1  0.1269154E-006  0.9118800E+02  0.7816164E-02  0.1184000E+00
        -11   -1    0    0    0    0  0.00000000000E+00  0.00000000000E+00  0.45593999997E+02  0.45594000000E+02  0.51100000000E-03 0.  1.
         11   -1    0    0    0    0 -0.00000000000E+00 -0.00000000000E+00 -0.45593999997E+02  0.45594000000E+02  0.51100000000E-03 0. -1.
         23    2    1    2    0    0  0.00000000000E+00  0.00000000000E+00  0.00000000000E+00  0.91188000000E+02  0.91188000000E+02 0.  0.
    9900012    2    3    3    0    0  0.19863161064E+02 -0.30780337971E+02  0.37153824586E+01  0.54367103218E+02  0.40000043405E+02 0.  0.
        -12    1    3    3    0    0 -0.19863161064E+02  0.30780337971E+02 -0.37153824586E+01  0.36820896782E+02  0.00000000000E+00 0.  1.
         11    1    4    4    0    0  0.40121509558E+01 -0.21114276726E+02 -0.61056575407E+01  0.22342539946E+02  0.51100000000E-03 0. -1.
        -11    1    4    4    0    0  0.42364192775E+01  0.18545589001E+01  0.14328038283E+02  0.15055873216E+02  0.51100000000E-03 0.  1.
        -12    1    4    4    0    0  0.11614590831E+02 -0.11520620144E+02 -0.45069982835E+01  0.16968690055E+02  0.00000000000E+00 0.  1.
</event>
<event>
 8    1  0.1269154E-006  0.9118800E+02  0.7816164E-02  0.1184000E+00
        -11   -1    0    0    0    0  0.00000000000E+00  0.00000000000E+00  0.45593999997E+02  0.45594000000E+02  0.51100000000E-03 0.  1.
         11   -1    0    0    0    0 -0.00000000000E+00 -0.00000000000E+00 -0.45593999997E+02  0.45594000000E+02  0.51100000000E-03 0. -1.
         23    2    1    2    0    0  0.17763568394E-14  0.00000000000E+00  0.00000000000E+00  0.91188000000E+02  0.91188000000E+02 0.  0.
    9900012    2    3    3    0    0  0.14320707485E+02 -0.10518750427E+01 -0.33905616046E+02  0.54367083343E+02  0.39999998098E+02 0.  0.
        -12    1    3    3    0    0 -0.14320707485E+02  0.10518750427E+01  0.33905616046E+02  0.36820916657E+02  0.00000000000E+00 0.  1.
         11    1    4    4    0    0  0.18016347777E+02  0.11565221573E+01 -0.44200126459E+01  0.18586630754E+02  0.51100000000E-03 0. -1.
        -11    1    4    4    0    0  0.50904996886E+01 -0.67611541283E+00 -0.16982141537E+00  0.51380111624E+01  0.51100000000E-03 0.  1.
         12    1    4    4    0    0 -0.87861399809E+01 -0.15322817871E+01 -0.29315781985E+02  0.30642441427E+02  0.00000000000E+00 0. -1.
</event>
<event>
 8    1  0.1269154E-006  0.9118800E+02  0.7816164E-02  0.1184000E+00
        -11   -1    0    0    0    0  0.00000000000E+00  0.00000000000E+00  0.45593999997E+02  0.45594000000E+02  0.51100000000E-03 0.  1.
         11   -1    0    0    0    0 -0.00000000000E+00 -0.00000000000E+00 -0.45593999997E+02  0.45594000000E+02  0.51100000000E-03 0. -1.
         23    2    1    2    0    0  0.00000000000E+00  0.00000000000E+00  0.00000000000E+00  0.91188000000E+02  0.91188000000E+02 0.  0.
    9900012    2    3    3    0    0  0.26470932303E+02 -0.90667452340E+01 -0.23934533140E+02  0.54367109153E+02  0.40000056937E+02 0.  0.
        -12    1    3    3    0    0 -0.26470932303E+02  0.90667452340E+01  0.23934533140E+02  0.36820890847E+02  0.00000000000E+00 0.  1.
         11    1    4    4    0    0  0.30614897232E+02 -0.84110346223E+01 -0.25881246147E+02  0.40961644722E+02  0.51100000000E-03 0. -1.
        -11    1    4    4    0    0 -0.20514643262E+01 -0.51888421875E+01 -0.30356343327E+01  0.63519812021E+01  0.51100000000E-03 0.  1.
         12    1    4    4    0    0 -0.20925006030E+01  0.45331315758E+01  0.49823473397E+01  0.70534832296E+01  0.00000000000E+00 0. -1.
</event>
<event>
 8    1  0.1269154E-006  0.9118800E+02  0.7816164E-02  0.1184000E+00
        -11   -1    0    0    0    0  0.00000000000E+00  0.00000000000E+00  0.45593999997E+02  0.45594000000E+02  0.51100000000E-03 0.  1.
         11   -1    0    0    0    0 -0.00000000000E+00 -0.00000000000E+00 -0.45593999997E+02  0.45594000000E+02  0.51100000000E-03 0. -1.
         23    2    1    2    0    0  0.00000000000E+00 -0.17763568394E-14  0.00000000000E+00  0.91188000000E+02  0.91188000000E+02 0.  0.
    9900012    2    3    3    0    0  0.57637089683E+01 -0.13682501902E+02 -0.33694970456E+02  0.54367051704E+02  0.39999925970E+02 0.  0.
        -12    1    3    3    0    0 -0.57637089683E+01  0.13682501902E+02  0.33694970456E+02  0.36820948296E+02  0.00000000000E+00 0.  1.
         11    1    4    4    0    0  0.66535328140E+01 -0.21112173365E+02 -0.32276783775E+02  0.39138013927E+02  0.51100000000E-03 0. -1.
        -11    1    4    4    0    0  0.72247367982E+00 -0.23977905018E+01  0.33540532441E+01  0.41858142498E+01  0.51100000000E-03 0.  1.
         12    1    4    4    0    0 -0.16122975255E+01  0.98274619641E+01 -0.47722399253E+01  0.11043223527E+02  0.00000000000E+00 0. -1.
</event>
<event>
 8    1  0.1269154E-006  0.9118800E+02  0.7816164E-02  0.1184000E+00
        -11   -1    0    0    0    0  0.00000000000E+00  0.00000000000E+00  0.45593999997E+02  0.45594000000E+02  0.51100000000E-03 0.  1.
         11   -1    0    0    0    0 -0.00000000000E+00 -0.00000000000E+00 -0.45593999997E+02  0.45594000000E+02  0.51100000000E-03 0. -1.
         23    2    1    2    0    0 -0.88817841970E-15 -0.17763568394E-14  0.00000000000E+00  0.91188000000E+02  0.91188000000E+02 0.  0.
    9900012    2    3    3    0    0 -0.50150062919E+01 -0.84132452001E+01  0.35494334235E+02  0.54367071906E+02  0.39999972025E+02 0.  0.
         12    1    3    3    0    0  0.50150062919E+01  0.84132452001E+01 -0.35494334235E+02  0.36820928094E+02  0.00000000000E+00 0. -1.
         11    1    4    4    0    0 -0.89209221440E+01 -0.12232920488E+01  0.95174962391E-01  0.90049072105E+01  0.51100000000E-03 0. -1.
        -11    1    4    4    0    0 -0.44456282401E+01  0.81056719621E+01  0.55063428099E+01  0.10760359650E+02  0.51100000000E-03 0.  1.
        -12    1    4    4    0    0  0.83515440922E+01 -0.15295625113E+02  0.29892816463E+02  0.34601805045E+02  0.00000000000E+00 0.  1.
</event>
<event>
 8    1  0.1269154E-006  0.9118800E+02  0.7816164E-02  0.1184000E+00
        -11   -1    0    0    0    0  0.00000000000E+00  0.00000000000E+00  0.45593999997E+02  0.45594000000E+02  0.51100000000E-03 0.  1.
         11   -1    0    0    0    0 -0.00000000000E+00 -0.00000000000E+00 -0.45593999997E+02  0.45594000000E+02  0.51100000000E-03 0. -1.
         23    2    1    2    0    0  0.00000000000E+00  0.00000000000E+00  0.00000000000E+00  0.91188000000E+02  0.91188000000E+02 0.  0.
    9900012    2    3    3    0    0 -0.13289444075E+02 -0.24525248130E+02  0.24035046383E+02  0.54367074233E+02  0.39999977330E+02 0.  0.
         12    1    3    3    0    0  0.13289444075E+02  0.24525248130E+02 -0.24035046383E+02  0.36820925767E+02  0.00000000000E+00 0. -1.
         11    1    4    4    0    0 -0.17819877925E+02 -0.16374120543E+02  0.25719755369E+01  0.24336699268E+02  0.51100000000E-03 0. -1.
        -11    1    4    4    0    0  0.91468401448E+01 -0.11647379893E+02  0.12606732911E+02  0.19448800939E+02  0.51100000000E-03 0.  1.
         12    1    4    4    0    0 -0.46164062952E+01  0.34962523059E+01  0.88563379346E+01  0.10581574027E+02  0.00000000000E+00 0. -1.
</event>
<event>
 8    1  0.1269154E-006  0.9118800E+02  0.7816164E-02  0.1184000E+00
        -11   -1    0    0    0    0  0.00000000000E+00  0.00000000000E+00  0.45593999997E+02  0.45594000000E+02  0.51100000000E-03 0. -1.
         11   -1    0    0    0    0 -0.00000000000E+00 -0.00000000000E+00 -0.45593999997E+02  0.45594000000E+02  0.51100000000E-03 0.  1.
         23    2    1    2    0    0  0.00000000000E+00  0.00000000000E+00  0.71054273576E-14  0.91188000000E+02  0.91188000000E+02 0.  0.
    9900012    2    3    3    0    0  0.22086722464E+02 -0.54766373834E+01 -0.28947606833E+02  0.54367071066E+02  0.39999970108E+02 0.  0.
         12    1    3    3    0    0 -0.22086722464E+02  0.54766373834E+01  0.28947606833E+02  0.36820928934E+02  0.00000000000E+00 0. -1.
         11    1    4    4    0    0  0.70973770342E+01 -0.21606927424E+01 -0.33989148866E+02  0.34789417856E+02  0.51100000000E-03 0.  1.
        -11    1    4    4    0    0  0.15055849441E+02 -0.17997739245E+00  0.61307953196E+01  0.16257233644E+02  0.51100000000E-03 0. -1.
        -12    1    4    4    0    0 -0.66504010689E-01 -0.31359672486E+01 -0.10892532868E+01  0.33204195654E+01  0.00000000000E+00 0.  1.
</event>
<event>
 8    1  0.1269154E-006  0.9118800E+02  0.7816164E-02  0.1184000E+00
        -11   -1    0    0    0    0  0.00000000000E+00  0.00000000000E+00  0.45593999997E+02  0.45594000000E+02  0.51100000000E-03 0.  1.
         11   -1    0    0    0    0 -0.00000000000E+00 -0.00000000000E+00 -0.45593999997E+02  0.45594000000E+02  0.51100000000E-03 0. -1.
         23    2    1    2    0    0  0.00000000000E+00  0.00000000000E+00  0.00000000000E+00  0.91188000000E+02  0.91188000000E+02 0.  0.
    9900012    2    3    3    0    0 -0.33089628152E+02 -0.12164186114E+02  0.10624988952E+02  0.54367064308E+02  0.39999954702E+02 0.  0.
        -12    1    3    3    0    0  0.33089628152E+02  0.12164186114E+02 -0.10624988952E+02  0.36820935692E+02  0.00000000000E+00 0.  1.
         11    1    4    4    0    0 -0.17229097141E+01  0.38822698274E+01  0.35710784255E+00  0.42623893731E+01  0.51100000000E-03 0. -1.
        -11    1    4    4    0    0 -0.14001881935E+02  0.71534975291E+01 -0.60502095146E+01  0.16847262687E+02  0.51100000000E-03 0.  1.
         12    1    4    4    0    0 -0.17364836502E+02 -0.23199953470E+02  0.16318090624E+02  0.33257412247E+02  0.00000000000E+00 0. -1.
</event>
<event>
 8    1  0.1269154E-006  0.9118800E+02  0.7816164E-02  0.1184000E+00
        -11   -1    0    0    0    0  0.00000000000E+00  0.00000000000E+00  0.45593999997E+02  0.45594000000E+02  0.51100000000E-03 0. -1.
         11   -1    0    0    0    0 -0.00000000000E+00 -0.00000000000E+00 -0.45593999997E+02  0.45594000000E+02  0.51100000000E-03 0.  1.
         23    2    1    2    0    0  0.16653345369E-14  0.00000000000E+00  0.00000000000E+00  0.91188000000E+02  0.91188000000E+02 0.  0.
    9900012    2    3    3    0    0 -0.90732253307E+00  0.25100119701E+02  0.26924737818E+02  0.54367071851E+02  0.39999971899E+02 0.  0.
        -12    1    3    3    0    0  0.90732253307E+00 -0.25100119701E+02 -0.26924737818E+02  0.36820928149E+02  0.00000000000E+00 0.  1.
         11    1    4    4    0    0  0.12962888451E+02 -0.45241655142E+01  0.10678385796E+02  0.17393460670E+02  0.51100000000E-03 0. -1.
        -11    1    4    4    0    0 -0.32739745407E+01  0.84933737233E+01  0.18271953289E+01  0.92841235197E+01  0.51100000000E-03 0.  1.
         12    1    4    4    0    0 -0.10596236443E+02  0.21130911492E+02  0.14419156693E+02  0.27689487662E+02  0.00000000000E+00 0. -1.
</event>
<event>
 8    1  0.1269154E-006  0.9118800E+02  0.7816164E-02  0.1184000E+00
        -11   -1    0    0    0    0  0.00000000000E+00  0.00000000000E+00  0.45593999997E+02  0.45594000000E+02  0.51100000000E-03 0. -1.
         11   -1    0    0    0    0 -0.00000000000E+00 -0.00000000000E+00 -0.45593999997E+02  0.45594000000E+02  0.51100000000E-03 0.  1.
         23    2    1    2    0    0  0.71054273576E-14  0.00000000000E+00  0.00000000000E+00  0.91188000000E+02  0.91188000000E+02 0.  0.
    9900012    2    3    3    0    0 -0.30226394379E+02  0.20562218168E+02  0.43978055293E+01  0.54367076239E+02  0.39999981902E+02 0.  0.
         12    1    3    3    0    0  0.30226394379E+02 -0.20562218168E+02 -0.43978055293E+01  0.36820923761E+02  0.00000000000E+00 0. -1.
         11    1    4    4    0    0  0.24542321954E+01  0.44978752439E+01 -0.53509598770E+01  0.74085699865E+01  0.51100000000E-03 0. -1.
        -11    1    4    4    0    0 -0.24808467390E+01  0.15524630259E+02  0.37841904047E+01  0.16170616639E+02  0.51100000000E-03 0.  1.
        -12    1    4    4    0    0 -0.30199779836E+02  0.53971266530E+00  0.59645750017E+01  0.30787889613E+02  0.00000000000E+00 0.  1.
</event>
<event>
 8    1  0.1269154E-006  0.9118800E+02  0.7816164E-02  0.1184000E+00
        -11   -1    0    0    0    0  0.00000000000E+00  0.00000000000E+00  0.45593999997E+02  0.45594000000E+02  0.51100000000E-03 0. -1.
         11   -1    0    0    0    0 -0.00000000000E+00 -0.00000000000E+00 -0.45593999997E+02  0.45594000000E+02  0.51100000000E-03 0.  1.
         23    2    1    2    0    0  0.00000000000E+00 -0.17763568394E-14  0.00000000000E+00  0.91188000000E+02  0.91188000000E+02 0.  0.
    9900012    2    3    3    0    0 -0.27603726408E+02 -0.13347770011E+02  0.20387248578E+02  0.54367237101E+02  0.40000348617E+02 0.  0.
        -12    1    3    3    0    0  0.27603726408E+02  0.13347770011E+02 -0.20387248578E+02  0.36820762899E+02  0.00000000000E+00 0.  1.
         11    1    4    4    0    0 -0.13280601720E+02 -0.10471354604E+02  0.16895672196E+02  0.23905802402E+02  0.51100000000E-03 0. -1.
        -11    1    4    4    0    0 -0.15929485050E+02 -0.88373820243E+01 -0.59646687219E+01  0.19168335562E+02  0.51100000000E-03 0.  1.
        -12    1    4    4    0    0  0.16063603619E+01  0.59609666172E+01  0.94562451044E+01  0.11293099136E+02  0.00000000000E+00 0.  1.
</event>
<event>
 8    1  0.1269154E-006  0.9118800E+02  0.7816164E-02  0.1184000E+00
        -11   -1    0    0    0    0  0.00000000000E+00  0.00000000000E+00  0.45593999997E+02  0.45594000000E+02  0.51100000000E-03 0.  1.
         11   -1    0    0    0    0 -0.00000000000E+00 -0.00000000000E+00 -0.45593999997E+02  0.45594000000E+02  0.51100000000E-03 0. -1.
         23    2    1    2    0    0  0.00000000000E+00  0.00000000000E+00  0.00000000000E+00  0.91188000000E+02  0.91188000000E+02 0.  0.
    9900012    2    3    3    0    0 -0.31152716010E+02 -0.19013041955E+02  0.48778626775E+01  0.54367068134E+02  0.39999963425E+02 0.  0.
         12    1    3    3    0    0  0.31152716010E+02  0.19013041955E+02 -0.48778626775E+01  0.36820931866E+02  0.00000000000E+00 0. -1.
         11    1    4    4    0    0 -0.60548948935E+00 -0.13494258025E+02 -0.38997320512E+01  0.14059499546E+02  0.51100000000E-03 0. -1.
        -11    1    4    4    0    0 -0.39478342872E+01  0.84200324734E+01  0.24696667988E+01  0.96219331099E+01  0.51100000000E-03 0.  1.
        -12    1    4    4    0    0 -0.26599392233E+02 -0.13938816404E+02  0.63079279299E+01  0.30685635478E+02  0.00000000000E+00 0.  1.
</event>
<event>
 8    1  0.1269154E-006  0.9118800E+02  0.7816164E-02  0.1184000E+00
        -11   -1    0    0    0    0  0.00000000000E+00  0.00000000000E+00  0.45593999997E+02  0.45594000000E+02  0.51100000000E-03 0.  1.
         11   -1    0    0    0    0 -0.00000000000E+00 -0.00000000000E+00 -0.45593999997E+02  0.45594000000E+02  0.51100000000E-03 0. -1.
         23    2    1    2    0    0  0.00000000000E+00  0.00000000000E+00  0.00000000000E+00  0.91188000000E+02  0.91188000000E+02 0.  0.
    9900012    2    3    3    0    0  0.24607957989E+02 -0.17558768293E+02  0.21021841118E+02  0.54367085504E+02  0.40000003023E+02 0.  0.
        -12    1    3    3    0    0 -0.24607957989E+02  0.17558768293E+02 -0.21021841118E+02  0.36820914496E+02  0.00000000000E+00 0.  1.
         11    1    4    4    0    0  0.22399631264E+02 -0.20000824625E+02  0.42491439169E+01  0.30328727153E+02  0.51100000000E-03 0. -1.
        -11    1    4    4    0    0  0.60385092377E+01  0.77637055284E+01  0.62928256858E+01  0.11676402388E+02  0.51100000000E-03 0.  1.
         12    1    4    4    0    0 -0.38301825132E+01 -0.53216491958E+01  0.10479871516E+02  0.12361955963E+02  0.00000000000E+00 0. -1.
</event>
<event>
 8    1  0.1269154E-006  0.9118800E+02  0.7816164E-02  0.1184000E+00
        -11   -1    0    0    0    0  0.00000000000E+00  0.00000000000E+00  0.45593999997E+02  0.45594000000E+02  0.51100000000E-03 0. -1.
         11   -1    0    0    0    0 -0.00000000000E+00 -0.00000000000E+00 -0.45593999997E+02  0.45594000000E+02  0.51100000000E-03 0.  1.
         23    2    1    2    0    0  0.00000000000E+00 -0.17763568394E-14  0.35527136788E-14  0.91188000000E+02  0.91188000000E+02 0.  0.
    9900012    2    3    3    0    0  0.26892261366E+02  0.91969738111E+01 -0.23409444516E+02  0.54367080114E+02  0.39999990737E+02 0.  0.
         12    1    3    3    0    0 -0.26892261366E+02 -0.91969738111E+01  0.23409444516E+02  0.36820919886E+02  0.00000000000E+00 0. -1.
         11    1    4    4    0    0  0.15656636862E+02 -0.53365125693E+01  0.49497982127E+01  0.17265837565E+02  0.51100000000E-03 0. -1.
        -11    1    4    4    0    0 -0.44825575480E+00  0.76396183846E+00 -0.14004277580E+02  0.14032261461E+02  0.51100000000E-03 0.  1.
         12    1    4    4    0    0  0.11683880259E+02  0.13769524542E+02 -0.14354965148E+02  0.23068981088E+02  0.00000000000E+00 0. -1.
</event>
<event>
 8    1  0.1269154E-006  0.9118800E+02  0.7816164E-02  0.1184000E+00
        -11   -1    0    0    0    0  0.00000000000E+00  0.00000000000E+00  0.45593999997E+02  0.45594000000E+02  0.51100000000E-03 0.  1.
         11   -1    0    0    0    0 -0.00000000000E+00 -0.00000000000E+00 -0.45593999997E+02  0.45594000000E+02  0.51100000000E-03 0. -1.
         23    2    1    2    0    0  0.00000000000E+00  0.83266726847E-15 -0.17763568394E-14  0.91188000000E+02  0.91188000000E+02 0.  0.
    9900012    2    3    3    0    0 -0.36593300538E+02 -0.26726091300E+00  0.40790945125E+01  0.54367080882E+02  0.39999992487E+02 0.  0.
        -12    1    3    3    0    0  0.36593300538E+02  0.26726091300E+00 -0.40790945125E+01  0.36820919118E+02  0.00000000000E+00 0.  1.
         11    1    4    4    0    0 -0.33601968067E+02 -0.11440028372E+02 -0.52711807469E+01  0.35885259563E+02  0.51100000000E-03 0. -1.
        -11    1    4    4    0    0 -0.40269551422E+00  0.12546067067E+01  0.80408684307E+01  0.81481143245E+01  0.51100000000E-03 0.  1.
         12    1    4    4    0    0 -0.25886369563E+01  0.99181607527E+01  0.13094068288E+01  0.10333706995E+02  0.00000000000E+00 0. -1.
</event>
<event>
 8    1  0.1269154E-006  0.9118800E+02  0.7816164E-02  0.1184000E+00
        -11   -1    0    0    0    0  0.00000000000E+00  0.00000000000E+00  0.45593999997E+02  0.45594000000E+02  0.51100000000E-03 0.  1.
         11   -1    0    0    0    0 -0.00000000000E+00 -0.00000000000E+00 -0.45593999997E+02  0.45594000000E+02  0.51100000000E-03 0. -1.
         23    2    1    2    0    0  0.00000000000E+00 -0.17763568394E-14  0.35527136788E-14  0.91188000000E+02  0.91188000000E+02 0.  0.
    9900012    2    3    3    0    0 -0.17956643426E+02 -0.15066985288E+02  0.28395899188E+02  0.54367052436E+02  0.39999927638E+02 0.  0.
         12    1    3    3    0    0  0.17956643426E+02  0.15066985288E+02 -0.28395899188E+02  0.36820947564E+02  0.00000000000E+00 0. -1.
         11    1    4    4    0    0 -0.80387347824E+01 -0.48240485421E+01  0.29476269390E+02  0.30931265067E+02  0.51100000000E-03 0. -1.
        -11    1    4    4    0    0 -0.14891318592E+02 -0.10146560598E+02  0.99242904309E+00  0.18046855046E+02  0.51100000000E-03 0.  1.
         12    1    4    4    0    0  0.49734099482E+01 -0.96376147875E-01 -0.20727992447E+01  0.53889323231E+01  0.00000000000E+00 0. -1.
</event>
<event>
 8    1  0.1269154E-006  0.9118800E+02  0.7816164E-02  0.1184000E+00
        -11   -1    0    0    0    0  0.00000000000E+00  0.00000000000E+00  0.45593999997E+02  0.45594000000E+02  0.51100000000E-03 0. -1.
         11   -1    0    0    0    0 -0.00000000000E+00 -0.00000000000E+00 -0.45593999997E+02  0.45594000000E+02  0.51100000000E-03 0.  1.
         23    2    1    2    0    0  0.00000000000E+00 -0.71054273576E-14  0.00000000000E+00  0.91188000000E+02  0.91188000000E+02 0.  0.
    9900012    2    3    3    0    0  0.99954020039E+01  0.34995670038E+02 -0.55834365279E+01  0.54367085480E+02  0.40000002969E+02 0.  0.
         12    1    3    3    0    0 -0.99954020039E+01 -0.34995670038E+02  0.55834365279E+01  0.36820914520E+02  0.00000000000E+00 0. -1.
         11    1    4    4    0    0 -0.76795481744E+01  0.80719632448E+01 -0.27656942254E+01  0.11479595620E+02  0.51100000000E-03 0. -1.
        -11    1    4    4    0    0  0.18026225161E+02  0.26623593899E+02  0.71265418766E+01  0.32932478574E+02  0.51100000000E-03 0.  1.
        -12    1    4    4    0    0 -0.35127498299E+00  0.30011289414E+00 -0.99442841791E+01  0.99550112857E+01  0.00000000000E+00 0.  1.
</event>
<event>
 8    1  0.1269154E-006  0.9118800E+02  0.7816164E-02  0.1184000E+00
        -11   -1    0    0    0    0  0.00000000000E+00  0.00000000000E+00  0.45593999997E+02  0.45594000000E+02  0.51100000000E-03 0.  1.
         11   -1    0    0    0    0 -0.00000000000E+00 -0.00000000000E+00 -0.45593999997E+02  0.45594000000E+02  0.51100000000E-03 0. -1.
         23    2    1    2    0    0  0.00000000000E+00  0.00000000000E+00  0.00000000000E+00  0.91188000000E+02  0.91188000000E+02 0.  0.
    9900012    2    3    3    0    0  0.18739719339E+02  0.61054992090E+01  0.31101835770E+02  0.54367103898E+02  0.40000044955E+02 0.  0.
         12    1    3    3    0    0 -0.18739719339E+02 -0.61054992090E+01 -0.31101835770E+02  0.36820896102E+02  0.00000000000E+00 0. -1.
         11    1    4    4    0    0 -0.13697198013E+01  0.57069994871E+01  0.58985975062E+00  0.58986363057E+01  0.51100000000E-03 0. -1.
        -11    1    4    4    0    0  0.22500165703E+02  0.10638310515E+02  0.28365628647E+02  0.37736454471E+02  0.51100000000E-03 0.  1.
        -12    1    4    4    0    0 -0.23907265623E+01 -0.10239810793E+02  0.21463473729E+01  0.10732013121E+02  0.00000000000E+00 0.  1.
</event>
<event>
 8    1  0.1269154E-006  0.9118800E+02  0.7816164E-02  0.1184000E+00
        -11   -1    0    0    0    0  0.00000000000E+00  0.00000000000E+00  0.45593999997E+02  0.45594000000E+02  0.51100000000E-03 0.  1.
         11   -1    0    0    0    0 -0.00000000000E+00 -0.00000000000E+00 -0.45593999997E+02  0.45594000000E+02  0.51100000000E-03 0. -1.
         23    2    1    2    0    0  0.35527136788E-14  0.00000000000E+00  0.00000000000E+00  0.91188000000E+02  0.91188000000E+02 0.  0.
    9900012    2    3    3    0    0 -0.28680672104E+02  0.18788312546E+02 -0.13423841977E+02  0.54367066089E+02  0.39999958763E+02 0.  0.
        -12    1    3    3    0    0  0.28680672104E+02 -0.18788312546E+02  0.13423841977E+02  0.36820933911E+02  0.00000000000E+00 0.  1.
         11    1    4    4    0    0 -0.96004792834E+01  0.14220745676E+02 -0.21266739912E+02  0.27325318604E+02  0.51100000000E-03 0. -1.
        -11    1    4    4    0    0 -0.99823670492E+01  0.53234340473E+01  0.12444673070E+02  0.16818337909E+02  0.51100000000E-03 0.  1.
         12    1    4    4    0    0 -0.90978257713E+01 -0.75586717784E+00 -0.46017751350E+01  0.10223409576E+02  0.00000000000E+00 0. -1.
</event>
<event>
 8    1  0.1269154E-006  0.9118800E+02  0.7816164E-02  0.1184000E+00
        -11   -1    0    0    0    0  0.00000000000E+00  0.00000000000E+00  0.45593999997E+02  0.45594000000E+02  0.51100000000E-03 0. -1.
         11   -1    0    0    0    0 -0.00000000000E+00 -0.00000000000E+00 -0.45593999997E+02  0.45594000000E+02  0.51100000000E-03 0.  1.
         23    2    1    2    0    0 -0.17763568394E-14 -0.35527136788E-14  0.35527136788E-14  0.91188000000E+02  0.91188000000E+02 0.  0.
    9900012    2    3    3    0    0 -0.91984178042E+01  0.30316126206E+02 -0.18764381448E+02  0.54367076473E+02  0.39999982436E+02 0.  0.
         12    1    3    3    0    0  0.91984178042E+01 -0.30316126206E+02  0.18764381448E+02  0.36820923527E+02  0.00000000000E+00 0. -1.
         11    1    4    4    0    0 -0.10010129173E+02  0.32755747661E+01  0.59269086635E+01  0.12085541886E+02  0.51100000000E-03 0. -1.
        -11    1    4    4    0    0 -0.24651027209E+01  0.45952887741E+01  0.33623605173E+01  0.62047464776E+01  0.51100000000E-03 0.  1.
        -12    1    4    4    0    0  0.32768140898E+01  0.22445262666E+02 -0.28053650629E+02  0.36076788110E+02  0.00000000000E+00 0.  1.
</event>
<event>
 8    1  0.1269154E-006  0.9118800E+02  0.7816164E-02  0.1184000E+00
        -11   -1    0    0    0    0  0.00000000000E+00  0.00000000000E+00  0.45593999997E+02  0.45594000000E+02  0.51100000000E-03 0.  1.
         11   -1    0    0    0    0 -0.00000000000E+00 -0.00000000000E+00 -0.45593999997E+02  0.45594000000E+02  0.51100000000E-03 0. -1.
         23    2    1    2    0    0  0.00000000000E+00  0.00000000000E+00  0.00000000000E+00  0.91188000000E+02  0.91188000000E+02 0.  0.
    9900012    2    3    3    0    0  0.10761865263E+02  0.26569371036E+02 -0.23109141457E+02  0.54367059761E+02  0.39999944338E+02 0.  0.
        -12    1    3    3    0    0 -0.10761865263E+02 -0.26569371036E+02  0.23109141457E+02  0.36820940239E+02  0.00000000000E+00 0.  1.
         11    1    4    4    0    0  0.16175741364E+02  0.84418305425E+01 -0.22764940175E+02  0.29174674171E+02  0.51100000000E-03 0.  1.
        -11    1    4    4    0    0 -0.10400855618E+02  0.70364751384E+01  0.22517009343E+01  0.12757740290E+02  0.51100000000E-03 0. -1.
         12    1    4    4    0    0  0.49869795171E+01  0.11091065355E+02 -0.25959022163E+01  0.12434645300E+02  0.00000000000E+00 0. -1.
</event>
<event>
 8    1  0.1269154E-006  0.9118800E+02  0.7816164E-02  0.1184000E+00
        -11   -1    0    0    0    0  0.00000000000E+00  0.00000000000E+00  0.45593999997E+02  0.45594000000E+02  0.51100000000E-03 0. -1.
         11   -1    0    0    0    0 -0.00000000000E+00 -0.00000000000E+00 -0.45593999997E+02  0.45594000000E+02  0.51100000000E-03 0.  1.
         23    2    1    2    0    0  0.00000000000E+00  0.17763568394E-14  0.35527136788E-14  0.91188000000E+02  0.91188000000E+02 0.  0.
    9900012    2    3    3    0    0 -0.25544572377E+02  0.70110999701E+01 -0.25575345228E+02  0.54367095825E+02  0.40000026552E+02 0.  0.
         12    1    3    3    0    0  0.25544572377E+02 -0.70110999701E+01  0.25575345228E+02  0.36820904175E+02  0.00000000000E+00 0. -1.
         11    1    4    4    0    0 -0.12692210336E+02 -0.80217340582E+01 -0.15363331435E+02  0.21481908052E+02  0.51100000000E-03 0. -1.
        -11    1    4    4    0    0  0.11624243952E+01 -0.52107209524E+01 -0.57793788639E+01  0.78679135501E+01  0.51100000000E-03 0.  1.
        -12    1    4    4    0    0 -0.14014786437E+02  0.20243554981E+02 -0.44326349292E+01  0.25017274223E+02  0.00000000000E+00 0.  1.
</event>
<event>
 8    1  0.1269154E-006  0.9118800E+02  0.7816164E-02  0.1184000E+00
        -11   -1    0    0    0    0  0.00000000000E+00  0.00000000000E+00  0.45593999997E+02  0.45594000000E+02  0.51100000000E-03 0.  1.
         11   -1    0    0    0    0 -0.00000000000E+00 -0.00000000000E+00 -0.45593999997E+02  0.45594000000E+02  0.51100000000E-03 0. -1.
         23    2    1    2    0    0 -0.17763568394E-14  0.00000000000E+00 -0.35527136788E-14  0.91188000000E+02  0.91188000000E+02 0.  0.
    9900012    2    3    3    0    0  0.80533005383E+01 -0.29932013649E+02  0.19874411381E+02  0.54367172764E+02  0.40000201949E+02 0.  0.
         12    1    3    3    0    0 -0.80533005383E+01  0.29932013649E+02 -0.19874411381E+02  0.36820827236E+02  0.00000000000E+00 0. -1.
         11    1    4    4    0    0 -0.99017213901E+01  0.76880393935E+00  0.87138598976E+01  0.13212361657E+02  0.51100000000E-03 0. -1.
        -11    1    4    4    0    0  0.10718695436E+02 -0.27234817646E+02  0.25401571859E+01  0.29378191279E+02  0.51100000000E-03 0.  1.
         12    1    4    4    0    0  0.72363264927E+01 -0.34659999421E+01  0.86203942977E+01  0.11776619827E+02  0.00000000000E+00 0. -1.
</event>
<event>
 8    1  0.1269154E-006  0.9118800E+02  0.7816164E-02  0.1184000E+00
        -11   -1    0    0    0    0  0.00000000000E+00  0.00000000000E+00  0.45593999997E+02  0.45594000000E+02  0.51100000000E-03 0. -1.
         11   -1    0    0    0    0 -0.00000000000E+00 -0.00000000000E+00 -0.45593999997E+02  0.45594000000E+02  0.51100000000E-03 0.  1.
         23    2    1    2    0    0 -0.17763568394E-14  0.00000000000E+00  0.00000000000E+00  0.91188000000E+02  0.91188000000E+02 0.  0.
    9900012    2    3    3    0    0  0.15940040772E+02 -0.28291070515E+02  0.17358288739E+02  0.54367085309E+02  0.40000002580E+02 0.  0.
         12    1    3    3    0    0 -0.15940040772E+02  0.28291070515E+02 -0.17358288739E+02  0.36820914691E+02  0.00000000000E+00 0. -1.
         11    1    4    4    0    0 -0.90433755924E+00 -0.89746302747E+01  0.37996637155E+01  0.97877096197E+01  0.51100000000E-03 0. -1.
        -11    1    4    4    0    0 -0.56778955729E+00 -0.24240551095E+02  0.60661802148E+01  0.24994504297E+02  0.51100000000E-03 0.  1.
         12    1    4    4    0    0  0.17412167888E+02  0.49241108545E+01  0.74924448088E+01  0.19584871393E+02  0.00000000000E+00 0. -1.
</event>
<event>
 8    1  0.1269154E-006  0.9118800E+02  0.7816164E-02  0.1184000E+00
        -11   -1    0    0    0    0  0.00000000000E+00  0.00000000000E+00  0.45593999997E+02  0.45594000000E+02  0.51100000000E-03 0. -1.
         11   -1    0    0    0    0 -0.00000000000E+00 -0.00000000000E+00 -0.45593999997E+02  0.45594000000E+02  0.51100000000E-03 0.  1.
         23    2    1    2    0    0  0.35527136788E-14 -0.35527136788E-14  0.44408920985E-15  0.91188000000E+02  0.91188000000E+02 0.  0.
    9900012    2    3    3    0    0  0.31349349323E+02  0.18967486103E+02 -0.36366052065E+01  0.54367188908E+02  0.40000238753E+02 0.  0.
         12    1    3    3    0    0 -0.31349349323E+02 -0.18967486103E+02  0.36366052065E+01  0.36820811092E+02  0.00000000000E+00 0. -1.
         11    1    4    4    0    0 -0.78080461562E+00  0.18264198281E+01 -0.22694371346E+01  0.30159261273E+01  0.51100000000E-03 0. -1.
        -11    1    4    4    0    0  0.28227468468E+02  0.25972279532E+02 -0.85719127769E+01  0.39304286905E+02  0.51100000000E-03 0.  1.
         12    1    4    4    0    0  0.39026854711E+01 -0.88312132576E+01  0.72047447051E+01  0.12046975876E+02  0.00000000000E+00 0. -1.
</event>
<event>
 8    1  0.1269154E-006  0.9118800E+02  0.7816164E-02  0.1184000E+00
        -11   -1    0    0    0    0  0.00000000000E+00  0.00000000000E+00  0.45593999997E+02  0.45594000000E+02  0.51100000000E-03 0.  1.
         11   -1    0    0    0    0 -0.00000000000E+00 -0.00000000000E+00 -0.45593999997E+02  0.45594000000E+02  0.51100000000E-03 0. -1.
         23    2    1    2    0    0 -0.88817841970E-15  0.00000000000E+00  0.00000000000E+00  0.91188000000E+02  0.91188000000E+02 0.  0.
    9900012    2    3    3    0    0  0.64310740013E+01 -0.29190480402E+02 -0.21502070784E+02  0.54367056138E+02  0.39999936077E+02 0.  0.
        -12    1    3    3    0    0 -0.64310740013E+01  0.29190480402E+02  0.21502070784E+02  0.36820943862E+02  0.00000000000E+00 0.  1.
         11    1    4    4    0    0  0.17096111600E+02 -0.13905509968E+02 -0.13229996615E+02  0.25703561037E+02  0.51100000000E-03 0. -1.
        -11    1    4    4    0    0 -0.99671490460E+01 -0.27448062054E+01 -0.11731017246E+02  0.15636329080E+02  0.51100000000E-03 0.  1.
         12    1    4    4    0    0 -0.69788855245E+00 -0.12540164229E+02  0.34589430771E+01  0.13027166021E+02  0.00000000000E+00 0. -1.
</event>
<event>
 8    1  0.1269154E-006  0.9118800E+02  0.7816164E-02  0.1184000E+00
        -11   -1    0    0    0    0  0.00000000000E+00  0.00000000000E+00  0.45593999997E+02  0.45594000000E+02  0.51100000000E-03 0.  1.
         11   -1    0    0    0    0 -0.00000000000E+00 -0.00000000000E+00 -0.45593999997E+02  0.45594000000E+02  0.51100000000E-03 0. -1.
         23    2    1    2    0    0  0.00000000000E+00  0.00000000000E+00  0.35527136788E-14  0.91188000000E+02  0.91188000000E+02 0.  0.
    9900012    2    3    3    0    0 -0.25218509793E+02  0.15976340602E+02 -0.21553722010E+02  0.54367087087E+02  0.40000006633E+02 0.  0.
        -12    1    3    3    0    0  0.25218509793E+02 -0.15976340602E+02  0.21553722010E+02  0.36820912913E+02  0.00000000000E+00 0.  1.
         11    1    4    4    0    0 -0.10704511588E+01 -0.21168638501E+01 -0.80544407059E+01  0.83964869791E+01  0.51100000000E-03 0. -1.
        -11    1    4    4    0    0 -0.20213351771E+02  0.18243146819E+02 -0.23027831066E+02  0.35660524387E+02  0.51100000000E-03 0.  1.
        -12    1    4    4    0    0 -0.39347068636E+01 -0.14994236645E+00  0.95285497621E+01  0.10310075722E+02  0.00000000000E+00 0.  1.
</event>
<event>
 8    1  0.1269154E-006  0.9118800E+02  0.7816164E-02  0.1184000E+00
        -11   -1    0    0    0    0  0.00000000000E+00  0.00000000000E+00  0.45593999997E+02  0.45594000000E+02  0.51100000000E-03 0.  1.
         11   -1    0    0    0    0 -0.00000000000E+00 -0.00000000000E+00 -0.45593999997E+02  0.45594000000E+02  0.51100000000E-03 0. -1.
         23    2    1    2    0    0 -0.35527136788E-14  0.00000000000E+00  0.35527136788E-14  0.91188000000E+02  0.91188000000E+02 0.  0.
    9900012    2    3    3    0    0 -0.20544742193E+02 -0.21180768278E+02 -0.22024272757E+02  0.54367082479E+02  0.39999996126E+02 0.  0.
         12    1    3    3    0    0  0.20544742193E+02  0.21180768278E+02  0.22024272757E+02  0.36820917521E+02  0.00000000000E+00 0. -1.
         11    1    4    4    0    0  0.20026660236E+01  0.20900685286E+01 -0.44295175686E+01  0.52914727448E+01  0.51100000000E-03 0.  1.
        -11    1    4    4    0    0 -0.18199436163E+02 -0.22355518376E+02  0.20833890048E+01  0.28902062012E+02  0.51100000000E-03 0. -1.
         12    1    4    4    0    0 -0.43479720536E+01 -0.91531843079E+00 -0.19678144193E+02  0.20173547722E+02  0.00000000000E+00 0. -1.
</event>
<event>
 8    1  0.1269154E-006  0.9118800E+02  0.7816164E-02  0.1184000E+00
        -11   -1    0    0    0    0  0.00000000000E+00  0.00000000000E+00  0.45593999997E+02  0.45594000000E+02  0.51100000000E-03 0. -1.
         11   -1    0    0    0    0 -0.00000000000E+00 -0.00000000000E+00 -0.45593999997E+02  0.45594000000E+02  0.51100000000E-03 0.  1.
         23    2    1    2    0    0 -0.71054273576E-14  0.00000000000E+00  0.00000000000E+00  0.91188000000E+02  0.91188000000E+02 0.  0.
    9900012    2    3    3    0    0 -0.27010353505E+02  0.91044640886E+01  0.23309431887E+02  0.54367080977E+02  0.39999992702E+02 0.  0.
        -12    1    3    3    0    0  0.27010353505E+02 -0.91044640886E+01 -0.23309431887E+02  0.36820919023E+02  0.00000000000E+00 0.  1.
         11    1    4    4    0    0  0.44308364187E+01  0.26847873604E+01  0.12124896059E+02  0.13185351692E+02  0.51100000000E-03 0. -1.
        -11    1    4    4    0    0 -0.25180804958E+01  0.98611918577E+01  0.52663847441E+01  0.11459434662E+02  0.51100000000E-03 0.  1.
        -12    1    4    4    0    0 -0.28923109428E+02 -0.34415151295E+01  0.59181510843E+01  0.29722294623E+02  0.00000000000E+00 0.  1.
</event>
<event>
 8    1  0.1269154E-006  0.9118800E+02  0.7816164E-02  0.1184000E+00
        -11   -1    0    0    0    0  0.00000000000E+00  0.00000000000E+00  0.45593999997E+02  0.45594000000E+02  0.51100000000E-03 0. -1.
         11   -1    0    0    0    0 -0.00000000000E+00 -0.00000000000E+00 -0.45593999997E+02  0.45594000000E+02  0.51100000000E-03 0.  1.
         23    2    1    2    0    0 -0.35527136788E-14 -0.35527136788E-14  0.17763568394E-14  0.91188000000E+02  0.91188000000E+02 0.  0.
    9900012    2    3    3    0    0  0.23176965167E+02  0.24364376431E+02 -0.14999426807E+02  0.54367117911E+02  0.40000076903E+02 0.  0.
         12    1    3    3    0    0 -0.23176965167E+02 -0.24364376431E+02  0.14999426807E+02  0.36820882089E+02  0.00000000000E+00 0. -1.
         11    1    4    4    0    0  0.38859307598E+01  0.30097632302E+01  0.14903165502E+01  0.51361635734E+01  0.51100000000E-03 0. -1.
        -11    1    4    4    0    0  0.24801016100E+02  0.86703417104E+01  0.17617250210E+01  0.26331898911E+02  0.51100000000E-03 0.  1.
        -12    1    4    4    0    0 -0.55099816920E+01  0.12684271490E+02 -0.18251468378E+02  0.22899055427E+02  0.00000000000E+00 0.  1.
</event>
<event>
 8    1  0.1269154E-006  0.9118800E+02  0.7816164E-02  0.1184000E+00
        -11   -1    0    0    0    0  0.00000000000E+00  0.00000000000E+00  0.45593999997E+02  0.45594000000E+02  0.51100000000E-03 0. -1.
         11   -1    0    0    0    0 -0.00000000000E+00 -0.00000000000E+00 -0.45593999997E+02  0.45594000000E+02  0.51100000000E-03 0.  1.
         23    2    1    2    0    0  0.00000000000E+00  0.00000000000E+00  0.00000000000E+00  0.91188000000E+02  0.91188000000E+02 0.  0.
    9900012    2    3    3    0    0  0.22706481909E+02  0.47155895547E+01  0.28599961340E+02  0.54367097049E+02  0.40000029342E+02 0.  0.
        -12    1    3    3    0    0 -0.22706481909E+02 -0.47155895547E+01 -0.28599961340E+02  0.36820902951E+02  0.00000000000E+00 0.  1.
         11    1    4    4    0    0  0.21560413643E+02  0.45357258011E+00  0.31484699351E+02  0.38162068315E+02  0.51100000000E-03 0. -1.
        -11    1    4    4    0    0  0.44723150919E+01  0.22564748121E+01  0.52094626221E+01  0.72271558674E+01  0.51100000000E-03 0.  1.
        -12    1    4    4    0    0 -0.33262468268E+01  0.20055421625E+01 -0.80942006335E+01  0.89778728668E+01  0.00000000000E+00 0.  1.
</event>
<event>
 8    1  0.1269154E-006  0.9118800E+02  0.7816164E-02  0.1184000E+00
        -11   -1    0    0    0    0  0.00000000000E+00  0.00000000000E+00  0.45593999997E+02  0.45594000000E+02  0.51100000000E-03 0.  1.
         11   -1    0    0    0    0 -0.00000000000E+00 -0.00000000000E+00 -0.45593999997E+02  0.45594000000E+02  0.51100000000E-03 0. -1.
         23    2    1    2    0    0  0.88817841970E-15  0.00000000000E+00 -0.71054273576E-14  0.91188000000E+02  0.91188000000E+02 0.  0.
    9900012    2    3    3    0    0 -0.62439013639E+01  0.12008839158E+02  0.34242979525E+02  0.54367079738E+02  0.39999989878E+02 0.  0.
         12    1    3    3    0    0  0.62439013639E+01 -0.12008839158E+02 -0.34242979525E+02  0.36820920262E+02  0.00000000000E+00 0. -1.
         11    1    4    4    0    0  0.11761106734E+01 -0.44671823651E+01  0.41303500965E+01  0.61966722344E+01  0.51100000000E-03 0. -1.
        -11    1    4    4    0    0  0.83873421000E+01 -0.13737601428E+01  0.20983661019E+02  0.22639539626E+02  0.51100000000E-03 0.  1.
         12    1    4    4    0    0 -0.15807354137E+02  0.17849781666E+02  0.91289684096E+01  0.25530867878E+02  0.00000000000E+00 0. -1.
</event>
<event>
 8    1  0.1269154E-006  0.9118800E+02  0.7816164E-02  0.1184000E+00
        -11   -1    0    0    0    0  0.00000000000E+00  0.00000000000E+00  0.45593999997E+02  0.45594000000E+02  0.51100000000E-03 0. -1.
         11   -1    0    0    0    0 -0.00000000000E+00 -0.00000000000E+00 -0.45593999997E+02  0.45594000000E+02  0.51100000000E-03 0.  1.
         23    2    1    2    0    0 -0.14210854715E-13 -0.88817841970E-15  0.35527136788E-14  0.91188000000E+02  0.91188000000E+02 0.  0.
    9900012    2    3    3    0    0  0.33218239345E+02 -0.23815953161E+01 -0.15705292049E+02  0.54367087195E+02  0.40000006879E+02 0.  0.
         12    1    3    3    0    0 -0.33218239345E+02  0.23815953161E+01  0.15705292049E+02  0.36820912805E+02  0.00000000000E+00 0. -1.
         11    1    4    4    0    0  0.17895081316E+02 -0.15355703893E+02 -0.35644851071E+01  0.23848210241E+02  0.51100000000E-03 0. -1.
        -11    1    4    4    0    0  0.22600278906E+00 -0.43113604652E+01 -0.47248758155E+01  0.64002623426E+01  0.51100000000E-03 0.  1.
        -12    1    4    4    0    0  0.15097155240E+02  0.17285469042E+02 -0.74159311261E+01  0.24118614612E+02  0.00000000000E+00 0.  1.
</event>
<event>
 8    1  0.1269154E-006  0.9118800E+02  0.7816164E-02  0.1184000E+00
        -11   -1    0    0    0    0  0.00000000000E+00  0.00000000000E+00  0.45593999997E+02  0.45594000000E+02  0.51100000000E-03 0. -1.
         11   -1    0    0    0    0 -0.00000000000E+00 -0.00000000000E+00 -0.45593999997E+02  0.45594000000E+02  0.51100000000E-03 0.  1.
         23    2    1    2    0    0  0.00000000000E+00 -0.35527136788E-14  0.17763568394E-14  0.91188000000E+02  0.91188000000E+02 0.  0.
    9900012    2    3    3    0    0 -0.22415745392E+02  0.27965810938E+02 -0.84397186821E+01  0.54367067444E+02  0.39999961852E+02 0.  0.
        -12    1    3    3    0    0  0.22415745392E+02 -0.27965810938E+02  0.84397186821E+01  0.36820932556E+02  0.00000000000E+00 0.  1.
         11    1    4    4    0    0  0.13038468608E+01 -0.60229321942E+01  0.19834765253E+01  0.64737862368E+01  0.51100000000E-03 0. -1.
        -11    1    4    4    0    0 -0.75705153187E+00  0.95776860585E+01 -0.10697228336E+02  0.14378313238E+02  0.51100000000E-03 0.  1.
         12    1    4    4    0    0 -0.22962540721E+02  0.24411057073E+02  0.27403312822E+00  0.33514967969E+02  0.00000000000E+00 0. -1.
</event>
<event>
 8    1  0.1269154E-006  0.9118800E+02  0.7816164E-02  0.1184000E+00
        -11   -1    0    0    0    0  0.00000000000E+00  0.00000000000E+00  0.45593999997E+02  0.45594000000E+02  0.51100000000E-03 0.  1.
         11   -1    0    0    0    0 -0.00000000000E+00 -0.00000000000E+00 -0.45593999997E+02  0.45594000000E+02  0.51100000000E-03 0. -1.
         23    2    1    2    0    0  0.88817841970E-15  0.00000000000E+00  0.00000000000E+00  0.91188000000E+02  0.91188000000E+02 0.  0.
    9900012    2    3    3    0    0 -0.54641294176E+01  0.35958917918E+02  0.57340578695E+01  0.54367083285E+02  0.39999997964E+02 0.  0.
         12    1    3    3    0    0  0.54641294176E+01 -0.35958917918E+02 -0.57340578695E+01  0.36820916715E+02  0.00000000000E+00 0. -1.
         11    1    4    4    0    0  0.49832165811E+01  0.13384447848E+02  0.17295959979E+01  0.14386361398E+02  0.51100000000E-03 0. -1.
        -11    1    4    4    0    0 -0.11832302907E+02  0.26304737054E+02  0.11850827066E+02  0.31183083330E+02  0.51100000000E-03 0.  1.
        -12    1    4    4    0    0  0.13849569084E+01 -0.37302669843E+01 -0.78463651944E+01  0.87976385568E+01  0.00000000000E+00 0.  1.
</event>
<event>
 8    1  0.1269154E-006  0.9118800E+02  0.7816164E-02  0.1184000E+00
        -11   -1    0    0    0    0  0.00000000000E+00  0.00000000000E+00  0.45593999997E+02  0.45594000000E+02  0.51100000000E-03 0. -1.
         11   -1    0    0    0    0 -0.00000000000E+00 -0.00000000000E+00 -0.45593999997E+02  0.45594000000E+02  0.51100000000E-03 0.  1.
         23    2    1    2    0    0 -0.35527136788E-14  0.00000000000E+00  0.00000000000E+00  0.91188000000E+02  0.91188000000E+02 0.  0.
    9900012    2    3    3    0    0 -0.29261550826E+02 -0.20326607184E+02  0.92935865471E+01  0.54367081119E+02  0.39999993027E+02 0.  0.
         12    1    3    3    0    0  0.29261550826E+02  0.20326607184E+02 -0.92935865471E+01  0.36820918881E+02  0.00000000000E+00 0. -1.
         11    1    4    4    0    0 -0.15881189109E+02 -0.24467804436E+02  0.55235325293E+01  0.29688297919E+02  0.51100000000E-03 0.  1.
        -11    1    4    4    0    0 -0.17347839217E+02  0.76640449655E+01  0.39398906729E+01  0.19370282638E+02  0.51100000000E-03 0. -1.
         12    1    4    4    0    0  0.39674775000E+01 -0.35228477133E+01 -0.16983665512E+00  0.53085005617E+01  0.00000000000E+00 0. -1.
</event>
<event>
 8    1  0.1269154E-006  0.9118800E+02  0.7816164E-02  0.1184000E+00
        -11   -1    0    0    0    0  0.00000000000E+00  0.00000000000E+00  0.45593999997E+02  0.45594000000E+02  0.51100000000E-03 0.  1.
         11   -1    0    0    0    0 -0.00000000000E+00 -0.00000000000E+00 -0.45593999997E+02  0.45594000000E+02  0.51100000000E-03 0. -1.
         23    2    1    2    0    0  0.44408920985E-15  0.00000000000E+00  0.17763568394E-14  0.91188000000E+02  0.91188000000E+02 0.  0.
    9900012    2    3    3    0    0 -0.87636727287E+00 -0.34377798234E+02 -0.13159745165E+02  0.54367083066E+02  0.39999997466E+02 0.  0.
        -12    1    3    3    0    0  0.87636727287E+00  0.34377798234E+02  0.13159745165E+02  0.36820916934E+02  0.00000000000E+00 0.  1.
         11    1    4    4    0    0 -0.78756278386E+00 -0.21924224629E+02 -0.99098727775E+01  0.24072753467E+02  0.51100000000E-03 0.  1.
        -11    1    4    4    0    0  0.43401900170E+01  0.30856969133E+01  0.86979445403E+01  0.10198677086E+02  0.51100000000E-03 0. -1.
         12    1    4    4    0    0 -0.44289945060E+01 -0.15539270518E+02 -0.11947816928E+02  0.20095652513E+02  0.00000000000E+00 0. -1.
</event>
<event>
 8    1  0.1269154E-006  0.9118800E+02  0.7816164E-02  0.1184000E+00
        -11   -1    0    0    0    0  0.00000000000E+00  0.00000000000E+00  0.45593999997E+02  0.45594000000E+02  0.51100000000E-03 0. -1.
         11   -1    0    0    0    0 -0.00000000000E+00 -0.00000000000E+00 -0.45593999997E+02  0.45594000000E+02  0.51100000000E-03 0.  1.
         23    2    1    2    0    0  0.35527136788E-14  0.17763568394E-14 -0.17763568394E-14  0.91188000000E+02  0.91188000000E+02 0.  0.
    9900012    2    3    3    0    0  0.31802899787E+02 -0.15259702509E+02 -0.10559246565E+02  0.54367073293E+02  0.39999975186E+02 0.  0.
         12    1    3    3    0    0 -0.31802899787E+02  0.15259702509E+02  0.10559246565E+02  0.36820926707E+02  0.00000000000E+00 0. -1.
         11    1    4    4    0    0  0.26860595644E+01  0.23576226931E+00 -0.85441927198E+00  0.28285212364E+01  0.51100000000E-03 0. -1.
        -11    1    4    4    0    0  0.29154282135E+02 -0.26382982932E+02 -0.48500549629E+01  0.39617634818E+02  0.51100000000E-03 0.  1.
        -12    1    4    4    0    0 -0.37441912158E-01  0.10887518153E+02 -0.48547723299E+01  0.11920917239E+02  0.00000000000E+00 0.  1.
</event>
<event>
 8    1  0.1269154E-006  0.9118800E+02  0.7816164E-02  0.1184000E+00
        -11   -1    0    0    0    0  0.00000000000E+00  0.00000000000E+00  0.45593999997E+02  0.45594000000E+02  0.51100000000E-03 0.  1.
         11   -1    0    0    0    0 -0.00000000000E+00 -0.00000000000E+00 -0.45593999997E+02  0.45594000000E+02  0.51100000000E-03 0. -1.
         23    2    1    2    0    0  0.00000000000E+00 -0.35527136788E-14 -0.35527136788E-14  0.91188000000E+02  0.91188000000E+02 0.  0.
    9900012    2    3    3    0    0  0.32524646871E+02  0.11644884344E+02  0.12740649676E+02  0.54367080136E+02  0.39999990785E+02 0.  0.
         12    1    3    3    0    0 -0.32524646871E+02 -0.11644884344E+02 -0.12740649676E+02  0.36820919864E+02  0.00000000000E+00 0. -1.
         11    1    4    4    0    0  0.77507308613E+01 -0.28647295582E+01 -0.35741930122E+01  0.90030750456E+01  0.51100000000E-03 0. -1.
        -11    1    4    4    0    0 -0.13660593095E+01  0.32851423020E+01 -0.74757810639E+01  0.82792258550E+01  0.51100000000E-03 0.  1.
        -12    1    4    4    0    0  0.26139975319E+02  0.11224471601E+02  0.23790623752E+02  0.37084779235E+02  0.00000000000E+00 0.  1.
</event>
<event>
 8    1  0.1269154E-006  0.9118800E+02  0.7816164E-02  0.1184000E+00
        -11   -1    0    0    0    0  0.00000000000E+00  0.00000000000E+00  0.45593999997E+02  0.45594000000E+02  0.51100000000E-03 0. -1.
         11   -1    0    0    0    0 -0.00000000000E+00 -0.00000000000E+00 -0.45593999997E+02  0.45594000000E+02  0.51100000000E-03 0.  1.
         23    2    1    2    0    0  0.35527136788E-14  0.00000000000E+00 -0.35527136788E-14  0.91188000000E+02  0.91188000000E+02 0.  0.
    9900012    2    3    3    0    0 -0.20451000654E+02  0.23741070782E+02 -0.19336352183E+02  0.54367131116E+02  0.40000107004E+02 0.  0.
         12    1    3    3    0    0  0.20451000654E+02 -0.23741070782E+02  0.19336352183E+02  0.36820868884E+02  0.00000000000E+00 0. -1.
         11    1    4    4    0    0 -0.12165523380E+00 -0.64777352238E+01 -0.43429080152E+01  0.77997887096E+01  0.51100000000E-03 0. -1.
        -11    1    4    4    0    0 -0.64286555278E+01  0.54107234263E+01 -0.16043648022E+02  0.18110830517E+02  0.51100000000E-03 0.  1.
         12    1    4    4    0    0 -0.13900689893E+02  0.24808082579E+02  0.10502038543E+01  0.28456511889E+02  0.00000000000E+00 0. -1.
</event>
<event>
 8    1  0.1269154E-006  0.9118800E+02  0.7816164E-02  0.1184000E+00
        -11   -1    0    0    0    0  0.00000000000E+00  0.00000000000E+00  0.45593999997E+02  0.45594000000E+02  0.51100000000E-03 0.  1.
         11   -1    0    0    0    0 -0.00000000000E+00 -0.00000000000E+00 -0.45593999997E+02  0.45594000000E+02  0.51100000000E-03 0. -1.
         23    2    1    2    0    0  0.00000000000E+00 -0.35527136788E-14 -0.35527136788E-14  0.91188000000E+02  0.91188000000E+02 0.  0.
    9900012    2    3    3    0    0  0.20098787420E+02 -0.26128135878E+02  0.16405427350E+02  0.54367098507E+02  0.40000032666E+02 0.  0.
        -12    1    3    3    0    0 -0.20098787420E+02  0.26128135878E+02 -0.16405427350E+02  0.36820901493E+02  0.00000000000E+00 0.  1.
         11    1    4    4    0    0  0.17112368853E+02  0.67518321760E+01  0.42585002373E+01  0.18882670098E+02  0.51100000000E-03 0. -1.
        -11    1    4    4    0    0  0.42313556923E+01 -0.26190067470E+02  0.93904506570E+01  0.28142575732E+02  0.51100000000E-03 0.  1.
         12    1    4    4    0    0 -0.12449371245E+01 -0.66899005844E+01  0.27564764560E+01  0.73418526767E+01  0.00000000000E+00 0. -1.
</event>
<event>
 8    1  0.1269154E-006  0.9118800E+02  0.7816164E-02  0.1184000E+00
        -11   -1    0    0    0    0  0.00000000000E+00  0.00000000000E+00  0.45593999997E+02  0.45594000000E+02  0.51100000000E-03 0.  1.
         11   -1    0    0    0    0 -0.00000000000E+00 -0.00000000000E+00 -0.45593999997E+02  0.45594000000E+02  0.51100000000E-03 0. -1.
         23    2    1    2    0    0 -0.88817841970E-15  0.71054273576E-14  0.17763568394E-14  0.91188000000E+02  0.91188000000E+02 0.  0.
    9900012    2    3    3    0    0 -0.53409828406E+01  0.32965165430E+02  0.15509748138E+02  0.54367075014E+02  0.39999979109E+02 0.  0.
         12    1    3    3    0    0  0.53409828406E+01 -0.32965165430E+02 -0.15509748138E+02  0.36820924986E+02  0.00000000000E+00 0. -1.
         11    1    4    4    0    0 -0.83049230311E+01  0.18418463555E+01  0.32453429447E+01  0.91047457756E+01  0.51100000000E-03 0.  1.
        -11    1    4    4    0    0  0.70410795455E+01  0.22756018448E+02 -0.61742198885E+01  0.24607603870E+02  0.51100000000E-03 0. -1.
         12    1    4    4    0    0 -0.40771393551E+01  0.83673006266E+01  0.18438625082E+02  0.20654725368E+02  0.00000000000E+00 0. -1.
</event>
<event>
 8    1  0.1269154E-006  0.9118800E+02  0.7816164E-02  0.1184000E+00
        -11   -1    0    0    0    0  0.00000000000E+00  0.00000000000E+00  0.45593999997E+02  0.45594000000E+02  0.51100000000E-03 0.  1.
         11   -1    0    0    0    0 -0.00000000000E+00 -0.00000000000E+00 -0.45593999997E+02  0.45594000000E+02  0.51100000000E-03 0. -1.
         23    2    1    2    0    0  0.17763568394E-14 -0.35527136788E-14  0.17763568394E-14  0.91188000000E+02  0.91188000000E+02 0.  0.
    9900012    2    3    3    0    0 -0.10762444541E+02 -0.31477649593E+02 -0.15783115205E+02  0.54367090696E+02  0.40000014860E+02 0.  0.
        -12    1    3    3    0    0  0.10762444541E+02  0.31477649593E+02  0.15783115205E+02  0.36820909304E+02  0.00000000000E+00 0.  1.
         11    1    4    4    0    0  0.15596997431E+01  0.12623649562E+01 -0.35455981155E+00  0.20376313436E+01  0.51100000000E-03 0. -1.
        -11    1    4    4    0    0  0.11805302365E+02 -0.11476836683E+02  0.43403279928E+00  0.16470316601E+02  0.51100000000E-03 0.  1.
         12    1    4    4    0    0 -0.24127446649E+02 -0.21263177865E+02 -0.15862588193E+02  0.35859142752E+02  0.00000000000E+00 0. -1.
</event>
<event>
 8    1  0.1269154E-006  0.9118800E+02  0.7816164E-02  0.1184000E+00
        -11   -1    0    0    0    0  0.00000000000E+00  0.00000000000E+00  0.45593999997E+02  0.45594000000E+02  0.51100000000E-03 0. -1.
         11   -1    0    0    0    0 -0.00000000000E+00 -0.00000000000E+00 -0.45593999997E+02  0.45594000000E+02  0.51100000000E-03 0.  1.
         23    2    1    2    0    0  0.00000000000E+00 -0.26645352591E-14  0.00000000000E+00  0.91188000000E+02  0.91188000000E+02 0.  0.
    9900012    2    3    3    0    0 -0.20679888739E+01 -0.60351442410E+01  0.36264034686E+02  0.54367085349E+02  0.40000002671E+02 0.  0.
        -12    1    3    3    0    0  0.20679888739E+01  0.60351442410E+01 -0.36264034686E+02  0.36820914651E+02  0.00000000000E+00 0.  1.
         11    1    4    4    0    0 -0.22228782282E+01  0.15265979563E+02  0.11224577699E+02  0.19078324466E+02  0.51100000000E-03 0. -1.
        -11    1    4    4    0    0 -0.10962818730E+01 -0.74475548167E+01  0.11086911949E+01  0.76090145958E+01  0.51100000000E-03 0.  1.
         12    1    4    4    0    0  0.12511712273E+01 -0.13853568988E+02  0.23930765792E+02  0.27679746288E+02  0.00000000000E+00 0. -1.
</event>
<event>
 8    1  0.1269154E-006  0.9118800E+02  0.7816164E-02  0.1184000E+00
        -11   -1    0    0    0    0  0.00000000000E+00  0.00000000000E+00  0.45593999997E+02  0.45594000000E+02  0.51100000000E-03 0. -1.
         11   -1    0    0    0    0 -0.00000000000E+00 -0.00000000000E+00 -0.45593999997E+02  0.45594000000E+02  0.51100000000E-03 0.  1.
         23    2    1    2    0    0 -0.17763568394E-14  0.26645352591E-14 -0.71054273576E-14  0.91188000000E+02  0.91188000000E+02 0.  0.
    9900012    2    3    3    0    0  0.11163152001E+02 -0.74876625794E+01  0.34279731041E+02  0.54367068266E+02  0.39999963727E+02 0.  0.
        -12    1    3    3    0    0 -0.11163152001E+02  0.74876625794E+01 -0.34279731041E+02  0.36820931734E+02  0.00000000000E+00 0.  1.
         11    1    4    4    0    0  0.21504835331E+01  0.12186786379E+00  0.10003451116E+02  0.10232715460E+02  0.51100000000E-03 0. -1.
        -11    1    4    4    0    0 -0.19728411556E+01 -0.19650522353E+02  0.17828021354E+02  0.26605891765E+02  0.51100000000E-03 0.  1.
         12    1    4    4    0    0  0.10985509623E+02  0.12040991910E+02  0.64482585711E+01  0.17528461041E+02  0.00000000000E+00 0. -1.
</event>
<event>
 8    1  0.1269154E-006  0.9118800E+02  0.7816164E-02  0.1184000E+00
        -11   -1    0    0    0    0  0.00000000000E+00  0.00000000000E+00  0.45593999997E+02  0.45594000000E+02  0.51100000000E-03 0.  1.
         11   -1    0    0    0    0 -0.00000000000E+00 -0.00000000000E+00 -0.45593999997E+02  0.45594000000E+02  0.51100000000E-03 0. -1.
         23    2    1    2    0    0 -0.17763568394E-14  0.00000000000E+00 -0.88817841970E-15  0.91188000000E+02  0.91188000000E+02 0.  0.
    9900012    2    3    3    0    0 -0.13954137541E+02  0.33127778030E+02 -0.79757039394E+01  0.54367089024E+02  0.40000011049E+02 0.  0.
        -12    1    3    3    0    0  0.13954137541E+02 -0.33127778030E+02  0.79757039394E+01  0.36820910976E+02  0.00000000000E+00 0.  1.
         11    1    4    4    0    0  0.78263541656E+01  0.19772819007E+02  0.24417915010E+01  0.21405105396E+02  0.51100000000E-03 0. -1.
        -11    1    4    4    0    0  0.28789044549E+01 -0.44407168735E+00 -0.17794607127E+01  0.34134690878E+01  0.51100000000E-03 0.  1.
         12    1    4    4    0    0 -0.24659396162E+02  0.13799030710E+02 -0.86380347277E+01  0.29548514541E+02  0.00000000000E+00 0. -1.
</event>
<event>
 8    1  0.1269154E-006  0.9118800E+02  0.7816164E-02  0.1184000E+00
        -11   -1    0    0    0    0  0.00000000000E+00  0.00000000000E+00  0.45593999997E+02  0.45594000000E+02  0.51100000000E-03 0. -1.
         11   -1    0    0    0    0 -0.00000000000E+00 -0.00000000000E+00 -0.45593999997E+02  0.45594000000E+02  0.51100000000E-03 0.  1.
         23    2    1    2    0    0  0.17763568394E-14  0.00000000000E+00 -0.35527136788E-14  0.91188000000E+02  0.91188000000E+02 0.  0.
    9900012    2    3    3    0    0 -0.10504305230E+02 -0.22101373111E+02  0.27513077994E+02  0.54367074122E+02  0.39999977077E+02 0.  0.
        -12    1    3    3    0    0  0.10504305230E+02  0.22101373111E+02 -0.27513077994E+02  0.36820925878E+02  0.00000000000E+00 0.  1.
         11    1    4    4    0    0 -0.11869936927E+02  0.20322139623E+00  0.58224809730E+01  0.13222631603E+02  0.51100000000E-03 0. -1.
        -11    1    4    4    0    0 -0.38534130742E+01 -0.14013168715E+02 -0.27698077832E+01  0.14794915518E+02  0.51100000000E-03 0.  1.
         12    1    4    4    0    0  0.52190447710E+01 -0.82914257921E+01  0.24460404805E+02  0.26349527001E+02  0.00000000000E+00 0. -1.
</event>
<event>
 8    1  0.1269154E-006  0.9118800E+02  0.7816164E-02  0.1184000E+00
        -11   -1    0    0    0    0  0.00000000000E+00  0.00000000000E+00  0.45593999997E+02  0.45594000000E+02  0.51100000000E-03 0. -1.
         11   -1    0    0    0    0 -0.00000000000E+00 -0.00000000000E+00 -0.45593999997E+02  0.45594000000E+02  0.51100000000E-03 0.  1.
         23    2    1    2    0    0  0.00000000000E+00  0.55511151231E-15  0.71054273576E-14  0.91188000000E+02  0.91188000000E+02 0.  0.
    9900012    2    3    3    0    0  0.19108648413E+02 -0.62807644347E+00  0.31468154881E+02  0.54367086163E+02  0.40000004526E+02 0.  0.
        -12    1    3    3    0    0 -0.19108648413E+02  0.62807644347E+00 -0.31468154881E+02  0.36820913837E+02  0.00000000000E+00 0.  1.
         11    1    4    4    0    0  0.11675176421E+02 -0.46472643495E+01  0.23416098210E+02  0.26574808861E+02  0.51100000000E-03 0. -1.
        -11    1    4    4    0    0 -0.22229363972E+01 -0.63810300042E+01  0.11362019610E+02  0.13219473515E+02  0.51100000000E-03 0.  1.
        -12    1    4    4    0    0  0.96564083889E+01  0.10400217910E+02 -0.33099629387E+01  0.14572803787E+02  0.00000000000E+00 0.  1.
</event>
<event>
 8    1  0.1269154E-006  0.9118800E+02  0.7816164E-02  0.1184000E+00
        -11   -1    0    0    0    0  0.00000000000E+00  0.00000000000E+00  0.45593999997E+02  0.45594000000E+02  0.51100000000E-03 0. -1.
         11   -1    0    0    0    0 -0.00000000000E+00 -0.00000000000E+00 -0.45593999997E+02  0.45594000000E+02  0.51100000000E-03 0.  1.
         23    2    1    2    0    0  0.88817841970E-15  0.00000000000E+00  0.35527136788E-14  0.91188000000E+02  0.91188000000E+02 0.  0.
    9900012    2    3    3    0    0 -0.56531463999E+01  0.26008463614E+02 -0.25443707612E+02  0.54367075231E+02  0.39999979604E+02 0.  0.
         12    1    3    3    0    0  0.56531463999E+01 -0.26008463614E+02  0.25443707612E+02  0.36820924769E+02  0.00000000000E+00 0. -1.
         11    1    4    4    0    0 -0.63306569305E+00 -0.50951746110E+01 -0.48743560683E+00  0.51574383390E+01  0.51100000000E-03 0. -1.
        -11    1    4    4    0    0  0.46770840606E+01  0.18709131524E+02 -0.27169080362E+02  0.33317647661E+02  0.51100000000E-03 0.  1.
         12    1    4    4    0    0 -0.96971647674E+01  0.12394506701E+02  0.22128083568E+01  0.15891989231E+02  0.00000000000E+00 0. -1.
</event>
<event>
 8    1  0.1269154E-006  0.9118800E+02  0.7816164E-02  0.1184000E+00
        -11   -1    0    0    0    0  0.00000000000E+00  0.00000000000E+00  0.45593999997E+02  0.45594000000E+02  0.51100000000E-03 0.  1.
         11   -1    0    0    0    0 -0.00000000000E+00 -0.00000000000E+00 -0.45593999997E+02  0.45594000000E+02  0.51100000000E-03 0. -1.
         23    2    1    2    0    0  0.35527136788E-14  0.00000000000E+00  0.00000000000E+00  0.91188000000E+02  0.91188000000E+02 0.  0.
    9900012    2    3    3    0    0  0.30249341125E+02 -0.19761560974E+02 -0.70878810698E+01  0.54367082186E+02  0.39999995459E+02 0.  0.
        -12    1    3    3    0    0 -0.30249341125E+02  0.19761560974E+02  0.70878810698E+01  0.36820917814E+02  0.00000000000E+00 0.  1.
         11    1    4    4    0    0 -0.31736780579E+01 -0.85173948283E+01 -0.61512291036E+01  0.10975238805E+02  0.51100000000E-03 0. -1.
        -11    1    4    4    0    0  0.13110547684E+00 -0.47925261593E+01 -0.74513297905E+01  0.88604633931E+01  0.51100000000E-03 0.  1.
         12    1    4    4    0    0  0.33291913706E+02 -0.64516399861E+01  0.65146778243E+01  0.34531379988E+02  0.00000000000E+00 0. -1.
</event>
<event>
 8    1  0.1269154E-006  0.9118800E+02  0.7816164E-02  0.1184000E+00
        -11   -1    0    0    0    0  0.00000000000E+00  0.00000000000E+00  0.45593999997E+02  0.45594000000E+02  0.51100000000E-03 0. -1.
         11   -1    0    0    0    0 -0.00000000000E+00 -0.00000000000E+00 -0.45593999997E+02  0.45594000000E+02  0.51100000000E-03 0.  1.
         23    2    1    2    0    0  0.00000000000E+00  0.00000000000E+00  0.00000000000E+00  0.91188000000E+02  0.91188000000E+02 0.  0.
    9900012    2    3    3    0    0 -0.16856011221E+02  0.23220817621E+02 -0.23074559218E+02  0.54367261708E+02  0.40000404714E+02 0.  0.
         12    1    3    3    0    0  0.16856011221E+02 -0.23220817621E+02  0.23074559218E+02  0.36820738292E+02  0.00000000000E+00 0. -1.
         11    1    4    4    0    0  0.64524259183E+01  0.87450806899E+01  0.50328574530E+01  0.11976639383E+02  0.51100000000E-03 0. -1.
        -11    1    4    4    0    0 -0.15476976862E+01  0.76951749600E+01 -0.12522272524E+02  0.14778984919E+02  0.51100000000E-03 0.  1.
        -12    1    4    4    0    0 -0.21760739454E+02  0.67805619708E+01 -0.15585144147E+02  0.27611637407E+02  0.00000000000E+00 0.  1.
</event>
<event>
 8    1  0.1269154E-006  0.9118800E+02  0.7816164E-02  0.1184000E+00
        -11   -1    0    0    0    0  0.00000000000E+00  0.00000000000E+00  0.45593999997E+02  0.45594000000E+02  0.51100000000E-03 0.  1.
         11   -1    0    0    0    0 -0.00000000000E+00 -0.00000000000E+00 -0.45593999997E+02  0.45594000000E+02  0.51100000000E-03 0. -1.
         23    2    1    2    0    0  0.00000000000E+00  0.35527136788E-14  0.00000000000E+00  0.91188000000E+02  0.91188000000E+02 0.  0.
    9900012    2    3    3    0    0 -0.70672193117E+01  0.30367823316E+02 -0.19586469445E+02  0.54367081122E+02  0.39999993033E+02 0.  0.
        -12    1    3    3    0    0  0.70672193117E+01 -0.30367823316E+02  0.19586469445E+02  0.36820918878E+02  0.00000000000E+00 0.  1.
         11    1    4    4    0    0 -0.39853833837E+01  0.47824160334E+01 -0.22434580998E+02  0.23282293887E+02  0.51100000000E-03 0. -1.
        -11    1    4    4    0    0  0.65411929705E+01  0.59905673129E+01 -0.97149560844E+00  0.89228866509E+01  0.51100000000E-03 0.  1.
         12    1    4    4    0    0 -0.96230288985E+01  0.19594839969E+02  0.38196071618E+01  0.22161900584E+02  0.00000000000E+00 0. -1.
</event>
<event>
 8    1  0.1269154E-006  0.9118800E+02  0.7816164E-02  0.1184000E+00
        -11   -1    0    0    0    0  0.00000000000E+00  0.00000000000E+00  0.45593999997E+02  0.45594000000E+02  0.51100000000E-03 0.  1.
         11   -1    0    0    0    0 -0.00000000000E+00 -0.00000000000E+00 -0.45593999997E+02  0.45594000000E+02  0.51100000000E-03 0. -1.
         23    2    1    2    0    0  0.00000000000E+00  0.00000000000E+00 -0.35527136788E-14  0.91188000000E+02  0.91188000000E+02 0.  0.
    9900012    2    3    3    0    0  0.26406832420E+02  0.12323526754E+02  0.22507580581E+02  0.54367064464E+02  0.39999955059E+02 0.  0.
         12    1    3    3    0    0 -0.26406832420E+02 -0.12323526754E+02 -0.22507580581E+02  0.36820935536E+02  0.00000000000E+00 0. -1.
         11    1    4    4    0    0  0.89900391694E+01  0.66076395510E+01 -0.40486446019E+01  0.11869002826E+02  0.51100000000E-03 0. -1.
        -11    1    4    4    0    0  0.12568901108E+02  0.16071204977E+01 -0.23622806566E+01  0.12889549314E+02  0.51100000000E-03 0.  1.
        -12    1    4    4    0    0  0.48478921428E+01  0.41087667056E+01  0.28918505840E+02  0.29608512325E+02  0.00000000000E+00 0.  1.
</event>
<event>
 8    1  0.1269154E-006  0.9118800E+02  0.7816164E-02  0.1184000E+00
        -11   -1    0    0    0    0  0.00000000000E+00  0.00000000000E+00  0.45593999997E+02  0.45594000000E+02  0.51100000000E-03 0. -1.
         11   -1    0    0    0    0 -0.00000000000E+00 -0.00000000000E+00 -0.45593999997E+02  0.45594000000E+02  0.51100000000E-03 0.  1.
         23    2    1    2    0    0 -0.17763568394E-14  0.00000000000E+00  0.00000000000E+00  0.91188000000E+02  0.91188000000E+02 0.  0.
    9900012    2    3    3    0    0  0.15026225993E+02 -0.27269061661E+02  0.19656837999E+02  0.54367075629E+02  0.39999980511E+02 0.  0.
        -12    1    3    3    0    0 -0.15026225993E+02  0.27269061661E+02 -0.19656837999E+02  0.36820924371E+02  0.00000000000E+00 0.  1.
         11    1    4    4    0    0  0.53404072937E+01 -0.94553068108E+01  0.95248107166E+01  0.14444542097E+02  0.51100000000E-03 0. -1.
        -11    1    4    4    0    0 -0.13597818940E+01  0.84361093788E+01  0.74157502148E+01  0.11314163679E+02  0.51100000000E-03 0.  1.
        -12    1    4    4    0    0  0.11045600593E+02 -0.26249864229E+02  0.27162770675E+01  0.28608369852E+02  0.00000000000E+00 0.  1.
</event>
<event>
 8    1  0.1269154E-006  0.9118800E+02  0.7816164E-02  0.1184000E+00
        -11   -1    0    0    0    0  0.00000000000E+00  0.00000000000E+00  0.45593999997E+02  0.45594000000E+02  0.51100000000E-03 0.  1.
         11   -1    0    0    0    0 -0.00000000000E+00 -0.00000000000E+00 -0.45593999997E+02  0.45594000000E+02  0.51100000000E-03 0. -1.
         23    2    1    2    0    0  0.00000000000E+00  0.00000000000E+00  0.35527136788E-14  0.91188000000E+02  0.91188000000E+02 0.  0.
    9900012    2    3    3    0    0 -0.18196445795E+02 -0.17658444105E+02  0.26699218691E+02  0.54367087919E+02  0.40000008529E+02 0.  0.
         12    1    3    3    0    0  0.18196445795E+02  0.17658444105E+02 -0.26699218691E+02  0.36820912081E+02  0.00000000000E+00 0. -1.
         11    1    4    4    0    0  0.23385399671E+01 -0.11310636629E+02  0.17073331224E+02  0.20613051921E+02  0.51100000000E-03 0. -1.
        -11    1    4    4    0    0 -0.99730832846E+01  0.60771313662E+01  0.12597321996E+02  0.17178080148E+02  0.51100000000E-03 0.  1.
         12    1    4    4    0    0 -0.10561902478E+02 -0.12424938842E+02 -0.29714345295E+01  0.16575955850E+02  0.00000000000E+00 0. -1.
</event>
<event>
 8    1  0.1269154E-006  0.9118800E+02  0.7816164E-02  0.1184000E+00
        -11   -1    0    0    0    0  0.00000000000E+00  0.00000000000E+00  0.45593999997E+02  0.45594000000E+02  0.51100000000E-03 0.  1.
         11   -1    0    0    0    0 -0.00000000000E+00 -0.00000000000E+00 -0.45593999997E+02  0.45594000000E+02  0.51100000000E-03 0. -1.
         23    2    1    2    0    0  0.22204460493E-15  0.00000000000E+00  0.00000000000E+00  0.91188000000E+02  0.91188000000E+02 0.  0.
    9900012    2    3    3    0    0 -0.50800383724E+00 -0.26538986524E+02 -0.25518692774E+02  0.54367088081E+02  0.40000008899E+02 0.  0.
         12    1    3    3    0    0  0.50800383724E+00  0.26538986524E+02  0.25518692774E+02  0.36820911919E+02  0.00000000000E+00 0. -1.
         11    1    4    4    0    0 -0.25933936434E+01  0.25307334781E+01 -0.16967036554E+02  0.17349657986E+02  0.51100000000E-03 0. -1.
        -11    1    4    4    0    0 -0.19092892464E+01 -0.29140934970E+02 -0.19089000218E+01  0.29265737235E+02  0.51100000000E-03 0.  1.
        -12    1    4    4    0    0  0.39946790525E+01  0.71214967897E-01 -0.66427561979E+01  0.77516928609E+01  0.00000000000E+00 0.  1.
</event>
<event>
 8    1  0.1269154E-006  0.9118800E+02  0.7816164E-02  0.1184000E+00
        -11   -1    0    0    0    0  0.00000000000E+00  0.00000000000E+00  0.45593999997E+02  0.45594000000E+02  0.51100000000E-03 0. -1.
         11   -1    0    0    0    0 -0.00000000000E+00 -0.00000000000E+00 -0.45593999997E+02  0.45594000000E+02  0.51100000000E-03 0.  1.
         23    2    1    2    0    0 -0.35527136788E-14  0.00000000000E+00 -0.17763568394E-14  0.91188000000E+02  0.91188000000E+02 0.  0.
    9900012    2    3    3    0    0  0.19026522408E+02 -0.31133095082E+02 -0.49499220304E+01  0.54367083493E+02  0.39999998439E+02 0.  0.
         12    1    3    3    0    0 -0.19026522408E+02  0.31133095082E+02  0.49499220304E+01  0.36820916507E+02  0.00000000000E+00 0. -1.
         11    1    4    4    0    0 -0.23043444872E+01 -0.19862607732E+01  0.54625060956E+01  0.62525361639E+01  0.51100000000E-03 0. -1.
        -11    1    4    4    0    0  0.24713033106E+02 -0.33348721409E+02 -0.83456516369E+01  0.42338175757E+02  0.51100000000E-03 0.  1.
        -12    1    4    4    0    0 -0.33821662105E+01  0.42018871007E+01 -0.20667764891E+01  0.57763715720E+01  0.00000000000E+00 0.  1.
</event>
<event>
 8    1  0.1269154E-006  0.9118800E+02  0.7816164E-02  0.1184000E+00
        -11   -1    0    0    0    0  0.00000000000E+00  0.00000000000E+00  0.45593999997E+02  0.45594000000E+02  0.51100000000E-03 0.  1.
         11   -1    0    0    0    0 -0.00000000000E+00 -0.00000000000E+00 -0.45593999997E+02  0.45594000000E+02  0.51100000000E-03 0. -1.
         23    2    1    2    0    0 -0.17763568394E-14  0.17763568394E-14  0.00000000000E+00  0.91188000000E+02  0.91188000000E+02 0.  0.
    9900012    2    3    3    0    0 -0.13873564133E+02 -0.95356417044E+01  0.32746942717E+02  0.54367265328E+02  0.40000412967E+02 0.  0.
         12    1    3    3    0    0  0.13873564133E+02  0.95356417044E+01 -0.32746942717E+02  0.36820734672E+02  0.00000000000E+00 0. -1.
         11    1    4    4    0    0 -0.22305710566E+02 -0.53667223319E+01  0.51185695470E+01  0.23506301005E+02  0.51100000000E-03 0. -1.
        -11    1    4    4    0    0  0.48468128316E+01  0.17442367264E+00  0.23186026250E+02  0.23687841434E+02  0.51100000000E-03 0.  1.
         12    1    4    4    0    0  0.35853336016E+01 -0.43433430451E+01  0.44423469193E+01  0.71731228899E+01  0.00000000000E+00 0. -1.
</event>
<event>
 8    1  0.1269154E-006  0.9118800E+02  0.7816164E-02  0.1184000E+00
        -11   -1    0    0    0    0  0.00000000000E+00  0.00000000000E+00  0.45593999997E+02  0.45594000000E+02  0.51100000000E-03 0.  1.
         11   -1    0    0    0    0 -0.00000000000E+00 -0.00000000000E+00 -0.45593999997E+02  0.45594000000E+02  0.51100000000E-03 0. -1.
         23    2    1    2    0    0  0.88817841970E-15  0.00000000000E+00  0.00000000000E+00  0.91188000000E+02  0.91188000000E+02 0.  0.
    9900012    2    3    3    0    0 -0.28043750564E+01  0.90114234514E+01 -0.35590869126E+02  0.54367078811E+02  0.39999987766E+02 0.  0.
        -12    1    3    3    0    0  0.28043750564E+01 -0.90114234514E+01  0.35590869126E+02  0.36820921189E+02  0.00000000000E+00 0.  1.
         11    1    4    4    0    0 -0.12909838690E+02 -0.40612872890E+01 -0.11507930021E+02  0.17764865411E+02  0.51100000000E-03 0. -1.
        -11    1    4    4    0    0  0.64400296907E+01  0.23736497977E+01 -0.24340574652E+02  0.25289756235E+02  0.51100000000E-03 0.  1.
        -12    1    4    4    0    0  0.36654339428E+01  0.10699060943E+02  0.25763554699E+00  0.11312457165E+02  0.00000000000E+00 0.  1.
</event>
<event>
 8    1  0.1269154E-006  0.9118800E+02  0.7816164E-02  0.1184000E+00
        -11   -1    0    0    0    0  0.00000000000E+00  0.00000000000E+00  0.45593999997E+02  0.45594000000E+02  0.51100000000E-03 0. -1.
         11   -1    0    0    0    0 -0.00000000000E+00 -0.00000000000E+00 -0.45593999997E+02  0.45594000000E+02  0.51100000000E-03 0.  1.
         23    2    1    2    0    0 -0.35527136788E-14 -0.53290705182E-14  0.35527136788E-14  0.91188000000E+02  0.91188000000E+02 0.  0.
    9900012    2    3    3    0    0 -0.16269441498E+02 -0.11414029666E+02  0.30996812597E+02  0.54367120175E+02  0.40000082064E+02 0.  0.
        -12    1    3    3    0    0  0.16269441498E+02  0.11414029666E+02 -0.30996812597E+02  0.36820879825E+02  0.00000000000E+00 0.  1.
         11    1    4    4    0    0 -0.14874248632E+02  0.48739599970E+01  0.97932477795E+01  0.18463652422E+02  0.51100000000E-03 0. -1.
        -11    1    4    4    0    0 -0.42516780422E+01  0.55014686163E+01  0.59661630349E+01  0.91617697379E+01  0.51100000000E-03 0.  1.
        -12    1    4    4    0    0  0.28564851767E+01 -0.21789458279E+02  0.15237401783E+02  0.26741698016E+02  0.00000000000E+00 0.  1.
</event>
<event>
 8    1  0.1269154E-006  0.9118800E+02  0.7816164E-02  0.1184000E+00
        -11   -1    0    0    0    0  0.00000000000E+00  0.00000000000E+00  0.45593999997E+02  0.45594000000E+02  0.51100000000E-03 0.  1.
         11   -1    0    0    0    0 -0.00000000000E+00 -0.00000000000E+00 -0.45593999997E+02  0.45594000000E+02  0.51100000000E-03 0. -1.
         23    2    1    2    0    0  0.00000000000E+00  0.35527136788E-14  0.00000000000E+00  0.91188000000E+02  0.91188000000E+02 0.  0.
    9900012    2    3    3    0    0 -0.74293635482E+01 -0.27923350146E+02  0.22822550235E+02  0.54367112920E+02  0.40000065524E+02 0.  0.
         12    1    3    3    0    0  0.74293635482E+01  0.27923350146E+02 -0.22822550235E+02  0.36820887080E+02  0.00000000000E+00 0. -1.
         11    1    4    4    0    0 -0.62738660917E+01 -0.38405431632E+00  0.14082200725E+02  0.15421325202E+02  0.51100000000E-03 0. -1.
        -11    1    4    4    0    0 -0.29963300078E+01 -0.14712254422E+02  0.17685881548E+02  0.23199543747E+02  0.51100000000E-03 0.  1.
         12    1    4    4    0    0  0.18408325513E+01 -0.12827041408E+02 -0.89455320382E+01  0.15746243971E+02  0.00000000000E+00 0. -1.
</event>
<event>
 8    1  0.1269154E-006  0.9118800E+02  0.7816164E-02  0.1184000E+00
        -11   -1    0    0    0    0  0.00000000000E+00  0.00000000000E+00  0.45593999997E+02  0.45594000000E+02  0.51100000000E-03 0. -1.
         11   -1    0    0    0    0 -0.00000000000E+00 -0.00000000000E+00 -0.45593999997E+02  0.45594000000E+02  0.51100000000E-03 0.  1.
         23    2    1    2    0    0  0.88817841970E-15  0.00000000000E+00  0.88817841970E-15  0.91188000000E+02  0.91188000000E+02 0.  0.
    9900012    2    3    3    0    0 -0.51765674799E+01 -0.36088119026E+02 -0.51604177325E+01  0.54367094295E+02  0.40000023065E+02 0.  0.
        -12    1    3    3    0    0  0.51765674799E+01  0.36088119026E+02  0.51604177325E+01  0.36820905705E+02  0.00000000000E+00 0.  1.
         11    1    4    4    0    0  0.43079670344E+01 -0.24378192492E+02 -0.15799418873E+02  0.29367949981E+02  0.51100000000E-03 0. -1.
        -11    1    4    4    0    0 -0.31655782977E+01 -0.13711292774E+02  0.21599816117E+01  0.14236781811E+02  0.51100000000E-03 0.  1.
        -12    1    4    4    0    0 -0.63189562166E+01  0.20013662397E+01  0.84790195283E+01  0.10762362503E+02  0.00000000000E+00 0.  1.
</event>
<event>
 8    1  0.1269154E-006  0.9118800E+02  0.7816164E-02  0.1184000E+00
        -11   -1    0    0    0    0  0.00000000000E+00  0.00000000000E+00  0.45593999997E+02  0.45594000000E+02  0.51100000000E-03 0. -1.
         11   -1    0    0    0    0 -0.00000000000E+00 -0.00000000000E+00 -0.45593999997E+02  0.45594000000E+02  0.51100000000E-03 0.  1.
         23    2    1    2    0    0  0.00000000000E+00  0.00000000000E+00 -0.17763568394E-14  0.91188000000E+02  0.91188000000E+02 0.  0.
    9900012    2    3    3    0    0  0.28666147727E+02  0.20906903943E+02  0.98454405352E+01  0.54367090759E+02  0.40000015004E+02 0.  0.
        -12    1    3    3    0    0 -0.28666147727E+02 -0.20906903943E+02 -0.98454405352E+01  0.36820909241E+02  0.00000000000E+00 0.  1.
         11    1    4    4    0    0  0.40259086265E+01  0.19532452429E+02  0.76974570659E+01  0.21376984906E+02  0.51100000000E-03 0. -1.
        -11    1    4    4    0    0  0.16397825666E+02  0.27504919990E+00 -0.92902612944E+01  0.18848694751E+02  0.51100000000E-03 0.  1.
         12    1    4    4    0    0  0.82424134345E+01  0.10994023141E+01  0.11438244764E+02  0.14141411102E+02  0.00000000000E+00 0. -1.
</event>
<event>
 8    1  0.1269154E-006  0.9118800E+02  0.7816164E-02  0.1184000E+00
        -11   -1    0    0    0    0  0.00000000000E+00  0.00000000000E+00  0.45593999997E+02  0.45594000000E+02  0.51100000000E-03 0.  1.
         11   -1    0    0    0    0 -0.00000000000E+00 -0.00000000000E+00 -0.45593999997E+02  0.45594000000E+02  0.51100000000E-03 0. -1.
         23    2    1    2    0    0  0.00000000000E+00 -0.35527136788E-14  0.00000000000E+00  0.91188000000E+02  0.91188000000E+02 0.  0.
    9900012    2    3    3    0    0  0.88369270066E+01  0.25076371475E+02  0.25472818930E+02  0.54367079459E+02  0.39999989242E+02 0.  0.
         12    1    3    3    0    0 -0.88369270066E+01 -0.25076371475E+02 -0.25472818930E+02  0.36820920541E+02  0.00000000000E+00 0. -1.
         11    1    4    4    0    0 -0.53234829094E+01  0.51243623789E+01  0.59540248191E+01  0.94894136744E+01  0.51100000000E-03 0. -1.
        -11    1    4    4    0    0  0.32307184071E+00  0.25041439458E+02  0.16005367314E+02  0.29721202006E+02  0.51100000000E-03 0.  1.
        -12    1    4    4    0    0  0.13837338075E+02 -0.50894303621E+01  0.35134267968E+01  0.15156463779E+02  0.00000000000E+00 0.  1.
</event>
<event>
 8    1  0.1269154E-006  0.9118800E+02  0.7816164E-02  0.1184000E+00
        -11   -1    0    0    0    0  0.00000000000E+00  0.00000000000E+00  0.45593999997E+02  0.45594000000E+02  0.51100000000E-03 0.  1.
         11   -1    0    0    0    0 -0.00000000000E+00 -0.00000000000E+00 -0.45593999997E+02  0.45594000000E+02  0.51100000000E-03 0. -1.
         23    2    1    2    0    0  0.00000000000E+00 -0.35527136788E-14  0.00000000000E+00  0.91188000000E+02  0.91188000000E+02 0.  0.
    9900012    2    3    3    0    0  0.19006645108E+02 -0.26579052324E+02 -0.16972940740E+02  0.54367091563E+02  0.40000016837E+02 0.  0.
        -12    1    3    3    0    0 -0.19006645108E+02  0.26579052324E+02  0.16972940740E+02  0.36820908437E+02  0.00000000000E+00 0.  1.
         11    1    4    4    0    0  0.35849407942E+01 -0.10084653366E+02 -0.12262374837E+02  0.16276297826E+02  0.51100000000E-03 0. -1.
        -11    1    4    4    0    0  0.18290229147E+01 -0.16795662508E+02 -0.13733926440E+02  0.21772926758E+02  0.51100000000E-03 0.  1.
        -12    1    4    4    0    0  0.13592681399E+02  0.30126354996E+00  0.90233605372E+01  0.16317866979E+02  0.00000000000E+00 0.  1.
</event>
<event>
 8    1  0.1269154E-006  0.9118800E+02  0.7816164E-02  0.1184000E+00
        -11   -1    0    0    0    0  0.00000000000E+00  0.00000000000E+00  0.45593999997E+02  0.45594000000E+02  0.51100000000E-03 0. -1.
         11   -1    0    0    0    0 -0.00000000000E+00 -0.00000000000E+00 -0.45593999997E+02  0.45594000000E+02  0.51100000000E-03 0.  1.
         23    2    1    2    0    0  0.11102230246E-14 -0.22204460493E-15  0.00000000000E+00  0.91188000000E+02  0.91188000000E+02 0.  0.
    9900012    2    3    3    0    0 -0.11701965808E+01  0.11484706653E+01 -0.36784403396E+02  0.54367072824E+02  0.39999974118E+02 0.  0.
         12    1    3    3    0    0  0.11701965808E+01 -0.11484706653E+01  0.36784403396E+02  0.36820927176E+02  0.00000000000E+00 0. -1.
         11    1    4    4    0    0  0.12948263272E+02  0.59755354868E+01 -0.12227742823E+02  0.18785160125E+02  0.51100000000E-03 0. -1.
        -11    1    4    4    0    0 -0.33360166812E+01  0.30885880072E+01  0.26519206906E+01  0.52631802920E+01  0.51100000000E-03 0.  1.
        -12    1    4    4    0    0 -0.10782443171E+02 -0.79156528287E+01 -0.27208581263E+02  0.30318732407E+02  0.00000000000E+00 0.  1.
</event>
<event>
 8    1  0.1269154E-006  0.9118800E+02  0.7816164E-02  0.1184000E+00
        -11   -1    0    0    0    0  0.00000000000E+00  0.00000000000E+00  0.45593999997E+02  0.45594000000E+02  0.51100000000E-03 0. -1.
         11   -1    0    0    0    0 -0.00000000000E+00 -0.00000000000E+00 -0.45593999997E+02  0.45594000000E+02  0.51100000000E-03 0.  1.
         23    2    1    2    0    0  0.00000000000E+00  0.35527136788E-14  0.71054273576E-14  0.91188000000E+02  0.91188000000E+02 0.  0.
    9900012    2    3    3    0    0  0.46907869583E+01  0.22886251680E+02 -0.28460435493E+02  0.54367076781E+02  0.39999983139E+02 0.  0.
         12    1    3    3    0    0 -0.46907869583E+01 -0.22886251680E+02  0.28460435493E+02  0.36820923219E+02  0.00000000000E+00 0. -1.
         11    1    4    4    0    0  0.20000981106E+01 -0.97080430793E+01 -0.53500245650E+01  0.11263625348E+02  0.51100000000E-03 0. -1.
        -11    1    4    4    0    0  0.74345621187E+01  0.68128142208E+01 -0.51171542157E+01  0.11308068758E+02  0.51100000000E-03 0.  1.
         12    1    4    4    0    0 -0.47438732709E+01  0.25781480538E+02 -0.17993256712E+02  0.31795382675E+02  0.00000000000E+00 0. -1.
</event>
<event>
 8    1  0.1269154E-006  0.9118800E+02  0.7816164E-02  0.1184000E+00
        -11   -1    0    0    0    0  0.00000000000E+00  0.00000000000E+00  0.45593999997E+02  0.45594000000E+02  0.51100000000E-03 0. -1.
         11   -1    0    0    0    0 -0.00000000000E+00 -0.00000000000E+00 -0.45593999997E+02  0.45594000000E+02  0.51100000000E-03 0.  1.
         23    2    1    2    0    0  0.00000000000E+00  0.00000000000E+00 -0.88817841970E-15  0.91188000000E+02  0.91188000000E+02 0.  0.
    9900012    2    3    3    0    0  0.17714445212E+02  0.31366135050E+02  0.76252532798E+01  0.54367075450E+02  0.39999980103E+02 0.  0.
        -12    1    3    3    0    0 -0.17714445212E+02 -0.31366135050E+02 -0.76252532798E+01  0.36820924550E+02  0.00000000000E+00 0.  1.
         11    1    4    4    0    0  0.49674431599E+00 -0.48846793239E+01  0.52986157471E+01  0.72237231474E+01  0.51100000000E-03 0. -1.
        -11    1    4    4    0    0  0.12367468374E+02  0.51558940247E+01 -0.58607873034E+01  0.14624853683E+02  0.51100000000E-03 0.  1.
         12    1    4    4    0    0  0.48502325227E+01  0.31094920349E+02  0.81874248361E+01  0.32518498620E+02  0.00000000000E+00 0. -1.
</event>
<event>
 8    1  0.1269154E-006  0.9118800E+02  0.7816164E-02  0.1184000E+00
        -11   -1    0    0    0    0  0.00000000000E+00  0.00000000000E+00  0.45593999997E+02  0.45594000000E+02  0.51100000000E-03 0.  1.
         11   -1    0    0    0    0 -0.00000000000E+00 -0.00000000000E+00 -0.45593999997E+02  0.45594000000E+02  0.51100000000E-03 0. -1.
         23    2    1    2    0    0  0.00000000000E+00  0.35527136788E-14  0.17763568394E-14  0.91188000000E+02  0.91188000000E+02 0.  0.
    9900012    2    3    3    0    0 -0.15738101859E+02  0.30766656840E+02  0.12708506736E+02  0.54367066189E+02  0.39999958991E+02 0.  0.
        -12    1    3    3    0    0  0.15738101859E+02 -0.30766656840E+02 -0.12708506736E+02  0.36820933811E+02  0.00000000000E+00 0.  1.
         11    1    4    4    0    0 -0.14190759283E+01  0.13084510574E+02  0.11299362684E+01  0.13209653655E+02  0.51100000000E-03 0. -1.
        -11    1    4    4    0    0  0.89511082394E+01  0.13852604753E+01  0.87732307593E+01  0.12609950972E+02  0.51100000000E-03 0.  1.
        -12    1    4    4    0    0 -0.23270134170E+02  0.16296885791E+02  0.28053397084E+01  0.28547461562E+02  0.00000000000E+00 0.  1.
</event>
<event>
 8    1  0.1269154E-006  0.9118800E+02  0.7816164E-02  0.1184000E+00
        -11   -1    0    0    0    0  0.00000000000E+00  0.00000000000E+00  0.45593999997E+02  0.45594000000E+02  0.51100000000E-03 0. -1.
         11   -1    0    0    0    0 -0.00000000000E+00 -0.00000000000E+00 -0.45593999997E+02  0.45594000000E+02  0.51100000000E-03 0.  1.
         23    2    1    2    0    0  0.00000000000E+00  0.17763568394E-14  0.00000000000E+00  0.91188000000E+02  0.91188000000E+02 0.  0.
    9900012    2    3    3    0    0 -0.90313723098E+01 -0.12662518886E+02 -0.33374758002E+02  0.54367088251E+02  0.40000009287E+02 0.  0.
         12    1    3    3    0    0  0.90313723098E+01  0.12662518886E+02  0.33374758002E+02  0.36820911749E+02  0.00000000000E+00 0. -1.
         11    1    4    4    0    0  0.75751376190E+01 -0.14594013096E+01 -0.15209185035E+02  0.17053793473E+02  0.51100000000E-03 0. -1.
        -11    1    4    4    0    0  0.20348097670E+01 -0.38721273709E+01  0.50298239647E+01  0.66658045682E+01  0.51100000000E-03 0.  1.
        -12    1    4    4    0    0 -0.18641319696E+02 -0.73309902054E+01 -0.23195396931E+02  0.30647490210E+02  0.00000000000E+00 0.  1.
</event>
<event>
 8    1  0.1269154E-006  0.9118800E+02  0.7816164E-02  0.1184000E+00
        -11   -1    0    0    0    0  0.00000000000E+00  0.00000000000E+00  0.45593999997E+02  0.45594000000E+02  0.51100000000E-03 0.  1.
         11   -1    0    0    0    0 -0.00000000000E+00 -0.00000000000E+00 -0.45593999997E+02  0.45594000000E+02  0.51100000000E-03 0. -1.
         23    2    1    2    0    0  0.00000000000E+00  0.22204460493E-15 -0.71054273576E-14  0.91188000000E+02  0.91188000000E+02 0.  0.
    9900012    2    3    3    0    0 -0.14980638977E+02 -0.35876633918E+00 -0.33633781070E+02  0.54367089005E+02  0.40000011005E+02 0.  0.
        -12    1    3    3    0    0  0.14980638977E+02  0.35876633918E+00  0.33633781070E+02  0.36820910995E+02  0.00000000000E+00 0.  1.
         11    1    4    4    0    0 -0.11586069438E+01  0.41264017989E+01 -0.19708174066E+02  0.20168829592E+02  0.51100000000E-03 0. -1.
        -11    1    4    4    0    0 -0.20430487663E+02 -0.44794179589E+01 -0.16958615300E+02  0.26927024428E+02  0.51100000000E-03 0.  1.
        -12    1    4    4    0    0  0.66084556297E+01 -0.57501791924E-02  0.30330082963E+01  0.72712349845E+01  0.00000000000E+00 0.  1.
</event>
<event>
 8    1  0.1269154E-006  0.9118800E+02  0.7816164E-02  0.1184000E+00
        -11   -1    0    0    0    0  0.00000000000E+00  0.00000000000E+00  0.45593999997E+02  0.45594000000E+02  0.51100000000E-03 0.  1.
         11   -1    0    0    0    0 -0.00000000000E+00 -0.00000000000E+00 -0.45593999997E+02  0.45594000000E+02  0.51100000000E-03 0. -1.
         23    2    1    2    0    0 -0.88817841970E-15  0.00000000000E+00  0.71054273576E-14  0.91188000000E+02  0.91188000000E+02 0.  0.
    9900012    2    3    3    0    0 -0.61014781800E+01  0.11731854124E+02 -0.34364450794E+02  0.54367083179E+02  0.39999997724E+02 0.  0.
        -12    1    3    3    0    0  0.61014781800E+01 -0.11731854124E+02  0.34364450794E+02  0.36820916821E+02  0.00000000000E+00 0.  1.
         11    1    4    4    0    0 -0.30540224365E+01  0.57598597078E+01 -0.36133683921E+02  0.36717109783E+02  0.51100000000E-03 0. -1.
        -11    1    4    4    0    0 -0.22425320908E+01 -0.49851464039E+01 -0.23046951406E+01  0.59323060271E+01  0.51100000000E-03 0.  1.
         12    1    4    4    0    0 -0.80492365268E+00  0.10957140820E+02  0.40739282676E+01  0.11717667369E+02  0.00000000000E+00 0. -1.
</event>
<event>
 8    1  0.1269154E-006  0.9118800E+02  0.7816164E-02  0.1184000E+00
        -11   -1    0    0    0    0  0.00000000000E+00  0.00000000000E+00  0.45593999997E+02  0.45594000000E+02  0.51100000000E-03 0.  1.
         11   -1    0    0    0    0 -0.00000000000E+00 -0.00000000000E+00 -0.45593999997E+02  0.45594000000E+02  0.51100000000E-03 0. -1.
         23    2    1    2    0    0 -0.66613381478E-15  0.35527136788E-14  0.35527136788E-14  0.91188000000E+02  0.91188000000E+02 0.  0.
    9900012    2    3    3    0    0  0.16924338375E+01  0.30382304914E+02 -0.20732371857E+02  0.54367081665E+02  0.39999994272E+02 0.  0.
        -12    1    3    3    0    0 -0.16924338375E+01 -0.30382304914E+02  0.20732371857E+02  0.36820918335E+02  0.00000000000E+00 0.  1.
         11    1    4    4    0    0 -0.23049479627E+01  0.18341227341E+02 -0.40807615446E+01  0.18930557850E+02  0.51100000000E-03 0. -1.
        -11    1    4    4    0    0 -0.40409568890E+01  0.18430391528E+02 -0.42595795135E+01  0.19343026711E+02  0.51100000000E-03 0.  1.
        -12    1    4    4    0    0  0.80383386892E+01 -0.63893139548E+01 -0.12392030799E+02  0.16093497104E+02  0.00000000000E+00 0.  1.
</event>
<event>
 8    1  0.1269154E-006  0.9118800E+02  0.7816164E-02  0.1184000E+00
        -11   -1    0    0    0    0  0.00000000000E+00  0.00000000000E+00  0.45593999997E+02  0.45594000000E+02  0.51100000000E-03 0. -1.
         11   -1    0    0    0    0 -0.00000000000E+00 -0.00000000000E+00 -0.45593999997E+02  0.45594000000E+02  0.51100000000E-03 0.  1.
         23    2    1    2    0    0  0.88817841970E-15  0.00000000000E+00  0.35527136788E-14  0.91188000000E+02  0.91188000000E+02 0.  0.
    9900012    2    3    3    0    0  0.72566907472E+01  0.27722879113E+02  0.23120575189E+02  0.54367101260E+02  0.40000038943E+02 0.  0.
        -12    1    3    3    0    0 -0.72566907472E+01 -0.27722879113E+02 -0.23120575189E+02  0.36820898740E+02  0.00000000000E+00 0.  1.
         11    1    4    4    0    0  0.12987399268E+02  0.18966578646E+02  0.49166710633E+01  0.23506962796E+02  0.51100000000E-03 0. -1.
        -11    1    4    4    0    0 -0.91572865724E+01  0.20185905906E+01 -0.17351770856E+01  0.95363224107E+01  0.51100000000E-03 0.  1.
         12    1    4    4    0    0  0.34265780519E+01  0.67377098768E+01  0.19939081211E+02  0.21323816054E+02  0.00000000000E+00 0. -1.
</event>
<event>
 8    1  0.1269154E-006  0.9118800E+02  0.7816164E-02  0.1184000E+00
        -11   -1    0    0    0    0  0.00000000000E+00  0.00000000000E+00  0.45593999997E+02  0.45594000000E+02  0.51100000000E-03 0. -1.
         11   -1    0    0    0    0 -0.00000000000E+00 -0.00000000000E+00 -0.45593999997E+02  0.45594000000E+02  0.51100000000E-03 0.  1.
         23    2    1    2    0    0  0.35527136788E-14  0.00000000000E+00 -0.44408920985E-15  0.91188000000E+02  0.91188000000E+02 0.  0.
    9900012    2    3    3    0    0  0.28996235234E+02 -0.22521710657E+02 -0.27875652693E+01  0.54367087073E+02  0.40000006601E+02 0.  0.
         12    1    3    3    0    0 -0.28996235234E+02  0.22521710657E+02  0.27875652693E+01  0.36820912927E+02  0.00000000000E+00 0. -1.
         11    1    4    4    0    0  0.23544130865E+02 -0.26794578486E+01  0.58598595861E+01  0.24409906743E+02  0.51100000000E-03 0. -1.
        -11    1    4    4    0    0  0.65141630789E+01 -0.81296155044E+01 -0.13654735543E+02  0.17174887827E+02  0.51100000000E-03 0.  1.
        -12    1    4    4    0    0 -0.10620587104E+01 -0.11712637304E+02  0.50073106877E+01  0.12782292503E+02  0.00000000000E+00 0.  1.
</event>
<event>
 8    1  0.1269154E-006  0.9118800E+02  0.7816164E-02  0.1184000E+00
        -11   -1    0    0    0    0  0.00000000000E+00  0.00000000000E+00  0.45593999997E+02  0.45594000000E+02  0.51100000000E-03 0.  1.
         11   -1    0    0    0    0 -0.00000000000E+00 -0.00000000000E+00 -0.45593999997E+02  0.45594000000E+02  0.51100000000E-03 0. -1.
         23    2    1    2    0    0 -0.35527136788E-14  0.00000000000E+00 -0.17763568394E-14  0.91188000000E+02  0.91188000000E+02 0.  0.
    9900012    2    3    3    0    0  0.28650220347E+02  0.17663674969E+02 -0.14931181130E+02  0.54367072401E+02  0.39999973151E+02 0.  0.
        -12    1    3    3    0    0 -0.28650220347E+02 -0.17663674969E+02  0.14931181130E+02  0.36820927599E+02  0.00000000000E+00 0.  1.
         11    1    4    4    0    0  0.29034103412E+01 -0.45523247867E+01 -0.86171824057E+01  0.10169035620E+02  0.51100000000E-03 0. -1.
        -11    1    4    4    0    0  0.58156254662E+01  0.19355288640E+02  0.53789689244E+01  0.20913679849E+02  0.51100000000E-03 0.  1.
        -12    1    4    4    0    0  0.19931184540E+02  0.28607111157E+01 -0.11692967649E+02  0.23284356931E+02  0.00000000000E+00 0.  1.
</event>
<event>
 8    1  0.1269154E-006  0.9118800E+02  0.7816164E-02  0.1184000E+00
        -11   -1    0    0    0    0  0.00000000000E+00  0.00000000000E+00  0.45593999997E+02  0.45594000000E+02  0.51100000000E-03 0. -1.
         11   -1    0    0    0    0 -0.00000000000E+00 -0.00000000000E+00 -0.45593999997E+02  0.45594000000E+02  0.51100000000E-03 0.  1.
         23    2    1    2    0    0 -0.35527136788E-14  0.00000000000E+00 -0.35527136788E-14  0.91188000000E+02  0.91188000000E+02 0.  0.
    9900012    2    3    3    0    0 -0.20549415871E+02 -0.16305165783E+02 -0.25838570608E+02  0.54367236090E+02  0.40000346312E+02 0.  0.
         12    1    3    3    0    0  0.20549415871E+02  0.16305165783E+02  0.25838570608E+02  0.36820763910E+02  0.00000000000E+00 0. -1.
         11    1    4    4    0    0 -0.29433789474E-01  0.17245218881E+00 -0.90687992767E+01  0.90704865739E+01  0.51100000000E-03 0. -1.
        -11    1    4    4    0    0 -0.15116544491E+02 -0.61651581247E+01 -0.25821617504E+02  0.30549550289E+02  0.51100000000E-03 0.  1.
        -12    1    4    4    0    0 -0.54034375904E+01 -0.10312459847E+02  0.90518461731E+01  0.14747199227E+02  0.00000000000E+00 0.  1.
</event>
<event>
 8    1  0.1269154E-006  0.9118800E+02  0.7816164E-02  0.1184000E+00
        -11   -1    0    0    0    0  0.00000000000E+00  0.00000000000E+00  0.45593999997E+02  0.45594000000E+02  0.51100000000E-03 0. -1.
         11   -1    0    0    0    0 -0.00000000000E+00 -0.00000000000E+00 -0.45593999997E+02  0.45594000000E+02  0.51100000000E-03 0.  1.
         23    2    1    2    0    0  0.00000000000E+00  0.00000000000E+00 -0.13322676296E-14  0.91188000000E+02  0.91188000000E+02 0.  0.
    9900012    2    3    3    0    0  0.14041279083E+02 -0.33843235763E+02 -0.36411071193E+01  0.54367084935E+02  0.40000001725E+02 0.  0.
         12    1    3    3    0    0 -0.14041279083E+02  0.33843235763E+02  0.36411071193E+01  0.36820915065E+02  0.00000000000E+00 0. -1.
         11    1    4    4    0    0  0.27113094686E+01  0.50512776213E+01 -0.19959737631E+01  0.60704625990E+01  0.51100000000E-03 0. -1.
        -11    1    4    4    0    0  0.23833002921E+01 -0.59898900491E+01 -0.11165846973E+02  0.12893216898E+02  0.51100000000E-03 0.  1.
         12    1    4    4    0    0  0.89466693218E+01 -0.32904623335E+02  0.95207136172E+01  0.35403405438E+02  0.00000000000E+00 0. -1.
</event>
<event>
 8    1  0.1269154E-006  0.9118800E+02  0.7816164E-02  0.1184000E+00
        -11   -1    0    0    0    0  0.00000000000E+00  0.00000000000E+00  0.45593999997E+02  0.45594000000E+02  0.51100000000E-03 0. -1.
         11   -1    0    0    0    0 -0.00000000000E+00 -0.00000000000E+00 -0.45593999997E+02  0.45594000000E+02  0.51100000000E-03 0.  1.
         23    2    1    2    0    0  0.00000000000E+00  0.00000000000E+00  0.00000000000E+00  0.91188000000E+02  0.91188000000E+02 0.  0.
    9900012    2    3    3    0    0  0.20360536408E+02 -0.13555191017E+02  0.27522443472E+02  0.54367088265E+02  0.40000009317E+02 0.  0.
        -12    1    3    3    0    0 -0.20360536408E+02  0.13555191017E+02 -0.27522443472E+02  0.36820911735E+02  0.00000000000E+00 0.  1.
         11    1    4    4    0    0  0.67646039069E+00 -0.12801897481E+02  0.17080982171E+02  0.21356641355E+02  0.51100000000E-03 0.  1.
        -11    1    4    4    0    0  0.18267533711E+02 -0.87199466058E+00  0.17797154772E+02  0.25518657504E+02  0.51100000000E-03 0. -1.
        -12    1    4    4    0    0  0.14165423066E+01  0.11870112407E+00 -0.73556934710E+01  0.74917894059E+01  0.00000000000E+00 0.  1.
</event>
<event>
 8    1  0.1269154E-006  0.9118800E+02  0.7816164E-02  0.1184000E+00
        -11   -1    0    0    0    0  0.00000000000E+00  0.00000000000E+00  0.45593999997E+02  0.45594000000E+02  0.51100000000E-03 0.  1.
         11   -1    0    0    0    0 -0.00000000000E+00 -0.00000000000E+00 -0.45593999997E+02  0.45594000000E+02  0.51100000000E-03 0. -1.
         23    2    1    2    0    0  0.35527136788E-14 -0.35527136788E-14  0.71054273576E-14  0.91188000000E+02  0.91188000000E+02 0.  0.
    9900012    2    3    3    0    0 -0.18138109610E+02  0.24763419320E+02 -0.20336241041E+02  0.54367073120E+02  0.39999974791E+02 0.  0.
        -12    1    3    3    0    0  0.18138109610E+02 -0.24763419320E+02  0.20336241041E+02  0.36820926880E+02  0.00000000000E+00 0.  1.
         11    1    4    4    0    0  0.50569277866E+01  0.43296820700E+01 -0.40881398794E+01  0.78122694142E+01  0.51100000000E-03 0. -1.
        -11    1    4    4    0    0  0.60456059985E+01  0.81978930450E+01 -0.99467879504E+01  0.14237042989E+02  0.51100000000E-03 0.  1.
         12    1    4    4    0    0 -0.29240643395E+02  0.12235844205E+02 -0.63013132109E+01  0.32317760717E+02  0.00000000000E+00 0. -1.
</event>
<event>
 8    1  0.1269154E-006  0.9118800E+02  0.7816164E-02  0.1184000E+00
        -11   -1    0    0    0    0  0.00000000000E+00  0.00000000000E+00  0.45593999997E+02  0.45594000000E+02  0.51100000000E-03 0.  1.
         11   -1    0    0    0    0 -0.00000000000E+00 -0.00000000000E+00 -0.45593999997E+02  0.45594000000E+02  0.51100000000E-03 0. -1.
         23    2    1    2    0    0  0.35527136788E-14 -0.71054273576E-14  0.00000000000E+00  0.91188000000E+02  0.91188000000E+02 0.  0.
    9900012    2    3    3    0    0 -0.13717703618E+02  0.32212414683E+02  0.11400197854E+02  0.54367087961E+02  0.40000008625E+02 0.  0.
         12    1    3    3    0    0  0.13717703618E+02 -0.32212414683E+02 -0.11400197854E+02  0.36820912039E+02  0.00000000000E+00 0. -1.
         11    1    4    4    0    0 -0.47175056790E+01  0.23727632354E+00 -0.28606378702E+01  0.55221743155E+01  0.51100000000E-03 0. -1.
        -11    1    4    4    0    0 -0.66027426175E+01  0.20341622951E+02 -0.86251289314E+01  0.23060153593E+02  0.51100000000E-03 0.  1.
        -12    1    4    4    0    0 -0.23974553218E+01  0.11633515408E+02  0.22885964656E+02  0.25784760053E+02  0.00000000000E+00 0.  1.
</event>
<event>
 8    1  0.1269154E-006  0.9118800E+02  0.7816164E-02  0.1184000E+00
        -11   -1    0    0    0    0  0.00000000000E+00  0.00000000000E+00  0.45593999997E+02  0.45594000000E+02  0.51100000000E-03 0. -1.
         11   -1    0    0    0    0 -0.00000000000E+00 -0.00000000000E+00 -0.45593999997E+02  0.45594000000E+02  0.51100000000E-03 0.  1.
         23    2    1    2    0    0  0.00000000000E+00 -0.35527136788E-14 -0.17763568394E-14  0.91188000000E+02  0.91188000000E+02 0.  0.
    9900012    2    3    3    0    0 -0.18083455161E+02 -0.31583875124E+02 -0.55884274308E+01  0.54367040757E+02  0.39999901014E+02 0.  0.
        -12    1    3    3    0    0  0.18083455161E+02  0.31583875124E+02  0.55884274308E+01  0.36820959243E+02  0.00000000000E+00 0.  1.
         11    1    4    4    0    0 -0.33391664337E-02 -0.37036836721E+01  0.25078079068E+01  0.44728497238E+01  0.51100000000E-03 0. -1.
        -11    1    4    4    0    0 -0.35123962501E+01 -0.24501358432E+02 -0.19152447748E+02  0.31296481390E+02  0.51100000000E-03 0.  1.
        -12    1    4    4    0    0 -0.14567719744E+02 -0.33788330201E+01  0.11056212410E+02  0.18597709643E+02  0.00000000000E+00 0.  1.
</event>
<event>
 8    1  0.1269154E-006  0.9118800E+02  0.7816164E-02  0.1184000E+00
        -11   -1    0    0    0    0  0.00000000000E+00  0.00000000000E+00  0.45593999997E+02  0.45594000000E+02  0.51100000000E-03 0.  1.
         11   -1    0    0    0    0 -0.00000000000E+00 -0.00000000000E+00 -0.45593999997E+02  0.45594000000E+02  0.51100000000E-03 0. -1.
         23    2    1    2    0    0  0.00000000000E+00 -0.35527136788E-14  0.00000000000E+00  0.91188000000E+02  0.91188000000E+02 0.  0.
    9900012    2    3    3    0    0  0.41982449150E+01  0.30794375211E+02 -0.19744889116E+02  0.54367089484E+02  0.40000012097E+02 0.  0.
        -12    1    3    3    0    0 -0.41982449150E+01 -0.30794375211E+02  0.19744889116E+02  0.36820910516E+02  0.00000000000E+00 0.  1.
         11    1    4    4    0    0  0.73323182898E+01  0.14872519842E+02  0.11794326256E+01  0.16623651811E+02  0.51100000000E-03 0. -1.
        -11    1    4    4    0    0 -0.40092075577E+01  0.13304406988E+02  0.25329777850E+01  0.14124339533E+02  0.51100000000E-03 0.  1.
         12    1    4    4    0    0  0.87513418300E+00  0.26174483819E+01 -0.23457299526E+02  0.23619098140E+02  0.00000000000E+00 0. -1.
</event>
<event>
 8    1  0.1269154E-006  0.9118800E+02  0.7816164E-02  0.1184000E+00
        -11   -1    0    0    0    0  0.00000000000E+00  0.00000000000E+00  0.45593999997E+02  0.45594000000E+02  0.51100000000E-03 0.  1.
         11   -1    0    0    0    0 -0.00000000000E+00 -0.00000000000E+00 -0.45593999997E+02  0.45594000000E+02  0.51100000000E-03 0. -1.
         23    2    1    2    0    0 -0.11102230246E-14 -0.44408920985E-15 -0.71054273576E-14  0.91188000000E+02  0.91188000000E+02 0.  0.
    9900012    2    3    3    0    0  0.16884819813E+01 -0.33453500973E+01 -0.36629744844E+02  0.54367074617E+02  0.39999978205E+02 0.  0.
        -12    1    3    3    0    0 -0.16884819813E+01  0.33453500973E+01  0.36629744844E+02  0.36820925383E+02  0.00000000000E+00 0.  1.
         11    1    4    4    0    0  0.12214302072E+02 -0.74065518052E+01 -0.36747314984E+02  0.39426023684E+02  0.51100000000E-03 0. -1.
        -11    1    4    4    0    0 -0.64790717884E+01  0.33415883889E+01  0.47862892626E+01  0.87208456796E+01  0.51100000000E-03 0.  1.
        -12    1    4    4    0    0 -0.40467483022E+01  0.71961331894E+00 -0.46687191227E+01  0.62202052536E+01  0.00000000000E+00 0.  1.
</event>
<event>
 8    1  0.1269154E-006  0.9118800E+02  0.7816164E-02  0.1184000E+00
        -11   -1    0    0    0    0  0.00000000000E+00  0.00000000000E+00  0.45593999997E+02  0.45594000000E+02  0.51100000000E-03 0.  1.
         11   -1    0    0    0    0 -0.00000000000E+00 -0.00000000000E+00 -0.45593999997E+02  0.45594000000E+02  0.51100000000E-03 0. -1.
         23    2    1    2    0    0  0.00000000000E+00  0.35527136788E-14  0.17763568394E-14  0.91188000000E+02  0.91188000000E+02 0.  0.
    9900012    2    3    3    0    0  0.16882506955E+02 -0.29567735861E+02 -0.14018192868E+02  0.54367085069E+02  0.40000002033E+02 0.  0.
         12    1    3    3    0    0 -0.16882506955E+02  0.29567735861E+02  0.14018192868E+02  0.36820914931E+02  0.00000000000E+00 0. -1.
         11    1    4    4    0    0  0.16939041303E+02 -0.88252197776E+01  0.34945311901E+00  0.19103343742E+02  0.51100000000E-03 0. -1.
        -11    1    4    4    0    0  0.49697283121E+01 -0.70442196406E+01  0.57859758458E+01  0.10382521206E+02  0.51100000000E-03 0.  1.
        -12    1    4    4    0    0 -0.50262626595E+01 -0.13698296443E+02 -0.20153621833E+02  0.24881220122E+02  0.00000000000E+00 0.  1.
</event>
<event>
 8    1  0.1269154E-006  0.9118800E+02  0.7816164E-02  0.1184000E+00
        -11   -1    0    0    0    0  0.00000000000E+00  0.00000000000E+00  0.45593999997E+02  0.45594000000E+02  0.51100000000E-03 0.  1.
         11   -1    0    0    0    0 -0.00000000000E+00 -0.00000000000E+00 -0.45593999997E+02  0.45594000000E+02  0.51100000000E-03 0. -1.
         23    2    1    2    0    0  0.00000000000E+00  0.00000000000E+00  0.88817841970E-15  0.91188000000E+02  0.91188000000E+02 0.  0.
    9900012    2    3    3    0    0  0.56625966358E+01  0.35504103356E+02 -0.79481989880E+01  0.54367079005E+02  0.39999988208E+02 0.  0.
         12    1    3    3    0    0 -0.56625966358E+01 -0.35504103356E+02  0.79481989880E+01  0.36820920995E+02  0.00000000000E+00 0. -1.
         11    1    4    4    0    0  0.83657045325E+01 -0.13686779617E+01 -0.65729433766E+01  0.10726689917E+02  0.51100000000E-03 0. -1.
        -11    1    4    4    0    0 -0.88061018125E+01  0.12080654119E+02 -0.84152404872E+01  0.17155346274E+02  0.51100000000E-03 0.  1.
        -12    1    4    4    0    0  0.61029939157E+01  0.24792127199E+02  0.70399848758E+01  0.26485042813E+02  0.00000000000E+00 0.  1.
</event>
<event>
 8    1  0.1269154E-006  0.9118800E+02  0.7816164E-02  0.1184000E+00
        -11   -1    0    0    0    0  0.00000000000E+00  0.00000000000E+00  0.45593999997E+02  0.45594000000E+02  0.51100000000E-03 0. -1.
         11   -1    0    0    0    0 -0.00000000000E+00 -0.00000000000E+00 -0.45593999997E+02  0.45594000000E+02  0.51100000000E-03 0.  1.
         23    2    1    2    0    0  0.13322676296E-14  0.44408920985E-15  0.00000000000E+00  0.91188000000E+02  0.91188000000E+02 0.  0.
    9900012    2    3    3    0    0 -0.38931206848E+01  0.34593432179E+01 -0.36450737372E+02  0.54367086118E+02  0.40000004423E+02 0.  0.
         12    1    3    3    0    0  0.38931206848E+01 -0.34593432179E+01  0.36450737372E+02  0.36820913882E+02  0.00000000000E+00 0. -1.
         11    1    4    4    0    0 -0.22926543894E+01  0.18945194785E+02 -0.16419647885E+02  0.25175017508E+02  0.51100000000E-03 0.  1.
        -11    1    4    4    0    0  0.59062307871E+01 -0.87447415332E+01 -0.68021034319E+01  0.12554787053E+02  0.51100000000E-03 0. -1.
        -12    1    4    4    0    0 -0.75066970824E+01 -0.67411100337E+01 -0.13228986054E+02  0.16637281557E+02  0.00000000000E+00 0.  1.
</event>
<event>
 8    1  0.1269154E-006  0.9118800E+02  0.7816164E-02  0.1184000E+00
        -11   -1    0    0    0    0  0.00000000000E+00  0.00000000000E+00  0.45593999997E+02  0.45594000000E+02  0.51100000000E-03 0. -1.
         11   -1    0    0    0    0 -0.00000000000E+00 -0.00000000000E+00 -0.45593999997E+02  0.45594000000E+02  0.51100000000E-03 0.  1.
         23    2    1    2    0    0  0.00000000000E+00  0.00000000000E+00  0.00000000000E+00  0.91188000000E+02  0.91188000000E+02 0.  0.
    9900012    2    3    3    0    0  0.25083078138E+02 -0.18711668834E+02 -0.19403340252E+02  0.54367123145E+02  0.40000088834E+02 0.  0.
         12    1    3    3    0    0 -0.25083078138E+02  0.18711668834E+02  0.19403340252E+02  0.36820876855E+02  0.00000000000E+00 0. -1.
         11    1    4    4    0    0  0.13422837244E+02  0.45623137562E+00 -0.23758707555E+01  0.13639115398E+02  0.51100000000E-03 0. -1.
        -11    1    4    4    0    0  0.21173698843E+02 -0.15267025209E+02 -0.87604216481E+01  0.27534570437E+02  0.51100000000E-03 0.  1.
         12    1    4    4    0    0 -0.95134579490E+01 -0.39008750008E+01 -0.82670478486E+01  0.13193437310E+02  0.00000000000E+00 0. -1.
</event>
<event>
 8    1  0.1269154E-006  0.9118800E+02  0.7816164E-02  0.1184000E+00
        -11   -1    0    0    0    0  0.00000000000E+00  0.00000000000E+00  0.45593999997E+02  0.45594000000E+02  0.51100000000E-03 0.  1.
         11   -1    0    0    0    0 -0.00000000000E+00 -0.00000000000E+00 -0.45593999997E+02  0.45594000000E+02  0.51100000000E-03 0. -1.
         23    2    1    2    0    0  0.00000000000E+00  0.00000000000E+00  0.00000000000E+00  0.91188000000E+02  0.91188000000E+02 0.  0.
    9900012    2    3    3    0    0 -0.14277060392E+02 -0.29687044205E+02 -0.16450674695E+02  0.54367085495E+02  0.40000003004E+02 0.  0.
        -12    1    3    3    0    0  0.14277060392E+02  0.29687044205E+02  0.16450674695E+02  0.36820914505E+02  0.00000000000E+00 0.  1.
         11    1    4    4    0    0 -0.53846212379E+01 -0.30402071230E+02 -0.41440931528E+01  0.31152104091E+02  0.51100000000E-03 0. -1.
        -11    1    4    4    0    0  0.34429923243E+01  0.50379319997E+01 -0.15726408262E+01  0.63014406613E+01  0.51100000000E-03 0.  1.
         12    1    4    4    0    0 -0.12335431479E+02 -0.43229049742E+01 -0.10733940716E+02  0.16913540743E+02  0.00000000000E+00 0. -1.
</event>
<event>
 8    1  0.1269154E-006  0.9118800E+02  0.7816164E-02  0.1184000E+00
        -11   -1    0    0    0    0  0.00000000000E+00  0.00000000000E+00  0.45593999997E+02  0.45594000000E+02  0.51100000000E-03 0.  1.
         11   -1    0    0    0    0 -0.00000000000E+00 -0.00000000000E+00 -0.45593999997E+02  0.45594000000E+02  0.51100000000E-03 0. -1.
         23    2    1    2    0    0  0.00000000000E+00  0.17763568394E-14  0.00000000000E+00  0.91188000000E+02  0.91188000000E+02 0.  0.
    9900012    2    3    3    0    0 -0.31344824940E+02  0.15229769810E+02 -0.11888490920E+02  0.54367079922E+02  0.39999990299E+02 0.  0.
        -12    1    3    3    0    0  0.31344824940E+02 -0.15229769810E+02  0.11888490920E+02  0.36820920078E+02  0.00000000000E+00 0.  1.
         11    1    4    4    0    0 -0.66649468443E+01  0.12981286202E+02 -0.97182641445E+01  0.17532255021E+02  0.51100000000E-03 0. -1.
        -11    1    4    4    0    0 -0.28990060379E+01 -0.77818501840E+01  0.72964254737E+01  0.11054377108E+02  0.51100000000E-03 0.  1.
        -12    1    4    4    0    0 -0.21780872058E+02  0.10030333792E+02 -0.94666522495E+01  0.25780447793E+02  0.00000000000E+00 0.  1.
</event>
<event>
 8    1  0.1269154E-006  0.9118800E+02  0.7816164E-02  0.1184000E+00
        -11   -1    0    0    0    0  0.00000000000E+00  0.00000000000E+00  0.45593999997E+02  0.45594000000E+02  0.51100000000E-03 0.  1.
         11   -1    0    0    0    0 -0.00000000000E+00 -0.00000000000E+00 -0.45593999997E+02  0.45594000000E+02  0.51100000000E-03 0. -1.
         23    2    1    2    0    0  0.44408920985E-15  0.00000000000E+00  0.00000000000E+00  0.91188000000E+02  0.91188000000E+02 0.  0.
    9900012    2    3    3    0    0 -0.10267393328E+01 -0.87964262356E+01 -0.35740019704E+02  0.54367077732E+02  0.39999985306E+02 0.  0.
        -12    1    3    3    0    0  0.10267393328E+01  0.87964262356E+01  0.35740019704E+02  0.36820922268E+02  0.00000000000E+00 0.  1.
         11    1    4    4    0    0  0.48299440569E+01 -0.21234417659E+02 -0.25990113490E+02  0.33907445383E+02  0.51100000000E-03 0. -1.
        -11    1    4    4    0    0  0.13562423676E+01  0.98071817653E+01 -0.33115668350E+01  0.10439668706E+02  0.51100000000E-03 0.  1.
        -12    1    4    4    0    0 -0.72129257574E+01  0.26308096584E+01 -0.64383393796E+01  0.10019963643E+02  0.00000000000E+00 0.  1.
</event>
<event>
 8    1  0.1269154E-006  0.9118800E+02  0.7816164E-02  0.1184000E+00
        -11   -1    0    0    0    0  0.00000000000E+00  0.00000000000E+00  0.45593999997E+02  0.45594000000E+02  0.51100000000E-03 0.  1.
         11   -1    0    0    0    0 -0.00000000000E+00 -0.00000000000E+00 -0.45593999997E+02  0.45594000000E+02  0.51100000000E-03 0. -1.
         23    2    1    2    0    0  0.00000000000E+00 -0.88817841970E-15  0.00000000000E+00  0.91188000000E+02  0.91188000000E+02 0.  0.
    9900012    2    3    3    0    0  0.16496633413E+02  0.50114816863E+01 -0.32534940067E+02  0.54367133798E+02  0.40000113120E+02 0.  0.
        -12    1    3    3    0    0 -0.16496633413E+02 -0.50114816863E+01  0.32534940067E+02  0.36820866202E+02  0.00000000000E+00 0.  1.
         11    1    4    4    0    0  0.36296458600E+01  0.15587194038E+02 -0.75705660733E+01  0.17704474518E+02  0.51100000000E-03 0. -1.
        -11    1    4    4    0    0  0.79810605971E+01  0.34449642760E+01 -0.13914622241E+01  0.88034808172E+01  0.51100000000E-03 0.  1.
         12    1    4    4    0    0  0.48859269558E+01 -0.14020676628E+02 -0.23572911770E+02  0.27859178463E+02  0.00000000000E+00 0. -1.
</event>
<event>
 8    1  0.1269154E-006  0.9118800E+02  0.7816164E-02  0.1184000E+00
        -11   -1    0    0    0    0  0.00000000000E+00  0.00000000000E+00  0.45593999997E+02  0.45594000000E+02  0.51100000000E-03 0. -1.
         11   -1    0    0    0    0 -0.00000000000E+00 -0.00000000000E+00 -0.45593999997E+02  0.45594000000E+02  0.51100000000E-03 0.  1.
         23    2    1    2    0    0  0.00000000000E+00  0.00000000000E+00 -0.17763568394E-14  0.91188000000E+02  0.91188000000E+02 0.  0.
    9900012    2    3    3    0    0 -0.27408982718E+02 -0.22714910208E+02 -0.94107176655E+01  0.54367067280E+02  0.39999961478E+02 0.  0.
         12    1    3    3    0    0  0.27408982718E+02  0.22714910208E+02  0.94107176655E+01  0.36820932720E+02  0.00000000000E+00 0. -1.
         11    1    4    4    0    0  0.56124250996E+01 -0.14254066839E+02 -0.84159246330E+01  0.17478716333E+02  0.51100000000E-03 0. -1.
        -11    1    4    4    0    0 -0.54687648939E+01 -0.40468234129E+01 -0.53392228935E+01  0.86482062052E+01  0.51100000000E-03 0.  1.
         12    1    4    4    0    0 -0.27552642923E+02 -0.44140199564E+01  0.43444298610E+01  0.28240144742E+02  0.00000000000E+00 0. -1.
</event>
<event>
 8    1  0.1269154E-006  0.9118800E+02  0.7816164E-02  0.1184000E+00
        -11   -1    0    0    0    0  0.00000000000E+00  0.00000000000E+00  0.45593999997E+02  0.45594000000E+02  0.51100000000E-03 0.  1.
         11   -1    0    0    0    0 -0.00000000000E+00 -0.00000000000E+00 -0.45593999997E+02  0.45594000000E+02  0.51100000000E-03 0. -1.
         23    2    1    2    0    0  0.00000000000E+00  0.00000000000E+00  0.17763568394E-14  0.91188000000E+02  0.91188000000E+02 0.  0.
    9900012    2    3    3    0    0 -0.19619461930E+02 -0.29679285856E+02  0.94866221849E+01  0.54367091594E+02  0.40000016908E+02 0.  0.
         12    1    3    3    0    0  0.19619461930E+02  0.29679285856E+02 -0.94866221849E+01  0.36820908406E+02  0.00000000000E+00 0. -1.
         11    1    4    4    0    0 -0.15324505643E+02 -0.22311166539E+02 -0.65563765735E+01  0.27849859956E+02  0.51100000000E-03 0. -1.
        -11    1    4    4    0    0 -0.50478586399E+01  0.42688458600E+01 -0.89341940675E-01  0.66114978688E+01  0.51100000000E-03 0.  1.
         12    1    4    4    0    0  0.75290235283E+00 -0.11636965177E+02  0.16132340699E+02  0.19905733770E+02  0.00000000000E+00 0. -1.
</event>
<event>
 8    1  0.1269154E-006  0.9118800E+02  0.7816164E-02  0.1184000E+00
        -11   -1    0    0    0    0  0.00000000000E+00  0.00000000000E+00  0.45593999997E+02  0.45594000000E+02  0.51100000000E-03 0. -1.
         11   -1    0    0    0    0 -0.00000000000E+00 -0.00000000000E+00 -0.45593999997E+02  0.45594000000E+02  0.51100000000E-03 0.  1.
         23    2    1    2    0    0  0.10130785100E-14  0.35527136788E-14  0.00000000000E+00  0.91188000000E+02  0.91188000000E+02 0.  0.
    9900012    2    3    3    0    0  0.77938015449E-01  0.16145346228E+02  0.33092322085E+02  0.54367081216E+02  0.39999993248E+02 0.  0.
        -12    1    3    3    0    0 -0.77938015449E-01 -0.16145346228E+02 -0.33092322085E+02  0.36820918784E+02  0.00000000000E+00 0.  1.
         11    1    4    4    0    0 -0.11324713009E+02 -0.49029813760E+01  0.14715938220E+02  0.19205394791E+02  0.51100000000E-03 0. -1.
        -11    1    4    4    0    0  0.11546839654E+02  0.39405516722E+01  0.40754069419E+01  0.12863374188E+02  0.51100000000E-03 0.  1.
        -12    1    4    4    0    0 -0.14418862996E+00  0.17107775932E+02  0.14300976923E+02  0.22298312238E+02  0.00000000000E+00 0.  1.
</event>
<event>
 8    1  0.1269154E-006  0.9118800E+02  0.7816164E-02  0.1184000E+00
        -11   -1    0    0    0    0  0.00000000000E+00  0.00000000000E+00  0.45593999997E+02  0.45594000000E+02  0.51100000000E-03 0.  1.
         11   -1    0    0    0    0 -0.00000000000E+00 -0.00000000000E+00 -0.45593999997E+02  0.45594000000E+02  0.51100000000E-03 0. -1.
         23    2    1    2    0    0  0.88817841970E-15  0.00000000000E+00  0.00000000000E+00  0.91188000000E+02  0.91188000000E+02 0.  0.
    9900012    2    3    3    0    0  0.33051112844E+01 -0.96575528666E+01 -0.35377783987E+02  0.54367086271E+02  0.40000004773E+02 0.  0.
        -12    1    3    3    0    0 -0.33051112844E+01  0.96575528666E+01  0.35377783987E+02  0.36820913729E+02  0.00000000000E+00 0.  1.
         11    1    4    4    0    0  0.17121406649E+02 -0.38306298906E+01 -0.21093457073E+02  0.27436293892E+02  0.51100000000E-03 0. -1.
        -11    1    4    4    0    0 -0.40955969163E+01 -0.86972516539E+01 -0.24672996216E+00  0.96164950147E+01  0.51100000000E-03 0.  1.
         12    1    4    4    0    0 -0.97206984482E+01  0.28703286780E+01 -0.14037596952E+02  0.17314297365E+02  0.00000000000E+00 0. -1.
</event>
<event>
 8    1  0.1269154E-006  0.9118800E+02  0.7816164E-02  0.1184000E+00
        -11   -1    0    0    0    0  0.00000000000E+00  0.00000000000E+00  0.45593999997E+02  0.45594000000E+02  0.51100000000E-03 0.  1.
         11   -1    0    0    0    0 -0.00000000000E+00 -0.00000000000E+00 -0.45593999997E+02  0.45594000000E+02  0.51100000000E-03 0. -1.
         23    2    1    2    0    0  0.00000000000E+00  0.00000000000E+00  0.00000000000E+00  0.91188000000E+02  0.91188000000E+02 0.  0.
    9900012    2    3    3    0    0  0.14942571928E+02  0.32184172129E+02 -0.98324816924E+01  0.54367094420E+02  0.40000023350E+02 0.  0.
        -12    1    3    3    0    0 -0.14942571928E+02 -0.32184172129E+02  0.98324816924E+01  0.36820905580E+02  0.00000000000E+00 0.  1.
         11    1    4    4    0    0  0.16625887025E+02  0.18006805927E+02  0.13463708327E+01  0.24545425109E+02  0.51100000000E-03 0. -1.
        -11    1    4    4    0    0  0.26217263553E+01  0.50855749546E+01  0.70026079165E+01  0.90428446627E+01  0.51100000000E-03 0.  1.
         12    1    4    4    0    0 -0.43050414531E+01  0.90917912476E+01 -0.18181460442E+02  0.20778824649E+02  0.00000000000E+00 0. -1.
</event>
<event>
 8    1  0.1269154E-006  0.9118800E+02  0.7816164E-02  0.1184000E+00
        -11   -1    0    0    0    0  0.00000000000E+00  0.00000000000E+00  0.45593999997E+02  0.45594000000E+02  0.51100000000E-03 0. -1.
         11   -1    0    0    0    0 -0.00000000000E+00 -0.00000000000E+00 -0.45593999997E+02  0.45594000000E+02  0.51100000000E-03 0.  1.
         23    2    1    2    0    0 -0.35527136788E-14  0.00000000000E+00  0.00000000000E+00  0.91188000000E+02  0.91188000000E+02 0.  0.
    9900012    2    3    3    0    0  0.29480108341E+02 -0.12601010599E+02  0.18108579247E+02  0.54367042676E+02  0.39999905389E+02 0.  0.
        -12    1    3    3    0    0 -0.29480108341E+02  0.12601010599E+02 -0.18108579247E+02  0.36820957324E+02  0.00000000000E+00 0.  1.
         11    1    4    4    0    0  0.13626432750E+01  0.40840091728E+01  0.14383664091E+02  0.15014183979E+02  0.51100000000E-03 0. -1.
        -11    1    4    4    0    0  0.22612167503E+02 -0.10922751111E+01  0.23258980925E+01  0.22757701692E+02  0.51100000000E-03 0.  1.
        -12    1    4    4    0    0  0.55052975629E+01 -0.15592744660E+02  0.13990170637E+01  0.16595157006E+02  0.00000000000E+00 0.  1.
</event>
<event>
 8    1  0.1269154E-006  0.9118800E+02  0.7816164E-02  0.1184000E+00
        -11   -1    0    0    0    0  0.00000000000E+00  0.00000000000E+00  0.45593999997E+02  0.45594000000E+02  0.51100000000E-03 0. -1.
         11   -1    0    0    0    0 -0.00000000000E+00 -0.00000000000E+00 -0.45593999997E+02  0.45594000000E+02  0.51100000000E-03 0.  1.
         23    2    1    2    0    0  0.44408920985E-15  0.00000000000E+00  0.00000000000E+00  0.91188000000E+02  0.91188000000E+02 0.  0.
    9900012    2    3    3    0    0  0.36047894058E+01 -0.36468264017E+02 -0.35847924624E+01  0.54367088494E+02  0.40000009841E+02 0.  0.
        -12    1    3    3    0    0 -0.36047894058E+01  0.36468264017E+02  0.35847924624E+01  0.36820911506E+02  0.00000000000E+00 0.  1.
         11    1    4    4    0    0  0.13940137353E+01 -0.13055572594E+02  0.14517667650E+02  0.19574317978E+02  0.51100000000E-03 0. -1.
        -11    1    4    4    0    0  0.46273705622E+01 -0.15691084376E+02 -0.20618135448E+02  0.26319768176E+02  0.51100000000E-03 0.  1.
        -12    1    4    4    0    0 -0.24165948916E+01 -0.77216070481E+01  0.25156753357E+01  0.84730023410E+01  0.00000000000E+00 0.  1.
</event>
<event>
 8    1  0.1269154E-006  0.9118800E+02  0.7816164E-02  0.1184000E+00
        -11   -1    0    0    0    0  0.00000000000E+00  0.00000000000E+00  0.45593999997E+02  0.45594000000E+02  0.51100000000E-03 0. -1.
         11   -1    0    0    0    0 -0.00000000000E+00 -0.00000000000E+00 -0.45593999997E+02  0.45594000000E+02  0.51100000000E-03 0.  1.
         23    2    1    2    0    0 -0.35527136788E-14 -0.44408920985E-15  0.00000000000E+00  0.91188000000E+02  0.91188000000E+02 0.  0.
    9900012    2    3    3    0    0 -0.20142925247E+02  0.35814443620E+00 -0.30820642599E+02  0.54367113058E+02  0.40000065839E+02 0.  0.
         12    1    3    3    0    0  0.20142925247E+02 -0.35814443620E+00  0.30820642599E+02  0.36820886942E+02  0.00000000000E+00 0. -1.
         11    1    4    4    0    0 -0.20452389209E+02  0.32557920870E+01 -0.52491770009E+01  0.21364790332E+02  0.51100000000E-03 0. -1.
        -11    1    4    4    0    0 -0.75874159320E-01  0.88901754591E+01 -0.13152086753E+02  0.15875086229E+02  0.51100000000E-03 0.  1.
        -12    1    4    4    0    0  0.38533812091E+00 -0.11787823110E+02 -0.12419378845E+02  0.17127236498E+02  0.00000000000E+00 0.  1.
</event>
<event>
 8    1  0.1269154E-006  0.9118800E+02  0.7816164E-02  0.1184000E+00
        -11   -1    0    0    0    0  0.00000000000E+00  0.00000000000E+00  0.45593999997E+02  0.45594000000E+02  0.51100000000E-03 0.  1.
         11   -1    0    0    0    0 -0.00000000000E+00 -0.00000000000E+00 -0.45593999997E+02  0.45594000000E+02  0.51100000000E-03 0. -1.
         23    2    1    2    0    0  0.00000000000E+00  0.00000000000E+00 -0.22204460493E-15  0.91188000000E+02  0.91188000000E+02 0.  0.
    9900012    2    3    3    0    0  0.94091635609E+01 -0.35543309017E+02  0.19798567934E+01  0.54367095507E+02  0.40000025827E+02 0.  0.
         12    1    3    3    0    0 -0.94091635609E+01  0.35543309017E+02 -0.19798567934E+01  0.36820904493E+02  0.00000000000E+00 0. -1.
         11    1    4    4    0    0  0.79671948740E+01 -0.36709052545E+02  0.68819155375E+01  0.38188892294E+02  0.51100000000E-03 0. -1.
        -11    1    4    4    0    0 -0.62386079739E+01  0.20849474768E+01  0.71786035447E+00  0.66168390628E+01  0.51100000000E-03 0.  1.
         12    1    4    4    0    0  0.76805766608E+01 -0.91920394891E+00 -0.56199190985E+01  0.95613641504E+01  0.00000000000E+00 0. -1.
</event>
<event>
 8    1  0.1269154E-006  0.9118800E+02  0.7816164E-02  0.1184000E+00
        -11   -1    0    0    0    0  0.00000000000E+00  0.00000000000E+00  0.45593999997E+02  0.45594000000E+02  0.51100000000E-03 0.  1.
         11   -1    0    0    0    0 -0.00000000000E+00 -0.00000000000E+00 -0.45593999997E+02  0.45594000000E+02  0.51100000000E-03 0. -1.
         23    2    1    2    0    0  0.35527136788E-14  0.00000000000E+00 -0.35527136788E-14  0.91188000000E+02  0.91188000000E+02 0.  0.
    9900012    2    3    3    0    0  0.22095062428E+02 -0.31663499880E+01 -0.29284187673E+02  0.54367065688E+02  0.39999957849E+02 0.  0.
        -12    1    3    3    0    0 -0.22095062428E+02  0.31663499880E+01  0.29284187673E+02  0.36820934312E+02  0.00000000000E+00 0.  1.
         11    1    4    4    0    0  0.18243438997E+02 -0.39515686063E+01 -0.29777738161E+02  0.35144724371E+02  0.51100000000E-03 0. -1.
        -11    1    4    4    0    0 -0.45243063765E+01 -0.55816530509E+00 -0.66974013498E+01  0.81016098276E+01  0.51100000000E-03 0.  1.
         12    1    4    4    0    0  0.83759298079E+01  0.13433839234E+01  0.71909518383E+01  0.11120731489E+02  0.00000000000E+00 0. -1.
</event>
<event>
 8    1  0.1269154E-006  0.9118800E+02  0.7816164E-02  0.1184000E+00
        -11   -1    0    0    0    0  0.00000000000E+00  0.00000000000E+00  0.45593999997E+02  0.45594000000E+02  0.51100000000E-03 0.  1.
         11   -1    0    0    0    0 -0.00000000000E+00 -0.00000000000E+00 -0.45593999997E+02  0.45594000000E+02  0.51100000000E-03 0. -1.
         23    2    1    2    0    0  0.26645352591E-14  0.00000000000E+00  0.35527136788E-14  0.91188000000E+02  0.91188000000E+02 0.  0.
    9900012    2    3    3    0    0 -0.49018339500E+01 -0.18315884291E+02 -0.31563907276E+02  0.54367084260E+02  0.40000000187E+02 0.  0.
        -12    1    3    3    0    0  0.49018339500E+01  0.18315884291E+02  0.31563907276E+02  0.36820915740E+02  0.00000000000E+00 0.  1.
         11    1    4    4    0    0  0.72380642830E+01 -0.21066348513E+01 -0.13198732873E+02  0.15199803771E+02  0.51100000000E-03 0. -1.
        -11    1    4    4    0    0 -0.21313914170E+02 -0.12409058194E+02 -0.13268918288E+02  0.28005925360E+02  0.51100000000E-03 0.  1.
        -12    1    4    4    0    0  0.91740159367E+01 -0.38001912455E+01 -0.50962561153E+01  0.11161355128E+02  0.00000000000E+00 0.  1.
</event>
<event>
 8    1  0.1269154E-006  0.9118800E+02  0.7816164E-02  0.1184000E+00
        -11   -1    0    0    0    0  0.00000000000E+00  0.00000000000E+00  0.45593999997E+02  0.45594000000E+02  0.51100000000E-03 0.  1.
         11   -1    0    0    0    0 -0.00000000000E+00 -0.00000000000E+00 -0.45593999997E+02  0.45594000000E+02  0.51100000000E-03 0. -1.
         23    2    1    2    0    0 -0.88817841970E-15  0.00000000000E+00 -0.17763568394E-14  0.91188000000E+02  0.91188000000E+02 0.  0.
    9900012    2    3    3    0    0  0.55643748639E+01 -0.33928354929E+02  0.13178927909E+02  0.54367086423E+02  0.40000005119E+02 0.  0.
         12    1    3    3    0    0 -0.55643748639E+01  0.33928354929E+02 -0.13178927909E+02  0.36820913577E+02  0.00000000000E+00 0. -1.
         11    1    4    4    0    0  0.87262774950E+01 -0.23178353137E+02  0.20158514838E+02  0.31933519909E+02  0.51100000000E-03 0. -1.
        -11    1    4    4    0    0 -0.64552751911E+01  0.29842091949E+01 -0.32912488989E+01  0.78363513121E+01  0.51100000000E-03 0.  1.
         12    1    4    4    0    0  0.32933725599E+01 -0.13734210986E+02 -0.36883380293E+01  0.14597215202E+02  0.00000000000E+00 0. -1.
</event>
<event>
 8    1  0.1269154E-006  0.9118800E+02  0.7816164E-02  0.1184000E+00
        -11   -1    0    0    0    0  0.00000000000E+00  0.00000000000E+00  0.45593999997E+02  0.45594000000E+02  0.51100000000E-03 0. -1.
         11   -1    0    0    0    0 -0.00000000000E+00 -0.00000000000E+00 -0.45593999997E+02  0.45594000000E+02  0.51100000000E-03 0.  1.
         23    2    1    2    0    0  0.00000000000E+00  0.00000000000E+00  0.00000000000E+00  0.91188000000E+02  0.91188000000E+02 0.  0.
    9900012    2    3    3    0    0 -0.17198588692E+02  0.20047883166E+02 -0.25652919075E+02  0.54367063979E+02  0.39999953952E+02 0.  0.
         12    1    3    3    0    0  0.17198588692E+02 -0.20047883166E+02  0.25652919075E+02  0.36820936021E+02  0.00000000000E+00 0. -1.
         11    1    4    4    0    0 -0.47542475898E+01  0.96507640117E+00  0.99077452956E+01  0.11031666225E+02  0.51100000000E-03 0. -1.
        -11    1    4    4    0    0 -0.74126299199E+01  0.66343117448E+01 -0.22513746993E+02  0.24613613684E+02  0.51100000000E-03 0.  1.
         12    1    4    4    0    0 -0.50317111820E+01  0.12448495020E+02 -0.13046917377E+02  0.18721784069E+02  0.00000000000E+00 0. -1.
</event>
<event>
 8    1  0.1269154E-006  0.9118800E+02  0.7816164E-02  0.1184000E+00
        -11   -1    0    0    0    0  0.00000000000E+00  0.00000000000E+00  0.45593999997E+02  0.45594000000E+02  0.51100000000E-03 0.  1.
         11   -1    0    0    0    0 -0.00000000000E+00 -0.00000000000E+00 -0.45593999997E+02  0.45594000000E+02  0.51100000000E-03 0. -1.
         23    2    1    2    0    0  0.00000000000E+00  0.88817841970E-15  0.00000000000E+00  0.91188000000E+02  0.91188000000E+02 0.  0.
    9900012    2    3    3    0    0  0.33527213015E+02  0.86776717324E+00 -0.15197134021E+02  0.54367083189E+02  0.39999997745E+02 0.  0.
        -12    1    3    3    0    0 -0.33527213015E+02 -0.86776717324E+00  0.15197134021E+02  0.36820916811E+02  0.00000000000E+00 0.  1.
         11    1    4    4    0    0  0.17676451669E+02 -0.13720237920E+02 -0.15474408944E+02  0.27205867099E+02  0.51100000000E-03 0. -1.
        -11    1    4    4    0    0 -0.20504323666E+01  0.69852119852E+01  0.22320888724E+01  0.76144389396E+01  0.51100000000E-03 0.  1.
        -12    1    4    4    0    0  0.17901193712E+02  0.76027931082E+01 -0.19548139493E+01  0.19546777149E+02  0.00000000000E+00 0.  1.
</event>
<event>
 8    1  0.1269154E-006  0.9118800E+02  0.7816164E-02  0.1184000E+00
        -11   -1    0    0    0    0  0.00000000000E+00  0.00000000000E+00  0.45593999997E+02  0.45594000000E+02  0.51100000000E-03 0.  1.
         11   -1    0    0    0    0 -0.00000000000E+00 -0.00000000000E+00 -0.45593999997E+02  0.45594000000E+02  0.51100000000E-03 0. -1.
         23    2    1    2    0    0  0.00000000000E+00 -0.44408920985E-15  0.00000000000E+00  0.91188000000E+02  0.91188000000E+02 0.  0.
    9900012    2    3    3    0    0  0.35074957923E+02 -0.25018188412E+01  0.10920848452E+02  0.54367126821E+02  0.40000097213E+02 0.  0.
         12    1    3    3    0    0 -0.35074957923E+02  0.25018188412E+01 -0.10920848452E+02  0.36820873179E+02  0.00000000000E+00 0. -1.
         11    1    4    4    0    0  0.27649754217E+02 -0.43535632684E+01 -0.45316161347E+01  0.28354857899E+02  0.51100000000E-03 0. -1.
        -11    1    4    4    0    0 -0.33896354103E+01  0.58037884706E+01 -0.25480317087E-01  0.67211783442E+01  0.51100000000E-03 0.  1.
        -12    1    4    4    0    0  0.10814839115E+02 -0.39520440434E+01  0.15477944904E+02  0.19291090577E+02  0.00000000000E+00 0.  1.
</event>
<event>
 8    1  0.1269154E-006  0.9118800E+02  0.7816164E-02  0.1184000E+00
        -11   -1    0    0    0    0  0.00000000000E+00  0.00000000000E+00  0.45593999997E+02  0.45594000000E+02  0.51100000000E-03 0.  1.
         11   -1    0    0    0    0 -0.00000000000E+00 -0.00000000000E+00 -0.45593999997E+02  0.45594000000E+02  0.51100000000E-03 0. -1.
         23    2    1    2    0    0  0.00000000000E+00  0.00000000000E+00  0.00000000000E+00  0.91188000000E+02  0.91188000000E+02 0.  0.
    9900012    2    3    3    0    0 -0.22593130691E+02  0.57766867276E+01 -0.28494899642E+02  0.54367096025E+02  0.40000027008E+02 0.  0.
        -12    1    3    3    0    0  0.22593130691E+02 -0.57766867276E+01  0.28494899642E+02  0.36820903975E+02  0.00000000000E+00 0.  1.
         11    1    4    4    0    0  0.56207102001E+01 -0.28846025983E+01  0.37113468919E+01  0.73271693933E+01  0.51100000000E-03 0.  1.
        -11    1    4    4    0    0 -0.17200658433E+02  0.68344883236E+01 -0.30598778639E+02  0.35761126040E+02  0.51100000000E-03 0. -1.
        -12    1    4    4    0    0 -0.11013182458E+02  0.18268010023E+01 -0.16074678942E+01  0.11278800591E+02  0.00000000000E+00 0.  1.
</event>
<event>
 8    1  0.1269154E-006  0.9118800E+02  0.7816164E-02  0.1184000E+00
        -11   -1    0    0    0    0  0.00000000000E+00  0.00000000000E+00  0.45593999997E+02  0.45594000000E+02  0.51100000000E-03 0.  1.
         11   -1    0    0    0    0 -0.00000000000E+00 -0.00000000000E+00 -0.45593999997E+02  0.45594000000E+02  0.51100000000E-03 0. -1.
         23    2    1    2    0    0  0.00000000000E+00  0.71054273576E-14  0.17763568394E-14  0.91188000000E+02  0.91188000000E+02 0.  0.
    9900012    2    3    3    0    0 -0.11710729603E+02 -0.32907658199E+02 -0.11650059923E+02  0.54367094903E+02  0.40000024450E+02 0.  0.
         12    1    3    3    0    0  0.11710729603E+02  0.32907658199E+02  0.11650059923E+02  0.36820905097E+02  0.00000000000E+00 0. -1.
         11    1    4    4    0    0 -0.16485704722E+00  0.19538844016E+01  0.15509736905E+01  0.25000723490E+01  0.51100000000E-03 0. -1.
        -11    1    4    4    0    0 -0.87923536503E+01 -0.32627232555E+01  0.91202242918E+01  0.13081641225E+02  0.51100000000E-03 0.  1.
        -12    1    4    4    0    0 -0.27535189053E+01 -0.31598819345E+02 -0.22321257905E+02  0.38785381329E+02  0.00000000000E+00 0.  1.
</event>
<event>
 8    1  0.1269154E-006  0.9118800E+02  0.7816164E-02  0.1184000E+00
        -11   -1    0    0    0    0  0.00000000000E+00  0.00000000000E+00  0.45593999997E+02  0.45594000000E+02  0.51100000000E-03 0.  1.
         11   -1    0    0    0    0 -0.00000000000E+00 -0.00000000000E+00 -0.45593999997E+02  0.45594000000E+02  0.51100000000E-03 0. -1.
         23    2    1    2    0    0  0.34694469520E-15  0.00000000000E+00 -0.17763568394E-14  0.91188000000E+02  0.91188000000E+02 0.  0.
    9900012    2    3    3    0    0 -0.94759272993E-01  0.34579834819E+02 -0.12649354854E+02  0.54367080218E+02  0.39999990972E+02 0.  0.
        -12    1    3    3    0    0  0.94759272993E-01 -0.34579834819E+02  0.12649354854E+02  0.36820919782E+02  0.00000000000E+00 0.  1.
         11    1    4    4    0    0 -0.10785435430E+02  0.27680270193E+02 -0.15242181673E+01  0.29746364763E+02  0.51100000000E-03 0. -1.
        -11    1    4    4    0    0 -0.26700474755E+01  0.77477378187E+01 -0.20510991404E+01  0.84476980754E+01  0.51100000000E-03 0.  1.
        -12    1    4    4    0    0  0.13360723633E+02 -0.84817319277E+00 -0.90740375462E+01  0.16173017379E+02  0.00000000000E+00 0.  1.
</event>
<event>
 8    1  0.1269154E-006  0.9118800E+02  0.7816164E-02  0.1184000E+00
        -11   -1    0    0    0    0  0.00000000000E+00  0.00000000000E+00  0.45593999997E+02  0.45594000000E+02  0.51100000000E-03 0.  1.
         11   -1    0    0    0    0 -0.00000000000E+00 -0.00000000000E+00 -0.45593999997E+02  0.45594000000E+02  0.51100000000E-03 0. -1.
         23    2    1    2    0    0 -0.88817841970E-15  0.00000000000E+00  0.00000000000E+00  0.91188000000E+02  0.91188000000E+02 0.  0.
    9900012    2    3    3    0    0  0.26961232074E+01  0.35508210665E+02  0.93636584836E+01  0.54367079246E+02  0.39999988757E+02 0.  0.
         12    1    3    3    0    0 -0.26961232074E+01 -0.35508210665E+02 -0.93636584836E+01  0.36820920754E+02  0.00000000000E+00 0. -1.
         11    1    4    4    0    0  0.30096312934E+01 -0.77776456388E-01 -0.91654327228E+01  0.96472320878E+01  0.51100000000E-03 0. -1.
        -11    1    4    4    0    0  0.82967244491E+01  0.25071969132E+02  0.82083517159E+01  0.27655312525E+02  0.51100000000E-03 0.  1.
         12    1    4    4    0    0 -0.86102325350E+01  0.10514017990E+02  0.10320739490E+02  0.17064534633E+02  0.00000000000E+00 0. -1.
</event>
<event>
 8    1  0.1269154E-006  0.9118800E+02  0.7816164E-02  0.1184000E+00
        -11   -1    0    0    0    0  0.00000000000E+00  0.00000000000E+00  0.45593999997E+02  0.45594000000E+02  0.51100000000E-03 0.  1.
         11   -1    0    0    0    0 -0.00000000000E+00 -0.00000000000E+00 -0.45593999997E+02  0.45594000000E+02  0.51100000000E-03 0. -1.
         23    2    1    2    0    0 -0.66613381478E-15  0.17763568394E-14  0.71054273576E-14  0.91188000000E+02  0.91188000000E+02 0.  0.
    9900012    2    3    3    0    0 -0.55450846697E+00  0.10066825264E+02 -0.35413721246E+02  0.54367080633E+02  0.39999991920E+02 0.  0.
        -12    1    3    3    0    0  0.55450846697E+00 -0.10066825264E+02  0.35413721246E+02  0.36820919367E+02  0.00000000000E+00 0.  1.
         11    1    4    4    0    0 -0.50972868696E+01 -0.88290068923E+01 -0.57528018526E+01  0.11705914127E+02  0.51100000000E-03 0. -1.
        -11    1    4    4    0    0  0.61616996544E+01 -0.12339445722E+01  0.56524971142E+00  0.63094111719E+01  0.51100000000E-03 0.  1.
         12    1    4    4    0    0 -0.16189212519E+01  0.20129776728E+02 -0.30226169105E+02  0.36351755334E+02  0.00000000000E+00 0. -1.
</event>
<event>
 8    1  0.1269154E-006  0.9118800E+02  0.7816164E-02  0.1184000E+00
        -11   -1    0    0    0    0  0.00000000000E+00  0.00000000000E+00  0.45593999997E+02  0.45594000000E+02  0.51100000000E-03 0.  1.
         11   -1    0    0    0    0 -0.00000000000E+00 -0.00000000000E+00 -0.45593999997E+02  0.45594000000E+02  0.51100000000E-03 0. -1.
         23    2    1    2    0    0  0.26645352591E-14 -0.88817841970E-15  0.00000000000E+00  0.91188000000E+02  0.91188000000E+02 0.  0.
    9900012    2    3    3    0    0  0.61783167430E+01 -0.41169432489E+01 -0.36064649031E+02  0.54367085709E+02  0.40000003490E+02 0.  0.
        -12    1    3    3    0    0 -0.61783167430E+01  0.41169432489E+01  0.36064649031E+02  0.36820914291E+02  0.00000000000E+00 0.  1.
         11    1    4    4    0    0 -0.31008453622E+01 -0.52362943280E+01 -0.29088890166E+02  0.29718639801E+02  0.51100000000E-03 0. -1.
        -11    1    4    4    0    0 -0.27369435580E+01 -0.75847196939E+01  0.41123946495E+00  0.80739055626E+01  0.51100000000E-03 0.  1.
        -12    1    4    4    0    0  0.12016105663E+02  0.87040707730E+01 -0.73869983303E+01  0.16574540346E+02  0.00000000000E+00 0.  1.
</event>
<event>
 8    1  0.1269154E-006  0.9118800E+02  0.7816164E-02  0.1184000E+00
        -11   -1    0    0    0    0  0.00000000000E+00  0.00000000000E+00  0.45593999997E+02  0.45594000000E+02  0.51100000000E-03 0.  1.
         11   -1    0    0    0    0 -0.00000000000E+00 -0.00000000000E+00 -0.45593999997E+02  0.45594000000E+02  0.51100000000E-03 0. -1.
         23    2    1    2    0    0  0.35527136788E-14  0.35527136788E-14  0.00000000000E+00  0.91188000000E+02  0.91188000000E+02 0.  0.
    9900012    2    3    3    0    0 -0.17065029386E+02 -0.30936865130E+02 -0.10367021603E+02  0.54367082183E+02  0.39999995452E+02 0.  0.
        -12    1    3    3    0    0  0.17065029386E+02  0.30936865130E+02  0.10367021603E+02  0.36820917817E+02  0.00000000000E+00 0.  1.
         11    1    4    4    0    0  0.68632833885E+01 -0.34071177651E+01 -0.26931151655E+01  0.81219443418E+01  0.51100000000E-03 0. -1.
        -11    1    4    4    0    0 -0.11523938047E+02  0.30110913914E+01 -0.57476908595E+01  0.13225118901E+02  0.51100000000E-03 0.  1.
         12    1    4    4    0    0 -0.12404374727E+02 -0.30540838756E+02 -0.19262155783E+01  0.33020018939E+02  0.00000000000E+00 0. -1.
</event>
<event>
 8    1  0.1269154E-006  0.9118800E+02  0.7816164E-02  0.1184000E+00
        -11   -1    0    0    0    0  0.00000000000E+00  0.00000000000E+00  0.45593999997E+02  0.45594000000E+02  0.51100000000E-03 0. -1.
         11   -1    0    0    0    0 -0.00000000000E+00 -0.00000000000E+00 -0.45593999997E+02  0.45594000000E+02  0.51100000000E-03 0.  1.
         23    2    1    2    0    0  0.00000000000E+00  0.00000000000E+00  0.00000000000E+00  0.91188000000E+02  0.91188000000E+02 0.  0.
    9900012    2    3    3    0    0 -0.27387598344E+01  0.32515534675E+02 -0.17059087831E+02  0.54367173308E+02  0.40000203191E+02 0.  0.
        -12    1    3    3    0    0  0.27387598344E+01 -0.32515534675E+02  0.17059087831E+02  0.36820826692E+02  0.00000000000E+00 0.  1.
         11    1    4    4    0    0  0.32993003612E+01  0.32202605572E+01  0.18082887283E+01  0.49523094931E+01  0.51100000000E-03 0. -1.
        -11    1    4    4    0    0 -0.19737579838E+01  0.42186428623E+01 -0.23183708843E+02  0.23646924201E+02  0.51100000000E-03 0.  1.
        -12    1    4    4    0    0 -0.40643022119E+01  0.25076631255E+02  0.43163322838E+01  0.25767939614E+02  0.00000000000E+00 0.  1.
</event>
<event>
 8    1  0.1269154E-006  0.9118800E+02  0.7816164E-02  0.1184000E+00
        -11   -1    0    0    0    0  0.00000000000E+00  0.00000000000E+00  0.45593999997E+02  0.45594000000E+02  0.51100000000E-03 0. -1.
         11   -1    0    0    0    0 -0.00000000000E+00 -0.00000000000E+00 -0.45593999997E+02  0.45594000000E+02  0.51100000000E-03 0.  1.
         23    2    1    2    0    0  0.35527136788E-14 -0.17763568394E-14  0.35527136788E-14  0.91188000000E+02  0.91188000000E+02 0.  0.
    9900012    2    3    3    0    0  0.19942879822E+02  0.61089787197E+01  0.30343700317E+02  0.54367106128E+02  0.40000050039E+02 0.  0.
        -12    1    3    3    0    0 -0.19942879822E+02 -0.61089787197E+01 -0.30343700317E+02  0.36820893872E+02  0.00000000000E+00 0.  1.
         11    1    4    4    0    0  0.10762189748E+02 -0.17350483932E+01  0.11191428352E+02  0.15623161969E+02  0.51100000000E-03 0. -1.
        -11    1    4    4    0    0  0.53459318662E+01  0.18696047707E+02  0.19067494473E+02  0.27233995908E+02  0.51100000000E-03 0.  1.
        -12    1    4    4    0    0  0.38347582080E+01 -0.10852020594E+02  0.84777492217E-01  0.11509948250E+02  0.00000000000E+00 0.  1.
</event>
<event>
 8    1  0.1269154E-006  0.9118800E+02  0.7816164E-02  0.1184000E+00
        -11   -1    0    0    0    0  0.00000000000E+00  0.00000000000E+00  0.45593999997E+02  0.45594000000E+02  0.51100000000E-03 0.  1.
         11   -1    0    0    0    0 -0.00000000000E+00 -0.00000000000E+00 -0.45593999997E+02  0.45594000000E+02  0.51100000000E-03 0. -1.
         23    2    1    2    0    0 -0.35527136788E-14  0.00000000000E+00 -0.35527136788E-14  0.91188000000E+02  0.91188000000E+02 0.  0.
    9900012    2    3    3    0    0 -0.26526815058E+02 -0.15302003423E+02  0.20443996611E+02  0.54367078999E+02  0.39999988195E+02 0.  0.
         12    1    3    3    0    0  0.26526815058E+02  0.15302003423E+02 -0.20443996611E+02  0.36820921001E+02  0.00000000000E+00 0. -1.
         11    1    4    4    0    0 -0.24790933350E+01  0.40377720333E+01 -0.93430721698E+01  0.10475805677E+02  0.51100000000E-03 0. -1.
        -11    1    4    4    0    0 -0.22002474971E+01 -0.65236258196E+01  0.57070143515E+01  0.89425273805E+01  0.51100000000E-03 0.  1.
         12    1    4    4    0    0 -0.21847474226E+02 -0.12816149637E+02  0.24080054430E+02  0.34948745942E+02  0.00000000000E+00 0. -1.
</event>
<event>
 8    1  0.1269154E-006  0.9118800E+02  0.7816164E-02  0.1184000E+00
        -11   -1    0    0    0    0  0.00000000000E+00  0.00000000000E+00  0.45593999997E+02  0.45594000000E+02  0.51100000000E-03 0. -1.
         11   -1    0    0    0    0 -0.00000000000E+00 -0.00000000000E+00 -0.45593999997E+02  0.45594000000E+02  0.51100000000E-03 0.  1.
         23    2    1    2    0    0  0.00000000000E+00  0.00000000000E+00 -0.35527136788E-14  0.91188000000E+02  0.91188000000E+02 0.  0.
    9900012    2    3    3    0    0 -0.24710732357E+02 -0.17829958568E+02  0.20669922811E+02  0.54367171313E+02  0.40000198642E+02 0.  0.
        -12    1    3    3    0    0  0.24710732357E+02  0.17829958568E+02 -0.20669922811E+02  0.36820828687E+02  0.00000000000E+00 0.  1.
         11    1    4    4    0    0 -0.14120050741E+02 -0.25583304778E+02  0.17612540661E+02  0.34118659192E+02  0.51100000000E-03 0.  1.
        -11    1    4    4    0    0 -0.13040830281E+02  0.49209293822E+01  0.62987322890E+01  0.15295516635E+02  0.51100000000E-03 0. -1.
        -12    1    4    4    0    0  0.24501486644E+01  0.28324168279E+01 -0.32413501389E+01  0.49529954864E+01  0.00000000000E+00 0.  1.
</event>
<event>
 8    1  0.1269154E-006  0.9118800E+02  0.7816164E-02  0.1184000E+00
        -11   -1    0    0    0    0  0.00000000000E+00  0.00000000000E+00  0.45593999997E+02  0.45594000000E+02  0.51100000000E-03 0. -1.
         11   -1    0    0    0    0 -0.00000000000E+00 -0.00000000000E+00 -0.45593999997E+02  0.45594000000E+02  0.51100000000E-03 0.  1.
         23    2    1    2    0    0  0.35527136788E-14  0.00000000000E+00  0.44408920985E-15  0.91188000000E+02  0.91188000000E+02 0.  0.
    9900012    2    3    3    0    0  0.21057680989E+02 -0.30163342216E+02  0.15888511324E+01  0.54367114755E+02  0.40000069707E+02 0.  0.
        -12    1    3    3    0    0 -0.21057680989E+02  0.30163342216E+02 -0.15888511324E+01  0.36820885245E+02  0.00000000000E+00 0.  1.
         11    1    4    4    0    0  0.17663333729E+02 -0.39741753954E+01 -0.10624318296E+01  0.18136046706E+02  0.51100000000E-03 0. -1.
        -11    1    4    4    0    0  0.12169212620E+02 -0.21062536726E+02 -0.31511514248E+01  0.24528553660E+02  0.51100000000E-03 0.  1.
        -12    1    4    4    0    0 -0.87748653588E+01 -0.51266300953E+01  0.58024343867E+01  0.11702514388E+02  0.00000000000E+00 0.  1.
</event>
<event>
 8    1  0.1269154E-006  0.9118800E+02  0.7816164E-02  0.1184000E+00
        -11   -1    0    0    0    0  0.00000000000E+00  0.00000000000E+00  0.45593999997E+02  0.45594000000E+02  0.51100000000E-03 0. -1.
         11   -1    0    0    0    0 -0.00000000000E+00 -0.00000000000E+00 -0.45593999997E+02  0.45594000000E+02  0.51100000000E-03 0.  1.
         23    2    1    2    0    0 -0.35527136788E-14  0.00000000000E+00  0.00000000000E+00  0.91188000000E+02  0.91188000000E+02 0.  0.
    9900012    2    3    3    0    0  0.20499880305E+02 -0.22960840163E+02  0.20207315083E+02  0.54367070403E+02  0.39999968597E+02 0.  0.
        -12    1    3    3    0    0 -0.20499880305E+02  0.22960840163E+02 -0.20207315083E+02  0.36820929597E+02  0.00000000000E+00 0.  1.
         11    1    4    4    0    0  0.21665554084E+02  0.74843224857E+00  0.51190320678E+01  0.22274668890E+02  0.51100000000E-03 0. -1.
        -11    1    4    4    0    0  0.32266397202E+01 -0.55231378404E+01  0.11328005010E+02  0.13009225698E+02  0.51100000000E-03 0.  1.
         12    1    4    4    0    0 -0.43923134987E+01 -0.18186134571E+02  0.37602780054E+01  0.19083175815E+02  0.00000000000E+00 0. -1.
</event>
<event>
 8    1  0.1269154E-006  0.9118800E+02  0.7816164E-02  0.1184000E+00
        -11   -1    0    0    0    0  0.00000000000E+00  0.00000000000E+00  0.45593999997E+02  0.45594000000E+02  0.51100000000E-03 0. -1.
         11   -1    0    0    0    0 -0.00000000000E+00 -0.00000000000E+00 -0.45593999997E+02  0.45594000000E+02  0.51100000000E-03 0.  1.
         23    2    1    2    0    0  0.00000000000E+00  0.00000000000E+00  0.17763568394E-14  0.91188000000E+02  0.91188000000E+02 0.  0.
    9900012    2    3    3    0    0 -0.34579604112E+02  0.81079906738E+01  0.97103408295E+01  0.54367092185E+02  0.40000018253E+02 0.  0.
        -12    1    3    3    0    0  0.34579604112E+02 -0.81079906738E+01 -0.97103408295E+01  0.36820907815E+02  0.00000000000E+00 0.  1.
         11    1    4    4    0    0 -0.16816605464E+01 -0.32931201239E+00  0.88115108887E+01  0.89765891628E+01  0.51100000000E-03 0. -1.
        -11    1    4    4    0    0 -0.26196743891E+02 -0.79639520706E+01  0.30198562078E+01  0.27546568840E+02  0.51100000000E-03 0.  1.
         12    1    4    4    0    0 -0.67011996750E+01  0.16401254757E+02 -0.21210262669E+01  0.17843934182E+02  0.00000000000E+00 0. -1.
</event>
<event>
 8    1  0.1269154E-006  0.9118800E+02  0.7816164E-02  0.1184000E+00
        -11   -1    0    0    0    0  0.00000000000E+00  0.00000000000E+00  0.45593999997E+02  0.45594000000E+02  0.51100000000E-03 0. -1.
         11   -1    0    0    0    0 -0.00000000000E+00 -0.00000000000E+00 -0.45593999997E+02  0.45594000000E+02  0.51100000000E-03 0.  1.
         23    2    1    2    0    0  0.00000000000E+00 -0.17763568394E-14  0.71054273576E-14  0.91188000000E+02  0.91188000000E+02 0.  0.
    9900012    2    3    3    0    0 -0.12534684916E+01 -0.10553606166E+02  0.35253816202E+02  0.54367063793E+02  0.39999953528E+02 0.  0.
        -12    1    3    3    0    0  0.12534684916E+01  0.10553606166E+02 -0.35253816202E+02  0.36820936207E+02  0.00000000000E+00 0.  1.
         11    1    4    4    0    0 -0.73800052667E+01  0.43969690689E+00  0.25897406889E+01  0.78335539957E+01  0.51100000000E-03 0. -1.
        -11    1    4    4    0    0 -0.87133940601E+01 -0.77592672348E-01 -0.35720882843E+00  0.87210581398E+01  0.51100000000E-03 0.  1.
         12    1    4    4    0    0  0.14839930835E+02 -0.10915710401E+02  0.33021284342E+02  0.37812451657E+02  0.00000000000E+00 0. -1.
</event>
<event>
 8    1  0.1269154E-006  0.9118800E+02  0.7816164E-02  0.1184000E+00
        -11   -1    0    0    0    0  0.00000000000E+00  0.00000000000E+00  0.45593999997E+02  0.45594000000E+02  0.51100000000E-03 0.  1.
         11   -1    0    0    0    0 -0.00000000000E+00 -0.00000000000E+00 -0.45593999997E+02  0.45594000000E+02  0.51100000000E-03 0. -1.
         23    2    1    2    0    0  0.22204460493E-15  0.00000000000E+00  0.00000000000E+00  0.91188000000E+02  0.91188000000E+02 0.  0.
    9900012    2    3    3    0    0 -0.72360459626E+00 -0.35296424322E+02 -0.10460378933E+02  0.54367072514E+02  0.39999973409E+02 0.  0.
        -12    1    3    3    0    0  0.72360459626E+00  0.35296424322E+02  0.10460378933E+02  0.36820927486E+02  0.00000000000E+00 0.  1.
         11    1    4    4    0    0 -0.11156093700E+02 -0.86993205863E+01  0.25992656908E+00  0.14149352190E+02  0.51100000000E-03 0. -1.
        -11    1    4    4    0    0 -0.36437328633E+00 -0.75342051929E+00 -0.12144378378E+02  0.12173181048E+02  0.51100000000E-03 0.  1.
        -12    1    4    4    0    0  0.10796862390E+02 -0.25843683216E+02  0.14240728756E+01  0.28044539276E+02  0.00000000000E+00 0.  1.
</event>
<event>
 8    1  0.1269154E-006  0.9118800E+02  0.7816164E-02  0.1184000E+00
        -11   -1    0    0    0    0  0.00000000000E+00  0.00000000000E+00  0.45593999997E+02  0.45594000000E+02  0.51100000000E-03 0. -1.
         11   -1    0    0    0    0 -0.00000000000E+00 -0.00000000000E+00 -0.45593999997E+02  0.45594000000E+02  0.51100000000E-03 0.  1.
         23    2    1    2    0    0 -0.11102230246E-14  0.17763568394E-14  0.00000000000E+00  0.91188000000E+02  0.91188000000E+02 0.  0.
    9900012    2    3    3    0    0  0.15663089707E+01 -0.15157235592E+02 -0.33519906590E+02  0.54367092184E+02  0.40000018251E+02 0.  0.
         12    1    3    3    0    0 -0.15663089707E+01  0.15157235592E+02  0.33519906590E+02  0.36820907816E+02  0.00000000000E+00 0. -1.
         11    1    4    4    0    0 -0.51550234328E+01  0.74032853979E+01 -0.77054216046E+01  0.11864081239E+02  0.51100000000E-03 0. -1.
        -11    1    4    4    0    0 -0.82273932493E+01 -0.11494696719E+02 -0.60873350837E+01  0.15390701772E+02  0.51100000000E-03 0.  1.
        -12    1    4    4    0    0  0.14948725653E+02 -0.11065824271E+02 -0.19727149902E+02  0.27112309173E+02  0.00000000000E+00 0.  1.
</event>
<event>
 8    1  0.1269154E-006  0.9118800E+02  0.7816164E-02  0.1184000E+00
        -11   -1    0    0    0    0  0.00000000000E+00  0.00000000000E+00  0.45593999997E+02  0.45594000000E+02  0.51100000000E-03 0.  1.
         11   -1    0    0    0    0 -0.00000000000E+00 -0.00000000000E+00 -0.45593999997E+02  0.45594000000E+02  0.51100000000E-03 0. -1.
         23    2    1    2    0    0  0.00000000000E+00  0.00000000000E+00  0.35527136788E-14  0.91188000000E+02  0.91188000000E+02 0.  0.
    9900012    2    3    3    0    0  0.14102031578E+02  0.21427255259E+02 -0.26415617655E+02  0.54367089926E+02  0.40000013103E+02 0.  0.
        -12    1    3    3    0    0 -0.14102031578E+02 -0.21427255259E+02  0.26415617655E+02  0.36820910074E+02  0.00000000000E+00 0.  1.
         11    1    4    4    0    0  0.79146035349E+01  0.24905183960E+02 -0.12876459893E+02  0.29132668207E+02  0.51100000000E-03 0. -1.
        -11    1    4    4    0    0 -0.50277935186E+01 -0.52525380445E+01 -0.11636488495E+02  0.13721360295E+02  0.51100000000E-03 0.  1.
         12    1    4    4    0    0  0.11215221562E+02  0.17746093435E+01 -0.19026692667E+01  0.11513061424E+02  0.00000000000E+00 0. -1.
</event>
<event>
 8    1  0.1269154E-006  0.9118800E+02  0.7816164E-02  0.1184000E+00
        -11   -1    0    0    0    0  0.00000000000E+00  0.00000000000E+00  0.45593999997E+02  0.45594000000E+02  0.51100000000E-03 0. -1.
         11   -1    0    0    0    0 -0.00000000000E+00 -0.00000000000E+00 -0.45593999997E+02  0.45594000000E+02  0.51100000000E-03 0.  1.
         23    2    1    2    0    0  0.00000000000E+00 -0.11102230246E-14  0.17763568394E-14  0.91188000000E+02  0.91188000000E+02 0.  0.
    9900012    2    3    3    0    0  0.33153313884E+02  0.14758008350E+01 -0.15951918760E+02  0.54367028778E+02  0.39999873706E+02 0.  0.
         12    1    3    3    0    0 -0.33153313884E+02 -0.14758008350E+01  0.15951918760E+02  0.36820971222E+02  0.00000000000E+00 0. -1.
         11    1    4    4    0    0  0.23451604421E+02  0.69790583504E+01 -0.63924430952E+01  0.25289292880E+02  0.51100000000E-03 0. -1.
        -11    1    4    4    0    0  0.16736646389E+02 -0.74282676713E+01 -0.17538300278E+01  0.18394847457E+02  0.51100000000E-03 0.  1.
         12    1    4    4    0    0 -0.70349369259E+01  0.19250101559E+01 -0.78056456367E+01  0.10682888442E+02  0.00000000000E+00 0. -1.
</event>
<event>
 8    1  0.1269154E-006  0.9118800E+02  0.7816164E-02  0.1184000E+00
        -11   -1    0    0    0    0  0.00000000000E+00  0.00000000000E+00  0.45593999997E+02  0.45594000000E+02  0.51100000000E-03 0.  1.
         11   -1    0    0    0    0 -0.00000000000E+00 -0.00000000000E+00 -0.45593999997E+02  0.45594000000E+02  0.51100000000E-03 0. -1.
         23    2    1    2    0    0  0.17763568394E-14  0.00000000000E+00  0.00000000000E+00  0.91188000000E+02  0.91188000000E+02 0.  0.
    9900012    2    3    3    0    0  0.79495691690E+01  0.31075780571E+02 -0.18079827293E+02  0.54367082806E+02  0.39999996872E+02 0.  0.
        -12    1    3    3    0    0 -0.79495691690E+01 -0.31075780571E+02  0.18079827293E+02  0.36820917194E+02  0.00000000000E+00 0.  1.
         11    1    4    4    0    0  0.50881651311E+01  0.24868204253E+02 -0.16360770477E+02  0.30199202275E+02  0.51100000000E-03 0. -1.
        -11    1    4    4    0    0 -0.98847061734E+01  0.34369044318E+01 -0.34287469194E+01  0.11012539848E+02  0.51100000000E-03 0.  1.
         12    1    4    4    0    0  0.12746110211E+02  0.27706718863E+01  0.17096901038E+01  0.13155340682E+02  0.00000000000E+00 0. -1.
</event>
<event>
 8    1  0.1269154E-006  0.9118800E+02  0.7816164E-02  0.1184000E+00
        -11   -1    0    0    0    0  0.00000000000E+00  0.00000000000E+00  0.45593999997E+02  0.45594000000E+02  0.51100000000E-03 0.  1.
         11   -1    0    0    0    0 -0.00000000000E+00 -0.00000000000E+00 -0.45593999997E+02  0.45594000000E+02  0.51100000000E-03 0. -1.
         23    2    1    2    0    0  0.00000000000E+00  0.00000000000E+00  0.00000000000E+00  0.91188000000E+02  0.91188000000E+02 0.  0.
    9900012    2    3    3    0    0 -0.86318902762E+01  0.15953301594E+02  0.32043210638E+02  0.54367018081E+02  0.39999849319E+02 0.  0.
         12    1    3    3    0    0  0.86318902762E+01 -0.15953301594E+02 -0.32043210638E+02  0.36820981919E+02  0.00000000000E+00 0. -1.
         11    1    4    4    0    0 -0.57581463503E+01 -0.12127039000E+00  0.13432206996E+02  0.14614894490E+02  0.51100000000E-03 0. -1.
        -11    1    4    4    0    0 -0.55972461329E+00  0.15585587413E+02  0.26920994155E+02  0.31112115859E+02  0.51100000000E-03 0.  1.
         12    1    4    4    0    0 -0.23140193126E+01  0.48898457107E+00 -0.83099905133E+01  0.86400077327E+01  0.00000000000E+00 0. -1.
</event>
<event>
 8    1  0.1269154E-006  0.9118800E+02  0.7816164E-02  0.1184000E+00
        -11   -1    0    0    0    0  0.00000000000E+00  0.00000000000E+00  0.45593999997E+02  0.45594000000E+02  0.51100000000E-03 0.  1.
         11   -1    0    0    0    0 -0.00000000000E+00 -0.00000000000E+00 -0.45593999997E+02  0.45594000000E+02  0.51100000000E-03 0. -1.
         23    2    1    2    0    0  0.00000000000E+00  0.00000000000E+00 -0.35527136788E-14  0.91188000000E+02  0.91188000000E+02 0.  0.
    9900012    2    3    3    0    0 -0.17238783623E+02 -0.24128641466E+02  0.21826884349E+02  0.54367083659E+02  0.39999998818E+02 0.  0.
        -12    1    3    3    0    0  0.17238783623E+02  0.24128641466E+02 -0.21826884349E+02  0.36820916341E+02  0.00000000000E+00 0.  1.
         11    1    4    4    0    0 -0.38621141189E+01 -0.73487752648E+01  0.46606556142E+01  0.95206162813E+01  0.51100000000E-03 0. -1.
        -11    1    4    4    0    0 -0.11128545690E+02 -0.18015526506E+01 -0.91255967685E+01  0.14504021435E+02  0.51100000000E-03 0.  1.
        -12    1    4    4    0    0 -0.22481238136E+01 -0.14978313550E+02  0.26291825504E+02  0.30342445943E+02  0.00000000000E+00 0.  1.
</event>
<event>
 8    1  0.1269154E-006  0.9118800E+02  0.7816164E-02  0.1184000E+00
        -11   -1    0    0    0    0  0.00000000000E+00  0.00000000000E+00  0.45593999997E+02  0.45594000000E+02  0.51100000000E-03 0. -1.
         11   -1    0    0    0    0 -0.00000000000E+00 -0.00000000000E+00 -0.45593999997E+02  0.45594000000E+02  0.51100000000E-03 0.  1.
         23    2    1    2    0    0 -0.17763568394E-14  0.35527136788E-14 -0.35527136788E-14  0.91188000000E+02  0.91188000000E+02 0.  0.
    9900012    2    3    3    0    0 -0.11984209789E+02  0.14015168810E+02 -0.31870423399E+02  0.54367216078E+02  0.40000300691E+02 0.  0.
         12    1    3    3    0    0  0.11984209789E+02 -0.14015168810E+02  0.31870423399E+02  0.36820783922E+02  0.00000000000E+00 0. -1.
         11    1    4    4    0    0 -0.69293605820E+01  0.16894759188E+02 -0.83207960776E+01  0.20067002111E+02  0.51100000000E-03 0. -1.
        -11    1    4    4    0    0  0.11970224001E+01 -0.13164695111E+00  0.48982570061E+01  0.50441169202E+01  0.51100000000E-03 0.  1.
        -12    1    4    4    0    0 -0.62518716067E+01 -0.27479434271E+01 -0.28447884328E+02  0.29256097046E+02  0.00000000000E+00 0.  1.
</event>
<event>
 8    1  0.1269154E-006  0.9118800E+02  0.7816164E-02  0.1184000E+00
        -11   -1    0    0    0    0  0.00000000000E+00  0.00000000000E+00  0.45593999997E+02  0.45594000000E+02  0.51100000000E-03 0.  1.
         11   -1    0    0    0    0 -0.00000000000E+00 -0.00000000000E+00 -0.45593999997E+02  0.45594000000E+02  0.51100000000E-03 0. -1.
         23    2    1    2    0    0  0.00000000000E+00 -0.35527136788E-14  0.00000000000E+00  0.91188000000E+02  0.91188000000E+02 0.  0.
    9900012    2    3    3    0    0 -0.30022278478E+02  0.16616042716E+02 -0.13354766374E+02  0.54367083859E+02  0.39999999274E+02 0.  0.
        -12    1    3    3    0    0  0.30022278478E+02 -0.16616042716E+02  0.13354766374E+02  0.36820916141E+02  0.00000000000E+00 0.  1.
         11    1    4    4    0    0 -0.63580669586E+01  0.15350112683E+02 -0.41129631516E+01  0.17116291683E+02  0.51100000000E-03 0. -1.
        -11    1    4    4    0    0  0.54946685633E+01 -0.33169310584E+01 -0.29837017746E+01  0.70778450680E+01  0.51100000000E-03 0.  1.
        -12    1    4    4    0    0 -0.29158880083E+02  0.45828610917E+01 -0.62581014477E+01  0.30172947108E+02  0.00000000000E+00 0.  1.
</event>
<event>
 8    1  0.1269154E-006  0.9118800E+02  0.7816164E-02  0.1184000E+00
        -11   -1    0    0    0    0  0.00000000000E+00  0.00000000000E+00  0.45593999997E+02  0.45594000000E+02  0.51100000000E-03 0.  1.
         11   -1    0    0    0    0 -0.00000000000E+00 -0.00000000000E+00 -0.45593999997E+02  0.45594000000E+02  0.51100000000E-03 0. -1.
         23    2    1    2    0    0 -0.22204460493E-15  0.00000000000E+00  0.00000000000E+00  0.91188000000E+02  0.91188000000E+02 0.  0.
    9900012    2    3    3    0    0 -0.19111498236E+01  0.24962353932E+02 -0.27000034191E+02  0.54367170925E+02  0.40000197757E+02 0.  0.
        -12    1    3    3    0    0  0.19111498236E+01 -0.24962353932E+02  0.27000034191E+02  0.36820829075E+02  0.00000000000E+00 0.  1.
         11    1    4    4    0    0 -0.43223486630E+01  0.55777782514E+01 -0.31229027672E+02  0.32016347040E+02  0.51100000000E-03 0. -1.
        -11    1    4    4    0    0 -0.18463302073E+01  0.14325606733E+02 -0.10580510532E+00  0.14444484708E+02  0.51100000000E-03 0.  1.
         12    1    4    4    0    0  0.42575290468E+01  0.50589689481E+01  0.43347985863E+01  0.79063391772E+01  0.00000000000E+00 0. -1.
</event>
<event>
 8    1  0.1269154E-006  0.9118800E+02  0.7816164E-02  0.1184000E+00
        -11   -1    0    0    0    0  0.00000000000E+00  0.00000000000E+00  0.45593999997E+02  0.45594000000E+02  0.51100000000E-03 0. -1.
         11   -1    0    0    0    0 -0.00000000000E+00 -0.00000000000E+00 -0.45593999997E+02  0.45594000000E+02  0.51100000000E-03 0.  1.
         23    2    1    2    0    0  0.00000000000E+00  0.44408920985E-15  0.00000000000E+00  0.91188000000E+02  0.91188000000E+02 0.  0.
    9900012    2    3    3    0    0 -0.32090513985E+02  0.22860587430E+01  0.17909562934E+02  0.54367087506E+02  0.40000007588E+02 0.  0.
        -12    1    3    3    0    0  0.32090513985E+02 -0.22860587430E+01 -0.17909562934E+02  0.36820912494E+02  0.00000000000E+00 0.  1.
         11    1    4    4    0    0 -0.20849811563E+02  0.31618666541E+01 -0.21788990356E+01  0.21200463302E+02  0.51100000000E-03 0. -1.
        -11    1    4    4    0    0 -0.62651804634E+01 -0.39233391094E+01 -0.39837880069E+01  0.83973592964E+01  0.51100000000E-03 0.  1.
         12    1    4    4    0    0 -0.49755219582E+01  0.30475311983E+01  0.24072249977E+02  0.24769264908E+02  0.00000000000E+00 0. -1.
</event>
<event>
 8    1  0.1269154E-006  0.9118800E+02  0.7816164E-02  0.1184000E+00
        -11   -1    0    0    0    0  0.00000000000E+00  0.00000000000E+00  0.45593999997E+02  0.45594000000E+02  0.51100000000E-03 0.  1.
         11   -1    0    0    0    0 -0.00000000000E+00 -0.00000000000E+00 -0.45593999997E+02  0.45594000000E+02  0.51100000000E-03 0. -1.
         23    2    1    2    0    0 -0.88817841970E-15 -0.35527136788E-14  0.00000000000E+00  0.91188000000E+02  0.91188000000E+02 0.  0.
    9900012    2    3    3    0    0  0.72814172708E+01  0.18825285981E+02 -0.30795616697E+02  0.54367076092E+02  0.39999981567E+02 0.  0.
        -12    1    3    3    0    0 -0.72814172708E+01 -0.18825285981E+02  0.30795616697E+02  0.36820923908E+02  0.00000000000E+00 0.  1.
         11    1    4    4    0    0 -0.29767087713E+01  0.49976983150E+01 -0.11766012604E+02  0.13125427095E+02  0.51100000000E-03 0. -1.
        -11    1    4    4    0    0 -0.37918746899E+01 -0.79054437165E+01 -0.11160453515E+02  0.14192606418E+02  0.51100000000E-03 0.  1.
        -12    1    4    4    0    0  0.14050000732E+02  0.21733031382E+02 -0.78691505771E+01  0.27049042579E+02  0.00000000000E+00 0.  1.
</event>
<event>
 8    1  0.1269154E-006  0.9118800E+02  0.7816164E-02  0.1184000E+00
        -11   -1    0    0    0    0  0.00000000000E+00  0.00000000000E+00  0.45593999997E+02  0.45594000000E+02  0.51100000000E-03 0. -1.
         11   -1    0    0    0    0 -0.00000000000E+00 -0.00000000000E+00 -0.45593999997E+02  0.45594000000E+02  0.51100000000E-03 0.  1.
         23    2    1    2    0    0 -0.17763568394E-14  0.00000000000E+00 -0.35527136788E-14  0.91188000000E+02  0.91188000000E+02 0.  0.
    9900012    2    3    3    0    0 -0.12840789583E+02  0.26450697998E+02 -0.22164263050E+02  0.54367083957E+02  0.39999999496E+02 0.  0.
         12    1    3    3    0    0  0.12840789583E+02 -0.26450697998E+02  0.22164263050E+02  0.36820916043E+02  0.00000000000E+00 0. -1.
         11    1    4    4    0    0  0.40322662155E+01  0.79616532082E+00 -0.31039757140E+00  0.41218196181E+01  0.51100000000E-03 0. -1.
        -11    1    4    4    0    0 -0.14577840065E+02  0.96643439590E+01 -0.27956465701E+02  0.32976915257E+02  0.51100000000E-03 0.  1.
         12    1    4    4    0    0 -0.22952157337E+01  0.15990188718E+02  0.61026002223E+01  0.17268349081E+02  0.00000000000E+00 0. -1.
</event>
<event>
 8    1  0.1269154E-006  0.9118800E+02  0.7816164E-02  0.1184000E+00
        -11   -1    0    0    0    0  0.00000000000E+00  0.00000000000E+00  0.45593999997E+02  0.45594000000E+02  0.51100000000E-03 0. -1.
         11   -1    0    0    0    0 -0.00000000000E+00 -0.00000000000E+00 -0.45593999997E+02  0.45594000000E+02  0.51100000000E-03 0.  1.
         23    2    1    2    0    0  0.17763568394E-14  0.35527136788E-14  0.00000000000E+00  0.91188000000E+02  0.91188000000E+02 0.  0.
    9900012    2    3    3    0    0 -0.13362047598E+02 -0.24222501731E+02 -0.24300618722E+02  0.54366892244E+02  0.39999562447E+02 0.  0.
         12    1    3    3    0    0  0.13362047598E+02  0.24222501731E+02  0.24300618722E+02  0.36821107756E+02  0.00000000000E+00 0. -1.
         11    1    4    4    0    0  0.83596465498E+01  0.66141420168E+00 -0.23117937096E+01  0.86985946911E+01  0.51100000000E-03 0. -1.
        -11    1    4    4    0    0 -0.23886775359E+02 -0.26661379296E+02 -0.16312373970E+02  0.39338285776E+02  0.51100000000E-03 0.  1.
        -12    1    4    4    0    0  0.21650812117E+01  0.17774633633E+01 -0.56764510420E+01  0.63300117767E+01  0.00000000000E+00 0.  1.
</event>
<event>
 8    1  0.1269154E-006  0.9118800E+02  0.7816164E-02  0.1184000E+00
        -11   -1    0    0    0    0  0.00000000000E+00  0.00000000000E+00  0.45593999997E+02  0.45594000000E+02  0.51100000000E-03 0. -1.
         11   -1    0    0    0    0 -0.00000000000E+00 -0.00000000000E+00 -0.45593999997E+02  0.45594000000E+02  0.51100000000E-03 0.  1.
         23    2    1    2    0    0 -0.35527136788E-14  0.00000000000E+00  0.00000000000E+00  0.91188000000E+02  0.91188000000E+02 0.  0.
    9900012    2    3    3    0    0 -0.30484589621E+02 -0.57916980474E+01 -0.19822351993E+02  0.54367087339E+02  0.40000007208E+02 0.  0.
         12    1    3    3    0    0  0.30484589621E+02  0.57916980474E+01  0.19822351993E+02  0.36820912661E+02  0.00000000000E+00 0. -1.
         11    1    4    4    0    0 -0.21477431055E+02 -0.12662497141E+02 -0.20453081686E+02  0.32248215909E+02  0.51100000000E-03 0.  1.
        -11    1    4    4    0    0  0.14167953493E+01 -0.54792068640E+01  0.17368911380E+01  0.59199500004E+01  0.51100000000E-03 0. -1.
         12    1    4    4    0    0 -0.10423953915E+02  0.12350005957E+02 -0.11061614446E+01  0.16198921430E+02  0.00000000000E+00 0. -1.
</event>
<event>
 8    1  0.1269154E-006  0.9118800E+02  0.7816164E-02  0.1184000E+00
        -11   -1    0    0    0    0  0.00000000000E+00  0.00000000000E+00  0.45593999997E+02  0.45594000000E+02  0.51100000000E-03 0. -1.
         11   -1    0    0    0    0 -0.00000000000E+00 -0.00000000000E+00 -0.45593999997E+02  0.45594000000E+02  0.51100000000E-03 0.  1.
         23    2    1    2    0    0  0.17763568394E-14 -0.35527136788E-14  0.71054273576E-14  0.91188000000E+02  0.91188000000E+02 0.  0.
    9900012    2    3    3    0    0 -0.13562722003E+02  0.16162839166E+02 -0.30176061644E+02  0.54367088898E+02  0.40000010761E+02 0.  0.
         12    1    3    3    0    0  0.13562722003E+02 -0.16162839166E+02  0.30176061644E+02  0.36820911102E+02  0.00000000000E+00 0. -1.
         11    1    4    4    0    0  0.48856199476E+01  0.73102149688E+01 -0.25385006114E+02  0.26864606098E+02  0.51100000000E-03 0.  1.
        -11    1    4    4    0    0 -0.19241676383E+02  0.17129434133E+01 -0.59777180964E+01  0.20221508328E+02  0.51100000000E-03 0. -1.
        -12    1    4    4    0    0  0.79333443245E+00  0.71396807838E+01  0.11866625659E+01  0.72809744719E+01  0.00000000000E+00 0.  1.
</event>
<event>
 8    1  0.1269154E-006  0.9118800E+02  0.7816164E-02  0.1184000E+00
        -11   -1    0    0    0    0  0.00000000000E+00  0.00000000000E+00  0.45593999997E+02  0.45594000000E+02  0.51100000000E-03 0. -1.
         11   -1    0    0    0    0 -0.00000000000E+00 -0.00000000000E+00 -0.45593999997E+02  0.45594000000E+02  0.51100000000E-03 0.  1.
         23    2    1    2    0    0  0.00000000000E+00 -0.17763568394E-14  0.71054273576E-14  0.91188000000E+02  0.91188000000E+02 0.  0.
    9900012    2    3    3    0    0  0.18031774834E+02  0.11107278420E+02 -0.30120811165E+02  0.54367084710E+02  0.40000001213E+02 0.  0.
         12    1    3    3    0    0 -0.18031774834E+02 -0.11107278420E+02  0.30120811165E+02  0.36820915290E+02  0.00000000000E+00 0. -1.
         11    1    4    4    0    0 -0.28343198629E+01 -0.85512686041E+00  0.29371483197E+01  0.41703059295E+01  0.51100000000E-03 0. -1.
        -11    1    4    4    0    0 -0.31172080964E+01  0.75004512818E+01  0.11268777373E+01  0.82002200851E+01  0.51100000000E-03 0.  1.
        -12    1    4    4    0    0  0.23983302794E+02  0.44619539986E+01 -0.34184837222E+02  0.41996558695E+02  0.00000000000E+00 0.  1.
</event>
<event>
 8    1  0.1269154E-006  0.9118800E+02  0.7816164E-02  0.1184000E+00
        -11   -1    0    0    0    0  0.00000000000E+00  0.00000000000E+00  0.45593999997E+02  0.45594000000E+02  0.51100000000E-03 0.  1.
         11   -1    0    0    0    0 -0.00000000000E+00 -0.00000000000E+00 -0.45593999997E+02  0.45594000000E+02  0.51100000000E-03 0. -1.
         23    2    1    2    0    0  0.00000000000E+00  0.00000000000E+00 -0.88817841970E-15  0.91188000000E+02  0.91188000000E+02 0.  0.
    9900012    2    3    3    0    0  0.36287550927E+02 -0.42529845966E+01 -0.45722962947E+01  0.54367080353E+02  0.39999991280E+02 0.  0.
        -12    1    3    3    0    0 -0.36287550927E+02  0.42529845966E+01  0.45722962947E+01  0.36820919647E+02  0.00000000000E+00 0.  1.
         11    1    4    4    0    0  0.13638263052E+02 -0.78852346719E+01  0.67590327832E+01  0.17142452256E+02  0.51100000000E-03 0. -1.
        -11    1    4    4    0    0  0.19365226732E+02 -0.80400512205E+01 -0.51242038787E+00  0.20974198553E+02  0.51100000000E-03 0.  1.
        -12    1    4    4    0    0  0.32840611431E+01  0.11672301296E+02 -0.10818908690E+02  0.16250429544E+02  0.00000000000E+00 0.  1.
</event>
<event>
 8    1  0.1269154E-006  0.9118800E+02  0.7816164E-02  0.1184000E+00
        -11   -1    0    0    0    0  0.00000000000E+00  0.00000000000E+00  0.45593999997E+02  0.45594000000E+02  0.51100000000E-03 0. -1.
         11   -1    0    0    0    0 -0.00000000000E+00 -0.00000000000E+00 -0.45593999997E+02  0.45594000000E+02  0.51100000000E-03 0.  1.
         23    2    1    2    0    0  0.00000000000E+00  0.17763568394E-14 -0.35527136788E-14  0.91188000000E+02  0.91188000000E+02 0.  0.
    9900012    2    3    3    0    0  0.22875046426E+02 -0.88462632793E+01  0.27463699590E+02  0.54367096722E+02  0.40000028597E+02 0.  0.
        -12    1    3    3    0    0 -0.22875046426E+02  0.88462632793E+01 -0.27463699590E+02  0.36820903278E+02  0.00000000000E+00 0.  1.
         11    1    4    4    0    0  0.18825258015E+02 -0.66223069029E+00  0.31114579982E+02  0.36372324321E+02  0.51100000000E-03 0. -1.
        -11    1    4    4    0    0  0.86599990210E+01 -0.10112420864E+01 -0.36913696739E+01  0.94680728732E+01  0.51100000000E-03 0.  1.
        -12    1    4    4    0    0 -0.46102106096E+01 -0.71727905025E+01  0.40489282509E-01  0.85266995280E+01  0.00000000000E+00 0.  1.
</event>
<event>
 8    1  0.1350365E-006  0.9118800E+02  0.7816164E-02  0.1184000E+00
        -11   -1    0    0    0    0  0.00000000000E+00  0.00000000000E+00  0.45593999997E+02  0.45594000000E+02  0.51100000000E-03 0.  1.
         11   -1    0    0    0    0 -0.00000000000E+00 -0.00000000000E+00 -0.45593999997E+02  0.45594000000E+02  0.51100000000E-03 0. -1.
         23    2    1    2    0    0 -0.17763568394E-14 -0.22204460493E-15  0.00000000000E+00  0.91188000000E+02  0.91188000000E+02 0.  0.
    9900012    2    3    3    0    0  0.10914415508E+02  0.10181822022E+01  0.35151259661E+02  0.54367187724E+02  0.40000236055E+02 0.  0.
         12    1    3    3    0    0 -0.10914415508E+02 -0.10181822022E+01 -0.35151259661E+02  0.36820812276E+02  0.00000000000E+00 0. -1.
         11    1    4    4    0    0  0.37326802145E+01 -0.16699798135E+01  0.82166403138E+01  0.91779579683E+01  0.51100000000E-03 0. -1.
        -11    1    4    4    0    0  0.64250614687E+01  0.15900551549E+01  0.35707398148E+02  0.36315671177E+02  0.51100000000E-03 0.  1.
         12    1    4    4    0    0  0.75667382490E+00  0.10981068608E+01 -0.87727788013E+01  0.88735585788E+01  0.00000000000E+00 0. -1.
</event>
<event>
 8    1  0.1269154E-006  0.9118800E+02  0.7816164E-02  0.1184000E+00
        -11   -1    0    0    0    0  0.00000000000E+00  0.00000000000E+00  0.45593999997E+02  0.45594000000E+02  0.51100000000E-03 0.  1.
         11   -1    0    0    0    0 -0.00000000000E+00 -0.00000000000E+00 -0.45593999997E+02  0.45594000000E+02  0.51100000000E-03 0. -1.
         23    2    1    2    0    0 -0.35527136788E-14  0.00000000000E+00  0.88817841970E-15  0.91188000000E+02  0.91188000000E+02 0.  0.
    9900012    2    3    3    0    0 -0.13395755961E+02  0.33500896675E+02 -0.73500032008E+01  0.54367096931E+02  0.40000029073E+02 0.  0.
        -12    1    3    3    0    0  0.13395755961E+02 -0.33500896675E+02  0.73500032008E+01  0.36820903069E+02  0.00000000000E+00 0.  1.
         11    1    4    4    0    0  0.63747068040E+00  0.13283576110E+02  0.12870942642E+01  0.13361002023E+02  0.51100000000E-03 0. -1.
        -11    1    4    4    0    0  0.15871566715E+01 -0.45343579357E+01  0.64781047779E+01  0.80650672634E+01  0.51100000000E-03 0.  1.
        -12    1    4    4    0    0 -0.15620383313E+02  0.24751678500E+02 -0.15115202243E+02  0.32941027644E+02  0.00000000000E+00 0.  1.
</event>
<event>
 8    1  0.1269154E-006  0.9118800E+02  0.7816164E-02  0.1184000E+00
        -11   -1    0    0    0    0  0.00000000000E+00  0.00000000000E+00  0.45593999997E+02  0.45594000000E+02  0.51100000000E-03 0.  1.
         11   -1    0    0    0    0 -0.00000000000E+00 -0.00000000000E+00 -0.45593999997E+02  0.45594000000E+02  0.51100000000E-03 0. -1.
         23    2    1    2    0    0  0.71054273576E-14  0.00000000000E+00 -0.35527136788E-14  0.91188000000E+02  0.91188000000E+02 0.  0.
    9900012    2    3    3    0    0 -0.29103063452E+02 -0.24287239337E+01  0.22425142958E+02  0.54367162979E+02  0.40000179643E+02 0.  0.
         12    1    3    3    0    0  0.29103063452E+02  0.24287239337E+01 -0.22425142958E+02  0.36820837021E+02  0.00000000000E+00 0. -1.
         11    1    4    4    0    0 -0.11292945055E+02  0.41775241693E+01  0.67576049471E+01  0.13807517557E+02  0.51100000000E-03 0. -1.
        -11    1    4    4    0    0 -0.34589838142E+01 -0.27182846877E+01 -0.99841230891E+01  0.10910378306E+02  0.51100000000E-03 0.  1.
        -12    1    4    4    0    0 -0.14351134583E+02 -0.38879634153E+01  0.25651661100E+02  0.29649267116E+02  0.00000000000E+00 0.  1.
</event>
<event>
 8    1  0.1269154E-006  0.9118800E+02  0.7816164E-02  0.1184000E+00
        -11   -1    0    0    0    0  0.00000000000E+00  0.00000000000E+00  0.45593999997E+02  0.45594000000E+02  0.51100000000E-03 0. -1.
         11   -1    0    0    0    0 -0.00000000000E+00 -0.00000000000E+00 -0.45593999997E+02  0.45594000000E+02  0.51100000000E-03 0.  1.
         23    2    1    2    0    0  0.00000000000E+00  0.88817841970E-15  0.00000000000E+00  0.91188000000E+02  0.91188000000E+02 0.  0.
    9900012    2    3    3    0    0 -0.84955078535E+01  0.56603731761E+01  0.35377486699E+02  0.54367081444E+02  0.39999993767E+02 0.  0.
        -12    1    3    3    0    0  0.84955078535E+01 -0.56603731761E+01 -0.35377486699E+02  0.36820918556E+02  0.00000000000E+00 0.  1.
         11    1    4    4    0    0  0.10911467232E+01  0.75460476351E+01  0.19455333989E+02  0.20896015337E+02  0.51100000000E-03 0. -1.
        -11    1    4    4    0    0 -0.23799714526E+01 -0.14607203821E+02  0.86353810627E+01  0.17134890544E+02  0.51100000000E-03 0.  1.
        -12    1    4    4    0    0 -0.72066831241E+01  0.12721529362E+02  0.72867716474E+01  0.16336175563E+02  0.00000000000E+00 0.  1.
</event>
<event>
 8    1  0.1269154E-006  0.9118800E+02  0.7816164E-02  0.1184000E+00
        -11   -1    0    0    0    0  0.00000000000E+00  0.00000000000E+00  0.45593999997E+02  0.45594000000E+02  0.51100000000E-03 0.  1.
         11   -1    0    0    0    0 -0.00000000000E+00 -0.00000000000E+00 -0.45593999997E+02  0.45594000000E+02  0.51100000000E-03 0. -1.
         23    2    1    2    0    0 -0.17763568394E-14 -0.71054273576E-14  0.00000000000E+00  0.91188000000E+02  0.91188000000E+02 0.  0.
    9900012    2    3    3    0    0 -0.10417730829E+02  0.27952299692E+02 -0.21585147322E+02  0.54367098889E+02  0.40000033537E+02 0.  0.
        -12    1    3    3    0    0  0.10417730829E+02 -0.27952299692E+02  0.21585147322E+02  0.36820901111E+02  0.00000000000E+00 0.  1.
         11    1    4    4    0    0  0.25575620193E+01 -0.67054435224E+01 -0.11342409982E+02  0.13422159319E+02  0.51100000000E-03 0.  1.
        -11    1    4    4    0    0 -0.10141174044E+02  0.32761077702E+02 -0.12880276003E+02  0.36633770395E+02  0.51100000000E-03 0. -1.
         12    1    4    4    0    0 -0.28341188046E+01  0.18966655124E+01  0.26375386626E+01  0.43111691757E+01  0.00000000000E+00 0. -1.
</event>
<event>
 8    1  0.1269154E-006  0.9118800E+02  0.7816164E-02  0.1184000E+00
        -11   -1    0    0    0    0  0.00000000000E+00  0.00000000000E+00  0.45593999997E+02  0.45594000000E+02  0.51100000000E-03 0.  1.
         11   -1    0    0    0    0 -0.00000000000E+00 -0.00000000000E+00 -0.45593999997E+02  0.45594000000E+02  0.51100000000E-03 0. -1.
         23    2    1    2    0    0  0.00000000000E+00  0.00000000000E+00  0.00000000000E+00  0.91188000000E+02  0.91188000000E+02 0.  0.
    9900012    2    3    3    0    0 -0.17299264509E+02  0.50205206503E+01  0.32113976768E+02  0.54367113482E+02  0.40000066804E+02 0.  0.
         12    1    3    3    0    0  0.17299264509E+02 -0.50205206503E+01 -0.32113976768E+02  0.36820886518E+02  0.00000000000E+00 0. -1.
         11    1    4    4    0    0 -0.26407738804E+02  0.53132997570E+01  0.20569197160E+02  0.33892354523E+02  0.51100000000E-03 0. -1.
        -11    1    4    4    0    0  0.54252095621E+01  0.39669459805E+01  0.13020979873E+02  0.14653172909E+02  0.51100000000E-03 0.  1.
         12    1    4    4    0    0  0.36832647322E+01 -0.42597250872E+01 -0.14762002653E+01  0.58215860493E+01  0.00000000000E+00 0. -1.
</event>
<event>
 8    1  0.1269154E-006  0.9118800E+02  0.7816164E-02  0.1184000E+00
        -11   -1    0    0    0    0  0.00000000000E+00  0.00000000000E+00  0.45593999997E+02  0.45594000000E+02  0.51100000000E-03 0.  1.
         11   -1    0    0    0    0 -0.00000000000E+00 -0.00000000000E+00 -0.45593999997E+02  0.45594000000E+02  0.51100000000E-03 0. -1.
         23    2    1    2    0    0  0.00000000000E+00  0.00000000000E+00  0.35527136788E-14  0.91188000000E+02  0.91188000000E+02 0.  0.
    9900012    2    3    3    0    0 -0.19346516564E+02 -0.16270241046E+02 -0.26772592966E+02  0.54367079575E+02  0.39999989506E+02 0.  0.
        -12    1    3    3    0    0  0.19346516564E+02  0.16270241046E+02  0.26772592966E+02  0.36820920425E+02  0.00000000000E+00 0.  1.
         11    1    4    4    0    0 -0.46447530868E+00  0.47615333623E+01 -0.14075377553E+01  0.49868928268E+01  0.51100000000E-03 0. -1.
        -11    1    4    4    0    0 -0.14859105718E+02  0.50179031147E+01 -0.65548309229E+01  0.16998181758E+02  0.51100000000E-03 0.  1.
         12    1    4    4    0    0 -0.40229355378E+01 -0.26049677523E+02 -0.18810224288E+02  0.32382004989E+02  0.00000000000E+00 0. -1.
</event>
<event>
 8    1  0.1269154E-006  0.9118800E+02  0.7816164E-02  0.1184000E+00
        -11   -1    0    0    0    0  0.00000000000E+00  0.00000000000E+00  0.45593999997E+02  0.45594000000E+02  0.51100000000E-03 0.  1.
         11   -1    0    0    0    0 -0.00000000000E+00 -0.00000000000E+00 -0.45593999997E+02  0.45594000000E+02  0.51100000000E-03 0. -1.
         23    2    1    2    0    0  0.00000000000E+00  0.88817841970E-15  0.35527136788E-14  0.91188000000E+02  0.91188000000E+02 0.  0.
    9900012    2    3    3    0    0 -0.20415850267E+02 -0.94240523883E+00 -0.30628143510E+02  0.54367105868E+02  0.40000049448E+02 0.  0.
         12    1    3    3    0    0  0.20415850267E+02  0.94240523883E+00  0.30628143510E+02  0.36820894132E+02  0.00000000000E+00 0. -1.
         11    1    4    4    0    0  0.46624701646E+01 -0.12815976532E+02 -0.45259932968E+01  0.14369150918E+02  0.51100000000E-03 0. -1.
        -11    1    4    4    0    0 -0.11721966623E+01 -0.18952796474E+01 -0.42702866618E+01  0.48167912963E+01  0.51100000000E-03 0.  1.
         12    1    4    4    0    0 -0.23906123769E+02  0.13768850941E+02 -0.21831863552E+02  0.35181163654E+02  0.00000000000E+00 0. -1.
</event>
<event>
 8    1  0.1269154E-006  0.9118800E+02  0.7816164E-02  0.1184000E+00
        -11   -1    0    0    0    0  0.00000000000E+00  0.00000000000E+00  0.45593999997E+02  0.45594000000E+02  0.51100000000E-03 0. -1.
         11   -1    0    0    0    0 -0.00000000000E+00 -0.00000000000E+00 -0.45593999997E+02  0.45594000000E+02  0.51100000000E-03 0.  1.
         23    2    1    2    0    0 -0.88817841970E-15 -0.88817841970E-15  0.00000000000E+00  0.91188000000E+02  0.91188000000E+02 0.  0.
    9900012    2    3    3    0    0 -0.79286177505E+01 -0.60865835406E+01 -0.35438251444E+02  0.54367093656E+02  0.40000021607E+02 0.  0.
         12    1    3    3    0    0  0.79286177505E+01  0.60865835406E+01  0.35438251444E+02  0.36820906344E+02  0.00000000000E+00 0. -1.
         11    1    4    4    0    0  0.35702452554E+01  0.75631114424E+01 -0.83596872748E+01  0.11825044502E+02  0.51100000000E-03 0. -1.
        -11    1    4    4    0    0  0.85887972809E+01 -0.84656715918E+01 -0.95702073411E+01  0.15395580634E+02  0.51100000000E-03 0.  1.
         12    1    4    4    0    0 -0.20087660287E+02 -0.51840233912E+01 -0.17508356828E+02  0.27146468520E+02  0.00000000000E+00 0. -1.
</event>
<event>
 8    1  0.1269154E-006  0.9118800E+02  0.7816164E-02  0.1184000E+00
        -11   -1    0    0    0    0  0.00000000000E+00  0.00000000000E+00  0.45593999997E+02  0.45594000000E+02  0.51100000000E-03 0. -1.
         11   -1    0    0    0    0 -0.00000000000E+00 -0.00000000000E+00 -0.45593999997E+02  0.45594000000E+02  0.51100000000E-03 0.  1.
         23    2    1    2    0    0  0.35527136788E-14  0.00000000000E+00  0.00000000000E+00  0.91188000000E+02  0.91188000000E+02 0.  0.
    9900012    2    3    3    0    0 -0.27076674943E+02 -0.85847082983E+01 -0.23429438048E+02  0.54367053383E+02  0.39999929798E+02 0.  0.
        -12    1    3    3    0    0  0.27076674943E+02  0.85847082983E+01  0.23429438048E+02  0.36820946617E+02  0.00000000000E+00 0.  1.
         11    1    4    4    0    0 -0.42593416392E+01  0.41602012007E+01  0.41633186719E+01  0.72651557351E+01  0.51100000000E-03 0. -1.
        -11    1    4    4    0    0 -0.17858621119E+02  0.59552851288E+01 -0.13380314444E+02  0.23096072915E+02  0.51100000000E-03 0.  1.
        -12    1    4    4    0    0 -0.49587121844E+01 -0.18700194628E+02 -0.14212442276E+02  0.24005824733E+02  0.00000000000E+00 0.  1.
</event>
<event>
 8    1  0.1269154E-006  0.9118800E+02  0.7816164E-02  0.1184000E+00
        -11   -1    0    0    0    0  0.00000000000E+00  0.00000000000E+00  0.45593999997E+02  0.45594000000E+02  0.51100000000E-03 0. -1.
         11   -1    0    0    0    0 -0.00000000000E+00 -0.00000000000E+00 -0.45593999997E+02  0.45594000000E+02  0.51100000000E-03 0.  1.
         23    2    1    2    0    0  0.35527136788E-14  0.00000000000E+00  0.00000000000E+00  0.91188000000E+02  0.91188000000E+02 0.  0.
    9900012    2    3    3    0    0  0.16319161777E+02 -0.81377715922E+01 -0.31988149746E+02  0.54367080786E+02  0.39999992268E+02 0.  0.
         12    1    3    3    0    0 -0.16319161777E+02  0.81377715922E+01  0.31988149746E+02  0.36820919214E+02  0.00000000000E+00 0. -1.
         11    1    4    4    0    0  0.20732085694E+02 -0.69178501087E+01 -0.15921155655E+02  0.27039956083E+02  0.51100000000E-03 0. -1.
        -11    1    4    4    0    0  0.77050093701E+01 -0.43848939334E+01 -0.10146309676E+02  0.13473754655E+02  0.51100000000E-03 0.  1.
         12    1    4    4    0    0 -0.12117933286E+02  0.31649724499E+01 -0.59206844154E+01  0.13853370048E+02  0.00000000000E+00 0. -1.
</event>
<event>
 8    1  0.1269154E-006  0.9118800E+02  0.7816164E-02  0.1184000E+00
        -11   -1    0    0    0    0  0.00000000000E+00  0.00000000000E+00  0.45593999997E+02  0.45594000000E+02  0.51100000000E-03 0. -1.
         11   -1    0    0    0    0 -0.00000000000E+00 -0.00000000000E+00 -0.45593999997E+02  0.45594000000E+02  0.51100000000E-03 0.  1.
         23    2    1    2    0    0  0.00000000000E+00 -0.71054273576E-14  0.00000000000E+00  0.91188000000E+02  0.91188000000E+02 0.  0.
    9900012    2    3    3    0    0 -0.54252341516E+01  0.28244323278E+02  0.22991405742E+02  0.54367086092E+02  0.40000004363E+02 0.  0.
        -12    1    3    3    0    0  0.54252341516E+01 -0.28244323278E+02 -0.22991405742E+02  0.36820913908E+02  0.00000000000E+00 0.  1.
         11    1    4    4    0    0 -0.11018254924E+02  0.19847298294E+01  0.30892863239E+00  0.11199845143E+02  0.51100000000E-03 0. -1.
        -11    1    4    4    0    0 -0.37704487964E+01  0.54541284184E+00  0.13921169365E+02  0.14433042508E+02  0.51100000000E-03 0.  1.
        -12    1    4    4    0    0  0.93634695686E+01  0.25714180607E+02  0.87613077451E+01  0.28734198441E+02  0.00000000000E+00 0.  1.
</event>
<event>
 8    1  0.1269154E-006  0.9118800E+02  0.7816164E-02  0.1184000E+00
        -11   -1    0    0    0    0  0.00000000000E+00  0.00000000000E+00  0.45593999997E+02  0.45594000000E+02  0.51100000000E-03 0.  1.
         11   -1    0    0    0    0 -0.00000000000E+00 -0.00000000000E+00 -0.45593999997E+02  0.45594000000E+02  0.51100000000E-03 0. -1.
         23    2    1    2    0    0  0.00000000000E+00 -0.35527136788E-14  0.00000000000E+00  0.91188000000E+02  0.91188000000E+02 0.  0.
    9900012    2    3    3    0    0 -0.32507639569E+01 -0.26005282784E+02  0.25863813645E+02  0.54367094861E+02  0.40000024355E+02 0.  0.
         12    1    3    3    0    0  0.32507639569E+01  0.26005282784E+02 -0.25863813645E+02  0.36820905139E+02  0.00000000000E+00 0. -1.
         11    1    4    4    0    0 -0.45586630266E+01  0.21232514367E+01  0.14222753747E+02  0.15085633220E+02  0.51100000000E-03 0. -1.
        -11    1    4    4    0    0  0.73389719326E+01 -0.29695174061E-01  0.70530347987E+01  0.10178737199E+02  0.51100000000E-03 0.  1.
         12    1    4    4    0    0 -0.60310728629E+01 -0.28098839047E+02  0.45880250999E+01  0.29102724442E+02  0.00000000000E+00 0. -1.
</event>
<event>
 8    1  0.1269154E-006  0.9118800E+02  0.7816164E-02  0.1184000E+00
        -11   -1    0    0    0    0  0.00000000000E+00  0.00000000000E+00  0.45593999997E+02  0.45594000000E+02  0.51100000000E-03 0. -1.
         11   -1    0    0    0    0 -0.00000000000E+00 -0.00000000000E+00 -0.45593999997E+02  0.45594000000E+02  0.51100000000E-03 0.  1.
         23    2    1    2    0    0  0.00000000000E+00  0.00000000000E+00  0.00000000000E+00  0.91188000000E+02  0.91188000000E+02 0.  0.
    9900012    2    3    3    0    0 -0.17179156028E+02 -0.26076674841E+02 -0.19510600824E+02  0.54367083158E+02  0.39999997674E+02 0.  0.
         12    1    3    3    0    0  0.17179156028E+02  0.26076674841E+02  0.19510600824E+02  0.36820916842E+02  0.00000000000E+00 0. -1.
         11    1    4    4    0    0 -0.10574806953E+02 -0.82651176841E+01 -0.13032147106E+01  0.13484698041E+02  0.51100000000E-03 0. -1.
        -11    1    4    4    0    0  0.94174534361E+01  0.21785912803E+01 -0.38401977296E+00  0.96737872953E+01  0.51100000000E-03 0.  1.
        -12    1    4    4    0    0 -0.16021802511E+02 -0.19990148437E+02 -0.17823366341E+02  0.31208597821E+02  0.00000000000E+00 0.  1.
</event>
<event>
 8    1  0.1269154E-006  0.9118800E+02  0.7816164E-02  0.1184000E+00
        -11   -1    0    0    0    0  0.00000000000E+00  0.00000000000E+00  0.45593999997E+02  0.45594000000E+02  0.51100000000E-03 0.  1.
         11   -1    0    0    0    0 -0.00000000000E+00 -0.00000000000E+00 -0.45593999997E+02  0.45594000000E+02  0.51100000000E-03 0. -1.
         23    2    1    2    0    0  0.17763568394E-14  0.00000000000E+00  0.00000000000E+00  0.91188000000E+02  0.91188000000E+02 0.  0.
    9900012    2    3    3    0    0 -0.12474216300E+02 -0.33357184845E+02  0.93526278263E+01  0.54367088817E+02  0.40000010576E+02 0.  0.
         12    1    3    3    0    0  0.12474216300E+02  0.33357184845E+02 -0.93526278263E+01  0.36820911183E+02  0.00000000000E+00 0. -1.
         11    1    4    4    0    0 -0.21404479645E+02 -0.30471005177E+02  0.43595152851E+00  0.37240085384E+02  0.51100000000E-03 0. -1.
        -11    1    4    4    0    0  0.75059445703E+01 -0.33010213701E+01  0.11514309625E+02  0.14135603007E+02  0.51100000000E-03 0.  1.
         12    1    4    4    0    0  0.14243187746E+01  0.41484170224E+00 -0.25976333270E+01  0.29914004264E+01  0.00000000000E+00 0. -1.
</event>
<event>
 8    1  0.1269154E-006  0.9118800E+02  0.7816164E-02  0.1184000E+00
        -11   -1    0    0    0    0  0.00000000000E+00  0.00000000000E+00  0.45593999997E+02  0.45594000000E+02  0.51100000000E-03 0.  1.
         11   -1    0    0    0    0 -0.00000000000E+00 -0.00000000000E+00 -0.45593999997E+02  0.45594000000E+02  0.51100000000E-03 0. -1.
         23    2    1    2    0    0  0.00000000000E+00  0.17763568394E-14 -0.17763568394E-14  0.91188000000E+02  0.91188000000E+02 0.  0.
    9900012    2    3    3    0    0 -0.35258196427E+02 -0.30233595592E+01  0.10173404629E+02  0.54367091809E+02  0.40000017396E+02 0.  0.
         12    1    3    3    0    0  0.35258196427E+02  0.30233595592E+01 -0.10173404629E+02  0.36820908191E+02  0.00000000000E+00 0. -1.
         11    1    4    4    0    0 -0.21816816044E+02 -0.15220485077E+02  0.12409444434E+01  0.26630369348E+02  0.51100000000E-03 0. -1.
        -11    1    4    4    0    0 -0.13130983390E+02 -0.54383284645E+00  0.22068715516E+01  0.13326243329E+02  0.51100000000E-03 0.  1.
         12    1    4    4    0    0 -0.31039699301E+00  0.12740958364E+02  0.67255886340E+01  0.14410479132E+02  0.00000000000E+00 0. -1.
</event>
<event>
 8    1  0.1269154E-006  0.9118800E+02  0.7816164E-02  0.1184000E+00
        -11   -1    0    0    0    0  0.00000000000E+00  0.00000000000E+00  0.45593999997E+02  0.45594000000E+02  0.51100000000E-03 0.  1.
         11   -1    0    0    0    0 -0.00000000000E+00 -0.00000000000E+00 -0.45593999997E+02  0.45594000000E+02  0.51100000000E-03 0. -1.
         23    2    1    2    0    0 -0.88817841970E-15  0.17763568394E-14  0.00000000000E+00  0.91188000000E+02  0.91188000000E+02 0.  0.
    9900012    2    3    3    0    0  0.20934811105E+01 -0.10336619972E+01  0.36746804409E+02  0.54367098945E+02  0.40000033664E+02 0.  0.
         12    1    3    3    0    0 -0.20934811105E+01  0.10336619972E+01 -0.36746804409E+02  0.36820901055E+02  0.00000000000E+00 0. -1.
         11    1    4    4    0    0  0.78791294456E+01  0.15269316506E+02  0.21574433824E+02  0.27580589233E+02  0.51100000000E-03 0. -1.
        -11    1    4    4    0    0  0.39968325476E+01 -0.89258505789E+01  0.75693078419E+01  0.12366887257E+02  0.51100000000E-03 0.  1.
         12    1    4    4    0    0 -0.97824808827E+01 -0.73771279246E+01  0.76030627432E+01  0.14419622454E+02  0.00000000000E+00 0. -1.
</event>
<event>
 8    1  0.1269154E-006  0.9118800E+02  0.7816164E-02  0.1184000E+00
        -11   -1    0    0    0    0  0.00000000000E+00  0.00000000000E+00  0.45593999997E+02  0.45594000000E+02  0.51100000000E-03 0.  1.
         11   -1    0    0    0    0 -0.00000000000E+00 -0.00000000000E+00 -0.45593999997E+02  0.45594000000E+02  0.51100000000E-03 0. -1.
         23    2    1    2    0    0 -0.17763568394E-14  0.00000000000E+00  0.00000000000E+00  0.91188000000E+02  0.91188000000E+02 0.  0.
    9900012    2    3    3    0    0  0.12330362084E+02  0.23588884208E+02  0.25442205491E+02  0.54367094151E+02  0.40000022736E+02 0.  0.
         12    1    3    3    0    0 -0.12330362084E+02 -0.23588884208E+02 -0.25442205491E+02  0.36820905849E+02  0.00000000000E+00 0. -1.
         11    1    4    4    0    0  0.12110931958E+02  0.57327030499E+00  0.17222931035E+02  0.21062589239E+02  0.51100000000E-03 0. -1.
        -11    1    4    4    0    0  0.24269883943E+01  0.13430435968E+02  0.15805656107E+02  0.20882663819E+02  0.51100000000E-03 0.  1.
         12    1    4    4    0    0 -0.22075582683E+01  0.95851779356E+01 -0.75863816518E+01  0.12421841093E+02  0.00000000000E+00 0. -1.
</event>
<event>
 8    1  0.1269154E-006  0.9118800E+02  0.7816164E-02  0.1184000E+00
        -11   -1    0    0    0    0  0.00000000000E+00  0.00000000000E+00  0.45593999997E+02  0.45594000000E+02  0.51100000000E-03 0.  1.
         11   -1    0    0    0    0 -0.00000000000E+00 -0.00000000000E+00 -0.45593999997E+02  0.45594000000E+02  0.51100000000E-03 0. -1.
         23    2    1    2    0    0 -0.17763568394E-14  0.71054273576E-14  0.35527136788E-14  0.91188000000E+02  0.91188000000E+02 0.  0.
    9900012    2    3    3    0    0  0.10531924429E+02 -0.23785859023E+02 -0.26059325806E+02  0.54367122999E+02  0.40000088501E+02 0.  0.
        -12    1    3    3    0    0 -0.10531924429E+02  0.23785859023E+02  0.26059325806E+02  0.36820877001E+02  0.00000000000E+00 0.  1.
         11    1    4    4    0    0  0.93805526062E+01 -0.21796297777E+02 -0.17256750739E+02  0.29340565951E+02  0.51100000000E-03 0. -1.
        -11    1    4    4    0    0 -0.14412257551E+00 -0.96552866192E+01  0.36692772353E+01  0.10330001293E+02  0.51100000000E-03 0.  1.
        -12    1    4    4    0    0  0.12954943984E+01  0.76657253731E+01 -0.12471852302E+02  0.14696555756E+02  0.00000000000E+00 0.  1.
</event>
<event>
 8    1  0.1269154E-006  0.9118800E+02  0.7816164E-02  0.1184000E+00
        -11   -1    0    0    0    0  0.00000000000E+00  0.00000000000E+00  0.45593999997E+02  0.45594000000E+02  0.51100000000E-03 0.  1.
         11   -1    0    0    0    0 -0.00000000000E+00 -0.00000000000E+00 -0.45593999997E+02  0.45594000000E+02  0.51100000000E-03 0. -1.
         23    2    1    2    0    0 -0.71054273576E-14 -0.35527136788E-14 -0.35527136788E-14  0.91188000000E+02  0.91188000000E+02 0.  0.
    9900012    2    3    3    0    0  0.24578099941E+02  0.17202277289E+02  0.21348959233E+02  0.54367090167E+02  0.40000013653E+02 0.  0.
         12    1    3    3    0    0 -0.24578099941E+02 -0.17202277289E+02 -0.21348959233E+02  0.36820909833E+02  0.00000000000E+00 0. -1.
         11    1    4    4    0    0 -0.92301094198E+00 -0.41077659765E+01  0.31559598409E+01  0.52617272159E+01  0.51100000000E-03 0. -1.
        -11    1    4    4    0    0  0.11143761386E+02  0.13530782903E+02  0.25719481292E+02  0.31124865012E+02  0.51100000000E-03 0.  1.
         12    1    4    4    0    0  0.14357349496E+02  0.77792603625E+01 -0.75264819001E+01  0.17980497939E+02  0.00000000000E+00 0. -1.
</event>
<event>
 8    1  0.1269154E-006  0.9118800E+02  0.7816164E-02  0.1184000E+00
        -11   -1    0    0    0    0  0.00000000000E+00  0.00000000000E+00  0.45593999997E+02  0.45594000000E+02  0.51100000000E-03 0.  1.
         11   -1    0    0    0    0 -0.00000000000E+00 -0.00000000000E+00 -0.45593999997E+02  0.45594000000E+02  0.51100000000E-03 0. -1.
         23    2    1    2    0    0  0.88817841970E-15  0.00000000000E+00  0.00000000000E+00  0.91188000000E+02  0.91188000000E+02 0.  0.
    9900012    2    3    3    0    0 -0.52061968595E+01  0.16130329356E+02  0.32687631024E+02  0.54367173925E+02  0.40000204596E+02 0.  0.
         12    1    3    3    0    0  0.52061968595E+01 -0.16130329356E+02 -0.32687631024E+02  0.36820826075E+02  0.00000000000E+00 0. -1.
         11    1    4    4    0    0 -0.30155165680E+01 -0.38698435100E+01 -0.55757915551E+01  0.74268755672E+01  0.51100000000E-03 0. -1.
        -11    1    4    4    0    0  0.26595338006E+01  0.29509147477E+01 -0.79188040897E+00  0.40506904014E+01  0.51100000000E-03 0.  1.
        -12    1    4    4    0    0 -0.48502140921E+01  0.17049258119E+02  0.39055302988E+02  0.42889607956E+02  0.00000000000E+00 0.  1.
</event>
<event>
 8    1  0.1269154E-006  0.9118800E+02  0.7816164E-02  0.1184000E+00
        -11   -1    0    0    0    0  0.00000000000E+00  0.00000000000E+00  0.45593999997E+02  0.45594000000E+02  0.51100000000E-03 0.  1.
         11   -1    0    0    0    0 -0.00000000000E+00 -0.00000000000E+00 -0.45593999997E+02  0.45594000000E+02  0.51100000000E-03 0. -1.
         23    2    1    2    0    0  0.00000000000E+00  0.00000000000E+00  0.44408920985E-15  0.91188000000E+02  0.91188000000E+02 0.  0.
    9900012    2    3    3    0    0  0.24493869822E+02 -0.27286931678E+02  0.33543777747E+01  0.54367107160E+02  0.40000052392E+02 0.  0.
         12    1    3    3    0    0 -0.24493869822E+02  0.27286931678E+02 -0.33543777747E+01  0.36820892840E+02  0.00000000000E+00 0. -1.
         11    1    4    4    0    0  0.12178585966E+02 -0.11671036509E+02 -0.11344231244E+02  0.20327878200E+02  0.51100000000E-03 0. -1.
        -11    1    4    4    0    0  0.15673573227E+02 -0.14307064095E+01  0.49351478581E+01  0.16494347612E+02  0.51100000000E-03 0.  1.
        -12    1    4    4    0    0 -0.33582893708E+01 -0.14185188760E+02  0.97634611609E+01  0.17544881348E+02  0.00000000000E+00 0.  1.
</event>
<event>
 8    1  0.1269154E-006  0.9118800E+02  0.7816164E-02  0.1184000E+00
        -11   -1    0    0    0    0  0.00000000000E+00  0.00000000000E+00  0.45593999997E+02  0.45594000000E+02  0.51100000000E-03 0.  1.
         11   -1    0    0    0    0 -0.00000000000E+00 -0.00000000000E+00 -0.45593999997E+02  0.45594000000E+02  0.51100000000E-03 0. -1.
         23    2    1    2    0    0  0.00000000000E+00 -0.17763568394E-14 -0.71054273576E-14  0.91188000000E+02  0.91188000000E+02 0.  0.
    9900012    2    3    3    0    0 -0.93422342416E+01  0.13868163647E+02 -0.32805137643E+02  0.54367077153E+02  0.39999983985E+02 0.  0.
        -12    1    3    3    0    0  0.93422342416E+01 -0.13868163647E+02  0.32805137643E+02  0.36820922847E+02  0.00000000000E+00 0.  1.
         11    1    4    4    0    0  0.65692963634E+01 -0.30321862646E+01 -0.12404677551E+01  0.73408833777E+01  0.51100000000E-03 0. -1.
        -11    1    4    4    0    0  0.14217843848E+01 -0.31942318305E+01 -0.15750835073E+02  0.16134230493E+02  0.51100000000E-03 0.  1.
         12    1    4    4    0    0 -0.17333314990E+02  0.20094581742E+02 -0.15813834814E+02  0.30891963282E+02  0.00000000000E+00 0. -1.
</event>
<event>
 8    1  0.1269154E-006  0.9118800E+02  0.7816164E-02  0.1184000E+00
        -11   -1    0    0    0    0  0.00000000000E+00  0.00000000000E+00  0.45593999997E+02  0.45594000000E+02  0.51100000000E-03 0. -1.
         11   -1    0    0    0    0 -0.00000000000E+00 -0.00000000000E+00 -0.45593999997E+02  0.45594000000E+02  0.51100000000E-03 0.  1.
         23    2    1    2    0    0 -0.22204460493E-15  0.35527136788E-14  0.00000000000E+00  0.91188000000E+02  0.91188000000E+02 0.  0.
    9900012    2    3    3    0    0 -0.15338320748E+01 -0.16569394564E+02 -0.32846344869E+02  0.54367084092E+02  0.39999999804E+02 0.  0.
         12    1    3    3    0    0  0.15338320748E+01  0.16569394564E+02  0.32846344869E+02  0.36820915908E+02  0.00000000000E+00 0. -1.
         11    1    4    4    0    0  0.47094152353E+00 -0.37287568361E+01  0.67528417431E+01  0.77282782901E+01  0.51100000000E-03 0. -1.
        -11    1    4    4    0    0 -0.84975720362E+01 -0.14685754910E+02 -0.33453670521E+02  0.37510374557E+02  0.51100000000E-03 0.  1.
         12    1    4    4    0    0  0.64927984379E+01  0.18451171818E+01 -0.61455160908E+01  0.91284312448E+01  0.00000000000E+00 0. -1.
</event>
<event>
 8    1  0.1269154E-006  0.9118800E+02  0.7816164E-02  0.1184000E+00
        -11   -1    0    0    0    0  0.00000000000E+00  0.00000000000E+00  0.45593999997E+02  0.45594000000E+02  0.51100000000E-03 0. -1.
         11   -1    0    0    0    0 -0.00000000000E+00 -0.00000000000E+00 -0.45593999997E+02  0.45594000000E+02  0.51100000000E-03 0.  1.
         23    2    1    2    0    0 -0.35527136788E-14  0.17763568394E-14  0.00000000000E+00  0.91188000000E+02  0.91188000000E+02 0.  0.
    9900012    2    3    3    0    0  0.26378972322E+02  0.15602873414E+02  0.20407783758E+02  0.54367116287E+02  0.40000073199E+02 0.  0.
        -12    1    3    3    0    0 -0.26378972322E+02 -0.15602873414E+02 -0.20407783758E+02  0.36820883713E+02  0.00000000000E+00 0.  1.
         11    1    4    4    0    0  0.23086475697E+02  0.18853092779E+02  0.12612622186E+02  0.32365146471E+02  0.51100000000E-03 0. -1.
        -11    1    4    4    0    0 -0.55339007415E-01  0.33127871457E+00 -0.66957680154E+01  0.67041865704E+01  0.51100000000E-03 0.  1.
        -12    1    4    4    0    0  0.33478356328E+01 -0.35814980796E+01  0.14490929587E+02  0.15297783246E+02  0.00000000000E+00 0.  1.
</event>
<event>
 8    1  0.1269154E-006  0.9118800E+02  0.7816164E-02  0.1184000E+00
        -11   -1    0    0    0    0  0.00000000000E+00  0.00000000000E+00  0.45593999997E+02  0.45594000000E+02  0.51100000000E-03 0.  1.
         11   -1    0    0    0    0 -0.00000000000E+00 -0.00000000000E+00 -0.45593999997E+02  0.45594000000E+02  0.51100000000E-03 0. -1.
         23    2    1    2    0    0 -0.35527136788E-14 -0.35527136788E-14  0.35527136788E-14  0.91188000000E+02  0.91188000000E+02 0.  0.
    9900012    2    3    3    0    0  0.18340657019E+02  0.17445029028E+02 -0.26740811193E+02  0.54367085822E+02  0.40000003748E+02 0.  0.
        -12    1    3    3    0    0 -0.18340657019E+02 -0.17445029028E+02  0.26740811193E+02  0.36820914178E+02  0.00000000000E+00 0.  1.
         11    1    4    4    0    0  0.95309410348E+01 -0.77480440772E-01 -0.24165641518E+02  0.25977356880E+02  0.51100000000E-03 0. -1.
        -11    1    4    4    0    0  0.14110445545E+02  0.57420130727E+01 -0.87558645728E-01  0.15234272361E+02  0.51100000000E-03 0.  1.
         12    1    4    4    0    0 -0.53007295609E+01  0.11780496396E+02 -0.24876110291E+01  0.13155456581E+02  0.00000000000E+00 0. -1.
</event>
<event>
 8    1  0.1269154E-006  0.9118800E+02  0.7816164E-02  0.1184000E+00
        -11   -1    0    0    0    0  0.00000000000E+00  0.00000000000E+00  0.45593999997E+02  0.45594000000E+02  0.51100000000E-03 0.  1.
         11   -1    0    0    0    0 -0.00000000000E+00 -0.00000000000E+00 -0.45593999997E+02  0.45594000000E+02  0.51100000000E-03 0. -1.
         23    2    1    2    0    0  0.17763568394E-14  0.00000000000E+00 -0.13322676296E-14  0.91188000000E+02  0.91188000000E+02 0.  0.
    9900012    2    3    3    0    0  0.14072575125E+02  0.33941043609E+02 -0.23939575371E+01  0.54367314990E+02  0.40000526179E+02 0.  0.
        -12    1    3    3    0    0 -0.14072575125E+02 -0.33941043609E+02  0.23939575371E+01  0.36820685010E+02  0.00000000000E+00 0.  1.
         11    1    4    4    0    0  0.30764212450E+01 -0.19835410362E+01 -0.35882059652E+01  0.51258194495E+01  0.51100000000E-03 0. -1.
        -11    1    4    4    0    0  0.23732199369E+01  0.95526516546E+01  0.15240537671E+02  0.18142748283E+02  0.51100000000E-03 0.  1.
        -12    1    4    4    0    0  0.86229339427E+01  0.26371932991E+02 -0.14046289243E+02  0.31098747257E+02  0.00000000000E+00 0.  1.
</event>
<event>
 8    1  0.1269154E-006  0.9118800E+02  0.7816164E-02  0.1184000E+00
        -11   -1    0    0    0    0  0.00000000000E+00  0.00000000000E+00  0.45593999997E+02  0.45594000000E+02  0.51100000000E-03 0. -1.
         11   -1    0    0    0    0 -0.00000000000E+00 -0.00000000000E+00 -0.45593999997E+02  0.45594000000E+02  0.51100000000E-03 0.  1.
         23    2    1    2    0    0 -0.13322676296E-14  0.00000000000E+00  0.00000000000E+00  0.91188000000E+02  0.91188000000E+02 0.  0.
    9900012    2    3    3    0    0 -0.28867336333E+01 -0.34612442286E+02 -0.12223940806E+02  0.54367093969E+02  0.40000022322E+02 0.  0.
         12    1    3    3    0    0  0.28867336333E+01  0.34612442286E+02  0.12223940806E+02  0.36820906031E+02  0.00000000000E+00 0. -1.
         11    1    4    4    0    0  0.48897740956E+01 -0.90847890874E+00 -0.24439368686E+01  0.55414846668E+01  0.51100000000E-03 0. -1.
        -11    1    4    4    0    0  0.42516104997E+01  0.49995020876E+01 -0.44913854716E+01  0.79525943365E+01  0.51100000000E-03 0.  1.
        -12    1    4    4    0    0 -0.12028118229E+02 -0.38703465465E+02 -0.52886184654E+01  0.40873014966E+02  0.00000000000E+00 0.  1.
</event>
<event>
 8    1  0.1269154E-006  0.9118800E+02  0.7816164E-02  0.1184000E+00
        -11   -1    0    0    0    0  0.00000000000E+00  0.00000000000E+00  0.45593999997E+02  0.45594000000E+02  0.51100000000E-03 0.  1.
         11   -1    0    0    0    0 -0.00000000000E+00 -0.00000000000E+00 -0.45593999997E+02  0.45594000000E+02  0.51100000000E-03 0. -1.
         23    2    1    2    0    0  0.26645352591E-14 -0.26645352591E-14  0.71054273576E-14  0.91188000000E+02  0.91188000000E+02 0.  0.
    9900012    2    3    3    0    0 -0.61600319676E+01  0.69070360200E+01 -0.35638840721E+02  0.54367080561E+02  0.39999991754E+02 0.  0.
        -12    1    3    3    0    0  0.61600319676E+01 -0.69070360200E+01  0.35638840721E+02  0.36820919439E+02  0.00000000000E+00 0.  1.
         11    1    4    4    0    0 -0.20135228923E+02  0.66569770542E+01 -0.22899984297E+02  0.31211409266E+02  0.51100000000E-03 0. -1.
        -11    1    4    4    0    0  0.30896907097E+01 -0.59156208581E+01 -0.30790344671E+01  0.73499124028E+01  0.51100000000E-03 0.  1.
        -12    1    4    4    0    0  0.10885506246E+02  0.61656798240E+01 -0.96598219564E+01  0.15805758892E+02  0.00000000000E+00 0.  1.
</event>
<event>
 8    1  0.1269154E-006  0.9118800E+02  0.7816164E-02  0.1184000E+00
        -11   -1    0    0    0    0  0.00000000000E+00  0.00000000000E+00  0.45593999997E+02  0.45594000000E+02  0.51100000000E-03 0.  1.
         11   -1    0    0    0    0 -0.00000000000E+00 -0.00000000000E+00 -0.45593999997E+02  0.45594000000E+02  0.51100000000E-03 0. -1.
         23    2    1    2    0    0  0.00000000000E+00  0.00000000000E+00 -0.17763568394E-14  0.91188000000E+02  0.91188000000E+02 0.  0.
    9900012    2    3    3    0    0 -0.34352497592E+02  0.41291851589E+01  0.12595102522E+02  0.54367070240E+02  0.39999968225E+02 0.  0.
         12    1    3    3    0    0  0.34352497592E+02 -0.41291851589E+01 -0.12595102522E+02  0.36820929760E+02  0.00000000000E+00 0. -1.
         11    1    4    4    0    0 -0.77613379435E+01 -0.64359042453E+01  0.38761771735E+01  0.10802035913E+02  0.51100000000E-03 0.  1.
        -11    1    4    4    0    0  0.18892379622E+01 -0.25317185261E+01 -0.75956327864E+01  0.82263270333E+01  0.51100000000E-03 0. -1.
         12    1    4    4    0    0 -0.28480397611E+02  0.13096807930E+02  0.16314558135E+02  0.35338707293E+02  0.00000000000E+00 0. -1.
</event>
<event>
 8    1  0.1269154E-006  0.9118800E+02  0.7816164E-02  0.1184000E+00
        -11   -1    0    0    0    0  0.00000000000E+00  0.00000000000E+00  0.45593999997E+02  0.45594000000E+02  0.51100000000E-03 0.  1.
         11   -1    0    0    0    0 -0.00000000000E+00 -0.00000000000E+00 -0.45593999997E+02  0.45594000000E+02  0.51100000000E-03 0. -1.
         23    2    1    2    0    0  0.00000000000E+00 -0.88817841970E-15 -0.71054273576E-14  0.91188000000E+02  0.91188000000E+02 0.  0.
    9900012    2    3    3    0    0  0.28680263503E+02  0.72859541150E+01  0.21912026131E+02  0.54367088399E+02  0.40000009623E+02 0.  0.
         12    1    3    3    0    0 -0.28680263503E+02 -0.72859541150E+01 -0.21912026131E+02  0.36820911601E+02  0.00000000000E+00 0. -1.
         11    1    4    4    0    0  0.17503981825E+02  0.28722290246E+01 -0.83477513586E+01  0.19604184051E+02  0.51100000000E-03 0. -1.
        -11    1    4    4    0    0  0.11987731696E+02 -0.47366783095E+00  0.19136402594E+02  0.22586101410E+02  0.51100000000E-03 0.  1.
         12    1    4    4    0    0 -0.81145001784E+00  0.48873929214E+01  0.11123374896E+02  0.12176802938E+02  0.00000000000E+00 0. -1.
</event>
<event>
 8    1  0.1269154E-006  0.9118800E+02  0.7816164E-02  0.1184000E+00
        -11   -1    0    0    0    0  0.00000000000E+00  0.00000000000E+00  0.45593999997E+02  0.45594000000E+02  0.51100000000E-03 0. -1.
         11   -1    0    0    0    0 -0.00000000000E+00 -0.00000000000E+00 -0.45593999997E+02  0.45594000000E+02  0.51100000000E-03 0.  1.
         23    2    1    2    0    0  0.00000000000E+00 -0.17763568394E-14  0.17763568394E-14  0.91188000000E+02  0.91188000000E+02 0.  0.
    9900012    2    3    3    0    0 -0.32134430190E+02  0.98338895053E+01 -0.15048787579E+02  0.54366905583E+02  0.39999592856E+02 0.  0.
        -12    1    3    3    0    0  0.32134430190E+02 -0.98338895053E+01  0.15048787579E+02  0.36821094417E+02  0.00000000000E+00 0.  1.
         11    1    4    4    0    0 -0.12283071359E+02  0.68661681949E+01  0.59532738116E+01  0.15279384052E+02  0.51100000000E-03 0. -1.
        -11    1    4    4    0    0 -0.59052956898E+01 -0.11411848298E+02 -0.95881607777E+01  0.16032330652E+02  0.51100000000E-03 0.  1.
         12    1    4    4    0    0 -0.13946063142E+02  0.14379569608E+02 -0.11413900613E+02  0.23055190879E+02  0.00000000000E+00 0. -1.
</event>
<event>
 8    1  0.1269154E-006  0.9118800E+02  0.7816164E-02  0.1184000E+00
        -11   -1    0    0    0    0  0.00000000000E+00  0.00000000000E+00  0.45593999997E+02  0.45594000000E+02  0.51100000000E-03 0.  1.
         11   -1    0    0    0    0 -0.00000000000E+00 -0.00000000000E+00 -0.45593999997E+02  0.45594000000E+02  0.51100000000E-03 0. -1.
         23    2    1    2    0    0 -0.35527136788E-14  0.00000000000E+00  0.00000000000E+00  0.91188000000E+02  0.91188000000E+02 0.  0.
    9900012    2    3    3    0    0  0.29714555878E+02 -0.20049730215E+02 -0.84162663211E+01  0.54367081333E+02  0.39999993514E+02 0.  0.
        -12    1    3    3    0    0 -0.29714555878E+02  0.20049730215E+02  0.84162663211E+01  0.36820918667E+02  0.00000000000E+00 0.  1.
         11    1    4    4    0    0  0.14299435883E+02 -0.91902459639E+01  0.16625757122E+01  0.17079187502E+02  0.51100000000E-03 0. -1.
        -11    1    4    4    0    0  0.20169485844E+01 -0.12535604472E+02  0.77862281208E+01  0.14894119970E+02  0.51100000000E-03 0.  1.
         12    1    4    4    0    0  0.13398171410E+02  0.16761202204E+01 -0.17865070154E+02  0.22393773861E+02  0.00000000000E+00 0. -1.
</event>
<event>
 8    1  0.1269154E-006  0.9118800E+02  0.7816164E-02  0.1184000E+00
        -11   -1    0    0    0    0  0.00000000000E+00  0.00000000000E+00  0.45593999997E+02  0.45594000000E+02  0.51100000000E-03 0.  1.
         11   -1    0    0    0    0 -0.00000000000E+00 -0.00000000000E+00 -0.45593999997E+02  0.45594000000E+02  0.51100000000E-03 0. -1.
         23    2    1    2    0    0 -0.35527136788E-14  0.66613381478E-15  0.00000000000E+00  0.91188000000E+02  0.91188000000E+02 0.  0.
    9900012    2    3    3    0    0 -0.28194683422E+02  0.17274944159E+01  0.23618963181E+02  0.54367084314E+02  0.40000000311E+02 0.  0.
         12    1    3    3    0    0  0.28194683422E+02 -0.17274944159E+01 -0.23618963181E+02  0.36820915686E+02  0.00000000000E+00 0. -1.
         11    1    4    4    0    0 -0.17730692075E+02  0.53897053475E+01  0.10112040304E+02  0.21111127980E+02  0.51100000000E-03 0. -1.
        -11    1    4    4    0    0 -0.10196023319E+02  0.68902758798E+01  0.17982860640E+02  0.21790320564E+02  0.51100000000E-03 0.  1.
         12    1    4    4    0    0 -0.26796802718E+00 -0.10552486811E+02 -0.44759377632E+01  0.11465635771E+02  0.00000000000E+00 0. -1.
</event>
<event>
 8    1  0.1269154E-006  0.9118800E+02  0.7816164E-02  0.1184000E+00
        -11   -1    0    0    0    0  0.00000000000E+00  0.00000000000E+00  0.45593999997E+02  0.45594000000E+02  0.51100000000E-03 0.  1.
         11   -1    0    0    0    0 -0.00000000000E+00 -0.00000000000E+00 -0.45593999997E+02  0.45594000000E+02  0.51100000000E-03 0. -1.
         23    2    1    2    0    0  0.00000000000E+00  0.44408920985E-15  0.00000000000E+00  0.91188000000E+02  0.91188000000E+02 0.  0.
    9900012    2    3    3    0    0 -0.31474825476E+02 -0.10755450320E+01 -0.19077687461E+02  0.54367087536E+02  0.40000007655E+02 0.  0.
        -12    1    3    3    0    0  0.31474825476E+02  0.10755450320E+01  0.19077687461E+02  0.36820912464E+02  0.00000000000E+00 0.  1.
         11    1    4    4    0    0 -0.13826232479E+02  0.11538610612E+01 -0.26789232225E+02  0.30168842592E+02  0.51100000000E-03 0. -1.
        -11    1    4    4    0    0 -0.76932878607E+01 -0.68526144106E+01 -0.76319081774E+00  0.10330898453E+02  0.51100000000E-03 0.  1.
         12    1    4    4    0    0 -0.99553051358E+01  0.46232083174E+01  0.84747355818E+01  0.13867346490E+02  0.00000000000E+00 0. -1.
</event>
<event>
 8    1  0.1269154E-006  0.9118800E+02  0.7816164E-02  0.1184000E+00
        -11   -1    0    0    0    0  0.00000000000E+00  0.00000000000E+00  0.45593999997E+02  0.45594000000E+02  0.51100000000E-03 0.  1.
         11   -1    0    0    0    0 -0.00000000000E+00 -0.00000000000E+00 -0.45593999997E+02  0.45594000000E+02  0.51100000000E-03 0. -1.
         23    2    1    2    0    0 -0.71054273576E-14  0.00000000000E+00  0.00000000000E+00  0.91188000000E+02  0.91188000000E+02 0.  0.
    9900012    2    3    3    0    0  0.31636248841E+02  0.14646720052E+02  0.11848793296E+02  0.54367183176E+02  0.40000225686E+02 0.  0.
         12    1    3    3    0    0 -0.31636248841E+02 -0.14646720052E+02 -0.11848793296E+02  0.36820816824E+02  0.00000000000E+00 0. -1.
         11    1    4    4    0    0  0.24010943713E+01  0.86207117225E+00  0.20446487781E+01  0.32694051099E+01  0.51100000000E-03 0. -1.
        -11    1    4    4    0    0  0.38250879486E+02  0.14740905869E+02  0.68432963095E+01  0.41560254955E+02  0.51100000000E-03 0.  1.
         12    1    4    4    0    0 -0.90157250155E+01 -0.95625698966E+00  0.29608482084E+01  0.95375231113E+01  0.00000000000E+00 0. -1.
</event>
<event>
 8    1  0.1269154E-006  0.9118800E+02  0.7816164E-02  0.1184000E+00
        -11   -1    0    0    0    0  0.00000000000E+00  0.00000000000E+00  0.45593999997E+02  0.45594000000E+02  0.51100000000E-03 0.  1.
         11   -1    0    0    0    0 -0.00000000000E+00 -0.00000000000E+00 -0.45593999997E+02  0.45594000000E+02  0.51100000000E-03 0. -1.
         23    2    1    2    0    0  0.00000000000E+00 -0.17763568394E-14  0.35527136788E-14  0.91188000000E+02  0.91188000000E+02 0.  0.
    9900012    2    3    3    0    0  0.18479331049E+02 -0.10813653431E+02  0.29955961944E+02  0.54367076159E+02  0.39999981720E+02 0.  0.
         12    1    3    3    0    0 -0.18479331049E+02  0.10813653431E+02 -0.29955961944E+02  0.36820923841E+02  0.00000000000E+00 0. -1.
         11    1    4    4    0    0  0.11737150935E+02  0.76509713908E+01  0.11388681958E+02  0.18055474302E+02  0.51100000000E-03 0. -1.
        -11    1    4    4    0    0  0.19482921291E+01  0.38452233454E+01  0.11719595670E+02  0.12487213770E+02  0.51100000000E-03 0.  1.
         12    1    4    4    0    0  0.47938879846E+01 -0.22309848167E+02  0.68476843160E+01  0.23824388087E+02  0.00000000000E+00 0. -1.
</event>
<event>
 8    1  0.1269154E-006  0.9118800E+02  0.7816164E-02  0.1184000E+00
        -11   -1    0    0    0    0  0.00000000000E+00  0.00000000000E+00  0.45593999997E+02  0.45594000000E+02  0.51100000000E-03 0.  1.
         11   -1    0    0    0    0 -0.00000000000E+00 -0.00000000000E+00 -0.45593999997E+02  0.45594000000E+02  0.51100000000E-03 0. -1.
         23    2    1    2    0    0  0.11102230246E-15  0.00000000000E+00  0.71054273576E-14  0.91188000000E+02  0.91188000000E+02 0.  0.
    9900012    2    3    3    0    0  0.58376198594E+00 -0.88012786367E+01 -0.35748805733E+02  0.54367076668E+02  0.39999982880E+02 0.  0.
        -12    1    3    3    0    0 -0.58376198594E+00  0.88012786367E+01  0.35748805733E+02  0.36820923332E+02  0.00000000000E+00 0.  1.
         11    1    4    4    0    0 -0.14577202078E+01 -0.64732670076E+00 -0.20423120952E+02  0.20485308144E+02  0.51100000000E-03 0. -1.
        -11    1    4    4    0    0 -0.37474213103E+00 -0.85959531403E+01  0.72020398110E+01  0.11220526715E+02  0.51100000000E-03 0.  1.
        -12    1    4    4    0    0  0.24162243248E+01  0.44200120434E+00 -0.22527724592E+02  0.22661241809E+02  0.00000000000E+00 0.  1.
</event>
<event>
 8    1  0.1269154E-006  0.9118800E+02  0.7816164E-02  0.1184000E+00
        -11   -1    0    0    0    0  0.00000000000E+00  0.00000000000E+00  0.45593999997E+02  0.45594000000E+02  0.51100000000E-03 0.  1.
         11   -1    0    0    0    0 -0.00000000000E+00 -0.00000000000E+00 -0.45593999997E+02  0.45594000000E+02  0.51100000000E-03 0. -1.
         23    2    1    2    0    0 -0.35527136788E-14 -0.88817841970E-15  0.35527136788E-14  0.91188000000E+02  0.91188000000E+02 0.  0.
    9900012    2    3    3    0    0 -0.24723977970E+02 -0.50531933496E+01  0.26813596592E+02  0.54367098165E+02  0.40000031887E+02 0.  0.
         12    1    3    3    0    0  0.24723977970E+02  0.50531933496E+01 -0.26813596592E+02  0.36820901835E+02  0.00000000000E+00 0. -1.
         11    1    4    4    0    0  0.13828073295E+01  0.29436333170E+01 -0.59027053949E+01  0.67393667697E+01  0.51100000000E-03 0. -1.
        -11    1    4    4    0    0 -0.35294852741E+01 -0.10279230720E+02  0.54636149446E+01  0.12164330603E+02  0.51100000000E-03 0.  1.
        -12    1    4    4    0    0 -0.22577300026E+02  0.22824040537E+01  0.27252687042E+02  0.35463400792E+02  0.00000000000E+00 0.  1.
</event>
<event>
 8    1  0.1269154E-006  0.9118800E+02  0.7816164E-02  0.1184000E+00
        -11   -1    0    0    0    0  0.00000000000E+00  0.00000000000E+00  0.45593999997E+02  0.45594000000E+02  0.51100000000E-03 0. -1.
         11   -1    0    0    0    0 -0.00000000000E+00 -0.00000000000E+00 -0.45593999997E+02  0.45594000000E+02  0.51100000000E-03 0.  1.
         23    2    1    2    0    0  0.00000000000E+00 -0.88817841970E-15  0.00000000000E+00  0.91188000000E+02  0.91188000000E+02 0.  0.
    9900012    2    3    3    0    0 -0.14225657875E+02  0.55621070352E+01  0.33503341318E+02  0.54367078554E+02  0.39999987180E+02 0.  0.
        -12    1    3    3    0    0  0.14225657875E+02 -0.55621070352E+01 -0.33503341318E+02  0.36820921446E+02  0.00000000000E+00 0.  1.
         11    1    4    4    0    0 -0.99158213378E+01  0.19297398352E+02  0.21882066405E+02  0.30814573280E+02  0.51100000000E-03 0. -1.
        -11    1    4    4    0    0 -0.14689355898E+01 -0.85755075643E+01  0.14566504613E+02  0.16967031522E+02  0.51100000000E-03 0.  1.
         12    1    4    4    0    0 -0.28409009469E+01 -0.51597837529E+01 -0.29452297004E+01  0.65854737532E+01  0.00000000000E+00 0. -1.
</event>
<event>
 8    1  0.1269154E-006  0.9118800E+02  0.7816164E-02  0.1184000E+00
        -11   -1    0    0    0    0  0.00000000000E+00  0.00000000000E+00  0.45593999997E+02  0.45594000000E+02  0.51100000000E-03 0. -1.
         11   -1    0    0    0    0 -0.00000000000E+00 -0.00000000000E+00 -0.45593999997E+02  0.45594000000E+02  0.51100000000E-03 0.  1.
         23    2    1    2    0    0  0.00000000000E+00  0.00000000000E+00  0.00000000000E+00  0.91188000000E+02  0.91188000000E+02 0.  0.
    9900012    2    3    3    0    0 -0.15923730696E+02  0.12380419476E+02  0.30804883100E+02  0.54367071054E+02  0.39999970082E+02 0.  0.
        -12    1    3    3    0    0  0.15923730696E+02 -0.12380419476E+02 -0.30804883100E+02  0.36820928946E+02  0.00000000000E+00 0.  1.
         11    1    4    4    0    0  0.56071895811E+01  0.14856796268E+02  0.26636494103E+02  0.31010768916E+02  0.51100000000E-03 0. -1.
        -11    1    4    4    0    0 -0.15613356087E+02 -0.18009705977E+01 -0.59749646324E+00  0.15728235301E+02  0.51100000000E-03 0.  1.
         12    1    4    4    0    0 -0.59175641902E+01 -0.67540619442E+00  0.47658854593E+01  0.76280668379E+01  0.00000000000E+00 0. -1.
</event>
<event>
 8    1  0.1269154E-006  0.9118800E+02  0.7816164E-02  0.1184000E+00
        -11   -1    0    0    0    0  0.00000000000E+00  0.00000000000E+00  0.45593999997E+02  0.45594000000E+02  0.51100000000E-03 0.  1.
         11   -1    0    0    0    0 -0.00000000000E+00 -0.00000000000E+00 -0.45593999997E+02  0.45594000000E+02  0.51100000000E-03 0. -1.
         23    2    1    2    0    0  0.00000000000E+00 -0.71054273576E-14  0.11102230246E-15  0.91188000000E+02  0.91188000000E+02 0.  0.
    9900012    2    3    3    0    0  0.10263265806E+02 -0.35351567478E+02  0.84393294933E+00  0.54367079711E+02  0.39999989816E+02 0.  0.
         12    1    3    3    0    0 -0.10263265806E+02  0.35351567478E+02 -0.84393294933E+00  0.36820920289E+02  0.00000000000E+00 0. -1.
         11    1    4    4    0    0 -0.40146568365E+01 -0.19745888769E+02  0.48727511874E+01  0.20730684919E+02  0.51100000000E-03 0. -1.
        -11    1    4    4    0    0  0.11395652203E+02 -0.21830824732E+02  0.17198979075E+01  0.24686106349E+02  0.51100000000E-03 0.  1.
         12    1    4    4    0    0  0.28822704389E+01  0.62251460229E+01 -0.57487161456E+01  0.89502884430E+01  0.00000000000E+00 0. -1.
</event>
<event>
 8    1  0.1269154E-006  0.9118800E+02  0.7816164E-02  0.1184000E+00
        -11   -1    0    0    0    0  0.00000000000E+00  0.00000000000E+00  0.45593999997E+02  0.45594000000E+02  0.51100000000E-03 0. -1.
         11   -1    0    0    0    0 -0.00000000000E+00 -0.00000000000E+00 -0.45593999997E+02  0.45594000000E+02  0.51100000000E-03 0.  1.
         23    2    1    2    0    0  0.17763568394E-14  0.00000000000E+00 -0.17763568394E-14  0.91188000000E+02  0.91188000000E+02 0.  0.
    9900012    2    3    3    0    0 -0.14294073392E+02  0.32276071124E+02  0.10474442598E+02  0.54367092229E+02  0.40000018355E+02 0.  0.
        -12    1    3    3    0    0  0.14294073392E+02 -0.32276071124E+02 -0.10474442598E+02  0.36820907771E+02  0.00000000000E+00 0.  1.
         11    1    4    4    0    0 -0.21978169829E+02  0.18111645204E+02  0.19542230341E+02  0.34539403700E+02  0.51100000000E-03 0. -1.
        -11    1    4    4    0    0  0.42680064099E+01  0.91301343755E+01 -0.93356665596E+01  0.13737900233E+02  0.51100000000E-03 0.  1.
         12    1    4    4    0    0  0.34160900270E+01  0.50342915448E+01  0.26787881611E+00  0.60897882961E+01  0.00000000000E+00 0. -1.
</event>
<event>
 8    1  0.1269154E-006  0.9118800E+02  0.7816164E-02  0.1184000E+00
        -11   -1    0    0    0    0  0.00000000000E+00  0.00000000000E+00  0.45593999997E+02  0.45594000000E+02  0.51100000000E-03 0.  1.
         11   -1    0    0    0    0 -0.00000000000E+00 -0.00000000000E+00 -0.45593999997E+02  0.45594000000E+02  0.51100000000E-03 0. -1.
         23    2    1    2    0    0  0.00000000000E+00  0.00000000000E+00  0.88817841970E-15  0.91188000000E+02  0.91188000000E+02 0.  0.
    9900012    2    3    3    0    0  0.36015586834E+02 -0.63111760671E+01 -0.43389525005E+01  0.54367082750E+02  0.39999996746E+02 0.  0.
        -12    1    3    3    0    0 -0.36015586834E+02  0.63111760671E+01  0.43389525005E+01  0.36820917250E+02  0.00000000000E+00 0.  1.
         11    1    4    4    0    0  0.12973166813E+02  0.56215599107E+01  0.52338425732E+01  0.15076408768E+02  0.51100000000E-03 0. -1.
        -11    1    4    4    0    0 -0.35588949884E+01  0.48588981100E+01  0.99676400484E+00  0.61047656077E+01  0.51100000000E-03 0.  1.
         12    1    4    4    0    0  0.26601315009E+02 -0.16791634088E+02 -0.10569559079E+02  0.33185908375E+02  0.00000000000E+00 0. -1.
</event>
<event>
 8    1  0.1269154E-006  0.9118800E+02  0.7816164E-02  0.1184000E+00
        -11   -1    0    0    0    0  0.00000000000E+00  0.00000000000E+00  0.45593999997E+02  0.45594000000E+02  0.51100000000E-03 0.  1.
         11   -1    0    0    0    0 -0.00000000000E+00 -0.00000000000E+00 -0.45593999997E+02  0.45594000000E+02  0.51100000000E-03 0. -1.
         23    2    1    2    0    0  0.00000000000E+00  0.00000000000E+00 -0.22204460493E-15  0.91188000000E+02  0.91188000000E+02 0.  0.
    9900012    2    3    3    0    0 -0.24508872629E+02  0.27408316006E+02  0.19696038990E+01  0.54367082530E+02  0.39999996244E+02 0.  0.
         12    1    3    3    0    0  0.24508872629E+02 -0.27408316006E+02 -0.19696038990E+01  0.36820917470E+02  0.00000000000E+00 0. -1.
         11    1    4    4    0    0 -0.78015090021E+01  0.16297014396E+02 -0.15144711489E+02  0.23575803428E+02  0.51100000000E-03 0. -1.
        -11    1    4    4    0    0 -0.16705316159E+02  0.12847457088E+02  0.97415581586E+01  0.23216862346E+02  0.51100000000E-03 0.  1.
         12    1    4    4    0    0 -0.20474679372E-02 -0.17361554783E+01  0.73727572290E+01  0.75744167561E+01  0.00000000000E+00 0. -1.
</event>
<event>
 8    1  0.1269154E-006  0.9118800E+02  0.7816164E-02  0.1184000E+00
        -11   -1    0    0    0    0  0.00000000000E+00  0.00000000000E+00  0.45593999997E+02  0.45594000000E+02  0.51100000000E-03 0.  1.
         11   -1    0    0    0    0 -0.00000000000E+00 -0.00000000000E+00 -0.45593999997E+02  0.45594000000E+02  0.51100000000E-03 0. -1.
         23    2    1    2    0    0  0.00000000000E+00  0.00000000000E+00  0.88817841970E-15  0.91188000000E+02  0.91188000000E+02 0.  0.
    9900012    2    3    3    0    0 -0.32863618648E+02  0.16185788922E+02 -0.37124642662E+01  0.54367087673E+02  0.40000007968E+02 0.  0.
        -12    1    3    3    0    0  0.32863618648E+02 -0.16185788922E+02  0.37124642662E+01  0.36820912327E+02  0.00000000000E+00 0.  1.
         11    1    4    4    0    0 -0.11522645311E+02  0.17097695225E+02  0.47041701245E+01  0.21147854590E+02  0.51100000000E-03 0. -1.
        -11    1    4    4    0    0 -0.68684437685E+01 -0.62766011251E+01 -0.13996354009E+02  0.16806819071E+02  0.51100000000E-03 0.  1.
        -12    1    4    4    0    0 -0.14472529569E+02  0.53646948226E+01  0.55797196184E+01  0.16412414011E+02  0.00000000000E+00 0.  1.
</event>
<event>
 8    1  0.1269154E-006  0.9118800E+02  0.7816164E-02  0.1184000E+00
        -11   -1    0    0    0    0  0.00000000000E+00  0.00000000000E+00  0.45593999997E+02  0.45594000000E+02  0.51100000000E-03 0. -1.
         11   -1    0    0    0    0 -0.00000000000E+00 -0.00000000000E+00 -0.45593999997E+02  0.45594000000E+02  0.51100000000E-03 0.  1.
         23    2    1    2    0    0  0.17763568394E-14 -0.35527136788E-14  0.00000000000E+00  0.91188000000E+02  0.91188000000E+02 0.  0.
    9900012    2    3    3    0    0 -0.43377110823E+01 -0.29036802168E+02  0.22222249339E+02  0.54367082260E+02  0.39999995628E+02 0.  0.
        -12    1    3    3    0    0  0.43377110823E+01  0.29036802168E+02 -0.22222249339E+02  0.36820917740E+02  0.00000000000E+00 0.  1.
         11    1    4    4    0    0 -0.89432478720E+01 -0.14470208530E+02  0.28176765829E+01  0.17242619261E+02  0.51100000000E-03 0. -1.
        -11    1    4    4    0    0  0.12438342473E+02 -0.69596354323E-02  0.11430331445E+01  0.12490754059E+02  0.51100000000E-03 0.  1.
        -12    1    4    4    0    0 -0.78328056837E+01 -0.14559634002E+02  0.18261539611E+02  0.24633708940E+02  0.00000000000E+00 0.  1.
</event>
<event>
 8    1  0.1269154E-006  0.9118800E+02  0.7816164E-02  0.1184000E+00
        -11   -1    0    0    0    0  0.00000000000E+00  0.00000000000E+00  0.45593999997E+02  0.45594000000E+02  0.51100000000E-03 0. -1.
         11   -1    0    0    0    0 -0.00000000000E+00 -0.00000000000E+00 -0.45593999997E+02  0.45594000000E+02  0.51100000000E-03 0.  1.
         23    2    1    2    0    0  0.00000000000E+00  0.00000000000E+00  0.00000000000E+00  0.91188000000E+02  0.91188000000E+02 0.  0.
    9900012    2    3    3    0    0  0.91705964308E+01  0.29021858464E+02 -0.20722313011E+02  0.54367049929E+02  0.39999921924E+02 0.  0.
         12    1    3    3    0    0 -0.91705964308E+01 -0.29021858464E+02  0.20722313011E+02  0.36820950071E+02  0.00000000000E+00 0. -1.
         11    1    4    4    0    0  0.23220465634E+01  0.13336919636E+02  0.41746670372E+01  0.14166621713E+02  0.51100000000E-03 0. -1.
        -11    1    4    4    0    0  0.11808506899E+02  0.20237843430E+02 -0.23764504181E+02  0.33373084980E+02  0.51100000000E-03 0.  1.
        -12    1    4    4    0    0 -0.49599570317E+01 -0.45529046021E+01 -0.11324758673E+01  0.68273432360E+01  0.00000000000E+00 0.  1.
</event>
<event>
 8    1  0.1269154E-006  0.9118800E+02  0.7816164E-02  0.1184000E+00
        -11   -1    0    0    0    0  0.00000000000E+00  0.00000000000E+00  0.45593999997E+02  0.45594000000E+02  0.51100000000E-03 0. -1.
         11   -1    0    0    0    0 -0.00000000000E+00 -0.00000000000E+00 -0.45593999997E+02  0.45594000000E+02  0.51100000000E-03 0.  1.
         23    2    1    2    0    0  0.35527136788E-14  0.00000000000E+00  0.00000000000E+00  0.91188000000E+02  0.91188000000E+02 0.  0.
    9900012    2    3    3    0    0 -0.94227637695E+01  0.34909405740E+02  0.69516138691E+01  0.54367081740E+02  0.39999994442E+02 0.  0.
         12    1    3    3    0    0  0.94227637695E+01 -0.34909405740E+02 -0.69516138691E+01  0.36820918260E+02  0.00000000000E+00 0. -1.
         11    1    4    4    0    0  0.69921301212E+01  0.14245037195E+02  0.34305431622E+01  0.16235134584E+02  0.51100000000E-03 0. -1.
        -11    1    4    4    0    0 -0.17500659467E+02  0.23189889414E+02  0.10294114087E+02  0.30822278273E+02  0.51100000000E-03 0.  1.
         12    1    4    4    0    0  0.10857655761E+01 -0.25255208698E+01 -0.67730433799E+01  0.73096688828E+01  0.00000000000E+00 0. -1.
</event>
<event>
 8    1  0.1269154E-006  0.9118800E+02  0.7816164E-02  0.1184000E+00
        -11   -1    0    0    0    0  0.00000000000E+00  0.00000000000E+00  0.45593999997E+02  0.45594000000E+02  0.51100000000E-03 0.  1.
         11   -1    0    0    0    0 -0.00000000000E+00 -0.00000000000E+00 -0.45593999997E+02  0.45594000000E+02  0.51100000000E-03 0. -1.
         23    2    1    2    0    0  0.00000000000E+00  0.00000000000E+00  0.00000000000E+00  0.91188000000E+02  0.91188000000E+02 0.  0.
    9900012    2    3    3    0    0 -0.93532862690E+01 -0.35603754695E+02  0.81736613514E+00  0.54367090182E+02  0.40000013689E+02 0.  0.
         12    1    3    3    0    0  0.93532862690E+01  0.35603754695E+02 -0.81736613514E+00  0.36820909818E+02  0.00000000000E+00 0. -1.
         11    1    4    4    0    0 -0.34977641149E+01 -0.54998774386E+01 -0.15651691738E+02  0.16954599970E+02  0.51100000000E-03 0. -1.
        -11    1    4    4    0    0  0.44579987679E+01 -0.11087633284E+02  0.54390986454E+01  0.13129857546E+02  0.51100000000E-03 0.  1.
        -12    1    4    4    0    0 -0.10313520922E+02 -0.19016243972E+02  0.11029959227E+02  0.24282632666E+02  0.00000000000E+00 0.  1.
</event>
<event>
 8    1  0.1269154E-006  0.9118800E+02  0.7816164E-02  0.1184000E+00
        -11   -1    0    0    0    0  0.00000000000E+00  0.00000000000E+00  0.45593999997E+02  0.45594000000E+02  0.51100000000E-03 0.  1.
         11   -1    0    0    0    0 -0.00000000000E+00 -0.00000000000E+00 -0.45593999997E+02  0.45594000000E+02  0.51100000000E-03 0. -1.
         23    2    1    2    0    0  0.00000000000E+00 -0.88817841970E-15  0.00000000000E+00  0.91188000000E+02  0.91188000000E+02 0.  0.
    9900012    2    3    3    0    0 -0.68726943448E+01 -0.23189854424E+01  0.36099437460E+02  0.54367068372E+02  0.39999963968E+02 0.  0.
         12    1    3    3    0    0  0.68726943448E+01  0.23189854424E+01 -0.36099437460E+02  0.36820931628E+02  0.00000000000E+00 0. -1.
         11    1    4    4    0    0  0.12200088104E+02 -0.86377504963E+01  0.60223625953E+01  0.16115884552E+02  0.51100000000E-03 0. -1.
        -11    1    4    4    0    0  0.16781922680E+01 -0.45482037303E+00  0.30416199517E+01  0.35035186673E+01  0.51100000000E-03 0.  1.
         12    1    4    4    0    0 -0.20750974717E+02  0.67735854270E+01  0.27035454913E+02  0.34747665153E+02  0.00000000000E+00 0. -1.
</event>
<event>
 8    1  0.1269154E-006  0.9118800E+02  0.7816164E-02  0.1184000E+00
        -11   -1    0    0    0    0  0.00000000000E+00  0.00000000000E+00  0.45593999997E+02  0.45594000000E+02  0.51100000000E-03 0. -1.
         11   -1    0    0    0    0 -0.00000000000E+00 -0.00000000000E+00 -0.45593999997E+02  0.45594000000E+02  0.51100000000E-03 0.  1.
         23    2    1    2    0    0  0.00000000000E+00  0.00000000000E+00  0.17763568394E-14  0.91188000000E+02  0.91188000000E+02 0.  0.
    9900012    2    3    3    0    0  0.19849790498E+02  0.27940930677E+02 -0.13456220250E+02  0.54367086739E+02  0.40000005839E+02 0.  0.
        -12    1    3    3    0    0 -0.19849790498E+02 -0.27940930677E+02  0.13456220250E+02  0.36820913261E+02  0.00000000000E+00 0.  1.
         11    1    4    4    0    0  0.18944899517E+01  0.45091079952E+01  0.87501678199E+01  0.10024299688E+02  0.51100000000E-03 0. -1.
        -11    1    4    4    0    0 -0.50529946463E+01  0.19576084352E+00 -0.60008284047E+01  0.78473574537E+01  0.51100000000E-03 0.  1.
         12    1    4    4    0    0  0.23008295193E+02  0.23236061839E+02 -0.16205559665E+02  0.36495429598E+02  0.00000000000E+00 0. -1.
</event>
<event>
 8    1  0.1269154E-006  0.9118800E+02  0.7816164E-02  0.1184000E+00
        -11   -1    0    0    0    0  0.00000000000E+00  0.00000000000E+00  0.45593999997E+02  0.45594000000E+02  0.51100000000E-03 0.  1.
         11   -1    0    0    0    0 -0.00000000000E+00 -0.00000000000E+00 -0.45593999997E+02  0.45594000000E+02  0.51100000000E-03 0. -1.
         23    2    1    2    0    0 -0.88817841970E-15  0.00000000000E+00 -0.13322676296E-14  0.91188000000E+02  0.91188000000E+02 0.  0.
    9900012    2    3    3    0    0 -0.27218307654E+01 -0.36551813319E+02 -0.35123032682E+01  0.54367086189E+02  0.40000004585E+02 0.  0.
        -12    1    3    3    0    0  0.27218307654E+01  0.36551813319E+02  0.35123032682E+01  0.36820913811E+02  0.00000000000E+00 0.  1.
         11    1    4    4    0    0 -0.82758171598E+01 -0.27219409846E+02 -0.18466220066E+02  0.33917351102E+02  0.51100000000E-03 0. -1.
        -11    1    4    4    0    0  0.37299130057E+01 -0.10512738092E+02  0.97681555479E+01  0.14827230905E+02  0.51100000000E-03 0.  1.
         12    1    4    4    0    0  0.18240733887E+01  0.11803346188E+01  0.51857612497E+01  0.56225041822E+01  0.00000000000E+00 0. -1.
</event>
<event>
 8    1  0.1269154E-006  0.9118800E+02  0.7816164E-02  0.1184000E+00
        -11   -1    0    0    0    0  0.00000000000E+00  0.00000000000E+00  0.45593999997E+02  0.45594000000E+02  0.51100000000E-03 0. -1.
         11   -1    0    0    0    0 -0.00000000000E+00 -0.00000000000E+00 -0.45593999997E+02  0.45594000000E+02  0.51100000000E-03 0.  1.
         23    2    1    2    0    0  0.17763568394E-14 -0.11102230246E-15  0.00000000000E+00  0.91188000000E+02  0.91188000000E+02 0.  0.
    9900012    2    3    3    0    0 -0.13970035637E+02  0.75578375160E+00 -0.34059352186E+02  0.54367182843E+02  0.40000224926E+02 0.  0.
         12    1    3    3    0    0  0.13970035637E+02 -0.75578375160E+00  0.34059352186E+02  0.36820817157E+02  0.00000000000E+00 0. -1.
         11    1    4    4    0    0  0.98273363199E+01 -0.33316285134E+01 -0.82382452581E+00  0.10409369568E+02  0.51100000000E-03 0.  1.
        -11    1    4    4    0    0 -0.14629733110E+02  0.65425114905E+01 -0.29852449869E+02  0.33882182795E+02  0.51100000000E-03 0. -1.
        -12    1    4    4    0    0 -0.91676388464E+01 -0.24550992255E+01 -0.33830777915E+01  0.10075630480E+02  0.00000000000E+00 0.  1.
</event>
<event>
 8    1  0.1269154E-006  0.9118800E+02  0.7816164E-02  0.1184000E+00
        -11   -1    0    0    0    0  0.00000000000E+00  0.00000000000E+00  0.45593999997E+02  0.45594000000E+02  0.51100000000E-03 0.  1.
         11   -1    0    0    0    0 -0.00000000000E+00 -0.00000000000E+00 -0.45593999997E+02  0.45594000000E+02  0.51100000000E-03 0. -1.
         23    2    1    2    0    0  0.00000000000E+00  0.35527136788E-14  0.35527136788E-14  0.91188000000E+02  0.91188000000E+02 0.  0.
    9900012    2    3    3    0    0  0.87930799801E+01  0.17124688203E+02  0.31388008796E+02  0.54367077989E+02  0.39999985891E+02 0.  0.
         12    1    3    3    0    0 -0.87930799801E+01 -0.17124688203E+02 -0.31388008796E+02  0.36820922011E+02  0.00000000000E+00 0. -1.
         11    1    4    4    0    0  0.12738315043E+02 -0.19019034274E+01  0.11348572356E+01  0.12929416382E+02  0.51100000000E-03 0. -1.
        -11    1    4    4    0    0  0.25919679488E+01  0.18028641065E+01  0.20210446434E+02  0.20455580220E+02  0.51100000000E-03 0.  1.
        -12    1    4    4    0    0 -0.65372030115E+01  0.17223727524E+02  0.10042705127E+02  0.20982081386E+02  0.00000000000E+00 0.  1.
</event>
<event>
 8    1  0.1269154E-006  0.9118800E+02  0.7816164E-02  0.1184000E+00
        -11   -1    0    0    0    0  0.00000000000E+00  0.00000000000E+00  0.45593999997E+02  0.45594000000E+02  0.51100000000E-03 0.  1.
         11   -1    0    0    0    0 -0.00000000000E+00 -0.00000000000E+00 -0.45593999997E+02  0.45594000000E+02  0.51100000000E-03 0. -1.
         23    2    1    2    0    0  0.00000000000E+00  0.22204460493E-15  0.00000000000E+00  0.91188000000E+02  0.91188000000E+02 0.  0.
    9900012    2    3    3    0    0  0.15201257701E+02  0.17593933454E+01  0.33490392060E+02  0.54367081204E+02  0.39999993221E+02 0.  0.
         12    1    3    3    0    0 -0.15201257701E+02 -0.17593933454E+01 -0.33490392060E+02  0.36820918796E+02  0.00000000000E+00 0. -1.
         11    1    4    4    0    0  0.33173000571E+01 -0.12774976791E+02  0.18646158813E+01  0.13329715088E+02  0.51100000000E-03 0. -1.
        -11    1    4    4    0    0  0.11365514155E+02  0.47053277371E+00  0.95268558174E+01  0.14837698445E+02  0.51100000000E-03 0.  1.
         12    1    4    4    0    0  0.51844348867E+00  0.14063837362E+02  0.22098920361E+02  0.26199667672E+02  0.00000000000E+00 0. -1.
</event>
<event>
 8    1  0.1269154E-006  0.9118800E+02  0.7816164E-02  0.1184000E+00
        -11   -1    0    0    0    0  0.00000000000E+00  0.00000000000E+00  0.45593999997E+02  0.45594000000E+02  0.51100000000E-03 0. -1.
         11   -1    0    0    0    0 -0.00000000000E+00 -0.00000000000E+00 -0.45593999997E+02  0.45594000000E+02  0.51100000000E-03 0.  1.
         23    2    1    2    0    0  0.00000000000E+00 -0.44408920985E-15  0.35527136788E-14  0.91188000000E+02  0.91188000000E+02 0.  0.
    9900012    2    3    3    0    0  0.27322132305E+02  0.31581787855E+01 -0.24480737710E+02  0.54367088472E+02  0.40000009789E+02 0.  0.
         12    1    3    3    0    0 -0.27322132305E+02 -0.31581787855E+01  0.24480737710E+02  0.36820911528E+02  0.00000000000E+00 0. -1.
         11    1    4    4    0    0  0.69078212765E+01 -0.73236102999E+01 -0.50758285324E+00  0.10080223372E+02  0.51100000000E-03 0. -1.
        -11    1    4    4    0    0  0.26940103105E+02  0.55516165252E+01 -0.23356541043E+02  0.36084866788E+02  0.51100000000E-03 0.  1.
        -12    1    4    4    0    0 -0.65257920773E+01  0.49301725602E+01 -0.61661381419E+00  0.82019983117E+01  0.00000000000E+00 0.  1.
</event>
<event>
 8    1  0.1269154E-006  0.9118800E+02  0.7816164E-02  0.1184000E+00
        -11   -1    0    0    0    0  0.00000000000E+00  0.00000000000E+00  0.45593999997E+02  0.45594000000E+02  0.51100000000E-03 0.  1.
         11   -1    0    0    0    0 -0.00000000000E+00 -0.00000000000E+00 -0.45593999997E+02  0.45594000000E+02  0.51100000000E-03 0. -1.
         23    2    1    2    0    0  0.00000000000E+00  0.00000000000E+00  0.00000000000E+00  0.91188000000E+02  0.91188000000E+02 0.  0.
    9900012    2    3    3    0    0  0.32547450374E+02 -0.14955088313E+02  0.85316203789E+01  0.54367085582E+02  0.40000003201E+02 0.  0.
         12    1    3    3    0    0 -0.32547450374E+02  0.14955088313E+02 -0.85316203789E+01  0.36820914418E+02  0.00000000000E+00 0. -1.
         11    1    4    4    0    0  0.86129410918E+01  0.51243593893E+01  0.99147127975E+01  0.14097636097E+02  0.51100000000E-03 0. -1.
        -11    1    4    4    0    0  0.41636800626E+01 -0.19996135439E+02  0.29703394003E+00  0.20427185160E+02  0.51100000000E-03 0.  1.
        -12    1    4    4    0    0  0.19770829219E+02 -0.83312263608E-01 -0.16801263587E+01  0.19842264325E+02  0.00000000000E+00 0.  1.
</event>
<event>
 8    1  0.1269154E-006  0.9118800E+02  0.7816164E-02  0.1184000E+00
        -11   -1    0    0    0    0  0.00000000000E+00  0.00000000000E+00  0.45593999997E+02  0.45594000000E+02  0.51100000000E-03 0.  1.
         11   -1    0    0    0    0 -0.00000000000E+00 -0.00000000000E+00 -0.45593999997E+02  0.45594000000E+02  0.51100000000E-03 0. -1.
         23    2    1    2    0    0  0.35527136788E-14  0.88817841970E-15  0.35527136788E-14  0.91188000000E+02  0.91188000000E+02 0.  0.
    9900012    2    3    3    0    0 -0.26492313998E+02 -0.70941116522E+01 -0.24568490170E+02  0.54367084336E+02  0.40000000360E+02 0.  0.
        -12    1    3    3    0    0  0.26492313998E+02  0.70941116522E+01  0.24568490170E+02  0.36820915664E+02  0.00000000000E+00 0.  1.
         11    1    4    4    0    0 -0.10780209007E+02 -0.73426537246E+01 -0.10129226933E+02  0.16514499946E+02  0.51100000000E-03 0. -1.
        -11    1    4    4    0    0  0.72121784034E+01 -0.70701428288E+01 -0.81559438406E+01  0.12981596864E+02  0.51100000000E-03 0.  1.
        -12    1    4    4    0    0 -0.22924283395E+02  0.73186849012E+01 -0.62833193965E+01  0.24870987525E+02  0.00000000000E+00 0.  1.
</event>
<event>
 8    1  0.1269154E-006  0.9118800E+02  0.7816164E-02  0.1184000E+00
        -11   -1    0    0    0    0  0.00000000000E+00  0.00000000000E+00  0.45593999997E+02  0.45594000000E+02  0.51100000000E-03 0.  1.
         11   -1    0    0    0    0 -0.00000000000E+00 -0.00000000000E+00 -0.45593999997E+02  0.45594000000E+02  0.51100000000E-03 0. -1.
         23    2    1    2    0    0 -0.16653345369E-15  0.00000000000E+00  0.00000000000E+00  0.91188000000E+02  0.91188000000E+02 0.  0.
    9900012    2    3    3    0    0  0.25184315647E+00  0.26908517138E+02  0.25132614268E+02  0.54367081768E+02  0.39999994506E+02 0.  0.
         12    1    3    3    0    0 -0.25184315647E+00 -0.26908517138E+02 -0.25132614268E+02  0.36820918232E+02  0.00000000000E+00 0. -1.
         11    1    4    4    0    0 -0.55523621230E+00  0.12254933597E+02 -0.97992044977E+01  0.15700830989E+02  0.51100000000E-03 0. -1.
        -11    1    4    4    0    0 -0.14745565307E+01  0.91482640489E+01  0.13170175999E+02  0.16103371951E+02  0.51100000000E-03 0.  1.
         12    1    4    4    0    0  0.22816358995E+01  0.55053194920E+01  0.21761642767E+02  0.22562878828E+02  0.00000000000E+00 0. -1.
</event>
<event>
 8    1  0.1269154E-006  0.9118800E+02  0.7816164E-02  0.1184000E+00
        -11   -1    0    0    0    0  0.00000000000E+00  0.00000000000E+00  0.45593999997E+02  0.45594000000E+02  0.51100000000E-03 0.  1.
         11   -1    0    0    0    0 -0.00000000000E+00 -0.00000000000E+00 -0.45593999997E+02  0.45594000000E+02  0.51100000000E-03 0. -1.
         23    2    1    2    0    0 -0.17763568394E-14 -0.35527136788E-14 -0.17763568394E-14  0.91188000000E+02  0.91188000000E+02 0.  0.
    9900012    2    3    3    0    0 -0.12123847826E+02  0.31406316444E+02  0.14914279148E+02  0.54367080387E+02  0.39999991358E+02 0.  0.
         12    1    3    3    0    0  0.12123847826E+02 -0.31406316444E+02 -0.14914279148E+02  0.36820919613E+02  0.00000000000E+00 0. -1.
         11    1    4    4    0    0 -0.42502439722E+01  0.27930786925E+02 -0.34821438579E+01  0.28466098401E+02  0.51100000000E-03 0. -1.
        -11    1    4    4    0    0 -0.13989933200E+01 -0.68195708046E+00  0.18135399550E+02  0.18202059358E+02  0.51100000000E-03 0.  1.
         12    1    4    4    0    0 -0.64746105334E+01  0.41574865992E+01  0.26102345541E+00  0.76989226276E+01  0.00000000000E+00 0. -1.
</event>
<event>
 8    1  0.1269154E-006  0.9118800E+02  0.7816164E-02  0.1184000E+00
        -11   -1    0    0    0    0  0.00000000000E+00  0.00000000000E+00  0.45593999997E+02  0.45594000000E+02  0.51100000000E-03 0.  1.
         11   -1    0    0    0    0 -0.00000000000E+00 -0.00000000000E+00 -0.45593999997E+02  0.45594000000E+02  0.51100000000E-03 0. -1.
         23    2    1    2    0    0  0.44408920985E-15  0.35527136788E-14 -0.35527136788E-14  0.91188000000E+02  0.91188000000E+02 0.  0.
    9900012    2    3    3    0    0  0.24317975684E+01  0.29212286633E+02  0.22282471049E+02  0.54367084126E+02  0.39999999883E+02 0.  0.
         12    1    3    3    0    0 -0.24317975684E+01 -0.29212286633E+02 -0.22282471049E+02  0.36820915874E+02  0.00000000000E+00 0. -1.
         11    1    4    4    0    0  0.81281872441E+01 -0.22875258841E+01  0.59586826823E+01  0.10334703775E+02  0.51100000000E-03 0. -1.
        -11    1    4    4    0    0 -0.13152941293E+02  0.24467913895E+02  0.18731054365E+02  0.33504194856E+02  0.51100000000E-03 0.  1.
         12    1    4    4    0    0  0.74565516171E+01  0.70318986218E+01 -0.24072659985E+01  0.10528185496E+02  0.00000000000E+00 0. -1.
</event>
<event>
 8    1  0.1269154E-006  0.9118800E+02  0.7816164E-02  0.1184000E+00
        -11   -1    0    0    0    0  0.00000000000E+00  0.00000000000E+00  0.45593999997E+02  0.45594000000E+02  0.51100000000E-03 0. -1.
         11   -1    0    0    0    0 -0.00000000000E+00 -0.00000000000E+00 -0.45593999997E+02  0.45594000000E+02  0.51100000000E-03 0.  1.
         23    2    1    2    0    0  0.71054273576E-14  0.53290705182E-14  0.17763568394E-14  0.91188000000E+02  0.91188000000E+02 0.  0.
    9900012    2    3    3    0    0  0.34240789025E+02  0.91215014444E+01  0.10007327932E+02  0.54367081571E+02  0.39999994056E+02 0.  0.
         12    1    3    3    0    0 -0.34240789025E+02 -0.91215014444E+01 -0.10007327932E+02  0.36820918429E+02  0.00000000000E+00 0. -1.
         11    1    4    4    0    0  0.67989806959E+01 -0.78011571426E+01  0.44849086598E+01  0.11278235554E+02  0.51100000000E-03 0. -1.
        -11    1    4    4    0    0  0.21127400436E+02 -0.23183098294E+01 -0.23034962327E+01  0.21378674066E+02  0.51100000000E-03 0.  1.
         12    1    4    4    0    0  0.63144078930E+01  0.19240968416E+02  0.78259155054E+01  0.21710171951E+02  0.00000000000E+00 0. -1.
</event>
<event>
 8    1  0.1269154E-006  0.9118800E+02  0.7816164E-02  0.1184000E+00
        -11   -1    0    0    0    0  0.00000000000E+00  0.00000000000E+00  0.45593999997E+02  0.45594000000E+02  0.51100000000E-03 0. -1.
         11   -1    0    0    0    0 -0.00000000000E+00 -0.00000000000E+00 -0.45593999997E+02  0.45594000000E+02  0.51100000000E-03 0.  1.
         23    2    1    2    0    0 -0.35527136788E-14  0.00000000000E+00  0.26645352591E-14  0.91188000000E+02  0.91188000000E+02 0.  0.
    9900012    2    3    3    0    0 -0.31790573453E+02  0.16818087744E+02 -0.78923246061E+01  0.54367117019E+02  0.40000074868E+02 0.  0.
        -12    1    3    3    0    0  0.31790573453E+02 -0.16818087744E+02  0.78923246061E+01  0.36820882981E+02  0.00000000000E+00 0.  1.
         11    1    4    4    0    0 -0.36741813709E+02  0.15845743387E+02  0.14679340587E+01  0.40040021088E+02  0.51100000000E-03 0. -1.
        -11    1    4    4    0    0  0.33727361430E+00 -0.39598435448E+01 -0.45151667740E+01  0.60150515915E+01  0.51100000000E-03 0.  1.
         12    1    4    4    0    0  0.46139666418E+01  0.49321879012E+01 -0.48450918908E+01  0.83120443391E+01  0.00000000000E+00 0. -1.
</event>
<event>
 8    1  0.1269154E-006  0.9118800E+02  0.7816164E-02  0.1184000E+00
        -11   -1    0    0    0    0  0.00000000000E+00  0.00000000000E+00  0.45593999997E+02  0.45594000000E+02  0.51100000000E-03 0.  1.
         11   -1    0    0    0    0 -0.00000000000E+00 -0.00000000000E+00 -0.45593999997E+02  0.45594000000E+02  0.51100000000E-03 0. -1.
         23    2    1    2    0    0  0.35527136788E-14 -0.35527136788E-14  0.00000000000E+00  0.91188000000E+02  0.91188000000E+02 0.  0.
    9900012    2    3    3    0    0 -0.20215201853E+02  0.25292961350E+02  0.17532610782E+02  0.54367072246E+02  0.39999972800E+02 0.  0.
         12    1    3    3    0    0  0.20215201853E+02 -0.25292961350E+02 -0.17532610782E+02  0.36820927754E+02  0.00000000000E+00 0. -1.
         11    1    4    4    0    0 -0.11578377108E+02  0.21055557498E+02  0.19024636133E+02  0.30648525222E+02  0.51100000000E-03 0.  1.
        -11    1    4    4    0    0 -0.99867852924E+01  0.67051013329E+01  0.75816763168E+01  0.14218863541E+02  0.51100000000E-03 0. -1.
         12    1    4    4    0    0  0.13499605473E+01 -0.24676974816E+01 -0.90737016675E+01  0.94996834837E+01  0.00000000000E+00 0. -1.
</event>
<event>
 8    1  0.1269154E-006  0.9118800E+02  0.7816164E-02  0.1184000E+00
        -11   -1    0    0    0    0  0.00000000000E+00  0.00000000000E+00  0.45593999997E+02  0.45594000000E+02  0.51100000000E-03 0.  1.
         11   -1    0    0    0    0 -0.00000000000E+00 -0.00000000000E+00 -0.45593999997E+02  0.45594000000E+02  0.51100000000E-03 0. -1.
         23    2    1    2    0    0  0.71054273576E-14  0.17763568394E-14 -0.88817841970E-15  0.91188000000E+02  0.91188000000E+02 0.  0.
    9900012    2    3    3    0    0  0.35374849456E+02  0.86894076036E+01 -0.53753317201E+01  0.54367082445E+02  0.39999996049E+02 0.  0.
        -12    1    3    3    0    0 -0.35374849456E+02 -0.86894076036E+01  0.53753317201E+01  0.36820917555E+02  0.00000000000E+00 0.  1.
         11    1    4    4    0    0  0.12837556363E+02 -0.51938389489E+01  0.36265567108E+01  0.14315401854E+02  0.51100000000E-03 0. -1.
        -11    1    4    4    0    0  0.21081115786E+02 -0.27446140152E+01 -0.96519729157E+01  0.23347525143E+02  0.51100000000E-03 0.  1.
        -12    1    4    4    0    0  0.14561773073E+01  0.16627860568E+02  0.65008448483E+00  0.16704155448E+02  0.00000000000E+00 0.  1.
</event>
<event>
 8    1  0.1269154E-006  0.9118800E+02  0.7816164E-02  0.1184000E+00
        -11   -1    0    0    0    0  0.00000000000E+00  0.00000000000E+00  0.45593999997E+02  0.45594000000E+02  0.51100000000E-03 0.  1.
         11   -1    0    0    0    0 -0.00000000000E+00 -0.00000000000E+00 -0.45593999997E+02  0.45594000000E+02  0.51100000000E-03 0. -1.
         23    2    1    2    0    0  0.35527136788E-14  0.35527136788E-14  0.88817841970E-15  0.91188000000E+02  0.91188000000E+02 0.  0.
    9900012    2    3    3    0    0  0.28837590681E+02  0.21542394306E+02  0.77523670111E+01  0.54367074115E+02  0.39999977060E+02 0.  0.
         12    1    3    3    0    0 -0.28837590681E+02 -0.21542394306E+02 -0.77523670111E+01  0.36820925885E+02  0.00000000000E+00 0. -1.
         11    1    4    4    0    0  0.44821221566E+01  0.19034383726E+01 -0.60440313463E+01  0.77616243043E+01  0.51100000000E-03 0. -1.
        -11    1    4    4    0    0  0.17448761862E+02  0.26944894158E+01 -0.69216699099E+01  0.18963888797E+02  0.51100000000E-03 0.  1.
        -12    1    4    4    0    0  0.69067066631E+01  0.16944466518E+02  0.20718068267E+02  0.27641561013E+02  0.00000000000E+00 0.  1.
</event>
<event>
 8    1  0.1269154E-006  0.9118800E+02  0.7816164E-02  0.1184000E+00
        -11   -1    0    0    0    0  0.00000000000E+00  0.00000000000E+00  0.45593999997E+02  0.45594000000E+02  0.51100000000E-03 0.  1.
         11   -1    0    0    0    0 -0.00000000000E+00 -0.00000000000E+00 -0.45593999997E+02  0.45594000000E+02  0.51100000000E-03 0. -1.
         23    2    1    2    0    0  0.00000000000E+00  0.00000000000E+00 -0.88817841970E-15  0.91188000000E+02  0.91188000000E+02 0.  0.
    9900012    2    3    3    0    0  0.35385657705E+02 -0.74311367106E+01  0.69577504861E+01  0.54367124727E+02  0.40000092441E+02 0.  0.
        -12    1    3    3    0    0 -0.35385657705E+02  0.74311367106E+01 -0.69577504861E+01  0.36820875273E+02  0.00000000000E+00 0.  1.
         11    1    4    4    0    0  0.15632194190E+00 -0.33140338671E+01  0.13473967030E+02  0.13876420461E+02  0.51100000000E-03 0.  1.
        -11    1    4    4    0    0  0.45637867653E+01 -0.45009093687E+00  0.56673448193E+01  0.72903723535E+01  0.51100000000E-03 0. -1.
         12    1    4    4    0    0  0.30665548998E+02 -0.36670119067E+01 -0.12183561363E+02  0.33200331913E+02  0.00000000000E+00 0. -1.
</event>
<event>
 8    1  0.1269154E-006  0.9118800E+02  0.7816164E-02  0.1184000E+00
        -11   -1    0    0    0    0  0.00000000000E+00  0.00000000000E+00  0.45593999997E+02  0.45594000000E+02  0.51100000000E-03 0. -1.
         11   -1    0    0    0    0 -0.00000000000E+00 -0.00000000000E+00 -0.45593999997E+02  0.45594000000E+02  0.51100000000E-03 0.  1.
         23    2    1    2    0    0  0.71054273576E-14  0.88817841970E-15  0.17763568394E-14  0.91188000000E+02  0.91188000000E+02 0.  0.
    9900012    2    3    3    0    0 -0.33371899388E+02 -0.70426160802E+01  0.13874317645E+02  0.54367098325E+02  0.40000032252E+02 0.  0.
        -12    1    3    3    0    0  0.33371899388E+02  0.70426160802E+01 -0.13874317645E+02  0.36820901675E+02  0.00000000000E+00 0.  1.
         11    1    4    4    0    0 -0.19852203290E+01  0.42936976079E+01 -0.21448783813E+01  0.51939813664E+01  0.51100000000E-03 0. -1.
        -11    1    4    4    0    0  0.52703268513E+00 -0.11670274559E+02 -0.29461115839E+01  0.12047931169E+02  0.51100000000E-03 0.  1.
         12    1    4    4    0    0 -0.31913711744E+02  0.33396087068E+00  0.18965307610E+02  0.37125185790E+02  0.00000000000E+00 0. -1.
</event>
<event>
 8    1  0.1269154E-006  0.9118800E+02  0.7816164E-02  0.1184000E+00
        -11   -1    0    0    0    0  0.00000000000E+00  0.00000000000E+00  0.45593999997E+02  0.45594000000E+02  0.51100000000E-03 0.  1.
         11   -1    0    0    0    0 -0.00000000000E+00 -0.00000000000E+00 -0.45593999997E+02  0.45594000000E+02  0.51100000000E-03 0. -1.
         23    2    1    2    0    0 -0.17763568394E-14  0.00000000000E+00  0.35527136788E-14  0.91188000000E+02  0.91188000000E+02 0.  0.
    9900012    2    3    3    0    0 -0.79607187280E+01  0.30535277402E+02 -0.18973723909E+02  0.54367103655E+02  0.40000044403E+02 0.  0.
        -12    1    3    3    0    0  0.79607187280E+01 -0.30535277402E+02  0.18973723909E+02  0.36820896345E+02  0.00000000000E+00 0.  1.
         11    1    4    4    0    0 -0.17934554422E+02  0.18507608865E+02 -0.24391181339E+02  0.35483933767E+02  0.51100000000E-03 0. -1.
        -11    1    4    4    0    0  0.32239491707E+01 -0.33231962049E+00  0.33290843927E+01  0.46461906698E+01  0.51100000000E-03 0.  1.
        -12    1    4    4    0    0  0.67498865230E+01  0.12359988157E+02  0.20883730377E+01  0.14236979218E+02  0.00000000000E+00 0.  1.
</event>
<event>
 8    1  0.1269154E-006  0.9118800E+02  0.7816164E-02  0.1184000E+00
        -11   -1    0    0    0    0  0.00000000000E+00  0.00000000000E+00  0.45593999997E+02  0.45594000000E+02  0.51100000000E-03 0. -1.
         11   -1    0    0    0    0 -0.00000000000E+00 -0.00000000000E+00 -0.45593999997E+02  0.45594000000E+02  0.51100000000E-03 0.  1.
         23    2    1    2    0    0  0.00000000000E+00 -0.17763568394E-14  0.00000000000E+00  0.91188000000E+02  0.91188000000E+02 0.  0.
    9900012    2    3    3    0    0  0.29977145907E+02  0.13407678133E+02 -0.16654875346E+02  0.54367082271E+02  0.39999995653E+02 0.  0.
         12    1    3    3    0    0 -0.29977145907E+02 -0.13407678133E+02  0.16654875346E+02  0.36820917729E+02  0.00000000000E+00 0. -1.
         11    1    4    4    0    0  0.15457297867E+02  0.11843451264E+02 -0.13061666186E+01  0.19516697126E+02  0.51100000000E-03 0. -1.
        -11    1    4    4    0    0  0.18232088255E+02  0.80322429832E+01 -0.26154155594E+01  0.20093938596E+02  0.51100000000E-03 0.  1.
         12    1    4    4    0    0 -0.37122402159E+01 -0.64680161140E+01 -0.12733293168E+02  0.14756446549E+02  0.00000000000E+00 0. -1.
</event>
<event>
 8    1  0.1269154E-006  0.9118800E+02  0.7816164E-02  0.1184000E+00
        -11   -1    0    0    0    0  0.00000000000E+00  0.00000000000E+00  0.45593999997E+02  0.45594000000E+02  0.51100000000E-03 0.  1.
         11   -1    0    0    0    0 -0.00000000000E+00 -0.00000000000E+00 -0.45593999997E+02  0.45594000000E+02  0.51100000000E-03 0. -1.
         23    2    1    2    0    0 -0.71054273576E-14  0.00000000000E+00  0.00000000000E+00  0.91188000000E+02  0.91188000000E+02 0.  0.
    9900012    2    3    3    0    0 -0.35042296067E+02  0.43238342127E+01 -0.10445525234E+02  0.54367257838E+02  0.40000395891E+02 0.  0.
        -12    1    3    3    0    0  0.35042296067E+02 -0.43238342127E+01  0.10445525234E+02  0.36820742162E+02  0.00000000000E+00 0.  1.
         11    1    4    4    0    0 -0.38184385833E+02  0.41364585726E+01 -0.26508398366E+01  0.38499150161E+02  0.51100000000E-03 0. -1.
        -11    1    4    4    0    0 -0.12592035255E+01 -0.59181497299E+01 -0.20111746386E+01  0.63761205629E+01  0.51100000000E-03 0.  1.
        -12    1    4    4    0    0  0.44012932918E+01  0.61055253700E+01 -0.57835107590E+01  0.94919871146E+01  0.00000000000E+00 0.  1.
</event>
<event>
 8    1  0.1269154E-006  0.9118800E+02  0.7816164E-02  0.1184000E+00
        -11   -1    0    0    0    0  0.00000000000E+00  0.00000000000E+00  0.45593999997E+02  0.45594000000E+02  0.51100000000E-03 0.  1.
         11   -1    0    0    0    0 -0.00000000000E+00 -0.00000000000E+00 -0.45593999997E+02  0.45594000000E+02  0.51100000000E-03 0. -1.
         23    2    1    2    0    0 -0.35527136788E-14  0.88817841970E-15  0.00000000000E+00  0.91188000000E+02  0.91188000000E+02 0.  0.
    9900012    2    3    3    0    0  0.24668321263E+02  0.52951746035E+01 -0.26818190465E+02  0.54367078123E+02  0.39999986197E+02 0.  0.
        -12    1    3    3    0    0 -0.24668321263E+02 -0.52951746035E+01  0.26818190465E+02  0.36820921877E+02  0.00000000000E+00 0.  1.
         11    1    4    4    0    0  0.33867179389E+01  0.37564416841E+01 -0.70288106027E+00  0.51063445408E+01  0.51100000000E-03 0. -1.
        -11    1    4    4    0    0  0.78746935879E+01  0.18295291199E+02 -0.92219494465E+01  0.21949324158E+02  0.51100000000E-03 0.  1.
        -12    1    4    4    0    0  0.13406909737E+02 -0.16756558279E+02 -0.16893359958E+02  0.27311409424E+02  0.00000000000E+00 0.  1.
</event>
<event>
 8    1  0.1269154E-006  0.9118800E+02  0.7816164E-02  0.1184000E+00
        -11   -1    0    0    0    0  0.00000000000E+00  0.00000000000E+00  0.45593999997E+02  0.45594000000E+02  0.51100000000E-03 0.  1.
         11   -1    0    0    0    0 -0.00000000000E+00 -0.00000000000E+00 -0.45593999997E+02  0.45594000000E+02  0.51100000000E-03 0. -1.
         23    2    1    2    0    0 -0.71054273576E-14  0.17763568394E-14  0.35527136788E-14  0.91188000000E+02  0.91188000000E+02 0.  0.
    9900012    2    3    3    0    0  0.16293912182E+02  0.12900042632E+02 -0.30395344802E+02  0.54367086653E+02  0.40000005643E+02 0.  0.
        -12    1    3    3    0    0 -0.16293912182E+02 -0.12900042632E+02  0.30395344802E+02  0.36820913347E+02  0.00000000000E+00 0.  1.
         11    1    4    4    0    0 -0.76209367036E+01 -0.31108330090E+01  0.13300183850E+01  0.83381597140E+01  0.51100000000E-03 0. -1.
        -11    1    4    4    0    0 -0.25566756497E+01  0.26375482616E+01 -0.39830153549E+01  0.54182711992E+01  0.51100000000E-03 0.  1.
         12    1    4    4    0    0  0.26471524535E+02  0.13373327379E+02 -0.27742347832E+02  0.40610655740E+02  0.00000000000E+00 0. -1.
</event>
<event>
 8    1  0.1269154E-006  0.9118800E+02  0.7816164E-02  0.1184000E+00
        -11   -1    0    0    0    0  0.00000000000E+00  0.00000000000E+00  0.45593999997E+02  0.45594000000E+02  0.51100000000E-03 0.  1.
         11   -1    0    0    0    0 -0.00000000000E+00 -0.00000000000E+00 -0.45593999997E+02  0.45594000000E+02  0.51100000000E-03 0. -1.
         23    2    1    2    0    0  0.00000000000E+00  0.88817841970E-15  0.00000000000E+00  0.91188000000E+02  0.91188000000E+02 0.  0.
    9900012    2    3    3    0    0  0.21239436665E+01  0.53518388359E+01 -0.36367920465E+02  0.54367096229E+02  0.40000027472E+02 0.  0.
        -12    1    3    3    0    0 -0.21239436665E+01 -0.53518388359E+01  0.36367920465E+02  0.36820903771E+02  0.00000000000E+00 0.  1.
         11    1    4    4    0    0  0.10128249238E+02 -0.13383281480E+02 -0.22851643403E+02  0.28352976251E+02  0.51100000000E-03 0. -1.
        -11    1    4    4    0    0 -0.63975985946E+01  0.83124170880E+01 -0.25395881509E+01  0.10792360903E+02  0.51100000000E-03 0.  1.
         12    1    4    4    0    0 -0.16067069767E+01  0.10422703228E+02 -0.10976688911E+02  0.15221759075E+02  0.00000000000E+00 0. -1.
</event>
<event>
 8    1  0.1269154E-006  0.9118800E+02  0.7816164E-02  0.1184000E+00
        -11   -1    0    0    0    0  0.00000000000E+00  0.00000000000E+00  0.45593999997E+02  0.45594000000E+02  0.51100000000E-03 0. -1.
         11   -1    0    0    0    0 -0.00000000000E+00 -0.00000000000E+00 -0.45593999997E+02  0.45594000000E+02  0.51100000000E-03 0.  1.
         23    2    1    2    0    0  0.27755575616E-15  0.35527136788E-14  0.00000000000E+00  0.91188000000E+02  0.91188000000E+02 0.  0.
    9900012    2    3    3    0    0  0.43178352369E+00  0.30269866572E+02 -0.20960333209E+02  0.54366989319E+02  0.39999783750E+02 0.  0.
         12    1    3    3    0    0 -0.43178352369E+00 -0.30269866572E+02  0.20960333209E+02  0.36821010681E+02  0.00000000000E+00 0. -1.
         11    1    4    4    0    0 -0.24886890849E+01  0.19736171886E+02  0.68903732256E+00  0.19904392148E+02  0.51100000000E-03 0. -1.
        -11    1    4    4    0    0  0.26470916115E+01  0.17223700405E+02 -0.21618041442E+02  0.27766934755E+02  0.51100000000E-03 0.  1.
        -12    1    4    4    0    0  0.27338099713E+00 -0.66900057185E+01 -0.31329089576E-01  0.66956624165E+01  0.00000000000E+00 0.  1.
</event>
<event>
 8    1  0.1269154E-006  0.9118800E+02  0.7816164E-02  0.1184000E+00
        -11   -1    0    0    0    0  0.00000000000E+00  0.00000000000E+00  0.45593999997E+02  0.45594000000E+02  0.51100000000E-03 0.  1.
         11   -1    0    0    0    0 -0.00000000000E+00 -0.00000000000E+00 -0.45593999997E+02  0.45594000000E+02  0.51100000000E-03 0. -1.
         23    2    1    2    0    0  0.17763568394E-14  0.00000000000E+00  0.71054273576E-14  0.91188000000E+02  0.91188000000E+02 0.  0.
    9900012    2    3    3    0    0  0.14401514124E+02 -0.14831608102E+02  0.30469582699E+02  0.54367140724E+02  0.40000128909E+02 0.  0.
         12    1    3    3    0    0 -0.14401514124E+02  0.14831608102E+02 -0.30469582699E+02  0.36820859276E+02  0.00000000000E+00 0. -1.
         11    1    4    4    0    0  0.43111685524E+01 -0.20105791380E+02  0.28332866944E+00  0.20564758611E+02  0.51100000000E-03 0. -1.
        -11    1    4    4    0    0  0.61977398152E+01  0.81600254691E+01  0.18437660714E+02  0.21093727204E+02  0.51100000000E-03 0.  1.
         12    1    4    4    0    0  0.38926057567E+01 -0.28858421906E+01  0.11748593316E+02  0.12708654910E+02  0.00000000000E+00 0. -1.
</event>
<event>
 8    1  0.1269154E-006  0.9118800E+02  0.7816164E-02  0.1184000E+00
        -11   -1    0    0    0    0  0.00000000000E+00  0.00000000000E+00  0.45593999997E+02  0.45594000000E+02  0.51100000000E-03 0.  1.
         11   -1    0    0    0    0 -0.00000000000E+00 -0.00000000000E+00 -0.45593999997E+02  0.45594000000E+02  0.51100000000E-03 0. -1.
         23    2    1    2    0    0  0.55511151231E-15  0.35527136788E-14  0.00000000000E+00  0.91188000000E+02  0.91188000000E+02 0.  0.
    9900012    2    3    3    0    0  0.67551242523E+00  0.27199615661E+02  0.24809365336E+02  0.54367081794E+02  0.39999994566E+02 0.  0.
         12    1    3    3    0    0 -0.67551242523E+00 -0.27199615661E+02 -0.24809365336E+02  0.36820918206E+02  0.00000000000E+00 0. -1.
         11    1    4    4    0    0 -0.62082305148E+01  0.17192345034E+01  0.10442404751E+02  0.12269544027E+02  0.51100000000E-03 0. -1.
        -11    1    4    4    0    0 -0.10883383679E+02  0.75274773528E+01  0.97108243289E+01  0.16413746221E+02  0.51100000000E-03 0.  1.
        -12    1    4    4    0    0  0.17767126619E+02  0.17952903804E+02  0.46561362567E+01  0.25683791546E+02  0.00000000000E+00 0.  1.
</event>
<event>
 8    1  0.1269154E-006  0.9118800E+02  0.7816164E-02  0.1184000E+00
        -11   -1    0    0    0    0  0.00000000000E+00  0.00000000000E+00  0.45593999997E+02  0.45594000000E+02  0.51100000000E-03 0. -1.
         11   -1    0    0    0    0 -0.00000000000E+00 -0.00000000000E+00 -0.45593999997E+02  0.45594000000E+02  0.51100000000E-03 0.  1.
         23    2    1    2    0    0  0.00000000000E+00 -0.71054273576E-14  0.33306690739E-15  0.91188000000E+02  0.91188000000E+02 0.  0.
    9900012    2    3    3    0    0 -0.98001694688E+01 -0.35492643600E+02  0.94628600664E-01  0.54367081680E+02  0.39999994306E+02 0.  0.
         12    1    3    3    0    0  0.98001694688E+01  0.35492643600E+02 -0.94628600664E-01  0.36820918320E+02  0.00000000000E+00 0. -1.
         11    1    4    4    0    0 -0.12741386501E+02 -0.10302355187E+02  0.56917412461E-01  0.16385502501E+02  0.51100000000E-03 0. -1.
        -11    1    4    4    0    0 -0.21439174568E+01 -0.22513897493E+02 -0.11291850798E+02  0.25278011336E+02  0.51100000000E-03 0.  1.
        -12    1    4    4    0    0  0.50851344892E+01 -0.26763909205E+01  0.11329561986E+02  0.12703567843E+02  0.00000000000E+00 0.  1.
</event>
<event>
 8    1  0.1269154E-006  0.9118800E+02  0.7816164E-02  0.1184000E+00
        -11   -1    0    0    0    0  0.00000000000E+00  0.00000000000E+00  0.45593999997E+02  0.45594000000E+02  0.51100000000E-03 0. -1.
         11   -1    0    0    0    0 -0.00000000000E+00 -0.00000000000E+00 -0.45593999997E+02  0.45594000000E+02  0.51100000000E-03 0.  1.
         23    2    1    2    0    0  0.00000000000E+00  0.44408920985E-15  0.00000000000E+00  0.91188000000E+02  0.91188000000E+02 0.  0.
    9900012    2    3    3    0    0  0.26402311448E+02  0.37551372878E+01 -0.25388919856E+02  0.54367077181E+02  0.39999984049E+02 0.  0.
        -12    1    3    3    0    0 -0.26402311448E+02 -0.37551372878E+01  0.25388919856E+02  0.36820922819E+02  0.00000000000E+00 0.  1.
         11    1    4    4    0    0  0.12494493424E+02  0.11488801939E+02 -0.35576137498E+01  0.17342478248E+02  0.51100000000E-03 0. -1.
        -11    1    4    4    0    0  0.24721984963E+00 -0.96424525446E+01 -0.21113701148E+02  0.23212634171E+02  0.51100000000E-03 0.  1.
        -12    1    4    4    0    0  0.13660598174E+02  0.19087878931E+01 -0.71760495763E+00  0.13811964762E+02  0.00000000000E+00 0.  1.
</event>
<event>
 8    1  0.1269154E-006  0.9118800E+02  0.7816164E-02  0.1184000E+00
        -11   -1    0    0    0    0  0.00000000000E+00  0.00000000000E+00  0.45593999997E+02  0.45594000000E+02  0.51100000000E-03 0.  1.
         11   -1    0    0    0    0 -0.00000000000E+00 -0.00000000000E+00 -0.45593999997E+02  0.45594000000E+02  0.51100000000E-03 0. -1.
         23    2    1    2    0    0  0.00000000000E+00 -0.22204460493E-14  0.88817841970E-15  0.91188000000E+02  0.91188000000E+02 0.  0.
    9900012    2    3    3    0    0  0.36510242470E+02  0.37860447468E+01  0.29065541440E+01  0.54367082072E+02  0.39999995200E+02 0.  0.
         12    1    3    3    0    0 -0.36510242470E+02 -0.37860447468E+01 -0.29065541440E+01  0.36820917928E+02  0.00000000000E+00 0. -1.
         11    1    4    4    0    0  0.91568398689E+01  0.14413085288E+02  0.81241723613E+01  0.18909968819E+02  0.51100000000E-03 0. -1.
        -11    1    4    4    0    0  0.41011045063E+01 -0.10286345965E+02 -0.51248522233E+01  0.12202134324E+02  0.51100000000E-03 0.  1.
        -12    1    4    4    0    0  0.23252298095E+02 -0.34069457664E+00 -0.92765994054E-01  0.23254978930E+02  0.00000000000E+00 0.  1.
</event>
<event>
 8    1  0.1269154E-006  0.9118800E+02  0.7816164E-02  0.1184000E+00
        -11   -1    0    0    0    0  0.00000000000E+00  0.00000000000E+00  0.45593999997E+02  0.45594000000E+02  0.51100000000E-03 0. -1.
         11   -1    0    0    0    0 -0.00000000000E+00 -0.00000000000E+00 -0.45593999997E+02  0.45594000000E+02  0.51100000000E-03 0.  1.
         23    2    1    2    0    0  0.00000000000E+00  0.00000000000E+00  0.17763568394E-14  0.91188000000E+02  0.91188000000E+02 0.  0.
    9900012    2    3    3    0    0  0.24031007845E+02  0.26142376982E+02  0.97398381215E+01  0.54367113821E+02  0.40000067579E+02 0.  0.
        -12    1    3    3    0    0 -0.24031007845E+02 -0.26142376982E+02 -0.97398381215E+01  0.36820886179E+02  0.00000000000E+00 0.  1.
         11    1    4    4    0    0 -0.53522467033E+01  0.16819122743E+01 -0.40280813270E+01  0.69065775250E+01  0.51100000000E-03 0. -1.
        -11    1    4    4    0    0  0.36640993045E+01 -0.41340896336E+01 -0.20266681217E+01  0.58841910871E+01  0.51100000000E-03 0.  1.
         12    1    4    4    0    0  0.25719155244E+02  0.28594554341E+02  0.15794587570E+02  0.41576345209E+02  0.00000000000E+00 0. -1.
</event>
<event>
 8    1  0.1269154E-006  0.9118800E+02  0.7816164E-02  0.1184000E+00
        -11   -1    0    0    0    0  0.00000000000E+00  0.00000000000E+00  0.45593999997E+02  0.45594000000E+02  0.51100000000E-03 0. -1.
         11   -1    0    0    0    0 -0.00000000000E+00 -0.00000000000E+00 -0.45593999997E+02  0.45594000000E+02  0.51100000000E-03 0.  1.
         23    2    1    2    0    0 -0.17763568394E-14 -0.71054273576E-14 -0.17763568394E-14  0.91188000000E+02  0.91188000000E+02 0.  0.
    9900012    2    3    3    0    0 -0.10221830339E+02 -0.35142080535E+02 -0.40407685626E+01  0.54367089495E+02  0.40000012122E+02 0.  0.
         12    1    3    3    0    0  0.10221830339E+02  0.35142080535E+02  0.40407685626E+01  0.36820910505E+02  0.00000000000E+00 0. -1.
         11    1    4    4    0    0  0.68446464336E+01  0.85919310102E+00  0.51336874484E+01  0.85989618365E+01  0.51100000000E-03 0. -1.
        -11    1    4    4    0    0 -0.17349074365E+02 -0.30766434598E+02 -0.13807698520E+00  0.35321140196E+02  0.51100000000E-03 0.  1.
         12    1    4    4    0    0  0.28259759269E+00 -0.52348390380E+01 -0.90363790259E+01  0.10446987463E+02  0.00000000000E+00 0. -1.
</event>
<event>
 8    1  0.1269154E-006  0.9118800E+02  0.7816164E-02  0.1184000E+00
        -11   -1    0    0    0    0  0.00000000000E+00  0.00000000000E+00  0.45593999997E+02  0.45594000000E+02  0.51100000000E-03 0.  1.
         11   -1    0    0    0    0 -0.00000000000E+00 -0.00000000000E+00 -0.45593999997E+02  0.45594000000E+02  0.51100000000E-03 0. -1.
         23    2    1    2    0    0 -0.32196467714E-14  0.00000000000E+00  0.00000000000E+00  0.91188000000E+02  0.91188000000E+02 0.  0.
    9900012    2    3    3    0    0 -0.98962397594E+00 -0.11107113504E+02  0.35091760148E+02  0.54367096205E+02  0.40000027418E+02 0.  0.
         12    1    3    3    0    0  0.98962397594E+00  0.11107113504E+02 -0.35091760148E+02  0.36820903795E+02  0.00000000000E+00 0. -1.
         11    1    4    4    0    0 -0.15617758787E+01  0.10640203840E+01 -0.38190169027E+01  0.42610061766E+01  0.51100000000E-03 0. -1.
        -11    1    4    4    0    0 -0.13553426949E+02 -0.73452504451E+01  0.12832982992E+02  0.20058253636E+02  0.51100000000E-03 0.  1.
        -12    1    4    4    0    0  0.14125578852E+02 -0.48258834427E+01  0.26077794059E+02  0.30047836393E+02  0.00000000000E+00 0.  1.
</event>
<event>
 8    1  0.1269154E-006  0.9118800E+02  0.7816164E-02  0.1184000E+00
        -11   -1    0    0    0    0  0.00000000000E+00  0.00000000000E+00  0.45593999997E+02  0.45594000000E+02  0.51100000000E-03 0. -1.
         11   -1    0    0    0    0 -0.00000000000E+00 -0.00000000000E+00 -0.45593999997E+02  0.45594000000E+02  0.51100000000E-03 0.  1.
         23    2    1    2    0    0  0.17763568394E-14  0.17763568394E-14  0.00000000000E+00  0.91188000000E+02  0.91188000000E+02 0.  0.
    9900012    2    3    3    0    0  0.92099811118E+01 -0.11320995781E+02  0.33805189119E+02  0.54367088701E+02  0.40000010312E+02 0.  0.
        -12    1    3    3    0    0 -0.92099811118E+01  0.11320995781E+02 -0.33805189119E+02  0.36820911299E+02  0.00000000000E+00 0.  1.
         11    1    4    4    0    0  0.10521358790E+01 -0.95852642890E+01  0.73776771229E+01  0.12141433251E+02  0.51100000000E-03 0. -1.
        -11    1    4    4    0    0  0.62312546588E+00 -0.62152534911E+01 -0.59837047368E+01  0.86499932915E+01  0.51100000000E-03 0.  1.
         12    1    4    4    0    0  0.75347197668E+01  0.44795219996E+01  0.32411216732E+02  0.33575662159E+02  0.00000000000E+00 0. -1.
</event>
<event>
 8    1  0.1269154E-006  0.9118800E+02  0.7816164E-02  0.1184000E+00
        -11   -1    0    0    0    0  0.00000000000E+00  0.00000000000E+00  0.45593999997E+02  0.45594000000E+02  0.51100000000E-03 0.  1.
         11   -1    0    0    0    0 -0.00000000000E+00 -0.00000000000E+00 -0.45593999997E+02  0.45594000000E+02  0.51100000000E-03 0. -1.
         23    2    1    2    0    0  0.00000000000E+00  0.44408920985E-14  0.35527136788E-14  0.91188000000E+02  0.91188000000E+02 0.  0.
    9900012    2    3    3    0    0  0.25210116104E+02  0.34447011096E+01 -0.26615121405E+02  0.54367073788E+02  0.39999976314E+02 0.  0.
        -12    1    3    3    0    0 -0.25210116104E+02 -0.34447011096E+01  0.26615121405E+02  0.36820926212E+02  0.00000000000E+00 0.  1.
         11    1    4    4    0    0  0.13936431582E+02  0.18788317720E+02 -0.11002081092E+02  0.25850934153E+02  0.51100000000E-03 0. -1.
        -11    1    4    4    0    0  0.14059471837E+02 -0.98150454167E+01 -0.13953868265E+02  0.22106883649E+02  0.51100000000E-03 0.  1.
         12    1    4    4    0    0 -0.27857873144E+01 -0.55285711936E+01 -0.16591720478E+01  0.64092559855E+01  0.00000000000E+00 0. -1.
</event>
<event>
 8    1  0.1269154E-006  0.9118800E+02  0.7816164E-02  0.1184000E+00
        -11   -1    0    0    0    0  0.00000000000E+00  0.00000000000E+00  0.45593999997E+02  0.45594000000E+02  0.51100000000E-03 0.  1.
         11   -1    0    0    0    0 -0.00000000000E+00 -0.00000000000E+00 -0.45593999997E+02  0.45594000000E+02  0.51100000000E-03 0. -1.
         23    2    1    2    0    0  0.17763568394E-14  0.00000000000E+00  0.00000000000E+00  0.91188000000E+02  0.91188000000E+02 0.  0.
    9900012    2    3    3    0    0 -0.13731796932E+02  0.33394521815E+02  0.72129030333E+01  0.54367050740E+02  0.39999923772E+02 0.  0.
         12    1    3    3    0    0  0.13731796932E+02 -0.33394521815E+02 -0.72129030333E+01  0.36820949260E+02  0.00000000000E+00 0. -1.
         11    1    4    4    0    0  0.87738622286E+00 -0.46909982668E+01 -0.86211120938E+01  0.98538746348E+01  0.51100000000E-03 0. -1.
        -11    1    4    4    0    0 -0.14269464597E+02  0.30868241896E+02  0.10703045112E+02  0.35651383600E+02  0.51100000000E-03 0.  1.
         12    1    4    4    0    0 -0.33971855765E+00  0.72172781858E+01  0.51309700155E+01  0.88617925055E+01  0.00000000000E+00 0. -1.
</event>
<event>
 8    1  0.1269154E-006  0.9118800E+02  0.7816164E-02  0.1184000E+00
        -11   -1    0    0    0    0  0.00000000000E+00  0.00000000000E+00  0.45593999997E+02  0.45594000000E+02  0.51100000000E-03 0. -1.
         11   -1    0    0    0    0 -0.00000000000E+00 -0.00000000000E+00 -0.45593999997E+02  0.45594000000E+02  0.51100000000E-03 0.  1.
         23    2    1    2    0    0 -0.17763568394E-14 -0.71054273576E-14  0.00000000000E+00  0.91188000000E+02  0.91188000000E+02 0.  0.
    9900012    2    3    3    0    0  0.12517098948E+02 -0.29488338267E+02  0.18153191823E+02  0.54367106024E+02  0.40000049804E+02 0.  0.
        -12    1    3    3    0    0 -0.12517098948E+02  0.29488338267E+02 -0.18153191823E+02  0.36820893976E+02  0.00000000000E+00 0.  1.
         11    1    4    4    0    0  0.18251403627E+01 -0.14805481603E+02  0.13738246605E+02  0.20279862990E+02  0.51100000000E-03 0. -1.
        -11    1    4    4    0    0 -0.55696572254E+01  0.28699622440E+01  0.77085841054E+01  0.99337824649E+01  0.51100000000E-03 0.  1.
        -12    1    4    4    0    0  0.16261615811E+02 -0.17552818908E+02 -0.32936388872E+01  0.24153460570E+02  0.00000000000E+00 0.  1.
</event>
<event>
 8    1  0.1269154E-006  0.9118800E+02  0.7816164E-02  0.1184000E+00
        -11   -1    0    0    0    0  0.00000000000E+00  0.00000000000E+00  0.45593999997E+02  0.45594000000E+02  0.51100000000E-03 0.  1.
         11   -1    0    0    0    0 -0.00000000000E+00 -0.00000000000E+00 -0.45593999997E+02  0.45594000000E+02  0.51100000000E-03 0. -1.
         23    2    1    2    0    0  0.00000000000E+00  0.00000000000E+00  0.00000000000E+00  0.91188000000E+02  0.91188000000E+02 0.  0.
    9900012    2    3    3    0    0  0.27807155775E+02 -0.17717363323E+02  0.16390158166E+02  0.54367079858E+02  0.39999990153E+02 0.  0.
         12    1    3    3    0    0 -0.27807155775E+02  0.17717363323E+02 -0.16390158166E+02  0.36820920142E+02  0.00000000000E+00 0. -1.
         11    1    4    4    0    0  0.26326186734E+02 -0.12110107481E+02  0.18432217116E+02  0.34343404596E+02  0.51100000000E-03 0. -1.
        -11    1    4    4    0    0 -0.69828584081E+01 -0.80014647327E+01  0.11149555773E+01  0.10678336744E+02  0.51100000000E-03 0.  1.
         12    1    4    4    0    0  0.84638274487E+01  0.23942088907E+01 -0.31570145278E+01  0.93453385184E+01  0.00000000000E+00 0. -1.
</event>
<event>
 8    1  0.1269154E-006  0.9118800E+02  0.7816164E-02  0.1184000E+00
        -11   -1    0    0    0    0  0.00000000000E+00  0.00000000000E+00  0.45593999997E+02  0.45594000000E+02  0.51100000000E-03 0.  1.
         11   -1    0    0    0    0 -0.00000000000E+00 -0.00000000000E+00 -0.45593999997E+02  0.45594000000E+02  0.51100000000E-03 0. -1.
         23    2    1    2    0    0  0.00000000000E+00 -0.44408920985E-15 -0.35527136788E-14  0.91188000000E+02  0.91188000000E+02 0.  0.
    9900012    2    3    3    0    0  0.24019989641E+02 -0.28554887322E+01 -0.27760869029E+02  0.54367087905E+02  0.40000008497E+02 0.  0.
        -12    1    3    3    0    0 -0.24019989641E+02  0.28554887322E+01  0.27760869029E+02  0.36820912095E+02  0.00000000000E+00 0.  1.
         11    1    4    4    0    0 -0.38694805095E+01 -0.56563994640E+01 -0.54983354052E+01  0.87863204358E+01  0.51100000000E-03 0. -1.
        -11    1    4    4    0    0 -0.18780130771E+01  0.21669659791E+01  0.46388604752E+01  0.54535952767E+01  0.51100000000E-03 0.  1.
         12    1    4    4    0    0  0.29767483228E+02  0.63394475272E+00 -0.26901394099E+02  0.40127172192E+02  0.00000000000E+00 0. -1.
</event>
<event>
 8    1  0.1269154E-006  0.9118800E+02  0.7816164E-02  0.1184000E+00
        -11   -1    0    0    0    0  0.00000000000E+00  0.00000000000E+00  0.45593999997E+02  0.45594000000E+02  0.51100000000E-03 0. -1.
         11   -1    0    0    0    0 -0.00000000000E+00 -0.00000000000E+00 -0.45593999997E+02  0.45594000000E+02  0.51100000000E-03 0.  1.
         23    2    1    2    0    0  0.00000000000E+00  0.00000000000E+00 -0.35527136788E-14  0.91188000000E+02  0.91188000000E+02 0.  0.
    9900012    2    3    3    0    0  0.10907207356E+02  0.28612895207E+02  0.20447865434E+02  0.54367080060E+02  0.39999990613E+02 0.  0.
        -12    1    3    3    0    0 -0.10907207356E+02 -0.28612895207E+02 -0.20447865434E+02  0.36820919940E+02  0.00000000000E+00 0.  1.
         11    1    4    4    0    0 -0.33106597156E+01  0.77574386225E+01  0.51703231029E+01  0.98929552200E+01  0.51100000000E-03 0. -1.
        -11    1    4    4    0    0  0.23782404201E+02  0.12949492262E+02  0.33915078082E+01  0.27290922023E+02  0.51100000000E-03 0.  1.
        -12    1    4    4    0    0 -0.95645371297E+01  0.79059643223E+01  0.11886034523E+02  0.17183202817E+02  0.00000000000E+00 0.  1.
</event>
