<event>
 4    1  0.3902417E-001  0.1958827E+03  0.7546771E-02  0.1153260E+00
         21   -1    0    0  503  502  0.00000000000E+00  0.00000000000E+00  0.89029254042E+03  0.89029254042E+03  0.00000000000E+00 0.  1.
         21   -1    0    0  501  503 -0.00000000000E+00 -0.00000000000E+00 -0.48981875042E+02  0.48981875042E+02  0.00000000000E+00 0.  1.
          6    1    1    2  501    0  0.91736140275E+02  0.50522543697E+01  0.25788789476E+03  0.32384596797E+03  0.17300000000E+03 0.  1.
         -6    1    1    2    0  502 -0.91736140275E+02 -0.50522543697E+01  0.58342277062E+03  0.61542844750E+03  0.17300000000E+03 0.  1.
<mgrwt>
<rscale>  2 0.19588273E+03</rscale>
<asrwt>0</asrwt>
<pdfrwt beam="1">  1       21 0.13696807E+00 0.19588273E+03</pdfrwt>
<pdfrwt beam="2">  1       21 0.75356737E-02 0.19588273E+03</pdfrwt>
<totfact> 0.50318544E+04</totfact>
</mgrwt>
</event>
<event>
 4    1  0.3902417E-001  0.2224415E+03  0.7546771E-02  0.1132076E+00
         21   -1    0    0  503  502  0.00000000000E+00  0.00000000000E+00  0.36542232641E+03  0.36542232641E+03  0.00000000000E+00 0.  1.
         21   -1    0    0  501  503 -0.00000000000E+00 -0.00000000000E+00 -0.14745764854E+03  0.14745764854E+03  0.00000000000E+00 0.  1.
          6    1    1    2  501    0 -0.38462969849E+02  0.13443144207E+03  0.35668940062E+02  0.22528312398E+03  0.17300000000E+03 0.  1.
         -6    1    1    2    0  502  0.38462969849E+02 -0.13443144207E+03  0.18229573781E+03  0.28759685097E+03  0.17300000000E+03 0.  1.
<mgrwt>
<rscale>  2 0.22244148E+03</rscale>
<asrwt>0</asrwt>
<pdfrwt beam="1">  1       21 0.56218819E-01 0.22244148E+03</pdfrwt>
<pdfrwt beam="2">  1       21 0.22685792E-01 0.22244148E+03</pdfrwt>
<totfact> 0.53493896E+04</totfact>
</mgrwt>
</event>
<event>
 4    1  0.3902417E-001  0.1947230E+03  0.7546771E-02  0.1154269E+00
         21   -1    0    0  503  502  0.00000000000E+00  0.00000000000E+00  0.28918332803E+03  0.28918332803E+03  0.00000000000E+00 0.  1.
         21   -1    0    0  501  503 -0.00000000000E+00 -0.00000000000E+00 -0.15798189642E+03  0.15798189642E+03  0.00000000000E+00 0.  1.
          6    1    1    2  501    0 -0.82566058662E+02  0.34218520928E+02 -0.26597190254E+02  0.19653109613E+03  0.17300000000E+03 0.  1.
         -6    1    1    2    0  502  0.82566058662E+02 -0.34218520928E+02  0.15779862186E+03  0.25063412832E+03  0.17300000000E+03 0.  1.
<mgrwt>
<rscale>  2 0.19472304E+03</rscale>
<asrwt>0</asrwt>
<pdfrwt beam="1">  1       21 0.44489743E-01 0.19472304E+03</pdfrwt>
<pdfrwt beam="2">  1       21 0.24304907E-01 0.19472304E+03</pdfrwt>
<totfact> 0.77466611E+04</totfact>
</mgrwt>
</event>
<event>
 4    1  0.3902417E-001  0.2014570E+03  0.7546771E-02  0.1148515E+00
         21   -1    0    0  503  502  0.00000000000E+00  0.00000000000E+00  0.83646246845E+02  0.83646246845E+02  0.00000000000E+00 0.  1.
         21   -1    0    0  501  503 -0.00000000000E+00 -0.00000000000E+00 -0.80349951263E+03  0.80349951263E+03  0.00000000000E+00 0. -1.
          6    1    1    2  501    0 -0.58685026107E+02 -0.84923533421E+02 -0.63911155443E+03  0.67011082503E+03  0.17300000000E+03 0. -1.
         -6    1    1    2    0  502  0.58685026107E+02  0.84923533421E+02 -0.80741711361E+02  0.21703493445E+03  0.17300000000E+03 0.  1.
<mgrwt>
<rscale>  2 0.20145704E+03</rscale>
<asrwt>0</asrwt>
<pdfrwt beam="1">  1       21 0.12868653E-01 0.20145704E+03</pdfrwt>
<pdfrwt beam="2">  1       21 0.12361531E+00 0.20145704E+03</pdfrwt>
<totfact> 0.25254876E+04</totfact>
</mgrwt>
</event>
<event>
 4    1  0.3902417E-001  0.1757757E+03  0.7546771E-02  0.1171955E+00
         21   -1    0    0  501  502  0.00000000000E+00  0.00000000000E+00  0.63253616442E+02  0.63253616442E+02  0.00000000000E+00 0.  1.
         21   -1    0    0  502  503 -0.00000000000E+00 -0.00000000000E+00 -0.49191724842E+03  0.49191724842E+03  0.00000000000E+00 0.  1.
          6    1    1    2  501    0 -0.69404785434E+01 -0.30330417827E+02 -0.19107370115E+03  0.25962716299E+03  0.17300000000E+03 0. -1.
         -6    1    1    2    0  503  0.69404785434E+01  0.30330417827E+02 -0.23758993082E+03  0.29554370187E+03  0.17300000000E+03 0. -1.
<mgrwt>
<rscale>  2 0.17577572E+03</rscale>
<asrwt>0</asrwt>
<pdfrwt beam="1">  1       21 0.97313254E-02 0.17577572E+03</pdfrwt>
<pdfrwt beam="2">  1       21 0.75679578E-01 0.17577572E+03</pdfrwt>
<totfact> 0.13346829E+05</totfact>
</mgrwt>
</event>
<event>
 4    1  0.3902417E-001  0.1885316E+03  0.7546771E-02  0.1159792E+00
         21   -1    0    0  501  502  0.00000000000E+00  0.00000000000E+00  0.57194601359E+03  0.57194601359E+03  0.00000000000E+00 0. -1.
         21   -1    0    0  502  503 -0.00000000000E+00 -0.00000000000E+00 -0.64296393584E+02  0.64296393584E+02  0.00000000000E+00 0. -1.
          6    1    1    2  501    0  0.43721154605E+02  0.60857481044E+02  0.19564724112E+03  0.27170207088E+03  0.17300000000E+03 0. -1.
         -6    1    1    2    0  503 -0.43721154605E+02 -0.60857481044E+02  0.31200237888E+03  0.36454033630E+03  0.17300000000E+03 0. -1.
<mgrwt>
<rscale>  2 0.18853162E+03</rscale>
<asrwt>0</asrwt>
<pdfrwt beam="1">  1       21 0.87991691E-01 0.18853162E+03</pdfrwt>
<pdfrwt beam="2">  1       21 0.98917532E-02 0.18853162E+03</pdfrwt>
<totfact> 0.91708287E+04</totfact>
</mgrwt>
</event>
<event>
 4    1  0.3902417E-001  0.1815219E+03  0.7546771E-02  0.1166338E+00
         21   -1    0    0  503  502  0.00000000000E+00  0.00000000000E+00  0.30978362811E+02  0.30978362811E+02  0.00000000000E+00 0.  1.
         21   -1    0    0  501  503 -0.00000000000E+00 -0.00000000000E+00 -0.10723358333E+04  0.10723358333E+04  0.00000000000E+00 0. -1.
          6    1    1    2  501    0  0.16947727265E+02 -0.52287409258E+02 -0.57032181093E+03  0.59851246156E+03  0.17300000000E+03 0. -1.
         -6    1    1    2    0  502 -0.16947727265E+02  0.52287409258E+02 -0.47103565959E+03  0.50480173458E+03  0.17300000000E+03 0.  1.
<mgrwt>
<rscale>  2 0.18152190E+03</rscale>
<asrwt>0</asrwt>
<pdfrwt beam="1">  1       21 0.47659019E-02 0.18152190E+03</pdfrwt>
<pdfrwt beam="2">  1       21 0.16497475E+00 0.18152190E+03</pdfrwt>
<totfact> 0.67996186E+04</totfact>
</mgrwt>
</event>
<event>
 4    1  0.3902417E-001  0.3550910E+03  0.7546771E-02  0.1060545E+00
         21   -1    0    0  501  502  0.00000000000E+00  0.00000000000E+00  0.13646677855E+04  0.13646677855E+04  0.00000000000E+00 0.  1.
         21   -1    0    0  502  503 -0.00000000000E+00 -0.00000000000E+00 -0.11106972579E+03  0.11106972579E+03  0.00000000000E+00 0. -1.
          6    1    1    2  501    0 -0.24499038549E+03  0.19010615233E+03  0.32424808057E+03  0.48086012092E+03  0.17300000000E+03 0. -1.
         -6    1    1    2    0  503  0.24499038549E+03 -0.19010615233E+03  0.92934997915E+03  0.99487739037E+03  0.17300000000E+03 0.  1.
<mgrwt>
<rscale>  2 0.35509103E+03</rscale>
<asrwt>0</asrwt>
<pdfrwt beam="1">  1       21 0.20994888E+00 0.35509103E+03</pdfrwt>
<pdfrwt beam="2">  1       21 0.17087651E-01 0.35509103E+03</pdfrwt>
<totfact> 0.31884466E+03</totfact>
</mgrwt>
</event>
<event>
 4    1  0.3902417E-001  0.3482078E+03  0.7546771E-02  0.1063353E+00
         21   -1    0    0  503  502  0.00000000000E+00  0.00000000000E+00  0.41915737052E+03  0.41915737052E+03  0.00000000000E+00 0. -1.
         21   -1    0    0  501  503 -0.00000000000E+00 -0.00000000000E+00 -0.40436066762E+03  0.40436066762E+03  0.00000000000E+00 0.  1.
          6    1    1    2  501    0 -0.29894213171E+03  0.44196007663E+02 -0.21227788382E+03  0.40781194829E+03  0.17300000000E+03 0.  1.
         -6    1    1    2    0  502  0.29894213171E+03 -0.44196007663E+02  0.22707458672E+03  0.41570608985E+03  0.17300000000E+03 0. -1.
<mgrwt>
<rscale>  2 0.34820782E+03</rscale>
<asrwt>0</asrwt>
<pdfrwt beam="1">  1       21 0.64485750E-01 0.34820782E+03</pdfrwt>
<pdfrwt beam="2">  1       21 0.62209333E-01 0.34820782E+03</pdfrwt>
<totfact> 0.48548838E+03</totfact>
</mgrwt>
</event>
<event>
 4    1  0.3902417E-001  0.3519465E+03  0.7546771E-02  0.1061819E+00
         21   -1    0    0  501  502  0.00000000000E+00  0.00000000000E+00  0.26813205831E+03  0.26813205831E+03  0.00000000000E+00 0. -1.
         21   -1    0    0  502  503 -0.00000000000E+00 -0.00000000000E+00 -0.66767914132E+03  0.66767914132E+03  0.00000000000E+00 0.  1.
          6    1    1    2  501    0  0.12051485251E+03 -0.28180407295E+03 -0.45949711920E+03  0.57879527275E+03  0.17300000000E+03 0.  1.
         -6    1    1    2    0  503 -0.12051485251E+03  0.28180407295E+03  0.59950036192E+02  0.35701592688E+03  0.17300000000E+03 0. -1.
<mgrwt>
<rscale>  2 0.35194654E+03</rscale>
<asrwt>0</asrwt>
<pdfrwt beam="1">  1       21 0.41251086E-01 0.35194654E+03</pdfrwt>
<pdfrwt beam="2">  1       21 0.10271987E+00 0.35194654E+03</pdfrwt>
<totfact> 0.39558596E+03</totfact>
</mgrwt>
</event>
<event>
 4    1  0.3902417E-001  0.4336810E+03  0.7546771E-02  0.1032703E+00
         21   -1    0    0  501  502  0.00000000000E+00  0.00000000000E+00  0.93847384340E+03  0.93847384340E+03  0.00000000000E+00 0.  1.
         21   -1    0    0  502  503 -0.00000000000E+00 -0.00000000000E+00 -0.23473789187E+03  0.23473789187E+03  0.00000000000E+00 0. -1.
          6    1    1    2  501    0 -0.25399607469E+03  0.30600034197E+03  0.57619447475E+03  0.72116522932E+03  0.17300000000E+03 0.  1.
         -6    1    1    2    0  503  0.25399607469E+03 -0.30600034197E+03  0.12754147678E+03  0.45204650595E+03  0.17300000000E+03 0. -1.
<mgrwt>
<rscale>  2 0.43368101E+03</rscale>
<asrwt>0</asrwt>
<pdfrwt beam="1">  1       21 0.14438059E+00 0.43368101E+03</pdfrwt>
<pdfrwt beam="2">  1       21 0.36113522E-01 0.43368101E+03</pdfrwt>
<totfact> 0.21090827E+03</totfact>
</mgrwt>
</event>
<event>
 4    1  0.3902417E-001  0.1912154E+03  0.7546771E-02  0.1157370E+00
         21   -1    0    0  503  502  0.00000000000E+00  0.00000000000E+00  0.11177796025E+03  0.11177796025E+03  0.00000000000E+00 0. -1.
         21   -1    0    0  501  503 -0.00000000000E+00 -0.00000000000E+00 -0.33139563694E+03  0.33139563694E+03  0.00000000000E+00 0. -1.
          6    1    1    2  501    0 -0.74319074154E+02  0.33331530588E+02 -0.13501734564E+03  0.23407904507E+03  0.17300000000E+03 0. -1.
         -6    1    1    2    0  502  0.74319074154E+02 -0.33331530588E+02 -0.84600331050E+02  0.20909455212E+03  0.17300000000E+03 0. -1.
<mgrwt>
<rscale>  2 0.19121536E+03</rscale>
<asrwt>0</asrwt>
<pdfrwt beam="1">  1       21 0.17196610E-01 0.19121536E+03</pdfrwt>
<pdfrwt beam="2">  1       21 0.50983943E-01 0.19121536E+03</pdfrwt>
<totfact> 0.11180626E+05</totfact>
</mgrwt>
</event>
<event>
 4    1  0.3902417E-001  0.2057033E+03  0.7546771E-02  0.1145014E+00
         21   -1    0    0  503  502  0.00000000000E+00  0.00000000000E+00  0.34690006433E+02  0.34690006433E+02  0.00000000000E+00 0. -1.
         21   -1    0    0  501  503 -0.00000000000E+00 -0.00000000000E+00 -0.14451378011E+04  0.14451378011E+04  0.00000000000E+00 0.  1.
          6    1    1    2  501    0  0.80484859943E+02  0.76857222998E+02 -0.99741839921E+03  0.10184092048E+04  0.17300000000E+03 0.  1.
         -6    1    1    2    0  502 -0.80484859943E+02 -0.76857222998E+02 -0.41302939547E+03  0.46141860271E+03  0.17300000000E+03 0. -1.
<mgrwt>
<rscale>  2 0.20570329E+03</rscale>
<asrwt>0</asrwt>
<pdfrwt beam="1">  1       21 0.53369257E-02 0.20570329E+03</pdfrwt>
<pdfrwt beam="2">  1       21 0.22232882E+00 0.20570329E+03</pdfrwt>
<totfact> 0.23202713E+04</totfact>
</mgrwt>
</event>
<event>
 4    1  0.3902417E-001  0.2132574E+03  0.7546771E-02  0.1139012E+00
         21   -1    0    0  503  502  0.00000000000E+00  0.00000000000E+00  0.44946430564E+03  0.44946430564E+03  0.00000000000E+00 0. -1.
         21   -1    0    0  501  503 -0.00000000000E+00 -0.00000000000E+00 -0.10132556981E+03  0.10132556981E+03  0.00000000000E+00 0. -1.
          6    1    1    2  501    0  0.10425219816E+03  0.68419281983E+02  0.16378535224E+03  0.26889470165E+03  0.17300000000E+03 0. -1.
         -6    1    1    2    0  502 -0.10425219816E+03 -0.68419281983E+02  0.18435338360E+03  0.28189517380E+03  0.17300000000E+03 0. -1.
<mgrwt>
<rscale>  2 0.21325740E+03</rscale>
<asrwt>0</asrwt>
<pdfrwt beam="1">  1       21 0.69148354E-01 0.21325740E+03</pdfrwt>
<pdfrwt beam="2">  1       21 0.15588549E-01 0.21325740E+03</pdfrwt>
<totfact> 0.68969512E+04</totfact>
</mgrwt>
</event>
<event>
 4    1  0.3902417E-001  0.2045336E+03  0.7546771E-02  0.1145969E+00
         21   -1    0    0  503  502  0.00000000000E+00  0.00000000000E+00  0.62473567012E+02  0.62473567012E+02  0.00000000000E+00 0.  1.
         21   -1    0    0  501  503 -0.00000000000E+00 -0.00000000000E+00 -0.70869974899E+03  0.70869974899E+03  0.00000000000E+00 0.  1.
          6    1    1    2  501    0  0.43265616622E+02  0.10016521502E+03 -0.23257566513E+03  0.30971829764E+03  0.17300000000E+03 0.  1.
         -6    1    1    2    0  502 -0.43265616622E+02 -0.10016521502E+03 -0.41365051684E+03  0.46145501836E+03  0.17300000000E+03 0.  1.
<mgrwt>
<rscale>  2 0.20453358E+03</rscale>
<asrwt>0</asrwt>
<pdfrwt beam="1">  1       21 0.96113180E-02 0.20453358E+03</pdfrwt>
<pdfrwt beam="2">  1       21 0.10903073E+00 0.20453358E+03</pdfrwt>
<totfact> 0.57718704E+04</totfact>
</mgrwt>
</event>
<event>
 4    1  0.3902417E-001  0.2313890E+03  0.7546771E-02  0.1125666E+00
         21   -1    0    0  501  502  0.00000000000E+00  0.00000000000E+00  0.99161763200E+02  0.99161763200E+02  0.00000000000E+00 0.  1.
         21   -1    0    0  502  503 -0.00000000000E+00 -0.00000000000E+00 -0.58437495374E+03  0.58437495374E+03  0.00000000000E+00 0.  1.
          6    1    1    2  501    0 -0.15364448554E+03 -0.22908782609E+01 -0.14835811409E+03  0.27486543267E+03  0.17300000000E+03 0.  1.
         -6    1    1    2    0  503  0.15364448554E+03  0.22908782609E+01 -0.33685507646E+03  0.40867128428E+03  0.17300000000E+03 0.  1.
<mgrwt>
<rscale>  2 0.23138901E+03</rscale>
<asrwt>0</asrwt>
<pdfrwt beam="1">  1       21 0.15255656E-01 0.23138901E+03</pdfrwt>
<pdfrwt beam="2">  1       21 0.89903839E-01 0.23138901E+03</pdfrwt>
<totfact> 0.39283234E+04</totfact>
</mgrwt>
</event>
<event>
 4    1  0.3902417E-001  0.1773070E+03  0.7546771E-02  0.1170435E+00
         21   -1    0    0  501  502  0.00000000000E+00  0.00000000000E+00  0.13501309836E+03  0.13501309836E+03  0.00000000000E+00 0.  1.
         21   -1    0    0  502  503 -0.00000000000E+00 -0.00000000000E+00 -0.35873100901E+03  0.35873100901E+03  0.00000000000E+00 0.  1.
          6    1    1    2  501    0  0.28048584982E+02 -0.26870992033E+02  0.34381630510E+02  0.18060971693E+03  0.17300000000E+03 0.  1.
         -6    1    1    2    0  503 -0.28048584982E+02  0.26870992033E+02 -0.25809954115E+03  0.31313439044E+03  0.17300000000E+03 0.  1.
<mgrwt>
<rscale>  2 0.17730700E+03</rscale>
<asrwt>0</asrwt>
<pdfrwt beam="1">  1       21 0.20771246E-01 0.17730700E+03</pdfrwt>
<pdfrwt beam="2">  1       21 0.55189386E-01 0.17730700E+03</pdfrwt>
<totfact> 0.67039554E+04</totfact>
</mgrwt>
</event>
<event>
 4    1  0.3902417E-001  0.1735965E+03  0.7546771E-02  0.1174148E+00
         21   -1    0    0  503  502  0.00000000000E+00  0.00000000000E+00  0.25389466338E+02  0.25389466338E+02  0.00000000000E+00 0.  1.
         21   -1    0    0  501  503 -0.00000000000E+00 -0.00000000000E+00 -0.12651243483E+04  0.12651243483E+04  0.00000000000E+00 0.  1.
          6    1    1    2  501    0  0.12103175517E+02  0.77631806344E+01 -0.78027620087E+03  0.79935392880E+03  0.17300000000E+03 0.  1.
         -6    1    1    2    0  502 -0.12103175517E+02 -0.77631806344E+01 -0.45945868105E+03  0.49115988580E+03  0.17300000000E+03 0.  1.
<mgrwt>
<rscale>  2 0.17359653E+03</rscale>
<asrwt>0</asrwt>
<pdfrwt beam="1">  1       21 0.39060732E-02 0.17359653E+03</pdfrwt>
<pdfrwt beam="2">  1       21 0.19463444E+00 0.17359653E+03</pdfrwt>
<totfact> 0.60024947E+04</totfact>
</mgrwt>
</event>
<event>
 4    1  0.3902417E-001  0.2001723E+03  0.7546771E-02  0.1149594E+00
         21   -1    0    0  501  502  0.00000000000E+00  0.00000000000E+00  0.43036414565E+03  0.43036414565E+03  0.00000000000E+00 0. -1.
         21   -1    0    0  502  503 -0.00000000000E+00 -0.00000000000E+00 -0.14142899808E+03  0.14142899808E+03  0.00000000000E+00 0. -1.
          6    1    1    2  501    0  0.45207768209E+02  0.89978850095E+02  0.31158524567E+03  0.37034349068E+03  0.17300000000E+03 0. -1.
         -6    1    1    2    0  503 -0.45207768209E+02 -0.89978850095E+02 -0.22650098095E+02  0.20144965305E+03  0.17300000000E+03 0. -1.
<mgrwt>
<rscale>  2 0.20017227E+03</rscale>
<asrwt>0</asrwt>
<pdfrwt beam="1">  1       21 0.66209868E-01 0.20017227E+03</pdfrwt>
<pdfrwt beam="2">  1       21 0.21758308E-01 0.20017227E+03</pdfrwt>
<totfact> 0.41102816E+04</totfact>
</mgrwt>
</event>
<event>
 4    1  0.3902417E-001  0.1784521E+03  0.7546771E-02  0.1169310E+00
         21   -1    0    0  501  502  0.00000000000E+00  0.00000000000E+00  0.10675941091E+04  0.10675941091E+04  0.00000000000E+00 0.  1.
         21   -1    0    0  502  503 -0.00000000000E+00 -0.00000000000E+00 -0.30871514666E+02  0.30871514666E+02  0.00000000000E+00 0.  1.
          6    1    1    2  501    0  0.40802305579E+02  0.15853008929E+02  0.61929628613E+03  0.64449440342E+03  0.17300000000E+03 0.  1.
         -6    1    1    2    0  503 -0.40802305579E+02 -0.15853008929E+02  0.41742630830E+03  0.45397122034E+03  0.17300000000E+03 0.  1.
<mgrwt>
<rscale>  2 0.17845208E+03</rscale>
<asrwt>0</asrwt>
<pdfrwt beam="1">  1       21 0.16424522E+00 0.17845208E+03</pdfrwt>
<pdfrwt beam="2">  1       21 0.47494646E-02 0.17845208E+03</pdfrwt>
<totfact> 0.69340809E+04</totfact>
</mgrwt>
</event>
<event>
 4    1  0.3902417E-001  0.2151767E+03  0.7546771E-02  0.1137531E+00
         21   -1    0    0  501  502  0.00000000000E+00  0.00000000000E+00  0.43982937196E+03  0.43982937196E+03  0.00000000000E+00 0. -1.
         21   -1    0    0  502  503 -0.00000000000E+00 -0.00000000000E+00 -0.11389378624E+03  0.11389378624E+03  0.00000000000E+00 0.  1.
          6    1    1    2  501    0 -0.99039550602E+02 -0.81013429768E+02  0.23914971257E+03  0.32170420172E+03  0.17300000000E+03 0. -1.
         -6    1    1    2    0  503  0.99039550602E+02  0.81013429768E+02  0.86785873157E+02  0.23201895648E+03  0.17300000000E+03 0. -1.
<mgrwt>
<rscale>  2 0.21517669E+03</rscale>
<asrwt>0</asrwt>
<pdfrwt beam="1">  1       21 0.67666057E-01 0.21517669E+03</pdfrwt>
<pdfrwt beam="2">  1       21 0.17522121E-01 0.21517669E+03</pdfrwt>
<totfact> 0.58287359E+04</totfact>
</mgrwt>
</event>
<event>
 4    1  0.3902417E-001  0.2223185E+03  0.7546771E-02  0.1132166E+00
         21   -1    0    0  501  502  0.00000000000E+00  0.00000000000E+00  0.21158254342E+03  0.21158254342E+03  0.00000000000E+00 0. -1.
         21   -1    0    0  502  503 -0.00000000000E+00 -0.00000000000E+00 -0.27780603685E+03  0.27780603685E+03  0.00000000000E+00 0. -1.
          6    1    1    2  501    0  0.12545038733E+03 -0.61308396474E+02 -0.13072247888E+03  0.25790286087E+03  0.17300000000E+03 0. -1.
         -6    1    1    2    0  503 -0.12545038733E+03  0.61308396474E+02  0.64498985460E+02  0.23148571940E+03  0.17300000000E+03 0. -1.
<mgrwt>
<rscale>  2 0.22231851E+03</rscale>
<asrwt>0</asrwt>
<pdfrwt beam="1">  1       21 0.32551161E-01 0.22231851E+03</pdfrwt>
<pdfrwt beam="2">  1       21 0.42739390E-01 0.22231851E+03</pdfrwt>
<totfact> 0.47151382E+04</totfact>
</mgrwt>
</event>
<event>
 4    1  0.3902417E-001  0.1999731E+03  0.7546771E-02  0.1149762E+00
         21   -1    0    0  501  502  0.00000000000E+00  0.00000000000E+00  0.95546486831E+03  0.95546486831E+03  0.00000000000E+00 0. -1.
         21   -1    0    0  502  503 -0.00000000000E+00 -0.00000000000E+00 -0.44227949424E+02  0.44227949424E+02  0.00000000000E+00 0. -1.
          6    1    1    2  501    0  0.54017885704E+02 -0.84512138594E+02  0.33979412470E+03  0.39427056791E+03  0.17300000000E+03 0.  1.
         -6    1    1    2    0  503 -0.54017885704E+02  0.84512138594E+02  0.57144279419E+03  0.60542224982E+03  0.17300000000E+03 0.  1.
<mgrwt>
<rscale>  2 0.19997308E+03</rscale>
<asrwt>0</asrwt>
<pdfrwt beam="1">  1       21 0.14699458E+00 0.19997308E+03</pdfrwt>
<pdfrwt beam="2">  1       21 0.68043006E-02 0.19997308E+03</pdfrwt>
<totfact> 0.49864947E+04</totfact>
</mgrwt>
</event>
<event>
 4    1  0.3902417E-001  0.1997883E+03  0.7546771E-02  0.1149918E+00
         21   -1    0    0  501  502  0.00000000000E+00  0.00000000000E+00  0.11175699419E+03  0.11175699419E+03  0.00000000000E+00 0. -1.
         21   -1    0    0  502  503 -0.00000000000E+00 -0.00000000000E+00 -0.55023414574E+03  0.55023414574E+03  0.00000000000E+00 0.  1.
          6    1    1    2  501    0  0.40665880752E+02  0.91283299442E+02 -0.23169910156E+02  0.20112732124E+03  0.17300000000E+03 0. -1.
         -6    1    1    2    0  503 -0.40665880752E+02 -0.91283299442E+02 -0.41530724139E+03  0.46086381868E+03  0.17300000000E+03 0.  1.
<mgrwt>
<rscale>  2 0.19978827E+03</rscale>
<asrwt>0</asrwt>
<pdfrwt beam="1">  1       21 0.17193384E-01 0.19978827E+03</pdfrwt>
<pdfrwt beam="2">  1       21 0.84651406E-01 0.19978827E+03</pdfrwt>
<totfact> 0.36815409E+04</totfact>
</mgrwt>
</event>
<event>
 4    1  0.3902417E-001  0.2056074E+03  0.7546771E-02  0.1145092E+00
         21   -1    0    0  501  502  0.00000000000E+00  0.00000000000E+00  0.27499528007E+03  0.27499528007E+03  0.00000000000E+00 0. -1.
         21   -1    0    0  502  503 -0.00000000000E+00 -0.00000000000E+00 -0.27108249558E+03  0.27108249558E+03  0.00000000000E+00 0. -1.
          6    1    1    2  501    0 -0.88924059247E+01 -0.11075338118E+03  0.18160515351E+03  0.27432611634E+03  0.17300000000E+03 0. -1.
         -6    1    1    2    0  503  0.88924059247E+01  0.11075338118E+03 -0.17769236902E+03  0.27175165931E+03  0.17300000000E+03 0. -1.
<mgrwt>
<rscale>  2 0.20560736E+03</rscale>
<asrwt>0</asrwt>
<pdfrwt beam="1">  1       21 0.42306966E-01 0.20560736E+03</pdfrwt>
<pdfrwt beam="2">  1       21 0.41704999E-01 0.20560736E+03</pdfrwt>
<totfact> 0.29544464E+04</totfact>
</mgrwt>
</event>
<event>
 4    1  0.3902417E-001  0.1841946E+03  0.7546771E-02  0.1163804E+00
         21   -1    0    0  503  502  0.00000000000E+00  0.00000000000E+00  0.23933579169E+03  0.23933579169E+03  0.00000000000E+00 0. -1.
         21   -1    0    0  501  503 -0.00000000000E+00 -0.00000000000E+00 -0.19150992202E+03  0.19150992202E+03  0.00000000000E+00 0.  1.
          6    1    1    2  501    0 -0.47657588686E+02 -0.41561948129E+02 -0.85887306651E+02  0.20323452152E+03  0.17300000000E+03 0.  1.
         -6    1    1    2    0  502  0.47657588686E+02  0.41561948129E+02  0.13371317632E+03  0.22761119220E+03  0.17300000000E+03 0. -1.
<mgrwt>
<rscale>  2 0.18419457E+03</rscale>
<asrwt>0</asrwt>
<pdfrwt beam="1">  1       21 0.36820891E-01 0.18419457E+03</pdfrwt>
<pdfrwt beam="2">  1       21 0.29463065E-01 0.18419457E+03</pdfrwt>
<totfact> 0.78785695E+04</totfact>
</mgrwt>
</event>
<event>
 4    1  0.3902417E-001  0.1917474E+03  0.7546771E-02  0.1156895E+00
         21   -1    0    0  501  502  0.00000000000E+00  0.00000000000E+00  0.30907549865E+02  0.30907549865E+02  0.00000000000E+00 0.  1.
         21   -1    0    0  502  503 -0.00000000000E+00 -0.00000000000E+00 -0.12248233110E+04  0.12248233110E+04  0.00000000000E+00 0.  1.
          6    1    1    2  501    0  0.11134296457E+02  0.81939570042E+02 -0.70345938344E+03  0.72912424856E+03  0.17300000000E+03 0.  1.
         -6    1    1    2    0  503 -0.11134296457E+02 -0.81939570042E+02 -0.49045637769E+03  0.52660661230E+03  0.17300000000E+03 0.  1.
<mgrwt>
<rscale>  2 0.19174740E+03</rscale>
<asrwt>0</asrwt>
<pdfrwt beam="1">  1       21 0.47550083E-02 0.19174740E+03</pdfrwt>
<pdfrwt beam="2">  1       21 0.18843433E+00 0.19174740E+03</pdfrwt>
<totfact> 0.46807823E+04</totfact>
</mgrwt>
</event>
<event>
 4    1  0.3902417E-001  0.1986031E+03  0.7546771E-02  0.1150923E+00
         21   -1    0    0  501  502  0.00000000000E+00  0.00000000000E+00  0.39220981990E+03  0.39220981990E+03  0.00000000000E+00 0.  1.
         21   -1    0    0  502  503 -0.00000000000E+00 -0.00000000000E+00 -0.10508430576E+03  0.10508430576E+03  0.00000000000E+00 0.  1.
          6    1    1    2  501    0 -0.80544839704E+01  0.97207554654E+02  0.19511842282E+03  0.27841404835E+03  0.17300000000E+03 0.  1.
         -6    1    1    2    0  503  0.80544839704E+01 -0.97207554654E+02  0.92007091315E+02  0.21888007732E+03  0.17300000000E+03 0.  1.
<mgrwt>
<rscale>  2 0.19860308E+03</rscale>
<asrwt>0</asrwt>
<pdfrwt beam="1">  1       21 0.60339972E-01 0.19860308E+03</pdfrwt>
<pdfrwt beam="2">  1       21 0.16166816E-01 0.19860308E+03</pdfrwt>
<totfact> 0.87360582E+04</totfact>
</mgrwt>
</event>
<event>
 4    1  0.3902417E-001  0.1841978E+03  0.7546771E-02  0.1163801E+00
         21   -1    0    0  501  502  0.00000000000E+00  0.00000000000E+00  0.17083757515E+03  0.17083757515E+03  0.00000000000E+00 0.  1.
         21   -1    0    0  502  503 -0.00000000000E+00 -0.00000000000E+00 -0.27220344039E+03  0.27220344039E+03  0.00000000000E+00 0. -1.
          6    1    1    2  501    0  0.39895978244E+02 -0.49072638785E+02  0.64505286728E+02  0.19516594214E+03  0.17300000000E+03 0.  1.
         -6    1    1    2    0  503 -0.39895978244E+02  0.49072638785E+02 -0.16587115197E+03  0.24787507340E+03  0.17300000000E+03 0. -1.
<mgrwt>
<rscale>  2 0.18419776E+03</rscale>
<asrwt>0</asrwt>
<pdfrwt beam="1">  1       21 0.26282704E-01 0.18419776E+03</pdfrwt>
<pdfrwt beam="2">  1       21 0.41877452E-01 0.18419776E+03</pdfrwt>
<totfact> 0.75807199E+04</totfact>
</mgrwt>
</event>
<event>
 4    1  0.3902417E-001  0.2048218E+03  0.7546771E-02  0.1145733E+00
         21   -1    0    0  501  502  0.00000000000E+00  0.00000000000E+00  0.21570504168E+03  0.21570504168E+03  0.00000000000E+00 0.  1.
         21   -1    0    0  502  503 -0.00000000000E+00 -0.00000000000E+00 -0.19783027185E+03  0.19783027185E+03  0.00000000000E+00 0.  1.
          6    1    1    2  501    0 -0.43087904884E+02 -0.10082859567E+03  0.35814203969E+02  0.20792938815E+03  0.17300000000E+03 0.  1.
         -6    1    1    2    0  503  0.43087904884E+02  0.10082859567E+03 -0.17939434133E+02  0.20560592538E+03  0.17300000000E+03 0.  1.
<mgrwt>
<rscale>  2 0.20482181E+03</rscale>
<asrwt>0</asrwt>
<pdfrwt beam="1">  1       21 0.33185391E-01 0.20482181E+03</pdfrwt>
<pdfrwt beam="2">  1       21 0.30435427E-01 0.20482181E+03</pdfrwt>
<totfact> 0.90134088E+04</totfact>
</mgrwt>
</event>
<event>
 4    1  0.3902417E-001  0.2480879E+03  0.7546771E-02  0.1114519E+00
         21   -1    0    0  501  502  0.00000000000E+00  0.00000000000E+00  0.28328180641E+03  0.28328180641E+03  0.00000000000E+00 0. -1.
         21   -1    0    0  502  503 -0.00000000000E+00 -0.00000000000E+00 -0.21776968974E+03  0.21776968974E+03  0.00000000000E+00 0. -1.
          6    1    1    2  501    0 -0.89443669313E+00  0.17781392573E+03  0.20711180938E+02  0.24895088916E+03  0.17300000000E+03 0. -1.
         -6    1    1    2    0  503  0.89443669313E+00 -0.17781392573E+03  0.44800935731E+02  0.25210060698E+03  0.17300000000E+03 0. -1.
<mgrwt>
<rscale>  2 0.24808787E+03</rscale>
<asrwt>0</asrwt>
<pdfrwt beam="1">  1       21 0.43581816E-01 0.24808787E+03</pdfrwt>
<pdfrwt beam="2">  1       21 0.33503029E-01 0.24808787E+03</pdfrwt>
<totfact> 0.42315659E+04</totfact>
</mgrwt>
</event>
<event>
 4    1  0.3902417E-001  0.2477458E+03  0.7546771E-02  0.1114738E+00
         21   -1    0    0  503  502  0.00000000000E+00  0.00000000000E+00  0.28316881898E+03  0.28316881898E+03  0.00000000000E+00 0. -1.
         21   -1    0    0  501  503 -0.00000000000E+00 -0.00000000000E+00 -0.23764848641E+03  0.23764848641E+03  0.00000000000E+00 0. -1.
          6    1    1    2  501    0  0.80149699476E+02 -0.15819294974E+03  0.99975470448E+02  0.26715740373E+03  0.17300000000E+03 0. -1.
         -6    1    1    2    0  502 -0.80149699476E+02  0.15819294974E+03 -0.54455137877E+02  0.25365990167E+03  0.17300000000E+03 0. -1.
<mgrwt>
<rscale>  2 0.24774580E+03</rscale>
<asrwt>0</asrwt>
<pdfrwt beam="1">  1       21 0.43564434E-01 0.24774580E+03</pdfrwt>
<pdfrwt beam="2">  1       21 0.36561305E-01 0.24774580E+03</pdfrwt>
<totfact> 0.35576085E+04</totfact>
</mgrwt>
</event>
<event>
 4    1  0.3902417E-001  0.1740619E+03  0.7546771E-02  0.1173677E+00
         21   -1    0    0  501  502  0.00000000000E+00  0.00000000000E+00  0.46458972818E+03  0.46458972818E+03  0.00000000000E+00 0. -1.
         21   -1    0    0  502  503 -0.00000000000E+00 -0.00000000000E+00 -0.67344026885E+02  0.67344026885E+02  0.00000000000E+00 0. -1.
          6    1    1    2  501    0 -0.85655098677E+01 -0.17180408444E+02  0.24592913704E+03  0.30129499637E+03  0.17300000000E+03 0. -1.
         -6    1    1    2    0  503  0.85655098677E+01  0.17180408444E+02  0.15131656425E+03  0.23063875869E+03  0.17300000000E+03 0. -1.
<mgrwt>
<rscale>  2 0.17406187E+03</rscale>
<asrwt>0</asrwt>
<pdfrwt beam="1">  1       21 0.71475341E-01 0.17406187E+03</pdfrwt>
<pdfrwt beam="2">  1       21 0.10360620E-01 0.17406187E+03</pdfrwt>
<totfact> 0.13575257E+05</totfact>
</mgrwt>
</event>
<event>
 4    1  0.3902417E-001  0.1854565E+03  0.7546771E-02  0.1162624E+00
         21   -1    0    0  503  502  0.00000000000E+00  0.00000000000E+00  0.16489221281E+04  0.16489221281E+04  0.00000000000E+00 0. -1.
         21   -1    0    0  501  503 -0.00000000000E+00 -0.00000000000E+00 -0.21240115610E+02  0.21240115610E+02  0.00000000000E+00 0. -1.
          6    1    1    2  501    0  0.61544886955E+02  0.26025439035E+02  0.70191151560E+03  0.72599853465E+03  0.17300000000E+03 0. -1.
         -6    1    1    2    0  502 -0.61544886955E+02 -0.26025439035E+02  0.92577049688E+03  0.94416370904E+03  0.17300000000E+03 0. -1.
<mgrwt>
<rscale>  2 0.18545645E+03</rscale>
<asrwt>0</asrwt>
<pdfrwt beam="1">  1       21 0.25368023E+00 0.18545645E+03</pdfrwt>
<pdfrwt beam="2">  1       21 0.32677114E-02 0.18545645E+03</pdfrwt>
<totfact> 0.34948614E+04</totfact>
</mgrwt>
</event>
<event>
 4    1  0.3902417E-001  0.2236452E+03  0.7546771E-02  0.1131194E+00
         21   -1    0    0  503  502  0.00000000000E+00  0.00000000000E+00  0.81050922581E+03  0.81050922581E+03  0.00000000000E+00 0. -1.
         21   -1    0    0  501  503 -0.00000000000E+00 -0.00000000000E+00 -0.61951847064E+02  0.61951847064E+02  0.00000000000E+00 0. -1.
          6    1    1    2  501    0  0.12393765547E+03  0.68757884650E+02  0.40148825538E+03  0.45957590053E+03  0.17300000000E+03 0. -1.
         -6    1    1    2    0  502 -0.12393765547E+03 -0.68757884650E+02  0.34706912337E+03  0.41288517234E+03  0.17300000000E+03 0. -1.
<mgrwt>
<rscale>  2 0.22364523E+03</rscale>
<asrwt>0</asrwt>
<pdfrwt beam="1">  1       21 0.12469372E+00 0.22364523E+03</pdfrwt>
<pdfrwt beam="2">  1       21 0.95310540E-02 0.22364523E+03</pdfrwt>
<totfact> 0.41689629E+04</totfact>
</mgrwt>
</event>
<event>
 4    1  0.3902417E-001  0.2601207E+03  0.7546771E-02  0.1107071E+00
         21   -1    0    0  503  502  0.00000000000E+00  0.00000000000E+00  0.69168006896E+02  0.69168006896E+02  0.00000000000E+00 0.  1.
         21   -1    0    0  501  503 -0.00000000000E+00 -0.00000000000E+00 -0.98789096254E+03  0.98789096254E+03  0.00000000000E+00 0. -1.
          6    1    1    2  501    0 -0.15241397791E+03  0.12043148406E+03 -0.40711606284E+03  0.48312136326E+03  0.17300000000E+03 0. -1.
         -6    1    1    2    0  502  0.15241397791E+03 -0.12043148406E+03 -0.51160689280E+03  0.57393760617E+03  0.17300000000E+03 0.  1.
<mgrwt>
<rscale>  2 0.26012067E+03</rscale>
<asrwt>0</asrwt>
<pdfrwt beam="1">  1       21 0.10641231E-01 0.26012067E+03</pdfrwt>
<pdfrwt beam="2">  1       21 0.15198324E+00 0.26012067E+03</pdfrwt>
<totfact> 0.20155212E+04</totfact>
</mgrwt>
</event>
<event>
 4    1  0.3902417E-001  0.2464040E+03  0.7546771E-02  0.1115599E+00
         21   -1    0    0  503  502  0.00000000000E+00  0.00000000000E+00  0.38033639519E+03  0.38033639519E+03  0.00000000000E+00 0. -1.
         21   -1    0    0  501  503 -0.00000000000E+00 -0.00000000000E+00 -0.15963550126E+03  0.15963550126E+03  0.00000000000E+00 0.  1.
          6    1    1    2  501    0  0.30931563810E+02  0.17271121133E+03  0.11091654931E+03  0.27021732933E+03  0.17300000000E+03 0.  1.
         -6    1    1    2    0  502 -0.30931563810E+02 -0.17271121133E+03  0.10978434461E+03  0.26975456712E+03  0.17300000000E+03 0.  1.
<mgrwt>
<rscale>  2 0.24640399E+03</rscale>
<asrwt>0</asrwt>
<pdfrwt beam="1">  1       21 0.58513292E-01 0.24640399E+03</pdfrwt>
<pdfrwt beam="2">  1       21 0.24559308E-01 0.24640399E+03</pdfrwt>
<totfact> 0.41776942E+04</totfact>
</mgrwt>
</event>
<event>
 4    1  0.3902417E-001  0.1836826E+03  0.7546771E-02  0.1164286E+00
         21   -1    0    0  501  502  0.00000000000E+00  0.00000000000E+00  0.75883285761E+03  0.75883285761E+03  0.00000000000E+00 0. -1.
         21   -1    0    0  502  503 -0.00000000000E+00 -0.00000000000E+00 -0.45035597461E+02  0.45035597461E+02  0.00000000000E+00 0. -1.
          6    1    1    2  501    0  0.61678731850E+02 -0.24547400469E+01  0.40225602558E+03  0.44220945470E+03  0.17300000000E+03 0. -1.
         -6    1    1    2    0  503 -0.61678731850E+02  0.24547400469E+01  0.31154123456E+03  0.36165900036E+03  0.17300000000E+03 0. -1.
<mgrwt>
<rscale>  2 0.18368258E+03</rscale>
<asrwt>0</asrwt>
<pdfrwt beam="1">  1       21 0.11674351E+00 0.18368258E+03</pdfrwt>
<pdfrwt beam="2">  1       21 0.69285540E-02 0.18368258E+03</pdfrwt>
<totfact> 0.87357313E+04</totfact>
</mgrwt>
</event>
<event>
 4    1  0.3902417E-001  0.1971052E+03  0.7546771E-02  0.1152205E+00
         21   -1    0    0  503  502  0.00000000000E+00  0.00000000000E+00  0.97617748629E+03  0.97617748629E+03  0.00000000000E+00 0.  1.
         21   -1    0    0  501  503 -0.00000000000E+00 -0.00000000000E+00 -0.46169938055E+02  0.46169938055E+02  0.00000000000E+00 0.  1.
          6    1    1    2  501    0  0.85953906852E+02  0.39158348783E+02  0.27511214157E+03  0.33843336245E+03  0.17300000000E+03 0.  1.
         -6    1    1    2    0  502 -0.85953906852E+02 -0.39158348783E+02  0.65489540667E+03  0.68391406189E+03  0.17300000000E+03 0.  1.
<mgrwt>
<rscale>  2 0.19710518E+03</rscale>
<asrwt>0</asrwt>
<pdfrwt beam="1">  1       21 0.15018114E+00 0.19710518E+03</pdfrwt>
<pdfrwt beam="2">  1       21 0.71030681E-02 0.19710518E+03</pdfrwt>
<totfact> 0.43832169E+04</totfact>
</mgrwt>
</event>
<event>
 4    1  0.3902417E-001  0.2077780E+03  0.7546771E-02  0.1143338E+00
         21   -1    0    0  501  502  0.00000000000E+00  0.00000000000E+00  0.42725163436E+03  0.42725163436E+03  0.00000000000E+00 0.  1.
         21   -1    0    0  502  503 -0.00000000000E+00 -0.00000000000E+00 -0.10974621980E+03  0.10974621980E+03  0.00000000000E+00 0. -1.
          6    1    1    2  501    0  0.20340237882E+02  0.11326503989E+03  0.23435495979E+03  0.31319952381E+03  0.17300000000E+03 0. -1.
         -6    1    1    2    0  503 -0.20340237882E+02 -0.11326503989E+03  0.83150454772E+02  0.22379833035E+03  0.17300000000E+03 0. -1.
<mgrwt>
<rscale>  2 0.20777799E+03</rscale>
<asrwt>0</asrwt>
<pdfrwt beam="1">  1       21 0.65731020E-01 0.20777799E+03</pdfrwt>
<pdfrwt beam="2">  1       21 0.16884034E-01 0.20777799E+03</pdfrwt>
<totfact> 0.66735540E+04</totfact>
</mgrwt>
</event>
<event>
 4    1  0.3902417E-001  0.1764530E+03  0.7546771E-02  0.1171281E+00
         21   -1    0    0  501  502  0.00000000000E+00  0.00000000000E+00  0.52428173632E+03  0.52428173632E+03  0.00000000000E+00 0. -1.
         21   -1    0    0  502  503 -0.00000000000E+00 -0.00000000000E+00 -0.64698866257E+02  0.64698866257E+02  0.00000000000E+00 0. -1.
          6    1    1    2  501    0 -0.15645666816E+01  0.34701732567E+02  0.31417063762E+03  0.36033158015E+03  0.17300000000E+03 0. -1.
         -6    1    1    2    0  503  0.15645666816E+01 -0.34701732567E+02  0.14541223244E+03  0.22864902243E+03  0.17300000000E+03 0. -1.
<mgrwt>
<rscale>  2 0.17645299E+03</rscale>
<asrwt>0</asrwt>
<pdfrwt beam="1">  1       21 0.80658726E-01 0.17645299E+03</pdfrwt>
<pdfrwt beam="2">  1       21 0.99536721E-02 0.17645299E+03</pdfrwt>
<totfact> 0.11114305E+05</totfact>
</mgrwt>
</event>
<event>
 4    1  0.3902417E-001  0.2012527E+03  0.7546771E-02  0.1148686E+00
         21   -1    0    0  503  502  0.00000000000E+00  0.00000000000E+00  0.47369437486E+03  0.47369437486E+03  0.00000000000E+00 0.  1.
         21   -1    0    0  501  503 -0.00000000000E+00 -0.00000000000E+00 -0.12030768031E+03  0.12030768031E+03  0.00000000000E+00 0.  1.
          6    1    1    2  501    0  0.12084932737E+02 -0.10211562972E+03  0.16949038720E+02  0.20196513894E+03  0.17300000000E+03 0.  1.
         -6    1    1    2    0  502 -0.12084932737E+02  0.10211562972E+03  0.33643765583E+03  0.39203691624E+03  0.17300000000E+03 0.  1.
<mgrwt>
<rscale>  2 0.20125270E+03</rscale>
<asrwt>0</asrwt>
<pdfrwt beam="1">  1       21 0.72876057E-01 0.20125270E+03</pdfrwt>
<pdfrwt beam="2">  1       21 0.18508874E-01 0.20125270E+03</pdfrwt>
<totfact> 0.44995986E+04</totfact>
</mgrwt>
</event>
<event>
 4    1  0.3902417E-001  0.1916534E+03  0.7546771E-02  0.1156978E+00
         21   -1    0    0  503  502  0.00000000000E+00  0.00000000000E+00  0.75654788709E+03  0.75654788709E+03  0.00000000000E+00 0. -1.
         21   -1    0    0  501  503 -0.00000000000E+00 -0.00000000000E+00 -0.50363543475E+02  0.50363543475E+02  0.00000000000E+00 0. -1.
          6    1    1    2  501    0  0.82245472411E+02  0.61410882846E+01  0.27654980911E+03  0.33646816731E+03  0.17300000000E+03 0. -1.
         -6    1    1    2    0  502 -0.82245472411E+02 -0.61410882846E+01  0.42963453450E+03  0.47044326325E+03  0.17300000000E+03 0. -1.
<mgrwt>
<rscale>  2 0.19165341E+03</rscale>
<asrwt>0</asrwt>
<pdfrwt beam="1">  1       21 0.11639197E+00 0.19165341E+03</pdfrwt>
<pdfrwt beam="2">  1       21 0.77482380E-02 0.19165341E+03</pdfrwt>
<totfact> 0.72259662E+04</totfact>
</mgrwt>
</event>
<event>
 4    1  0.3902417E-001  0.1909357E+03  0.7546771E-02  0.1157620E+00
         21   -1    0    0  501  502  0.00000000000E+00  0.00000000000E+00  0.45487661355E+02  0.45487661355E+02  0.00000000000E+00 0.  1.
         21   -1    0    0  502  503 -0.00000000000E+00 -0.00000000000E+00 -0.88356821781E+03  0.88356821781E+03  0.00000000000E+00 0.  1.
          6    1    1    2  501    0  0.20844672273E+02  0.78057210728E+02 -0.27743101788E+03  0.33678538892E+03  0.17300000000E+03 0.  1.
         -6    1    1    2    0  503 -0.20844672273E+02 -0.78057210728E+02 -0.56064953857E+03  0.59227049024E+03  0.17300000000E+03 0.  1.
<mgrwt>
<rscale>  2 0.19093567E+03</rscale>
<asrwt>0</asrwt>
<pdfrwt beam="1">  1       21 0.69981024E-02 0.19093567E+03</pdfrwt>
<pdfrwt beam="2">  1       21 0.13593356E+00 0.19093567E+03</pdfrwt>
<totfact> 0.58469844E+04</totfact>
</mgrwt>
</event>
<event>
 4    1  0.3902417E-001  0.1891690E+03  0.7546771E-02  0.1159213E+00
         21   -1    0    0  503  502  0.00000000000E+00  0.00000000000E+00  0.31136856979E+03  0.31136856979E+03  0.00000000000E+00 0.  1.
         21   -1    0    0  501  503 -0.00000000000E+00 -0.00000000000E+00 -0.15671086537E+03  0.15671086537E+03  0.00000000000E+00 0.  1.
          6    1    1    2  501    0 -0.27089132282E+02 -0.71568689719E+02 -0.43519369728E+02  0.19411036546E+03  0.17300000000E+03 0.  1.
         -6    1    1    2    0  502  0.27089132282E+02  0.71568689719E+02  0.19817707414E+03  0.27396906970E+03  0.17300000000E+03 0.  1.
<mgrwt>
<rscale>  2 0.18916897E+03</rscale>
<asrwt>0</asrwt>
<pdfrwt beam="1">  1       21 0.47902857E-01 0.18916897E+03</pdfrwt>
<pdfrwt beam="2">  1       21 0.24109364E-01 0.18916897E+03</pdfrwt>
<totfact> 0.67709311E+04</totfact>
</mgrwt>
</event>
<event>
 4    1  0.3902417E-001  0.1941186E+03  0.7546771E-02  0.1154798E+00
         21   -1    0    0  503  502  0.00000000000E+00  0.00000000000E+00  0.27163479370E+03  0.27163479370E+03  0.00000000000E+00 0. -1.
         21   -1    0    0  501  503 -0.00000000000E+00 -0.00000000000E+00 -0.14027407031E+03  0.14027407031E+03  0.00000000000E+00 0. -1.
          6    1    1    2  501    0 -0.85545573238E+02 -0.20856338555E+02  0.44024356070E+02  0.19904817479E+03  0.17300000000E+03 0. -1.
         -6    1    1    2    0  502  0.85545573238E+02  0.20856338555E+02  0.87336367321E+02  0.21286068922E+03  0.17300000000E+03 0. -1.
<mgrwt>
<rscale>  2 0.19411860E+03</rscale>
<asrwt>0</asrwt>
<pdfrwt beam="1">  1       21 0.41789968E-01 0.19411860E+03</pdfrwt>
<pdfrwt beam="2">  1       21 0.21580626E-01 0.19411860E+03</pdfrwt>
<totfact> 0.11027241E+05</totfact>
</mgrwt>
</event>
<event>
 4    1  0.3902417E-001  0.1778734E+03  0.7546771E-02  0.1169877E+00
         21   -1    0    0  503  502  0.00000000000E+00  0.00000000000E+00  0.44508625337E+03  0.44508625337E+03  0.00000000000E+00 0. -1.
         21   -1    0    0  501  503 -0.00000000000E+00 -0.00000000000E+00 -0.82592458470E+02  0.82592458470E+02  0.00000000000E+00 0. -1.
          6    1    1    2  501    0  0.33924113638E+02  0.23645317252E+02  0.82764297575E+02  0.19618581872E+03  0.17300000000E+03 0. -1.
         -6    1    1    2    0  502 -0.33924113638E+02 -0.23645317252E+02  0.27972949732E+03  0.33149289311E+03  0.17300000000E+03 0. -1.
<mgrwt>
<rscale>  2 0.17787340E+03</rscale>
<asrwt>0</asrwt>
<pdfrwt beam="1">  1       21 0.68474807E-01 0.17787340E+03</pdfrwt>
<pdfrwt beam="2">  1       21 0.12706532E-01 0.17787340E+03</pdfrwt>
<totfact> 0.10359375E+05</totfact>
</mgrwt>
</event>
<event>
 4    1  0.3902417E-001  0.2542532E+03  0.7546771E-02  0.1110646E+00
         21   -1    0    0  503  502  0.00000000000E+00  0.00000000000E+00  0.64562688155E+03  0.64562688155E+03  0.00000000000E+00 0.  1.
         21   -1    0    0  501  503 -0.00000000000E+00 -0.00000000000E+00 -0.10650224907E+03  0.10650224907E+03  0.00000000000E+00 0. -1.
          6    1    1    2  501    0  0.13454948864E+01  0.18631664812E+03  0.36157135578E+03  0.44201645788E+03  0.17300000000E+03 0.  1.
         -6    1    1    2    0  502 -0.13454948864E+01 -0.18631664812E+03  0.17755327671E+03  0.31011267274E+03  0.17300000000E+03 0. -1.
<mgrwt>
<rscale>  2 0.25425323E+03</rscale>
<asrwt>0</asrwt>
<pdfrwt beam="1">  1       21 0.99327210E-01 0.25425323E+03</pdfrwt>
<pdfrwt beam="2">  1       21 0.16384962E-01 0.25425323E+03</pdfrwt>
<totfact> 0.26957300E+04</totfact>
</mgrwt>
</event>
<event>
 4    1  0.3902417E-001  0.1757083E+03  0.7546771E-02  0.1172022E+00
         21   -1    0    0  503  502  0.00000000000E+00  0.00000000000E+00  0.50934789220E+03  0.50934789220E+03  0.00000000000E+00 0.  1.
         21   -1    0    0  501  503 -0.00000000000E+00 -0.00000000000E+00 -0.67305496291E+02  0.67305496291E+02  0.00000000000E+00 0.  1.
          6    1    1    2  501    0  0.10621771695E+02  0.28837352403E+02  0.13010655534E+03  0.21863469686E+03  0.17300000000E+03 0. -1.
         -6    1    1    2    0  502 -0.10621771695E+02 -0.28837352403E+02  0.31193584057E+03  0.35801869163E+03  0.17300000000E+03 0. -1.
<mgrwt>
<rscale>  2 0.17570832E+03</rscale>
<asrwt>0</asrwt>
<pdfrwt beam="1">  1       21 0.78361212E-01 0.17570832E+03</pdfrwt>
<pdfrwt beam="2">  1       21 0.10354692E-01 0.17570832E+03</pdfrwt>
<totfact> 0.11066230E+05</totfact>
</mgrwt>
</event>
<event>
 4    1  0.3902417E-001  0.2427709E+03  0.7546771E-02  0.1117961E+00
         21   -1    0    0  501  502  0.00000000000E+00  0.00000000000E+00  0.10707883790E+04  0.10707883790E+04  0.00000000000E+00 0.  1.
         21   -1    0    0  502  503 -0.00000000000E+00 -0.00000000000E+00 -0.55058597620E+02  0.55058597620E+02  0.00000000000E+00 0. -1.
          6    1    1    2  501    0  0.49075495640E+02 -0.16309600718E+03  0.49792158203E+03  0.55395271791E+03  0.17300000000E+03 0.  1.
         -6    1    1    2    0  503 -0.49075495640E+02  0.16309600718E+03  0.51780819934E+03  0.57189425870E+03  0.17300000000E+03 0.  1.
<mgrwt>
<rscale>  2 0.24277090E+03</rscale>
<asrwt>0</asrwt>
<pdfrwt beam="1">  1       21 0.16473666E+00 0.24277090E+03</pdfrwt>
<pdfrwt beam="2">  1       21 0.84705543E-02 0.24277090E+03</pdfrwt>
<totfact> 0.24487425E+04</totfact>
</mgrwt>
</event>
<event>
 4    1  0.3902417E-001  0.1875439E+03  0.7546771E-02  0.1160695E+00
         21   -1    0    0  503  502  0.00000000000E+00  0.00000000000E+00  0.42574413636E+03  0.42574413636E+03  0.00000000000E+00 0. -1.
         21   -1    0    0  501  503 -0.00000000000E+00 -0.00000000000E+00 -0.12270082964E+03  0.12270082964E+03  0.00000000000E+00 0. -1.
          6    1    1    2  501    0 -0.75767239865E+01 -0.72016024525E+02 -0.52171383047E+01  0.18761645202E+03  0.17300000000E+03 0. -1.
         -6    1    1    2    0  502  0.75767239865E+01  0.72016024525E+02  0.30826044502E+03  0.36082851398E+03  0.17300000000E+03 0. -1.
<mgrwt>
<rscale>  2 0.18754390E+03</rscale>
<asrwt>0</asrwt>
<pdfrwt beam="1">  1       21 0.65499097E-01 0.18754390E+03</pdfrwt>
<pdfrwt beam="2">  1       21 0.18877051E-01 0.18754390E+03</pdfrwt>
<totfact> 0.55231874E+04</totfact>
</mgrwt>
</event>
<event>
 4    1  0.3902417E-001  0.1935491E+03  0.7546771E-02  0.1155299E+00
         21   -1    0    0  501  502  0.00000000000E+00  0.00000000000E+00  0.56097696344E+03  0.56097696344E+03  0.00000000000E+00 0.  1.
         21   -1    0    0  502  503 -0.00000000000E+00 -0.00000000000E+00 -0.75327136111E+02  0.75327136111E+02  0.00000000000E+00 0.  1.
          6    1    1    2  501    0 -0.86380910612E+02  0.84026336646E+01  0.13564721373E+03  0.23635023284E+03  0.17300000000E+03 0.  1.
         -6    1    1    2    0  503  0.86380910612E+02 -0.84026336646E+01  0.35000261360E+03  0.39995386671E+03  0.17300000000E+03 0.  1.
<mgrwt>
<rscale>  2 0.19354913E+03</rscale>
<asrwt>0</asrwt>
<pdfrwt beam="1">  1       21 0.86304146E-01 0.19354913E+03</pdfrwt>
<pdfrwt beam="2">  1       21 0.11588791E-01 0.19354913E+03</pdfrwt>
<totfact> 0.72245370E+04</totfact>
</mgrwt>
</event>
<event>
 4    1  0.3902417E-001  0.1774397E+03  0.7546771E-02  0.1170304E+00
         21   -1    0    0  501  502  0.00000000000E+00  0.00000000000E+00  0.16447885449E+03  0.16447885449E+03  0.00000000000E+00 0. -1.
         21   -1    0    0  502  503 -0.00000000000E+00 -0.00000000000E+00 -0.19366562388E+03  0.19366562388E+03  0.00000000000E+00 0. -1.
          6    1    1    2  501    0  0.93386337249E+01  0.38322966517E+02  0.46811434043E+01  0.17750147308E+03  0.17300000000E+03 0.  1.
         -6    1    1    2    0  503 -0.93386337249E+01 -0.38322966517E+02 -0.33867912795E+02  0.18064300529E+03  0.17300000000E+03 0.  1.
<mgrwt>
<rscale>  2 0.17743974E+03</rscale>
<asrwt>0</asrwt>
<pdfrwt beam="1">  1       21 0.25304439E-01 0.17743974E+03</pdfrwt>
<pdfrwt beam="2">  1       21 0.29794711E-01 0.17743974E+03</pdfrwt>
<totfact> 0.16060374E+05</totfact>
</mgrwt>
</event>
<event>
 4    1  0.3902417E-001  0.2572073E+03  0.7546771E-02  0.1108833E+00
         21   -1    0    0  503  502  0.00000000000E+00  0.00000000000E+00  0.21436347214E+03  0.21436347214E+03  0.00000000000E+00 0.  1.
         21   -1    0    0  501  503 -0.00000000000E+00 -0.00000000000E+00 -0.40067065732E+03  0.40067065732E+03  0.00000000000E+00 0.  1.
          6    1    1    2  501    0 -0.32784502766E+02  0.18748802349E+03 -0.24055543031E+03  0.35216828026E+03  0.17300000000E+03 0.  1.
         -6    1    1    2    0  502  0.32784502766E+02 -0.18748802349E+03  0.54248245121E+02  0.26286584920E+03  0.17300000000E+03 0.  1.
<mgrwt>
<rscale>  2 0.25720728E+03</rscale>
<asrwt>0</asrwt>
<pdfrwt beam="1">  1       21 0.32978996E-01 0.25720728E+03</pdfrwt>
<pdfrwt beam="2">  1       21 0.61641640E-01 0.25720728E+03</pdfrwt>
<totfact> 0.20909462E+04</totfact>
</mgrwt>
</event>
<event>
 4    1  0.3902417E-001  0.1817011E+03  0.7546771E-02  0.1166167E+00
         21   -1    0    0  503  502  0.00000000000E+00  0.00000000000E+00  0.64289577430E+03  0.64289577430E+03  0.00000000000E+00 0.  1.
         21   -1    0    0  501  503 -0.00000000000E+00 -0.00000000000E+00 -0.53783310397E+02  0.53783310397E+02  0.00000000000E+00 0.  1.
          6    1    1    2  501    0 -0.23186239091E+02  0.50484369366E+02  0.36858832198E+03  0.41094114461E+03  0.17300000000E+03 0. -1.
         -6    1    1    2    0  502  0.23186239091E+02 -0.50484369366E+02  0.22052414192E+03  0.28573794008E+03  0.17300000000E+03 0. -1.
<mgrwt>
<rscale>  2 0.18170105E+03</rscale>
<asrwt>0</asrwt>
<pdfrwt beam="1">  1       21 0.98907037E-01 0.18170105E+03</pdfrwt>
<pdfrwt beam="2">  1       21 0.82743559E-02 0.18170105E+03</pdfrwt>
<totfact> 0.95776250E+04</totfact>
</mgrwt>
</event>
<event>
 4    1  0.3902417E-001  0.2425487E+03  0.7546771E-02  0.1118106E+00
         21   -1    0    0  503  502  0.00000000000E+00  0.00000000000E+00  0.24132992677E+03  0.24132992677E+03  0.00000000000E+00 0. -1.
         21   -1    0    0  501  503 -0.00000000000E+00 -0.00000000000E+00 -0.25189097253E+03  0.25189097253E+03  0.00000000000E+00 0. -1.
          6    1    1    2  501    0  0.95962481376E+02  0.14032852225E+03  0.38989518155E+02  0.24566252159E+03  0.17300000000E+03 0. -1.
         -6    1    1    2    0  502 -0.95962481376E+02 -0.14032852225E+03 -0.49550563921E+02  0.24755837771E+03  0.17300000000E+03 0. -1.
<mgrwt>
<rscale>  2 0.24254874E+03</rscale>
<asrwt>0</asrwt>
<pdfrwt beam="1">  1       21 0.37127681E-01 0.24254874E+03</pdfrwt>
<pdfrwt beam="2">  1       21 0.38752457E-01 0.24254874E+03</pdfrwt>
<totfact> 0.43892309E+04</totfact>
</mgrwt>
</event>
<event>
 4    1  0.3902417E-001  0.2364677E+03  0.7546771E-02  0.1122169E+00
         21   -1    0    0  501  502  0.00000000000E+00  0.00000000000E+00  0.52437432222E+02  0.52437432222E+02  0.00000000000E+00 0. -1.
         21   -1    0    0  502  503 -0.00000000000E+00 -0.00000000000E+00 -0.13345770287E+04  0.13345770287E+04  0.00000000000E+00 0. -1.
          6    1    1    2  501    0 -0.14375466807E+03 -0.72956005160E+02 -0.33016646019E+03  0.40611189925E+03  0.17300000000E+03 0. -1.
         -6    1    1    2    0  503  0.14375466807E+03  0.72956005160E+02 -0.95197313633E+03  0.98090256171E+03  0.17300000000E+03 0. -1.
<mgrwt>
<rscale>  2 0.23646772E+03</rscale>
<asrwt>0</asrwt>
<pdfrwt beam="1">  1       21 0.80672957E-02 0.23646772E+03</pdfrwt>
<pdfrwt beam="2">  1       21 0.20531958E+00 0.23646772E+03</pdfrwt>
<totfact> 0.14209137E+04</totfact>
</mgrwt>
</event>
<event>
 4    1  0.3902417E-001  0.6000494E+03  0.7546771E-02  0.9905304E-01
         21   -1    0    0  503  502  0.00000000000E+00  0.00000000000E+00  0.63657668488E+03  0.63657668488E+03  0.00000000000E+00 0. -1.
         21   -1    0    0  501  503 -0.00000000000E+00 -0.00000000000E+00 -0.59116549096E+03  0.59116549096E+03  0.00000000000E+00 0.  1.
          6    1    1    2  501    0 -0.49934073557E+03  0.28423431194E+03 -0.10490762151E+03  0.60915098567E+03  0.17300000000E+03 0. -1.
         -6    1    1    2    0  502  0.49934073557E+03 -0.28423431194E+03  0.15031881544E+03  0.61859119018E+03  0.17300000000E+03 0.  1.
<mgrwt>
<rscale>  2 0.60004943E+03</rscale>
<asrwt>0</asrwt>
<pdfrwt beam="1">  1       21 0.97934875E-01 0.60004943E+03</pdfrwt>
<pdfrwt beam="2">  1       21 0.90948537E-01 0.60004943E+03</pdfrwt>
<totfact> 0.70695006E+02</totfact>
</mgrwt>
</event>
<event>
 4    1  0.3902417E-001  0.2893858E+03  0.7546771E-02  0.1090670E+00
         21   -1    0    0  501  502  0.00000000000E+00  0.00000000000E+00  0.34068023895E+03  0.34068023895E+03  0.00000000000E+00 0. -1.
         21   -1    0    0  502  503 -0.00000000000E+00 -0.00000000000E+00 -0.34514326288E+03  0.34514326288E+03  0.00000000000E+00 0.  1.
          6    1    1    2  501    0 -0.16303767375E+03 -0.16502679719E+03  0.18172716684E+03  0.34171463244E+03  0.17300000000E+03 0. -1.
         -6    1    1    2    0  503  0.16303767375E+03  0.16502679719E+03 -0.18619019078E+03  0.34410886939E+03  0.17300000000E+03 0.  1.
<mgrwt>
<rscale>  2 0.28938578E+03</rscale>
<asrwt>0</asrwt>
<pdfrwt beam="1">  1       21 0.52412344E-01 0.28938578E+03</pdfrwt>
<pdfrwt beam="2">  1       21 0.53098964E-01 0.28938578E+03</pdfrwt>
<totfact> 0.10983123E+04</totfact>
</mgrwt>
</event>
<event>
 4    1  0.3902417E-001  0.1776108E+03  0.7546771E-02  0.1170136E+00
         21   -1    0    0  501  502  0.00000000000E+00  0.00000000000E+00  0.18448916202E+03  0.18448916202E+03  0.00000000000E+00 0. -1.
         21   -1    0    0  502  503 -0.00000000000E+00 -0.00000000000E+00 -0.18881082679E+03  0.18881082679E+03  0.00000000000E+00 0. -1.
          6    1    1    2  501    0  0.39842734217E+02 -0.53994388779E+01 -0.59505357243E+02  0.18731386748E+03  0.17300000000E+03 0. -1.
         -6    1    1    2    0  503 -0.39842734217E+02  0.53994388779E+01  0.55183692471E+02  0.18598612132E+03  0.17300000000E+03 0. -1.
<mgrwt>
<rscale>  2 0.17761080E+03</rscale>
<asrwt>0</asrwt>
<pdfrwt beam="1">  1       21 0.28382948E-01 0.17761080E+03</pdfrwt>
<pdfrwt beam="2">  1       21 0.29047820E-01 0.17761080E+03</pdfrwt>
<totfact> 0.13533223E+05</totfact>
</mgrwt>
</event>
<event>
 4    1  0.3902417E-001  0.3472112E+03  0.7546771E-02  0.1063766E+00
         21   -1    0    0  503  502  0.00000000000E+00  0.00000000000E+00  0.12009678805E+04  0.12009678805E+04  0.00000000000E+00 0.  1.
         21   -1    0    0  501  503 -0.00000000000E+00 -0.00000000000E+00 -0.19027777521E+03  0.19027777521E+03  0.00000000000E+00 0. -1.
          6    1    1    2  501    0 -0.29529267142E+03 -0.58556264154E+02  0.27211354239E+02  0.34827583273E+03  0.17300000000E+03 0. -1.
         -6    1    1    2    0  502  0.29529267142E+03  0.58556264154E+02  0.98347875104E+03  0.10429698230E+04  0.17300000000E+03 0.  1.
<mgrwt>
<rscale>  2 0.34721117E+03</rscale>
<asrwt>0</asrwt>
<pdfrwt beam="1">  1       21 0.18476428E+00 0.34721117E+03</pdfrwt>
<pdfrwt beam="2">  1       21 0.29273505E-01 0.34721117E+03</pdfrwt>
<totfact> 0.16791217E+03</totfact>
</mgrwt>
</event>
<event>
 4    1  0.3902417E-001  0.2617773E+03  0.7546771E-02  0.1106080E+00
         21   -1    0    0  501  502  0.00000000000E+00  0.00000000000E+00  0.48652050373E+03  0.48652050373E+03  0.00000000000E+00 0.  1.
         21   -1    0    0  502  503 -0.00000000000E+00 -0.00000000000E+00 -0.14089922823E+03  0.14089922823E+03  0.00000000000E+00 0.  1.
          6    1    1    2  501    0 -0.19525136182E+03  0.21800791633E+02  0.17855625933E+03  0.31687490679E+03  0.17300000000E+03 0.  1.
         -6    1    1    2    0  503  0.19525136182E+03 -0.21800791633E+02  0.16706501618E+03  0.31054482517E+03  0.17300000000E+03 0.  1.
<mgrwt>
<rscale>  2 0.26177733E+03</rscale>
<asrwt>0</asrwt>
<pdfrwt beam="1">  1       21 0.74849307E-01 0.26177733E+03</pdfrwt>
<pdfrwt beam="2">  1       21 0.21676805E-01 0.26177733E+03</pdfrwt>
<totfact> 0.30638923E+04</totfact>
</mgrwt>
</event>
<event>
 4    1  0.3902417E-001  0.1781093E+03  0.7546771E-02  0.1169646E+00
         21   -1    0    0  501  502  0.00000000000E+00  0.00000000000E+00  0.72730891428E+03  0.72730891428E+03  0.00000000000E+00 0.  1.
         21   -1    0    0  502  503 -0.00000000000E+00 -0.00000000000E+00 -0.46433441023E+02  0.46433441023E+02  0.00000000000E+00 0.  1.
          6    1    1    2  501    0  0.54553148182E+01  0.42001802872E+02  0.43572044631E+03  0.47071777026E+03  0.17300000000E+03 0.  1.
         -6    1    1    2    0  503 -0.54553148182E+01 -0.42001802872E+02  0.24515502694E+03  0.30302458504E+03  0.17300000000E+03 0.  1.
<mgrwt>
<rscale>  2 0.17810927E+03</rscale>
<asrwt>0</asrwt>
<pdfrwt beam="1">  1       21 0.11189367E+00 0.17810927E+03</pdfrwt>
<pdfrwt beam="2">  1       21 0.71436068E-02 0.17810927E+03</pdfrwt>
<totfact> 0.92101894E+04</totfact>
</mgrwt>
</event>
<event>
 4    1  0.3902417E-001  0.3060339E+03  0.7546771E-02  0.1082263E+00
         21   -1    0    0  503  502  0.00000000000E+00  0.00000000000E+00  0.46967323659E+03  0.46967323659E+03  0.00000000000E+00 0.  1.
         21   -1    0    0  501  503 -0.00000000000E+00 -0.00000000000E+00 -0.20367688039E+03  0.20367688039E+03  0.00000000000E+00 0.  1.
          6    1    1    2  501    0 -0.23881116559E+03 -0.81835028143E+02  0.18173772493E+03  0.35592884866E+03  0.17300000000E+03 0.  1.
         -6    1    1    2    0  502  0.23881116559E+03  0.81835028143E+02  0.84258631271E+02  0.31742126833E+03  0.17300000000E+03 0.  1.
<mgrwt>
<rscale>  2 0.30603389E+03</rscale>
<asrwt>0</asrwt>
<pdfrwt beam="1">  1       21 0.72257420E-01 0.30603389E+03</pdfrwt>
<pdfrwt beam="2">  1       21 0.31334905E-01 0.30603389E+03</pdfrwt>
<totfact> 0.15950539E+04</totfact>
</mgrwt>
</event>
<event>
 4    1  0.3902417E-001  0.2314399E+03  0.7546771E-02  0.1125630E+00
         21   -1    0    0  501  502  0.00000000000E+00  0.00000000000E+00  0.64995574978E+03  0.64995574978E+03  0.00000000000E+00 0. -1.
         21   -1    0    0  502  503 -0.00000000000E+00 -0.00000000000E+00 -0.13253147937E+03  0.13253147937E+03  0.00000000000E+00 0. -1.
          6    1    1    2  501    0  0.14849885183E+03  0.39793602506E+02  0.49930852429E+03  0.55033938821E+03  0.17300000000E+03 0. -1.
         -6    1    1    2    0  503 -0.14849885183E+03 -0.39793602506E+02  0.18115746124E+02  0.23214784094E+03  0.17300000000E+03 0. -1.
<mgrwt>
<rscale>  2 0.23143993E+03</rscale>
<asrwt>0</asrwt>
<pdfrwt beam="1">  1       21 0.99993190E-01 0.23143993E+03</pdfrwt>
<pdfrwt beam="2">  1       21 0.20389459E-01 0.23143993E+03</pdfrwt>
<totfact> 0.17861172E+04</totfact>
</mgrwt>
</event>
<event>
 4    1  0.3902417E-001  0.1842939E+03  0.7546771E-02  0.1163711E+00
         21   -1    0    0  503  502  0.00000000000E+00  0.00000000000E+00  0.28760085020E+03  0.28760085020E+03  0.00000000000E+00 0. -1.
         21   -1    0    0  501  503 -0.00000000000E+00 -0.00000000000E+00 -0.13321625846E+03  0.13321625846E+03  0.00000000000E+00 0. -1.
          6    1    1    2  501    0 -0.61347630024E+02 -0.16483241537E+02  0.14808122527E+03  0.23641547800E+03  0.17300000000E+03 0. -1.
         -6    1    1    2    0  502  0.61347630024E+02  0.16483241537E+02  0.63033664767E+01  0.18440163066E+03  0.17300000000E+03 0. -1.
<mgrwt>
<rscale>  2 0.18429387E+03</rscale>
<asrwt>0</asrwt>
<pdfrwt beam="1">  1       21 0.44246284E-01 0.18429387E+03</pdfrwt>
<pdfrwt beam="2">  1       21 0.20494809E-01 0.18429387E+03</pdfrwt>
<totfact> 0.10851030E+05</totfact>
</mgrwt>
</event>
<event>
 4    1  0.3902417E-001  0.1767192E+03  0.7546771E-02  0.1171017E+00
         21   -1    0    0  503  502  0.00000000000E+00  0.00000000000E+00  0.16001509076E+03  0.16001509076E+03  0.00000000000E+00 0. -1.
         21   -1    0    0  501  503 -0.00000000000E+00 -0.00000000000E+00 -0.51008202999E+03  0.51008202999E+03  0.00000000000E+00 0. -1.
          6    1    1    2  501    0 -0.89571978654E+01 -0.34934711175E+02 -0.43829320338E+03  0.47257866813E+03  0.17300000000E+03 0. -1.
         -6    1    1    2    0  502  0.89571978654E+01  0.34934711175E+02  0.88226264154E+02  0.19751845262E+03  0.17300000000E+03 0. -1.
<mgrwt>
<rscale>  2 0.17671917E+03</rscale>
<asrwt>0</asrwt>
<pdfrwt beam="1">  1       21 0.24617706E-01 0.17671917E+03</pdfrwt>
<pdfrwt beam="2">  1       21 0.78474158E-01 0.17671917E+03</pdfrwt>
<totfact> 0.22618717E+04</totfact>
</mgrwt>
</event>
<event>
 4    1  0.3902417E-001  0.2054953E+03  0.7546771E-02  0.1145184E+00
         21   -1    0    0  503  502  0.00000000000E+00  0.00000000000E+00  0.92219764466E+03  0.92219764466E+03  0.00000000000E+00 0. -1.
         21   -1    0    0  501  503 -0.00000000000E+00 -0.00000000000E+00 -0.47468848598E+02  0.47468848598E+02  0.00000000000E+00 0. -1.
          6    1    1    2  501    0 -0.74485302283E+02  0.82166033475E+02  0.52851705781E+03  0.56706137032E+03  0.17300000000E+03 0. -1.
         -6    1    1    2    0  502  0.74485302283E+02 -0.82166033475E+02  0.34621173825E+03  0.40260512294E+03  0.17300000000E+03 0. -1.
<mgrwt>
<rscale>  2 0.20549530E+03</rscale>
<asrwt>0</asrwt>
<pdfrwt beam="1">  1       21 0.14187655E+00 0.20549530E+03</pdfrwt>
<pdfrwt beam="2">  1       21 0.73029005E-02 0.20549530E+03</pdfrwt>
<totfact> 0.48251592E+04</totfact>
</mgrwt>
</event>
<event>
 4    1  0.3902417E-001  0.2364351E+03  0.7546771E-02  0.1122191E+00
         21   -1    0    0  501  502  0.00000000000E+00  0.00000000000E+00  0.56106196203E+03  0.56106196203E+03  0.00000000000E+00 0. -1.
         21   -1    0    0  502  503 -0.00000000000E+00 -0.00000000000E+00 -0.99747798475E+02  0.99747798475E+02  0.00000000000E+00 0. -1.
          6    1    1    2  501    0  0.32527515797E+02 -0.15784331305E+03  0.21955874113E+03  0.32265708045E+03  0.17300000000E+03 0. -1.
         -6    1    1    2    0  503 -0.32527515797E+02  0.15784331305E+03  0.24175542243E+03  0.33815268006E+03  0.17300000000E+03 0. -1.
<mgrwt>
<rscale>  2 0.23643509E+03</rscale>
<asrwt>0</asrwt>
<pdfrwt beam="1">  1       21 0.86317223E-01 0.23643509E+03</pdfrwt>
<pdfrwt beam="2">  1       21 0.15345815E-01 0.23643509E+03</pdfrwt>
<totfact> 0.42607961E+04</totfact>
</mgrwt>
</event>
<event>
 4    1  0.3902417E-001  0.2234476E+03  0.7546771E-02  0.1131339E+00
         21   -1    0    0  501  502  0.00000000000E+00  0.00000000000E+00  0.72047662193E+03  0.72047662193E+03  0.00000000000E+00 0.  1.
         21   -1    0    0  502  503 -0.00000000000E+00 -0.00000000000E+00 -0.16361828182E+03  0.16361828182E+03  0.00000000000E+00 0.  1.
          6    1    1    2  501    0 -0.22035185620E+02  0.13969347035E+03  0.61405208458E+03  0.65344378307E+03  0.17300000000E+03 0.  1.
         -6    1    1    2    0  503  0.22035185620E+02 -0.13969347035E+03 -0.57193744464E+02  0.23065112068E+03  0.17300000000E+03 0.  1.
<mgrwt>
<rscale>  2 0.22344757E+03</rscale>
<asrwt>0</asrwt>
<pdfrwt beam="1">  1       21 0.11084256E+00 0.22344757E+03</pdfrwt>
<pdfrwt beam="2">  1       21 0.25172044E-01 0.22344757E+03</pdfrwt>
<totfact> 0.93826000E+03</totfact>
</mgrwt>
</event>
<event>
 4    1  0.3902417E-001  0.1907247E+03  0.7546771E-02  0.1157809E+00
         21   -1    0    0  503  502  0.00000000000E+00  0.00000000000E+00  0.21538161125E+03  0.21538161125E+03  0.00000000000E+00 0.  1.
         21   -1    0    0  501  503 -0.00000000000E+00 -0.00000000000E+00 -0.18461779269E+03  0.18461779269E+03  0.00000000000E+00 0.  1.
          6    1    1    2  501    0  0.79595051796E+02  0.10560499423E+02 -0.42992204377E+02  0.19551016868E+03  0.17300000000E+03 0.  1.
         -6    1    1    2    0  502 -0.79595051796E+02 -0.10560499423E+02  0.73756022940E+02  0.20448923526E+03  0.17300000000E+03 0.  1.
<mgrwt>
<rscale>  2 0.19072466E+03</rscale>
<asrwt>0</asrwt>
<pdfrwt beam="1">  1       21 0.33135633E-01 0.19072466E+03</pdfrwt>
<pdfrwt beam="2">  1       21 0.28402737E-01 0.19072466E+03</pdfrwt>
<totfact> 0.10400732E+05</totfact>
</mgrwt>
</event>
<event>
 4    1  0.3902417E-001  0.1986814E+03  0.7546771E-02  0.1150856E+00
         21   -1    0    0  501  502  0.00000000000E+00  0.00000000000E+00  0.32249973107E+03  0.32249973107E+03  0.00000000000E+00 0.  1.
         21   -1    0    0  502  503 -0.00000000000E+00 -0.00000000000E+00 -0.14998521049E+03  0.14998521049E+03  0.00000000000E+00 0.  1.
          6    1    1    2  501    0 -0.66172162091E+01 -0.97475636557E+02  0.18757000779E+03  0.27323395670E+03  0.17300000000E+03 0.  1.
         -6    1    1    2    0  503  0.66172162091E+01  0.97475636557E+02 -0.15055487217E+02  0.19925098486E+03  0.17300000000E+03 0.  1.
<mgrwt>
<rscale>  2 0.19868137E+03</rscale>
<asrwt>0</asrwt>
<pdfrwt beam="1">  1       21 0.49615343E-01 0.19868137E+03</pdfrwt>
<pdfrwt beam="2">  1       21 0.23074648E-01 0.19868137E+03</pdfrwt>
<totfact> 0.68120859E+04</totfact>
</mgrwt>
</event>
<event>
 4    1  0.3902417E-001  0.2691601E+03  0.7546771E-02  0.1101761E+00
         21   -1    0    0  503  502  0.00000000000E+00  0.00000000000E+00  0.81153162114E+03  0.81153162114E+03  0.00000000000E+00 0.  1.
         21   -1    0    0  501  503 -0.00000000000E+00 -0.00000000000E+00 -0.10385308452E+03  0.10385308452E+03  0.00000000000E+00 0.  1.
          6    1    1    2  501    0 -0.50621972802E+02  0.19988885558E+03  0.52533655687E+03  0.59027589880E+03  0.17300000000E+03 0.  1.
         -6    1    1    2    0  502  0.50621972802E+02 -0.19988885558E+03  0.18234197975E+03  0.32510880685E+03  0.17300000000E+03 0.  1.
<mgrwt>
<rscale>  2 0.26916006E+03</rscale>
<asrwt>0</asrwt>
<pdfrwt beam="1">  1       21 0.12485101E+00 0.26916006E+03</pdfrwt>
<pdfrwt beam="2">  1       21 0.15977398E-01 0.26916006E+03</pdfrwt>
<totfact> 0.15995883E+04</totfact>
</mgrwt>
</event>
<event>
 4    1  0.3902417E-001  0.1923130E+03  0.7546771E-02  0.1156392E+00
         21   -1    0    0  503  502  0.00000000000E+00  0.00000000000E+00  0.15281470309E+03  0.15281470309E+03  0.00000000000E+00 0. -1.
         21   -1    0    0  501  503 -0.00000000000E+00 -0.00000000000E+00 -0.24329763122E+03  0.24329763122E+03  0.00000000000E+00 0.  1.
          6    1    1    2  501    0  0.43944843986E+02 -0.71583009095E+02 -0.59591505324E+02  0.20133411040E+03  0.17300000000E+03 0. -1.
         -6    1    1    2    0  502 -0.43944843986E+02  0.71583009095E+02 -0.30891422803E+02  0.19477822390E+03  0.17300000000E+03 0. -1.
<mgrwt>
<rscale>  2 0.19231296E+03</rscale>
<asrwt>0</asrwt>
<pdfrwt beam="1">  1       21 0.23509955E-01 0.19231296E+03</pdfrwt>
<pdfrwt beam="2">  1       21 0.37430404E-01 0.19231296E+03</pdfrwt>
<totfact> 0.11722382E+05</totfact>
</mgrwt>
</event>
<event>
 4    1  0.3902417E-001  0.1902016E+03  0.7546771E-02  0.1158280E+00
         21   -1    0    0  503  502  0.00000000000E+00  0.00000000000E+00  0.91840513939E+03  0.91840513939E+03  0.00000000000E+00 0. -1.
         21   -1    0    0  501  503 -0.00000000000E+00 -0.00000000000E+00 -0.41606181427E+02  0.41606181427E+02  0.00000000000E+00 0.  1.
          6    1    1    2  501    0  0.17070258059E+02  0.77176844454E+02  0.32763577706E+03  0.37884279252E+03  0.17300000000E+03 0.  1.
         -6    1    1    2    0  502 -0.17070258059E+02 -0.77176844454E+02  0.54916318090E+03  0.58116852830E+03  0.17300000000E+03 0. -1.
<mgrwt>
<rscale>  2 0.19020163E+03</rscale>
<asrwt>0</asrwt>
<pdfrwt beam="1">  1       21 0.14129308E+00 0.19020163E+03</pdfrwt>
<pdfrwt beam="2">  1       21 0.64009517E-02 0.19020163E+03</pdfrwt>
<totfact> 0.61741955E+04</totfact>
</mgrwt>
</event>
<event>
 4    1  0.3902417E-001  0.2003923E+03  0.7546771E-02  0.1149408E+00
         21   -1    0    0  503  502  0.00000000000E+00  0.00000000000E+00  0.14971542359E+03  0.14971542359E+03  0.00000000000E+00 0.  1.
         21   -1    0    0  501  503 -0.00000000000E+00 -0.00000000000E+00 -0.26995064115E+03  0.26995064115E+03  0.00000000000E+00 0. -1.
          6    1    1    2  501    0 -0.91060945731E+02  0.43999567270E+02 -0.76906064356E+02  0.21464296050E+03  0.17300000000E+03 0. -1.
         -6    1    1    2    0  502  0.91060945731E+02 -0.43999567270E+02 -0.43329153201E+02  0.20502310425E+03  0.17300000000E+03 0.  1.
<mgrwt>
<rscale>  2 0.20039226E+03</rscale>
<asrwt>0</asrwt>
<pdfrwt beam="1">  1       21 0.23033142E-01 0.20039226E+03</pdfrwt>
<pdfrwt beam="2">  1       21 0.41530868E-01 0.20039226E+03</pdfrwt>
<totfact> 0.98497014E+04</totfact>
</mgrwt>
</event>
<event>
 4    1  0.3902417E-001  0.2498607E+03  0.7546771E-02  0.1113393E+00
         21   -1    0    0  501  502  0.00000000000E+00  0.00000000000E+00  0.40600043562E+03  0.40600043562E+03  0.00000000000E+00 0. -1.
         21   -1    0    0  502  503 -0.00000000000E+00 -0.00000000000E+00 -0.15639492660E+03  0.15639492660E+03  0.00000000000E+00 0.  1.
          6    1    1    2  501    0 -0.17981070272E+03  0.13017923257E+02  0.16123841044E+03  0.29736876120E+03  0.17300000000E+03 0.  1.
         -6    1    1    2    0  503  0.17981070272E+03 -0.13017923257E+02  0.88367098581E+02  0.26502660102E+03  0.17300000000E+03 0. -1.
<mgrwt>
<rscale>  2 0.24986067E+03</rscale>
<asrwt>0</asrwt>
<pdfrwt beam="1">  1       21 0.62461605E-01 0.24986067E+03</pdfrwt>
<pdfrwt beam="2">  1       21 0.24060758E-01 0.24986067E+03</pdfrwt>
<totfact> 0.37670216E+04</totfact>
</mgrwt>
</event>
<event>
 4    1  0.3902417E-001  0.1862564E+03  0.7546771E-02  0.1161882E+00
         21   -1    0    0  503  502  0.00000000000E+00  0.00000000000E+00  0.87104619087E+03  0.87104619087E+03  0.00000000000E+00 0. -1.
         21   -1    0    0  501  503 -0.00000000000E+00 -0.00000000000E+00 -0.41115709293E+02  0.41115709293E+02  0.00000000000E+00 0.  1.
          6    1    1    2  501    0  0.30461980715E+02  0.61923370578E+02  0.33423031422E+03  0.38262427920E+03  0.17300000000E+03 0.  1.
         -6    1    1    2    0  502 -0.30461980715E+02 -0.61923370578E+02  0.49570016735E+03  0.52953762096E+03  0.17300000000E+03 0. -1.
<mgrwt>
<rscale>  2 0.18625637E+03</rscale>
<asrwt>0</asrwt>
<pdfrwt beam="1">  1       21 0.13400709E+00 0.18625637E+03</pdfrwt>
<pdfrwt beam="2">  1       21 0.63254944E-02 0.18625637E+03</pdfrwt>
<totfact> 0.72317439E+04</totfact>
</mgrwt>
</event>
<event>
 4    1  0.3902417E-001  0.2098406E+03  0.7546771E-02  0.1141692E+00
         21   -1    0    0  503  502  0.00000000000E+00  0.00000000000E+00  0.43409689083E+03  0.43409689083E+03  0.00000000000E+00 0.  1.
         21   -1    0    0  501  503 -0.00000000000E+00 -0.00000000000E+00 -0.10536705364E+03  0.10536705364E+03  0.00000000000E+00 0. -1.
          6    1    1    2  501    0  0.11175106148E+03 -0.40196691038E+02  0.11226563401E+03  0.23798455053E+03  0.17300000000E+03 0. -1.
         -6    1    1    2    0  502 -0.11175106148E+03  0.40196691038E+02  0.21646420318E+03  0.30147939394E+03  0.17300000000E+03 0.  1.
<mgrwt>
<rscale>  2 0.20984059E+03</rscale>
<asrwt>0</asrwt>
<pdfrwt beam="1">  1       21 0.66784136E-01 0.20984059E+03</pdfrwt>
<pdfrwt beam="2">  1       21 0.16210316E-01 0.20984059E+03</pdfrwt>
<totfact> 0.69403109E+04</totfact>
</mgrwt>
</event>
<event>
 4    1  0.3902417E-001  0.1930890E+03  0.7546771E-02  0.1155704E+00
         21   -1    0    0  503  502  0.00000000000E+00  0.00000000000E+00  0.76968361786E+03  0.76968361786E+03  0.00000000000E+00 0. -1.
         21   -1    0    0  501  503 -0.00000000000E+00 -0.00000000000E+00 -0.48668655184E+02  0.48668655184E+02  0.00000000000E+00 0. -1.
          6    1    1    2  501    0  0.32311350851E+02  0.79437676425E+02  0.33245264997E+03  0.38445823220E+03  0.17300000000E+03 0. -1.
         -6    1    1    2    0  502 -0.32311350851E+02 -0.79437676425E+02  0.38856231271E+03  0.43389404085E+03  0.17300000000E+03 0. -1.
<mgrwt>
<rscale>  2 0.19308902E+03</rscale>
<asrwt>0</asrwt>
<pdfrwt beam="1">  1       21 0.11841286E+00 0.19308902E+03</pdfrwt>
<pdfrwt beam="2">  1       21 0.74874860E-02 0.19308902E+03</pdfrwt>
<totfact> 0.73471220E+04</totfact>
</mgrwt>
</event>
<event>
 4    1  0.3902417E-001  0.1854926E+03  0.7546771E-02  0.1162591E+00
         21   -1    0    0  503  502  0.00000000000E+00  0.00000000000E+00  0.10145449144E+04  0.10145449144E+04  0.00000000000E+00 0.  1.
         21   -1    0    0  501  503 -0.00000000000E+00 -0.00000000000E+00 -0.50835629596E+02  0.50835629596E+02  0.00000000000E+00 0.  1.
          6    1    1    2  501    0 -0.66663826685E+02 -0.58676402812E+01  0.17452178940E+03  0.25468676834E+03  0.17300000000E+03 0.  1.
         -6    1    1    2    0  502  0.66663826685E+02  0.58676402812E+01  0.78918749545E+03  0.81069377571E+03  0.17300000000E+03 0.  1.
<mgrwt>
<rscale>  2 0.18549257E+03</rscale>
<asrwt>0</asrwt>
<pdfrwt beam="1">  1       21 0.15608382E+00 0.18549257E+03</pdfrwt>
<pdfrwt beam="2">  1       21 0.78208669E-02 0.18549257E+03</pdfrwt>
<totfact> 0.33728818E+04</totfact>
</mgrwt>
</event>
<event>
 4    1  0.3902417E-001  0.3585863E+03  0.7546771E-02  0.1059145E+00
         21   -1    0    0  503  502  0.00000000000E+00  0.00000000000E+00  0.57579658710E+03  0.57579658710E+03  0.00000000000E+00 0.  1.
         21   -1    0    0  501  503 -0.00000000000E+00 -0.00000000000E+00 -0.22722961271E+03  0.22722961271E+03  0.00000000000E+00 0. -1.
          6    1    1    2  501    0  0.19620887132E+03 -0.24526968612E+03  0.12158482527E+03  0.37863836288E+03  0.17300000000E+03 0.  1.
         -6    1    1    2    0  502 -0.19620887132E+03  0.24526968612E+03  0.22698214912E+03  0.42438783693E+03  0.17300000000E+03 0.  1.
<mgrwt>
<rscale>  2 0.35858631E+03</rscale>
<asrwt>0</asrwt>
<pdfrwt beam="1">  1       21 0.88584090E-01 0.35858631E+03</pdfrwt>
<pdfrwt beam="2">  1       21 0.34958402E-01 0.35858631E+03</pdfrwt>
<totfact> 0.78662940E+03</totfact>
</mgrwt>
</event>
<event>
 4    1  0.3902417E-001  0.2794863E+03  0.7546771E-02  0.1095970E+00
         21   -1    0    0  503  502  0.00000000000E+00  0.00000000000E+00  0.53100877376E+03  0.53100877376E+03  0.00000000000E+00 0. -1.
         21   -1    0    0  501  503 -0.00000000000E+00 -0.00000000000E+00 -0.15304755819E+03  0.15304755819E+03  0.00000000000E+00 0. -1.
          6    1    1    2  501    0  0.11087629826E+02  0.21922741495E+03  0.12156892099E+03  0.30478122900E+03  0.17300000000E+03 0. -1.
         -6    1    1    2    0  502 -0.11087629826E+02 -0.21922741495E+03  0.25639229458E+03  0.37927510295E+03  0.17300000000E+03 0. -1.
<mgrwt>
<rscale>  2 0.27948631E+03</rscale>
<asrwt>0</asrwt>
<pdfrwt beam="1">  1       21 0.81693656E-01 0.27948631E+03</pdfrwt>
<pdfrwt beam="2">  1       21 0.23545778E-01 0.27948631E+03</pdfrwt>
<totfact> 0.21293748E+04</totfact>
</mgrwt>
</event>
<event>
 4    1  0.3902417E-001  0.2395829E+03  0.7546771E-02  0.1120071E+00
         21   -1    0    0  501  502  0.00000000000E+00  0.00000000000E+00  0.98409737011E+02  0.98409737011E+02  0.00000000000E+00 0. -1.
         21   -1    0    0  502  503 -0.00000000000E+00 -0.00000000000E+00 -0.60565138506E+03  0.60565138506E+03  0.00000000000E+00 0.  1.
          6    1    1    2  501    0 -0.16213949561E+03 -0.34376707673E+02 -0.18595637482E+03  0.30328163050E+03  0.17300000000E+03 0.  1.
         -6    1    1    2    0  503  0.16213949561E+03  0.34376707673E+02 -0.32128527323E+03  0.40077949157E+03  0.17300000000E+03 0.  1.
<mgrwt>
<rscale>  2 0.23958292E+03</rscale>
<asrwt>0</asrwt>
<pdfrwt beam="1">  1       21 0.15139959E-01 0.23958292E+03</pdfrwt>
<pdfrwt beam="2">  1       21 0.93177138E-01 0.23958292E+03</pdfrwt>
<totfact> 0.36504172E+04</totfact>
</mgrwt>
</event>
<event>
 4    1  0.3902417E-001  0.2385299E+03  0.7546771E-02  0.1120776E+00
         21   -1    0    0  501  502  0.00000000000E+00  0.00000000000E+00  0.12496280887E+04  0.12496280887E+04  0.00000000000E+00 0. -1.
         21   -1    0    0  502  503 -0.00000000000E+00 -0.00000000000E+00 -0.55668679322E+02  0.55668679322E+02  0.00000000000E+00 0. -1.
          6    1    1    2  501    0  0.12667834881E+03  0.10449922810E+03  0.87549473186E+03  0.90740703008E+03  0.17300000000E+03 0. -1.
         -6    1    1    2    0  503 -0.12667834881E+03 -0.10449922810E+03  0.31846467753E+03  0.39788973795E+03  0.17300000000E+03 0. -1.
<mgrwt>
<rscale>  2 0.23852986E+03</rscale>
<asrwt>0</asrwt>
<pdfrwt beam="1">  1       21 0.19225045E+00 0.23852986E+03</pdfrwt>
<pdfrwt beam="2">  1       21 0.85644132E-02 0.23852986E+03</pdfrwt>
<totfact> 0.15541741E+04</totfact>
</mgrwt>
</event>
<event>
 4    1  0.3902417E-001  0.2764811E+03  0.7546771E-02  0.1097627E+00
         21   -1    0    0  501  502  0.00000000000E+00  0.00000000000E+00  0.11450109267E+04  0.11450109267E+04  0.00000000000E+00 0. -1.
         21   -1    0    0  502  503 -0.00000000000E+00 -0.00000000000E+00 -0.77299311704E+02  0.77299311704E+02  0.00000000000E+00 0. -1.
          6    1    1    2  501    0 -0.14139948060E+03 -0.16284646828E+03  0.75951569306E+03  0.80827339023E+03  0.17300000000E+03 0. -1.
         -6    1    1    2    0  503  0.14139948060E+03  0.16284646828E+03  0.30819592193E+03  0.41403684817E+03  0.17300000000E+03 0. -1.
<mgrwt>
<rscale>  2 0.27648108E+03</rscale>
<asrwt>0</asrwt>
<pdfrwt beam="1">  1       21 0.17615552E+00 0.27648108E+03</pdfrwt>
<pdfrwt beam="2">  1       21 0.11892203E-01 0.27648108E+03</pdfrwt>
<totfact> 0.10898219E+04</totfact>
</mgrwt>
</event>
<event>
 4    1  0.3902417E-001  0.2056795E+03  0.7546771E-02  0.1145034E+00
         21   -1    0    0  503  502  0.00000000000E+00  0.00000000000E+00  0.19227012366E+04  0.19227012366E+04  0.00000000000E+00 0.  1.
         21   -1    0    0  501  503 -0.00000000000E+00 -0.00000000000E+00 -0.22009043730E+02  0.22009043730E+02  0.00000000000E+00 0.  1.
          6    1    1    2  501    0 -0.90447563979E+02  0.64763395755E+02  0.93346380482E+03  0.95585497549E+03  0.17300000000E+03 0.  1.
         -6    1    1    2    0  502  0.90447563979E+02 -0.64763395755E+02  0.96722838800E+03  0.98885530479E+03  0.17300000000E+03 0.  1.
<mgrwt>
<rscale>  2 0.20567951E+03</rscale>
<asrwt>0</asrwt>
<pdfrwt beam="1">  1       21 0.29580006E+00 0.20567951E+03</pdfrwt>
<pdfrwt beam="2">  1       21 0.33860083E-02 0.20567951E+03</pdfrwt>
<totfact> 0.18444475E+04</totfact>
</mgrwt>
</event>
<event>
 4    1  0.3902417E-001  0.2252009E+03  0.7546771E-02  0.1130064E+00
         21   -1    0    0  501  502  0.00000000000E+00  0.00000000000E+00  0.59936971140E+03  0.59936971140E+03  0.00000000000E+00 0. -1.
         21   -1    0    0  502  503 -0.00000000000E+00 -0.00000000000E+00 -0.84749995740E+02  0.84749995740E+02  0.00000000000E+00 0. -1.
          6    1    1    2  501    0  0.77019987708E+02 -0.12187842504E+03  0.27098189157E+03  0.35234445441E+03  0.17300000000E+03 0. -1.
         -6    1    1    2    0  503 -0.77019987708E+02  0.12187842504E+03  0.24363782409E+03  0.33177525273E+03  0.17300000000E+03 0. -1.
<mgrwt>
<rscale>  2 0.22520086E+03</rscale>
<asrwt>0</asrwt>
<pdfrwt beam="1">  1       21 0.92210722E-01 0.22520086E+03</pdfrwt>
<pdfrwt beam="2">  1       21 0.13038461E-01 0.22520086E+03</pdfrwt>
<totfact> 0.49417681E+04</totfact>
</mgrwt>
</event>
<event>
 4    1  0.3902417E-001  0.2659905E+03  0.7546771E-02  0.1103597E+00
         21   -1    0    0  503  502  0.00000000000E+00  0.00000000000E+00  0.69743902332E+03  0.69743902332E+03  0.00000000000E+00 0. -1.
         21   -1    0    0  501  503 -0.00000000000E+00 -0.00000000000E+00 -0.35983815741E+03  0.35983815741E+03  0.00000000000E+00 0. -1.
          6    1    1    2  501    0  0.15488369442E+03  0.12974196168E+03 -0.27916724936E+03  0.38559731396E+03  0.17300000000E+03 0. -1.
         -6    1    1    2    0  502 -0.15488369442E+03 -0.12974196168E+03  0.61676811527E+03  0.67167986678E+03  0.17300000000E+03 0. -1.
<mgrwt>
<rscale>  2 0.26599048E+03</rscale>
<asrwt>0</asrwt>
<pdfrwt beam="1">  1       21 0.10729831E+00 0.26599048E+03</pdfrwt>
<pdfrwt beam="2">  1       21 0.55359717E-01 0.26599048E+03</pdfrwt>
<totfact> 0.20133493E+03</totfact>
</mgrwt>
</event>
<event>
 4    1  0.3902417E-001  0.2274250E+03  0.7546771E-02  0.1128465E+00
         21   -1    0    0  501  502  0.00000000000E+00  0.00000000000E+00  0.94242222473E+02  0.94242222473E+02  0.00000000000E+00 0. -1.
         21   -1    0    0  502  503 -0.00000000000E+00 -0.00000000000E+00 -0.84407876856E+03  0.84407876856E+03  0.00000000000E+00 0.  1.
          6    1    1    2  501    0  0.11527807993E+03 -0.92217654730E+02 -0.97439060999E+02  0.24741968831E+03  0.17300000000E+03 0. -1.
         -6    1    1    2    0  503 -0.11527807993E+03  0.92217654730E+02 -0.65239748508E+03  0.69090130272E+03  0.17300000000E+03 0.  1.
<mgrwt>
<rscale>  2 0.22742500E+03</rscale>
<asrwt>0</asrwt>
<pdfrwt beam="1">  1       21 0.14498804E-01 0.22742500E+03</pdfrwt>
<pdfrwt beam="2">  1       21 0.12985827E+00 0.22742500E+03</pdfrwt>
<totfact> 0.17693416E+04</totfact>
</mgrwt>
</event>
<event>
 4    1  0.3902417E-001  0.2819376E+03  0.7546771E-02  0.1094635E+00
         21   -1    0    0  501  502  0.00000000000E+00  0.00000000000E+00  0.23271098448E+03  0.23271098448E+03  0.00000000000E+00 0. -1.
         21   -1    0    0  502  503 -0.00000000000E+00 -0.00000000000E+00 -0.34231346987E+03  0.34231346987E+03  0.00000000000E+00 0. -1.
          6    1    1    2  501    0  0.21064766238E+03  0.72023571190E+02 -0.68132748281E+02  0.29005327762E+03  0.17300000000E+03 0. -1.
         -6    1    1    2    0  503 -0.21064766238E+03 -0.72023571190E+02 -0.41469737111E+02  0.28497117673E+03  0.17300000000E+03 0. -1.
<mgrwt>
<rscale>  2 0.28193764E+03</rscale>
<asrwt>0</asrwt>
<pdfrwt beam="1">  1       21 0.35801690E-01 0.28193764E+03</pdfrwt>
<pdfrwt beam="2">  1       21 0.52663610E-01 0.28193764E+03</pdfrwt>
<totfact> 0.24615010E+04</totfact>
</mgrwt>
</event>
<event>
 4    1  0.3902417E-001  0.1862830E+03  0.7546771E-02  0.1161857E+00
         21   -1    0    0  501  502  0.00000000000E+00  0.00000000000E+00  0.93813732818E+02  0.93813732818E+02  0.00000000000E+00 0.  1.
         21   -1    0    0  502  503 -0.00000000000E+00 -0.00000000000E+00 -0.41667500535E+03  0.41667500535E+03  0.00000000000E+00 0.  1.
          6    1    1    2  501    0  0.57838538094E+02 -0.37776337268E+02 -0.75907864571E+02  0.20115504480E+03  0.17300000000E+03 0.  1.
         -6    1    1    2    0  503 -0.57838538094E+02  0.37776337268E+02 -0.24695340796E+03  0.30933369336E+03  0.17300000000E+03 0.  1.
<mgrwt>
<rscale>  2 0.18628298E+03</rscale>
<asrwt>0</asrwt>
<pdfrwt beam="1">  1       21 0.14432882E-01 0.18628298E+03</pdfrwt>
<pdfrwt beam="2">  1       21 0.64103847E-01 0.18628298E+03</pdfrwt>
<totfact> 0.94748573E+04</totfact>
</mgrwt>
</event>
<event>
 4    1  0.3902417E-001  0.2190086E+03  0.7546771E-02  0.1134624E+00
         21   -1    0    0  501  502  0.00000000000E+00  0.00000000000E+00  0.96330933088E+02  0.96330933088E+02  0.00000000000E+00 0. -1.
         21   -1    0    0  502  503 -0.00000000000E+00 -0.00000000000E+00 -0.76988036680E+03  0.76988036680E+03  0.00000000000E+00 0. -1.
          6    1    1    2  501    0  0.74197872969E+02  0.11193936694E+03 -0.79357284856E+02  0.23294275023E+03  0.17300000000E+03 0. -1.
         -6    1    1    2    0  503 -0.74197872969E+02 -0.11193936694E+03 -0.59419214885E+03  0.63326854965E+03  0.17300000000E+03 0. -1.
<mgrwt>
<rscale>  2 0.21900855E+03</rscale>
<asrwt>0</asrwt>
<pdfrwt beam="1">  1       21 0.14820143E-01 0.21900855E+03</pdfrwt>
<pdfrwt beam="2">  1       21 0.11844313E+00 0.21900855E+03</pdfrwt>
<totfact> 0.21523552E+04</totfact>
</mgrwt>
</event>
<event>
 4    1  0.3902417E-001  0.3186154E+03  0.7546771E-02  0.1076288E+00
         21   -1    0    0  503  502  0.00000000000E+00  0.00000000000E+00  0.13515138441E+03  0.13515138441E+03  0.00000000000E+00 0.  1.
         21   -1    0    0  501  503 -0.00000000000E+00 -0.00000000000E+00 -0.10307693996E+04  0.10307693996E+04  0.00000000000E+00 0. -1.
          6    1    1    2  501    0  0.42255760060E+02  0.26419920620E+03 -0.75144991690E+03  0.81620631425E+03  0.17300000000E+03 0.  1.
         -6    1    1    2    0  502 -0.42255760060E+02 -0.26419920620E+03 -0.14416809833E+03  0.34971446980E+03  0.17300000000E+03 0.  1.
<mgrwt>
<rscale>  2 0.31861539E+03</rscale>
<asrwt>0</asrwt>
<pdfrwt beam="1">  1       21 0.20792521E-01 0.31861539E+03</pdfrwt>
<pdfrwt beam="2">  1       21 0.15857991E+00 0.31861539E+03</pdfrwt>
<totfact> 0.50878981E+03</totfact>
</mgrwt>
</event>
<event>
 4    1  0.3902417E-001  0.1913670E+03  0.7546771E-02  0.1157234E+00
         21   -1    0    0  501  502  0.00000000000E+00  0.00000000000E+00  0.52765004270E+02  0.52765004270E+02  0.00000000000E+00 0. -1.
         21   -1    0    0  502  503 -0.00000000000E+00 -0.00000000000E+00 -0.71644140305E+03  0.71644140305E+03  0.00000000000E+00 0. -1.
          6    1    1    2  501    0  0.10278175449E+02  0.81158386348E+02 -0.39983756571E+03  0.44327350870E+03  0.17300000000E+03 0. -1.
         -6    1    1    2    0  503 -0.10278175449E+02 -0.81158386348E+02 -0.26383883307E+03  0.32593289862E+03  0.17300000000E+03 0. -1.
<mgrwt>
<rscale>  2 0.19136699E+03</rscale>
<asrwt>0</asrwt>
<pdfrwt beam="1">  1       21 0.81176928E-02 0.19136699E+03</pdfrwt>
<pdfrwt beam="2">  1       21 0.11022176E+00 0.19136699E+03</pdfrwt>
<totfact> 0.76081212E+04</totfact>
</mgrwt>
</event>
<event>
 4    1  0.3902417E-001  0.2013379E+03  0.7546771E-02  0.1148615E+00
         21   -1    0    0  501  502  0.00000000000E+00  0.00000000000E+00  0.62871902841E+02  0.62871902841E+02  0.00000000000E+00 0.  1.
         21   -1    0    0  502  503 -0.00000000000E+00 -0.00000000000E+00 -0.80044306210E+03  0.80044306210E+03  0.00000000000E+00 0. -1.
          6    1    1    2  501    0 -0.79722829512E+02 -0.65208955162E+02 -0.17841382458E+03  0.26901381039E+03  0.17300000000E+03 0.  1.
         -6    1    1    2    0  503  0.79722829512E+02  0.65208955162E+02 -0.55915733468E+03  0.59430115455E+03  0.17300000000E+03 0. -1.
<mgrwt>
<rscale>  2 0.20133787E+03</rscale>
<asrwt>0</asrwt>
<pdfrwt beam="1">  1       21 0.96726001E-02 0.20133787E+03</pdfrwt>
<pdfrwt beam="2">  1       21 0.12314509E+00 0.20133787E+03</pdfrwt>
<totfact> 0.42407820E+04</totfact>
</mgrwt>
</event>
<event>
 4    1  0.3902417E-001  0.1738563E+03  0.7546771E-02  0.1173885E+00
         21   -1    0    0  503  502  0.00000000000E+00  0.00000000000E+00  0.49508028031E+02  0.49508028031E+02  0.00000000000E+00 0.  1.
         21   -1    0    0  501  503 -0.00000000000E+00 -0.00000000000E+00 -0.77330116255E+03  0.77330116255E+03  0.00000000000E+00 0.  1.
          6    1    1    2  501    0  0.11704097411E+01 -0.17194138450E+02 -0.55064658070E+03  0.57744061607E+03  0.17300000000E+03 0.  1.
         -6    1    1    2    0  502 -0.11704097411E+01  0.17194138450E+02 -0.17314655382E+03  0.24536857451E+03  0.17300000000E+03 0.  1.
<mgrwt>
<rscale>  2 0.17385629E+03</rscale>
<asrwt>0</asrwt>
<pdfrwt beam="1">  1       21 0.76166191E-02 0.17385629E+03</pdfrwt>
<pdfrwt beam="2">  1       21 0.11896942E+00 0.17385629E+03</pdfrwt>
<totfact> 0.71150553E+04</totfact>
</mgrwt>
</event>
<event>
 4    1  0.3902417E-001  0.2041917E+03  0.7546771E-02  0.1146250E+00
         21   -1    0    0  503  502  0.00000000000E+00  0.00000000000E+00  0.75052172555E+02  0.75052172555E+02  0.00000000000E+00 0. -1.
         21   -1    0    0  501  503 -0.00000000000E+00 -0.00000000000E+00 -0.62278654360E+03  0.62278654360E+03  0.00000000000E+00 0.  1.
          6    1    1    2  501    0  0.63281150055E+02  0.88095112702E+02 -0.38852413458E+03  0.43891372271E+03  0.17300000000E+03 0.  1.
         -6    1    1    2    0  502 -0.63281150055E+02 -0.88095112702E+02 -0.15921023647E+03  0.25892499345E+03  0.17300000000E+03 0. -1.
<mgrwt>
<rscale>  2 0.20419171E+03</rscale>
<asrwt>0</asrwt>
<pdfrwt beam="1">  1       21 0.11546488E-01 0.20419171E+03</pdfrwt>
<pdfrwt beam="2">  1       21 0.95813314E-01 0.20419171E+03</pdfrwt>
<totfact> 0.56756474E+04</totfact>
</mgrwt>
</event>
<event>
 4    1  0.3902417E-001  0.1784229E+03  0.7546771E-02  0.1169338E+00
         21   -1    0    0  503  502  0.00000000000E+00  0.00000000000E+00  0.96821556490E+02  0.96821556490E+02  0.00000000000E+00 0. -1.
         21   -1    0    0  501  503 -0.00000000000E+00 -0.00000000000E+00 -0.32892134960E+03  0.32892134960E+03  0.00000000000E+00 0. -1.
          6    1    1    2  501    0 -0.27784904665E+02 -0.33670682479E+02 -0.11192442533E+03  0.21062239381E+03  0.17300000000E+03 0. -1.
         -6    1    1    2    0  502  0.27784904665E+02  0.33670682479E+02 -0.12017536777E+03  0.21512051228E+03  0.17300000000E+03 0. -1.
<mgrwt>
<rscale>  2 0.17842286E+03</rscale>
<asrwt>0</asrwt>
<pdfrwt beam="1">  1       21 0.14895624E-01 0.17842286E+03</pdfrwt>
<pdfrwt beam="2">  1       21 0.50603285E-01 0.17842286E+03</pdfrwt>
<totfact> 0.14833744E+05</totfact>
</mgrwt>
</event>
<event>
 4    1  0.3902417E-001  0.2309405E+03  0.7546771E-02  0.1125980E+00
         21   -1    0    0  501  502  0.00000000000E+00  0.00000000000E+00  0.32068108221E+03  0.32068108221E+03  0.00000000000E+00 0. -1.
         21   -1    0    0  502  503 -0.00000000000E+00 -0.00000000000E+00 -0.17226823245E+03  0.17226823245E+03  0.00000000000E+00 0. -1.
          6    1    1    2  501    0 -0.10725593245E+03  0.10909031739E+03  0.12003197739E+03  0.26027141217E+03  0.17300000000E+03 0. -1.
         -6    1    1    2    0  503  0.10725593245E+03 -0.10909031739E+03  0.28380872372E+02  0.23267790250E+03  0.17300000000E+03 0. -1.
<mgrwt>
<rscale>  2 0.23094054E+03</rscale>
<asrwt>0</asrwt>
<pdfrwt beam="1">  1       21 0.49335551E-01 0.23094054E+03</pdfrwt>
<pdfrwt beam="2">  1       21 0.26502805E-01 0.23094054E+03</pdfrwt>
<totfact> 0.52145733E+04</totfact>
</mgrwt>
</event>
<event>
 4    1  0.3902417E-001  0.1880273E+03  0.7546771E-02  0.1160253E+00
         21   -1    0    0  503  502  0.00000000000E+00  0.00000000000E+00  0.10253510707E+03  0.10253510707E+03  0.00000000000E+00 0. -1.
         21   -1    0    0  501  503 -0.00000000000E+00 -0.00000000000E+00 -0.60522330444E+03  0.60522330444E+03  0.00000000000E+00 0.  1.
          6    1    1    2  501    0  0.46358103531E+02 -0.57237875620E+02 -0.48347661563E+03  0.51875223955E+03  0.17300000000E+03 0.  1.
         -6    1    1    2    0  502 -0.46358103531E+02  0.57237875620E+02 -0.19211581741E+02  0.18900617197E+03  0.17300000000E+03 0. -1.
<mgrwt>
<rscale>  2 0.18802725E+03</rscale>
<asrwt>0</asrwt>
<pdfrwt beam="1">  1       21 0.15774632E-01 0.18802725E+03</pdfrwt>
<pdfrwt beam="2">  1       21 0.93111276E-01 0.18802725E+03</pdfrwt>
<totfact> 0.34827925E+04</totfact>
</mgrwt>
</event>
<event>
 4    1  0.3902417E-001  0.1779399E+03  0.7546771E-02  0.1169812E+00
         21   -1    0    0  503  502  0.00000000000E+00  0.00000000000E+00  0.32253817650E+02  0.32253817650E+02  0.00000000000E+00 0. -1.
         21   -1    0    0  501  503 -0.00000000000E+00 -0.00000000000E+00 -0.98807368528E+03  0.98807368528E+03  0.00000000000E+00 0. -1.
          6    1    1    2  501    0 -0.40090818110E+02  0.11239840022E+02 -0.43683969170E+03  0.47169007192E+03  0.17300000000E+03 0. -1.
         -6    1    1    2    0  502  0.40090818110E+02 -0.11239840022E+02 -0.51898017593E+03  0.54863743102E+03  0.17300000000E+03 0. -1.
<mgrwt>
<rscale>  2 0.17793990E+03</rscale>
<asrwt>0</asrwt>
<pdfrwt beam="1">  1       21 0.49621268E-02 0.17793990E+03</pdfrwt>
<pdfrwt beam="2">  1       21 0.15201131E+00 0.17793990E+03</pdfrwt>
<totfact> 0.79226566E+04</totfact>
</mgrwt>
</event>
<event>
 4    1  0.3902417E-001  0.2269117E+03  0.7546771E-02  0.1128833E+00
         21   -1    0    0  503  502  0.00000000000E+00  0.00000000000E+00  0.14395759243E+03  0.14395759243E+03  0.00000000000E+00 0. -1.
         21   -1    0    0  501  503 -0.00000000000E+00 -0.00000000000E+00 -0.35794882090E+03  0.35794882090E+03  0.00000000000E+00 0. -1.
          6    1    1    2  501    0  0.12635114707E+03 -0.74801644337E+02 -0.11403559879E+03  0.25395475218E+03  0.17300000000E+03 0. -1.
         -6    1    1    2    0  502 -0.12635114707E+03  0.74801644337E+02 -0.99955629682E+02  0.24795166115E+03  0.17300000000E+03 0. -1.
<mgrwt>
<rscale>  2 0.22691165E+03</rscale>
<asrwt>0</asrwt>
<pdfrwt beam="1">  1       21 0.22147322E-01 0.22691165E+03</pdfrwt>
<pdfrwt beam="2">  1       21 0.55069049E-01 0.22691165E+03</pdfrwt>
<totfact> 0.58389855E+04</totfact>
</mgrwt>
</event>
<event>
 4    1  0.3902417E-001  0.1935595E+03  0.7546771E-02  0.1155290E+00
         21   -1    0    0  503  502  0.00000000000E+00  0.00000000000E+00  0.99322725315E+02  0.99322725315E+02  0.00000000000E+00 0. -1.
         21   -1    0    0  501  503 -0.00000000000E+00 -0.00000000000E+00 -0.12875255237E+04  0.12875255237E+04  0.00000000000E+00 0. -1.
          6    1    1    2  501    0 -0.52195876281E+02  0.69367516903E+02 -0.11771672820E+04  0.11929744640E+04  0.17300000000E+03 0. -1.
         -6    1    1    2    0  502  0.52195876281E+02 -0.69367516903E+02 -0.11035516387E+02  0.19387378504E+03  0.17300000000E+03 0. -1.
<mgrwt>
<rscale>  2 0.19355945E+03</rscale>
<asrwt>0</asrwt>
<pdfrwt beam="1">  1       21 0.15280418E-01 0.19355945E+03</pdfrwt>
<pdfrwt beam="2">  1       21 0.19808086E+00 0.19355945E+03</pdfrwt>
<totfact> 0.52350410E+03</totfact>
</mgrwt>
</event>
<event>
 4    1  0.3902417E-001  0.2094755E+03  0.7546771E-02  0.1141982E+00
         21   -1    0    0  503  502  0.00000000000E+00  0.00000000000E+00  0.51566889572E+03  0.51566889572E+03  0.00000000000E+00 0.  1.
         21   -1    0    0  501  503 -0.00000000000E+00 -0.00000000000E+00 -0.93777903504E+02  0.93777903504E+02  0.00000000000E+00 0. -1.
          6    1    1    2  501    0  0.23388438075E+01  0.11809112488E+03  0.11821346529E+03  0.24052943134E+03  0.17300000000E+03 0. -1.
         -6    1    1    2    0  502 -0.23388438075E+01 -0.11809112488E+03  0.30367752693E+03  0.36891736788E+03  0.17300000000E+03 0.  1.
<mgrwt>
<rscale>  2 0.20947550E+03</rscale>
<asrwt>0</asrwt>
<pdfrwt beam="1">  1       21 0.79333675E-01 0.20947550E+03</pdfrwt>
<pdfrwt beam="2">  1       21 0.14427370E-01 0.20947550E+03</pdfrwt>
<totfact> 0.58542072E+04</totfact>
</mgrwt>
</event>
<event>
 4    1  0.3902417E-001  0.1973232E+03  0.7546771E-02  0.1152017E+00
         21   -1    0    0  501  502  0.00000000000E+00  0.00000000000E+00  0.34176554136E+03  0.34176554136E+03  0.00000000000E+00 0.  1.
         21   -1    0    0  502  503 -0.00000000000E+00 -0.00000000000E+00 -0.22498151726E+03  0.22498151726E+03  0.00000000000E+00 0.  1.
          6    1    1    2  501    0 -0.92734887386E+02 -0.20191027981E+02  0.25748378768E+03  0.32439842458E+03  0.17300000000E+03 0.  1.
         -6    1    1    2    0  503  0.92734887386E+02  0.20191027981E+02 -0.14069976358E+03  0.24234863404E+03  0.17300000000E+03 0.  1.
<mgrwt>
<rscale>  2 0.19732318E+03</rscale>
<asrwt>0</asrwt>
<pdfrwt beam="1">  1       21 0.52579314E-01 0.19732318E+03</pdfrwt>
<pdfrwt beam="2">  1       21 0.34612541E-01 0.19732318E+03</pdfrwt>
<totfact> 0.27519903E+04</totfact>
</mgrwt>
</event>
<event>
 4    1  0.3902417E-001  0.2574468E+03  0.7546771E-02  0.1108687E+00
         21   -1    0    0  501  502  0.00000000000E+00  0.00000000000E+00  0.11381779239E+03  0.11381779239E+03  0.00000000000E+00 0. -1.
         21   -1    0    0  502  503 -0.00000000000E+00 -0.00000000000E+00 -0.61100798020E+03  0.61100798020E+03  0.00000000000E+00 0.  1.
          6    1    1    2  501    0  0.14111601973E+03  0.12820352914E+03 -0.32711811241E+03  0.41627531199E+03  0.17300000000E+03 0.  1.
         -6    1    1    2    0  503 -0.14111601973E+03 -0.12820352914E+03 -0.17007207539E+03  0.30855046060E+03  0.17300000000E+03 0. -1.
<mgrwt>
<rscale>  2 0.25744684E+03</rscale>
<asrwt>0</asrwt>
<pdfrwt beam="1">  1       21 0.17510430E-01 0.25744684E+03</pdfrwt>
<pdfrwt beam="2">  1       21 0.94001227E-01 0.25744684E+03</pdfrwt>
<totfact> 0.27122981E+04</totfact>
</mgrwt>
</event>
<event>
 4    1  0.3902417E-001  0.1783630E+03  0.7546771E-02  0.1169397E+00
         21   -1    0    0  501  502  0.00000000000E+00  0.00000000000E+00  0.72567862908E+03  0.72567862908E+03  0.00000000000E+00 0.  1.
         21   -1    0    0  502  503 -0.00000000000E+00 -0.00000000000E+00 -0.56918062087E+02  0.56918062087E+02  0.00000000000E+00 0. -1.
          6    1    1    2  501    0  0.40269309315E+02 -0.16209562836E+02  0.52195031019E+03  0.55158452980E+03  0.17300000000E+03 0.  1.
         -6    1    1    2    0  503 -0.40269309315E+02  0.16209562836E+02  0.14681025680E+03  0.23101216137E+03  0.17300000000E+03 0. -1.
<mgrwt>
<rscale>  2 0.17836302E+03</rscale>
<asrwt>0</asrwt>
<pdfrwt beam="1">  1       21 0.11164286E+00 0.17836302E+03</pdfrwt>
<pdfrwt beam="2">  1       21 0.87566254E-02 0.17836302E+03</pdfrwt>
<totfact> 0.65018289E+04</totfact>
</mgrwt>
</event>
<event>
 4    1  0.3902417E-001  0.2148338E+03  0.7546771E-02  0.1137794E+00
         21   -1    0    0  501  502  0.00000000000E+00  0.00000000000E+00  0.15621418752E+03  0.15621418752E+03  0.00000000000E+00 0.  1.
         21   -1    0    0  502  503 -0.00000000000E+00 -0.00000000000E+00 -0.29547487723E+03  0.29547487723E+03  0.00000000000E+00 0.  1.
          6    1    1    2  501    0 -0.19179034834E+01 -0.12736114848E+03 -0.67573791163E+02  0.22521047433E+03  0.17300000000E+03 0.  1.
         -6    1    1    2    0  503  0.19179034834E+01  0.12736114848E+03 -0.71686898545E+02  0.22647859042E+03  0.17300000000E+03 0.  1.
<mgrwt>
<rscale>  2 0.21483375E+03</rscale>
<asrwt>0</asrwt>
<pdfrwt beam="1">  1       21 0.24032952E-01 0.21483375E+03</pdfrwt>
<pdfrwt beam="2">  1       21 0.45457673E-01 0.21483375E+03</pdfrwt>
<totfact> 0.75064514E+04</totfact>
</mgrwt>
</event>
<event>
 4    1  0.3902417E-001  0.1907644E+03  0.7546771E-02  0.1157774E+00
         21   -1    0    0  503  502  0.00000000000E+00  0.00000000000E+00  0.54037402111E+03  0.54037402111E+03  0.00000000000E+00 0. -1.
         21   -1    0    0  501  503 -0.00000000000E+00 -0.00000000000E+00 -0.70823121725E+02  0.70823121725E+02  0.00000000000E+00 0. -1.
          6    1    1    2  501    0 -0.70693141589E+01 -0.80075476628E+02  0.16704468183E+03  0.25356455369E+03  0.17300000000E+03 0. -1.
         -6    1    1    2    0  502  0.70693141589E+01  0.80075476628E+02  0.30250621756E+03  0.35763258915E+03  0.17300000000E+03 0. -1.
<mgrwt>
<rscale>  2 0.19076440E+03</rscale>
<asrwt>0</asrwt>
<pdfrwt beam="1">  1       21 0.83134462E-01 0.19076440E+03</pdfrwt>
<pdfrwt beam="2">  1       21 0.10895865E-01 0.19076440E+03</pdfrwt>
<totfact> 0.87931372E+04</totfact>
</mgrwt>
</event>
<event>
 4    1  0.3902417E-001  0.3446741E+03  0.7546771E-02  0.1064822E+00
         21   -1    0    0  501  502  0.00000000000E+00  0.00000000000E+00  0.22192726014E+03  0.22192726014E+03  0.00000000000E+00 0. -1.
         21   -1    0    0  502  503 -0.00000000000E+00 -0.00000000000E+00 -0.61232942551E+03  0.61232942551E+03  0.00000000000E+00 0. -1.
          6    1    1    2  501    0 -0.24342580582E+03 -0.17209049814E+03 -0.47265572456E+02  0.34789983735E+03  0.17300000000E+03 0. -1.
         -6    1    1    2    0  503  0.24342580582E+03  0.17209049814E+03 -0.34313659291E+03  0.48635684830E+03  0.17300000000E+03 0. -1.
<mgrwt>
<rscale>  2 0.34467414E+03</rscale>
<asrwt>0</asrwt>
<pdfrwt beam="1">  1       21 0.34142655E-01 0.34467414E+03</pdfrwt>
<pdfrwt beam="2">  1       21 0.94204528E-01 0.34467414E+03</pdfrwt>
<totfact> 0.71735986E+03</totfact>
</mgrwt>
</event>
<event>
 4    1  0.3902417E-001  0.2399096E+03  0.7546771E-02  0.1119853E+00
         21   -1    0    0  503  502  0.00000000000E+00  0.00000000000E+00  0.42636093458E+02  0.42636093458E+02  0.00000000000E+00 0. -1.
         21   -1    0    0  501  503 -0.00000000000E+00 -0.00000000000E+00 -0.13922968196E+04  0.13922968196E+04  0.00000000000E+00 0. -1.
          6    1    1    2  501    0  0.12769859225E+03 -0.10639864123E+03 -0.54970502937E+03  0.59977680902E+03  0.17300000000E+03 0. -1.
         -6    1    1    2    0  502 -0.12769859225E+03  0.10639864123E+03 -0.79995569678E+03  0.83515610405E+03  0.17300000000E+03 0. -1.
<mgrwt>
<rscale>  2 0.23990957E+03</rscale>
<asrwt>0</asrwt>
<pdfrwt beam="1">  1       21 0.65593990E-02 0.23990957E+03</pdfrwt>
<pdfrwt beam="2">  1       21 0.21419951E+00 0.23990957E+03</pdfrwt>
<totfact> 0.17849179E+04</totfact>
</mgrwt>
</event>
<event>
 4    1  0.3902417E-001  0.1773898E+03  0.7546771E-02  0.1170353E+00
         21   -1    0    0  501  502  0.00000000000E+00  0.00000000000E+00  0.30470490685E+02  0.30470490685E+02  0.00000000000E+00 0.  1.
         21   -1    0    0  502  503 -0.00000000000E+00 -0.00000000000E+00 -0.11578988402E+04  0.11578988402E+04  0.00000000000E+00 0.  1.
          6    1    1    2  501    0  0.38478480649E+02 -0.75849624732E+01 -0.36833778227E+03  0.40882740487E+03  0.17300000000E+03 0.  1.
         -6    1    1    2    0  503 -0.38478480649E+02  0.75849624732E+01 -0.75909056726E+03  0.77954192603E+03  0.17300000000E+03 0.  1.
<mgrwt>
<rscale>  2 0.17738975E+03</rscale>
<asrwt>0</asrwt>
<pdfrwt beam="1">  1       21 0.46877669E-02 0.17738975E+03</pdfrwt>
<pdfrwt beam="2">  1       21 0.17813832E+00 0.17738975E+03</pdfrwt>
<totfact> 0.56729290E+04</totfact>
</mgrwt>
</event>
<event>
 4    1  0.3902417E-001  0.5278130E+03  0.7546771E-02  0.1006764E+00
         21   -1    0    0  501  502  0.00000000000E+00  0.00000000000E+00  0.40102364188E+03  0.40102364188E+03  0.00000000000E+00 0. -1.
         21   -1    0    0  502  503 -0.00000000000E+00 -0.00000000000E+00 -0.71752338813E+03  0.71752338813E+03  0.00000000000E+00 0.  1.
          6    1    1    2  501    0  0.13687870574E+03  0.47950157857E+03 -0.58478737576E+02  0.53104265994E+03  0.17300000000E+03 0. -1.
         -6    1    1    2    0  503 -0.13687870574E+03 -0.47950157857E+03 -0.25802100867E+03  0.58750437007E+03  0.17300000000E+03 0.  1.
<mgrwt>
<rscale>  2 0.52781298E+03</rscale>
<asrwt>0</asrwt>
<pdfrwt beam="1">  1       21 0.61695946E-01 0.52781298E+03</pdfrwt>
<pdfrwt beam="2">  1       21 0.11038821E+00 0.52781298E+03</pdfrwt>
<totfact> 0.13127495E+03</totfact>
</mgrwt>
</event>
<event>
 4    1  0.3902417E-001  0.2292200E+03  0.7546771E-02  0.1127190E+00
         21   -1    0    0  501  502  0.00000000000E+00  0.00000000000E+00  0.31471844811E+03  0.31471844811E+03  0.00000000000E+00 0.  1.
         21   -1    0    0  502  503 -0.00000000000E+00 -0.00000000000E+00 -0.31309913555E+03  0.31309913555E+03  0.00000000000E+00 0. -1.
          6    1    1    2  501    0 -0.81629459346E+02  0.12629110923E+03  0.21527775912E+03  0.31446196348E+03  0.17300000000E+03 0.  1.
         -6    1    1    2    0  503  0.81629459346E+02 -0.12629110923E+03 -0.21365844657E+03  0.31335562017E+03  0.17300000000E+03 0. -1.
<mgrwt>
<rscale>  2 0.22922001E+03</rscale>
<asrwt>0</asrwt>
<pdfrwt beam="1">  1       21 0.48418223E-01 0.22922001E+03</pdfrwt>
<pdfrwt beam="2">  1       21 0.48169098E-01 0.22922001E+03</pdfrwt>
<totfact> 0.16414947E+04</totfact>
</mgrwt>
</event>
<event>
 4    1  0.3902417E-001  0.1910225E+03  0.7546771E-02  0.1157542E+00
         21   -1    0    0  501  502  0.00000000000E+00  0.00000000000E+00  0.72365737741E+02  0.72365737741E+02  0.00000000000E+00 0.  1.
         21   -1    0    0  502  503 -0.00000000000E+00 -0.00000000000E+00 -0.51273074398E+03  0.51273074398E+03  0.00000000000E+00 0.  1.
          6    1    1    2  501    0 -0.71753387010E+02 -0.37577270158E+02 -0.25783215441E+03  0.32088474508E+03  0.17300000000E+03 0.  1.
         -6    1    1    2    0  503  0.71753387010E+02  0.37577270158E+02 -0.18253285184E+03  0.26421173664E+03  0.17300000000E+03 0.  1.
<mgrwt>
<rscale>  2 0.19102251E+03</rscale>
<asrwt>0</asrwt>
<pdfrwt beam="1">  1       21 0.11133190E-01 0.19102251E+03</pdfrwt>
<pdfrwt beam="2">  1       21 0.78881655E-01 0.19102251E+03</pdfrwt>
<totfact> 0.95304978E+04</totfact>
</mgrwt>
</event>
<event>
 4    1  0.3902417E-001  0.2097059E+03  0.7546771E-02  0.1141799E+00
         21   -1    0    0  503  502  0.00000000000E+00  0.00000000000E+00  0.79893608476E+03  0.79893608476E+03  0.00000000000E+00 0. -1.
         21   -1    0    0  501  503 -0.00000000000E+00 -0.00000000000E+00 -0.56362617345E+02  0.56362617345E+02  0.00000000000E+00 0. -1.
          6    1    1    2  501    0  0.92548799637E+02 -0.74042320028E+02  0.30587273864E+03  0.37085668083E+03  0.17300000000E+03 0. -1.
         -6    1    1    2    0  502 -0.92548799637E+02  0.74042320028E+02  0.43670072877E+03  0.48444202128E+03  0.17300000000E+03 0. -1.
<mgrwt>
<rscale>  2 0.20970585E+03</rscale>
<asrwt>0</asrwt>
<pdfrwt beam="1">  1       21 0.12291324E+00 0.20970585E+03</pdfrwt>
<pdfrwt beam="2">  1       21 0.86711725E-02 0.20970585E+03</pdfrwt>
<totfact> 0.51409460E+04</totfact>
</mgrwt>
</event>
<event>
 4    1  0.3902417E-001  0.3882245E+03  0.7546771E-02  0.1047935E+00
         21   -1    0    0  503  502  0.00000000000E+00  0.00000000000E+00  0.83184014844E+03  0.83184014844E+03  0.00000000000E+00 0. -1.
         21   -1    0    0  501  503 -0.00000000000E+00 -0.00000000000E+00 -0.19643454224E+03  0.19643454224E+03  0.00000000000E+00 0.  1.
          6    1    1    2  501    0  0.14231124572E+03  0.31707530695E+03  0.17445873376E+03  0.42562200451E+03  0.17300000000E+03 0.  1.
         -6    1    1    2    0  502 -0.14231124572E+03 -0.31707530695E+03  0.46094687244E+03  0.60265268617E+03  0.17300000000E+03 0. -1.
<mgrwt>
<rscale>  2 0.38822447E+03</rscale>
<asrwt>0</asrwt>
<pdfrwt beam="1">  1       21 0.12797541E+00 0.38822447E+03</pdfrwt>
<pdfrwt beam="2">  1       21 0.30220699E-01 0.38822447E+03</pdfrwt>
<totfact> 0.42153860E+03</totfact>
</mgrwt>
</event>
<event>
 4    1  0.3902417E-001  0.2092046E+03  0.7546771E-02  0.1142197E+00
         21   -1    0    0  501  502  0.00000000000E+00  0.00000000000E+00  0.66433921180E+02  0.66433921180E+02  0.00000000000E+00 0.  1.
         21   -1    0    0  502  503 -0.00000000000E+00 -0.00000000000E+00 -0.14687834766E+04  0.14687834766E+04  0.00000000000E+00 0.  1.
          6    1    1    2  501    0  0.82690950058E+02  0.83664692617E+02 -0.13114249120E+03  0.24691076731E+03  0.17300000000E+03 0.  1.
         -6    1    1    2    0  503 -0.82690950058E+02 -0.83664692617E+02 -0.12712070642E+04  0.12883066305E+04  0.17300000000E+03 0.  1.
<mgrwt>
<rscale>  2 0.20920462E+03</rscale>
<asrwt>0</asrwt>
<pdfrwt beam="1">  1       21 0.10220604E-01 0.20920462E+03</pdfrwt>
<pdfrwt beam="2">  1       21 0.22596667E+00 0.20920462E+03</pdfrwt>
<totfact> 0.71137849E+03</totfact>
</mgrwt>
</event>
<event>
 4    1  0.3902417E-001  0.1902899E+03  0.7546771E-02  0.1158200E+00
         21   -1    0    0  503  502  0.00000000000E+00  0.00000000000E+00  0.52116811813E+03  0.52116811813E+03  0.00000000000E+00 0. -1.
         21   -1    0    0  501  503 -0.00000000000E+00 -0.00000000000E+00 -0.71360247483E+02  0.71360247483E+02  0.00000000000E+00 0. -1.
          6    1    1    2  501    0 -0.77989763217E+02  0.14101682917E+02  0.27300661857E+03  0.33278051987E+03  0.17300000000E+03 0. -1.
         -6    1    1    2    0  502  0.77989763217E+02 -0.14101682917E+02  0.17680125208E+03  0.25974784574E+03  0.17300000000E+03 0. -1.
<mgrwt>
<rscale>  2 0.19028994E+03</rscale>
<asrwt>0</asrwt>
<pdfrwt beam="1">  1       21 0.80179708E-01 0.19028994E+03</pdfrwt>
<pdfrwt beam="2">  1       21 0.10978500E-01 0.19028994E+03</pdfrwt>
<totfact> 0.94199064E+04</totfact>
</mgrwt>
</event>
<event>
 4    1  0.3902417E-001  0.1914616E+03  0.7546771E-02  0.1157150E+00
         21   -1    0    0  501  502  0.00000000000E+00  0.00000000000E+00  0.30094666241E+03  0.30094666241E+03  0.00000000000E+00 0. -1.
         21   -1    0    0  502  503 -0.00000000000E+00 -0.00000000000E+00 -0.15849092310E+03  0.15849092310E+03  0.00000000000E+00 0. -1.
          6    1    1    2  501    0  0.36811401850E+02  0.73303981740E+02  0.18174495010E+03  0.26398632527E+03  0.17300000000E+03 0. -1.
         -6    1    1    2    0  503 -0.36811401850E+02 -0.73303981740E+02 -0.39289210793E+02  0.19545126024E+03  0.17300000000E+03 0. -1.
<mgrwt>
<rscale>  2 0.19146162E+03</rscale>
<asrwt>0</asrwt>
<pdfrwt beam="1">  1       21 0.46299486E-01 0.19146162E+03</pdfrwt>
<pdfrwt beam="2">  1       21 0.24383219E-01 0.19146162E+03</pdfrwt>
<totfact> 0.71032347E+04</totfact>
</mgrwt>
</event>
<event>
 4    1  0.3902417E-001  0.2534645E+03  0.7546771E-02  0.1111135E+00
         21   -1    0    0  501  502  0.00000000000E+00  0.00000000000E+00  0.95809916432E+03  0.95809916432E+03  0.00000000000E+00 0. -1.
         21   -1    0    0  502  503 -0.00000000000E+00 -0.00000000000E+00 -0.71571306209E+02  0.71571306209E+02  0.00000000000E+00 0. -1.
          6    1    1    2  501    0  0.15940776865E+03  0.94363309924E+02  0.31392058212E+03  0.40347292703E+03  0.17300000000E+03 0. -1.
         -6    1    1    2    0  503 -0.15940776865E+03 -0.94363309924E+02  0.57260727600E+03  0.62619754351E+03  0.17300000000E+03 0. -1.
<mgrwt>
<rscale>  2 0.25346454E+03</rscale>
<asrwt>0</asrwt>
<pdfrwt beam="1">  1       21 0.14739986E+00 0.25346454E+03</pdfrwt>
<pdfrwt beam="2">  1       21 0.11010971E-01 0.25346454E+03</pdfrwt>
<totfact> 0.20641852E+04</totfact>
</mgrwt>
</event>
<event>
 4    1  0.3902417E-001  0.1994361E+03  0.7546771E-02  0.1150216E+00
         21   -1    0    0  503  502  0.00000000000E+00  0.00000000000E+00  0.50092433917E+03  0.50092433917E+03  0.00000000000E+00 0. -1.
         21   -1    0    0  501  503 -0.00000000000E+00 -0.00000000000E+00 -0.81293589809E+02  0.81293589809E+02  0.00000000000E+00 0. -1.
          6    1    1    2  501    0 -0.99199643143E+02 -0.22806172979E+01  0.16541826289E+03  0.25910996143E+03  0.17300000000E+03 0. -1.
         -6    1    1    2    0  502  0.99199643143E+02  0.22806172979E+01  0.25421248647E+03  0.32310796754E+03  0.17300000000E+03 0. -1.
<mgrwt>
<rscale>  2 0.19943613E+03</rscale>
<asrwt>0</asrwt>
<pdfrwt beam="1">  1       21 0.77065281E-01 0.19943613E+03</pdfrwt>
<pdfrwt beam="2">  1       21 0.12506706E-01 0.19943613E+03</pdfrwt>
<totfact> 0.81281674E+04</totfact>
</mgrwt>
</event>
<event>
 4    1  0.3902417E-001  0.2428662E+03  0.7546771E-02  0.1117898E+00
         21   -1    0    0  503  502  0.00000000000E+00  0.00000000000E+00  0.85907982838E+03  0.85907982838E+03  0.00000000000E+00 0.  1.
         21   -1    0    0  501  503 -0.00000000000E+00 -0.00000000000E+00 -0.83034209193E+02  0.83034209193E+02  0.00000000000E+00 0.  1.
          6    1    1    2  501    0  0.20786575611E+02 -0.16918306426E+03  0.58401758524E+03  0.63250338404E+03  0.17300000000E+03 0.  1.
         -6    1    1    2    0  502 -0.20786575611E+02  0.16918306426E+03  0.19202803395E+03  0.30961065353E+03  0.17300000000E+03 0.  1.
<mgrwt>
<rscale>  2 0.24286620E+03</rscale>
<asrwt>0</asrwt>
<pdfrwt beam="1">  1       21 0.13216612E+00 0.24286620E+03</pdfrwt>
<pdfrwt beam="2">  1       21 0.12774494E-01 0.24286620E+03</pdfrwt>
<totfact> 0.21107092E+04</totfact>
</mgrwt>
</event>
<event>
 4    1  0.3902417E-001  0.2108376E+03  0.7546771E-02  0.1140904E+00
         21   -1    0    0  503  502  0.00000000000E+00  0.00000000000E+00  0.11541216844E+04  0.11541216844E+04  0.00000000000E+00 0.  1.
         21   -1    0    0  501  503 -0.00000000000E+00 -0.00000000000E+00 -0.82481070232E+02  0.82481070232E+02  0.00000000000E+00 0.  1.
          6    1    1    2  501    0  0.36329069490E+02  0.11490736135E+03  0.84405865746E+02  0.22710537897E+03  0.17300000000E+03 0.  1.
         -6    1    1    2    0  502 -0.36329069490E+02 -0.11490736135E+03  0.98723474838E+03  0.10094973756E+04  0.17300000000E+03 0.  1.
<mgrwt>
<rscale>  2 0.21083762E+03</rscale>
<asrwt>0</asrwt>
<pdfrwt beam="1">  1       21 0.17755717E+00 0.21083762E+03</pdfrwt>
<pdfrwt beam="2">  1       21 0.12689396E-01 0.21083762E+03</pdfrwt>
<totfact> 0.98963509E+03</totfact>
</mgrwt>
</event>
<event>
 4    1  0.3902417E-001  0.1756273E+03  0.7546771E-02  0.1172103E+00
         21   -1    0    0  501  502  0.00000000000E+00  0.00000000000E+00  0.13014804256E+03  0.13014804256E+03  0.00000000000E+00 0. -1.
         21   -1    0    0  502  503 -0.00000000000E+00 -0.00000000000E+00 -0.28916403184E+03  0.28916403184E+03  0.00000000000E+00 0. -1.
          6    1    1    2  501    0 -0.12774403809E+02 -0.27436622511E+02  0.95401855793E+01  0.17588623820E+03  0.17300000000E+03 0. -1.
         -6    1    1    2    0  503  0.12774403809E+02  0.27436622511E+02 -0.16855617486E+03  0.24342583620E+03  0.17300000000E+03 0. -1.
<mgrwt>
<rscale>  2 0.17562731E+03</rscale>
<asrwt>0</asrwt>
<pdfrwt beam="1">  1       21 0.20022776E-01 0.17562731E+03</pdfrwt>
<pdfrwt beam="2">  1       21 0.44486773E-01 0.17562731E+03</pdfrwt>
<totfact> 0.11244597E+05</totfact>
</mgrwt>
</event>
<event>
 4    1  0.3902417E-001  0.1844179E+03  0.7546771E-02  0.1163595E+00
         21   -1    0    0  501  502  0.00000000000E+00  0.00000000000E+00  0.28216230768E+03  0.28216230768E+03  0.00000000000E+00 0.  1.
         21   -1    0    0  502  503 -0.00000000000E+00 -0.00000000000E+00 -0.13023998994E+03  0.13023998994E+03  0.00000000000E+00 0.  1.
          6    1    1    2  501    0 -0.32782635091E+02  0.54829486688E+02  0.19668349809E+02  0.18546379096E+03  0.17300000000E+03 0.  1.
         -6    1    1    2    0  503  0.32782635091E+02 -0.54829486688E+02  0.13225396793E+03  0.22693850667E+03  0.17300000000E+03 0.  1.
<mgrwt>
<rscale>  2 0.18441793E+03</rscale>
<asrwt>0</asrwt>
<pdfrwt beam="1">  1       21 0.43409586E-01 0.18441793E+03</pdfrwt>
<pdfrwt beam="2">  1       21 0.20036922E-01 0.18441793E+03</pdfrwt>
<totfact> 0.11768695E+05</totfact>
</mgrwt>
</event>
<event>
 4    1  0.3902417E-001  0.1869387E+03  0.7546771E-02  0.1161252E+00
         21   -1    0    0  501  502  0.00000000000E+00  0.00000000000E+00  0.43259736446E+03  0.43259736446E+03  0.00000000000E+00 0.  1.
         21   -1    0    0  502  503 -0.00000000000E+00 -0.00000000000E+00 -0.84370851432E+02  0.84370851432E+02  0.00000000000E+00 0.  1.
          6    1    1    2  501    0 -0.64387422866E+02  0.29518654451E+02  0.22742389063E+03  0.29439381314E+03  0.17300000000E+03 0.  1.
         -6    1    1    2    0  503  0.64387422866E+02 -0.29518654451E+02  0.12080262240E+03  0.22257440276E+03  0.17300000000E+03 0.  1.
<mgrwt>
<rscale>  2 0.18693874E+03</rscale>
<asrwt>0</asrwt>
<pdfrwt beam="1">  1       21 0.66553439E-01 0.18693874E+03</pdfrwt>
<pdfrwt beam="2">  1       21 0.12980131E-01 0.18693874E+03</pdfrwt>
<totfact> 0.10574215E+05</totfact>
</mgrwt>
</event>
<event>
 4    1  0.3902417E-001  0.2219318E+03  0.7546771E-02  0.1132451E+00
         21   -1    0    0  501  502  0.00000000000E+00  0.00000000000E+00  0.73210137109E+02  0.73210137109E+02  0.00000000000E+00 0.  1.
         21   -1    0    0  502  503 -0.00000000000E+00 -0.00000000000E+00 -0.68022153585E+03  0.68022153585E+03  0.00000000000E+00 0. -1.
          6    1    1    2  501    0  0.87181598371E+02 -0.10827786144E+03 -0.26408222596E+03  0.34495383523E+03  0.17300000000E+03 0. -1.
         -6    1    1    2    0  503 -0.87181598371E+02  0.10827786144E+03 -0.34292917278E+03  0.40847783772E+03  0.17300000000E+03 0.  1.
<mgrwt>
<rscale>  2 0.22193181E+03</rscale>
<asrwt>0</asrwt>
<pdfrwt beam="1">  1       21 0.11263098E-01 0.22193181E+03</pdfrwt>
<pdfrwt beam="2">  1       21 0.10464947E+00 0.22193181E+03</pdfrwt>
<totfact> 0.47684328E+04</totfact>
</mgrwt>
</event>
<event>
 4    1  0.3902417E-001  0.2209902E+03  0.7546771E-02  0.1133147E+00
         21   -1    0    0  501  502  0.00000000000E+00  0.00000000000E+00  0.16540983143E+03  0.16540983143E+03  0.00000000000E+00 0. -1.
         21   -1    0    0  502  503 -0.00000000000E+00 -0.00000000000E+00 -0.31445072280E+03  0.31445072280E+03  0.00000000000E+00 0. -1.
          6    1    1    2  501    0  0.10315989597E+03  0.90915946340E+02 -0.15226937117E+02  0.22151418250E+03  0.17300000000E+03 0.  1.
         -6    1    1    2    0  503 -0.10315989597E+03 -0.90915946340E+02 -0.13381395425E+03  0.25834637173E+03  0.17300000000E+03 0.  1.
<mgrwt>
<rscale>  2 0.22099021E+03</rscale>
<asrwt>0</asrwt>
<pdfrwt beam="1">  1       21 0.25447666E-01 0.22099021E+03</pdfrwt>
<pdfrwt beam="2">  1       21 0.48377034E-01 0.22099021E+03</pdfrwt>
<totfact> 0.58990949E+04</totfact>
</mgrwt>
</event>
<event>
 4    1  0.3902417E-001  0.1847055E+03  0.7546771E-02  0.1163325E+00
         21   -1    0    0  501  502  0.00000000000E+00  0.00000000000E+00  0.14310346978E+03  0.14310346978E+03  0.00000000000E+00 0.  1.
         21   -1    0    0  502  503 -0.00000000000E+00 -0.00000000000E+00 -0.28727986750E+03  0.28727986750E+03  0.00000000000E+00 0.  1.
          6    1    1    2  501    0 -0.61681656904E+02 -0.19557240611E+02  0.16674449848E+02  0.18545659799E+03  0.17300000000E+03 0.  1.
         -6    1    1    2    0  503  0.61681656904E+02  0.19557240611E+02 -0.16085084757E+03  0.24492673930E+03  0.17300000000E+03 0.  1.
<mgrwt>
<rscale>  2 0.18470547E+03</rscale>
<asrwt>0</asrwt>
<pdfrwt beam="1">  1       21 0.22015918E-01 0.18470547E+03</pdfrwt>
<pdfrwt beam="2">  1       21 0.44196903E-01 0.18470547E+03</pdfrwt>
<totfact> 0.95071296E+04</totfact>
</mgrwt>
</event>
<event>
 4    1  0.3902417E-001  0.1792273E+03  0.7546771E-02  0.1168553E+00
         21   -1    0    0  503  502  0.00000000000E+00  0.00000000000E+00  0.33123426452E+03  0.33123426452E+03  0.00000000000E+00 0.  1.
         21   -1    0    0  501  503 -0.00000000000E+00 -0.00000000000E+00 -0.10226663454E+03  0.10226663454E+03  0.00000000000E+00 0.  1.
          6    1    1    2  501    0 -0.48467430178E+01 -0.46582428915E+02  0.65192813468E+02  0.19071580042E+03  0.17300000000E+03 0.  1.
         -6    1    1    2    0  502  0.48467430178E+01  0.46582428915E+02  0.16377481650E+03  0.24278509864E+03  0.17300000000E+03 0.  1.
<mgrwt>
<rscale>  2 0.17922727E+03</rscale>
<asrwt>0</asrwt>
<pdfrwt beam="1">  1       21 0.50959117E-01 0.17922727E+03</pdfrwt>
<pdfrwt beam="2">  1       21 0.15733329E-01 0.17922727E+03</pdfrwt>
<totfact> 0.13228871E+05</totfact>
</mgrwt>
</event>
<event>
 4    1  0.3902417E-001  0.2115122E+03  0.7546771E-02  0.1140374E+00
         21   -1    0    0  501  502  0.00000000000E+00  0.00000000000E+00  0.17161081128E+04  0.17161081128E+04  0.00000000000E+00 0. -1.
         21   -1    0    0  502  503 -0.00000000000E+00 -0.00000000000E+00 -0.26079281537E+02  0.26079281537E+02  0.00000000000E+00 0. -1.
          6    1    1    2  501    0  0.65466878532E+02  0.10257915547E+03  0.86222546489E+03  0.88778947258E+03  0.17300000000E+03 0. -1.
         -6    1    1    2    0  503 -0.65466878532E+02 -0.10257915547E+03  0.82780336636E+03  0.85439792175E+03  0.17300000000E+03 0. -1.
<mgrwt>
<rscale>  2 0.21151216E+03</rscale>
<asrwt>0</asrwt>
<pdfrwt beam="1">  1       21 0.26401654E+00 0.21151216E+03</pdfrwt>
<pdfrwt beam="2">  1       21 0.40121985E-02 0.21151216E+03</pdfrwt>
<totfact> 0.21115975E+04</totfact>
</mgrwt>
</event>
<event>
 4    1  0.3902417E-001  0.2057427E+03  0.7546771E-02  0.1144982E+00
         21   -1    0    0  503  502  0.00000000000E+00  0.00000000000E+00  0.36370010250E+03  0.36370010250E+03  0.00000000000E+00 0.  1.
         21   -1    0    0  501  503 -0.00000000000E+00 -0.00000000000E+00 -0.13710115562E+03  0.13710115562E+03  0.00000000000E+00 0.  1.
          6    1    1    2  501    0 -0.11093394100E+03  0.97319879656E+01  0.15969642998E+02  0.20636152828E+03  0.17300000000E+03 0.  1.
         -6    1    1    2    0  502  0.11093394100E+03 -0.97319879656E+01  0.21062930388E+03  0.29443972984E+03  0.17300000000E+03 0.  1.
<mgrwt>
<rscale>  2 0.20574268E+03</rscale>
<asrwt>0</asrwt>
<pdfrwt beam="1">  1       21 0.55953862E-01 0.20574268E+03</pdfrwt>
<pdfrwt beam="2">  1       21 0.21092486E-01 0.20574268E+03</pdfrwt>
<totfact> 0.62464838E+04</totfact>
</mgrwt>
</event>
<event>
 4    1  0.3902417E-001  0.2376922E+03  0.7546771E-02  0.1121340E+00
         21   -1    0    0  501  502  0.00000000000E+00  0.00000000000E+00  0.43868989401E+03  0.43868989401E+03  0.00000000000E+00 0.  1.
         21   -1    0    0  502  503 -0.00000000000E+00 -0.00000000000E+00 -0.14969016544E+03  0.14969016544E+03  0.00000000000E+00 0. -1.
          6    1    1    2  501    0  0.14564362655E+03 -0.73188311728E+02  0.25443497255E+03  0.34818780878E+03  0.17300000000E+03 0.  1.
         -6    1    1    2    0  503 -0.14564362655E+03  0.73188311728E+02  0.34564756024E+02  0.24019225068E+03  0.17300000000E+03 0. -1.
<mgrwt>
<rscale>  2 0.23769223E+03</rscale>
<asrwt>0</asrwt>
<pdfrwt beam="1">  1       21 0.67490752E-01 0.23769223E+03</pdfrwt>
<pdfrwt beam="2">  1       21 0.23029256E-01 0.23769223E+03</pdfrwt>
<totfact> 0.34752895E+04</totfact>
</mgrwt>
</event>
<event>
 4    1  0.3902417E-001  0.1810416E+03  0.7546771E-02  0.1166799E+00
         21   -1    0    0  501  502  0.00000000000E+00  0.00000000000E+00  0.23558267730E+03  0.23558267730E+03  0.00000000000E+00 0. -1.
         21   -1    0    0  502  503 -0.00000000000E+00 -0.00000000000E+00 -0.18664729798E+03  0.18664729798E+03  0.00000000000E+00 0. -1.
          6    1    1    2  501    0  0.47537554609E+02 -0.24233310290E+02  0.13099100187E+03  0.22346076836E+03  0.17300000000E+03 0. -1.
         -6    1    1    2    0  503 -0.47537554609E+02  0.24233310290E+02 -0.82055622547E+02  0.19876920691E+03  0.17300000000E+03 0. -1.
<mgrwt>
<rscale>  2 0.18104163E+03</rscale>
<asrwt>0</asrwt>
<pdfrwt beam="1">  1       21 0.36243489E-01 0.18104163E+03</pdfrwt>
<pdfrwt beam="2">  1       21 0.28714969E-01 0.18104163E+03</pdfrwt>
<totfact> 0.85574401E+04</totfact>
</mgrwt>
</event>
<event>
 4    1  0.3902417E-001  0.1750505E+03  0.7546771E-02  0.1172681E+00
         21   -1    0    0  501  502  0.00000000000E+00  0.00000000000E+00  0.10569889432E+04  0.10569889432E+04  0.00000000000E+00 0. -1.
         21   -1    0    0  502  503 -0.00000000000E+00 -0.00000000000E+00 -0.29075431285E+02  0.29075431285E+02  0.00000000000E+00 0. -1.
          6    1    1    2  501    0 -0.90245146306E+01 -0.25144007997E+02  0.54330186646E+03  0.57080608012E+03  0.17300000000E+03 0. -1.
         -6    1    1    2    0  503  0.90245146306E+01  0.25144007997E+02  0.48461164546E+03  0.51525829437E+03  0.17300000000E+03 0. -1.
<mgrwt>
<rscale>  2 0.17505046E+03</rscale>
<asrwt>0</asrwt>
<pdfrwt beam="1">  1       21 0.16261365E+00 0.17505046E+03</pdfrwt>
<pdfrwt beam="2">  1       21 0.44731441E-02 0.17505046E+03</pdfrwt>
<totfact> 0.78960994E+04</totfact>
</mgrwt>
</event>
<event>
 4    1  0.3902417E-001  0.2103375E+03  0.7546771E-02  0.1141299E+00
         21   -1    0    0  503  502  0.00000000000E+00  0.00000000000E+00  0.13660573766E+03  0.13660573766E+03  0.00000000000E+00 0. -1.
         21   -1    0    0  501  503 -0.00000000000E+00 -0.00000000000E+00 -0.38371810825E+03  0.38371810825E+03  0.00000000000E+00 0. -1.
          6    1    1    2  501    0  0.55731356806E+02  0.10586257317E+03 -0.22630565247E+03  0.30895973341E+03  0.17300000000E+03 0. -1.
         -6    1    1    2    0  502 -0.55731356806E+02 -0.10586257317E+03 -0.20806718117E+02  0.21136411249E+03  0.17300000000E+03 0. -1.
<mgrwt>
<rscale>  2 0.21033751E+03</rscale>
<asrwt>0</asrwt>
<pdfrwt beam="1">  1       21 0.21016267E-01 0.21033751E+03</pdfrwt>
<pdfrwt beam="2">  1       21 0.59033555E-01 0.21033751E+03</pdfrwt>
<totfact> 0.55974088E+04</totfact>
</mgrwt>
</event>
<event>
 4    1  0.3902417E-001  0.2053998E+03  0.7546771E-02  0.1145261E+00
         21   -1    0    0  503  502  0.00000000000E+00  0.00000000000E+00  0.20349677274E+03  0.20349677274E+03  0.00000000000E+00 0.  1.
         21   -1    0    0  501  503 -0.00000000000E+00 -0.00000000000E+00 -0.30834019940E+03  0.30834019940E+03  0.00000000000E+00 0.  1.
          6    1    1    2  501    0 -0.11005348522E+03 -0.12178628031E+02  0.94061966033E+02  0.22591312942E+03  0.17300000000E+03 0.  1.
         -6    1    1    2    0  502  0.11005348522E+03  0.12178628031E+02 -0.19890539269E+03  0.28592384271E+03  0.17300000000E+03 0.  1.
<mgrwt>
<rscale>  2 0.20539983E+03</rscale>
<asrwt>0</asrwt>
<pdfrwt beam="1">  1       21 0.31307196E-01 0.20539983E+03</pdfrwt>
<pdfrwt beam="2">  1       21 0.47436954E-01 0.20539983E+03</pdfrwt>
<totfact> 0.41402927E+04</totfact>
</mgrwt>
</event>
<event>
 4    1  0.3902417E-001  0.2356111E+03  0.7546771E-02  0.1122752E+00
         21   -1    0    0  503  502  0.00000000000E+00  0.00000000000E+00  0.90586151750E+03  0.90586151750E+03  0.00000000000E+00 0.  1.
         21   -1    0    0  501  503 -0.00000000000E+00 -0.00000000000E+00 -0.85513653488E+02  0.85513653488E+02  0.00000000000E+00 0. -1.
          6    1    1    2  501    0 -0.85709910813E+02 -0.13504588868E+03  0.14630635011E+03  0.27734117787E+03  0.17300000000E+03 0. -1.
         -6    1    1    2    0  502  0.85709910813E+02  0.13504588868E+03  0.67404151390E+03  0.71403399311E+03  0.17300000000E+03 0.  1.
<mgrwt>
<rscale>  2 0.23561108E+03</rscale>
<asrwt>0</asrwt>
<pdfrwt beam="1">  1       21 0.13936330E+00 0.23561108E+03</pdfrwt>
<pdfrwt beam="2">  1       21 0.13155947E-01 0.23561108E+03</pdfrwt>
<totfact> 0.17529746E+04</totfact>
</mgrwt>
</event>
<event>
 4    1  0.3902417E-001  0.2378393E+03  0.7546771E-02  0.1121241E+00
         21   -1    0    0  501  502  0.00000000000E+00  0.00000000000E+00  0.38027661657E+03  0.38027661657E+03  0.00000000000E+00 0. -1.
         21   -1    0    0  502  503 -0.00000000000E+00 -0.00000000000E+00 -0.14986521669E+03  0.14986521669E+03  0.00000000000E+00 0. -1.
          6    1    1    2  501    0 -0.15991846088E+03  0.32628335526E+02  0.13803463992E+03  0.27499288032E+03  0.17300000000E+03 0. -1.
         -6    1    1    2    0  503  0.15991846088E+03 -0.32628335526E+02  0.92376759951E+02  0.25514895294E+03  0.17300000000E+03 0. -1.
<mgrwt>
<rscale>  2 0.23783928E+03</rscale>
<asrwt>0</asrwt>
<pdfrwt beam="1">  1       21 0.58504095E-01 0.23783928E+03</pdfrwt>
<pdfrwt beam="2">  1       21 0.23056187E-01 0.23783928E+03</pdfrwt>
<totfact> 0.47318151E+04</totfact>
</mgrwt>
</event>
<event>
 4    1  0.3902417E-001  0.2068437E+03  0.7546771E-02  0.1144090E+00
         21   -1    0    0  501  502  0.00000000000E+00  0.00000000000E+00  0.22177352281E+02  0.22177352281E+02  0.00000000000E+00 0.  1.
         21   -1    0    0  502  503 -0.00000000000E+00 -0.00000000000E+00 -0.21282033574E+04  0.21282033574E+04  0.00000000000E+00 0. -1.
          6    1    1    2  501    0 -0.32154876163E+02  0.10872624499E+03 -0.72422223977E+03  0.75318137589E+03  0.17300000000E+03 0. -1.
         -6    1    1    2    0  503  0.32154876163E+02 -0.10872624499E+03 -0.13818037653E+04  0.13971993338E+04  0.17300000000E+03 0. -1.
<mgrwt>
<rscale>  2 0.20684374E+03</rscale>
<asrwt>0</asrwt>
<pdfrwt beam="1">  1       21 0.34119011E-02 0.20684374E+03</pdfrwt>
<pdfrwt beam="2">  1       21 0.32741583E+00 0.20684374E+03</pdfrwt>
<totfact> 0.11930040E+04</totfact>
</mgrwt>
</event>
<event>
 4    1  0.3902417E-001  0.1860369E+03  0.7546771E-02  0.1162085E+00
         21   -1    0    0  503  502  0.00000000000E+00  0.00000000000E+00  0.10974125904E+04  0.10974125904E+04  0.00000000000E+00 0. -1.
         21   -1    0    0  501  503 -0.00000000000E+00 -0.00000000000E+00 -0.53384042550E+02  0.53384042550E+02  0.00000000000E+00 0. -1.
          6    1    1    2  501    0  0.18485832017E+02  0.65871205979E+02  0.15392481523E+03  0.24145929368E+03  0.17300000000E+03 0. -1.
         -6    1    1    2    0  502 -0.18485832017E+02 -0.65871205979E+02  0.89010373260E+03  0.90933733924E+03  0.17300000000E+03 0. -1.
<mgrwt>
<rscale>  2 0.18603694E+03</rscale>
<asrwt>0</asrwt>
<pdfrwt beam="1">  1       21 0.16883269E+00 0.18603694E+03</pdfrwt>
<pdfrwt beam="2">  1       21 0.82129304E-02 0.18603694E+03</pdfrwt>
<totfact> 0.25039836E+04</totfact>
</mgrwt>
</event>
<event>
 4    1  0.3902417E-001  0.1732954E+03  0.7546771E-02  0.1174454E+00
         21   -1    0    0  503  502  0.00000000000E+00  0.00000000000E+00  0.43953561808E+03  0.43953561808E+03  0.00000000000E+00 0. -1.
         21   -1    0    0  501  503 -0.00000000000E+00 -0.00000000000E+00 -0.77393707755E+02  0.77393707755E+02  0.00000000000E+00 0. -1.
          6    1    1    2  501    0  0.10110434351E+02  0.26042265897E+00  0.92596052567E+02  0.19648235965E+03  0.17300000000E+03 0.  1.
         -6    1    1    2    0  502 -0.10110434351E+02 -0.26042265897E+00  0.26954585776E+03  0.32044696619E+03  0.17300000000E+03 0.  1.
<mgrwt>
<rscale>  2 0.17329538E+03</rscale>
<asrwt>0</asrwt>
<pdfrwt beam="1">  1       21 0.67620863E-01 0.17329538E+03</pdfrwt>
<pdfrwt beam="2">  1       21 0.11906725E-01 0.17329538E+03</pdfrwt>
<totfact> 0.11981871E+05</totfact>
</mgrwt>
</event>
<event>
 4    1  0.3902417E-001  0.2126833E+03  0.7546771E-02  0.1139459E+00
         21   -1    0    0  503  502  0.00000000000E+00  0.00000000000E+00  0.43164981962E+03  0.43164981962E+03  0.00000000000E+00 0. -1.
         21   -1    0    0  501  503 -0.00000000000E+00 -0.00000000000E+00 -0.10880311949E+03  0.10880311949E+03  0.00000000000E+00 0. -1.
          6    1    1    2  501    0  0.12358555699E+03 -0.56399093730E+01  0.10954981345E+03  0.23923912745E+03  0.17300000000E+03 0. -1.
         -6    1    1    2    0  502 -0.12358555699E+03  0.56399093730E+01  0.21329688668E+03  0.30121381167E+03  0.17300000000E+03 0. -1.
<mgrwt>
<rscale>  2 0.21268333E+03</rscale>
<asrwt>0</asrwt>
<pdfrwt beam="1">  1       21 0.66407664E-01 0.21268333E+03</pdfrwt>
<pdfrwt beam="2">  1       21 0.16738942E-01 0.21268333E+03</pdfrwt>
<totfact> 0.66159098E+04</totfact>
</mgrwt>
</event>
<event>
 4    1  0.3902417E-001  0.1734247E+03  0.7546771E-02  0.1174323E+00
         21   -1    0    0  501  502  0.00000000000E+00  0.00000000000E+00  0.10067110407E+03  0.10067110407E+03  0.00000000000E+00 0. -1.
         21   -1    0    0  502  503 -0.00000000000E+00 -0.00000000000E+00 -0.31472969222E+03  0.31472969222E+03  0.00000000000E+00 0. -1.
          6    1    1    2  501    0 -0.22696685892E+01 -0.11915977739E+02 -0.60238008729E+02  0.18358856069E+03  0.17300000000E+03 0. -1.
         -6    1    1    2    0  503  0.22696685892E+01  0.11915977739E+02 -0.15382057942E+03  0.23181223560E+03  0.17300000000E+03 0. -1.
<mgrwt>
<rscale>  2 0.17342474E+03</rscale>
<asrwt>0</asrwt>
<pdfrwt beam="1">  1       21 0.15487862E-01 0.17342474E+03</pdfrwt>
<pdfrwt beam="2">  1       21 0.48419952E-01 0.17342474E+03</pdfrwt>
<totfact> 0.15169663E+05</totfact>
</mgrwt>
</event>
<event>
 4    1  0.3902417E-001  0.2019524E+03  0.7546771E-02  0.1148102E+00
         21   -1    0    0  501  502  0.00000000000E+00  0.00000000000E+00  0.38190457159E+02  0.38190457159E+02  0.00000000000E+00 0.  1.
         21   -1    0    0  502  503 -0.00000000000E+00 -0.00000000000E+00 -0.10821241776E+04  0.10821241776E+04  0.00000000000E+00 0.  1.
          6    1    1    2  501    0  0.90678138078E+02 -0.51315102750E+02 -0.45781419096E+03  0.50037845472E+03  0.17300000000E+03 0.  1.
         -6    1    1    2    0  503 -0.90678138078E+02  0.51315102750E+02 -0.58611952951E+03  0.61993618008E+03  0.17300000000E+03 0.  1.
<mgrwt>
<rscale>  2 0.20195238E+03</rscale>
<asrwt>0</asrwt>
<pdfrwt beam="1">  1       21 0.58754552E-02 0.20195238E+03</pdfrwt>
<pdfrwt beam="2">  1       21 0.16648063E+00 0.20195238E+03</pdfrwt>
<totfact> 0.45926946E+04</totfact>
</mgrwt>
</event>
<event>
 4    1  0.3902417E-001  0.2285646E+03  0.7546771E-02  0.1127654E+00
         21   -1    0    0  501  502  0.00000000000E+00  0.00000000000E+00  0.67711610555E+03  0.67711610555E+03  0.00000000000E+00 0.  1.
         21   -1    0    0  502  503 -0.00000000000E+00 -0.00000000000E+00 -0.86381410349E+02  0.86381410349E+02  0.00000000000E+00 0.  1.
          6    1    1    2  501    0 -0.36212875729E+02  0.14491864632E+03  0.42014084090E+03  0.47828873352E+03  0.17300000000E+03 0.  1.
         -6    1    1    2    0  503  0.36212875729E+02 -0.14491864632E+03  0.17059385429E+03  0.28520878237E+03  0.17300000000E+03 0.  1.
<mgrwt>
<rscale>  2 0.22856462E+03</rscale>
<asrwt>0</asrwt>
<pdfrwt beam="1">  1       21 0.10417171E+00 0.22856462E+03</pdfrwt>
<pdfrwt beam="2">  1       21 0.13289448E-01 0.22856462E+03</pdfrwt>
<totfact> 0.35690961E+04</totfact>
</mgrwt>
</event>
<event>
 4    1  0.3902417E-001  0.1941214E+03  0.7546771E-02  0.1154796E+00
         21   -1    0    0  503  502  0.00000000000E+00  0.00000000000E+00  0.55507238092E+02  0.55507238092E+02  0.00000000000E+00 0. -1.
         21   -1    0    0  501  503 -0.00000000000E+00 -0.00000000000E+00 -0.67898219272E+03  0.67898219272E+03  0.00000000000E+00 0. -1.
          6    1    1    2  501    0 -0.24197694151E+02 -0.84667582737E+02 -0.30738317771E+03  0.36354854684E+03  0.17300000000E+03 0. -1.
         -6    1    1    2    0  502  0.24197694151E+02  0.84667582737E+02 -0.31609177692E+03  0.37094088398E+03  0.17300000000E+03 0. -1.
<mgrwt>
<rscale>  2 0.19412143E+03</rscale>
<asrwt>0</asrwt>
<pdfrwt beam="1">  1       21 0.85395747E-02 0.19412143E+03</pdfrwt>
<pdfrwt beam="2">  1       21 0.10445880E+00 0.19412143E+03</pdfrwt>
<totfact> 0.79167323E+04</totfact>
</mgrwt>
</event>
<event>
 4    1  0.3902417E-001  0.2399502E+03  0.7546771E-02  0.1119826E+00
         21   -1    0    0  503  502  0.00000000000E+00  0.00000000000E+00  0.52467339723E+02  0.52467339723E+02  0.00000000000E+00 0. -1.
         21   -1    0    0  501  503 -0.00000000000E+00 -0.00000000000E+00 -0.11346656204E+04  0.11346656204E+04  0.00000000000E+00 0. -1.
          6    1    1    2  501    0  0.12615481680E+03 -0.10831466930E+03 -0.64871146893E+03  0.69166659260E+03  0.17300000000E+03 0. -1.
         -6    1    1    2    0  502 -0.12615481680E+03  0.10831466930E+03 -0.43348681171E+03  0.49546636749E+03  0.17300000000E+03 0. -1.
<mgrwt>
<rscale>  2 0.23995021E+03</rscale>
<asrwt>0</asrwt>
<pdfrwt beam="1">  1       21 0.80718988E-02 0.23995021E+03</pdfrwt>
<pdfrwt beam="2">  1       21 0.17456393E+00 0.23995021E+03</pdfrwt>
<totfact> 0.22722444E+04</totfact>
</mgrwt>
</event>
<event>
 4    1  0.3902417E-001  0.2040267E+03  0.7546771E-02  0.1146385E+00
         21   -1    0    0  501  502  0.00000000000E+00  0.00000000000E+00  0.19381699577E+03  0.19381699577E+03  0.00000000000E+00 0.  1.
         21   -1    0    0  502  503 -0.00000000000E+00 -0.00000000000E+00 -0.21584365049E+03  0.21584365049E+03  0.00000000000E+00 0.  1.
          6    1    1    2  501    0  0.62386754827E+02 -0.88350469529E+02  0.34038902443E+01  0.20405513743E+03  0.17300000000E+03 0.  1.
         -6    1    1    2    0  503 -0.62386754827E+02  0.88350469529E+02 -0.25430544955E+02  0.20560550883E+03  0.17300000000E+03 0.  1.
<mgrwt>
<rscale>  2 0.20402674E+03</rscale>
<asrwt>0</asrwt>
<pdfrwt beam="1">  1       21 0.29817999E-01 0.20402674E+03</pdfrwt>
<pdfrwt beam="2">  1       21 0.33206715E-01 0.20402674E+03</pdfrwt>
<totfact> 0.93725977E+04</totfact>
</mgrwt>
</event>
<event>
 4    1  0.3902417E-001  0.3411344E+03  0.7546771E-02  0.1066314E+00
         21   -1    0    0  501  502  0.00000000000E+00  0.00000000000E+00  0.95633076301E+03  0.95633076301E+03  0.00000000000E+00 0.  1.
         21   -1    0    0  502  503 -0.00000000000E+00 -0.00000000000E+00 -0.12281293009E+03  0.12281293009E+03  0.00000000000E+00 0. -1.
          6    1    1    2  501    0  0.28787221942E+03  0.59776949173E+02  0.36508776803E+03  0.49966166226E+03  0.17300000000E+03 0.  1.
         -6    1    1    2    0  503 -0.28787221942E+03 -0.59776949173E+02  0.46843006490E+03  0.57948203084E+03  0.17300000000E+03 0. -1.
<mgrwt>
<rscale>  2 0.34113443E+03</rscale>
<asrwt>0</asrwt>
<pdfrwt beam="1">  1       21 0.14712781E+00 0.34113443E+03</pdfrwt>
<pdfrwt beam="2">  1       21 0.18894298E-01 0.34113443E+03</pdfrwt>
<totfact> 0.73855713E+03</totfact>
</mgrwt>
</event>
<event>
 4    1  0.3902417E-001  0.1982127E+03  0.7546771E-02  0.1151256E+00
         21   -1    0    0  501  502  0.00000000000E+00  0.00000000000E+00  0.29513284475E+03  0.29513284475E+03  0.00000000000E+00 0.  1.
         21   -1    0    0  502  503 -0.00000000000E+00 -0.00000000000E+00 -0.21362384750E+03  0.21362384750E+03  0.00000000000E+00 0.  1.
          6    1    1    2  501    0 -0.42405541599E+02 -0.86954246094E+02  0.19691165298E+03  0.27939661765E+03  0.17300000000E+03 0.  1.
         -6    1    1    2    0  503  0.42405541599E+02  0.86954246094E+02 -0.11540265573E+03  0.22936007460E+03  0.17300000000E+03 0.  1.
<mgrwt>
<rscale>  2 0.19821269E+03</rscale>
<asrwt>0</asrwt>
<pdfrwt beam="1">  1       21 0.45405053E-01 0.19821269E+03</pdfrwt>
<pdfrwt beam="2">  1       21 0.32865207E-01 0.19821269E+03</pdfrwt>
<totfact> 0.41343761E+04</totfact>
</mgrwt>
</event>
<event>
 4    1  0.3902417E-001  0.2643735E+03  0.7546771E-02  0.1104544E+00
         21   -1    0    0  501  502  0.00000000000E+00  0.00000000000E+00  0.17762175649E+03  0.17762175649E+03  0.00000000000E+00 0. -1.
         21   -1    0    0  502  503 -0.00000000000E+00 -0.00000000000E+00 -0.69707544812E+03  0.69707544812E+03  0.00000000000E+00 0. -1.
          6    1    1    2  501    0  0.12561450728E+03 -0.15551632079E+03  0.28891888152E+02  0.26594749796E+03  0.17300000000E+03 0. -1.
         -6    1    1    2    0  503 -0.12561450728E+03  0.15551632079E+03 -0.54834557978E+03  0.60874970664E+03  0.17300000000E+03 0. -1.
<mgrwt>
<rscale>  2 0.26437347E+03</rscale>
<asrwt>0</asrwt>
<pdfrwt beam="1">  1       21 0.27326424E-01 0.26437347E+03</pdfrwt>
<pdfrwt beam="2">  1       21 0.10724238E+00 0.26437347E+03</pdfrwt>
<totfact> 0.84694066E+03</totfact>
</mgrwt>
</event>
<event>
 4    1  0.3902417E-001  0.1736371E+03  0.7546771E-02  0.1174107E+00
         21   -1    0    0  503  502  0.00000000000E+00  0.00000000000E+00  0.64970245135E+03  0.64970245135E+03  0.00000000000E+00 0.  1.
         21   -1    0    0  501  503 -0.00000000000E+00 -0.00000000000E+00 -0.49243941798E+02  0.49243941798E+02  0.00000000000E+00 0.  1.
          6    1    1    2  501    0 -0.11069811436E+02 -0.99151555079E+01  0.21632816887E+03  0.27739453434E+03  0.17300000000E+03 0. -1.
         -6    1    1    2    0  502  0.11069811436E+02  0.99151555079E+01  0.38413034068E+03  0.42155185881E+03  0.17300000000E+03 0. -1.
<mgrwt>
<rscale>  2 0.17363712E+03</rscale>
<asrwt>0</asrwt>
<pdfrwt beam="1">  1       21 0.99954217E-01 0.17363712E+03</pdfrwt>
<pdfrwt beam="2">  1       21 0.75759915E-02 0.17363712E+03</pdfrwt>
<totfact> 0.10925368E+05</totfact>
</mgrwt>
</event>
<event>
 4    1  0.3902417E-001  0.2038411E+03  0.7546771E-02  0.1146538E+00
         21   -1    0    0  503  502  0.00000000000E+00  0.00000000000E+00  0.13622698678E+03  0.13622698678E+03  0.00000000000E+00 0.  1.
         21   -1    0    0  501  503 -0.00000000000E+00 -0.00000000000E+00 -0.31805554163E+03  0.31805554163E+03  0.00000000000E+00 0.  1.
          6    1    1    2  501    0  0.10777712752E+03  0.25091228886E+01 -0.13690824346E+03  0.24555054885E+03  0.17300000000E+03 0.  1.
         -6    1    1    2    0  502 -0.10777712752E+03 -0.25091228886E+01 -0.44920311399E+02  0.20873197956E+03  0.17300000000E+03 0.  1.
<mgrwt>
<rscale>  2 0.20384113E+03</rscale>
<asrwt>0</asrwt>
<pdfrwt beam="1">  1       21 0.20957998E-01 0.20384113E+03</pdfrwt>
<pdfrwt beam="2">  1       21 0.48931621E-01 0.20384113E+03</pdfrwt>
<totfact> 0.83885359E+04</totfact>
</mgrwt>
</event>
<event>
 4    1  0.3902417E-001  0.1981623E+03  0.7546771E-02  0.1151299E+00
         21   -1    0    0  503  502  0.00000000000E+00  0.00000000000E+00  0.51490901546E+02  0.51490901546E+02  0.00000000000E+00 0.  1.
         21   -1    0    0  501  503 -0.00000000000E+00 -0.00000000000E+00 -0.78060283182E+03  0.78060283182E+03  0.00000000000E+00 0.  1.
          6    1    1    2  501    0 -0.19217773856E+02 -0.94710008572E+02 -0.42769265827E+03  0.47136961982E+03  0.17300000000E+03 0.  1.
         -6    1    1    2    0  502  0.19217773856E+02  0.94710008572E+02 -0.30141927201E+03  0.36072411355E+03  0.17300000000E+03 0.  1.
<mgrwt>
<rscale>  2 0.19816233E+03</rscale>
<asrwt>0</asrwt>
<pdfrwt beam="1">  1       21 0.79216768E-02 0.19816233E+03</pdfrwt>
<pdfrwt beam="2">  1       21 0.12009275E+00 0.19816233E+03</pdfrwt>
<totfact> 0.64166214E+04</totfact>
</mgrwt>
</event>
<event>
 4    1  0.3902417E-001  0.2278016E+03  0.7546771E-02  0.1128197E+00
         21   -1    0    0  501  502  0.00000000000E+00  0.00000000000E+00  0.15519050631E+03  0.15519050631E+03  0.00000000000E+00 0. -1.
         21   -1    0    0  502  503 -0.00000000000E+00 -0.00000000000E+00 -0.39582961210E+03  0.39582961210E+03  0.00000000000E+00 0.  1.
          6    1    1    2  501    0  0.80854466743E+02 -0.12420594498E+03 -0.22886735411E+03  0.32291458210E+03  0.17300000000E+03 0.  1.
         -6    1    1    2    0  503 -0.80854466743E+02  0.12420594498E+03 -0.11771751682E+02  0.22810553631E+03  0.17300000000E+03 0. -1.
<mgrwt>
<rscale>  2 0.22780158E+03</rscale>
<asrwt>0</asrwt>
<pdfrwt beam="1">  1       21 0.23875463E-01 0.22780158E+03</pdfrwt>
<pdfrwt beam="2">  1       21 0.60896862E-01 0.22780158E+03</pdfrwt>
<totfact> 0.40786506E+04</totfact>
</mgrwt>
</event>
<event>
 4    1  0.3902417E-001  0.1976333E+03  0.7546771E-02  0.1151751E+00
         21   -1    0    0  501  502  0.00000000000E+00  0.00000000000E+00  0.21818345919E+04  0.21818345919E+04  0.00000000000E+00 0.  1.
         21   -1    0    0  502  503 -0.00000000000E+00 -0.00000000000E+00 -0.22844395626E+02  0.22844395626E+02  0.00000000000E+00 0.  1.
          6    1    1    2  501    0  0.84232479529E+02  0.45108830090E+02  0.56675174718E+03  0.60022200900E+03  0.17300000000E+03 0.  1.
         -6    1    1    2    0  503 -0.84232479529E+02 -0.45108830090E+02  0.15922384491E+04  0.16044569785E+04  0.17300000000E+03 0.  1.
<mgrwt>
<rscale>  2 0.19763329E+03</rscale>
<asrwt>0</asrwt>
<pdfrwt beam="1">  1       21 0.33566670E+00 0.19763329E+03</pdfrwt>
<pdfrwt beam="2">  1       21 0.35145241E-02 0.19763329E+03</pdfrwt>
<totfact> 0.10265775E+04</totfact>
</mgrwt>
</event>
<event>
 4    1  0.3902417E-001  0.2172713E+03  0.7546771E-02  0.1135934E+00
         21   -1    0    0  501  502  0.00000000000E+00  0.00000000000E+00  0.20860970576E+03  0.20860970576E+03  0.00000000000E+00 0.  1.
         21   -1    0    0  502  503 -0.00000000000E+00 -0.00000000000E+00 -0.26983204239E+03  0.26983204239E+03  0.00000000000E+00 0. -1.
          6    1    1    2  501    0 -0.90235429563E+02  0.95579113468E+02  0.65482447078E+02  0.22692454815E+03  0.17300000000E+03 0.  1.
         -6    1    1    2    0  503  0.90235429563E+02 -0.95579113468E+02 -0.12670478370E+03  0.25151719999E+03  0.17300000000E+03 0. -1.
<mgrwt>
<rscale>  2 0.21727126E+03</rscale>
<asrwt>0</asrwt>
<pdfrwt beam="1">  1       21 0.32093801E-01 0.21727126E+03</pdfrwt>
<pdfrwt beam="2">  1       21 0.41512622E-01 0.21727126E+03</pdfrwt>
<totfact> 0.51572881E+04</totfact>
</mgrwt>
</event>
<event>
 4    1  0.3902417E-001  0.2040509E+03  0.7546771E-02  0.1146366E+00
         21   -1    0    0  503  502  0.00000000000E+00  0.00000000000E+00  0.23715514408E+03  0.23715514408E+03  0.00000000000E+00 0.  1.
         21   -1    0    0  501  503 -0.00000000000E+00 -0.00000000000E+00 -0.17556763242E+03  0.17556763242E+03  0.00000000000E+00 0.  1.
          6    1    1    2  501    0 -0.12745566517E+01 -0.10819489875E+03  0.30875626942E+02  0.20637360526E+03  0.17300000000E+03 0.  1.
         -6    1    1    2    0  502  0.12745566517E+01  0.10819489875E+03  0.30711884716E+02  0.20634917124E+03  0.17300000000E+03 0.  1.
<mgrwt>
<rscale>  2 0.20405088E+03</rscale>
<asrwt>0</asrwt>
<pdfrwt beam="1">  1       21 0.36485407E-01 0.20405088E+03</pdfrwt>
<pdfrwt beam="2">  1       21 0.27010405E-01 0.20405088E+03</pdfrwt>
<totfact> 0.94171736E+04</totfact>
</mgrwt>
</event>
<event>
 4    1  0.3902417E-001  0.1760438E+03  0.7546771E-02  0.1171688E+00
         21   -1    0    0  503  502  0.00000000000E+00  0.00000000000E+00  0.13314729739E+03  0.13314729739E+03  0.00000000000E+00 0. -1.
         21   -1    0    0  501  503 -0.00000000000E+00 -0.00000000000E+00 -0.23285704134E+03  0.23285704134E+03  0.00000000000E+00 0. -1.
          6    1    1    2  501    0  0.25381017097E+02  0.20450722784E+02 -0.46128158314E+02  0.18198690909E+03  0.17300000000E+03 0.  1.
         -6    1    1    2    0  502 -0.25381017097E+02 -0.20450722784E+02 -0.53581585644E+02  0.18401742964E+03  0.17300000000E+03 0.  1.
<mgrwt>
<rscale>  2 0.17604382E+03</rscale>
<asrwt>0</asrwt>
<pdfrwt beam="1">  1       21 0.20484200E-01 0.17604382E+03</pdfrwt>
<pdfrwt beam="2">  1       21 0.35824160E-01 0.17604382E+03</pdfrwt>
<totfact> 0.16670455E+05</totfact>
</mgrwt>
</event>
<event>
 4    1  0.3902417E-001  0.1911945E+03  0.7546771E-02  0.1157388E+00
         21   -1    0    0  501  502  0.00000000000E+00  0.00000000000E+00  0.20840635706E+03  0.20840635706E+03  0.00000000000E+00 0. -1.
         21   -1    0    0  502  503 -0.00000000000E+00 -0.00000000000E+00 -0.19197517697E+03  0.19197517697E+03  0.00000000000E+00 0. -1.
          6    1    1    2  501    0 -0.80031702013E+02 -0.14874613965E+02  0.67031795154E+02  0.20260451384E+03  0.17300000000E+03 0. -1.
         -6    1    1    2    0  503  0.80031702013E+02  0.14874613965E+02 -0.50600615060E+02  0.19777702018E+03  0.17300000000E+03 0. -1.
<mgrwt>
<rscale>  2 0.19119448E+03</rscale>
<asrwt>0</asrwt>
<pdfrwt beam="1">  1       21 0.32062516E-01 0.19119448E+03</pdfrwt>
<pdfrwt beam="2">  1       21 0.29534643E-01 0.19119448E+03</pdfrwt>
<totfact> 0.10284495E+05</totfact>
</mgrwt>
</event>
<event>
 4    1  0.3902417E-001  0.2181167E+03  0.7546771E-02  0.1135295E+00
         21   -1    0    0  501  502  0.00000000000E+00  0.00000000000E+00  0.24202842894E+03  0.24202842894E+03  0.00000000000E+00 0.  1.
         21   -1    0    0  502  503 -0.00000000000E+00 -0.00000000000E+00 -0.19734082665E+03  0.19734082665E+03  0.00000000000E+00 0. -1.
          6    1    1    2  501    0  0.12034286582E+03  0.56244826327E+02  0.36097389768E+02  0.22108348511E+03  0.17300000000E+03 0. -1.
         -6    1    1    2    0  503 -0.12034286582E+03 -0.56244826327E+02  0.85902125267E+01  0.21828577048E+03  0.17300000000E+03 0.  1.
<mgrwt>
<rscale>  2 0.21811668E+03</rscale>
<asrwt>0</asrwt>
<pdfrwt beam="1">  1       21 0.37235143E-01 0.21811668E+03</pdfrwt>
<pdfrwt beam="2">  1       21 0.30360127E-01 0.21811668E+03</pdfrwt>
<totfact> 0.71628456E+04</totfact>
</mgrwt>
</event>
<event>
 4    1  0.3902417E-001  0.2228247E+03  0.7546771E-02  0.1131794E+00
         21   -1    0    0  501  502  0.00000000000E+00  0.00000000000E+00  0.49874049358E+02  0.49874049358E+02  0.00000000000E+00 0.  1.
         21   -1    0    0  502  503 -0.00000000000E+00 -0.00000000000E+00 -0.99554471878E+03  0.99554471878E+03  0.00000000000E+00 0.  1.
          6    1    1    2  501    0 -0.12495893799E+03  0.64086724348E+02 -0.47048715653E+03  0.52058525611E+03  0.17300000000E+03 0.  1.
         -6    1    1    2    0  503  0.12495893799E+03 -0.64086724348E+02 -0.47518351289E+03  0.52483351203E+03  0.17300000000E+03 0.  1.
<mgrwt>
<rscale>  2 0.22282469E+03</rscale>
<asrwt>0</asrwt>
<pdfrwt beam="1">  1       21 0.76729312E-02 0.22282469E+03</pdfrwt>
<pdfrwt beam="2">  1       21 0.15316072E+00 0.22282469E+03</pdfrwt>
<totfact> 0.35859469E+04</totfact>
</mgrwt>
</event>
<event>
 4    1  0.3902417E-001  0.1782945E+03  0.7546771E-02  0.1169464E+00
         21   -1    0    0  503  502  0.00000000000E+00  0.00000000000E+00  0.45573368893E+03  0.45573368893E+03  0.00000000000E+00 0. -1.
         21   -1    0    0  501  503 -0.00000000000E+00 -0.00000000000E+00 -0.75393579901E+02  0.75393579901E+02  0.00000000000E+00 0. -1.
          6    1    1    2  501    0  0.37576695233E+02  0.21163860113E+02  0.26280619161E+03  0.31757835466E+03  0.17300000000E+03 0. -1.
         -6    1    1    2    0  502 -0.37576695233E+02 -0.21163860113E+02  0.11753391742E+03  0.21354891417E+03  0.17300000000E+03 0. -1.
<mgrwt>
<rscale>  2 0.17829447E+03</rscale>
<asrwt>0</asrwt>
<pdfrwt beam="1">  1       21 0.70112873E-01 0.17829447E+03</pdfrwt>
<pdfrwt beam="2">  1       21 0.11599013E-01 0.17829447E+03</pdfrwt>
<totfact> 0.11574426E+05</totfact>
</mgrwt>
</event>
<event>
 4    1  0.3902417E-001  0.2236700E+03  0.7546771E-02  0.1131176E+00
         21   -1    0    0  501  502  0.00000000000E+00  0.00000000000E+00  0.31914436963E+02  0.31914436963E+02  0.00000000000E+00 0. -1.
         21   -1    0    0  502  503 -0.00000000000E+00 -0.00000000000E+00 -0.17430205621E+04  0.17430205621E+04  0.00000000000E+00 0. -1.
          6    1    1    2  501    0  0.81328121374E+02 -0.11612487312E+03 -0.57399152501E+03  0.61603126565E+03  0.17300000000E+03 0. -1.
         -6    1    1    2    0  503 -0.81328121374E+02  0.11612487312E+03 -0.11371146002E+04  0.11589037335E+04  0.17300000000E+03 0. -1.
<mgrwt>
<rscale>  2 0.22366996E+03</rscale>
<asrwt>0</asrwt>
<pdfrwt beam="1">  1       21 0.49099115E-02 0.22366996E+03</pdfrwt>
<pdfrwt beam="2">  1       21 0.26815711E+00 0.22366996E+03</pdfrwt>
<totfact> 0.14051343E+04</totfact>
</mgrwt>
</event>
<event>
 4    1  0.3902417E-001  0.2153562E+03  0.7546771E-02  0.1137393E+00
         21   -1    0    0  503  502  0.00000000000E+00  0.00000000000E+00  0.57721158053E+03  0.57721158053E+03  0.00000000000E+00 0. -1.
         21   -1    0    0  501  503 -0.00000000000E+00 -0.00000000000E+00 -0.92271188312E+02  0.92271188312E+02  0.00000000000E+00 0. -1.
          6    1    1    2  501    0  0.11973871226E+03 -0.45955836438E+02  0.36279542919E+03  0.42189906560E+03  0.17300000000E+03 0. -1.
         -6    1    1    2    0  502 -0.11973871226E+03  0.45955836438E+02  0.12214496303E+03  0.24758370324E+03  0.17300000000E+03 0. -1.
<mgrwt>
<rscale>  2 0.21535621E+03</rscale>
<asrwt>0</asrwt>
<pdfrwt beam="1">  1       21 0.88801780E-01 0.21535621E+03</pdfrwt>
<pdfrwt beam="2">  1       21 0.14195568E-01 0.21535621E+03</pdfrwt>
<totfact> 0.46452946E+04</totfact>
</mgrwt>
</event>
<event>
 4    1  0.3902417E-001  0.2045116E+03  0.7546771E-02  0.1145987E+00
         21   -1    0    0  501  502  0.00000000000E+00  0.00000000000E+00  0.47733599972E+03  0.47733599972E+03  0.00000000000E+00 0. -1.
         21   -1    0    0  502  503 -0.00000000000E+00 -0.00000000000E+00 -0.90593237554E+02  0.90593237554E+02  0.00000000000E+00 0.  1.
          6    1    1    2  501    0 -0.97764261615E+02  0.48354193993E+02  0.14194228178E+03  0.24894294584E+03  0.17300000000E+03 0. -1.
         -6    1    1    2    0  503  0.97764261615E+02 -0.48354193993E+02  0.24480048038E+03  0.31898629143E+03  0.17300000000E+03 0.  1.
<mgrwt>
<rscale>  2 0.20451156E+03</rscale>
<asrwt>0</asrwt>
<pdfrwt beam="1">  1       21 0.73436306E-01 0.20451156E+03</pdfrwt>
<pdfrwt beam="2">  1       21 0.13937421E-01 0.20451156E+03</pdfrwt>
<totfact> 0.74299496E+04</totfact>
</mgrwt>
</event>
<event>
 4    1  0.3902417E-001  0.2214082E+03  0.7546771E-02  0.1132838E+00
         21   -1    0    0  501  502  0.00000000000E+00  0.00000000000E+00  0.32789608006E+03  0.32789608006E+03  0.00000000000E+00 0.  1.
         21   -1    0    0  502  503 -0.00000000000E+00 -0.00000000000E+00 -0.18682921418E+03  0.18682921418E+03  0.00000000000E+00 0.  1.
          6    1    1    2  501    0  0.94828644270E+01 -0.13785014034E+03  0.18556780874E+03  0.28888924790E+03  0.17300000000E+03 0.  1.
         -6    1    1    2    0  503 -0.94828644270E+01  0.13785014034E+03 -0.44500942872E+02  0.22583604634E+03  0.17300000000E+03 0.  1.
<mgrwt>
<rscale>  2 0.22140819E+03</rscale>
<asrwt>0</asrwt>
<pdfrwt beam="1">  1       21 0.50445551E-01 0.22140819E+03</pdfrwt>
<pdfrwt beam="2">  1       21 0.28742956E-01 0.22140819E+03</pdfrwt>
<totfact> 0.42711264E+04</totfact>
</mgrwt>
</event>
<event>
 4    1  0.3902417E-001  0.1765058E+03  0.7546771E-02  0.1171228E+00
         21   -1    0    0  503  502  0.00000000000E+00  0.00000000000E+00  0.77139169417E+02  0.77139169417E+02  0.00000000000E+00 0. -1.
         21   -1    0    0  501  503 -0.00000000000E+00 -0.00000000000E+00 -0.10438858303E+04  0.10438858303E+04  0.00000000000E+00 0. -1.
          6    1    1    2  501    0  0.60702923354E+01  0.34473736185E+02 -0.92226138490E+03  0.93899965336E+03  0.17300000000E+03 0. -1.
         -6    1    1    2    0  502 -0.60702923354E+01 -0.34473736185E+02 -0.44485275980E+02  0.18202534635E+03  0.17300000000E+03 0. -1.
<mgrwt>
<rscale>  2 0.17650577E+03</rscale>
<asrwt>0</asrwt>
<pdfrwt beam="1">  1       21 0.11867565E-01 0.17650577E+03</pdfrwt>
<pdfrwt beam="2">  1       21 0.16059781E+00 0.17650577E+03</pdfrwt>
<totfact> 0.15093702E+04</totfact>
</mgrwt>
</event>
<event>
 4    1  0.3902417E-001  0.1962268E+03  0.7546771E-02  0.1152962E+00
         21   -1    0    0  501  502  0.00000000000E+00  0.00000000000E+00  0.86686267856E+03  0.86686267856E+03  0.00000000000E+00 0.  1.
         21   -1    0    0  502  503 -0.00000000000E+00 -0.00000000000E+00 -0.44633414283E+02  0.44633414283E+02  0.00000000000E+00 0. -1.
          6    1    1    2  501    0 -0.76247890818E+02 -0.52556959045E+02  0.44271945953E+03  0.48425767382E+03  0.17300000000E+03 0.  1.
         -6    1    1    2    0  503  0.76247890818E+02  0.52556959045E+02  0.37950980474E+03  0.42723841903E+03  0.17300000000E+03 0. -1.
<mgrwt>
<rscale>  2 0.19622685E+03</rscale>
<asrwt>0</asrwt>
<pdfrwt beam="1">  1       21 0.13336348E+00 0.19622685E+03</pdfrwt>
<pdfrwt beam="2">  1       21 0.68666798E-02 0.19622685E+03</pdfrwt>
<totfact> 0.63245154E+04</totfact>
</mgrwt>
</event>
<event>
 4    1  0.3902417E-001  0.2055498E+03  0.7546771E-02  0.1145139E+00
         21   -1    0    0  501  502  0.00000000000E+00  0.00000000000E+00  0.19702712268E+04  0.19702712268E+04  0.00000000000E+00 0. -1.
         21   -1    0    0  502  503 -0.00000000000E+00 -0.00000000000E+00 -0.24826825599E+02  0.24826825599E+02  0.00000000000E+00 0. -1.
          6    1    1    2  501    0 -0.11001411823E+03 -0.14785848527E+02  0.13409409676E+04  0.13566036289E+04  0.17300000000E+03 0. -1.
         -6    1    1    2    0  503  0.11001411823E+03  0.14785848527E+02  0.60450343364E+03  0.63849442347E+03  0.17300000000E+03 0. -1.
<mgrwt>
<rscale>  2 0.20554982E+03</rscale>
<asrwt>0</asrwt>
<pdfrwt beam="1">  1       21 0.30311853E+00 0.20554982E+03</pdfrwt>
<pdfrwt beam="2">  1       21 0.38195132E-02 0.20554982E+03</pdfrwt>
<totfact> 0.13684802E+04</totfact>
</mgrwt>
</event>
<event>
 4    1  0.3902417E-001  0.2383841E+03  0.7546771E-02  0.1120874E+00
         21   -1    0    0  501  502  0.00000000000E+00  0.00000000000E+00  0.31156316922E+03  0.31156316922E+03  0.00000000000E+00 0. -1.
         21   -1    0    0  502  503 -0.00000000000E+00 -0.00000000000E+00 -0.19960594488E+03  0.19960594488E+03  0.00000000000E+00 0. -1.
          6    1    1    2  501    0 -0.14683510519E+03  0.73057682961E+02  0.13103266793E+03  0.27202303803E+03  0.17300000000E+03 0. -1.
         -6    1    1    2    0  503  0.14683510519E+03 -0.73057682961E+02 -0.19075443590E+02  0.23914607608E+03  0.17300000000E+03 0. -1.
<mgrwt>
<rscale>  2 0.23838409E+03</rscale>
<asrwt>0</asrwt>
<pdfrwt beam="1">  1       21 0.47932795E-01 0.23838409E+03</pdfrwt>
<pdfrwt beam="2">  1       21 0.30708607E-01 0.23838409E+03</pdfrwt>
<totfact> 0.41441483E+04</totfact>
</mgrwt>
</event>
<event>
 4    1  0.3902417E-001  0.2610437E+03  0.7546771E-02  0.1106518E+00
         21   -1    0    0  501  502  0.00000000000E+00  0.00000000000E+00  0.15150267925E+03  0.15150267925E+03  0.00000000000E+00 0.  1.
         21   -1    0    0  502  503 -0.00000000000E+00 -0.00000000000E+00 -0.45208023634E+03  0.45208023634E+03  0.00000000000E+00 0. -1.
          6    1    1    2  501    0 -0.79558923736E+02 -0.17856420469E+03 -0.12879019457E+03  0.29108540286E+03  0.17300000000E+03 0.  1.
         -6    1    1    2    0  503  0.79558923736E+02  0.17856420469E+03 -0.17178736252E+03  0.31249751273E+03  0.17300000000E+03 0.  1.
<mgrwt>
<rscale>  2 0.26104367E+03</rscale>
<asrwt>0</asrwt>
<pdfrwt beam="1">  1       21 0.23308105E-01 0.26104367E+03</pdfrwt>
<pdfrwt beam="2">  1       21 0.69550804E-01 0.26104367E+03</pdfrwt>
<totfact> 0.31456897E+04</totfact>
</mgrwt>
</event>
<event>
 4    1  0.3902417E-001  0.1916179E+03  0.7546771E-02  0.1157010E+00
         21   -1    0    0  501  502  0.00000000000E+00  0.00000000000E+00  0.18896478650E+03  0.18896478650E+03  0.00000000000E+00 0.  1.
         21   -1    0    0  502  503 -0.00000000000E+00 -0.00000000000E+00 -0.39731550564E+03  0.39731550564E+03  0.00000000000E+00 0.  1.
          6    1    1    2  501    0 -0.56126388205E+02 -0.60317764848E+02  0.10536293035E+03  0.21867499011E+03  0.17300000000E+03 0.  1.
         -6    1    1    2    0  503  0.56126388205E+02  0.60317764848E+02 -0.31371364949E+03  0.36760530204E+03  0.17300000000E+03 0.  1.
<mgrwt>
<rscale>  2 0.19161786E+03</rscale>
<asrwt>0</asrwt>
<pdfrwt beam="1">  1       21 0.29071506E-01 0.19161786E+03</pdfrwt>
<pdfrwt beam="2">  1       21 0.61125462E-01 0.19161786E+03</pdfrwt>
<totfact> 0.28221235E+04</totfact>
</mgrwt>
</event>
<event>
 4    1  0.3902417E-001  0.1795794E+03  0.7546771E-02  0.1168211E+00
         21   -1    0    0  503  502  0.00000000000E+00  0.00000000000E+00  0.55035909929E+02  0.55035909929E+02  0.00000000000E+00 0.  1.
         21   -1    0    0  501  503 -0.00000000000E+00 -0.00000000000E+00 -0.58993460850E+03  0.58993460850E+03  0.00000000000E+00 0.  1.
          6    1    1    2  501    0  0.45073555348E+02  0.16974864217E+02 -0.24097502048E+03  0.30052908662E+03  0.17300000000E+03 0. -1.
         -6    1    1    2    0  502 -0.45073555348E+02 -0.16974864217E+02 -0.29392367809E+03  0.34444143181E+03  0.17300000000E+03 0. -1.
<mgrwt>
<rscale>  2 0.17957943E+03</rscale>
<asrwt>0</asrwt>
<pdfrwt beam="1">  1       21 0.84670630E-02 0.17957943E+03</pdfrwt>
<pdfrwt beam="2">  1       21 0.90759171E-01 0.17957943E+03</pdfrwt>
<totfact> 0.11256428E+05</totfact>
</mgrwt>
</event>
<event>
 4    1  0.3902417E-001  0.2425059E+03  0.7546771E-02  0.1118135E+00
         21   -1    0    0  501  502  0.00000000000E+00  0.00000000000E+00  0.48581856936E+02  0.48581856936E+02  0.00000000000E+00 0.  1.
         21   -1    0    0  502  503 -0.00000000000E+00 -0.00000000000E+00 -0.13436387794E+04  0.13436387794E+04  0.00000000000E+00 0. -1.
          6    1    1    2  501    0  0.15699155501E+03  0.65067401901E+02 -0.42841805988E+03  0.49229173177E+03  0.17300000000E+03 0. -1.
         -6    1    1    2    0  503 -0.15699155501E+03 -0.65067401901E+02 -0.86663886256E+03  0.89992890454E+03  0.17300000000E+03 0. -1.
<mgrwt>
<rscale>  2 0.24250591E+03</rscale>
<asrwt>0</asrwt>
<pdfrwt beam="1">  1       21 0.74741331E-02 0.24250591E+03</pdfrwt>
<pdfrwt beam="2">  1       21 0.20671362E+00 0.24250591E+03</pdfrwt>
<totfact> 0.15843582E+04</totfact>
</mgrwt>
</event>
<event>
 4    1  0.3902417E-001  0.1746994E+03  0.7546771E-02  0.1173034E+00
         21   -1    0    0  503  502  0.00000000000E+00  0.00000000000E+00  0.18822963909E+03  0.18822963909E+03  0.00000000000E+00 0. -1.
         21   -1    0    0  501  503 -0.00000000000E+00 -0.00000000000E+00 -0.19855646423E+03  0.19855646423E+03  0.00000000000E+00 0. -1.
          6    1    1    2  501    0  0.18991290478E+02  0.15172521714E+02 -0.87983860532E+02  0.19560427972E+03  0.17300000000E+03 0. -1.
         -6    1    1    2    0  502 -0.18991290478E+02 -0.15172521714E+02  0.77657035396E+02  0.19118182360E+03  0.17300000000E+03 0. -1.
<mgrwt>
<rscale>  2 0.17469938E+03</rscale>
<asrwt>0</asrwt>
<pdfrwt beam="1">  1       21 0.28958406E-01 0.17469938E+03</pdfrwt>
<pdfrwt beam="2">  1       21 0.30547148E-01 0.17469938E+03</pdfrwt>
<totfact> 0.11817332E+05</totfact>
</mgrwt>
</event>
<event>
 4    1  0.3902417E-001  0.2151365E+03  0.7546771E-02  0.1137562E+00
         21   -1    0    0  501  502  0.00000000000E+00  0.00000000000E+00  0.82828828141E+02  0.82828828141E+02  0.00000000000E+00 0. -1.
         21   -1    0    0  502  503 -0.00000000000E+00 -0.00000000000E+00 -0.11108839644E+04  0.11108839644E+04  0.00000000000E+00 0. -1.
          6    1    1    2  501    0 -0.44123431293E+02  0.12003271978E+03 -0.93259373303E+02  0.23448036531E+03  0.17300000000E+03 0. -1.
         -6    1    1    2    0  503  0.44123431293E+02 -0.12003271978E+03 -0.93479576299E+03  0.95923242726E+03  0.17300000000E+03 0. -1.
<mgrwt>
<rscale>  2 0.21513654E+03</rscale>
<asrwt>0</asrwt>
<pdfrwt beam="1">  1       21 0.12742897E-01 0.21513654E+03</pdfrwt>
<pdfrwt beam="2">  1       21 0.17090522E+00 0.21513654E+03</pdfrwt>
<totfact> 0.10892549E+04</totfact>
</mgrwt>
</event>
<event>
 4    1  0.3902417E-001  0.4474971E+03  0.7546771E-02  0.1028471E+00
         21   -1    0    0  503  502  0.00000000000E+00  0.00000000000E+00  0.23858034623E+03  0.23858034623E+03  0.00000000000E+00 0.  1.
         21   -1    0    0  501  503 -0.00000000000E+00 -0.00000000000E+00 -0.15333818353E+04  0.15333818353E+04  0.00000000000E+00 0. -1.
          6    1    1    2  501    0  0.22211555818E+03  0.34783518544E+03 -0.12434571877E+04  0.13215291957E+04  0.17300000000E+03 0. -1.
         -6    1    1    2    0  502 -0.22211555818E+03 -0.34783518544E+03 -0.51344301323E+02  0.45043298580E+03  0.17300000000E+03 0.  1.
<mgrwt>
<rscale>  2 0.44749708E+03</rscale>
<asrwt>0</asrwt>
<pdfrwt beam="1">  1       21 0.36704670E-01 0.44749708E+03</pdfrwt>
<pdfrwt beam="2">  1       21 0.23590489E+00 0.44749708E+03</pdfrwt>
<totfact> 0.46991378E+02</totfact>
</mgrwt>
</event>
<event>
 4    1  0.3902417E-001  0.1769110E+03  0.7546771E-02  0.1170827E+00
         21   -1    0    0  503  502  0.00000000000E+00  0.00000000000E+00  0.14498430738E+03  0.14498430738E+03  0.00000000000E+00 0. -1.
         21   -1    0    0  501  503 -0.00000000000E+00 -0.00000000000E+00 -0.22168550919E+03  0.22168550919E+03  0.00000000000E+00 0. -1.
          6    1    1    2  501    0  0.26878871235E+02 -0.25416737589E+02 -0.68049613664E+02  0.18954744574E+03  0.17300000000E+03 0.  1.
         -6    1    1    2    0  502 -0.26878871235E+02  0.25416737589E+02 -0.86515881395E+01  0.17712237082E+03  0.17300000000E+03 0.  1.
<mgrwt>
<rscale>  2 0.17691095E+03</rscale>
<asrwt>0</asrwt>
<pdfrwt beam="1">  1       21 0.22305278E-01 0.17691095E+03</pdfrwt>
<pdfrwt beam="2">  1       21 0.34105463E-01 0.17691095E+03</pdfrwt>
<totfact> 0.15657780E+05</totfact>
</mgrwt>
</event>
<event>
 4    1  0.3902417E-001  0.1787333E+03  0.7546771E-02  0.1169035E+00
         21   -1    0    0  501  502  0.00000000000E+00  0.00000000000E+00  0.17056978158E+02  0.17056978158E+02  0.00000000000E+00 0.  1.
         21   -1    0    0  502  503 -0.00000000000E+00 -0.00000000000E+00 -0.19143231713E+04  0.19143231713E+04  0.00000000000E+00 0.  1.
          6    1    1    2  501    0 -0.25678388755E+02  0.36840275767E+02 -0.80653653665E+03  0.82610336552E+03  0.17300000000E+03 0.  1.
         -6    1    1    2    0  503  0.25678388755E+02 -0.36840275767E+02 -0.10907296565E+04  0.11052767840E+04  0.17300000000E+03 0.  1.
<mgrwt>
<rscale>  2 0.17873328E+03</rscale>
<asrwt>0</asrwt>
<pdfrwt beam="1">  1       21 0.26241527E-02 0.17873328E+03</pdfrwt>
<pdfrwt beam="2">  1       21 0.29451101E+00 0.17873328E+03</pdfrwt>
<totfact> 0.29364594E+04</totfact>
</mgrwt>
</event>
<event>
 4    1  0.3902417E-001  0.2000960E+03  0.7546771E-02  0.1149658E+00
         21   -1    0    0  501  502  0.00000000000E+00  0.00000000000E+00  0.16262226869E+04  0.16262226869E+04  0.00000000000E+00 0. -1.
         21   -1    0    0  502  503 -0.00000000000E+00 -0.00000000000E+00 -0.27149270585E+02  0.27149270585E+02  0.00000000000E+00 0. -1.
          6    1    1    2  501    0 -0.21271980926E+02  0.98269540236E+02  0.10518365897E+04  0.10707000566E+04  0.17300000000E+03 0. -1.
         -6    1    1    2    0  503  0.21271980926E+02 -0.98269540236E+02  0.54723682661E+03  0.58267190091E+03  0.17300000000E+03 0. -1.
<mgrwt>
<rscale>  2 0.20009598E+03</rscale>
<asrwt>0</asrwt>
<pdfrwt beam="1">  1       21 0.25018803E+00 0.20009598E+03</pdfrwt>
<pdfrwt beam="2">  1       21 0.41768121E-02 0.20009598E+03</pdfrwt>
<totfact> 0.24017675E+04</totfact>
</mgrwt>
</event>
<event>
 4    1  0.3902417E-001  0.3566226E+03  0.7546771E-02  0.1059929E+00
         21   -1    0    0  503  502  0.00000000000E+00  0.00000000000E+00  0.38076107994E+03  0.38076107994E+03  0.00000000000E+00 0.  1.
         21   -1    0    0  501  503 -0.00000000000E+00 -0.00000000000E+00 -0.35742612235E+03  0.35742612235E+03  0.00000000000E+00 0.  1.
          6    1    1    2  501    0  0.29953142012E+03  0.86784805890E+02 -0.82795206015E+02  0.36610752561E+03  0.17300000000E+03 0.  1.
         -6    1    1    2    0  502 -0.29953142012E+03 -0.86784805890E+02  0.10613016361E+03  0.37207967668E+03  0.17300000000E+03 0.  1.
<mgrwt>
<rscale>  2 0.35662259E+03</rscale>
<asrwt>0</asrwt>
<pdfrwt beam="1">  1       21 0.58578627E-01 0.35662259E+03</pdfrwt>
<pdfrwt beam="2">  1       21 0.54988635E-01 0.35662259E+03</pdfrwt>
<totfact> 0.78030347E+03</totfact>
</mgrwt>
</event>
<event>
 4    1  0.3902417E-001  0.1775093E+03  0.7546771E-02  0.1170236E+00
         21   -1    0    0  501  502  0.00000000000E+00  0.00000000000E+00  0.89452913707E+02  0.89452913707E+02  0.00000000000E+00 0. -1.
         21   -1    0    0  502  503 -0.00000000000E+00 -0.00000000000E+00 -0.35698960526E+03  0.35698960526E+03  0.00000000000E+00 0. -1.
          6    1    1    2  501    0 -0.27503598232E+02 -0.28707438632E+02 -0.15949560386E+03  0.23863866535E+03  0.17300000000E+03 0.  1.
         -6    1    1    2    0  503  0.27503598232E+02  0.28707438632E+02 -0.10804108769E+03  0.20780385362E+03  0.17300000000E+03 0.  1.
<mgrwt>
<rscale>  2 0.17750934E+03</rscale>
<asrwt>0</asrwt>
<pdfrwt beam="1">  1       21 0.13761987E-01 0.17750934E+03</pdfrwt>
<pdfrwt beam="2">  1       21 0.54921478E-01 0.17750934E+03</pdfrwt>
<totfact> 0.14422403E+05</totfact>
</mgrwt>
</event>
<event>
 4    1  0.3902417E-001  0.1832480E+03  0.7546771E-02  0.1164696E+00
         21   -1    0    0  501  502  0.00000000000E+00  0.00000000000E+00  0.21024849753E+03  0.21024849753E+03  0.00000000000E+00 0.  1.
         21   -1    0    0  502  503 -0.00000000000E+00 -0.00000000000E+00 -0.16584263672E+03  0.16584263672E+03  0.00000000000E+00 0.  1.
          6    1    1    2  501    0  0.45516646024E+02  0.39737224514E+02  0.58349410235E+02  0.19231345702E+03  0.17300000000E+03 0. -1.
         -6    1    1    2    0  503 -0.45516646024E+02 -0.39737224514E+02 -0.13943549425E+02  0.18377767723E+03  0.17300000000E+03 0. -1.
<mgrwt>
<rscale>  2 0.18324795E+03</rscale>
<asrwt>0</asrwt>
<pdfrwt beam="1">  1       21 0.32345923E-01 0.18324795E+03</pdfrwt>
<pdfrwt beam="2">  1       21 0.25514252E-01 0.18324795E+03</pdfrwt>
<totfact> 0.13439434E+05</totfact>
</mgrwt>
</event>
<event>
 4    1  0.3902417E-001  0.2062149E+03  0.7546771E-02  0.1144599E+00
         21   -1    0    0  501  502  0.00000000000E+00  0.00000000000E+00  0.82652138441E+02  0.82652138441E+02  0.00000000000E+00 0.  1.
         21   -1    0    0  502  503 -0.00000000000E+00 -0.00000000000E+00 -0.10026722505E+04  0.10026722505E+04  0.00000000000E+00 0.  1.
          6    1    1    2  501    0 -0.39320876542E+02  0.10511639292E+03 -0.81361522888E+02  0.22168510279E+03  0.17300000000E+03 0.  1.
         -6    1    1    2    0  503  0.39320876542E+02 -0.10511639292E+03 -0.83865858915E+03  0.86363928613E+03  0.17300000000E+03 0.  1.
<mgrwt>
<rscale>  2 0.20621491E+03</rscale>
<asrwt>0</asrwt>
<pdfrwt beam="1">  1       21 0.12715713E-01 0.20621491E+03</pdfrwt>
<pdfrwt beam="2">  1       21 0.15425728E+00 0.20621491E+03</pdfrwt>
<totfact> 0.14541471E+04</totfact>
</mgrwt>
</event>
<event>
 4    1  0.3902417E-001  0.1818163E+03  0.7546771E-02  0.1166057E+00
         21   -1    0    0  501  502  0.00000000000E+00  0.00000000000E+00  0.79424103045E+03  0.79424103045E+03  0.00000000000E+00 0. -1.
         21   -1    0    0  502  503 -0.00000000000E+00 -0.00000000000E+00 -0.53573400222E+02  0.53573400222E+02  0.00000000000E+00 0. -1.
          6    1    1    2  501    0  0.54004953458E+02 -0.14547476478E+02  0.57056072119E+03  0.59882944202E+03  0.17300000000E+03 0. -1.
         -6    1    1    2    0  503 -0.54004953458E+02  0.14547476478E+02  0.17010690904E+03  0.24898498865E+03  0.17300000000E+03 0. -1.
<mgrwt>
<rscale>  2 0.18181629E+03</rscale>
<asrwt>0</asrwt>
<pdfrwt beam="1">  1       21 0.12219092E+00 0.18181629E+03</pdfrwt>
<pdfrwt beam="2">  1       21 0.82420622E-02 0.18181629E+03</pdfrwt>
<totfact> 0.57834093E+04</totfact>
</mgrwt>
</event>
<event>
 4    1  0.3902417E-001  0.1929144E+03  0.7546771E-02  0.1155859E+00
         21   -1    0    0  503  502  0.00000000000E+00  0.00000000000E+00  0.19208278939E+03  0.19208278939E+03  0.00000000000E+00 0. -1.
         21   -1    0    0  501  503 -0.00000000000E+00 -0.00000000000E+00 -0.21071881322E+03  0.21071881322E+03  0.00000000000E+00 0. -1.
          6    1    1    2  501    0 -0.85044877669E+02 -0.73713930191E+01  0.47835122853E+02  0.19875655368E+03  0.17300000000E+03 0. -1.
         -6    1    1    2    0  502  0.85044877669E+02  0.73713930191E+01 -0.66471146686E+02  0.20404504893E+03  0.17300000000E+03 0. -1.
<mgrwt>
<rscale>  2 0.19291441E+03</rscale>
<asrwt>0</asrwt>
<pdfrwt beam="1">  1       21 0.29551198E-01 0.19291441E+03</pdfrwt>
<pdfrwt beam="2">  1       21 0.32418279E-01 0.19291441E+03</pdfrwt>
<totfact> 0.10046742E+05</totfact>
</mgrwt>
</event>
<event>
 4    1  0.3902417E-001  0.2228933E+03  0.7546771E-02  0.1131744E+00
         21   -1    0    0  503  502  0.00000000000E+00  0.00000000000E+00  0.24496082752E+03  0.24496082752E+03  0.00000000000E+00 0.  1.
         21   -1    0    0  501  503 -0.00000000000E+00 -0.00000000000E+00 -0.23155908487E+03  0.23155908487E+03  0.00000000000E+00 0. -1.
          6    1    1    2  501    0  0.12869152799E+03  0.56488298120E+02 -0.77245789440E+02  0.23589902328E+03  0.17300000000E+03 0. -1.
         -6    1    1    2    0  502 -0.12869152799E+03 -0.56488298120E+02  0.90647532098E+02  0.24062088911E+03  0.17300000000E+03 0. -1.
<mgrwt>
<rscale>  2 0.22289333E+03</rscale>
<asrwt>0</asrwt>
<pdfrwt beam="1">  1       21 0.37686281E-01 0.22289333E+03</pdfrwt>
<pdfrwt beam="2">  1       21 0.35624474E-01 0.22289333E+03</pdfrwt>
<totfact> 0.50866757E+04</totfact>
</mgrwt>
</event>
<event>
 4    1  0.3902417E-001  0.1874441E+03  0.7546771E-02  0.1160787E+00
         21   -1    0    0  501  502  0.00000000000E+00  0.00000000000E+00  0.10065449378E+04  0.10065449378E+04  0.00000000000E+00 0. -1.
         21   -1    0    0  502  503 -0.00000000000E+00 -0.00000000000E+00 -0.36459294189E+02  0.36459294189E+02  0.00000000000E+00 0. -1.
          6    1    1    2  501    0 -0.69411054965E+02 -0.19707722659E+02  0.37743017376E+03  0.42141289129E+03  0.17300000000E+03 0. -1.
         -6    1    1    2    0  503  0.69411054965E+02  0.19707722659E+02  0.59265546987E+03  0.62159134071E+03  0.17300000000E+03 0. -1.
<mgrwt>
<rscale>  2 0.18744410E+03</rscale>
<asrwt>0</asrwt>
<pdfrwt beam="1">  1       21 0.15485305E+00 0.18744410E+03</pdfrwt>
<pdfrwt beam="2">  1       21 0.56091229E-02 0.18744410E+03</pdfrwt>
<totfact> 0.60958540E+04</totfact>
</mgrwt>
</event>
<event>
 4    1  0.3902417E-001  0.1822160E+03  0.7546771E-02  0.1165676E+00
         21   -1    0    0  503  502  0.00000000000E+00  0.00000000000E+00  0.31676892983E+03  0.31676892983E+03  0.00000000000E+00 0.  1.
         21   -1    0    0  501  503 -0.00000000000E+00 -0.00000000000E+00 -0.11345674444E+03  0.11345674444E+03  0.00000000000E+00 0.  1.
          6    1    1    2  501    0  0.40737052186E+02 -0.40176451059E+02  0.42293797448E+02  0.18705993677E+03  0.17300000000E+03 0.  1.
         -6    1    1    2    0  502 -0.40737052186E+02  0.40176451059E+02  0.16101838794E+03  0.24316573750E+03  0.17300000000E+03 0.  1.
<mgrwt>
<rscale>  2 0.18221596E+03</rscale>
<asrwt>0</asrwt>
<pdfrwt beam="1">  1       21 0.48733681E-01 0.18221596E+03</pdfrwt>
<pdfrwt beam="2">  1       21 0.17454884E-01 0.18221596E+03</pdfrwt>
<totfact> 0.11988144E+05</totfact>
</mgrwt>
</event>
<event>
 4    1  0.3902417E-001  0.2027799E+03  0.7546771E-02  0.1147415E+00
         21   -1    0    0  501  502  0.00000000000E+00  0.00000000000E+00  0.62595170250E+03  0.62595170250E+03  0.00000000000E+00 0. -1.
         21   -1    0    0  502  503 -0.00000000000E+00 -0.00000000000E+00 -0.71555874103E+02  0.71555874103E+02  0.00000000000E+00 0. -1.
          6    1    1    2  501    0  0.33648368387E+02 -0.10029184885E+03  0.37703902556E+03  0.42810990929E+03  0.17300000000E+03 0.  1.
         -6    1    1    2    0  503 -0.33648368387E+02  0.10029184885E+03  0.17735680284E+03  0.26939766732E+03  0.17300000000E+03 0.  1.
<mgrwt>
<rscale>  2 0.20277985E+03</rscale>
<asrwt>0</asrwt>
<pdfrwt beam="1">  1       21 0.96300258E-01 0.20277985E+03</pdfrwt>
<pdfrwt beam="2">  1       21 0.11008596E-01 0.20277985E+03</pdfrwt>
<totfact> 0.61106440E+04</totfact>
</mgrwt>
</event>
<event>
 4    1  0.3902417E-001  0.2840451E+03  0.7546771E-02  0.1093500E+00
         21   -1    0    0  503  502  0.00000000000E+00  0.00000000000E+00  0.18547327331E+04  0.18547327331E+04  0.00000000000E+00 0.  1.
         21   -1    0    0  501  503 -0.00000000000E+00 -0.00000000000E+00 -0.47954999287E+02  0.47954999287E+02  0.00000000000E+00 0.  1.
          6    1    1    2  501    0  0.22015737472E+03 -0.47784536376E+02  0.11933397828E+04  0.12266790407E+04  0.17300000000E+03 0.  1.
         -6    1    1    2    0  502 -0.22015737472E+03  0.47784536376E+02  0.61343795100E+03  0.67600869173E+03  0.17300000000E+03 0.  1.
<mgrwt>
<rscale>  2 0.28404512E+03</rscale>
<asrwt>0</asrwt>
<pdfrwt beam="1">  1       21 0.28534344E+00 0.28404512E+03</pdfrwt>
<pdfrwt beam="2">  1       21 0.73776936E-02 0.28404512E+03</pdfrwt>
<totfact> 0.52640632E+03</totfact>
</mgrwt>
</event>
<event>
 4    1  0.3902417E-001  0.1788329E+03  0.7546771E-02  0.1168937E+00
         21   -1    0    0  501  502  0.00000000000E+00  0.00000000000E+00  0.16141838178E+02  0.16141838178E+02  0.00000000000E+00 0.  1.
         21   -1    0    0  502  503 -0.00000000000E+00 -0.00000000000E+00 -0.19833777683E+04  0.19833777683E+04  0.00000000000E+00 0.  1.
          6    1    1    2  501    0  0.42972916378E+02  0.14335885583E+02 -0.10162815048E+04  0.10318959667E+04  0.17300000000E+03 0.  1.
         -6    1    1    2    0  503 -0.42972916378E+02 -0.14335885583E+02 -0.95095442534E+03  0.96762363977E+03  0.17300000000E+03 0.  1.
<mgrwt>
<rscale>  2 0.17883285E+03</rscale>
<asrwt>0</asrwt>
<pdfrwt beam="1">  1       21 0.24833604E-02 0.17883285E+03</pdfrwt>
<pdfrwt beam="2">  1       21 0.30513495E+00 0.17883285E+03</pdfrwt>
<totfact> 0.27938375E+04</totfact>
</mgrwt>
</event>
<event>
 4    1  0.3902417E-001  0.2092604E+03  0.7546771E-02  0.1142153E+00
         21   -1    0    0  501  502  0.00000000000E+00  0.00000000000E+00  0.10320137713E+04  0.10320137713E+04  0.00000000000E+00 0. -1.
         21   -1    0    0  502  503 -0.00000000000E+00 -0.00000000000E+00 -0.19335838595E+03  0.19335838595E+03  0.00000000000E+00 0. -1.
          6    1    1    2  501    0  0.72417523045E+02  0.92825753778E+02  0.96062987257E+03  0.98315800881E+03  0.17300000000E+03 0. -1.
         -6    1    1    2    0  503 -0.72417523045E+02 -0.92825753778E+02 -0.12197448717E+03  0.24221414849E+03  0.17300000000E+03 0. -1.
<mgrwt>
<rscale>  2 0.20926041E+03</rscale>
<asrwt>0</asrwt>
<pdfrwt beam="1">  1       21 0.15877135E+00 0.20926041E+03</pdfrwt>
<pdfrwt beam="2">  1       21 0.29747445E-01 0.20926041E+03</pdfrwt>
<totfact> 0.27420353E+03</totfact>
</mgrwt>
</event>
<event>
 4    1  0.3902417E-001  0.2019582E+03  0.7546771E-02  0.1148097E+00
         21   -1    0    0  503  502  0.00000000000E+00  0.00000000000E+00  0.34210038076E+02  0.34210038076E+02  0.00000000000E+00 0.  1.
         21   -1    0    0  501  503 -0.00000000000E+00 -0.00000000000E+00 -0.12421560580E+04  0.12421560580E+04  0.00000000000E+00 0. -1.
          6    1    1    2  501    0  0.10124773882E+03  0.24637424047E+02 -0.73188454996E+03  0.75923784267E+03  0.17300000000E+03 0. -1.
         -6    1    1    2    0  502 -0.10124773882E+03 -0.24637424047E+02 -0.47606146996E+03  0.51712825340E+03  0.17300000000E+03 0. -1.
<mgrwt>
<rscale>  2 0.20195818E+03</rscale>
<asrwt>0</asrwt>
<pdfrwt beam="1">  1       21 0.52630822E-02 0.20195818E+03</pdfrwt>
<pdfrwt beam="2">  1       21 0.19110095E+00 0.20195818E+03</pdfrwt>
<totfact> 0.37585838E+04</totfact>
</mgrwt>
</event>
<event>
 4    1  0.3902417E-001  0.1847427E+03  0.7546771E-02  0.1163290E+00
         21   -1    0    0  503  502  0.00000000000E+00  0.00000000000E+00  0.12401744699E+03  0.12401744699E+03  0.00000000000E+00 0. -1.
         21   -1    0    0  501  503 -0.00000000000E+00 -0.00000000000E+00 -0.27649268062E+03  0.27649268062E+03  0.00000000000E+00 0. -1.
          6    1    1    2  501    0 -0.45163270781E+01  0.64656504895E+02 -0.89919177171E+02  0.20546366895E+03  0.17300000000E+03 0.  1.
         -6    1    1    2    0  502  0.45163270781E+01 -0.64656504895E+02 -0.62556056454E+02  0.19504645866E+03  0.17300000000E+03 0.  1.
<mgrwt>
<rscale>  2 0.18474269E+03</rscale>
<asrwt>0</asrwt>
<pdfrwt beam="1">  1       21 0.19079607E-01 0.18474269E+03</pdfrwt>
<pdfrwt beam="2">  1       21 0.42537335E-01 0.18474269E+03</pdfrwt>
<totfact> 0.13434966E+05</totfact>
</mgrwt>
</event>
<event>
 4    1  0.3902417E-001  0.2056434E+03  0.7546771E-02  0.1145063E+00
         21   -1    0    0  501  502  0.00000000000E+00  0.00000000000E+00  0.50907727134E+03  0.50907727134E+03  0.00000000000E+00 0.  1.
         21   -1    0    0  502  503 -0.00000000000E+00 -0.00000000000E+00 -0.90912932702E+02  0.90912932702E+02  0.00000000000E+00 0.  1.
          6    1    1    2  501    0 -0.54626406718E+02  0.96830593107E+02  0.29719353227E+03  0.36140448765E+03  0.17300000000E+03 0.  1.
         -6    1    1    2    0  503  0.54626406718E+02 -0.96830593107E+02  0.12097080637E+03  0.23858571639E+03  0.17300000000E+03 0.  1.
<mgrwt>
<rscale>  2 0.20564340E+03</rscale>
<asrwt>0</asrwt>
<pdfrwt beam="1">  1       21 0.78319579E-01 0.20564340E+03</pdfrwt>
<pdfrwt beam="2">  1       21 0.13986605E-01 0.20564340E+03</pdfrwt>
<totfact> 0.63874608E+04</totfact>
</mgrwt>
</event>
<event>
 4    1  0.3902417E-001  0.2136495E+03  0.7546771E-02  0.1138708E+00
         21   -1    0    0  503  502  0.00000000000E+00  0.00000000000E+00  0.17131553477E+03  0.17131553477E+03  0.00000000000E+00 0.  1.
         21   -1    0    0  501  503 -0.00000000000E+00 -0.00000000000E+00 -0.26651489880E+03  0.26651489880E+03  0.00000000000E+00 0. -1.
          6    1    1    2  501    0 -0.12534407246E+03  0.24480583970E+01 -0.51150604076E+02  0.21968730912E+03  0.17300000000E+03 0.  1.
         -6    1    1    2    0  502  0.12534407246E+03 -0.24480583970E+01 -0.44048759945E+02  0.21814312445E+03  0.17300000000E+03 0.  1.
<mgrwt>
<rscale>  2 0.21364955E+03</rscale>
<asrwt>0</asrwt>
<pdfrwt beam="1">  1       21 0.26356236E-01 0.21364955E+03</pdfrwt>
<pdfrwt beam="2">  1       21 0.41002292E-01 0.21364955E+03</pdfrwt>
<totfact> 0.77732038E+04</totfact>
</mgrwt>
</event>
<event>
 4    1  0.3902417E-001  0.1896521E+03  0.7546771E-02  0.1158776E+00
         21   -1    0    0  503  502  0.00000000000E+00  0.00000000000E+00  0.33005226423E+02  0.33005226423E+02  0.00000000000E+00 0. -1.
         21   -1    0    0  501  503 -0.00000000000E+00 -0.00000000000E+00 -0.12404974007E+04  0.12404974007E+04  0.00000000000E+00 0.  1.
          6    1    1    2  501    0 -0.69117760240E+01 -0.77402410668E+02 -0.82570712399E+03  0.84720727123E+03  0.17300000000E+03 0.  1.
         -6    1    1    2    0  502  0.69117760240E+01  0.77402410668E+02 -0.38178505024E+03  0.42629535584E+03  0.17300000000E+03 0. -1.
<mgrwt>
<rscale>  2 0.18965207E+03</rscale>
<asrwt>0</asrwt>
<pdfrwt beam="1">  1       21 0.50777276E-02 0.18965207E+03</pdfrwt>
<pdfrwt beam="2">  1       21 0.19084574E+00 0.18965207E+03</pdfrwt>
<totfact> 0.40430488E+04</totfact>
</mgrwt>
</event>
<event>
 4    1  0.3902417E-001  0.1804544E+03  0.7546771E-02  0.1167364E+00
         21   -1    0    0  503  502  0.00000000000E+00  0.00000000000E+00  0.41726034109E+03  0.41726034109E+03  0.00000000000E+00 0. -1.
         21   -1    0    0  501  503 -0.00000000000E+00 -0.00000000000E+00 -0.88283681979E+02  0.88283681979E+02  0.00000000000E+00 0. -1.
          6    1    1    2  501    0  0.46664887821E+02  0.21381743600E+02  0.78393616446E+02  0.19674691818E+03  0.17300000000E+03 0. -1.
         -6    1    1    2    0  502 -0.46664887821E+02 -0.21381743600E+02  0.25058304266E+03  0.30879710489E+03  0.17300000000E+03 0. -1.
<mgrwt>
<rscale>  2 0.18045440E+03</rscale>
<asrwt>0</asrwt>
<pdfrwt beam="1">  1       21 0.64193897E-01 0.18045440E+03</pdfrwt>
<pdfrwt beam="2">  1       21 0.13582105E-01 0.18045440E+03</pdfrwt>
<totfact> 0.10567036E+05</totfact>
</mgrwt>
</event>
<event>
 4    1  0.3902417E-001  0.2443824E+03  0.7546771E-02  0.1116907E+00
         21   -1    0    0  501  502  0.00000000000E+00  0.00000000000E+00  0.59589051887E+03  0.59589051887E+03  0.00000000000E+00 0.  1.
         21   -1    0    0  502  503 -0.00000000000E+00 -0.00000000000E+00 -0.10024021196E+03  0.10024021196E+03  0.00000000000E+00 0. -1.
          6    1    1    2  501    0 -0.16836466077E+03 -0.38040944069E+02  0.25219604861E+03  0.35117747558E+03  0.17300000000E+03 0.  1.
         -6    1    1    2    0  503  0.16836466077E+03  0.38040944069E+02  0.24345425830E+03  0.34495325524E+03  0.17300000000E+03 0. -1.
<mgrwt>
<rscale>  2 0.24438243E+03</rscale>
<asrwt>0</asrwt>
<pdfrwt beam="1">  1       21 0.91675462E-01 0.24438243E+03</pdfrwt>
<pdfrwt beam="2">  1       21 0.15421571E-01 0.24438243E+03</pdfrwt>
<totfact> 0.36581400E+04</totfact>
</mgrwt>
</event>
<event>
 4    1  0.3902417E-001  0.2245483E+03  0.7546771E-02  0.1130537E+00
         21   -1    0    0  503  502  0.00000000000E+00  0.00000000000E+00  0.40254518078E+03  0.40254518078E+03  0.00000000000E+00 0. -1.
         21   -1    0    0  501  503 -0.00000000000E+00 -0.00000000000E+00 -0.16504276245E+03  0.16504276245E+03  0.00000000000E+00 0. -1.
          6    1    1    2  501    0 -0.47513473911E+01 -0.14307472430E+03 -0.20585008244E+02  0.22548989911E+03  0.17300000000E+03 0. -1.
         -6    1    1    2    0  502  0.47513473911E+01  0.14307472430E+03  0.25808742657E+03  0.34209804412E+03  0.17300000000E+03 0. -1.
<mgrwt>
<rscale>  2 0.22454833E+03</rscale>
<asrwt>0</asrwt>
<pdfrwt beam="1">  1       21 0.61930027E-01 0.22454833E+03</pdfrwt>
<pdfrwt beam="2">  1       21 0.25391194E-01 0.22454833E+03</pdfrwt>
<totfact> 0.35011942E+04</totfact>
</mgrwt>
</event>
<event>
 4    1  0.3902417E-001  0.2123360E+03  0.7546771E-02  0.1139729E+00
         21   -1    0    0  503  502  0.00000000000E+00  0.00000000000E+00  0.39129658169E+03  0.39129658169E+03  0.00000000000E+00 0.  1.
         21   -1    0    0  501  503 -0.00000000000E+00 -0.00000000000E+00 -0.18711418577E+03  0.18711418577E+03  0.00000000000E+00 0.  1.
          6    1    1    2  501    0 -0.80027135602E+02  0.93558779769E+02 -0.77171169863E+02  0.22592471570E+03  0.17300000000E+03 0.  1.
         -6    1    1    2    0  502  0.80027135602E+02 -0.93558779769E+02  0.28135356579E+03  0.35248605176E+03  0.17300000000E+03 0.  1.
<mgrwt>
<rscale>  2 0.21233603E+03</rscale>
<asrwt>0</asrwt>
<pdfrwt beam="1">  1       21 0.60199474E-01 0.21233603E+03</pdfrwt>
<pdfrwt beam="2">  1       21 0.28786798E-01 0.21233603E+03</pdfrwt>
<totfact> 0.29389344E+04</totfact>
</mgrwt>
</event>
<event>
 4    1  0.3902417E-001  0.2355889E+03  0.7546771E-02  0.1122767E+00
         21   -1    0    0  501  502  0.00000000000E+00  0.00000000000E+00  0.16164110369E+04  0.16164110369E+04  0.00000000000E+00 0. -1.
         21   -1    0    0  502  503 -0.00000000000E+00 -0.00000000000E+00 -0.34336780817E+02  0.34336780817E+02  0.00000000000E+00 0. -1.
          6    1    1    2  501    0 -0.91156365501E+02 -0.13139127618E+03  0.78946620683E+03  0.82386834030E+03  0.17300000000E+03 0. -1.
         -6    1    1    2    0  503  0.91156365501E+02  0.13139127618E+03  0.79260804922E+03  0.82687947738E+03  0.17300000000E+03 0. -1.
<mgrwt>
<rscale>  2 0.23558894E+03</rscale>
<asrwt>0</asrwt>
<pdfrwt beam="1">  1       21 0.24867856E+00 0.23558894E+03</pdfrwt>
<pdfrwt beam="2">  1       21 0.52825829E-02 0.23558894E+03</pdfrwt>
<totfact> 0.16004977E+04</totfact>
</mgrwt>
</event>
<event>
 4    1  0.3902417E-001  0.1854276E+03  0.7546771E-02  0.1162651E+00
         21   -1    0    0  503  502  0.00000000000E+00  0.00000000000E+00  0.97894728386E+03  0.97894728386E+03  0.00000000000E+00 0.  1.
         21   -1    0    0  501  503 -0.00000000000E+00 -0.00000000000E+00 -0.44756324731E+02  0.44756324731E+02  0.00000000000E+00 0. -1.
          6    1    1    2  501    0  0.66627474860E+02 -0.38960325977E+01  0.22962537021E+03  0.29514608268E+03  0.17300000000E+03 0. -1.
         -6    1    1    2    0  502 -0.66627474860E+02  0.38960325977E+01  0.70456558891E+03  0.72855752591E+03  0.17300000000E+03 0.  1.
<mgrwt>
<rscale>  2 0.18542761E+03</rscale>
<asrwt>0</asrwt>
<pdfrwt beam="1">  1       21 0.15060726E+00 0.18542761E+03</pdfrwt>
<pdfrwt beam="2">  1       21 0.68855892E-02 0.18542761E+03</pdfrwt>
<totfact> 0.46215501E+04</totfact>
</mgrwt>
</event>
<event>
 4    1  0.3902417E-001  0.1965428E+03  0.7546771E-02  0.1152689E+00
         21   -1    0    0  501  502  0.00000000000E+00  0.00000000000E+00  0.27770075847E+03  0.27770075847E+03  0.00000000000E+00 0.  1.
         21   -1    0    0  502  503 -0.00000000000E+00 -0.00000000000E+00 -0.15287181914E+03  0.15287181914E+03  0.00000000000E+00 0. -1.
          6    1    1    2  501    0 -0.93130603886E+02 -0.51726499520E+01  0.12702417501E+03  0.23401753508E+03  0.17300000000E+03 0.  1.
         -6    1    1    2    0  503  0.93130603886E+02  0.51726499520E+01 -0.21952356787E+01  0.19655504254E+03  0.17300000000E+03 0. -1.
<mgrwt>
<rscale>  2 0.19654278E+03</rscale>
<asrwt>0</asrwt>
<pdfrwt beam="1">  1       21 0.42723193E-01 0.19654278E+03</pdfrwt>
<pdfrwt beam="2">  1       21 0.23518742E-01 0.19654278E+03</pdfrwt>
<totfact> 0.89516963E+04</totfact>
</mgrwt>
</event>
<event>
 4    1  0.3902417E-001  0.2417592E+03  0.7546771E-02  0.1118626E+00
         21   -1    0    0  501  502  0.00000000000E+00  0.00000000000E+00  0.57355876722E+03  0.57355876722E+03  0.00000000000E+00 0. -1.
         21   -1    0    0  502  503 -0.00000000000E+00 -0.00000000000E+00 -0.11658896431E+03  0.11658896431E+03  0.00000000000E+00 0.  1.
          6    1    1    2  501    0  0.39470561423E+02 -0.16419679790E+03  0.35095514899E+03  0.42616549633E+03  0.17300000000E+03 0. -1.
         -6    1    1    2    0  503 -0.39470561423E+02  0.16419679790E+03  0.10601465392E+03  0.26398223521E+03  0.17300000000E+03 0.  1.
<mgrwt>
<rscale>  2 0.24175921E+03</rscale>
<asrwt>0</asrwt>
<pdfrwt beam="1">  1       21 0.88239809E-01 0.24175921E+03</pdfrwt>
<pdfrwt beam="2">  1       21 0.17936764E-01 0.24175921E+03</pdfrwt>
<totfact> 0.30287935E+04</totfact>
</mgrwt>
</event>
<event>
 4    1  0.3902417E-001  0.2044923E+03  0.7546771E-02  0.1146003E+00
         21   -1    0    0  501  502  0.00000000000E+00  0.00000000000E+00  0.76842433520E+03  0.76842433520E+03  0.00000000000E+00 0. -1.
         21   -1    0    0  502  503 -0.00000000000E+00 -0.00000000000E+00 -0.56387897305E+02  0.56387897305E+02  0.00000000000E+00 0. -1.
          6    1    1    2  501    0  0.39629815028E+02  0.10157550527E+03  0.27896125918E+03  0.34588508155E+03  0.17300000000E+03 0. -1.
         -6    1    1    2    0  503 -0.39629815028E+02 -0.10157550527E+03  0.43307517871E+03  0.47892715096E+03  0.17300000000E+03 0. -1.
<mgrwt>
<rscale>  2 0.20449231E+03</rscale>
<asrwt>0</asrwt>
<pdfrwt beam="1">  1       21 0.11821912E+00 0.20449231E+03</pdfrwt>
<pdfrwt beam="2">  1       21 0.86750617E-02 0.20449231E+03</pdfrwt>
<totfact> 0.56745649E+04</totfact>
</mgrwt>
</event>
<event>
 4    1  0.3902417E-001  0.2638847E+03  0.7546771E-02  0.1104831E+00
         21   -1    0    0  503  502  0.00000000000E+00  0.00000000000E+00  0.58685253084E+02  0.58685253084E+02  0.00000000000E+00 0.  1.
         21   -1    0    0  501  503 -0.00000000000E+00 -0.00000000000E+00 -0.15648417024E+04  0.15648417024E+04  0.00000000000E+00 0.  1.
          6    1    1    2  501    0  0.18425288428E+03  0.75874951490E+02 -0.11521828054E+04  0.11820153767E+04  0.17300000000E+03 0.  1.
         -6    1    1    2    0  502 -0.18425288428E+03 -0.75874951490E+02 -0.35397364386E+03  0.44151157876E+03  0.17300000000E+03 0.  1.
<mgrwt>
<rscale>  2 0.26388470E+03</rscale>
<asrwt>0</asrwt>
<pdfrwt beam="1">  1       21 0.90285011E-02 0.26388470E+03</pdfrwt>
<pdfrwt beam="2">  1       21 0.24074486E+00 0.26388470E+03</pdfrwt>
<totfact> 0.68984132E+03</totfact>
</mgrwt>
</event>
<event>
 4    1  0.3902417E-001  0.1732337E+03  0.7546771E-02  0.1174517E+00
         21   -1    0    0  503  502  0.00000000000E+00  0.00000000000E+00  0.99838312302E+03  0.99838312302E+03  0.00000000000E+00 0. -1.
         21   -1    0    0  501  503 -0.00000000000E+00 -0.00000000000E+00 -0.38319234571E+02  0.38319234571E+02  0.00000000000E+00 0. -1.
          6    1    1    2  501    0 -0.84789505317E+01 -0.30059975733E+01  0.23936068266E+03  0.29547159766E+03  0.17300000000E+03 0. -1.
         -6    1    1    2    0  502  0.84789505317E+01  0.30059975733E+01  0.72070320579E+03  0.74123075992E+03  0.17300000000E+03 0. -1.
<mgrwt>
<rscale>  2 0.17323374E+03</rscale>
<asrwt>0</asrwt>
<pdfrwt beam="1">  1       21 0.15359738E+00 0.17323374E+03</pdfrwt>
<pdfrwt beam="2">  1       21 0.58952676E-02 0.17323374E+03</pdfrwt>
<totfact> 0.57676175E+04</totfact>
</mgrwt>
</event>
<event>
 4    1  0.3902417E-001  0.2050312E+03  0.7546771E-02  0.1145562E+00
         21   -1    0    0  503  502  0.00000000000E+00  0.00000000000E+00  0.77406406004E+03  0.77406406004E+03  0.00000000000E+00 0.  1.
         21   -1    0    0  501  503 -0.00000000000E+00 -0.00000000000E+00 -0.70877657212E+02  0.70877657212E+02  0.00000000000E+00 0.  1.
          6    1    1    2  501    0  0.33623259803E+01 -0.10998860505E+03  0.14732532699E+03  0.25247287072E+03  0.17300000000E+03 0.  1.
         -6    1    1    2    0  502 -0.33623259803E+01  0.10998860505E+03  0.55586107584E+03  0.59246884653E+03  0.17300000000E+03 0.  1.
<mgrwt>
<rscale>  2 0.20503121E+03</rscale>
<asrwt>0</asrwt>
<pdfrwt beam="1">  1       21 0.11908677E+00 0.20503121E+03</pdfrwt>
<pdfrwt beam="2">  1       21 0.10904256E-01 0.20503121E+03</pdfrwt>
<totfact> 0.37201500E+04</totfact>
</mgrwt>
</event>
<event>
 4    1  0.3902417E-001  0.1946473E+03  0.7546771E-02  0.1154335E+00
         21   -1    0    0  503  502  0.00000000000E+00  0.00000000000E+00  0.39292223693E+03  0.39292223693E+03  0.00000000000E+00 0. -1.
         21   -1    0    0  501  503 -0.00000000000E+00 -0.00000000000E+00 -0.97135690936E+02  0.97135690936E+02  0.00000000000E+00 0. -1.
          6    1    1    2  501    0 -0.31281627800E+02  0.83546682418E+02  0.16884985363E+03  0.25767782491E+03  0.17300000000E+03 0. -1.
         -6    1    1    2    0  502  0.31281627800E+02 -0.83546682418E+02  0.12693669237E+03  0.23238010296E+03  0.17300000000E+03 0. -1.
<mgrwt>
<rscale>  2 0.19464734E+03</rscale>
<asrwt>0</asrwt>
<pdfrwt beam="1">  1       21 0.60449574E-01 0.19464734E+03</pdfrwt>
<pdfrwt beam="2">  1       21 0.14943953E-01 0.19464734E+03</pdfrwt>
<totfact> 0.10063856E+05</totfact>
</mgrwt>
</event>
<event>
 4    1  0.3902417E-001  0.3778928E+03  0.7546771E-02  0.1051715E+00
         21   -1    0    0  501  502  0.00000000000E+00  0.00000000000E+00  0.40550288018E+03  0.40550288018E+03  0.00000000000E+00 0. -1.
         21   -1    0    0  502  503 -0.00000000000E+00 -0.00000000000E+00 -0.36399611824E+03  0.36399611824E+03  0.00000000000E+00 0.  1.
          6    1    1    2  501    0 -0.74572980521E+02  0.32758636058E+03  0.90125734272E+02  0.38849144268E+03  0.17300000000E+03 0.  1.
         -6    1    1    2    0  503  0.74572980521E+02 -0.32758636058E+03 -0.48618972339E+02  0.38100755574E+03  0.17300000000E+03 0. -1.
<mgrwt>
<rscale>  2 0.37789278E+03</rscale>
<asrwt>0</asrwt>
<pdfrwt beam="1">  1       21 0.62385058E-01 0.37789278E+03</pdfrwt>
<pdfrwt beam="2">  1       21 0.55999403E-01 0.37789278E+03</pdfrwt>
<totfact> 0.64857619E+03</totfact>
</mgrwt>
</event>
<event>
 4    1  0.3902417E-001  0.4939579E+03  0.7546771E-02  0.1015368E+00
         21   -1    0    0  501  502  0.00000000000E+00  0.00000000000E+00  0.10043278512E+04  0.10043278512E+04  0.00000000000E+00 0. -1.
         21   -1    0    0  502  503 -0.00000000000E+00 -0.00000000000E+00 -0.27413971109E+03  0.27413971109E+03  0.00000000000E+00 0.  1.
          6    1    1    2  501    0 -0.38227261211E+03 -0.26063977243E+03  0.14945472167E+03  0.51607281925E+03  0.17300000000E+03 0.  1.
         -6    1    1    2    0  503  0.38227261211E+03  0.26063977243E+03  0.58073341846E+03  0.76239474307E+03  0.17300000000E+03 0.  1.
<mgrwt>
<rscale>  2 0.49395793E+03</rscale>
<asrwt>0</asrwt>
<pdfrwt beam="1">  1       21 0.15451197E+00 0.49395793E+03</pdfrwt>
<pdfrwt beam="2">  1       21 0.42175341E-01 0.49395793E+03</pdfrwt>
<totfact> 0.12454830E+03</totfact>
</mgrwt>
</event>
<event>
 4    1  0.3902417E-001  0.1818968E+03  0.7546771E-02  0.1165980E+00
         21   -1    0    0  503  502  0.00000000000E+00  0.00000000000E+00  0.14046391413E+04  0.14046391413E+04  0.00000000000E+00 0. -1.
         21   -1    0    0  501  503 -0.00000000000E+00 -0.00000000000E+00 -0.34239655864E+02  0.34239655864E+02  0.00000000000E+00 0. -1.
          6    1    1    2  501    0  0.49215541322E+02  0.27116014123E+02  0.28330965792E+03  0.33667612033E+03  0.17300000000E+03 0. -1.
         -6    1    1    2    0  502 -0.49215541322E+02 -0.27116014123E+02  0.10870898275E+04  0.11022026769E+04  0.17300000000E+03 0. -1.
<mgrwt>
<rscale>  2 0.18189681E+03</rscale>
<asrwt>0</asrwt>
<pdfrwt beam="1">  1       21 0.21609828E+00 0.18189681E+03</pdfrwt>
<pdfrwt beam="2">  1       21 0.52676405E-02 0.18189681E+03</pdfrwt>
<totfact> 0.26395320E+04</totfact>
</mgrwt>
</event>
<event>
 4    1  0.3902417E-001  0.1990231E+03  0.7546771E-02  0.1150566E+00
         21   -1    0    0  501  502  0.00000000000E+00  0.00000000000E+00  0.27493479826E+04  0.27493479826E+04  0.00000000000E+00 0.  1.
         21   -1    0    0  502  503 -0.00000000000E+00 -0.00000000000E+00 -0.15011862167E+02  0.15011862167E+02  0.00000000000E+00 0. -1.
          6    1    1    2  501    0 -0.68985348009E+02 -0.70158441595E+02  0.16445847408E+04  0.16565835792E+04  0.17300000000E+03 0.  1.
         -6    1    1    2    0  503  0.68985348009E+02  0.70158441595E+02  0.10897513796E+04  0.11077762656E+04  0.17300000000E+03 0. -1.
<mgrwt>
<rscale>  2 0.19902308E+03</rscale>
<asrwt>0</asrwt>
<pdfrwt beam="1">  1       21 0.42297621E+00 0.19902308E+03</pdfrwt>
<pdfrwt beam="2">  1       21 0.23095194E-02 0.19902308E+03</pdfrwt>
<totfact> 0.60205385E+03</totfact>
</mgrwt>
</event>
<event>
 4    1  0.3902417E-001  0.2043584E+03  0.7546771E-02  0.1146113E+00
         21   -1    0    0  503  502  0.00000000000E+00  0.00000000000E+00  0.25188804842E+02  0.25188804842E+02  0.00000000000E+00 0. -1.
         21   -1    0    0  501  503 -0.00000000000E+00 -0.00000000000E+00 -0.17127194223E+04  0.17127194223E+04  0.00000000000E+00 0. -1.
          6    1    1    2  501    0  0.73217354097E+02  0.80452206598E+02 -0.99912370458E+03  0.10198090584E+04  0.17300000000E+03 0. -1.
         -6    1    1    2    0  502 -0.73217354097E+02 -0.80452206598E+02 -0.68840691286E+03  0.71809916875E+03  0.17300000000E+03 0. -1.
<mgrwt>
<rscale>  2 0.20435836E+03</rscale>
<asrwt>0</asrwt>
<pdfrwt beam="1">  1       21 0.38752006E-02 0.20435836E+03</pdfrwt>
<pdfrwt beam="2">  1       21 0.26349531E+00 0.20435836E+03</pdfrwt>
<totfact> 0.22678920E+04</totfact>
</mgrwt>
</event>
<event>
 4    1  0.3902417E-001  0.2317925E+03  0.7546771E-02  0.1125384E+00
         21   -1    0    0  503  502  0.00000000000E+00  0.00000000000E+00  0.21561416631E+04  0.21561416631E+04  0.00000000000E+00 0. -1.
         21   -1    0    0  501  503 -0.00000000000E+00 -0.00000000000E+00 -0.38810232615E+02  0.38810232615E+02  0.00000000000E+00 0. -1.
          6    1    1    2  501    0 -0.31419796791E+02 -0.15103496968E+03  0.40206634648E+03  0.46409601664E+03  0.17300000000E+03 0. -1.
         -6    1    1    2    0  502  0.31419796791E+02  0.15103496968E+03  0.17152650840E+04  0.17308558791E+04  0.17300000000E+03 0. -1.
<mgrwt>
<rscale>  2 0.23179251E+03</rscale>
<asrwt>0</asrwt>
<pdfrwt beam="1">  1       21 0.33171401E+00 0.23179251E+03</pdfrwt>
<pdfrwt beam="2">  1       21 0.59708067E-02 0.23179251E+03</pdfrwt>
<totfact> 0.42530541E+03</totfact>
</mgrwt>
</event>
<event>
 4    1  0.3902417E-001  0.1842891E+03  0.7546771E-02  0.1163715E+00
         21   -1    0    0  501  502  0.00000000000E+00  0.00000000000E+00  0.43676443468E+02  0.43676443468E+02  0.00000000000E+00 0.  1.
         21   -1    0    0  502  503 -0.00000000000E+00 -0.00000000000E+00 -0.78702237956E+03  0.78702237956E+03  0.00000000000E+00 0.  1.
          6    1    1    2  501    0  0.63447812805E+02  0.27997888124E+01 -0.32620778082E+03  0.37466515722E+03  0.17300000000E+03 0.  1.
         -6    1    1    2    0  503 -0.63447812805E+02 -0.27997888124E+01 -0.41713815527E+03  0.45603366581E+03  0.17300000000E+03 0.  1.
<mgrwt>
<rscale>  2 0.18428908E+03</rscale>
<asrwt>0</asrwt>
<pdfrwt beam="1">  1       21 0.67194531E-02 0.18428908E+03</pdfrwt>
<pdfrwt beam="2">  1       21 0.12108036E+00 0.18428908E+03</pdfrwt>
<totfact> 0.84155864E+04</totfact>
</mgrwt>
</event>
<event>
 4    1  0.3902417E-001  0.4819741E+03  0.7546771E-02  0.1018594E+00
         21   -1    0    0  501  502  0.00000000000E+00  0.00000000000E+00  0.10238199645E+04  0.10238199645E+04  0.00000000000E+00 0.  1.
         21   -1    0    0  502  503 -0.00000000000E+00 -0.00000000000E+00 -0.23143027783E+03  0.23143027783E+03  0.00000000000E+00 0. -1.
          6    1    1    2  501    0 -0.28357278928E+03 -0.34922272074E+03  0.48406067375E+03  0.68309133458E+03  0.17300000000E+03 0. -1.
         -6    1    1    2    0  503  0.28357278928E+03  0.34922272074E+03  0.30832901290E+03  0.57215890773E+03  0.17300000000E+03 0.  1.
<mgrwt>
<rscale>  2 0.48197410E+03</rscale>
<asrwt>0</asrwt>
<pdfrwt beam="1">  1       21 0.15751076E+00 0.48197410E+03</pdfrwt>
<pdfrwt beam="2">  1       21 0.35604659E-01 0.48197410E+03</pdfrwt>
<totfact> 0.16802402E+03</totfact>
</mgrwt>
</event>
<event>
 4    1  0.3902417E-001  0.4264657E+03  0.7546771E-02  0.1034982E+00
         21   -1    0    0  501  502  0.00000000000E+00  0.00000000000E+00  0.27190509657E+03  0.27190509657E+03  0.00000000000E+00 0. -1.
         21   -1    0    0  502  503 -0.00000000000E+00 -0.00000000000E+00 -0.69448353415E+03  0.69448353415E+03  0.00000000000E+00 0.  1.
          6    1    1    2  501    0  0.23633914410E+03 -0.30998030510E+03 -0.30405899252E+03  0.52376029968E+03  0.17300000000E+03 0.  1.
         -6    1    1    2    0  503 -0.23633914410E+03  0.30998030510E+03 -0.11851944505E+03  0.44262833104E+03  0.17300000000E+03 0. -1.
<mgrwt>
<rscale>  2 0.42646569E+03</rscale>
<asrwt>0</asrwt>
<pdfrwt beam="1">  1       21 0.41831553E-01 0.42646569E+03</pdfrwt>
<pdfrwt beam="2">  1       21 0.10684362E+00 0.42646569E+03</pdfrwt>
<totfact> 0.33849527E+03</totfact>
</mgrwt>
</event>
<event>
 4    1  0.3902417E-001  0.2190204E+03  0.7546771E-02  0.1134616E+00
         21   -1    0    0  503  502  0.00000000000E+00  0.00000000000E+00  0.13302183225E+03  0.13302183225E+03  0.00000000000E+00 0. -1.
         21   -1    0    0  501  503 -0.00000000000E+00 -0.00000000000E+00 -0.54994621996E+03  0.54994621996E+03  0.00000000000E+00 0.  1.
          6    1    1    2  501    0  0.55312669632E+02  0.12239862456E+03 -0.40882599963E+03  0.46379803006E+03  0.17300000000E+03 0.  1.
         -6    1    1    2    0  502 -0.55312669632E+02 -0.12239862456E+03 -0.80983880806E+01  0.21917002214E+03  0.17300000000E+03 0. -1.
<mgrwt>
<rscale>  2 0.21902035E+03</rscale>
<asrwt>0</asrwt>
<pdfrwt beam="1">  1       21 0.20464897E-01 0.21902035E+03</pdfrwt>
<pdfrwt beam="2">  1       21 0.84607111E-01 0.21902035E+03</pdfrwt>
<totfact> 0.26384474E+04</totfact>
</mgrwt>
</event>
<event>
 4    1  0.3902417E-001  0.1977126E+03  0.7546771E-02  0.1151683E+00
         21   -1    0    0  503  502  0.00000000000E+00  0.00000000000E+00  0.73949456573E+03  0.73949456573E+03  0.00000000000E+00 0.  1.
         21   -1    0    0  501  503 -0.00000000000E+00 -0.00000000000E+00 -0.65596426896E+02  0.65596426896E+02  0.00000000000E+00 0. -1.
          6    1    1    2  501    0  0.36776210739E+01 -0.95643757450E+02  0.15957687844E+03  0.25407682572E+03  0.17300000000E+03 0. -1.
         -6    1    1    2    0  502 -0.36776210739E+01  0.95643757450E+02  0.51432126039E+03  0.55101416690E+03  0.17300000000E+03 0.  1.
<mgrwt>
<rscale>  2 0.19771255E+03</rscale>
<asrwt>0</asrwt>
<pdfrwt beam="1">  1       21 0.11376839E+00 0.19771255E+03</pdfrwt>
<pdfrwt beam="2">  1       21 0.10091759E-01 0.19771255E+03</pdfrwt>
<totfact> 0.47925822E+04</totfact>
</mgrwt>
</event>
<event>
 4    1  0.3902417E-001  0.1874176E+03  0.7546771E-02  0.1160811E+00
         21   -1    0    0  501  502  0.00000000000E+00  0.00000000000E+00  0.75743779269E+02  0.75743779269E+02  0.00000000000E+00 0.  1.
         21   -1    0    0  502  503 -0.00000000000E+00 -0.00000000000E+00 -0.51115570526E+03  0.51115570526E+03  0.00000000000E+00 0.  1.
          6    1    1    2  501    0  0.64497198371E+02  0.32194396675E+02 -0.12832986236E+03  0.22714295355E+03  0.17300000000E+03 0.  1.
         -6    1    1    2    0  503 -0.64497198371E+02 -0.32194396675E+02 -0.30708206363E+03  0.35975653098E+03  0.17300000000E+03 0.  1.
<mgrwt>
<rscale>  2 0.18741763E+03</rscale>
<asrwt>0</asrwt>
<pdfrwt beam="1">  1       21 0.11652890E-01 0.18741763E+03</pdfrwt>
<pdfrwt beam="2">  1       21 0.78639336E-01 0.18741763E+03</pdfrwt>
<totfact> 0.88601188E+04</totfact>
</mgrwt>
</event>
<event>
 4    1  0.3902417E-001  0.1989134E+03  0.7546771E-02  0.1150659E+00
         21   -1    0    0  503  502  0.00000000000E+00  0.00000000000E+00  0.79308377350E+02  0.79308377350E+02  0.00000000000E+00 0.  1.
         21   -1    0    0  501  503 -0.00000000000E+00 -0.00000000000E+00 -0.55913381731E+03  0.55913381731E+03  0.00000000000E+00 0.  1.
          6    1    1    2  501    0 -0.41654970366E+02  0.88895492198E+02 -0.34469124496E+03  0.39796808847E+03  0.17300000000E+03 0.  1.
         -6    1    1    2    0  502  0.41654970366E+02 -0.88895492198E+02 -0.13513419500E+03  0.24047410619E+03  0.17300000000E+03 0.  1.
<mgrwt>
<rscale>  2 0.19891341E+03</rscale>
<asrwt>0</asrwt>
<pdfrwt beam="1">  1       21 0.12201289E-01 0.19891341E+03</pdfrwt>
<pdfrwt beam="2">  1       21 0.86020585E-01 0.19891341E+03</pdfrwt>
<totfact> 0.66217267E+04</totfact>
</mgrwt>
</event>
<event>
 4    1  0.3902417E-001  0.2065527E+03  0.7546771E-02  0.1144325E+00
         21   -1    0    0  501  502  0.00000000000E+00  0.00000000000E+00  0.13024010313E+04  0.13024010313E+04  0.00000000000E+00 0.  1.
         21   -1    0    0  502  503 -0.00000000000E+00 -0.00000000000E+00 -0.37497169076E+02  0.37497169076E+02  0.00000000000E+00 0.  1.
          6    1    1    2  501    0  0.52901696846E+02 -0.99681730582E+02  0.87062586694E+03  0.89479239890E+03  0.17300000000E+03 0.  1.
         -6    1    1    2    0  503 -0.52901696846E+02  0.99681730582E+02  0.39427799525E+03  0.44510580145E+03  0.17300000000E+03 0.  1.
<mgrwt>
<rscale>  2 0.20655275E+03</rscale>
<asrwt>0</asrwt>
<pdfrwt beam="1">  1       21 0.20036935E+00 0.20655275E+03</pdfrwt>
<pdfrwt beam="2">  1       21 0.57687962E-02 0.20655275E+03</pdfrwt>
<totfact> 0.27882121E+04</totfact>
</mgrwt>
</event>
<event>
 4    1  0.3902417E-001  0.2365979E+03  0.7546771E-02  0.1122080E+00
         21   -1    0    0  503  502  0.00000000000E+00  0.00000000000E+00  0.55008507655E+03  0.55008507655E+03  0.00000000000E+00 0. -1.
         21   -1    0    0  501  503 -0.00000000000E+00 -0.00000000000E+00 -0.15780157780E+03  0.15780157780E+03  0.00000000000E+00 0.  1.
          6    1    1    2  501    0  0.64315849724E+02  0.14803049720E+03 -0.14779267744E+02  0.23705902932E+03  0.17300000000E+03 0.  1.
         -6    1    1    2    0  502 -0.64315849724E+02 -0.14803049720E+03  0.40706276649E+03  0.47082762503E+03  0.17300000000E+03 0. -1.
<mgrwt>
<rscale>  2 0.23659788E+03</rscale>
<asrwt>0</asrwt>
<pdfrwt beam="1">  1       21 0.84628473E-01 0.23659788E+03</pdfrwt>
<pdfrwt beam="2">  1       21 0.24277166E-01 0.23659788E+03</pdfrwt>
<totfact> 0.18900505E+04</totfact>
</mgrwt>
</event>
<event>
 4    1  0.3902417E-001  0.2417182E+03  0.7546771E-02  0.1118653E+00
         21   -1    0    0  501  502  0.00000000000E+00  0.00000000000E+00  0.23607797096E+04  0.23607797096E+04  0.00000000000E+00 0.  1.
         21   -1    0    0  502  503 -0.00000000000E+00 -0.00000000000E+00 -0.26324136482E+02  0.26324136482E+02  0.00000000000E+00 0. -1.
          6    1    1    2  501    0  0.14321104947E+03  0.89382756506E+02  0.14591585389E+04  0.14790440573E+04  0.17300000000E+03 0.  1.
         -6    1    1    2    0  503 -0.14321104947E+03 -0.89382756506E+02  0.87529703417E+03  0.90805978871E+03  0.17300000000E+03 0. -1.
<mgrwt>
<rscale>  2 0.24171819E+03</rscale>
<asrwt>0</asrwt>
<pdfrwt beam="1">  1       21 0.36319671E+00 0.24171819E+03</pdfrwt>
<pdfrwt beam="2">  1       21 0.40498690E-02 0.24171819E+03</pdfrwt>
<totfact> 0.52939362E+03</totfact>
</mgrwt>
</event>
<event>
 4    1  0.3902417E-001  0.1850357E+03  0.7546771E-02  0.1163017E+00
         21   -1    0    0  503  502  0.00000000000E+00  0.00000000000E+00  0.42735117134E+02  0.42735117134E+02  0.00000000000E+00 0.  1.
         21   -1    0    0  501  503 -0.00000000000E+00 -0.00000000000E+00 -0.83386432419E+03  0.83386432419E+03  0.00000000000E+00 0.  1.
          6    1    1    2  501    0  0.24302495754E+02  0.60980247715E+02 -0.48234924540E+03  0.51662268287E+03  0.17300000000E+03 0.  1.
         -6    1    1    2    0  502 -0.24302495754E+02 -0.60980247715E+02 -0.30877996165E+03  0.35997675846E+03  0.17300000000E+03 0.  1.
<mgrwt>
<rscale>  2 0.18503568E+03</rscale>
<asrwt>0</asrwt>
<pdfrwt beam="1">  1       21 0.65746335E-02 0.18503568E+03</pdfrwt>
<pdfrwt beam="2">  1       21 0.12828682E+00 0.18503568E+03</pdfrwt>
<totfact> 0.75597835E+04</totfact>
</mgrwt>
</event>
<event>
 4    1  0.3902417E-001  0.2028012E+03  0.7546771E-02  0.1147397E+00
         21   -1    0    0  501  502  0.00000000000E+00  0.00000000000E+00  0.64113876810E+02  0.64113876810E+02  0.00000000000E+00 0.  1.
         21   -1    0    0  502  503 -0.00000000000E+00 -0.00000000000E+00 -0.91049260091E+03  0.91049260091E+03  0.00000000000E+00 0. -1.
          6    1    1    2  501    0 -0.22619345276E+02 -0.10338133088E+03 -0.15831477663E+03  0.25727787090E+03  0.17300000000E+03 0.  1.
         -6    1    1    2    0  503  0.22619345276E+02  0.10338133088E+03 -0.68806394747E+03  0.71732860682E+03  0.17300000000E+03 0. -1.
<mgrwt>
<rscale>  2 0.20280122E+03</rscale>
<asrwt>0</asrwt>
<pdfrwt beam="1">  1       21 0.98636734E-02 0.20280122E+03</pdfrwt>
<pdfrwt beam="2">  1       21 0.14007578E+00 0.20280122E+03</pdfrwt>
<totfact> 0.29521909E+04</totfact>
</mgrwt>
</event>
<event>
 4    1  0.3902417E-001  0.2242276E+03  0.7546771E-02  0.1130770E+00
         21   -1    0    0  501  502  0.00000000000E+00  0.00000000000E+00  0.72418543912E+03  0.72418543912E+03  0.00000000000E+00 0. -1.
         21   -1    0    0  502  503 -0.00000000000E+00 -0.00000000000E+00 -0.91522944896E+02  0.91522944896E+02  0.00000000000E+00 0.  1.
          6    1    1    2  501    0 -0.86176475977E+02 -0.11367778325E+03  0.51673055345E+03  0.56328366591E+03  0.17300000000E+03 0. -1.
         -6    1    1    2    0  503  0.86176475977E+02  0.11367778325E+03  0.11593194078E+03  0.25242471810E+03  0.17300000000E+03 0.  1.
<mgrwt>
<rscale>  2 0.22422762E+03</rscale>
<asrwt>0</asrwt>
<pdfrwt beam="1">  1       21 0.11141314E+00 0.22422762E+03</pdfrwt>
<pdfrwt beam="2">  1       21 0.14080454E-01 0.22422762E+03</pdfrwt>
<totfact> 0.27366967E+04</totfact>
</mgrwt>
</event>
<event>
 4    1  0.3902417E-001  0.2337492E+03  0.7546771E-02  0.1124028E+00
         21   -1    0    0  503  502  0.00000000000E+00  0.00000000000E+00  0.62620399761E+03  0.62620399761E+03  0.00000000000E+00 0.  1.
         21   -1    0    0  501  503 -0.00000000000E+00 -0.00000000000E+00 -0.15696173520E+03  0.15696173520E+03  0.00000000000E+00 0.  1.
          6    1    1    2  501    0 -0.11700823197E+03  0.10497036091E+03 -0.26335160534E+02  0.23522806741E+03  0.17300000000E+03 0.  1.
         -6    1    1    2    0  502  0.11700823197E+03 -0.10497036091E+03  0.49557742294E+03  0.54793766539E+03  0.17300000000E+03 0.  1.
<mgrwt>
<rscale>  2 0.23374923E+03</rscale>
<asrwt>0</asrwt>
<pdfrwt beam="1">  1       21 0.96339075E-01 0.23374923E+03</pdfrwt>
<pdfrwt beam="2">  1       21 0.24147960E-01 0.23374923E+03</pdfrwt>
<totfact> 0.14139862E+04</totfact>
</mgrwt>
</event>
<event>
 4    1  0.3902417E-001  0.2140609E+03  0.7546771E-02  0.1138390E+00
         21   -1    0    0  503  502  0.00000000000E+00  0.00000000000E+00  0.79399796363E+02  0.79399796363E+02  0.00000000000E+00 0.  1.
         21   -1    0    0  501  503 -0.00000000000E+00 -0.00000000000E+00 -0.69060458416E+03  0.69060458416E+03  0.00000000000E+00 0.  1.
          6    1    1    2  501    0  0.10728814529E+03 -0.66199094777E+02 -0.46168139594E+03  0.50889269756E+03  0.17300000000E+03 0.  1.
         -6    1    1    2    0  502 -0.10728814529E+03  0.66199094777E+02 -0.14952339186E+03  0.26111168297E+03  0.17300000000E+03 0.  1.
<mgrwt>
<rscale>  2 0.21406089E+03</rscale>
<asrwt>0</asrwt>
<pdfrwt beam="1">  1       21 0.12215354E-01 0.21406089E+03</pdfrwt>
<pdfrwt beam="2">  1       21 0.10624685E+00 0.21406089E+03</pdfrwt>
<totfact> 0.39908438E+04</totfact>
</mgrwt>
</event>
<event>
 4    1  0.3902417E-001  0.2040232E+03  0.7546771E-02  0.1146388E+00
         21   -1    0    0  503  502  0.00000000000E+00  0.00000000000E+00  0.71622815949E+02  0.71622815949E+02  0.00000000000E+00 0.  1.
         21   -1    0    0  501  503 -0.00000000000E+00 -0.00000000000E+00 -0.60347165413E+03  0.60347165413E+03  0.00000000000E+00 0. -1.
          6    1    1    2  501    0  0.80996771026E+02 -0.71665807852E+02 -0.33080515759E+03  0.38866118564E+03  0.17300000000E+03 0.  1.
         -6    1    1    2    0  502 -0.80996771026E+02  0.71665807852E+02 -0.20104368059E+03  0.28643328444E+03  0.17300000000E+03 0.  1.
<mgrwt>
<rscale>  2 0.20402320E+03</rscale>
<asrwt>0</asrwt>
<pdfrwt beam="1">  1       21 0.11018895E-01 0.20402320E+03</pdfrwt>
<pdfrwt beam="2">  1       21 0.92841793E-01 0.20402320E+03</pdfrwt>
<totfact> 0.66422368E+04</totfact>
</mgrwt>
</event>
<event>
 4    1  0.3902417E-001  0.1865644E+03  0.7546771E-02  0.1161597E+00
         21   -1    0    0  501  502  0.00000000000E+00  0.00000000000E+00  0.11293796530E+03  0.11293796530E+03  0.00000000000E+00 0.  1.
         21   -1    0    0  502  503 -0.00000000000E+00 -0.00000000000E+00 -0.48316301718E+03  0.48316301718E+03  0.00000000000E+00 0.  1.
          6    1    1    2  501    0  0.36747479970E+01 -0.69740767122E+02 -0.57509777912E+01  0.18665302601E+03  0.17300000000E+03 0.  1.
         -6    1    1    2    0  503 -0.36747479970E+01  0.69740767122E+02 -0.36447407410E+03  0.40944795647E+03  0.17300000000E+03 0.  1.
<mgrwt>
<rscale>  2 0.18656441E+03</rscale>
<asrwt>0</asrwt>
<pdfrwt beam="1">  1       21 0.17375072E-01 0.18656441E+03</pdfrwt>
<pdfrwt beam="2">  1       21 0.74332772E-01 0.18656441E+03</pdfrwt>
<totfact> 0.48749027E+04</totfact>
</mgrwt>
</event>
<event>
 4    1  0.3902417E-001  0.2246243E+03  0.7546771E-02  0.1130482E+00
         21   -1    0    0  503  502  0.00000000000E+00  0.00000000000E+00  0.14362542522E+03  0.14362542522E+03  0.00000000000E+00 0.  1.
         21   -1    0    0  501  503 -0.00000000000E+00 -0.00000000000E+00 -0.42343704617E+03  0.42343704617E+03  0.00000000000E+00 0.  1.
          6    1    1    2  501    0  0.89604651419E+02  0.11179474093E+03 -0.25693018254E+03  0.34127580687E+03  0.17300000000E+03 0.  1.
         -6    1    1    2    0  502 -0.89604651419E+02 -0.11179474093E+03 -0.22881438412E+02  0.22578666453E+03  0.17300000000E+03 0.  1.
<mgrwt>
<rscale>  2 0.22462426E+03</rscale>
<asrwt>0</asrwt>
<pdfrwt beam="1">  1       21 0.22096220E-01 0.22462426E+03</pdfrwt>
<pdfrwt beam="2">  1       21 0.65144159E-01 0.22462426E+03</pdfrwt>
<totfact> 0.40870737E+04</totfact>
</mgrwt>
</event>
<event>
 4    1  0.3902417E-001  0.1985931E+03  0.7546771E-02  0.1150931E+00
         21   -1    0    0  501  502  0.00000000000E+00  0.00000000000E+00  0.15211069158E+04  0.15211069158E+04  0.00000000000E+00 0. -1.
         21   -1    0    0  502  503 -0.00000000000E+00 -0.00000000000E+00 -0.27226485891E+02  0.27226485891E+02  0.00000000000E+00 0. -1.
          6    1    1    2  501    0  0.91734781469E+02 -0.33090201627E+02  0.91600783799E+03  0.93728842457E+03  0.17300000000E+03 0. -1.
         -6    1    1    2    0  503 -0.91734781469E+02  0.33090201627E+02  0.57787259195E+03  0.61104497715E+03  0.17300000000E+03 0. -1.
<mgrwt>
<rscale>  2 0.19859313E+03</rscale>
<asrwt>0</asrwt>
<pdfrwt beam="1">  1       21 0.23401638E+00 0.19859313E+03</pdfrwt>
<pdfrwt beam="2">  1       21 0.41886913E-02 0.19859313E+03</pdfrwt>
<totfact> 0.29861255E+04</totfact>
</mgrwt>
</event>
<event>
 4    1  0.3902417E-001  0.2322348E+03  0.7546771E-02  0.1125077E+00
         21   -1    0    0  501  502  0.00000000000E+00  0.00000000000E+00  0.20566449925E+03  0.20566449925E+03  0.00000000000E+00 0.  1.
         21   -1    0    0  502  503 -0.00000000000E+00 -0.00000000000E+00 -0.32160478338E+03  0.32160478338E+03  0.00000000000E+00 0. -1.
          6    1    1    2  501    0  0.42356336271E+02 -0.14902994306E+03  0.55299654290E+02  0.23872795169E+03  0.17300000000E+03 0. -1.
         -6    1    1    2    0  503 -0.42356336271E+02  0.14902994306E+03 -0.17123993842E+03  0.28854133094E+03  0.17300000000E+03 0.  1.
<mgrwt>
<rscale>  2 0.23223476E+03</rscale>
<asrwt>0</asrwt>
<pdfrwt beam="1">  1       21 0.31640692E-01 0.23223476E+03</pdfrwt>
<pdfrwt beam="2">  1       21 0.49477659E-01 0.23223476E+03</pdfrwt>
<totfact> 0.36670377E+04</totfact>
</mgrwt>
</event>
<event>
 4    1  0.3902417E-001  0.2840132E+03  0.7546771E-02  0.1093517E+00
         21   -1    0    0  503  502  0.00000000000E+00  0.00000000000E+00  0.12104655759E+03  0.12104655759E+03  0.00000000000E+00 0. -1.
         21   -1    0    0  501  503 -0.00000000000E+00 -0.00000000000E+00 -0.78742007914E+03  0.78742007914E+03  0.00000000000E+00 0. -1.
          6    1    1    2  501    0 -0.12048518555E+03  0.19030973751E+03 -0.15509929168E+03  0.32360356365E+03  0.17300000000E+03 0. -1.
         -6    1    1    2    0  502  0.12048518555E+03 -0.19030973751E+03 -0.51127422987E+03  0.58486307309E+03  0.17300000000E+03 0. -1.
<mgrwt>
<rscale>  2 0.28401316E+03</rscale>
<asrwt>0</asrwt>
<pdfrwt beam="1">  1       21 0.18622547E-01 0.28401316E+03</pdfrwt>
<pdfrwt beam="2">  1       21 0.12114155E+00 0.28401316E+03</pdfrwt>
<totfact> 0.12891602E+04</totfact>
</mgrwt>
</event>
<event>
 4    1  0.3902417E-001  0.2000949E+03  0.7546771E-02  0.1149659E+00
         21   -1    0    0  503  502  0.00000000000E+00  0.00000000000E+00  0.24231245678E+03  0.24231245678E+03  0.00000000000E+00 0. -1.
         21   -1    0    0  501  503 -0.00000000000E+00 -0.00000000000E+00 -0.16830071359E+03  0.16830071359E+03  0.00000000000E+00 0.  1.
          6    1    1    2  501    0  0.90169581000E+02  0.44479560255E+02  0.92869749549E+01  0.20031034053E+03  0.17300000000E+03 0. -1.
         -6    1    1    2    0  502 -0.90169581000E+02 -0.44479560255E+02  0.64724768236E+02  0.21030282985E+03  0.17300000000E+03 0.  1.
<mgrwt>
<rscale>  2 0.20009494E+03</rscale>
<asrwt>0</asrwt>
<pdfrwt beam="1">  1       21 0.37278840E-01 0.20009494E+03</pdfrwt>
<pdfrwt beam="2">  1       21 0.25892417E-01 0.20009494E+03</pdfrwt>
<totfact> 0.98000922E+04</totfact>
</mgrwt>
</event>
<event>
 4    1  0.3902417E-001  0.2204266E+03  0.7546771E-02  0.1133565E+00
         21   -1    0    0  501  502  0.00000000000E+00  0.00000000000E+00  0.29215924475E+03  0.29215924475E+03  0.00000000000E+00 0. -1.
         21   -1    0    0  502  503 -0.00000000000E+00 -0.00000000000E+00 -0.16664354581E+03  0.16664354581E+03  0.00000000000E+00 0. -1.
          6    1    1    2  501    0  0.84072276708E+02 -0.10766032814E+03  0.73079260554E+02  0.23222504665E+03  0.17300000000E+03 0. -1.
         -6    1    1    2    0  503 -0.84072276708E+02  0.10766032814E+03  0.52436438377E+02  0.22657774391E+03  0.17300000000E+03 0. -1.
<mgrwt>
<rscale>  2 0.22042662E+03</rscale>
<asrwt>0</asrwt>
<pdfrwt beam="1">  1       21 0.44947576E-01 0.22042662E+03</pdfrwt>
<pdfrwt beam="2">  1       21 0.25637469E-01 0.22042662E+03</pdfrwt>
<totfact> 0.67737462E+04</totfact>
</mgrwt>
</event>
<event>
 4    1  0.3902417E-001  0.1860398E+03  0.7546771E-02  0.1162082E+00
         21   -1    0    0  503  502  0.00000000000E+00  0.00000000000E+00  0.52159800805E+03  0.52159800805E+03  0.00000000000E+00 0.  1.
         21   -1    0    0  501  503 -0.00000000000E+00 -0.00000000000E+00 -0.12142485756E+03  0.12142485756E+03  0.00000000000E+00 0. -1.
          6    1    1    2  501    0 -0.54104743852E+02  0.41886659517E+02 -0.16433533931E+02  0.18676422728E+03  0.17300000000E+03 0. -1.
         -6    1    1    2    0  502  0.54104743852E+02 -0.41886659517E+02  0.41660668442E+03  0.45625863833E+03  0.17300000000E+03 0.  1.
<mgrwt>
<rscale>  2 0.18603982E+03</rscale>
<asrwt>0</asrwt>
<pdfrwt beam="1">  1       21 0.80245846E-01 0.18603982E+03</pdfrwt>
<pdfrwt beam="2">  1       21 0.18680748E-01 0.18603982E+03</pdfrwt>
<totfact> 0.35923676E+04</totfact>
</mgrwt>
</event>
<event>
 4    1  0.3902417E-001  0.2255829E+03  0.7546771E-02  0.1129788E+00
         21   -1    0    0  501  502  0.00000000000E+00  0.00000000000E+00  0.73395743970E+02  0.73395743970E+02  0.00000000000E+00 0.  1.
         21   -1    0    0  502  503 -0.00000000000E+00 -0.00000000000E+00 -0.77535057966E+03  0.77535057966E+03  0.00000000000E+00 0.  1.
          6    1    1    2  501    0  0.80849582289E+02 -0.12009167236E+03 -0.21295383790E+03  0.31022089195E+03  0.17300000000E+03 0.  1.
         -6    1    1    2    0  503 -0.80849582289E+02  0.12009167236E+03 -0.48900099779E+03  0.53852543168E+03  0.17300000000E+03 0.  1.
<mgrwt>
<rscale>  2 0.22558294E+03</rscale>
<asrwt>0</asrwt>
<pdfrwt beam="1">  1       21 0.11291653E-01 0.22558294E+03</pdfrwt>
<pdfrwt beam="2">  1       21 0.11928470E+00 0.22558294E+03</pdfrwt>
<totfact> 0.34431185E+04</totfact>
</mgrwt>
</event>
<event>
 4    1  0.3902417E-001  0.1753661E+03  0.7546771E-02  0.1172365E+00
         21   -1    0    0  503  502  0.00000000000E+00  0.00000000000E+00  0.56729532377E+02  0.56729532377E+02  0.00000000000E+00 0.  1.
         21   -1    0    0  501  503 -0.00000000000E+00 -0.00000000000E+00 -0.71727039411E+03  0.71727039411E+03  0.00000000000E+00 0.  1.
          6    1    1    2  501    0 -0.15021763626E+01  0.28670621782E+02 -0.52151797046E+03  0.55021291751E+03  0.17300000000E+03 0.  1.
         -6    1    1    2    0  502  0.15021763626E+01 -0.28670621782E+02 -0.13902289128E+03  0.22378700897E+03  0.17300000000E+03 0.  1.
<mgrwt>
<rscale>  2 0.17536608E+03</rscale>
<asrwt>0</asrwt>
<pdfrwt beam="1">  1       21 0.87276204E-02 0.17536608E+03</pdfrwt>
<pdfrwt beam="2">  1       21 0.11034929E+00 0.17536608E+03</pdfrwt>
<totfact> 0.67363726E+04</totfact>
</mgrwt>
</event>
<event>
 4    1  0.3902417E-001  0.1760296E+03  0.7546771E-02  0.1171702E+00
         21   -1    0    0  503  502  0.00000000000E+00  0.00000000000E+00  0.21727285313E+03  0.21727285313E+03  0.00000000000E+00 0.  1.
         21   -1    0    0  501  503 -0.00000000000E+00 -0.00000000000E+00 -0.14271374173E+03  0.14271374173E+03  0.00000000000E+00 0.  1.
          6    1    1    2  501    0  0.17798543743E+02  0.27214334763E+02  0.42009611343E+02  0.18097296931E+03  0.17300000000E+03 0. -1.
         -6    1    1    2    0  502 -0.17798543743E+02 -0.27214334763E+02  0.32549500056E+02  0.17901362554E+03  0.17300000000E+03 0. -1.
<mgrwt>
<rscale>  2 0.17602957E+03</rscale>
<asrwt>0</asrwt>
<pdfrwt beam="1">  1       21 0.33426593E-01 0.17602957E+03</pdfrwt>
<pdfrwt beam="2">  1       21 0.21955960E-01 0.17602957E+03</pdfrwt>
<totfact> 0.16786947E+05</totfact>
</mgrwt>
</event>
<event>
 4    1  0.3902417E-001  0.1795702E+03  0.7546771E-02  0.1168220E+00
         21   -1    0    0  503  502  0.00000000000E+00  0.00000000000E+00  0.10770926246E+04  0.10770926246E+04  0.00000000000E+00 0.  1.
         21   -1    0    0  501  503 -0.00000000000E+00 -0.00000000000E+00 -0.33002482835E+02  0.33002482835E+02  0.00000000000E+00 0.  1.
          6    1    1    2  501    0 -0.47084423230E+02 -0.99753655477E+01  0.35289525007E+03  0.39595518478E+03  0.17300000000E+03 0.  1.
         -6    1    1    2    0  502  0.47084423230E+02  0.99753655477E+01  0.69119489166E+03  0.71413992262E+03  0.17300000000E+03 0.  1.
<mgrwt>
<rscale>  2 0.17957018E+03</rscale>
<asrwt>0</asrwt>
<pdfrwt beam="1">  1       21 0.16570653E+00 0.17957018E+03</pdfrwt>
<pdfrwt beam="2">  1       21 0.50773059E-02 0.17957018E+03</pdfrwt>
<totfact> 0.60428864E+04</totfact>
</mgrwt>
</event>
<event>
 4    1  0.3902417E-001  0.1810384E+03  0.7546771E-02  0.1166802E+00
         21   -1    0    0  501  502  0.00000000000E+00  0.00000000000E+00  0.33007377479E+02  0.33007377479E+02  0.00000000000E+00 0.  1.
         21   -1    0    0  502  503 -0.00000000000E+00 -0.00000000000E+00 -0.10366415863E+04  0.10366415863E+04  0.00000000000E+00 0.  1.
          6    1    1    2  501    0  0.65596761813E+01 -0.52941996682E+02 -0.61160751669E+03  0.63783903835E+03  0.17300000000E+03 0.  1.
         -6    1    1    2    0  503 -0.65596761813E+01  0.52941996682E+02 -0.39202669217E+03  0.43180992548E+03  0.17300000000E+03 0.  1.
<mgrwt>
<rscale>  2 0.18103835E+03</rscale>
<asrwt>0</asrwt>
<pdfrwt beam="1">  1       21 0.50780592E-02 0.18103835E+03</pdfrwt>
<pdfrwt beam="2">  1       21 0.15948328E+00 0.18103835E+03</pdfrwt>
<totfact> 0.66944942E+04</totfact>
</mgrwt>
</event>
<event>
 4    1  0.3902417E-001  0.2287247E+03  0.7546771E-02  0.1127541E+00
         21   -1    0    0  503  502  0.00000000000E+00  0.00000000000E+00  0.55789503012E+03  0.55789503012E+03  0.00000000000E+00 0.  1.
         21   -1    0    0  501  503 -0.00000000000E+00 -0.00000000000E+00 -0.12094991394E+03  0.12094991394E+03  0.00000000000E+00 0. -1.
          6    1    1    2  501    0 -0.26878401603E+02  0.14718541828E+03  0.37936845410E+03  0.44298467219E+03  0.17300000000E+03 0.  1.
         -6    1    1    2    0  502  0.26878401603E+02 -0.14718541828E+03  0.57576662075E+02  0.23586027186E+03  0.17300000000E+03 0. -1.
<mgrwt>
<rscale>  2 0.22872472E+03</rscale>
<asrwt>0</asrwt>
<pdfrwt beam="1">  1       21 0.85830003E-01 0.22872472E+03</pdfrwt>
<pdfrwt beam="2">  1       21 0.18607679E-01 0.22872472E+03</pdfrwt>
<totfact> 0.30347631E+04</totfact>
</mgrwt>
</event>
<event>
 4    1  0.3902417E-001  0.2894279E+03  0.7546771E-02  0.1090648E+00
         21   -1    0    0  501  502  0.00000000000E+00  0.00000000000E+00  0.88902679309E+02  0.88902679309E+02  0.00000000000E+00 0.  1.
         21   -1    0    0  502  503 -0.00000000000E+00 -0.00000000000E+00 -0.94225345539E+03  0.94225345539E+03  0.00000000000E+00 0.  1.
          6    1    1    2  501    0 -0.22788536104E+03  0.43678091655E+02 -0.42563164400E+03  0.51471429924E+03  0.17300000000E+03 0.  1.
         -6    1    1    2    0  503  0.22788536104E+03 -0.43678091655E+02 -0.42771913208E+03  0.51644183546E+03  0.17300000000E+03 0.  1.
<mgrwt>
<rscale>  2 0.28942791E+03</rscale>
<asrwt>0</asrwt>
<pdfrwt beam="1">  1       21 0.13677335E-01 0.28942791E+03</pdfrwt>
<pdfrwt beam="2">  1       21 0.14496207E+00 0.28942791E+03</pdfrwt>
<totfact> 0.14319157E+04</totfact>
</mgrwt>
</event>
<event>
 4    1  0.3902417E-001  0.2013357E+03  0.7546771E-02  0.1148617E+00
         21   -1    0    0  503  502  0.00000000000E+00  0.00000000000E+00  0.18331689309E+03  0.18331689309E+03  0.00000000000E+00 0.  1.
         21   -1    0    0  501  503 -0.00000000000E+00 -0.00000000000E+00 -0.22136734274E+03  0.22136734274E+03  0.00000000000E+00 0.  1.
          6    1    1    2  501    0  0.91086903657E+02 -0.48065134956E+02 -0.25710084893E+02  0.20297066212E+03  0.17300000000E+03 0.  1.
         -6    1    1    2    0  502 -0.91086903657E+02  0.48065134956E+02 -0.12340364759E+02  0.20171357371E+03  0.17300000000E+03 0.  1.
<mgrwt>
<rscale>  2 0.20133574E+03</rscale>
<asrwt>0</asrwt>
<pdfrwt beam="1">  1       21 0.28202599E-01 0.20133574E+03</pdfrwt>
<pdfrwt beam="2">  1       21 0.34056514E-01 0.20133574E+03</pdfrwt>
<totfact> 0.99460881E+04</totfact>
</mgrwt>
</event>
<event>
 4    1  0.3902417E-001  0.2019454E+03  0.7546771E-02  0.1148108E+00
         21   -1    0    0  501  502  0.00000000000E+00  0.00000000000E+00  0.15405264896E+03  0.15405264896E+03  0.00000000000E+00 0.  1.
         21   -1    0    0  502  503 -0.00000000000E+00 -0.00000000000E+00 -0.40531898299E+03  0.40531898299E+03  0.00000000000E+00 0. -1.
          6    1    1    2  501    0 -0.24547432069E+02 -0.10124417243E+03  0.39088835694E+02  0.20569369448E+03  0.17300000000E+03 0.  1.
         -6    1    1    2    0  503  0.24547432069E+02  0.10124417243E+03 -0.29035516972E+03  0.35367793747E+03  0.17300000000E+03 0. -1.
<mgrwt>
<rscale>  2 0.20194544E+03</rscale>
<asrwt>0</asrwt>
<pdfrwt beam="1">  1       21 0.23700408E-01 0.20194544E+03</pdfrwt>
<pdfrwt beam="2">  1       21 0.62356765E-01 0.20194544E+03</pdfrwt>
<totfact> 0.39794127E+04</totfact>
</mgrwt>
</event>
<event>
 4    1  0.3902417E-001  0.2704374E+03  0.7546771E-02  0.1101030E+00
         21   -1    0    0  503  502  0.00000000000E+00  0.00000000000E+00  0.41240533563E+03  0.41240533563E+03  0.00000000000E+00 0. -1.
         21   -1    0    0  501  503 -0.00000000000E+00 -0.00000000000E+00 -0.20083692258E+03  0.20083692258E+03  0.00000000000E+00 0.  1.
          6    1    1    2  501    0 -0.20043173164E+03  0.55086307542E+02  0.90813209758E+00  0.27043891183E+03  0.17300000000E+03 0.  1.
         -6    1    1    2    0  502  0.20043173164E+03 -0.55086307542E+02  0.21066028095E+03  0.34280334639E+03  0.17300000000E+03 0. -1.
<mgrwt>
<rscale>  2 0.27043739E+03</rscale>
<asrwt>0</asrwt>
<pdfrwt beam="1">  1       21 0.63446974E-01 0.27043739E+03</pdfrwt>
<pdfrwt beam="2">  1       21 0.30897988E-01 0.27043739E+03</pdfrwt>
<totfact> 0.22203277E+04</totfact>
</mgrwt>
</event>
<event>
 4    1  0.3902417E-001  0.2045036E+03  0.7546771E-02  0.1145994E+00
         21   -1    0    0  503  502  0.00000000000E+00  0.00000000000E+00  0.11388804084E+03  0.11388804084E+03  0.00000000000E+00 0. -1.
         21   -1    0    0  501  503 -0.00000000000E+00 -0.00000000000E+00 -0.53980716458E+03  0.53980716458E+03  0.00000000000E+00 0.  1.
          6    1    1    2  501    0  0.69700874532E+02  0.83872085377E+02 -0.39777265880E+03  0.44726371047E+03  0.17300000000E+03 0.  1.
         -6    1    1    2    0  502 -0.69700874532E+02 -0.83872085377E+02 -0.28146464936E+02  0.20643149494E+03  0.17300000000E+03 0. -1.
<mgrwt>
<rscale>  2 0.20450364E+03</rscale>
<asrwt>0</asrwt>
<pdfrwt beam="1">  1       21 0.17521237E-01 0.20450364E+03</pdfrwt>
<pdfrwt beam="2">  1       21 0.83047255E-01 0.20450364E+03</pdfrwt>
<totfact> 0.37049200E+04</totfact>
</mgrwt>
</event>
<event>
 4    1  0.3902417E-001  0.1830642E+03  0.7546771E-02  0.1164870E+00
         21   -1    0    0  503  502  0.00000000000E+00  0.00000000000E+00  0.45073951488E+02  0.45073951488E+02  0.00000000000E+00 0.  1.
         21   -1    0    0  501  503 -0.00000000000E+00 -0.00000000000E+00 -0.77661769160E+03  0.77661769160E+03  0.00000000000E+00 0.  1.
          6    1    1    2  501    0  0.15318842393E+01  0.59842780015E+02 -0.45061214251E+03  0.48637825606E+03  0.17300000000E+03 0.  1.
         -6    1    1    2    0  502 -0.15318842393E+01 -0.59842780015E+02 -0.28093159760E+03  0.33531338703E+03  0.17300000000E+03 0.  1.
<mgrwt>
<rscale>  2 0.18306421E+03</rscale>
<asrwt>0</asrwt>
<pdfrwt beam="1">  1       21 0.69344547E-02 0.18306421E+03</pdfrwt>
<pdfrwt beam="2">  1       21 0.11947963E+00 0.18306421E+03</pdfrwt>
<totfact> 0.82429645E+04</totfact>
</mgrwt>
</event>
<event>
 4    1  0.3902417E-001  0.2664960E+03  0.7546771E-02  0.1103302E+00
         21   -1    0    0  503  502  0.00000000000E+00  0.00000000000E+00  0.18733127893E+03  0.18733127893E+03  0.00000000000E+00 0. -1.
         21   -1    0    0  501  503 -0.00000000000E+00 -0.00000000000E+00 -0.38040189842E+03  0.38040189842E+03  0.00000000000E+00 0.  1.
          6    1    1    2  501    0  0.12124453026E+03 -0.16245277555E+03 -0.80026083845E+02  0.27825224976E+03  0.17300000000E+03 0. -1.
         -6    1    1    2    0  502 -0.12124453026E+03  0.16245277555E+03 -0.11304453564E+03  0.28948092759E+03  0.17300000000E+03 0. -1.
<mgrwt>
<rscale>  2 0.26649604E+03</rscale>
<asrwt>0</asrwt>
<pdfrwt beam="1">  1       21 0.28820197E-01 0.26649604E+03</pdfrwt>
<pdfrwt beam="2">  1       21 0.58523369E-01 0.26649604E+03</pdfrwt>
<totfact> 0.30385519E+04</totfact>
</mgrwt>
</event>
<event>
 4    1  0.3902417E-001  0.1864957E+03  0.7546771E-02  0.1161661E+00
         21   -1    0    0  503  502  0.00000000000E+00  0.00000000000E+00  0.36255987964E+03  0.36255987964E+03  0.00000000000E+00 0. -1.
         21   -1    0    0  501  503 -0.00000000000E+00 -0.00000000000E+00 -0.98219238888E+02  0.98219238888E+02  0.00000000000E+00 0.  1.
          6    1    1    2  501    0  0.48087001391E+02  0.50391172036E+02  0.97002790878E+02  0.21021458408E+03  0.17300000000E+03 0. -1.
         -6    1    1    2    0  502 -0.48087001391E+02 -0.50391172036E+02  0.16733784987E+03  0.25056453444E+03  0.17300000000E+03 0. -1.
<mgrwt>
<rscale>  2 0.18649566E+03</rscale>
<asrwt>0</asrwt>
<pdfrwt beam="1">  1       21 0.55778442E-01 0.18649566E+03</pdfrwt>
<pdfrwt beam="2">  1       21 0.15110652E-01 0.18649566E+03</pdfrwt>
<totfact> 0.11745154E+05</totfact>
</mgrwt>
</event>
<event>
 4    1  0.3902417E-001  0.1840483E+03  0.7546771E-02  0.1163942E+00
         21   -1    0    0  503  502  0.00000000000E+00  0.00000000000E+00  0.29778629527E+03  0.29778629527E+03  0.00000000000E+00 0. -1.
         21   -1    0    0  501  503 -0.00000000000E+00 -0.00000000000E+00 -0.11375202660E+03  0.11375202660E+03  0.00000000000E+00 0. -1.
          6    1    1    2  501    0  0.51722385492E+02  0.35631130487E+02  0.92139411492E+02  0.20582384160E+03  0.17300000000E+03 0. -1.
         -6    1    1    2    0  502 -0.51722385492E+02 -0.35631130487E+02  0.91894857177E+02  0.20571448028E+03  0.17300000000E+03 0. -1.
<mgrwt>
<rscale>  2 0.18404832E+03</rscale>
<asrwt>0</asrwt>
<pdfrwt beam="1">  1       21 0.45813276E-01 0.18404832E+03</pdfrwt>
<pdfrwt beam="2">  1       21 0.17500312E-01 0.18404832E+03</pdfrwt>
<totfact> 0.13546420E+05</totfact>
</mgrwt>
</event>
<event>
 4    1  0.3902417E-001  0.1796415E+03  0.7546771E-02  0.1168150E+00
         21   -1    0    0  501  502  0.00000000000E+00  0.00000000000E+00  0.98194394816E+02  0.98194394816E+02  0.00000000000E+00 0.  1.
         21   -1    0    0  502  503 -0.00000000000E+00 -0.00000000000E+00 -0.33028530384E+03  0.33028530384E+03  0.00000000000E+00 0.  1.
          6    1    1    2  501    0 -0.30627871271E+02  0.37469942869E+02 -0.13114498001E+03  0.22241867929E+03  0.17300000000E+03 0. -1.
         -6    1    1    2    0  503  0.30627871271E+02 -0.37469942869E+02 -0.10094592902E+03  0.20606101937E+03  0.17300000000E+03 0. -1.
<mgrwt>
<rscale>  2 0.17964148E+03</rscale>
<asrwt>0</asrwt>
<pdfrwt beam="1">  1       21 0.15106830E-01 0.17964148E+03</pdfrwt>
<pdfrwt beam="2">  1       21 0.50813125E-01 0.17964148E+03</pdfrwt>
<totfact> 0.14328808E+05</totfact>
</mgrwt>
</event>
<event>
 4    1  0.3902417E-001  0.2368257E+03  0.7546771E-02  0.1121926E+00
         21   -1    0    0  501  502  0.00000000000E+00  0.00000000000E+00  0.81352536387E+03  0.81352536387E+03  0.00000000000E+00 0.  1.
         21   -1    0    0  502  503 -0.00000000000E+00 -0.00000000000E+00 -0.74712800703E+02  0.74712800703E+02  0.00000000000E+00 0.  1.
          6    1    1    2  501    0  0.15153461828E+03 -0.56521351683E+02  0.49283161939E+03  0.54678095139E+03  0.17300000000E+03 0.  1.
         -6    1    1    2    0  503 -0.15153461828E+03  0.56521351683E+02  0.24598094378E+03  0.34145721318E+03  0.17300000000E+03 0.  1.
<mgrwt>
<rscale>  2 0.23682568E+03</rscale>
<asrwt>0</asrwt>
<pdfrwt beam="1">  1       21 0.12515774E+00 0.23682568E+03</pdfrwt>
<pdfrwt beam="2">  1       21 0.11494278E-01 0.23682568E+03</pdfrwt>
<totfact> 0.29398613E+04</totfact>
</mgrwt>
</event>
<event>
 4    1  0.3902417E-001  0.2024548E+03  0.7546771E-02  0.1147684E+00
         21   -1    0    0  501  502  0.00000000000E+00  0.00000000000E+00  0.13778830248E+03  0.13778830248E+03  0.00000000000E+00 0. -1.
         21   -1    0    0  502  503 -0.00000000000E+00 -0.00000000000E+00 -0.33269053125E+03  0.33269053125E+03  0.00000000000E+00 0. -1.
          6    1    1    2  501    0  0.83495740339E+02 -0.63932959860E+02 -0.20911822656E+02  0.20353197866E+03  0.17300000000E+03 0. -1.
         -6    1    1    2    0  503 -0.83495740339E+02  0.63932959860E+02 -0.17399040612E+03  0.26694685507E+03  0.17300000000E+03 0. -1.
<mgrwt>
<rscale>  2 0.20245484E+03</rscale>
<asrwt>0</asrwt>
<pdfrwt beam="1">  1       21 0.21198201E-01 0.20245484E+03</pdfrwt>
<pdfrwt beam="2">  1       21 0.51183158E-01 0.20245484E+03</pdfrwt>
<totfact> 0.74790395E+04</totfact>
</mgrwt>
</event>
<event>
 4    1  0.3902417E-001  0.1967871E+03  0.7546771E-02  0.1152478E+00
         21   -1    0    0  501  502  0.00000000000E+00  0.00000000000E+00  0.40169020124E+03  0.40169020124E+03  0.00000000000E+00 0. -1.
         21   -1    0    0  502  503 -0.00000000000E+00 -0.00000000000E+00 -0.16778796991E+03  0.16778796991E+03  0.00000000000E+00 0. -1.
          6    1    1    2  501    0 -0.61718322827E+02 -0.70618795612E+02  0.30267266709E+03  0.36102064909E+03  0.17300000000E+03 0. -1.
         -6    1    1    2    0  503  0.61718322827E+02  0.70618795612E+02 -0.68770435758E+02  0.20845752205E+03  0.17300000000E+03 0. -1.
<mgrwt>
<rscale>  2 0.19678711E+03</rscale>
<asrwt>0</asrwt>
<pdfrwt beam="1">  1       21 0.61798493E-01 0.19678711E+03</pdfrwt>
<pdfrwt beam="2">  1       21 0.25813534E-01 0.19678711E+03</pdfrwt>
<totfact> 0.34566902E+04</totfact>
</mgrwt>
</event>
<event>
 4    1  0.3902417E-001  0.1773003E+03  0.7546771E-02  0.1170442E+00
         21   -1    0    0  501  502  0.00000000000E+00  0.00000000000E+00  0.34326794211E+03  0.34326794211E+03  0.00000000000E+00 0. -1.
         21   -1    0    0  502  503 -0.00000000000E+00 -0.00000000000E+00 -0.10408489995E+03  0.10408489995E+03  0.00000000000E+00 0. -1.
          6    1    1    2  501    0  0.38290480576E+02  0.63427908989E+01  0.42052307124E+02  0.18221906715E+03  0.17300000000E+03 0.  1.
         -6    1    1    2    0  503 -0.38290480576E+02 -0.63427908989E+01  0.19713073504E+03  0.26513377491E+03  0.17300000000E+03 0.  1.
<mgrwt>
<rscale>  2 0.17730029E+03</rscale>
<asrwt>0</asrwt>
<pdfrwt beam="1">  1       21 0.52810452E-01 0.17730029E+03</pdfrwt>
<pdfrwt beam="2">  1       21 0.16013062E-01 0.17730029E+03</pdfrwt>
<totfact> 0.11896546E+05</totfact>
</mgrwt>
</event>
<event>
 4    1  0.3902417E-001  0.2074428E+03  0.7546771E-02  0.1143607E+00
         21   -1    0    0  501  502  0.00000000000E+00  0.00000000000E+00  0.10513145531E+04  0.10513145531E+04  0.00000000000E+00 0.  1.
         21   -1    0    0  502  503 -0.00000000000E+00 -0.00000000000E+00 -0.44309945910E+02  0.44309945910E+02  0.00000000000E+00 0. -1.
          6    1    1    2  501    0 -0.61947581171E+02 -0.96260224706E+02  0.65475382317E+03  0.68682974792E+03  0.17300000000E+03 0.  1.
         -6    1    1    2    0  503  0.61947581171E+02  0.96260224706E+02  0.35225078400E+03  0.40879475107E+03  0.17300000000E+03 0. -1.
<mgrwt>
<rscale>  2 0.20744284E+03</rscale>
<asrwt>0</asrwt>
<pdfrwt beam="1">  1       21 0.16174068E+00 0.20744284E+03</pdfrwt>
<pdfrwt beam="2">  1       21 0.68169155E-02 0.20744284E+03</pdfrwt>
<totfact> 0.38357701E+04</totfact>
</mgrwt>
</event>
<event>
 4    1  0.3902417E-001  0.3495595E+03  0.7546771E-02  0.1062796E+00
         21   -1    0    0  503  502  0.00000000000E+00  0.00000000000E+00  0.57565084036E+03  0.57565084036E+03  0.00000000000E+00 0.  1.
         21   -1    0    0  501  503 -0.00000000000E+00 -0.00000000000E+00 -0.22337666909E+03  0.22337666909E+03  0.00000000000E+00 0. -1.
          6    1    1    2  501    0  0.88440848661E+02  0.29058741798E+03  0.87041096387E+02  0.36023323508E+03  0.17300000000E+03 0. -1.
         -6    1    1    2    0  502 -0.88440848661E+02 -0.29058741798E+03  0.26523307489E+03  0.43879427437E+03  0.17300000000E+03 0.  1.
<mgrwt>
<rscale>  2 0.34955948E+03</rscale>
<asrwt>0</asrwt>
<pdfrwt beam="1">  1       21 0.88561667E-01 0.34955948E+03</pdfrwt>
<pdfrwt beam="2">  1       21 0.34365642E-01 0.34955948E+03</pdfrwt>
<totfact> 0.81754920E+03</totfact>
</mgrwt>
</event>
<event>
 4    1  0.3902417E-001  0.1811137E+03  0.7546771E-02  0.1166730E+00
         21   -1    0    0  503  502  0.00000000000E+00  0.00000000000E+00  0.60809305433E+02  0.60809305433E+02  0.00000000000E+00 0. -1.
         21   -1    0    0  501  503 -0.00000000000E+00 -0.00000000000E+00 -0.84536548915E+03  0.84536548915E+03  0.00000000000E+00 0. -1.
          6    1    1    2  501    0 -0.26277691325E+02  0.46718862490E+02 -0.11970880093E+03  0.21709989911E+03  0.17300000000E+03 0. -1.
         -6    1    1    2    0  502  0.26277691325E+02 -0.46718862490E+02 -0.66484738278E+03  0.68907489547E+03  0.17300000000E+03 0. -1.
<mgrwt>
<rscale>  2 0.18111369E+03</rscale>
<asrwt>0</asrwt>
<pdfrwt beam="1">  1       21 0.93552774E-02 0.18111369E+03</pdfrwt>
<pdfrwt beam="2">  1       21 0.13005623E+00 0.18111369E+03</pdfrwt>
<totfact> 0.39660162E+04</totfact>
</mgrwt>
</event>
<event>
 4    1  0.3902417E-001  0.2338879E+03  0.7546771E-02  0.1123933E+00
         21   -1    0    0  503  502  0.00000000000E+00  0.00000000000E+00  0.10131460099E+03  0.10131460099E+03  0.00000000000E+00 0. -1.
         21   -1    0    0  501  503 -0.00000000000E+00 -0.00000000000E+00 -0.55519950403E+03  0.55519950403E+03  0.00000000000E+00 0.  1.
          6    1    1    2  501    0 -0.15713931683E+03 -0.90430323581E+01 -0.28136725422E+03  0.36588396122E+03  0.17300000000E+03 0. -1.
         -6    1    1    2    0  502  0.15713931683E+03  0.90430323581E+01 -0.17251764883E+03  0.29063014380E+03  0.17300000000E+03 0.  1.
<mgrwt>
<rscale>  2 0.23388788E+03</rscale>
<asrwt>0</asrwt>
<pdfrwt beam="1">  1       21 0.15586862E-01 0.23388788E+03</pdfrwt>
<pdfrwt beam="2">  1       21 0.85415308E-01 0.23388788E+03</pdfrwt>
<totfact> 0.42470340E+04</totfact>
</mgrwt>
</event>
<event>
 4    1  0.3902417E-001  0.1792326E+03  0.7546771E-02  0.1168548E+00
         21   -1    0    0  501  502  0.00000000000E+00  0.00000000000E+00  0.26480833929E+03  0.26480833929E+03  0.00000000000E+00 0.  1.
         21   -1    0    0  502  503 -0.00000000000E+00 -0.00000000000E+00 -0.12335471184E+03  0.12335471184E+03  0.00000000000E+00 0. -1.
          6    1    1    2  501    0 -0.46768749966E+02 -0.28295832000E+01  0.95704529793E+02  0.20318385649E+03  0.17300000000E+03 0. -1.
         -6    1    1    2    0  503  0.46768749966E+02  0.28295832000E+01  0.45749097658E+02  0.18497919464E+03  0.17300000000E+03 0. -1.
<mgrwt>
<rscale>  2 0.17923259E+03</rscale>
<asrwt>0</asrwt>
<pdfrwt beam="1">  1       21 0.40739744E-01 0.17923259E+03</pdfrwt>
<pdfrwt beam="2">  1       21 0.18977648E-01 0.17923259E+03</pdfrwt>
<totfact> 0.14838648E+05</totfact>
</mgrwt>
</event>
<event>
 4    1  0.3902417E-001  0.1840633E+03  0.7546771E-02  0.1163928E+00
         21   -1    0    0  501  502  0.00000000000E+00  0.00000000000E+00  0.33478714315E+03  0.33478714315E+03  0.00000000000E+00 0.  1.
         21   -1    0    0  502  503 -0.00000000000E+00 -0.00000000000E+00 -0.16029150015E+03  0.16029150015E+03  0.00000000000E+00 0.  1.
          6    1    1    2  501    0  0.48481487638E+02 -0.39997950385E+02  0.23754965548E+03  0.30051477418E+03  0.17300000000E+03 0. -1.
         -6    1    1    2    0  503 -0.48481487638E+02  0.39997950385E+02 -0.63054012482E+02  0.19456386912E+03  0.17300000000E+03 0. -1.
<mgrwt>
<rscale>  2 0.18406328E+03</rscale>
<asrwt>0</asrwt>
<pdfrwt beam="1">  1       21 0.51505714E-01 0.18406328E+03</pdfrwt>
<pdfrwt beam="2">  1       21 0.24660231E-01 0.18406328E+03</pdfrwt>
<totfact> 0.55898172E+04</totfact>
</mgrwt>
</event>
<event>
 4    1  0.3902417E-001  0.1893164E+03  0.7546771E-02  0.1159079E+00
         21   -1    0    0  501  502  0.00000000000E+00  0.00000000000E+00  0.67656527966E+02  0.67656527966E+02  0.00000000000E+00 0.  1.
         21   -1    0    0  502  503 -0.00000000000E+00 -0.00000000000E+00 -0.61938476452E+03  0.61938476452E+03  0.00000000000E+00 0.  1.
          6    1    1    2  501    0  0.63371259828E+02  0.43540521106E+02 -0.40654842386E+03  0.44846662584E+03  0.17300000000E+03 0.  1.
         -6    1    1    2    0  503 -0.63371259828E+02 -0.43540521106E+02 -0.14517981269E+03  0.23857466664E+03  0.17300000000E+03 0.  1.
<mgrwt>
<rscale>  2 0.18931638E+03</rscale>
<asrwt>0</asrwt>
<pdfrwt beam="1">  1       21 0.10408697E-01 0.18931638E+03</pdfrwt>
<pdfrwt beam="2">  1       21 0.95289960E-01 0.18931638E+03</pdfrwt>
<totfact> 0.69634022E+04</totfact>
</mgrwt>
</event>
<event>
 4    1  0.3902417E-001  0.1746142E+03  0.7546771E-02  0.1173120E+00
         21   -1    0    0  501  502  0.00000000000E+00  0.00000000000E+00  0.15765486709E+02  0.15765486709E+02  0.00000000000E+00 0. -1.
         21   -1    0    0  502  503 -0.00000000000E+00 -0.00000000000E+00 -0.20950410075E+04  0.20950410075E+04  0.00000000000E+00 0. -1.
          6    1    1    2  501    0  0.22899965306E+02 -0.60587534931E+01 -0.74700765789E+03  0.76714441786E+03  0.17300000000E+03 0. -1.
         -6    1    1    2    0  503 -0.22899965306E+02  0.60587534931E+01 -0.13322678629E+04  0.13436620763E+04  0.17300000000E+03 0. -1.
<mgrwt>
<rscale>  2 0.17461419E+03</rscale>
<asrwt>0</asrwt>
<pdfrwt beam="1">  1       21 0.24254597E-02 0.17461419E+03</pdfrwt>
<pdfrwt beam="2">  1       21 0.32231398E+00 0.17461419E+03</pdfrwt>
<totfact> 0.23241720E+04</totfact>
</mgrwt>
</event>
<event>
 4    1  0.3902417E-001  0.2877821E+03  0.7546771E-02  0.1091513E+00
         21   -1    0    0  503  502  0.00000000000E+00  0.00000000000E+00  0.26773619441E+03  0.26773619441E+03  0.00000000000E+00 0. -1.
         21   -1    0    0  501  503 -0.00000000000E+00 -0.00000000000E+00 -0.33637873179E+03  0.33637873179E+03  0.00000000000E+00 0.  1.
          6    1    1    2  501    0  0.36092507140E+02  0.22712741218E+03 -0.11997730080E+03  0.31179012675E+03  0.17300000000E+03 0.  1.
         -6    1    1    2    0  502 -0.36092507140E+02 -0.22712741218E+03  0.51334763425E+02  0.29232479944E+03  0.17300000000E+03 0. -1.
<mgrwt>
<rscale>  2 0.28778209E+03</rscale>
<asrwt>0</asrwt>
<pdfrwt beam="1">  1       21 0.41190184E-01 0.28778209E+03</pdfrwt>
<pdfrwt beam="2">  1       21 0.51750574E-01 0.28778209E+03</pdfrwt>
<totfact> 0.19176878E+04</totfact>
</mgrwt>
</event>
<event>
 4    1  0.3902417E-001  0.2048016E+03  0.7546771E-02  0.1145750E+00
         21   -1    0    0  503  502  0.00000000000E+00  0.00000000000E+00  0.15830411619E+03  0.15830411619E+03  0.00000000000E+00 0. -1.
         21   -1    0    0  501  503 -0.00000000000E+00 -0.00000000000E+00 -0.26543206916E+03  0.26543206916E+03  0.00000000000E+00 0. -1.
          6    1    1    2  501    0  0.10954956881E+03 -0.36866086384E+01 -0.62532303300E+02  0.21413544327E+03  0.17300000000E+03 0. -1.
         -6    1    1    2    0  502 -0.10954956881E+03  0.36866086384E+01 -0.44595649669E+02  0.20960074208E+03  0.17300000000E+03 0. -1.
<mgrwt>
<rscale>  2 0.20480161E+03</rscale>
<asrwt>0</asrwt>
<pdfrwt beam="1">  1       21 0.24354480E-01 0.20480161E+03</pdfrwt>
<pdfrwt beam="2">  1       21 0.40835702E-01 0.20480161E+03</pdfrwt>
<totfact> 0.91512076E+04</totfact>
</mgrwt>
</event>
<event>
 4    1  0.3902417E-001  0.3729716E+03  0.7546771E-02  0.1053562E+00
         21   -1    0    0  501  502  0.00000000000E+00  0.00000000000E+00  0.85507502139E+03  0.85507502139E+03  0.00000000000E+00 0.  1.
         21   -1    0    0  502  503 -0.00000000000E+00 -0.00000000000E+00 -0.19608663169E+03  0.19608663169E+03  0.00000000000E+00 0. -1.
          6    1    1    2  501    0 -0.23035435316E+03 -0.23688754694E+03  0.54641423723E+03  0.66157112737E+03  0.17300000000E+03 0. -1.
         -6    1    1    2    0  503  0.23035435316E+03  0.23688754694E+03  0.11257415247E+03  0.38959052571E+03  0.17300000000E+03 0.  1.
<mgrwt>
<rscale>  2 0.37297163E+03</rscale>
<asrwt>0</asrwt>
<pdfrwt beam="1">  1       21 0.13155000E+00 0.37297163E+03</pdfrwt>
<pdfrwt beam="2">  1       21 0.30167175E-01 0.37297163E+03</pdfrwt>
<totfact> 0.39656075E+03</totfact>
</mgrwt>
</event>
<event>
 4    1  0.3902417E-001  0.2182561E+03  0.7546771E-02  0.1135190E+00
         21   -1    0    0  501  502  0.00000000000E+00  0.00000000000E+00  0.41811447841E+03  0.41811447841E+03  0.00000000000E+00 0. -1.
         21   -1    0    0  502  503 -0.00000000000E+00 -0.00000000000E+00 -0.13155615070E+03  0.13155615070E+03  0.00000000000E+00 0. -1.
          6    1    1    2  501    0 -0.11342079785E+03 -0.69587827909E+02  0.24387890334E+03  0.32728070928E+03  0.17300000000E+03 0. -1.
         -6    1    1    2    0  503  0.11342079785E+03  0.69587827909E+02  0.42679424369E+02  0.22238991983E+03  0.17300000000E+03 0. -1.
<mgrwt>
<rscale>  2 0.21825614E+03</rscale>
<asrwt>0</asrwt>
<pdfrwt beam="1">  1       21 0.64325304E-01 0.21825614E+03</pdfrwt>
<pdfrwt beam="2">  1       21 0.20239408E-01 0.21825614E+03</pdfrwt>
<totfact> 0.49716251E+04</totfact>
</mgrwt>
</event>
<event>
 4    1  0.3902417E-001  0.6004275E+03  0.7546771E-02  0.9904520E-01
         21   -1    0    0  501  502  0.00000000000E+00  0.00000000000E+00  0.32441176980E+03  0.32441176980E+03  0.00000000000E+00 0.  1.
         21   -1    0    0  502  503 -0.00000000000E+00 -0.00000000000E+00 -0.14521704621E+04  0.14521704621E+04  0.00000000000E+00 0.  1.
          6    1    1    2  501    0 -0.41705302923E+03 -0.39579153290E+03 -0.13349916388E+03  0.61508958166E+03  0.17300000000E+03 0.  1.
         -6    1    1    2    0  503  0.41705302923E+03  0.39579153290E+03 -0.99425952843E+03  0.11614926502E+04  0.17300000000E+03 0.  1.
<mgrwt>
<rscale>  2 0.60042749E+03</rscale>
<asrwt>0</asrwt>
<pdfrwt beam="1">  1       21 0.49909503E-01 0.60042749E+03</pdfrwt>
<pdfrwt beam="2">  1       21 0.22341084E+00 0.60042749E+03</pdfrwt>
<totfact> 0.27709409E+02</totfact>
</mgrwt>
</event>
<event>
 4    1  0.3902417E-001  0.1808932E+03  0.7546771E-02  0.1166941E+00
         21   -1    0    0  503  502  0.00000000000E+00  0.00000000000E+00  0.16657930803E+04  0.16657930803E+04  0.00000000000E+00 0. -1.
         21   -1    0    0  501  503 -0.00000000000E+00 -0.00000000000E+00 -0.26693932601E+02  0.26693932601E+02  0.00000000000E+00 0.  1.
          6    1    1    2  501    0 -0.51361779352E+02 -0.12462480050E+02  0.38464830328E+03  0.42506077565E+03  0.17300000000E+03 0.  1.
         -6    1    1    2    0  502  0.51361779352E+02  0.12462480050E+02  0.12544508444E+04  0.12674262372E+04  0.17300000000E+03 0. -1.
<mgrwt>
<rscale>  2 0.18089319E+03</rscale>
<asrwt>0</asrwt>
<pdfrwt beam="1">  1       21 0.25627578E+00 0.18089319E+03</pdfrwt>
<pdfrwt beam="2">  1       21 0.41067602E-02 0.18089319E+03</pdfrwt>
<totfact> 0.23145596E+04</totfact>
</mgrwt>
</event>
<event>
 4    1  0.3902417E-001  0.2702258E+03  0.7546771E-02  0.1101150E+00
         21   -1    0    0  503  502  0.00000000000E+00  0.00000000000E+00  0.16043467255E+03  0.16043467255E+03  0.00000000000E+00 0.  1.
         21   -1    0    0  501  503 -0.00000000000E+00 -0.00000000000E+00 -0.52709888362E+03  0.52709888362E+03  0.00000000000E+00 0.  1.
          6    1    1    2  501    0 -0.90415971060E+02 -0.18686339216E+03 -0.31033902013E+03  0.41150003957E+03  0.17300000000E+03 0.  1.
         -6    1    1    2    0  502  0.90415971060E+02  0.18686339216E+03 -0.56325190929E+02  0.27603351660E+03  0.17300000000E+03 0.  1.
<mgrwt>
<rscale>  2 0.27022579E+03</rscale>
<asrwt>0</asrwt>
<pdfrwt beam="1">  1       21 0.24682257E-01 0.27022579E+03</pdfrwt>
<pdfrwt beam="2">  1       21 0.81092136E-01 0.27022579E+03</pdfrwt>
<totfact> 0.19866321E+04</totfact>
</mgrwt>
</event>
<event>
 4    1  0.3902417E-001  0.1801364E+03  0.7546771E-02  0.1167671E+00
         21   -1    0    0  503  502  0.00000000000E+00  0.00000000000E+00  0.82613876160E+02  0.82613876160E+02  0.00000000000E+00 0.  1.
         21   -1    0    0  501  503 -0.00000000000E+00 -0.00000000000E+00 -0.50582538556E+03  0.50582538556E+03  0.00000000000E+00 0. -1.
          6    1    1    2  501    0 -0.47029674766E+02 -0.17559846600E+02 -0.35069589801E+03  0.39425467836E+03  0.17300000000E+03 0. -1.
         -6    1    1    2    0  502  0.47029674766E+02  0.17559846600E+02 -0.72515611382E+02  0.19418458336E+03  0.17300000000E+03 0. -1.
<mgrwt>
<rscale>  2 0.18013644E+03</rscale>
<asrwt>0</asrwt>
<pdfrwt beam="1">  1       21 0.12709827E-01 0.18013644E+03</pdfrwt>
<pdfrwt beam="2">  1       21 0.77819290E-01 0.18013644E+03</pdfrwt>
<totfact> 0.77900361E+04</totfact>
</mgrwt>
</event>
<event>
 4    1  0.3902417E-001  0.2136655E+03  0.7546771E-02  0.1138696E+00
         21   -1    0    0  501  502  0.00000000000E+00  0.00000000000E+00  0.24946651849E+03  0.24946651849E+03  0.00000000000E+00 0.  1.
         21   -1    0    0  502  503 -0.00000000000E+00 -0.00000000000E+00 -0.19331996742E+03  0.19331996742E+03  0.00000000000E+00 0.  1.
          6    1    1    2  501    0 -0.11173835132E+03  0.56907684464E+02  0.79219904658E+02  0.22787877699E+03  0.17300000000E+03 0.  1.
         -6    1    1    2    0  503  0.11173835132E+03 -0.56907684464E+02 -0.23073353588E+02  0.21490770892E+03  0.17300000000E+03 0.  1.
<mgrwt>
<rscale>  2 0.21366549E+03</rscale>
<asrwt>0</asrwt>
<pdfrwt beam="1">  1       21 0.38379464E-01 0.21366549E+03</pdfrwt>
<pdfrwt beam="2">  1       21 0.29741534E-01 0.21366549E+03</pdfrwt>
<totfact> 0.70298586E+04</totfact>
</mgrwt>
</event>
<event>
 4    1  0.3902417E-001  0.3023702E+03  0.7546771E-02  0.1084062E+00
         21   -1    0    0  501  502  0.00000000000E+00  0.00000000000E+00  0.64435496591E+03  0.64435496591E+03  0.00000000000E+00 0.  1.
         21   -1    0    0  502  503 -0.00000000000E+00 -0.00000000000E+00 -0.15886714077E+03  0.15886714077E+03  0.00000000000E+00 0. -1.
          6    1    1    2  501    0 -0.12244316025E+03 -0.21565346949E+03  0.37402933918E+03  0.48096329689E+03  0.17300000000E+03 0. -1.
         -6    1    1    2    0  503  0.12244316025E+03  0.21565346949E+03  0.11145848597E+03  0.32225880979E+03  0.17300000000E+03 0.  1.
<mgrwt>
<rscale>  2 0.30237021E+03</rscale>
<asrwt>0</asrwt>
<pdfrwt beam="1">  1       21 0.99131531E-01 0.30237021E+03</pdfrwt>
<pdfrwt beam="2">  1       21 0.24441099E-01 0.30237021E+03</pdfrwt>
<totfact> 0.12474974E+04</totfact>
</mgrwt>
</event>
<event>
 4    1  0.3902417E-001  0.1898420E+03  0.7546771E-02  0.1158604E+00
         21   -1    0    0  503  502  0.00000000000E+00  0.00000000000E+00  0.44862627029E+02  0.44862627029E+02  0.00000000000E+00 0. -1.
         21   -1    0    0  501  503 -0.00000000000E+00 -0.00000000000E+00 -0.16746283633E+04  0.16746283633E+04  0.00000000000E+00 0.  1.
          6    1    1    2  501    0  0.69077842021E+02 -0.36595392788E+02 -0.14350253566E+04  0.14475281501E+04  0.17300000000E+03 0.  1.
         -6    1    1    2    0  502 -0.69077842021E+02  0.36595392788E+02 -0.19474037967E+03  0.27196284031E+03  0.17300000000E+03 0. -1.
<mgrwt>
<rscale>  2 0.18984196E+03</rscale>
<asrwt>0</asrwt>
<pdfrwt beam="1">  1       21 0.69019427E-02 0.18984196E+03</pdfrwt>
<pdfrwt beam="2">  1       21 0.25763513E+00 0.18984196E+03</pdfrwt>
<totfact> 0.93231069E+03</totfact>
</mgrwt>
</event>
<event>
 4    1  0.3902417E-001  0.1759856E+03  0.7546771E-02  0.1171746E+00
         21   -1    0    0  503  502  0.00000000000E+00  0.00000000000E+00  0.69908853942E+02  0.69908853942E+02  0.00000000000E+00 0. -1.
         21   -1    0    0  501  503 -0.00000000000E+00 -0.00000000000E+00 -0.56251355973E+03  0.56251355973E+03  0.00000000000E+00 0. -1.
          6    1    1    2  501    0 -0.23534071222E+02 -0.22092214956E+02 -0.39204466692E+03  0.42973240433E+03  0.17300000000E+03 0. -1.
         -6    1    1    2    0  502  0.23534071222E+02  0.22092214956E+02 -0.10056003887E+03  0.20269000934E+03  0.17300000000E+03 0. -1.
<mgrwt>
<rscale>  2 0.17598556E+03</rscale>
<asrwt>0</asrwt>
<pdfrwt beam="1">  1       21 0.10755208E-01 0.17598556E+03</pdfrwt>
<pdfrwt beam="2">  1       21 0.86540547E-01 0.17598556E+03</pdfrwt>
<totfact> 0.82609153E+04</totfact>
</mgrwt>
</event>
<event>
 4    1  0.3902417E-001  0.1966090E+03  0.7546771E-02  0.1152632E+00
         21   -1    0    0  503  502  0.00000000000E+00  0.00000000000E+00  0.32475904098E+03  0.32475904098E+03  0.00000000000E+00 0. -1.
         21   -1    0    0  501  503 -0.00000000000E+00 -0.00000000000E+00 -0.13030320171E+03  0.13030320171E+03  0.00000000000E+00 0. -1.
          6    1    1    2  501    0  0.79206530556E+02 -0.49521905469E+02  0.16416160334E+03  0.25613302328E+03  0.17300000000E+03 0. -1.
         -6    1    1    2    0  502 -0.79206530556E+02  0.49521905469E+02  0.30294235940E+02  0.19892921941E+03  0.17300000000E+03 0. -1.
<mgrwt>
<rscale>  2 0.19660899E+03</rscale>
<asrwt>0</asrwt>
<pdfrwt beam="1">  1       21 0.49962929E-01 0.19660899E+03</pdfrwt>
<pdfrwt beam="2">  1       21 0.20046647E-01 0.19660899E+03</pdfrwt>
<totfact> 0.87566233E+04</totfact>
</mgrwt>
</event>
<event>
 4    1  0.3902417E-001  0.3883705E+03  0.7546771E-02  0.1047883E+00
         21   -1    0    0  503  502  0.00000000000E+00  0.00000000000E+00  0.38926862484E+03  0.38926862484E+03  0.00000000000E+00 0.  1.
         21   -1    0    0  501  503 -0.00000000000E+00 -0.00000000000E+00 -0.39500999719E+03  0.39500999719E+03  0.00000000000E+00 0. -1.
          6    1    1    2  501    0  0.34639095063E+03 -0.30265180706E+02 -0.57032331018E+02  0.39253580553E+03  0.17300000000E+03 0.  1.
         -6    1    1    2    0  502 -0.34639095063E+03  0.30265180706E+02  0.51290958669E+02  0.39174281650E+03  0.17300000000E+03 0. -1.
<mgrwt>
<rscale>  2 0.38837053E+03</rscale>
<asrwt>0</asrwt>
<pdfrwt beam="1">  1       21 0.59887481E-01 0.38837053E+03</pdfrwt>
<pdfrwt beam="2">  1       21 0.60770769E-01 0.38837053E+03</pdfrwt>
<totfact> 0.59148469E+03</totfact>
</mgrwt>
</event>
<event>
 4    1  0.3902417E-001  0.1901741E+03  0.7546771E-02  0.1158304E+00
         21   -1    0    0  503  502  0.00000000000E+00  0.00000000000E+00  0.71181588495E+02  0.71181588495E+02  0.00000000000E+00 0.  1.
         21   -1    0    0  501  503 -0.00000000000E+00 -0.00000000000E+00 -0.65054368848E+03  0.65054368848E+03  0.00000000000E+00 0.  1.
          6    1    1    2  501    0 -0.33997865219E+02  0.71283509437E+02 -0.45855022461E+03  0.49642169780E+03  0.17300000000E+03 0.  1.
         -6    1    1    2    0  502  0.33997865219E+02 -0.71283509437E+02 -0.12081187538E+03  0.22530357917E+03  0.17300000000E+03 0.  1.
<mgrwt>
<rscale>  2 0.19017411E+03</rscale>
<asrwt>0</asrwt>
<pdfrwt beam="1">  1       21 0.10951014E-01 0.19017411E+03</pdfrwt>
<pdfrwt beam="2">  1       21 0.10008364E+00 0.19017411E+03</pdfrwt>
<totfact> 0.56668222E+04</totfact>
</mgrwt>
</event>
<event>
 4    1  0.3902417E-001  0.3320182E+03  0.7546771E-02  0.1070247E+00
         21   -1    0    0  501  502  0.00000000000E+00  0.00000000000E+00  0.34641578069E+03  0.34641578069E+03  0.00000000000E+00 0. -1.
         21   -1    0    0  502  503 -0.00000000000E+00 -0.00000000000E+00 -0.32533848829E+03  0.32533848829E+03  0.00000000000E+00 0.  1.
          6    1    1    2  501    0  0.26945172799E+03  0.87766078205E+02 -0.39147353894E+02  0.33431816211E+03  0.17300000000E+03 0.  1.
         -6    1    1    2    0  503 -0.26945172799E+03 -0.87766078205E+02  0.60224646298E+02  0.33743610687E+03  0.17300000000E+03 0. -1.
<mgrwt>
<rscale>  2 0.33201825E+03</rscale>
<asrwt>0</asrwt>
<pdfrwt beam="1">  1       21 0.53294735E-01 0.33201825E+03</pdfrwt>
<pdfrwt beam="2">  1       21 0.50052076E-01 0.33201825E+03</pdfrwt>
<totfact> 0.11797799E+04</totfact>
</mgrwt>
</event>
<event>
 4    1  0.3902417E-001  0.1948537E+03  0.7546771E-02  0.1154155E+00
         21   -1    0    0  503  502  0.00000000000E+00  0.00000000000E+00  0.34522736258E+03  0.34522736258E+03  0.00000000000E+00 0.  1.
         21   -1    0    0  501  503 -0.00000000000E+00 -0.00000000000E+00 -0.12524371852E+03  0.12524371852E+03  0.00000000000E+00 0.  1.
          6    1    1    2  501    0 -0.79622634789E+02 -0.41221134634E+02  0.27869408451E+02  0.19683660696E+03  0.17300000000E+03 0.  1.
         -6    1    1    2    0  502  0.79622634789E+02  0.41221134634E+02  0.19211423562E+03  0.27363447414E+03  0.17300000000E+03 0.  1.
<mgrwt>
<rscale>  2 0.19485365E+03</rscale>
<asrwt>0</asrwt>
<pdfrwt beam="1">  1       21 0.53111901E-01 0.19485365E+03</pdfrwt>
<pdfrwt beam="2">  1       21 0.19268265E-01 0.19485365E+03</pdfrwt>
<totfact> 0.83011676E+04</totfact>
</mgrwt>
</event>
<event>
 4    1  0.3902417E-001  0.1862210E+03  0.7546771E-02  0.1161915E+00
         21   -1    0    0  503  502  0.00000000000E+00  0.00000000000E+00  0.14968006325E+03  0.14968006325E+03  0.00000000000E+00 0. -1.
         21   -1    0    0  501  503 -0.00000000000E+00 -0.00000000000E+00 -0.25064577245E+03  0.25064577245E+03  0.00000000000E+00 0. -1.
          6    1    1    2  501    0  0.61748536534E+02 -0.30600136304E+02  0.45738434286E+01  0.18627713265E+03  0.17300000000E+03 0. -1.
         -6    1    1    2    0  502 -0.61748536534E+02  0.30600136304E+02 -0.10553955263E+03  0.21404870305E+03  0.17300000000E+03 0. -1.
<mgrwt>
<rscale>  2 0.18622097E+03</rscale>
<asrwt>0</asrwt>
<pdfrwt beam="1">  1       21 0.23027702E-01 0.18622097E+03</pdfrwt>
<pdfrwt beam="2">  1       21 0.38560888E-01 0.18622097E+03</pdfrwt>
<totfact> 0.11510042E+05</totfact>
</mgrwt>
</event>
<event>
 4    1  0.3902417E-001  0.1975166E+03  0.7546771E-02  0.1151851E+00
         21   -1    0    0  501  502  0.00000000000E+00  0.00000000000E+00  0.49556088522E+03  0.49556088522E+03  0.00000000000E+00 0.  1.
         21   -1    0    0  502  503 -0.00000000000E+00 -0.00000000000E+00 -0.79825347547E+02  0.79825347547E+02  0.00000000000E+00 0.  1.
          6    1    1    2  501    0  0.40032794971E+02 -0.86493778007E+02  0.17408334461E+03  0.26328275518E+03  0.17300000000E+03 0.  1.
         -6    1    1    2    0  503 -0.40032794971E+02  0.86493778007E+02  0.24165219307E+03  0.31210347758E+03  0.17300000000E+03 0.  1.
<mgrwt>
<rscale>  2 0.19751658E+03</rscale>
<asrwt>0</asrwt>
<pdfrwt beam="1">  1       21 0.76240135E-01 0.19751658E+03</pdfrwt>
<pdfrwt beam="2">  1       21 0.12280823E-01 0.19751658E+03</pdfrwt>
<totfact> 0.86110576E+04</totfact>
</mgrwt>
</event>
<event>
 4    1  0.3902417E-001  0.2147222E+03  0.7546771E-02  0.1137880E+00
         21   -1    0    0  503  502  0.00000000000E+00  0.00000000000E+00  0.24069504467E+03  0.24069504467E+03  0.00000000000E+00 0. -1.
         21   -1    0    0  501  503 -0.00000000000E+00 -0.00000000000E+00 -0.27064593483E+03  0.27064593483E+03  0.00000000000E+00 0.  1.
          6    1    1    2  501    0 -0.92466591404E+02  0.87330144799E+02 -0.15318922816E+03  0.26376611674E+03  0.17300000000E+03 0.  1.
         -6    1    1    2    0  502  0.92466591404E+02 -0.87330144799E+02  0.12323833800E+03  0.24757486276E+03  0.17300000000E+03 0. -1.
<mgrwt>
<rscale>  2 0.21472220E+03</rscale>
<asrwt>0</asrwt>
<pdfrwt beam="1">  1       21 0.37030007E-01 0.21472220E+03</pdfrwt>
<pdfrwt beam="2">  1       21 0.41637836E-01 0.21472220E+03</pdfrwt>
<totfact> 0.38621470E+04</totfact>
</mgrwt>
</event>
<event>
 4    1  0.3902417E-001  0.2025555E+03  0.7546771E-02  0.1147601E+00
         21   -1    0    0  503  502  0.00000000000E+00  0.00000000000E+00  0.11417664790E+03  0.11417664790E+03  0.00000000000E+00 0. -1.
         21   -1    0    0  501  503 -0.00000000000E+00 -0.00000000000E+00 -0.36244359929E+03  0.36244359929E+03  0.00000000000E+00 0. -1.
          6    1    1    2  501    0  0.43766905585E+02  0.95834211806E+02 -0.14617022606E+03  0.24978885716E+03  0.17300000000E+03 0. -1.
         -6    1    1    2    0  502 -0.43766905585E+02 -0.95834211806E+02 -0.10209672533E+03  0.22683139002E+03  0.17300000000E+03 0. -1.
<mgrwt>
<rscale>  2 0.20255552E+03</rscale>
<asrwt>0</asrwt>
<pdfrwt beam="1">  1       21 0.17565639E-01 0.20255552E+03</pdfrwt>
<pdfrwt beam="2">  1       21 0.55760552E-01 0.20255552E+03</pdfrwt>
<totfact> 0.88617309E+04</totfact>
</mgrwt>
</event>
<event>
 4    1  0.3902417E-001  0.1913937E+03  0.7546771E-02  0.1157210E+00
         21   -1    0    0  503  502  0.00000000000E+00  0.00000000000E+00  0.38663341749E+02  0.38663341749E+02  0.00000000000E+00 0. -1.
         21   -1    0    0  501  503 -0.00000000000E+00 -0.00000000000E+00 -0.95293562299E+03  0.95293562299E+03  0.00000000000E+00 0. -1.
          6    1    1    2  501    0  0.62545408519E+02  0.52826457605E+02 -0.49475521811E+03  0.53048495605E+03  0.17300000000E+03 0.  1.
         -6    1    1    2    0  502 -0.62545408519E+02 -0.52826457605E+02 -0.41951706313E+03  0.46111400869E+03  0.17300000000E+03 0.  1.
<mgrwt>
<rscale>  2 0.19139374E+03</rscale>
<asrwt>0</asrwt>
<pdfrwt beam="1">  1       21 0.59482066E-02 0.19139374E+03</pdfrwt>
<pdfrwt beam="2">  1       21 0.14660548E+00 0.19139374E+03</pdfrwt>
<totfact> 0.63564443E+04</totfact>
</mgrwt>
</event>
<event>
 4    1  0.3902417E-001  0.1856393E+03  0.7546771E-02  0.1162454E+00
         21   -1    0    0  503  502  0.00000000000E+00  0.00000000000E+00  0.97882841860E+02  0.97882841860E+02  0.00000000000E+00 0.  1.
         21   -1    0    0  501  503 -0.00000000000E+00 -0.00000000000E+00 -0.36732839495E+03  0.36732839495E+03  0.00000000000E+00 0.  1.
          6    1    1    2  501    0  0.39719100224E+02  0.54362903023E+02 -0.18212523254E+03  0.26006063231E+03  0.17300000000E+03 0.  1.
         -6    1    1    2    0  502 -0.39719100224E+02 -0.54362903023E+02 -0.87320320550E+02  0.20515060450E+03  0.17300000000E+03 0.  1.
<mgrwt>
<rscale>  2 0.18563925E+03</rscale>
<asrwt>0</asrwt>
<pdfrwt beam="1">  1       21 0.15058899E-01 0.18563925E+03</pdfrwt>
<pdfrwt beam="2">  1       21 0.56512061E-01 0.18563925E+03</pdfrwt>
<totfact> 0.11499260E+05</totfact>
</mgrwt>
</event>
<event>
 4    1  0.3902417E-001  0.2419268E+03  0.7546771E-02  0.1118516E+00
         21   -1    0    0  501  502  0.00000000000E+00  0.00000000000E+00  0.69416653833E+03  0.69416653833E+03  0.00000000000E+00 0. -1.
         21   -1    0    0  502  503 -0.00000000000E+00 -0.00000000000E+00 -0.84702350520E+02  0.84702350520E+02  0.00000000000E+00 0. -1.
          6    1    1    2  501    0 -0.13771858859E+03 -0.98148620974E+02  0.27839234914E+03  0.36882361842E+03  0.17300000000E+03 0. -1.
         -6    1    1    2    0  503  0.13771858859E+03  0.98148620974E+02  0.33107183867E+03  0.41004527043E+03  0.17300000000E+03 0. -1.
<mgrwt>
<rscale>  2 0.24192677E+03</rscale>
<asrwt>0</asrwt>
<pdfrwt beam="1">  1       21 0.10679485E+00 0.24192677E+03</pdfrwt>
<pdfrwt beam="2">  1       21 0.13031131E-01 0.24192677E+03</pdfrwt>
<totfact> 0.34602638E+04</totfact>
</mgrwt>
</event>
<event>
 4    1  0.3902417E-001  0.2074921E+03  0.7546771E-02  0.1143567E+00
         21   -1    0    0  501  502  0.00000000000E+00  0.00000000000E+00  0.20861755411E+03  0.20861755411E+03  0.00000000000E+00 0. -1.
         21   -1    0    0  502  503 -0.00000000000E+00 -0.00000000000E+00 -0.20651750645E+03  0.20651750645E+03  0.00000000000E+00 0. -1.
          6    1    1    2  501    0 -0.59805362078E+02  0.97710255757E+02 -0.44456504754E+01  0.20753972926E+03  0.17300000000E+03 0. -1.
         -6    1    1    2    0  503  0.59805362078E+02 -0.97710255757E+02  0.65456981413E+01  0.20759533130E+03  0.17300000000E+03 0. -1.
<mgrwt>
<rscale>  2 0.20749211E+03</rscale>
<asrwt>0</asrwt>
<pdfrwt beam="1">  1       21 0.32095008E-01 0.20749211E+03</pdfrwt>
<pdfrwt beam="2">  1       21 0.31771924E-01 0.20749211E+03</pdfrwt>
<totfact> 0.88396006E+04</totfact>
</mgrwt>
</event>
<event>
 4    1  0.3902417E-001  0.1887770E+03  0.7546771E-02  0.1159569E+00
         21   -1    0    0  501  502  0.00000000000E+00  0.00000000000E+00  0.10672338464E+03  0.10672338464E+03  0.00000000000E+00 0. -1.
         21   -1    0    0  502  503 -0.00000000000E+00 -0.00000000000E+00 -0.36556416135E+03  0.36556416135E+03  0.00000000000E+00 0.  1.
          6    1    1    2  501    0  0.44477692559E+02  0.61069517371E+02 -0.59940012599E+02  0.19806452534E+03  0.17300000000E+03 0. -1.
         -6    1    1    2    0  503 -0.44477692559E+02 -0.61069517371E+02 -0.19890076412E+03  0.27422302065E+03  0.17300000000E+03 0.  1.
<mgrwt>
<rscale>  2 0.18877699E+03</rscale>
<asrwt>0</asrwt>
<pdfrwt beam="1">  1       21 0.16418982E-01 0.18877699E+03</pdfrwt>
<pdfrwt beam="2">  1       21 0.56240640E-01 0.18877699E+03</pdfrwt>
<totfact> 0.99086579E+04</totfact>
</mgrwt>
</event>
<event>
 4    1  0.3902417E-001  0.3767328E+03  0.7546771E-02  0.1052148E+00
         21   -1    0    0  501  502  0.00000000000E+00  0.00000000000E+00  0.58826837479E+03  0.58826837479E+03  0.00000000000E+00 0. -1.
         21   -1    0    0  502  503 -0.00000000000E+00 -0.00000000000E+00 -0.24568637594E+03  0.24568637594E+03  0.00000000000E+00 0.  1.
          6    1    1    2  501    0  0.15856596830E+03 -0.29471241227E+03  0.22723891532E+03  0.43996033558E+03  0.17300000000E+03 0.  1.
         -6    1    1    2    0  503 -0.15856596830E+03  0.29471241227E+03  0.11534308353E+03  0.39399441515E+03  0.17300000000E+03 0. -1.
<mgrwt>
<rscale>  2 0.37673276E+03</rscale>
<asrwt>0</asrwt>
<pdfrwt beam="1">  1       21 0.90502826E-01 0.37673276E+03</pdfrwt>
<pdfrwt beam="2">  1       21 0.37797904E-01 0.37673276E+03</pdfrwt>
<totfact> 0.63406319E+03</totfact>
</mgrwt>
</event>
<event>
 4    1  0.3902417E-001  0.1843820E+03  0.7546771E-02  0.1163628E+00
         21   -1    0    0  503  502  0.00000000000E+00  0.00000000000E+00  0.67156376354E+02  0.67156376354E+02  0.00000000000E+00 0.  1.
         21   -1    0    0  501  503 -0.00000000000E+00 -0.00000000000E+00 -0.80596375179E+03  0.80596375179E+03  0.00000000000E+00 0.  1.
          6    1    1    2  501    0 -0.38000591758E+02  0.51221876411E+02 -0.63563088606E+03  0.66183332412E+03  0.17300000000E+03 0.  1.
         -6    1    1    2    0  502  0.38000591758E+02 -0.51221876411E+02 -0.10317648938E+03  0.21128680403E+03  0.17300000000E+03 0.  1.
<mgrwt>
<rscale>  2 0.18438201E+03</rscale>
<asrwt>0</asrwt>
<pdfrwt beam="1">  1       21 0.10331751E-01 0.18438201E+03</pdfrwt>
<pdfrwt beam="2">  1       21 0.12399442E+00 0.18438201E+03</pdfrwt>
<totfact> 0.37455078E+04</totfact>
</mgrwt>
</event>
<event>
 4    1  0.3902417E-001  0.3100727E+03  0.7546771E-02  0.1080311E+00
         21   -1    0    0  501  502  0.00000000000E+00  0.00000000000E+00  0.17358326595E+03  0.17358326595E+03  0.00000000000E+00 0.  1.
         21   -1    0    0  502  503 -0.00000000000E+00 -0.00000000000E+00 -0.63038618528E+03  0.63038618528E+03  0.00000000000E+00 0. -1.
          6    1    1    2  501    0  0.10853108573E+02 -0.25709593112E+03 -0.88364954861E+02  0.32241816483E+03  0.17300000000E+03 0.  1.
         -6    1    1    2    0  503 -0.10853108573E+02  0.25709593112E+03 -0.36843796448E+03  0.48155128640E+03  0.17300000000E+03 0. -1.
<mgrwt>
<rscale>  2 0.31007275E+03</rscale>
<asrwt>0</asrwt>
<pdfrwt beam="1">  1       21 0.26705118E-01 0.31007275E+03</pdfrwt>
<pdfrwt beam="2">  1       21 0.96982490E-01 0.31007275E+03</pdfrwt>
<totfact> 0.11038073E+04</totfact>
</mgrwt>
</event>
<event>
 4    1  0.3902417E-001  0.1869748E+03  0.7546771E-02  0.1161218E+00
         21   -1    0    0  501  502  0.00000000000E+00  0.00000000000E+00  0.29507989447E+03  0.29507989447E+03  0.00000000000E+00 0.  1.
         21   -1    0    0  502  503 -0.00000000000E+00 -0.00000000000E+00 -0.13358592007E+03  0.13358592007E+03  0.00000000000E+00 0.  1.
          6    1    1    2  501    0  0.96492634144E+00  0.70920118370E+02  0.15283346104E+03  0.24149049896E+03  0.17300000000E+03 0.  1.
         -6    1    1    2    0  503 -0.96492634144E+00 -0.70920118370E+02  0.86605133515E+01  0.18717531558E+03  0.17300000000E+03 0.  1.
<mgrwt>
<rscale>  2 0.18697485E+03</rscale>
<asrwt>0</asrwt>
<pdfrwt beam="1">  1       21 0.45396907E-01 0.18697485E+03</pdfrwt>
<pdfrwt beam="2">  1       21 0.20551680E-01 0.18697485E+03</pdfrwt>
<totfact> 0.10231315E+05</totfact>
</mgrwt>
</event>
<event>
 4    1  0.3902417E-001  0.2083380E+03  0.7546771E-02  0.1142889E+00
         21   -1    0    0  503  502  0.00000000000E+00  0.00000000000E+00  0.32915712873E+02  0.32915712873E+02  0.00000000000E+00 0. -1.
         21   -1    0    0  501  503 -0.00000000000E+00 -0.00000000000E+00 -0.13683495876E+04  0.13683495876E+04  0.00000000000E+00 0. -1.
          6    1    1    2  501    0 -0.94222278250E+02  0.67807785612E+02 -0.80122617481E+03  0.82786962543E+03  0.17300000000E+03 0. -1.
         -6    1    1    2    0  502  0.94222278250E+02 -0.67807785612E+02 -0.53420769993E+03  0.57339567506E+03  0.17300000000E+03 0. -1.
<mgrwt>
<rscale>  2 0.20833803E+03</rscale>
<asrwt>0</asrwt>
<pdfrwt beam="1">  1       21 0.50639556E-02 0.20833803E+03</pdfrwt>
<pdfrwt beam="2">  1       21 0.21051533E+00 0.20833803E+03</pdfrwt>
<totfact> 0.29979168E+04</totfact>
</mgrwt>
</event>
<event>
 4    1  0.3902417E-001  0.2557353E+03  0.7546771E-02  0.1109733E+00
         21   -1    0    0  503  502  0.00000000000E+00  0.00000000000E+00  0.62530941298E+03  0.62530941298E+03  0.00000000000E+00 0. -1.
         21   -1    0    0  501  503 -0.00000000000E+00 -0.00000000000E+00 -0.10555440183E+03  0.10555440183E+03  0.00000000000E+00 0. -1.
          6    1    1    2  501    0  0.22435688093E+02  0.18699779647E+03  0.22493094509E+03  0.34057960309E+03  0.17300000000E+03 0. -1.
         -6    1    1    2    0  502 -0.22435688093E+02 -0.18699779647E+03  0.29482406606E+03  0.39028421171E+03  0.17300000000E+03 0. -1.
<mgrwt>
<rscale>  2 0.25573528E+03</rscale>
<asrwt>0</asrwt>
<pdfrwt beam="1">  1       21 0.96201446E-01 0.25573528E+03</pdfrwt>
<pdfrwt beam="2">  1       21 0.16239139E-01 0.25573528E+03</pdfrwt>
<totfact> 0.29548199E+04</totfact>
</mgrwt>
</event>
<event>
 4    1  0.3902417E-001  0.1819060E+03  0.7546771E-02  0.1165971E+00
         21   -1    0    0  503  502  0.00000000000E+00  0.00000000000E+00  0.33202867045E+02  0.33202867045E+02  0.00000000000E+00 0. -1.
         21   -1    0    0  501  503 -0.00000000000E+00 -0.00000000000E+00 -0.10224603680E+04  0.10224603680E+04  0.00000000000E+00 0. -1.
          6    1    1    2  501    0  0.20587234133E+02  0.52315969175E+02 -0.57858163982E+03  0.60650351093E+03  0.17300000000E+03 0. -1.
         -6    1    1    2    0  502 -0.20587234133E+02 -0.52315969175E+02 -0.41067586109E+03  0.44915972407E+03  0.17300000000E+03 0. -1.
<mgrwt>
<rscale>  2 0.18190601E+03</rscale>
<asrwt>0</asrwt>
<pdfrwt beam="1">  1       21 0.51081334E-02 0.18190601E+03</pdfrwt>
<pdfrwt beam="2">  1       21 0.15730159E+00 0.18190601E+03</pdfrwt>
<totfact> 0.68739730E+04</totfact>
</mgrwt>
</event>
<event>
 4    1  0.3902417E-001  0.4305415E+03  0.7546771E-02  0.1033689E+00
         21   -1    0    0  501  502  0.00000000000E+00  0.00000000000E+00  0.60341503499E+03  0.60341503499E+03  0.00000000000E+00 0. -1.
         21   -1    0    0  502  503 -0.00000000000E+00 -0.00000000000E+00 -0.36465723330E+03  0.36465723330E+03  0.00000000000E+00 0. -1.
          6    1    1    2  501    0 -0.20435787778E+03 -0.33715699636E+03  0.31152308319E+03  0.53142507822E+03  0.17300000000E+03 0. -1.
         -6    1    1    2    0  503  0.20435787778E+03  0.33715699636E+03 -0.72765281496E+02  0.43664719007E+03  0.17300000000E+03 0. -1.
<mgrwt>
<rscale>  2 0.43054150E+03</rscale>
<asrwt>0</asrwt>
<pdfrwt beam="1">  1       21 0.92833082E-01 0.43054150E+03</pdfrwt>
<pdfrwt beam="2">  1       21 0.56101113E-01 0.43054150E+03</pdfrwt>
<totfact> 0.25538853E+03</totfact>
</mgrwt>
</event>
<event>
 4    1  0.3902417E-001  0.2818372E+03  0.7546771E-02  0.1094690E+00
         21   -1    0    0  501  502  0.00000000000E+00  0.00000000000E+00  0.10441423056E+04  0.10441423056E+04  0.00000000000E+00 0.  1.
         21   -1    0    0  502  503 -0.00000000000E+00 -0.00000000000E+00 -0.90345387122E+02  0.90345387122E+02  0.00000000000E+00 0.  1.
          6    1    1    2  501    0 -0.10211549803E+03  0.19767553086E+03  0.25144946028E+03  0.37770229218E+03  0.17300000000E+03 0.  1.
         -6    1    1    2    0  503  0.10211549803E+03 -0.19767553086E+03  0.70234745816E+03  0.75678540051E+03  0.17300000000E+03 0.  1.
<mgrwt>
<rscale>  2 0.28183717E+03</rscale>
<asrwt>0</asrwt>
<pdfrwt beam="1">  1       21 0.16063727E+00 0.28183717E+03</pdfrwt>
<pdfrwt beam="2">  1       21 0.13899291E-01 0.28183717E+03</pdfrwt>
<totfact> 0.10588075E+04</totfact>
</mgrwt>
</event>
<event>
 4    1  0.3902417E-001  0.1910077E+03  0.7546771E-02  0.1157556E+00
         21   -1    0    0  503  502  0.00000000000E+00  0.00000000000E+00  0.27372248304E+03  0.27372248304E+03  0.00000000000E+00 0.  1.
         21   -1    0    0  501  503 -0.00000000000E+00 -0.00000000000E+00 -0.19151418843E+03  0.19151418843E+03  0.00000000000E+00 0.  1.
          6    1    1    2  501    0  0.12146344548E+02  0.80046379409E+02 -0.87159085386E+02  0.20995395378E+03  0.17300000000E+03 0.  1.
         -6    1    1    2    0  502 -0.12146344548E+02 -0.80046379409E+02  0.16936738000E+03  0.25528271769E+03  0.17300000000E+03 0.  1.
<mgrwt>
<rscale>  2 0.19100774E+03</rscale>
<asrwt>0</asrwt>
<pdfrwt beam="1">  1       21 0.42111151E-01 0.19100774E+03</pdfrwt>
<pdfrwt beam="2">  1       21 0.29463721E-01 0.19100774E+03</pdfrwt>
<totfact> 0.59943994E+04</totfact>
</mgrwt>
</event>
<event>
 4    1  0.3902417E-001  0.2005648E+03  0.7546771E-02  0.1149263E+00
         21   -1    0    0  501  502  0.00000000000E+00  0.00000000000E+00  0.10874839265E+03  0.10874839265E+03  0.00000000000E+00 0. -1.
         21   -1    0    0  502  503 -0.00000000000E+00 -0.00000000000E+00 -0.37278321083E+03  0.37278321083E+03  0.00000000000E+00 0.  1.
          6    1    1    2  501    0  0.10061687176E+03  0.13171059706E+02 -0.11085011221E+03  0.22915928756E+03  0.17300000000E+03 0. -1.
         -6    1    1    2    0  503 -0.10061687176E+03 -0.13171059706E+02 -0.15318470597E+03  0.25237231592E+03  0.17300000000E+03 0.  1.
<mgrwt>
<rscale>  2 0.20056478E+03</rscale>
<asrwt>0</asrwt>
<pdfrwt beam="1">  1       21 0.16730522E-01 0.20056478E+03</pdfrwt>
<pdfrwt beam="2">  1       21 0.57351263E-01 0.20056478E+03</pdfrwt>
<totfact> 0.91386592E+04</totfact>
</mgrwt>
</event>
<event>
 4    1  0.3902417E-001  0.1916858E+03  0.7546771E-02  0.1156950E+00
         21   -1    0    0  501  502  0.00000000000E+00  0.00000000000E+00  0.32128619720E+02  0.32128619720E+02  0.00000000000E+00 0. -1.
         21   -1    0    0  502  503 -0.00000000000E+00 -0.00000000000E+00 -0.12056495481E+04  0.12056495481E+04  0.00000000000E+00 0.  1.
          6    1    1    2  501    0 -0.35608963630E+02  0.74474447329E+02 -0.72712133833E+03  0.75196335167E+03  0.17300000000E+03 0. -1.
         -6    1    1    2    0  503  0.35608963630E+02 -0.74474447329E+02 -0.44639959003E+03  0.48581481614E+03  0.17300000000E+03 0.  1.
<mgrwt>
<rscale>  2 0.19168579E+03</rscale>
<asrwt>0</asrwt>
<pdfrwt beam="1">  1       21 0.49428644E-02 0.19168579E+03</pdfrwt>
<pdfrwt beam="2">  1       21 0.18548455E+00 0.19168579E+03</pdfrwt>
<totfact> 0.45863288E+04</totfact>
</mgrwt>
</event>
<event>
 4    1  0.3902417E-001  0.2322943E+03  0.7546771E-02  0.1125035E+00
         21   -1    0    0  503  502  0.00000000000E+00  0.00000000000E+00  0.76737227090E+03  0.76737227090E+03  0.00000000000E+00 0. -1.
         21   -1    0    0  501  503 -0.00000000000E+00 -0.00000000000E+00 -0.70555072822E+02  0.70555072822E+02  0.00000000000E+00 0.  1.
          6    1    1    2  501    0  0.11709944230E+03 -0.10158425247E+03  0.37265727275E+03  0.43912877686E+03  0.17300000000E+03 0. -1.
         -6    1    1    2    0  502 -0.11709944230E+03  0.10158425247E+03  0.32415992533E+03  0.39879856686E+03  0.17300000000E+03 0.  1.
<mgrwt>
<rscale>  2 0.23229430E+03</rscale>
<asrwt>0</asrwt>
<pdfrwt beam="1">  1       21 0.11805727E+00 0.23229430E+03</pdfrwt>
<pdfrwt beam="2">  1       21 0.10854627E-01 0.23229430E+03</pdfrwt>
<totfact> 0.37778940E+04</totfact>
</mgrwt>
</event>
<event>
 4    1  0.3902417E-001  0.1867491E+03  0.7546771E-02  0.1161426E+00
         21   -1    0    0  501  502  0.00000000000E+00  0.00000000000E+00  0.84363326333E+02  0.84363326333E+02  0.00000000000E+00 0.  1.
         21   -1    0    0  502  503 -0.00000000000E+00 -0.00000000000E+00 -0.41342149096E+03  0.41342149096E+03  0.00000000000E+00 0.  1.
          6    1    1    2  501    0  0.30410076428E+01  0.70263759740E+02 -0.16658012411E+03  0.25024823957E+03  0.17300000000E+03 0.  1.
         -6    1    1    2    0  503 -0.30410076428E+01 -0.70263759740E+02 -0.16247804052E+03  0.24753657773E+03  0.17300000000E+03 0.  1.
<mgrwt>
<rscale>  2 0.18674915E+03</rscale>
<asrwt>0</asrwt>
<pdfrwt beam="1">  1       21 0.12978973E-01 0.18674915E+03</pdfrwt>
<pdfrwt beam="2">  1       21 0.63603309E-01 0.18674915E+03</pdfrwt>
<totfact> 0.11672807E+05</totfact>
</mgrwt>
</event>
<event>
 4    1  0.3902417E-001  0.2107867E+03  0.7546771E-02  0.1140945E+00
         21   -1    0    0  501  502  0.00000000000E+00  0.00000000000E+00  0.22789536923E+03  0.22789536923E+03  0.00000000000E+00 0.  1.
         21   -1    0    0  502  503 -0.00000000000E+00 -0.00000000000E+00 -0.20233627285E+03  0.20233627285E+03  0.00000000000E+00 0. -1.
          6    1    1    2  501    0  0.89475558545E+02  0.80598762823E+02  0.53845535318E+02  0.21755545918E+03  0.17300000000E+03 0.  1.
         -6    1    1    2    0  503 -0.89475558545E+02 -0.80598762823E+02 -0.28286438935E+02  0.21267618290E+03  0.17300000000E+03 0. -1.
<mgrwt>
<rscale>  2 0.21078671E+03</rscale>
<asrwt>0</asrwt>
<pdfrwt beam="1">  1       21 0.35060826E-01 0.21078671E+03</pdfrwt>
<pdfrwt beam="2">  1       21 0.31128657E-01 0.21078671E+03</pdfrwt>
<totfact> 0.77150076E+04</totfact>
</mgrwt>
</event>
<event>
 4    1  0.3902417E-001  0.1780830E+03  0.7546771E-02  0.1169671E+00
         21   -1    0    0  501  502  0.00000000000E+00  0.00000000000E+00  0.10279835205E+04  0.10279835205E+04  0.00000000000E+00 0. -1.
         21   -1    0    0  502  503 -0.00000000000E+00 -0.00000000000E+00 -0.59092442253E+02  0.59092442253E+02  0.00000000000E+00 0. -1.
          6    1    1    2  501    0 -0.32332047185E+02  0.27187880450E+02  0.86020781577E+03  0.87844807953E+03  0.17300000000E+03 0. -1.
         -6    1    1    2    0  503  0.32332047185E+02 -0.27187880450E+02  0.10868326249E+03  0.20862788324E+03  0.17300000000E+03 0. -1.
<mgrwt>
<rscale>  2 0.17808296E+03</rscale>
<asrwt>0</asrwt>
<pdfrwt beam="1">  1       21 0.15815130E+00 0.17808296E+03</pdfrwt>
<pdfrwt beam="2">  1       21 0.90911457E-02 0.17808296E+03</pdfrwt>
<totfact> 0.25165444E+04</totfact>
</mgrwt>
</event>
<event>
 4    1  0.3902417E-001  0.1980651E+03  0.7546771E-02  0.1151382E+00
         21   -1    0    0  501  502  0.00000000000E+00  0.00000000000E+00  0.46550600932E+02  0.46550600932E+02  0.00000000000E+00 0.  1.
         21   -1    0    0  502  503 -0.00000000000E+00 -0.00000000000E+00 -0.11478235522E+04  0.11478235522E+04  0.00000000000E+00 0.  1.
          6    1    1    2  501    0  0.93532181269E+02 -0.23505843303E+02 -0.24275312458E+03  0.31330316483E+03  0.17300000000E+03 0.  1.
         -6    1    1    2    0  503 -0.93532181269E+02  0.23505843303E+02 -0.85851982665E+03  0.88107098826E+03  0.17300000000E+03 0.  1.
<mgrwt>
<rscale>  2 0.19806512E+03</rscale>
<asrwt>0</asrwt>
<pdfrwt beam="1">  1       21 0.71616311E-02 0.19806512E+03</pdfrwt>
<pdfrwt beam="2">  1       21 0.17658823E+00 0.19806512E+03</pdfrwt>
<totfact> 0.27818985E+04</totfact>
</mgrwt>
</event>
<event>
 4    1  0.3902417E-001  0.1768044E+03  0.7546771E-02  0.1170932E+00
         21   -1    0    0  501  502  0.00000000000E+00  0.00000000000E+00  0.24290389513E+03  0.24290389513E+03  0.00000000000E+00 0.  1.
         21   -1    0    0  502  503 -0.00000000000E+00 -0.00000000000E+00 -0.13276216476E+03  0.13276216476E+03  0.00000000000E+00 0.  1.
          6    1    1    2  501    0 -0.65077270957E+01 -0.35894981443E+02  0.22182814594E+02  0.17819056504E+03  0.17300000000E+03 0.  1.
         -6    1    1    2    0  503  0.65077270957E+01  0.35894981443E+02  0.87958915774E+02  0.19747549486E+03  0.17300000000E+03 0.  1.
<mgrwt>
<rscale>  2 0.17680441E+03</rscale>
<asrwt>0</asrwt>
<pdfrwt beam="1">  1       21 0.37369830E-01 0.17680441E+03</pdfrwt>
<pdfrwt beam="2">  1       21 0.20424948E-01 0.17680441E+03</pdfrwt>
<totfact> 0.15404839E+05</totfact>
</mgrwt>
</event>
<event>
 4    1  0.3902417E-001  0.2121988E+03  0.7546771E-02  0.1139836E+00
         21   -1    0    0  501  502  0.00000000000E+00  0.00000000000E+00  0.20984760465E+03  0.20984760465E+03  0.00000000000E+00 0. -1.
         21   -1    0    0  502  503 -0.00000000000E+00 -0.00000000000E+00 -0.21812010411E+03  0.21812010411E+03  0.00000000000E+00 0. -1.
          6    1    1    2  501    0 -0.11060904732E+03  0.53525554318E+02 -0.31411018560E+02  0.21451106825E+03  0.17300000000E+03 0. -1.
         -6    1    1    2    0  503  0.11060904732E+03 -0.53525554318E+02  0.23138519095E+02  0.21345664051E+03  0.17300000000E+03 0. -1.
<mgrwt>
<rscale>  2 0.21219884E+03</rscale>
<asrwt>0</asrwt>
<pdfrwt beam="1">  1       21 0.32284247E-01 0.21219884E+03</pdfrwt>
<pdfrwt beam="2">  1       21 0.33556939E-01 0.21219884E+03</pdfrwt>
<totfact> 0.78297091E+04</totfact>
</mgrwt>
</event>
<event>
 4    1  0.3902417E-001  0.1940543E+03  0.7546771E-02  0.1154855E+00
         21   -1    0    0  503  502  0.00000000000E+00  0.00000000000E+00  0.31445037377E+03  0.31445037377E+03  0.00000000000E+00 0.  1.
         21   -1    0    0  501  503 -0.00000000000E+00 -0.00000000000E+00 -0.12457206272E+03  0.12457206272E+03  0.00000000000E+00 0. -1.
          6    1    1    2  501    0  0.10173547646E+02 -0.87318687554E+02  0.13810402275E+03  0.23818013218E+03  0.17300000000E+03 0.  1.
         -6    1    1    2    0  502 -0.10173547646E+02  0.87318687554E+02  0.51774288309E+02  0.20084230430E+03  0.17300000000E+03 0.  1.
<mgrwt>
<rscale>  2 0.19405426E+03</rscale>
<asrwt>0</asrwt>
<pdfrwt beam="1">  1       21 0.48376980E-01 0.19405426E+03</pdfrwt>
<pdfrwt beam="2">  1       21 0.19164933E-01 0.19405426E+03</pdfrwt>
<totfact> 0.10195064E+05</totfact>
</mgrwt>
</event>
<event>
 4    1  0.3902417E-001  0.1748764E+03  0.7546771E-02  0.1172856E+00
         21   -1    0    0  503  502  0.00000000000E+00  0.00000000000E+00  0.37531915224E+02  0.37531915224E+02  0.00000000000E+00 0. -1.
         21   -1    0    0  501  503 -0.00000000000E+00 -0.00000000000E+00 -0.10640114258E+04  0.10640114258E+04  0.00000000000E+00 0. -1.
          6    1    1    2  501    0 -0.20016818067E+02 -0.15877187864E+02 -0.77978131043E+03  0.79914995476E+03  0.17300000000E+03 0. -1.
         -6    1    1    2    0  502  0.20016818067E+02  0.15877187864E+02 -0.24669820015E+03  0.30239338627E+03  0.17300000000E+03 0. -1.
<mgrwt>
<rscale>  2 0.17487641E+03</rscale>
<asrwt>0</asrwt>
<pdfrwt beam="1">  1       21 0.57741413E-02 0.17487641E+03</pdfrwt>
<pdfrwt beam="2">  1       21 0.16369405E+00 0.17487641E+03</pdfrwt>
<totfact> 0.50344618E+04</totfact>
</mgrwt>
</event>
<event>
 4    1  0.3902417E-001  0.3096362E+03  0.7546771E-02  0.1080520E+00
         21   -1    0    0  503  502  0.00000000000E+00  0.00000000000E+00  0.44593530927E+03  0.44593530927E+03  0.00000000000E+00 0.  1.
         21   -1    0    0  501  503 -0.00000000000E+00 -0.00000000000E+00 -0.24543152916E+03  0.24543152916E+03  0.00000000000E+00 0. -1.
          6    1    1    2  501    0 -0.47555582831E+02 -0.25235699764E+03 -0.21478586311E+02  0.31038027867E+03  0.17300000000E+03 0. -1.
         -6    1    1    2    0  502  0.47555582831E+02  0.25235699764E+03  0.22198236642E+03  0.38098655976E+03  0.17300000000E+03 0.  1.
<mgrwt>
<rscale>  2 0.30963622E+03</rscale>
<asrwt>0</asrwt>
<pdfrwt beam="1">  1       21 0.68605432E-01 0.30963622E+03</pdfrwt>
<pdfrwt beam="2">  1       21 0.37758697E-01 0.30963622E+03</pdfrwt>
<totfact> 0.12309117E+04</totfact>
</mgrwt>
</event>
<event>
 4    1  0.3902417E-001  0.1814836E+03  0.7546771E-02  0.1166375E+00
         21   -1    0    0  501  502  0.00000000000E+00  0.00000000000E+00  0.28532641824E+03  0.28532641824E+03  0.00000000000E+00 0. -1.
         21   -1    0    0  502  503 -0.00000000000E+00 -0.00000000000E+00 -0.14072466979E+03  0.14072466979E+03  0.00000000000E+00 0. -1.
          6    1    1    2  501    0  0.51642122924E+02 -0.18449586893E+02 -0.18007691670E+02  0.18237481481E+03  0.17300000000E+03 0. -1.
         -6    1    1    2    0  503 -0.51642122924E+02  0.18449586893E+02  0.16260944012E+03  0.24367627322E+03  0.17300000000E+03 0. -1.
<mgrwt>
<rscale>  2 0.18148360E+03</rscale>
<asrwt>0</asrwt>
<pdfrwt beam="1">  1       21 0.43896372E-01 0.18148360E+03</pdfrwt>
<pdfrwt beam="2">  1       21 0.21649949E-01 0.18148360E+03</pdfrwt>
<totfact> 0.99617804E+04</totfact>
</mgrwt>
</event>
<event>
 4    1  0.3902417E-001  0.2449656E+03  0.7546771E-02  0.1116528E+00
         21   -1    0    0  501  502  0.00000000000E+00  0.00000000000E+00  0.52531176415E+03  0.52531176415E+03  0.00000000000E+00 0.  1.
         21   -1    0    0  502  503 -0.00000000000E+00 -0.00000000000E+00 -0.11848972222E+03  0.11848972222E+03  0.00000000000E+00 0.  1.
          6    1    1    2  501    0 -0.17255510332E+03 -0.17432044356E+02  0.26442084386E+03  0.36045321821E+03  0.17300000000E+03 0.  1.
         -6    1    1    2    0  503  0.17255510332E+03  0.17432044356E+02  0.14240119807E+03  0.28334826815E+03  0.17300000000E+03 0.  1.
<mgrwt>
<rscale>  2 0.24496559E+03</rscale>
<asrwt>0</asrwt>
<pdfrwt beam="1">  1       21 0.80817193E-01 0.24496559E+03</pdfrwt>
<pdfrwt beam="2">  1       21 0.18229188E-01 0.24496559E+03</pdfrwt>
<totfact> 0.35919428E+04</totfact>
</mgrwt>
</event>
<event>
 4    1  0.3902417E-001  0.2027561E+03  0.7546771E-02  0.1147434E+00
         21   -1    0    0  503  502  0.00000000000E+00  0.00000000000E+00  0.12934800893E+03  0.12934800893E+03  0.00000000000E+00 0. -1.
         21   -1    0    0  501  503 -0.00000000000E+00 -0.00000000000E+00 -0.36968774669E+03  0.36968774669E+03  0.00000000000E+00 0.  1.
          6    1    1    2  501    0  0.70158858317E+02  0.79112411697E+02 -0.21362682523E+03  0.29452751916E+03  0.17300000000E+03 0. -1.
         -6    1    1    2    0  502 -0.70158858317E+02 -0.79112411697E+02 -0.26712912542E+02  0.20450823646E+03  0.17300000000E+03 0. -1.
<mgrwt>
<rscale>  2 0.20275611E+03</rscale>
<asrwt>0</asrwt>
<pdfrwt beam="1">  1       21 0.19899694E-01 0.20275611E+03</pdfrwt>
<pdfrwt beam="2">  1       21 0.56875037E-01 0.20275611E+03</pdfrwt>
<totfact> 0.67380492E+04</totfact>
</mgrwt>
</event>
<event>
 4    1  0.3902417E-001  0.1765502E+03  0.7546771E-02  0.1171184E+00
         21   -1    0    0  501  502  0.00000000000E+00  0.00000000000E+00  0.75561483108E+03  0.75561483108E+03  0.00000000000E+00 0. -1.
         21   -1    0    0  502  503 -0.00000000000E+00 -0.00000000000E+00 -0.41267476528E+02  0.41267476528E+02  0.00000000000E+00 0. -1.
          6    1    1    2  501    0  0.35152883464E+02  0.22921857946E+01  0.34924808128E+03  0.39133643021E+03  0.17300000000E+03 0. -1.
         -6    1    1    2    0  503 -0.35152883464E+02 -0.22921857946E+01  0.36509927327E+03  0.40554587740E+03  0.17300000000E+03 0. -1.
<mgrwt>
<rscale>  2 0.17655022E+03</rscale>
<asrwt>0</asrwt>
<pdfrwt beam="1">  1       21 0.11624843E+00 0.17655022E+03</pdfrwt>
<pdfrwt beam="2">  1       21 0.63488431E-02 0.17655022E+03</pdfrwt>
<totfact> 0.10289961E+05</totfact>
</mgrwt>
</event>
<event>
 4    1  0.3902417E-001  0.1787651E+03  0.7546771E-02  0.1169004E+00
         21   -1    0    0  501  502  0.00000000000E+00  0.00000000000E+00  0.66328220313E+03  0.66328220313E+03  0.00000000000E+00 0. -1.
         21   -1    0    0  502  503 -0.00000000000E+00 -0.00000000000E+00 -0.81800479519E+02  0.81800479519E+02  0.00000000000E+00 0. -1.
          6    1    1    2  501    0  0.40930119330E+02  0.18780285735E+02  0.52957595385E+03  0.55893440107E+03  0.17300000000E+03 0. -1.
         -6    1    1    2    0  503 -0.40930119330E+02 -0.18780285735E+02  0.51905769758E+02  0.18614828158E+03  0.17300000000E+03 0. -1.
<mgrwt>
<rscale>  2 0.17876514E+03</rscale>
<asrwt>0</asrwt>
<pdfrwt beam="1">  1       21 0.10204341E+00 0.17876514E+03</pdfrwt>
<pdfrwt beam="2">  1       21 0.12584690E-01 0.17876514E+03</pdfrwt>
<totfact> 0.42464619E+04</totfact>
</mgrwt>
</event>
<event>
 4    1  0.3902417E-001  0.2763131E+03  0.7546771E-02  0.1097720E+00
         21   -1    0    0  503  502  0.00000000000E+00  0.00000000000E+00  0.41912451968E+03  0.41912451968E+03  0.00000000000E+00 0.  1.
         21   -1    0    0  501  503 -0.00000000000E+00 -0.00000000000E+00 -0.19036548580E+03  0.19036548580E+03  0.00000000000E+00 0. -1.
          6    1    1    2  501    0  0.11404084314E+03 -0.18279664539E+03  0.17763796614E+03  0.32848770827E+03  0.17300000000E+03 0.  1.
         -6    1    1    2    0  502 -0.11404084314E+03  0.18279664539E+03  0.51121067747E+02  0.28100229721E+03  0.17300000000E+03 0. -1.
<mgrwt>
<rscale>  2 0.27631310E+03</rscale>
<asrwt>0</asrwt>
<pdfrwt beam="1">  1       21 0.64480695E-01 0.27631310E+03</pdfrwt>
<pdfrwt beam="2">  1       21 0.29286998E-01 0.27631310E+03</pdfrwt>
<totfact> 0.23750158E+04</totfact>
</mgrwt>
</event>
<event>
 4    1  0.3902417E-001  0.4348531E+03  0.7546771E-02  0.1032338E+00
         21   -1    0    0  503  502  0.00000000000E+00  0.00000000000E+00  0.97559866631E+03  0.97559866631E+03  0.00000000000E+00 0.  1.
         21   -1    0    0  501  503 -0.00000000000E+00 -0.00000000000E+00 -0.21085034848E+03  0.21085034848E+03  0.00000000000E+00 0. -1.
          6    1    1    2  501    0  0.10817946797E+02 -0.39881227899E+03  0.21381368790E+03  0.48457564423E+03  0.17300000000E+03 0. -1.
         -6    1    1    2    0  502 -0.10817946797E+02  0.39881227899E+03  0.55093462993E+03  0.70187337056E+03  0.17300000000E+03 0.  1.
<mgrwt>
<rscale>  2 0.43485315E+03</rscale>
<asrwt>0</asrwt>
<pdfrwt beam="1">  1       21 0.15009210E+00 0.43485315E+03</pdfrwt>
<pdfrwt beam="2">  1       21 0.32438516E-01 0.43485315E+03</pdfrwt>
<totfact> 0.23574526E+03</totfact>
</mgrwt>
</event>
<event>
 4    1  0.3902417E-001  0.2253899E+03  0.7546771E-02  0.1129927E+00
         21   -1    0    0  501  502  0.00000000000E+00  0.00000000000E+00  0.31915710684E+03  0.31915710684E+03  0.00000000000E+00 0.  1.
         21   -1    0    0  502  503 -0.00000000000E+00 -0.00000000000E+00 -0.21818953470E+03  0.21818953470E+03  0.00000000000E+00 0.  1.
          6    1    1    2  501    0  0.13908269381E+03 -0.39084842991E+02  0.19021745081E+03  0.29492931231E+03  0.17300000000E+03 0.  1.
         -6    1    1    2    0  503 -0.13908269381E+03  0.39084842991E+02 -0.89249878667E+02  0.24241732923E+03  0.17300000000E+03 0.  1.
<mgrwt>
<rscale>  2 0.22538993E+03</rscale>
<asrwt>0</asrwt>
<pdfrwt beam="1">  1       21 0.49101094E-01 0.22538993E+03</pdfrwt>
<pdfrwt beam="2">  1       21 0.33567621E-01 0.22538993E+03</pdfrwt>
<totfact> 0.33259140E+04</totfact>
</mgrwt>
</event>
<event>
 4    1  0.3902417E-001  0.2583617E+03  0.7546771E-02  0.1108132E+00
         21   -1    0    0  501  502  0.00000000000E+00  0.00000000000E+00  0.39733493591E+03  0.39733493591E+03  0.00000000000E+00 0.  1.
         21   -1    0    0  502  503 -0.00000000000E+00 -0.00000000000E+00 -0.18887211704E+03  0.18887211704E+03  0.00000000000E+00 0. -1.
          6    1    1    2  501    0 -0.15962954786E+03 -0.10649027675E+03  0.20167641404E+03  0.32775623194E+03  0.17300000000E+03 0.  1.
         -6    1    1    2    0  503  0.15962954786E+03  0.10649027675E+03  0.67864048253E+01  0.25845082101E+03  0.17300000000E+03 0. -1.
<mgrwt>
<rscale>  2 0.25836171E+03</rscale>
<asrwt>0</asrwt>
<pdfrwt beam="1">  1       21 0.61128452E-01 0.25836171E+03</pdfrwt>
<pdfrwt beam="2">  1       21 0.29057249E-01 0.25836171E+03</pdfrwt>
<totfact> 0.27308979E+04</totfact>
</mgrwt>
</event>
<event>
 4    1  0.3902417E-001  0.1810016E+03  0.7546771E-02  0.1166837E+00
         21   -1    0    0  503  502  0.00000000000E+00  0.00000000000E+00  0.27585168012E+04  0.27585168012E+04  0.00000000000E+00 0. -1.
         21   -1    0    0  501  503 -0.00000000000E+00 -0.00000000000E+00 -0.12617364646E+02  0.12617364646E+02  0.00000000000E+00 0. -1.
          6    1    1    2  501    0  0.49656374467E+02 -0.19152182926E+02  0.17086940971E+04  0.17182540788E+04  0.17300000000E+03 0. -1.
         -6    1    1    2    0  502 -0.49656374467E+02  0.19152182926E+02  0.10372053394E+04  0.10528800871E+04  0.17300000000E+03 0. -1.
<mgrwt>
<rscale>  2 0.18100155E+03</rscale>
<asrwt>0</asrwt>
<pdfrwt beam="1">  1       21 0.42438672E+00 0.18100155E+03</pdfrwt>
<pdfrwt beam="2">  1       21 0.19411352E-02 0.18100155E+03</pdfrwt>
<totfact> 0.80269363E+03</totfact>
</mgrwt>
</event>
<event>
 4    1  0.3902417E-001  0.1847947E+03  0.7546771E-02  0.1163242E+00
         21   -1    0    0  503  502  0.00000000000E+00  0.00000000000E+00  0.62481429507E+02  0.62481429507E+02  0.00000000000E+00 0.  1.
         21   -1    0    0  501  503 -0.00000000000E+00 -0.00000000000E+00 -0.57659990454E+03  0.57659990454E+03  0.00000000000E+00 0. -1.
          6    1    1    2  501    0  0.64815822669E+02 -0.43557546746E+01 -0.18410859553E+03  0.26085443914E+03  0.17300000000E+03 0.  1.
         -6    1    1    2    0  502 -0.64815822669E+02  0.43557546746E+01 -0.33000987950E+03  0.37822689491E+03  0.17300000000E+03 0. -1.
<mgrwt>
<rscale>  2 0.18479465E+03</rscale>
<asrwt>0</asrwt>
<pdfrwt beam="1">  1       21 0.96125272E-02 0.18479465E+03</pdfrwt>
<pdfrwt beam="2">  1       21 0.88707682E-01 0.18479465E+03</pdfrwt>
<totfact> 0.94814038E+04</totfact>
</mgrwt>
</event>
<event>
 4    1  0.3902417E-001  0.3514124E+03  0.7546771E-02  0.1062037E+00
         21   -1    0    0  501  502  0.00000000000E+00  0.00000000000E+00  0.54399704188E+03  0.54399704188E+03  0.00000000000E+00 0.  1.
         21   -1    0    0  502  503 -0.00000000000E+00 -0.00000000000E+00 -0.24525013872E+03  0.24525013872E+03  0.00000000000E+00 0. -1.
          6    1    1    2  501    0  0.11272514676E+03 -0.28434957947E+03  0.25700485696E+03  0.43536437447E+03  0.17300000000E+03 0. -1.
         -6    1    1    2    0  503 -0.11272514676E+03  0.28434957947E+03  0.41742046190E+02  0.35388280613E+03  0.17300000000E+03 0. -1.
<mgrwt>
<rscale>  2 0.35141235E+03</rscale>
<asrwt>0</asrwt>
<pdfrwt beam="1">  1       21 0.83691852E-01 0.35141235E+03</pdfrwt>
<pdfrwt beam="2">  1       21 0.37730791E-01 0.35141235E+03</pdfrwt>
<totfact> 0.77179557E+03</totfact>
</mgrwt>
</event>
<event>
 4    1  0.3902417E-001  0.1890079E+03  0.7546771E-02  0.1159359E+00
         21   -1    0    0  501  502  0.00000000000E+00  0.00000000000E+00  0.29346258470E+03  0.29346258470E+03  0.00000000000E+00 0.  1.
         21   -1    0    0  502  503 -0.00000000000E+00 -0.00000000000E+00 -0.12671831494E+03  0.12671831494E+03  0.00000000000E+00 0.  1.
          6    1    1    2  501    0 -0.53091026716E+02  0.54555835900E+02  0.12504424133E+03  0.22662757696E+03  0.17300000000E+03 0.  1.
         -6    1    1    2    0  503  0.53091026716E+02 -0.54555835900E+02  0.41700028429E+02  0.19355332268E+03  0.17300000000E+03 0.  1.
<mgrwt>
<rscale>  2 0.18900793E+03</rscale>
<asrwt>0</asrwt>
<pdfrwt beam="1">  1       21 0.45148090E-01 0.18900793E+03</pdfrwt>
<pdfrwt beam="2">  1       21 0.19495125E-01 0.18900793E+03</pdfrwt>
<totfact> 0.11410635E+05</totfact>
</mgrwt>
</event>
<event>
 4    1  0.3902417E-001  0.1924629E+03  0.7546771E-02  0.1156258E+00
         21   -1    0    0  503  502  0.00000000000E+00  0.00000000000E+00  0.48087266075E+02  0.48087266075E+02  0.00000000000E+00 0.  1.
         21   -1    0    0  501  503 -0.00000000000E+00 -0.00000000000E+00 -0.77514825655E+03  0.77514825655E+03  0.00000000000E+00 0.  1.
          6    1    1    2  501    0  0.40743673878E+02  0.73844016049E+02 -0.39605829217E+03  0.44034549670E+03  0.17300000000E+03 0.  1.
         -6    1    1    2    0  502 -0.40743673878E+02 -0.73844016049E+02 -0.33100269830E+03  0.38289002592E+03  0.17300000000E+03 0.  1.
<mgrwt>
<rscale>  2 0.19246295E+03</rscale>
<asrwt>0</asrwt>
<pdfrwt beam="1">  1       21 0.73980413E-02 0.19246295E+03</pdfrwt>
<pdfrwt beam="2">  1       21 0.11925357E+00 0.19246295E+03</pdfrwt>
<totfact> 0.73736559E+04</totfact>
</mgrwt>
</event>
<event>
 4    1  0.3902417E-001  0.2895849E+03  0.7546771E-02  0.1090566E+00
         21   -1    0    0  503  502  0.00000000000E+00  0.00000000000E+00  0.89536551723E+03  0.89536551723E+03  0.00000000000E+00 0.  1.
         21   -1    0    0  501  503 -0.00000000000E+00 -0.00000000000E+00 -0.10486545356E+03  0.10486545356E+03  0.00000000000E+00 0. -1.
          6    1    1    2  501    0  0.12129024033E+02 -0.23191221096E+03  0.55873606353E+03  0.62932136108E+03  0.17300000000E+03 0.  1.
         -6    1    1    2    0  502 -0.12129024033E+02  0.23191221096E+03  0.23176400014E+03  0.37090960971E+03  0.17300000000E+03 0. -1.
<mgrwt>
<rscale>  2 0.28958485E+03</rscale>
<asrwt>0</asrwt>
<pdfrwt beam="1">  1       21 0.13774854E+00 0.28958485E+03</pdfrwt>
<pdfrwt beam="2">  1       21 0.16133147E-01 0.28958485E+03</pdfrwt>
<totfact> 0.12091006E+04</totfact>
</mgrwt>
</event>
<event>
 4    1  0.3902417E-001  0.2013473E+03  0.7546771E-02  0.1148607E+00
         21   -1    0    0  501  502  0.00000000000E+00  0.00000000000E+00  0.53456508527E+03  0.53456508527E+03  0.00000000000E+00 0. -1.
         21   -1    0    0  502  503 -0.00000000000E+00 -0.00000000000E+00 -0.36129251520E+03  0.36129251520E+03  0.00000000000E+00 0.  1.
          6    1    1    2  501    0 -0.77332332946E+02 -0.68054656966E+02  0.48478693005E+03  0.52493722825E+03  0.17300000000E+03 0. -1.
         -6    1    1    2    0  503  0.77332332946E+02  0.68054656966E+02 -0.31151435998E+03  0.37092037222E+03  0.17300000000E+03 0.  1.
<mgrwt>
<rscale>  2 0.20134728E+03</rscale>
<asrwt>0</asrwt>
<pdfrwt beam="1">  1       21 0.82240782E-01 0.20134728E+03</pdfrwt>
<pdfrwt beam="2">  1       21 0.55583464E-01 0.20134728E+03</pdfrwt>
<totfact> 0.39128277E+03</totfact>
</mgrwt>
</event>
<event>
 4    1  0.3902417E-001  0.1791594E+03  0.7546771E-02  0.1168619E+00
         21   -1    0    0  501  502  0.00000000000E+00  0.00000000000E+00  0.10883936848E+03  0.10883936848E+03  0.00000000000E+00 0. -1.
         21   -1    0    0  502  503 -0.00000000000E+00 -0.00000000000E+00 -0.50248556900E+03  0.50248556900E+03  0.00000000000E+00 0. -1.
          6    1    1    2  501    0 -0.41904518756E+02 -0.20325176259E+02 -0.36691128152E+00  0.17915980606E+03  0.17300000000E+03 0. -1.
         -6    1    1    2    0  503  0.41904518756E+02  0.20325176259E+02 -0.39327928924E+03  0.43216513143E+03  0.17300000000E+03 0. -1.
<mgrwt>
<rscale>  2 0.17915943E+03</rscale>
<asrwt>0</asrwt>
<pdfrwt beam="1">  1       21 0.16744518E-01 0.17915943E+03</pdfrwt>
<pdfrwt beam="2">  1       21 0.77305472E-01 0.17915943E+03</pdfrwt>
<totfact> 0.47973637E+04</totfact>
</mgrwt>
</event>
<event>
 4    1  0.3902417E-001  0.1863004E+03  0.7546771E-02  0.1161841E+00
         21   -1    0    0  503  502  0.00000000000E+00  0.00000000000E+00  0.36012409126E+03  0.36012409126E+03  0.00000000000E+00 0. -1.
         21   -1    0    0  501  503 -0.00000000000E+00 -0.00000000000E+00 -0.10165532696E+03  0.10165532696E+03  0.00000000000E+00 0.  1.
          6    1    1    2  501    0 -0.14258414941E+02 -0.67642817811E+02  0.76624441539E+02  0.20144269220E+03  0.17300000000E+03 0. -1.
         -6    1    1    2    0  502  0.14258414941E+02  0.67642817811E+02  0.18184432276E+03  0.26033672602E+03  0.17300000000E+03 0. -1.
<mgrwt>
<rscale>  2 0.18630044E+03</rscale>
<asrwt>0</asrwt>
<pdfrwt beam="1">  1       21 0.55403706E-01 0.18630044E+03</pdfrwt>
<pdfrwt beam="2">  1       21 0.15639281E-01 0.18630044E+03</pdfrwt>
<totfact> 0.11190857E+05</totfact>
</mgrwt>
</event>
<event>
 4    1  0.3902417E-001  0.2293152E+03  0.7546771E-02  0.1127123E+00
         21   -1    0    0  503  502  0.00000000000E+00  0.00000000000E+00  0.92329062412E+02  0.92329062412E+02  0.00000000000E+00 0. -1.
         21   -1    0    0  501  503 -0.00000000000E+00 -0.00000000000E+00 -0.63699119268E+03  0.63699119268E+03  0.00000000000E+00 0.  1.
          6    1    1    2  501    0 -0.37054413402E+02  0.14588847622E+03 -0.39099070696E+03  0.45327608582E+03  0.17300000000E+03 0.  1.
         -6    1    1    2    0  502  0.37054413402E+02 -0.14588847622E+03 -0.15367142330E+03  0.27604416927E+03  0.17300000000E+03 0. -1.
<mgrwt>
<rscale>  2 0.22931524E+03</rscale>
<asrwt>0</asrwt>
<pdfrwt beam="1">  1       21 0.14204471E-01 0.22931524E+03</pdfrwt>
<pdfrwt beam="2">  1       21 0.97998648E-01 0.22931524E+03</pdfrwt>
<totfact> 0.36589332E+04</totfact>
</mgrwt>
</event>
<event>
 4    1  0.3902417E-001  0.1887877E+03  0.7546771E-02  0.1159559E+00
         21   -1    0    0  501  502  0.00000000000E+00  0.00000000000E+00  0.50489007473E+03  0.50489007473E+03  0.00000000000E+00 0.  1.
         21   -1    0    0  502  503 -0.00000000000E+00 -0.00000000000E+00 -0.70714464175E+02  0.70714464175E+02  0.00000000000E+00 0.  1.
          6    1    1    2  501    0 -0.41027461912E+02 -0.63470868883E+02  0.20507257612E+03  0.27873924249E+03  0.17300000000E+03 0.  1.
         -6    1    1    2    0  503  0.41027461912E+02  0.63470868883E+02  0.22910303443E+03  0.29686529641E+03  0.17300000000E+03 0.  1.
<mgrwt>
<rscale>  2 0.18878772E+03</rscale>
<asrwt>0</asrwt>
<pdfrwt beam="1">  1       21 0.77675394E-01 0.18878772E+03</pdfrwt>
<pdfrwt beam="2">  1       21 0.10879149E-01 0.18878772E+03</pdfrwt>
<totfact> 0.10288762E+05</totfact>
</mgrwt>
</event>
<event>
 4    1  0.3902417E-001  0.1926212E+03  0.7546771E-02  0.1156118E+00
         21   -1    0    0  501  502  0.00000000000E+00  0.00000000000E+00  0.43250671236E+02  0.43250671236E+02  0.00000000000E+00 0.  1.
         21   -1    0    0  502  503 -0.00000000000E+00 -0.00000000000E+00 -0.11890083889E+04  0.11890083889E+04  0.00000000000E+00 0.  1.
          6    1    1    2  501    0 -0.48769584829E+02  0.69249204375E+02 -0.89803528793E+03  0.91846083372E+03  0.17300000000E+03 0.  1.
         -6    1    1    2    0  503  0.48769584829E+02 -0.69249204375E+02 -0.24772242976E+03  0.31379822644E+03  0.17300000000E+03 0.  1.
<mgrwt>
<rscale>  2 0.19262119E+03</rscale>
<asrwt>0</asrwt>
<pdfrwt beam="1">  1       21 0.66539507E-02 0.19262119E+03</pdfrwt>
<pdfrwt beam="2">  1       21 0.18292433E+00 0.19262119E+03</pdfrwt>
<totfact> 0.28702102E+04</totfact>
</mgrwt>
</event>
<event>
 4    1  0.3902417E-001  0.2343783E+03  0.7546771E-02  0.1123595E+00
         21   -1    0    0  503  502  0.00000000000E+00  0.00000000000E+00  0.76375825262E+03  0.76375825262E+03  0.00000000000E+00 0. -1.
         21   -1    0    0  501  503 -0.00000000000E+00 -0.00000000000E+00 -0.96346371592E+02  0.96346371592E+02  0.00000000000E+00 0. -1.
          6    1    1    2  501    0 -0.13416058629E+03  0.83696747461E+02  0.11719001776E+03  0.26204333366E+03  0.17300000000E+03 0. -1.
         -6    1    1    2    0  502  0.13416058629E+03 -0.83696747461E+02  0.55022186327E+03  0.59806129056E+03  0.17300000000E+03 0. -1.
<mgrwt>
<rscale>  2 0.23437834E+03</rscale>
<asrwt>0</asrwt>
<pdfrwt beam="1">  1       21 0.11750127E+00 0.23437834E+03</pdfrwt>
<pdfrwt beam="2">  1       21 0.14822519E-01 0.23437834E+03</pdfrwt>
<totfact> 0.21756854E+04</totfact>
</mgrwt>
</event>
<event>
 4    1  0.3902417E-001  0.1780269E+03  0.7546771E-02  0.1169726E+00
         21   -1    0    0  503  502  0.00000000000E+00  0.00000000000E+00  0.29406281570E+03  0.29406281570E+03  0.00000000000E+00 0.  1.
         21   -1    0    0  501  503 -0.00000000000E+00 -0.00000000000E+00 -0.12939460166E+03  0.12939460166E+03  0.00000000000E+00 0.  1.
          6    1    1    2  501    0 -0.41579932135E+02 -0.59729146651E+01 -0.42051540445E+01  0.17807652789E+03  0.17300000000E+03 0.  1.
         -6    1    1    2    0  502  0.41579932135E+02  0.59729146651E+01  0.16887336809E+03  0.24538088947E+03  0.17300000000E+03 0.  1.
<mgrwt>
<rscale>  2 0.17802687E+03</rscale>
<asrwt>0</asrwt>
<pdfrwt beam="1">  1       21 0.45240433E-01 0.17802687E+03</pdfrwt>
<pdfrwt beam="2">  1       21 0.19906862E-01 0.17802687E+03</pdfrwt>
<totfact> 0.10972539E+05</totfact>
</mgrwt>
</event>
<event>
 4    1  0.3902417E-001  0.1815793E+03  0.7546771E-02  0.1166283E+00
         21   -1    0    0  503  502  0.00000000000E+00  0.00000000000E+00  0.90514181621E+02  0.90514181621E+02  0.00000000000E+00 0.  1.
         21   -1    0    0  501  503 -0.00000000000E+00 -0.00000000000E+00 -0.36827373133E+03  0.36827373133E+03  0.00000000000E+00 0.  1.
          6    1    1    2  501    0 -0.16463790598E+02  0.52640096978E+02 -0.11494291446E+03  0.21490209351E+03  0.17300000000E+03 0. -1.
         -6    1    1    2    0  502  0.16463790598E+02 -0.52640096978E+02 -0.16281663525E+03  0.24388581944E+03  0.17300000000E+03 0. -1.
<mgrwt>
<rscale>  2 0.18157928E+03</rscale>
<asrwt>0</asrwt>
<pdfrwt beam="1">  1       21 0.13925259E-01 0.18157928E+03</pdfrwt>
<pdfrwt beam="2">  1       21 0.56657497E-01 0.18157928E+03</pdfrwt>
<totfact> 0.13199915E+05</totfact>
</mgrwt>
</event>
<event>
 4    1  0.3902417E-001  0.2084832E+03  0.7546771E-02  0.1142773E+00
         21   -1    0    0  503  502  0.00000000000E+00  0.00000000000E+00  0.56857619493E+03  0.56857619493E+03  0.00000000000E+00 0.  1.
         21   -1    0    0  501  503 -0.00000000000E+00 -0.00000000000E+00 -0.77196265761E+02  0.77196265761E+02  0.00000000000E+00 0. -1.
          6    1    1    2  501    0  0.91383277156E+02  0.72009330196E+02  0.21385352403E+03  0.29866130770E+03  0.17300000000E+03 0. -1.
         -6    1    1    2    0  502 -0.91383277156E+02 -0.72009330196E+02  0.27752640515E+03  0.34711115299E+03  0.17300000000E+03 0.  1.
<mgrwt>
<rscale>  2 0.20848321E+03</rscale>
<asrwt>0</asrwt>
<pdfrwt beam="1">  1       21 0.87473258E-01 0.20848321E+03</pdfrwt>
<pdfrwt beam="2">  1       21 0.11876349E-01 0.20848321E+03</pdfrwt>
<totfact> 0.66574252E+04</totfact>
</mgrwt>
</event>
<event>
 4    1  0.3902417E-001  0.2006281E+03  0.7546771E-02  0.1149210E+00
         21   -1    0    0  503  502  0.00000000000E+00  0.00000000000E+00  0.63937278373E+02  0.63937278373E+02  0.00000000000E+00 0.  1.
         21   -1    0    0  501  503 -0.00000000000E+00 -0.00000000000E+00 -0.65224924398E+03  0.65224924398E+03  0.00000000000E+00 0. -1.
          6    1    1    2  501    0 -0.76956411153E+02 -0.66335159516E+02 -0.36096047611E+03  0.41296986321E+03  0.17300000000E+03 0. -1.
         -6    1    1    2    0  502  0.76956411153E+02  0.66335159516E+02 -0.22735148950E+03  0.30321665915E+03  0.17300000000E+03 0. -1.
<mgrwt>
<rscale>  2 0.20062812E+03</rscale>
<asrwt>0</asrwt>
<pdfrwt beam="1">  1       21 0.98365050E-02 0.20062812E+03</pdfrwt>
<pdfrwt beam="2">  1       21 0.10034603E+00 0.20062812E+03</pdfrwt>
<totfact> 0.67764665E+04</totfact>
</mgrwt>
</event>
<event>
 4    1  0.3902417E-001  0.2181289E+03  0.7546771E-02  0.1135286E+00
         21   -1    0    0  501  502  0.00000000000E+00  0.00000000000E+00  0.30785276622E+03  0.30785276622E+03  0.00000000000E+00 0. -1.
         21   -1    0    0  502  503 -0.00000000000E+00 -0.00000000000E+00 -0.16064062589E+03  0.16064062589E+03  0.00000000000E+00 0. -1.
          6    1    1    2  501    0  0.10783931382E+03 -0.77600986769E+02  0.11919852952E+03  0.24857296754E+03  0.17300000000E+03 0. -1.
         -6    1    1    2    0  503 -0.10783931382E+03  0.77600986769E+02  0.28013610813E+02  0.21992042457E+03  0.17300000000E+03 0. -1.
<mgrwt>
<rscale>  2 0.21812893E+03</rscale>
<asrwt>0</asrwt>
<pdfrwt beam="1">  1       21 0.47361964E-01 0.21812893E+03</pdfrwt>
<pdfrwt beam="2">  1       21 0.24713942E-01 0.21812893E+03</pdfrwt>
<totfact> 0.65282735E+04</totfact>
</mgrwt>
</event>
<event>
 4    1  0.3902417E-001  0.3264141E+03  0.7546771E-02  0.1072735E+00
         21   -1    0    0  501  502  0.00000000000E+00  0.00000000000E+00  0.27885451898E+03  0.27885451898E+03  0.00000000000E+00 0. -1.
         21   -1    0    0  502  503 -0.00000000000E+00 -0.00000000000E+00 -0.41084135511E+03  0.41084135511E+03  0.00000000000E+00 0. -1.
          6    1    1    2  501    0  0.93519573897E+02  0.26052113642E+03  0.25240489069E+02  0.32738853907E+03  0.17300000000E+03 0. -1.
         -6    1    1    2    0  503 -0.93519573897E+02 -0.26052113642E+03 -0.15722732520E+03  0.36230733503E+03  0.17300000000E+03 0. -1.
<mgrwt>
<rscale>  2 0.32641411E+03</rscale>
<asrwt>0</asrwt>
<pdfrwt beam="1">  1       21 0.42900695E-01 0.32641411E+03</pdfrwt>
<pdfrwt beam="2">  1       21 0.63206362E-01 0.32641411E+03</pdfrwt>
<totfact> 0.11282115E+04</totfact>
</mgrwt>
</event>
<event>
 4    1  0.3902417E-001  0.2360075E+03  0.7546771E-02  0.1122481E+00
         21   -1    0    0  501  502  0.00000000000E+00  0.00000000000E+00  0.42134611835E+03  0.42134611835E+03  0.00000000000E+00 0.  1.
         21   -1    0    0  502  503 -0.00000000000E+00 -0.00000000000E+00 -0.16904715324E+03  0.16904715324E+03  0.00000000000E+00 0.  1.
          6    1    1    2  501    0  0.15853468501E+03 -0.25245077408E+02  0.26397922998E+03  0.35409687113E+03  0.17300000000E+03 0.  1.
         -6    1    1    2    0  503 -0.15853468501E+03  0.25245077408E+02 -0.11680264870E+02  0.23629640046E+03  0.17300000000E+03 0.  1.
<mgrwt>
<rscale>  2 0.23600754E+03</rscale>
<asrwt>0</asrwt>
<pdfrwt beam="1">  1       21 0.64822479E-01 0.23600754E+03</pdfrwt>
<pdfrwt beam="2">  1       21 0.26007255E-01 0.23600754E+03</pdfrwt>
<totfact> 0.30107044E+04</totfact>
</mgrwt>
</event>
<event>
 4    1  0.3902417E-001  0.1891991E+03  0.7546771E-02  0.1159186E+00
         21   -1    0    0  503  502  0.00000000000E+00  0.00000000000E+00  0.19475283482E+03  0.19475283482E+03  0.00000000000E+00 0. -1.
         21   -1    0    0  501  503 -0.00000000000E+00 -0.00000000000E+00 -0.18568476605E+03  0.18568476605E+03  0.00000000000E+00 0.  1.
          6    1    1    2  501    0  0.57016401716E+02  0.51151134182E+02  0.23679117935E+02  0.19067514054E+03  0.17300000000E+03 0. -1.
         -6    1    1    2    0  502 -0.57016401716E+02 -0.51151134182E+02 -0.14611049160E+02  0.18976246033E+03  0.17300000000E+03 0. -1.
<mgrwt>
<rscale>  2 0.18919912E+03</rscale>
<asrwt>0</asrwt>
<pdfrwt beam="1">  1       21 0.29961974E-01 0.18919912E+03</pdfrwt>
<pdfrwt beam="2">  1       21 0.28566887E-01 0.18919912E+03</pdfrwt>
<totfact> 0.12534881E+05</totfact>
</mgrwt>
</event>
<event>
 4    1  0.3902417E-001  0.2688678E+03  0.7546771E-02  0.1101929E+00
         21   -1    0    0  501  502  0.00000000000E+00  0.00000000000E+00  0.14632190118E+04  0.14632190118E+04  0.00000000000E+00 0. -1.
         21   -1    0    0  502  503 -0.00000000000E+00 -0.00000000000E+00 -0.59890894113E+02  0.59890894113E+02  0.00000000000E+00 0.  1.
          6    1    1    2  501    0  0.98888754893E+02 -0.18050456507E+03  0.38300228354E+03  0.46795366550E+03  0.17300000000E+03 0.  1.
         -6    1    1    2    0  503 -0.98888754893E+02  0.18050456507E+03  0.10203258341E+04  0.10551562404E+04  0.17300000000E+03 0. -1.
<mgrwt>
<rscale>  2 0.26886778E+03</rscale>
<asrwt>0</asrwt>
<pdfrwt beam="1">  1       21 0.22511059E+00 0.26886778E+03</pdfrwt>
<pdfrwt beam="2">  1       21 0.92139848E-02 0.26886778E+03</pdfrwt>
<totfact> 0.82634031E+03</totfact>
</mgrwt>
</event>
<event>
 4    1  0.3902417E-001  0.1769792E+03  0.7546771E-02  0.1170759E+00
         21   -1    0    0  503  502  0.00000000000E+00  0.00000000000E+00  0.42119942130E+03  0.42119942130E+03  0.00000000000E+00 0. -1.
         21   -1    0    0  501  503 -0.00000000000E+00 -0.00000000000E+00 -0.76721369949E+02  0.76721369949E+02  0.00000000000E+00 0. -1.
          6    1    1    2  501    0  0.14468476068E+02 -0.34398908210E+02  0.21588908191E+03  0.27915894643E+03  0.17300000000E+03 0. -1.
         -6    1    1    2    0  502 -0.14468476068E+02  0.34398908210E+02  0.12858896945E+03  0.21876184482E+03  0.17300000000E+03 0. -1.
<mgrwt>
<rscale>  2 0.17697916E+03</rscale>
<asrwt>0</asrwt>
<pdfrwt beam="1">  1       21 0.64799909E-01 0.17697916E+03</pdfrwt>
<pdfrwt beam="2">  1       21 0.11803288E-01 0.17697916E+03</pdfrwt>
<totfact> 0.13334871E+05</totfact>
</mgrwt>
</event>
<event>
 4    1  0.3902417E-001  0.3271646E+03  0.7546771E-02  0.1072398E+00
         21   -1    0    0  501  502  0.00000000000E+00  0.00000000000E+00  0.10090475886E+03  0.10090475886E+03  0.00000000000E+00 0.  1.
         21   -1    0    0  502  503 -0.00000000000E+00 -0.00000000000E+00 -0.11221322306E+04  0.11221322306E+04  0.00000000000E+00 0. -1.
          6    1    1    2  501    0 -0.10348223175E+03  0.25768026330E+03 -0.65361501570E+03  0.73092357954E+03  0.17300000000E+03 0. -1.
         -6    1    1    2    0  503  0.10348223175E+03 -0.25768026330E+03 -0.36761245605E+03  0.49211340992E+03  0.17300000000E+03 0.  1.
<mgrwt>
<rscale>  2 0.32716462E+03</rscale>
<asrwt>0</asrwt>
<pdfrwt beam="1">  1       21 0.15523809E-01 0.32716462E+03</pdfrwt>
<pdfrwt beam="2">  1       21 0.17263573E+00 0.32716462E+03</pdfrwt>
<totfact> 0.69090449E+03</totfact>
</mgrwt>
</event>
<event>
 4    1  0.3902417E-001  0.1967993E+03  0.7546771E-02  0.1152468E+00
         21   -1    0    0  503  502  0.00000000000E+00  0.00000000000E+00  0.18123684747E+04  0.18123684747E+04  0.00000000000E+00 0. -1.
         21   -1    0    0  501  503 -0.00000000000E+00 -0.00000000000E+00 -0.30398549650E+02  0.30398549650E+02  0.00000000000E+00 0.  1.
          6    1    1    2  501    0  0.83345543538E+02 -0.43063544671E+02  0.38884145210E+03  0.43580686477E+03  0.17300000000E+03 0.  1.
         -6    1    1    2    0  502 -0.83345543538E+02  0.43063544671E+02  0.13931284729E+04  0.14069601596E+04  0.17300000000E+03 0. -1.
<mgrwt>
<rscale>  2 0.19679926E+03</rscale>
<asrwt>0</asrwt>
<pdfrwt beam="1">  1       21 0.27882583E+00 0.19679926E+03</pdfrwt>
<pdfrwt beam="2">  1       21 0.46767014E-02 0.19679926E+03</pdfrwt>
<totfact> 0.13559355E+04</totfact>
</mgrwt>
</event>
<event>
 4    1  0.3902417E-001  0.1747875E+03  0.7546771E-02  0.1172945E+00
         21   -1    0    0  503  502  0.00000000000E+00  0.00000000000E+00  0.17456580283E+03  0.17456580283E+03  0.00000000000E+00 0. -1.
         21   -1    0    0  501  503 -0.00000000000E+00 -0.00000000000E+00 -0.17934059630E+03  0.17934059630E+03  0.00000000000E+00 0. -1.
          6    1    1    2  501    0 -0.15298323249E+02  0.19688227774E+02 -0.29886629735E+02  0.17732421054E+03  0.17300000000E+03 0. -1.
         -6    1    1    2    0  502  0.15298323249E+02 -0.19688227774E+02  0.25111836265E+02  0.17658218859E+03  0.17300000000E+03 0. -1.
<mgrwt>
<rscale>  2 0.17478749E+03</rscale>
<asrwt>0</asrwt>
<pdfrwt beam="1">  1       21 0.26856277E-01 0.17478749E+03</pdfrwt>
<pdfrwt beam="2">  1       21 0.27590861E-01 0.17478749E+03</pdfrwt>
<totfact> 0.16643217E+05</totfact>
</mgrwt>
</event>
<event>
 4    1  0.3902417E-001  0.2123841E+03  0.7546771E-02  0.1139692E+00
         21   -1    0    0  503  502  0.00000000000E+00  0.00000000000E+00  0.32516879729E+02  0.32516879729E+02  0.00000000000E+00 0. -1.
         21   -1    0    0  501  503 -0.00000000000E+00 -0.00000000000E+00 -0.14076554089E+04  0.14076554089E+04  0.00000000000E+00 0.  1.
          6    1    1    2  501    0 -0.94725618914E+02 -0.78772323575E+02 -0.60073945300E+03  0.63717730047E+03  0.17300000000E+03 0.  1.
         -6    1    1    2    0  502  0.94725618914E+02  0.78772323575E+02 -0.77439907622E+03  0.80299498821E+03  0.17300000000E+03 0.  1.
<mgrwt>
<rscale>  2 0.21238414E+03</rscale>
<asrwt>0</asrwt>
<pdfrwt beam="1">  1       21 0.50025963E-02 0.21238414E+03</pdfrwt>
<pdfrwt beam="2">  1       21 0.21656239E+00 0.21238414E+03</pdfrwt>
<totfact> 0.27975298E+04</totfact>
</mgrwt>
</event>
<event>
 4    1  0.3902417E-001  0.1828236E+03  0.7546771E-02  0.1165098E+00
         21   -1    0    0  503  502  0.00000000000E+00  0.00000000000E+00  0.58257320873E+03  0.58257320873E+03  0.00000000000E+00 0. -1.
         21   -1    0    0  501  503 -0.00000000000E+00 -0.00000000000E+00 -0.58129718530E+02  0.58129718530E+02  0.00000000000E+00 0.  1.
          6    1    1    2  501    0  0.36020615314E+02  0.46882788753E+02  0.22569218324E+03  0.29045041261E+03  0.17300000000E+03 0.  1.
         -6    1    1    2    0  502 -0.36020615314E+02 -0.46882788753E+02  0.29875130696E+03  0.35025251465E+03  0.17300000000E+03 0.  1.
<mgrwt>
<rscale>  2 0.18282363E+03</rscale>
<asrwt>0</asrwt>
<pdfrwt beam="1">  1       21 0.89626644E-01 0.18282363E+03</pdfrwt>
<pdfrwt beam="2">  1       21 0.89430340E-02 0.18282363E+03</pdfrwt>
<totfact> 0.10518229E+05</totfact>
</mgrwt>
</event>
<event>
 4    1  0.3902417E-001  0.2087990E+03  0.7546771E-02  0.1142521E+00
         21   -1    0    0  501  502  0.00000000000E+00  0.00000000000E+00  0.19328033805E+04  0.19328033805E+04  0.00000000000E+00 0.  1.
         21   -1    0    0  502  503 -0.00000000000E+00 -0.00000000000E+00 -0.23922519729E+02  0.23922519729E+02  0.00000000000E+00 0.  1.
          6    1    1    2  501    0  0.76627301440E+02  0.88296632216E+02  0.11882406055E+04  0.12064463416E+04  0.17300000000E+03 0.  1.
         -6    1    1    2    0  503 -0.76627301440E+02 -0.88296632216E+02  0.72064025528E+03  0.75027955864E+03  0.17300000000E+03 0.  1.
<mgrwt>
<rscale>  2 0.20879904E+03</rscale>
<asrwt>0</asrwt>
<pdfrwt beam="1">  1       21 0.29735424E+00 0.20879904E+03</pdfrwt>
<pdfrwt beam="2">  1       21 0.36803892E-02 0.20879904E+03</pdfrwt>
<totfact> 0.15672741E+04</totfact>
</mgrwt>
</event>
<event>
 4    1  0.3902417E-001  0.1929232E+03  0.7546771E-02  0.1155851E+00
         21   -1    0    0  503  502  0.00000000000E+00  0.00000000000E+00  0.14089855284E+04  0.14089855284E+04  0.00000000000E+00 0. -1.
         21   -1    0    0  501  503 -0.00000000000E+00 -0.00000000000E+00 -0.38588326922E+02  0.38588326922E+02  0.00000000000E+00 0. -1.
          6    1    1    2  501    0  0.83358401122E+02  0.18486039831E+02  0.27868536325E+03  0.33894673386E+03  0.17300000000E+03 0. -1.
         -6    1    1    2    0  502 -0.83358401122E+02 -0.18486039831E+02  0.10917118382E+04  0.11086271214E+04  0.17300000000E+03 0. -1.
<mgrwt>
<rscale>  2 0.19292319E+03</rscale>
<asrwt>0</asrwt>
<pdfrwt beam="1">  1       21 0.21676696E+00 0.19292319E+03</pdfrwt>
<pdfrwt beam="2">  1       21 0.59366668E-02 0.19292319E+03</pdfrwt>
<totfact> 0.21142560E+04</totfact>
</mgrwt>
</event>
<event>
 4    1  0.3902417E-001  0.2131846E+03  0.7546771E-02  0.1139069E+00
         21   -1    0    0  503  502  0.00000000000E+00  0.00000000000E+00  0.39623118551E+03  0.39623118551E+03  0.00000000000E+00 0. -1.
         21   -1    0    0  501  503 -0.00000000000E+00 -0.00000000000E+00 -0.11495423850E+03  0.11495423850E+03  0.00000000000E+00 0.  1.
          6    1    1    2  501    0 -0.12409587598E+03 -0.10902699770E+02  0.12861473440E+03  0.24897671619E+03  0.17300000000E+03 0. -1.
         -6    1    1    2    0  502  0.12409587598E+03  0.10902699770E+02  0.15266221261E+03  0.26220870782E+03  0.17300000000E+03 0. -1.
<mgrwt>
<rscale>  2 0.21318456E+03</rscale>
<asrwt>0</asrwt>
<pdfrwt beam="1">  1       21 0.60958643E-01 0.21318456E+03</pdfrwt>
<pdfrwt beam="2">  1       21 0.17685268E-01 0.21318456E+03</pdfrwt>
<totfact> 0.71985980E+04</totfact>
</mgrwt>
</event>
<event>
 4    1  0.3902417E-001  0.2705371E+03  0.7546771E-02  0.1100973E+00
         21   -1    0    0  501  502  0.00000000000E+00  0.00000000000E+00  0.76744632664E+03  0.76744632664E+03  0.00000000000E+00 0.  1.
         21   -1    0    0  502  503 -0.00000000000E+00 -0.00000000000E+00 -0.96068752363E+02  0.96068752363E+02  0.00000000000E+00 0.  1.
          6    1    1    2  501    0 -0.57123392383E+02  0.19999558381E+03  0.29883081036E+03  0.40310069303E+03  0.17300000000E+03 0.  1.
         -6    1    1    2    0  503  0.57123392383E+02 -0.19999558381E+03  0.37254676392E+03  0.46041438597E+03  0.17300000000E+03 0.  1.
<mgrwt>
<rscale>  2 0.27053709E+03</rscale>
<asrwt>0</asrwt>
<pdfrwt beam="1">  1       21 0.11806866E+00 0.27053709E+03</pdfrwt>
<pdfrwt beam="2">  1       21 0.14779809E-01 0.27053709E+03</pdfrwt>
<totfact> 0.21227959E+04</totfact>
</mgrwt>
</event>
<event>
 4    1  0.3902417E-001  0.1993147E+03  0.7546771E-02  0.1150319E+00
         21   -1    0    0  501  502  0.00000000000E+00  0.00000000000E+00  0.44807112181E+02  0.44807112181E+02  0.00000000000E+00 0. -1.
         21   -1    0    0  502  503 -0.00000000000E+00 -0.00000000000E+00 -0.90402171037E+03  0.90402171037E+03  0.00000000000E+00 0. -1.
          6    1    1    2  501    0 -0.52542285414E+02  0.83884715995E+02 -0.36376333202E+03  0.41478922245E+03  0.17300000000E+03 0. -1.
         -6    1    1    2    0  503  0.52542285414E+02 -0.83884715995E+02 -0.49545126616E+03  0.53403960010E+03  0.17300000000E+03 0. -1.
<mgrwt>
<rscale>  2 0.19931467E+03</rscale>
<asrwt>0</asrwt>
<pdfrwt beam="1">  1       21 0.68934025E-02 0.19931467E+03</pdfrwt>
<pdfrwt beam="2">  1       21 0.13908025E+00 0.19931467E+03</pdfrwt>
<totfact> 0.56331348E+04</totfact>
</mgrwt>
</event>
<event>
 4    1  0.3902417E-001  0.2130568E+03  0.7546771E-02  0.1139168E+00
         21   -1    0    0  501  502  0.00000000000E+00  0.00000000000E+00  0.59382292682E+02  0.59382292682E+02  0.00000000000E+00 0.  1.
         21   -1    0    0  502  503 -0.00000000000E+00 -0.00000000000E+00 -0.79158522494E+03  0.79158522494E+03  0.00000000000E+00 0. -1.
          6    1    1    2  501    0 -0.11327722444E+03 -0.51307407728E+02 -0.28728476516E+03  0.35766704623E+03  0.17300000000E+03 0.  1.
         -6    1    1    2    0  503  0.11327722444E+03  0.51307407728E+02 -0.44491816710E+03  0.49330047140E+03  0.17300000000E+03 0. -1.
<mgrwt>
<rscale>  2 0.21305675E+03</rscale>
<asrwt>0</asrwt>
<pdfrwt beam="1">  1       21 0.91357379E-02 0.21305675E+03</pdfrwt>
<pdfrwt beam="2">  1       21 0.12178234E+00 0.21305675E+03</pdfrwt>
<totfact> 0.47920277E+04</totfact>
</mgrwt>
</event>
<event>
 4    1  0.3902417E-001  0.1892915E+03  0.7546771E-02  0.1159102E+00
         21   -1    0    0  503  502  0.00000000000E+00  0.00000000000E+00  0.18993383177E+03  0.18993383177E+03  0.00000000000E+00 0. -1.
         21   -1    0    0  501  503 -0.00000000000E+00 -0.00000000000E+00 -0.21275114660E+03  0.21275114660E+03  0.00000000000E+00 0. -1.
          6    1    1    2  501    0 -0.42281265334E+02 -0.64144931350E+02 -0.79173742066E+02  0.20518225812E+03  0.17300000000E+03 0. -1.
         -6    1    1    2    0  502  0.42281265334E+02  0.64144931350E+02  0.56356427231E+02  0.19750272025E+03  0.17300000000E+03 0. -1.
<mgrwt>
<rscale>  2 0.18929151E+03</rscale>
<asrwt>0</asrwt>
<pdfrwt beam="1">  1       21 0.29220590E-01 0.18929151E+03</pdfrwt>
<pdfrwt beam="2">  1       21 0.32730945E-01 0.18929151E+03</pdfrwt>
<totfact> 0.10089943E+05</totfact>
</mgrwt>
</event>
<event>
 4    1  0.3902417E-001  0.2165673E+03  0.7546771E-02  0.1136468E+00
         21   -1    0    0  503  502  0.00000000000E+00  0.00000000000E+00  0.48894699386E+03  0.48894699386E+03  0.00000000000E+00 0. -1.
         21   -1    0    0  501  503 -0.00000000000E+00 -0.00000000000E+00 -0.16107502172E+03  0.16107502172E+03  0.00000000000E+00 0.  1.
          6    1    1    2  501    0 -0.54760264517E+02  0.11821044852E+03  0.37063909302E+03  0.42927233079E+03  0.17300000000E+03 0. -1.
         -6    1    1    2    0  502  0.54760264517E+02 -0.11821044852E+03 -0.42767120871E+02  0.22074968479E+03  0.17300000000E+03 0.  1.
<mgrwt>
<rscale>  2 0.21656730E+03</rscale>
<asrwt>0</asrwt>
<pdfrwt beam="1">  1       21 0.75222614E-01 0.21656730E+03</pdfrwt>
<pdfrwt beam="2">  1       21 0.24780773E-01 0.21656730E+03</pdfrwt>
<totfact> 0.23998655E+04</totfact>
</mgrwt>
</event>
<event>
 4    1  0.3902417E-001  0.1848397E+03  0.7546771E-02  0.1163200E+00
         21   -1    0    0  501  502  0.00000000000E+00  0.00000000000E+00  0.28570722239E+02  0.28570722239E+02  0.00000000000E+00 0. -1.
         21   -1    0    0  502  503 -0.00000000000E+00 -0.00000000000E+00 -0.14250172463E+04  0.14250172463E+04  0.00000000000E+00 0.  1.
          6    1    1    2  501    0 -0.55888271303E+02  0.33364708147E+02 -0.40675096198E+03  0.44677964108E+03  0.17300000000E+03 0. -1.
         -6    1    1    2    0  503  0.55888271303E+02 -0.33364708147E+02 -0.98969556205E+03  0.10068083274E+04  0.17300000000E+03 0.  1.
<mgrwt>
<rscale>  2 0.18483967E+03</rscale>
<asrwt>0</asrwt>
<pdfrwt beam="1">  1       21 0.43954970E-02 0.18483967E+03</pdfrwt>
<pdfrwt beam="2">  1       21 0.21923336E+00 0.18483967E+03</pdfrwt>
<totfact> 0.34208397E+04</totfact>
</mgrwt>
</event>
<event>
 4    1  0.3902417E-001  0.1756820E+03  0.7546771E-02  0.1172049E+00
         21   -1    0    0  501  502  0.00000000000E+00  0.00000000000E+00  0.15971912927E+04  0.15971912927E+04  0.00000000000E+00 0.  1.
         21   -1    0    0  502  503 -0.00000000000E+00 -0.00000000000E+00 -0.22966269490E+02  0.22966269490E+02  0.00000000000E+00 0.  1.
          6    1    1    2  501    0  0.25416761546E+02 -0.17004220783E+02  0.11097144097E+04  0.11235347019E+04  0.17300000000E+03 0.  1.
         -6    1    1    2    0  503 -0.25416761546E+02  0.17004220783E+02  0.46451061350E+03  0.49662286028E+03  0.17300000000E+03 0.  1.
<mgrwt>
<rscale>  2 0.17568197E+03</rscale>
<asrwt>0</asrwt>
<pdfrwt beam="1">  1       21 0.24572165E+00 0.17568197E+03</pdfrwt>
<pdfrwt beam="2">  1       21 0.35332735E-02 0.17568197E+03</pdfrwt>
<totfact> 0.34457021E+04</totfact>
</mgrwt>
</event>
<event>
 4    1  0.3902417E-001  0.1838308E+03  0.7546771E-02  0.1164146E+00
         21   -1    0    0  501  502  0.00000000000E+00  0.00000000000E+00  0.66674940180E+03  0.66674940180E+03  0.00000000000E+00 0.  1.
         21   -1    0    0  502  503 -0.00000000000E+00 -0.00000000000E+00 -0.54184447455E+02  0.54184447455E+02  0.00000000000E+00 0. -1.
          6    1    1    2  501    0  0.23743863980E+02 -0.57454325269E+02  0.21466735063E+03  0.28262314484E+03  0.17300000000E+03 0. -1.
         -6    1    1    2    0  503 -0.23743863980E+02  0.57454325269E+02  0.39789760371E+03  0.43831070441E+03  0.17300000000E+03 0.  1.
<mgrwt>
<rscale>  2 0.18383082E+03</rscale>
<asrwt>0</asrwt>
<pdfrwt beam="1">  1       21 0.10257683E+00 0.18383082E+03</pdfrwt>
<pdfrwt beam="2">  1       21 0.83360693E-02 0.18383082E+03</pdfrwt>
<totfact> 0.86630001E+04</totfact>
</mgrwt>
</event>
<event>
 4    1  0.3902417E-001  0.1939825E+03  0.7546771E-02  0.1154918E+00
         21   -1    0    0  501  502  0.00000000000E+00  0.00000000000E+00  0.51160257304E+03  0.51160257304E+03  0.00000000000E+00 0.  1.
         21   -1    0    0  502  503 -0.00000000000E+00 -0.00000000000E+00 -0.76777597176E+02  0.76777597176E+02  0.00000000000E+00 0.  1.
          6    1    1    2  501    0  0.25131214561E+01  0.87714763849E+02  0.27771588023E+03  0.33875552498E+03  0.17300000000E+03 0. -1.
         -6    1    1    2    0  503 -0.25131214561E+01 -0.87714763849E+02  0.15710909564E+03  0.24962464524E+03  0.17300000000E+03 0. -1.
<mgrwt>
<rscale>  2 0.19398246E+03</rscale>
<asrwt>0</asrwt>
<pdfrwt beam="1">  1       21 0.78708086E-01 0.19398246E+03</pdfrwt>
<pdfrwt beam="2">  1       21 0.11811938E-01 0.19398246E+03</pdfrwt>
<totfact> 0.86082702E+04</totfact>
</mgrwt>
</event>
<event>
 4    1  0.3902417E-001  0.1746867E+03  0.7546771E-02  0.1173047E+00
         21   -1    0    0  501  502  0.00000000000E+00  0.00000000000E+00  0.12674371891E+03  0.12674371891E+03  0.00000000000E+00 0.  1.
         21   -1    0    0  502  503 -0.00000000000E+00 -0.00000000000E+00 -0.28486918890E+03  0.28486918890E+03  0.00000000000E+00 0.  1.
          6    1    1    2  501    0  0.19786162225E+01  0.24135410845E+02  0.19171002377E+01  0.17469719017E+03  0.17300000000E+03 0.  1.
         -6    1    1    2    0  503 -0.19786162225E+01 -0.24135410845E+02 -0.16004257023E+03  0.23691571764E+03  0.17300000000E+03 0.  1.
<mgrwt>
<rscale>  2 0.17468667E+03</rscale>
<asrwt>0</asrwt>
<pdfrwt beam="1">  1       21 0.19499034E-01 0.17468667E+03</pdfrwt>
<pdfrwt beam="2">  1       21 0.43826028E-01 0.17468667E+03</pdfrwt>
<totfact> 0.12184316E+05</totfact>
</mgrwt>
</event>
<event>
 4    1  0.3902417E-001  0.2200676E+03  0.7546771E-02  0.1133833E+00
         21   -1    0    0  501  502  0.00000000000E+00  0.00000000000E+00  0.78685609358E+02  0.78685609358E+02  0.00000000000E+00 0. -1.
         21   -1    0    0  502  503 -0.00000000000E+00 -0.00000000000E+00 -0.66392121495E+03  0.66392121495E+03  0.00000000000E+00 0. -1.
          6    1    1    2  501    0  0.13397912135E+03 -0.23459319168E+02 -0.39290826229E+03  0.45034059021E+03  0.17300000000E+03 0. -1.
         -6    1    1    2    0  503 -0.13397912135E+03  0.23459319168E+02 -0.19232734329E+03  0.29226623409E+03  0.17300000000E+03 0. -1.
<mgrwt>
<rscale>  2 0.22006759E+03</rscale>
<asrwt>0</asrwt>
<pdfrwt beam="1">  1       21 0.12105478E-01 0.22006759E+03</pdfrwt>
<pdfrwt beam="2">  1       21 0.10214173E+00 0.22006759E+03</pdfrwt>
<totfact> 0.44461423E+04</totfact>
</mgrwt>
</event>
<event>
 4    1  0.3902417E-001  0.2012233E+03  0.7546771E-02  0.1148711E+00
         21   -1    0    0  501  502  0.00000000000E+00  0.00000000000E+00  0.80479295819E+03  0.80479295819E+03  0.00000000000E+00 0.  1.
         21   -1    0    0  502  503 -0.00000000000E+00 -0.00000000000E+00 -0.50553374149E+02  0.50553374149E+02  0.00000000000E+00 0. -1.
          6    1    1    2  501    0  0.95196965983E+02  0.38721572908E+02  0.40666545392E+03  0.45372636462E+03  0.17300000000E+03 0.  1.
         -6    1    1    2    0  503 -0.95196965983E+02 -0.38721572908E+02  0.34757413012E+03  0.40161996772E+03  0.17300000000E+03 0.  1.
<mgrwt>
<rscale>  2 0.20122332E+03</rscale>
<asrwt>0</asrwt>
<pdfrwt beam="1">  1       21 0.12381429E+00 0.20122332E+03</pdfrwt>
<pdfrwt beam="2">  1       21 0.77774428E-02 0.20122332E+03</pdfrwt>
<totfact> 0.61303006E+04</totfact>
</mgrwt>
</event>
<event>
 4    1  0.3902417E-001  0.1752685E+03  0.7546771E-02  0.1172462E+00
         21   -1    0    0  503  502  0.00000000000E+00  0.00000000000E+00  0.13105626398E+04  0.13105626398E+04  0.00000000000E+00 0.  1.
         21   -1    0    0  501  503 -0.00000000000E+00 -0.00000000000E+00 -0.31399796629E+02  0.31399796629E+02  0.00000000000E+00 0.  1.
          6    1    1    2  501    0 -0.17353191668E+02  0.22111308158E+02  0.30174281452E+03  0.34895238833E+03  0.17300000000E+03 0.  1.
         -6    1    1    2    0  502  0.17353191668E+02 -0.22111308158E+02  0.97742002866E+03  0.99301004810E+03  0.17300000000E+03 0.  1.
<mgrwt>
<rscale>  2 0.17526849E+03</rscale>
<asrwt>0</asrwt>
<pdfrwt beam="1">  1       21 0.20162498E+00 0.17526849E+03</pdfrwt>
<pdfrwt beam="2">  1       21 0.48307390E-02 0.17526849E+03</pdfrwt>
<totfact> 0.37840233E+04</totfact>
</mgrwt>
</event>
<event>
 4    1  0.3902417E-001  0.2615636E+03  0.7546771E-02  0.1106207E+00
         21   -1    0    0  501  502  0.00000000000E+00  0.00000000000E+00  0.14608963425E+03  0.14608963425E+03  0.00000000000E+00 0. -1.
         21   -1    0    0  502  503 -0.00000000000E+00 -0.00000000000E+00 -0.64758354947E+03  0.64758354947E+03  0.00000000000E+00 0. -1.
          6    1    1    2  501    0  0.11159083212E+03  0.16135049017E+03 -0.41952109885E+02  0.26490653826E+03  0.17300000000E+03 0. -1.
         -6    1    1    2    0  503 -0.11159083212E+03 -0.16135049017E+03 -0.45954180534E+03  0.52876664546E+03  0.17300000000E+03 0. -1.
<mgrwt>
<rscale>  2 0.26156356E+03</rscale>
<asrwt>0</asrwt>
<pdfrwt beam="1">  1       21 0.22475328E-01 0.26156356E+03</pdfrwt>
<pdfrwt beam="2">  1       21 0.99628240E-01 0.26156356E+03</pdfrwt>
<totfact> 0.14752557E+04</totfact>
</mgrwt>
</event>
<event>
 4    1  0.3902417E-001  0.1776007E+03  0.7546771E-02  0.1170145E+00
         21   -1    0    0  501  502  0.00000000000E+00  0.00000000000E+00  0.11193185020E+03  0.11193185020E+03  0.00000000000E+00 0.  1.
         21   -1    0    0  502  503 -0.00000000000E+00 -0.00000000000E+00 -0.28188715756E+03  0.28188715756E+03  0.00000000000E+00 0.  1.
          6    1    1    2  501    0  0.33993681602E+02  0.21387827357E+02 -0.88507893916E+02  0.19843300339E+03  0.17300000000E+03 0.  1.
         -6    1    1    2    0  503 -0.33993681602E+02 -0.21387827357E+02 -0.81447413440E+02  0.19538600437E+03  0.17300000000E+03 0.  1.
<mgrwt>
<rscale>  2 0.17760070E+03</rscale>
<asrwt>0</asrwt>
<pdfrwt beam="1">  1       21 0.17220285E-01 0.17760070E+03</pdfrwt>
<pdfrwt beam="2">  1       21 0.43367255E-01 0.17760070E+03</pdfrwt>
<totfact> 0.15647200E+05</totfact>
</mgrwt>
</event>
<event>
 4    1  0.3902417E-001  0.2100748E+03  0.7546771E-02  0.1141507E+00
         21   -1    0    0  503  502  0.00000000000E+00  0.00000000000E+00  0.41053092008E+03  0.41053092008E+03  0.00000000000E+00 0. -1.
         21   -1    0    0  501  503 -0.00000000000E+00 -0.00000000000E+00 -0.21270160155E+03  0.21270160155E+03  0.00000000000E+00 0. -1.
          6    1    1    2  501    0  0.61465169746E+02 -0.10210015238E+03 -0.12023926655E+03  0.24205141898E+03  0.17300000000E+03 0. -1.
         -6    1    1    2    0  502 -0.61465169746E+02  0.10210015238E+03  0.31806858508E+03  0.38118110265E+03  0.17300000000E+03 0. -1.
<mgrwt>
<rscale>  2 0.21007477E+03</rscale>
<asrwt>0</asrwt>
<pdfrwt beam="1">  1       21 0.63158603E-01 0.21007477E+03</pdfrwt>
<pdfrwt beam="2">  1       21 0.32723324E-01 0.21007477E+03</pdfrwt>
<totfact> 0.20637264E+04</totfact>
</mgrwt>
</event>
<event>
 4    1  0.3902417E-001  0.2118928E+03  0.7546771E-02  0.1140076E+00
         21   -1    0    0  503  502  0.00000000000E+00  0.00000000000E+00  0.39298605613E+03  0.39298605613E+03  0.00000000000E+00 0.  1.
         21   -1    0    0  501  503 -0.00000000000E+00 -0.00000000000E+00 -0.11500800777E+03  0.11500800777E+03  0.00000000000E+00 0.  1.
          6    1    1    2  501    0 -0.88506937119E+02  0.84475320563E+02  0.15961306404E+03  0.26528265664E+03  0.17300000000E+03 0.  1.
         -6    1    1    2    0  502  0.88506937119E+02 -0.84475320563E+02  0.11836498431E+03  0.24271140726E+03  0.17300000000E+03 0.  1.
<mgrwt>
<rscale>  2 0.21189280E+03</rscale>
<asrwt>0</asrwt>
<pdfrwt beam="1">  1       21 0.60459393E-01 0.21189280E+03</pdfrwt>
<pdfrwt beam="2">  1       21 0.17693540E-01 0.21189280E+03</pdfrwt>
<totfact> 0.73251082E+04</totfact>
</mgrwt>
</event>
<event>
 4    1  0.3902417E-001  0.1737841E+03  0.7546771E-02  0.1173958E+00
         21   -1    0    0  501  502  0.00000000000E+00  0.00000000000E+00  0.36598510856E+03  0.36598510856E+03  0.00000000000E+00 0.  1.
         21   -1    0    0  502  503 -0.00000000000E+00 -0.00000000000E+00 -0.86495436391E+02  0.86495436391E+02  0.00000000000E+00 0.  1.
          6    1    1    2  501    0 -0.13571497126E+02 -0.93656366654E+01  0.18825068931E+03  0.25620152753E+03  0.17300000000E+03 0. -1.
         -6    1    1    2    0  503  0.13571497126E+02  0.93656366654E+01  0.91238982853E+02  0.19627901741E+03  0.17300000000E+03 0. -1.
<mgrwt>
<rscale>  2 0.17378406E+03</rscale>
<asrwt>0</asrwt>
<pdfrwt beam="1">  1       21 0.56305400E-01 0.17378406E+03</pdfrwt>
<pdfrwt beam="2">  1       21 0.13306990E-01 0.17378406E+03</pdfrwt>
<totfact> 0.14556683E+05</totfact>
</mgrwt>
</event>
<event>
 4    1  0.3902417E-001  0.1767401E+03  0.7546771E-02  0.1170996E+00
         21   -1    0    0  501  502  0.00000000000E+00  0.00000000000E+00  0.22541941477E+03  0.22541941477E+03  0.00000000000E+00 0.  1.
         21   -1    0    0  502  503 -0.00000000000E+00 -0.00000000000E+00 -0.14327595070E+03  0.14327595070E+03  0.00000000000E+00 0.  1.
          6    1    1    2  501    0  0.25038879560E+02  0.26098071095E+02  0.76726793827E+01  0.17690654260E+03  0.17300000000E+03 0. -1.
         -6    1    1    2    0  503 -0.25038879560E+02 -0.26098071095E+02  0.74470784687E+02  0.19178882287E+03  0.17300000000E+03 0. -1.
<mgrwt>
<rscale>  2 0.17674008E+03</rscale>
<asrwt>0</asrwt>
<pdfrwt beam="1">  1       21 0.34679910E-01 0.17674008E+03</pdfrwt>
<pdfrwt beam="2">  1       21 0.22042454E-01 0.17674008E+03</pdfrwt>
<totfact> 0.15492010E+05</totfact>
</mgrwt>
</event>
<event>
 4    1  0.3902417E-001  0.2107470E+03  0.7546771E-02  0.1140976E+00
         21   -1    0    0  501  502  0.00000000000E+00  0.00000000000E+00  0.70714965724E+03  0.70714965724E+03  0.00000000000E+00 0.  1.
         21   -1    0    0  502  503 -0.00000000000E+00 -0.00000000000E+00 -0.63391269304E+02  0.63391269304E+02  0.00000000000E+00 0. -1.
          6    1    1    2  501    0  0.11929536644E+03 -0.15934109424E+02  0.28490633061E+03  0.35438100615E+03  0.17300000000E+03 0.  1.
         -6    1    1    2    0  503 -0.11929536644E+03  0.15934109424E+02  0.35885205732E+03  0.41615992039E+03  0.17300000000E+03 0.  1.
<mgrwt>
<rscale>  2 0.21074696E+03</rscale>
<asrwt>0</asrwt>
<pdfrwt beam="1">  1       21 0.10879225E+00 0.21074696E+03</pdfrwt>
<pdfrwt beam="2">  1       21 0.97525035E-02 0.21074696E+03</pdfrwt>
<totfact> 0.56378009E+04</totfact>
</mgrwt>
</event>
<event>
 4    1  0.3902417E-001  0.1749379E+03  0.7546771E-02  0.1172794E+00
         21   -1    0    0  503  502  0.00000000000E+00  0.00000000000E+00  0.27863921672E+03  0.27863921672E+03  0.00000000000E+00 0.  1.
         21   -1    0    0  501  503 -0.00000000000E+00 -0.00000000000E+00 -0.11912632781E+03  0.11912632781E+03  0.00000000000E+00 0. -1.
          6    1    1    2  501    0  0.92011527315E+01 -0.24282143029E+02  0.24201767896E+02  0.17660410315E+03  0.17300000000E+03 0. -1.
         -6    1    1    2    0  502 -0.92011527315E+01  0.24282143029E+02  0.13531112102E+03  0.22116144138E+03  0.17300000000E+03 0.  1.
<mgrwt>
<rscale>  2 0.17493794E+03</rscale>
<asrwt>0</asrwt>
<pdfrwt beam="1">  1       21 0.42867572E-01 0.17493794E+03</pdfrwt>
<pdfrwt beam="2">  1       21 0.18327127E-01 0.17493794E+03</pdfrwt>
<totfact> 0.14296233E+05</totfact>
</mgrwt>
</event>
<event>
 4    1  0.3902417E-001  0.1730971E+03  0.7546771E-02  0.1174656E+00
         21   -1    0    0  503  502  0.00000000000E+00  0.00000000000E+00  0.11948018796E+03  0.11948018796E+03  0.00000000000E+00 0. -1.
         21   -1    0    0  501  503 -0.00000000000E+00 -0.00000000000E+00 -0.28398509768E+03  0.28398509768E+03  0.00000000000E+00 0. -1.
          6    1    1    2  501    0 -0.56889751990E+01  0.11088123096E+01 -0.15123929105E+03  0.22986064705E+03  0.17300000000E+03 0. -1.
         -6    1    1    2    0  502  0.56889751990E+01 -0.11088123096E+01 -0.13265618663E+02  0.17360463860E+03  0.17300000000E+03 0. -1.
<mgrwt>
<rscale>  2 0.17309706E+03</rscale>
<asrwt>0</asrwt>
<pdfrwt beam="1">  1       21 0.18381568E-01 0.17309706E+03</pdfrwt>
<pdfrwt beam="2">  1       21 0.43690014E-01 0.17309706E+03</pdfrwt>
<totfact> 0.13687006E+05</totfact>
</mgrwt>
</event>
<event>
 4    1  0.3902417E-001  0.3323773E+03  0.7546771E-02  0.1070090E+00
         21   -1    0    0  501  502  0.00000000000E+00  0.00000000000E+00  0.74575436813E+02  0.74575436813E+02  0.00000000000E+00 0. -1.
         21   -1    0    0  502  503 -0.00000000000E+00 -0.00000000000E+00 -0.19585524193E+04  0.19585524193E+04  0.00000000000E+00 0. -1.
          6    1    1    2  501    0  0.17993646122E+03  0.21947338478E+03 -0.44021937014E+03  0.55160474123E+03  0.17300000000E+03 0. -1.
         -6    1    1    2    0  503 -0.17993646122E+03 -0.21947338478E+03 -0.14437576123E+04  0.14815231149E+04  0.17300000000E+03 0. -1.
<mgrwt>
<rscale>  2 0.33237734E+03</rscale>
<asrwt>0</asrwt>
<pdfrwt beam="1">  1       21 0.11473146E-01 0.33237734E+03</pdfrwt>
<pdfrwt beam="2">  1       21 0.30131571E+00 0.33237734E+03</pdfrwt>
<totfact> 0.18671952E+03</totfact>
</mgrwt>
</event>
<event>
 4    1  0.3902417E-001  0.2323914E+03  0.7546771E-02  0.1124968E+00
         21   -1    0    0  501  502  0.00000000000E+00  0.00000000000E+00  0.53343084518E+03  0.53343084518E+03  0.00000000000E+00 0.  1.
         21   -1    0    0  502  503 -0.00000000000E+00 -0.00000000000E+00 -0.16340037682E+03  0.16340037682E+03  0.00000000000E+00 0. -1.
          6    1    1    2  501    0 -0.11197202849E+03 -0.10741986438E+03  0.39990705430E+03  0.46252720408E+03  0.17300000000E+03 0. -1.
         -6    1    1    2    0  503  0.11197202849E+03  0.10741986438E+03 -0.29876585944E+02  0.23430401792E+03  0.17300000000E+03 0. -1.
<mgrwt>
<rscale>  2 0.23239140E+03</rscale>
<asrwt>0</asrwt>
<pdfrwt beam="1">  1       21 0.82066283E-01 0.23239140E+03</pdfrwt>
<pdfrwt beam="2">  1       21 0.25138520E-01 0.23239140E+03</pdfrwt>
<totfact> 0.19011393E+04</totfact>
</mgrwt>
</event>
<event>
 4    1  0.3902417E-001  0.3541607E+03  0.7546771E-02  0.1060920E+00
         21   -1    0    0  503  502  0.00000000000E+00  0.00000000000E+00  0.13085621187E+04  0.13085621187E+04  0.00000000000E+00 0. -1.
         21   -1    0    0  501  503 -0.00000000000E+00 -0.00000000000E+00 -0.10870155222E+03  0.10870155222E+03  0.00000000000E+00 0.  1.
          6    1    1    2  501    0  0.25882966022E+03  0.16884305925E+03  0.35630198720E+03  0.50237523601E+03  0.17300000000E+03 0.  1.
         -6    1    1    2    0  502 -0.25882966022E+03 -0.16884305925E+03  0.84355857932E+03  0.91488843496E+03  0.17300000000E+03 0. -1.
<mgrwt>
<rscale>  2 0.35416066E+03</rscale>
<asrwt>0</asrwt>
<pdfrwt beam="1">  1       21 0.20131724E+00 0.35416066E+03</pdfrwt>
<pdfrwt beam="2">  1       21 0.16723317E-01 0.35416066E+03</pdfrwt>
<totfact> 0.37795764E+03</totfact>
</mgrwt>
</event>
<event>
 4    1  0.3902417E-001  0.2064157E+03  0.7546771E-02  0.1144436E+00
         21   -1    0    0  503  502  0.00000000000E+00  0.00000000000E+00  0.84897323008E+02  0.84897323008E+02  0.00000000000E+00 0. -1.
         21   -1    0    0  501  503 -0.00000000000E+00 -0.00000000000E+00 -0.50785508085E+03  0.50785508085E+03  0.00000000000E+00 0. -1.
          6    1    1    2  501    0  0.10659794796E+03 -0.36267573290E+02 -0.24365186660E+03  0.31933319821E+03  0.17300000000E+03 0. -1.
         -6    1    1    2    0  502 -0.10659794796E+03  0.36267573290E+02 -0.17930589124E+03  0.27341920565E+03  0.17300000000E+03 0. -1.
<mgrwt>
<rscale>  2 0.20641574E+03</rscale>
<asrwt>0</asrwt>
<pdfrwt beam="1">  1       21 0.13061127E-01 0.20641574E+03</pdfrwt>
<pdfrwt beam="2">  1       21 0.78131551E-01 0.20641574E+03</pdfrwt>
<totfact> 0.72662522E+04</totfact>
</mgrwt>
</event>
<event>
 4    1  0.3902417E-001  0.2138356E+03  0.7546771E-02  0.1138564E+00
         21   -1    0    0  503  502  0.00000000000E+00  0.00000000000E+00  0.96393508879E+02  0.96393508879E+02  0.00000000000E+00 0.  1.
         21   -1    0    0  501  503 -0.00000000000E+00 -0.00000000000E+00 -0.53535964598E+03  0.53535964598E+03  0.00000000000E+00 0.  1.
          6    1    1    2  501    0 -0.26882187077E+02  0.12277629262E+03 -0.11286229593E+03  0.24179240653E+03  0.17300000000E+03 0.  1.
         -6    1    1    2    0  502  0.26882187077E+02 -0.12277629262E+03 -0.32610384117E+03  0.38996074833E+03  0.17300000000E+03 0.  1.
<mgrwt>
<rscale>  2 0.21383561E+03</rscale>
<asrwt>0</asrwt>
<pdfrwt beam="1">  1       21 0.14829771E-01 0.21383561E+03</pdfrwt>
<pdfrwt beam="2">  1       21 0.82363021E-01 0.21383561E+03</pdfrwt>
<totfact> 0.51035439E+04</totfact>
</mgrwt>
</event>
<event>
 4    1  0.3902417E-001  0.2019439E+03  0.7546771E-02  0.1148109E+00
         21   -1    0    0  503  502  0.00000000000E+00  0.00000000000E+00  0.84858673636E+02  0.84858673636E+02  0.00000000000E+00 0. -1.
         21   -1    0    0  501  503 -0.00000000000E+00 -0.00000000000E+00 -0.48813496352E+03  0.48813496352E+03  0.00000000000E+00 0. -1.
          6    1    1    2  501    0 -0.27201065292E+02  0.10056064017E+03 -0.23728161205E+03  0.31158290024E+03  0.17300000000E+03 0. -1.
         -6    1    1    2    0  502  0.27201065292E+02 -0.10056064017E+03 -0.16599467783E+03  0.26141073691E+03  0.17300000000E+03 0. -1.
<mgrwt>
<rscale>  2 0.20194390E+03</rscale>
<asrwt>0</asrwt>
<pdfrwt beam="1">  1       21 0.13055180E-01 0.20194390E+03</pdfrwt>
<pdfrwt beam="2">  1       21 0.75097689E-01 0.20194390E+03</pdfrwt>
<totfact> 0.79642180E+04</totfact>
</mgrwt>
</event>
<event>
 4    1  0.3902417E-001  0.3129982E+03  0.7546771E-02  0.1078918E+00
         21   -1    0    0  501  502  0.00000000000E+00  0.00000000000E+00  0.96619620832E+02  0.96619620832E+02  0.00000000000E+00 0.  1.
         21   -1    0    0  502  503 -0.00000000000E+00 -0.00000000000E+00 -0.11053124597E+04  0.11053124597E+04  0.00000000000E+00 0.  1.
          6    1    1    2  501    0  0.39068211158E+02 -0.25790021489E+03 -0.67712181944E+03  0.74596367494E+03  0.17300000000E+03 0.  1.
         -6    1    1    2    0  503 -0.39068211158E+02  0.25790021489E+03 -0.33157101939E+03  0.45596840556E+03  0.17300000000E+03 0.  1.
<mgrwt>
<rscale>  2 0.31299816E+03</rscale>
<asrwt>0</asrwt>
<pdfrwt beam="1">  1       21 0.14864558E-01 0.31299816E+03</pdfrwt>
<pdfrwt beam="2">  1       21 0.17004806E+00 0.31299816E+03</pdfrwt>
<totfact> 0.78661146E+03</totfact>
</mgrwt>
</event>
<event>
 4    1  0.3902417E-001  0.1915929E+03  0.7546771E-02  0.1157032E+00
         21   -1    0    0  503  502  0.00000000000E+00  0.00000000000E+00  0.47041803215E+03  0.47041803215E+03  0.00000000000E+00 0.  1.
         21   -1    0    0  501  503 -0.00000000000E+00 -0.00000000000E+00 -0.97488982198E+02  0.97488982198E+02  0.00000000000E+00 0.  1.
          6    1    1    2  501    0 -0.81274086105E+02 -0.13167022436E+02  0.59610936441E+02  0.20065221478E+03  0.17300000000E+03 0.  1.
         -6    1    1    2    0  502  0.81274086105E+02  0.13167022436E+02  0.31331811351E+03  0.36725479957E+03  0.17300000000E+03 0.  1.
<mgrwt>
<rscale>  2 0.19159292E+03</rscale>
<asrwt>0</asrwt>
<pdfrwt beam="1">  1       21 0.72372003E-01 0.19159292E+03</pdfrwt>
<pdfrwt beam="2">  1       21 0.14998305E-01 0.19159292E+03</pdfrwt>
<totfact> 0.67570740E+04</totfact>
</mgrwt>
</event>
<event>
 4    1  0.3902417E-001  0.2685906E+03  0.7546771E-02  0.1102089E+00
         21   -1    0    0  501  502  0.00000000000E+00  0.00000000000E+00  0.14175455883E+03  0.14175455883E+03  0.00000000000E+00 0. -1.
         21   -1    0    0  502  503 -0.00000000000E+00 -0.00000000000E+00 -0.55516617663E+03  0.55516617663E+03  0.00000000000E+00 0. -1.
          6    1    1    2  501    0  0.21430566273E+02 -0.20433462079E+03 -0.10612686089E+03  0.28879719013E+03  0.17300000000E+03 0. -1.
         -6    1    1    2    0  503 -0.21430566273E+02  0.20433462079E+03 -0.30728475691E+03  0.40812354533E+03  0.17300000000E+03 0. -1.
<mgrwt>
<rscale>  2 0.26859059E+03</rscale>
<asrwt>0</asrwt>
<pdfrwt beam="1">  1       21 0.21808393E-01 0.26859059E+03</pdfrwt>
<pdfrwt beam="2">  1       21 0.85410183E-01 0.26859059E+03</pdfrwt>
<totfact> 0.22351752E+04</totfact>
</mgrwt>
</event>
<event>
 4    1  0.3902417E-001  0.1730232E+03  0.7546771E-02  0.1174731E+00
         21   -1    0    0  503  502  0.00000000000E+00  0.00000000000E+00  0.29482007078E+04  0.29482007078E+04  0.00000000000E+00 0. -1.
         21   -1    0    0  501  503 -0.00000000000E+00 -0.00000000000E+00 -0.12699569209E+02  0.12699569209E+02  0.00000000000E+00 0. -1.
          6    1    1    2  501    0  0.21180270139E-01  0.28361810058E+01  0.80498125536E+03  0.82336617968E+03  0.17300000000E+03 0. -1.
         -6    1    1    2    0  502 -0.21180270139E-01 -0.28361810058E+01  0.21305198833E+04  0.21375340974E+04  0.17300000000E+03 0. -1.
<mgrwt>
<rscale>  2 0.17302325E+03</rscale>
<asrwt>0</asrwt>
<pdfrwt beam="1">  1       21 0.45356879E+00 0.17302325E+03</pdfrwt>
<pdfrwt beam="2">  1       21 0.19537822E-02 0.17302325E+03</pdfrwt>
<totfact> 0.51883601E+03</totfact>
</mgrwt>
</event>
<event>
 4    1  0.3902417E-001  0.1750178E+03  0.7546771E-02  0.1172714E+00
         21   -1    0    0  503  502  0.00000000000E+00  0.00000000000E+00  0.28022898472E+03  0.28022898472E+03  0.00000000000E+00 0. -1.
         21   -1    0    0  501  503 -0.00000000000E+00 -0.00000000000E+00 -0.12377305607E+03  0.12377305607E+03  0.00000000000E+00 0. -1.
          6    1    1    2  501    0 -0.22204358360E+02  0.14463928518E+02  0.91718348278E+01  0.17525798502E+03  0.17300000000E+03 0. -1.
         -6    1    1    2    0  502  0.22204358360E+02 -0.14463928518E+02  0.14728409382E+03  0.22874405577E+03  0.17300000000E+03 0. -1.
<mgrwt>
<rscale>  2 0.17501782E+03</rscale>
<asrwt>0</asrwt>
<pdfrwt beam="1">  1       21 0.43112151E-01 0.17501782E+03</pdfrwt>
<pdfrwt beam="2">  1       21 0.19042009E-01 0.17501782E+03</pdfrwt>
<totfact> 0.13164889E+05</totfact>
</mgrwt>
</event>
<event>
 4    1  0.3902417E-001  0.1739524E+03  0.7546771E-02  0.1173788E+00
         21   -1    0    0  503  502  0.00000000000E+00  0.00000000000E+00  0.29938590970E+03  0.29938590970E+03  0.00000000000E+00 0.  1.
         21   -1    0    0  501  503 -0.00000000000E+00 -0.00000000000E+00 -0.10142036170E+03  0.10142036170E+03  0.00000000000E+00 0.  1.
          6    1    1    2  501    0 -0.70734499995E+01 -0.16745155680E+02  0.87232104700E+02  0.19459926522E+03  0.17300000000E+03 0. -1.
         -6    1    1    2    0  502  0.70734499995E+01  0.16745155680E+02  0.11073344329E+03  0.20620700618E+03  0.17300000000E+03 0. -1.
<mgrwt>
<rscale>  2 0.17395239E+03</rscale>
<asrwt>0</asrwt>
<pdfrwt beam="1">  1       21 0.46059370E-01 0.17395239E+03</pdfrwt>
<pdfrwt beam="2">  1       21 0.15603133E-01 0.17395239E+03</pdfrwt>
<totfact> 0.16588142E+05</totfact>
</mgrwt>
</event>
<event>
 4    1  0.3902417E-001  0.1910072E+03  0.7546771E-02  0.1157556E+00
         21   -1    0    0  501  502  0.00000000000E+00  0.00000000000E+00  0.24578458215E+03  0.24578458215E+03  0.00000000000E+00 0.  1.
         21   -1    0    0  502  503 -0.00000000000E+00 -0.00000000000E+00 -0.14864629862E+03  0.14864629862E+03  0.00000000000E+00 0. -1.
          6    1    1    2  501    0  0.46510927247E+02  0.66268366000E+02  0.41185923032E+02  0.19539714159E+03  0.17300000000E+03 0.  1.
         -6    1    1    2    0  503 -0.46510927247E+02 -0.66268366000E+02  0.55952360498E+02  0.19903373918E+03  0.17300000000E+03 0.  1.
<mgrwt>
<rscale>  2 0.19100723E+03</rscale>
<asrwt>0</asrwt>
<pdfrwt beam="1">  1       21 0.37813013E-01 0.19100723E+03</pdfrwt>
<pdfrwt beam="2">  1       21 0.22868661E-01 0.19100723E+03</pdfrwt>
<totfact> 0.12109198E+05</totfact>
</mgrwt>
</event>
<event>
 4    1  0.3902417E-001  0.2068178E+03  0.7546771E-02  0.1144111E+00
         21   -1    0    0  503  502  0.00000000000E+00  0.00000000000E+00  0.74183857327E+03  0.74183857327E+03  0.00000000000E+00 0. -1.
         21   -1    0    0  501  503 -0.00000000000E+00 -0.00000000000E+00 -0.62621973779E+02  0.62621973779E+02  0.00000000000E+00 0. -1.
          6    1    1    2  501    0 -0.87410343136E+02 -0.72138861222E+02  0.45284507538E+03  0.49783756958E+03  0.17300000000E+03 0. -1.
         -6    1    1    2    0  502  0.87410343136E+02  0.72138861222E+02  0.22637152411E+03  0.30662297747E+03  0.17300000000E+03 0. -1.
<mgrwt>
<rscale>  2 0.20681775E+03</rscale>
<asrwt>0</asrwt>
<pdfrwt beam="1">  1       21 0.11412900E+00 0.20681775E+03</pdfrwt>
<pdfrwt beam="2">  1       21 0.96341503E-02 0.20681775E+03</pdfrwt>
<totfact> 0.51375734E+04</totfact>
</mgrwt>
</event>
<event>
 4    1  0.3902417E-001  0.2403592E+03  0.7546771E-02  0.1119554E+00
         21   -1    0    0  503  502  0.00000000000E+00  0.00000000000E+00  0.97087499502E+03  0.97087499502E+03  0.00000000000E+00 0.  1.
         21   -1    0    0  501  503 -0.00000000000E+00 -0.00000000000E+00 -0.76563035382E+02  0.76563035382E+02  0.00000000000E+00 0. -1.
          6    1    1    2  501    0  0.13466211164E+03 -0.98537578977E+02  0.19995788561E+03  0.31265907119E+03  0.17300000000E+03 0. -1.
         -6    1    1    2    0  502 -0.13466211164E+03  0.98537578977E+02  0.69435407403E+03  0.73477895921E+03  0.17300000000E+03 0.  1.
<mgrwt>
<rscale>  2 0.24035919E+03</rscale>
<asrwt>0</asrwt>
<pdfrwt beam="1">  1       21 0.14936538E+00 0.24035919E+03</pdfrwt>
<pdfrwt beam="2">  1       21 0.11778929E-01 0.24035919E+03</pdfrwt>
<totfact> 0.17787979E+04</totfact>
</mgrwt>
</event>
<event>
 4    1  0.3902417E-001  0.2562621E+03  0.7546771E-02  0.1109410E+00
         21   -1    0    0  503  502  0.00000000000E+00  0.00000000000E+00  0.74921799014E+03  0.74921799014E+03  0.00000000000E+00 0.  1.
         21   -1    0    0  501  503 -0.00000000000E+00 -0.00000000000E+00 -0.99969672471E+02  0.99969672471E+02  0.00000000000E+00 0.  1.
          6    1    1    2  501    0  0.18852404571E+03  0.14139825938E+02  0.17558215188E+03  0.31064343313E+03  0.17300000000E+03 0.  1.
         -6    1    1    2    0  502 -0.18852404571E+03 -0.14139825938E+02  0.47366616579E+03  0.53854422948E+03  0.17300000000E+03 0.  1.
<mgrwt>
<rscale>  2 0.25626207E+03</rscale>
<asrwt>0</asrwt>
<pdfrwt beam="1">  1       21 0.11526430E+00 0.25626207E+03</pdfrwt>
<pdfrwt beam="2">  1       21 0.15379950E-01 0.25626207E+03</pdfrwt>
<totfact> 0.21082916E+04</totfact>
</mgrwt>
</event>
<event>
 4    1  0.3902417E-001  0.2031293E+03  0.7546771E-02  0.1147125E+00
         21   -1    0    0  501  502  0.00000000000E+00  0.00000000000E+00  0.14320763903E+03  0.14320763903E+03  0.00000000000E+00 0. -1.
         21   -1    0    0  502  503 -0.00000000000E+00 -0.00000000000E+00 -0.29057860694E+03  0.29057860694E+03  0.00000000000E+00 0.  1.
          6    1    1    2  501    0  0.83865361778E+02  0.65567523274E+02 -0.53749336076E+02  0.21012018024E+03  0.17300000000E+03 0. -1.
         -6    1    1    2    0  503 -0.83865361778E+02 -0.65567523274E+02 -0.93621631829E+02  0.22366606573E+03  0.17300000000E+03 0.  1.
<mgrwt>
<rscale>  2 0.20312927E+03</rscale>
<asrwt>0</asrwt>
<pdfrwt beam="1">  1       21 0.22031944E-01 0.20312927E+03</pdfrwt>
<pdfrwt beam="2">  1       21 0.44704401E-01 0.20312927E+03</pdfrwt>
<totfact> 0.92063092E+04</totfact>
</mgrwt>
</event>
<event>
 4    1  0.3902417E-001  0.1730521E+03  0.7546771E-02  0.1174702E+00
         21   -1    0    0  501  502  0.00000000000E+00  0.00000000000E+00  0.26356976496E+03  0.26356976496E+03  0.00000000000E+00 0. -1.
         21   -1    0    0  502  503 -0.00000000000E+00 -0.00000000000E+00 -0.16105724355E+03  0.16105724355E+03  0.00000000000E+00 0. -1.
          6    1    1    2  501    0 -0.96478137988E-01 -0.42432439640E+01 -0.63967866906E+02  0.18449634800E+03  0.17300000000E+03 0. -1.
         -6    1    1    2    0  503  0.96478137988E-01  0.42432439640E+01  0.16648038831E+03  0.24013066052E+03  0.17300000000E+03 0. -1.
<mgrwt>
<rscale>  2 0.17305206E+03</rscale>
<asrwt>0</asrwt>
<pdfrwt beam="1">  1       21 0.40549194E-01 0.17305206E+03</pdfrwt>
<pdfrwt beam="2">  1       21 0.24778038E-01 0.17305206E+03</pdfrwt>
<totfact> 0.90979350E+04</totfact>
</mgrwt>
</event>
<event>
 4    1  0.3902417E-001  0.1820122E+03  0.7546771E-02  0.1165870E+00
         21   -1    0    0  501  502  0.00000000000E+00  0.00000000000E+00  0.55663000195E+02  0.55663000195E+02  0.00000000000E+00 0.  1.
         21   -1    0    0  502  503 -0.00000000000E+00 -0.00000000000E+00 -0.60320799614E+03  0.60320799614E+03  0.00000000000E+00 0. -1.
          6    1    1    2  501    0  0.27467700515E+02  0.49446708699E+02 -0.31182221759E+03  0.36105615485E+03  0.17300000000E+03 0. -1.
         -6    1    1    2    0  503 -0.27467700515E+02 -0.49446708699E+02 -0.23572277836E+03  0.29781484148E+03  0.17300000000E+03 0. -1.
<mgrwt>
<rscale>  2 0.18201223E+03</rscale>
<asrwt>0</asrwt>
<pdfrwt beam="1">  1       21 0.85635385E-02 0.18201223E+03</pdfrwt>
<pdfrwt beam="2">  1       21 0.92801231E-01 0.18201223E+03</pdfrwt>
<totfact> 0.10470793E+05</totfact>
</mgrwt>
</event>
<event>
 4    1  0.3902417E-001  0.2088729E+03  0.7546771E-02  0.1142462E+00
         21   -1    0    0  501  502  0.00000000000E+00  0.00000000000E+00  0.35391801100E+03  0.35391801100E+03  0.00000000000E+00 0. -1.
         21   -1    0    0  502  503 -0.00000000000E+00 -0.00000000000E+00 -0.12815412637E+03  0.12815412637E+03  0.00000000000E+00 0.  1.
          6    1    1    2  501    0  0.17299255448E+02  0.11575674609E+03  0.15993165856E+03  0.26307037825E+03  0.17300000000E+03 0. -1.
         -6    1    1    2    0  503 -0.17299255448E+02 -0.11575674609E+03  0.65832226071E+02  0.21900175911E+03  0.17300000000E+03 0.  1.
<mgrwt>
<rscale>  2 0.20887290E+03</rscale>
<asrwt>0</asrwt>
<pdfrwt beam="1">  1       21 0.54448925E-01 0.20887290E+03</pdfrwt>
<pdfrwt beam="2">  1       21 0.19716020E-01 0.20887290E+03</pdfrwt>
<totfact> 0.75004625E+04</totfact>
</mgrwt>
</event>
<event>
 4    1  0.3902417E-001  0.2850947E+03  0.7546771E-02  0.1092938E+00
         21   -1    0    0  503  502  0.00000000000E+00  0.00000000000E+00  0.14908673925E+03  0.14908673925E+03  0.00000000000E+00 0.  1.
         21   -1    0    0  501  503 -0.00000000000E+00 -0.00000000000E+00 -0.56434480165E+03  0.56434480165E+03  0.00000000000E+00 0.  1.
          6    1    1    2  501    0 -0.34217870433E+02  0.22400693361E+03 -0.14189158704E+03  0.31845280880E+03  0.17300000000E+03 0.  1.
         -6    1    1    2    0  502  0.34217870433E+02 -0.22400693361E+03 -0.27336647536E+03  0.39497873210E+03  0.17300000000E+03 0.  1.
<mgrwt>
<rscale>  2 0.28509467E+03</rscale>
<asrwt>0</asrwt>
<pdfrwt beam="1">  1       21 0.22936421E-01 0.28509467E+03</pdfrwt>
<pdfrwt beam="2">  1       21 0.86822277E-01 0.28509467E+03</pdfrwt>
<totfact> 0.19407251E+04</totfact>
</mgrwt>
</event>
<event>
 4    1  0.3902417E-001  0.1982075E+03  0.7546771E-02  0.1151260E+00
         21   -1    0    0  503  502  0.00000000000E+00  0.00000000000E+00  0.44997647901E+02  0.44997647901E+02  0.00000000000E+00 0. -1.
         21   -1    0    0  501  503 -0.00000000000E+00 -0.00000000000E+00 -0.14349235272E+04  0.14349235272E+04  0.00000000000E+00 0. -1.
          6    1    1    2  501    0 -0.47726461526E+02  0.84139136942E+02 -0.11579883179E+04  0.11748289892E+04  0.17300000000E+03 0. -1.
         -6    1    1    2    0  502  0.47726461526E+02 -0.84139136942E+02 -0.23193756134E+03  0.30509218583E+03  0.17300000000E+03 0. -1.
<mgrwt>
<rscale>  2 0.19820749E+03</rscale>
<asrwt>0</asrwt>
<pdfrwt beam="1">  1       21 0.69227154E-02 0.19820749E+03</pdfrwt>
<pdfrwt beam="2">  1       21 0.22075745E+00 0.19820749E+03</pdfrwt>
<totfact> 0.15275437E+04</totfact>
</mgrwt>
</event>
<event>
 4    1  0.3902417E-001  0.2041150E+03  0.7546771E-02  0.1146313E+00
         21   -1    0    0  501  502  0.00000000000E+00  0.00000000000E+00  0.33240483211E+02  0.33240483211E+02  0.00000000000E+00 0. -1.
         21   -1    0    0  502  503 -0.00000000000E+00 -0.00000000000E+00 -0.14626514676E+04  0.14626514676E+04  0.00000000000E+00 0.  1.
          6    1    1    2  501    0 -0.10193746722E+03 -0.36642957056E+02 -0.43179118039E+03  0.47760504288E+03  0.17300000000E+03 0. -1.
         -6    1    1    2    0  503  0.10193746722E+03  0.36642957056E+02 -0.99761980399E+03  0.10182869079E+04  0.17300000000E+03 0.  1.
<mgrwt>
<rscale>  2 0.20411505E+03</rscale>
<asrwt>0</asrwt>
<pdfrwt beam="1">  1       21 0.51139188E-02 0.20411505E+03</pdfrwt>
<pdfrwt beam="2">  1       21 0.22502338E+00 0.20411505E+03</pdfrwt>
<totfact> 0.24051304E+04</totfact>
</mgrwt>
</event>
<event>
 4    1  0.3902417E-001  0.1808795E+03  0.7546771E-02  0.1166955E+00
         21   -1    0    0  501  502  0.00000000000E+00  0.00000000000E+00  0.13132313756E+04  0.13132313756E+04  0.00000000000E+00 0.  1.
         21   -1    0    0  502  503 -0.00000000000E+00 -0.00000000000E+00 -0.34840241683E+02  0.34840241683E+02  0.00000000000E+00 0.  1.
          6    1    1    2  501    0  0.85119449606E+01  0.52114776799E+02  0.99897985811E+03  0.10152232070E+04  0.17300000000E+03 0.  1.
         -6    1    1    2    0  503 -0.85119449606E+01 -0.52114776799E+02  0.27941127584E+03  0.33284841029E+03  0.17300000000E+03 0.  1.
<mgrwt>
<rscale>  2 0.18087953E+03</rscale>
<asrwt>0</asrwt>
<pdfrwt beam="1">  1       21 0.20203556E+00 0.18087953E+03</pdfrwt>
<pdfrwt beam="2">  1       21 0.53600382E-02 0.18087953E+03</pdfrwt>
<totfact> 0.31410337E+04</totfact>
</mgrwt>
</event>
<event>
 4    1  0.3902417E-001  0.1897542E+03  0.7546771E-02  0.1158683E+00
         21   -1    0    0  501  502  0.00000000000E+00  0.00000000000E+00  0.44835663701E+02  0.44835663701E+02  0.00000000000E+00 0. -1.
         21   -1    0    0  502  503 -0.00000000000E+00 -0.00000000000E+00 -0.14028061567E+04  0.14028061567E+04  0.00000000000E+00 0. -1.
          6    1    1    2  501    0  0.64582661638E+02 -0.43665995914E+02 -0.20571557867E+03  0.27986700179E+03  0.17300000000E+03 0. -1.
         -6    1    1    2    0  503 -0.64582661638E+02  0.43665995914E+02 -0.11522549143E+04  0.11677748186E+04  0.17300000000E+03 0. -1.
<mgrwt>
<rscale>  2 0.18975416E+03</rscale>
<asrwt>0</asrwt>
<pdfrwt beam="1">  1       21 0.68977941E-02 0.18975416E+03</pdfrwt>
<pdfrwt beam="2">  1       21 0.21581634E+00 0.18975416E+03</pdfrwt>
<totfact> 0.16602592E+04</totfact>
</mgrwt>
</event>
<event>
 4    1  0.3902417E-001  0.1766857E+03  0.7546771E-02  0.1171050E+00
         21   -1    0    0  501  502  0.00000000000E+00  0.00000000000E+00  0.68396503023E+03  0.68396503023E+03  0.00000000000E+00 0.  1.
         21   -1    0    0  502  503 -0.00000000000E+00 -0.00000000000E+00 -0.51506035821E+02  0.51506035821E+02  0.00000000000E+00 0.  1.
          6    1    1    2  501    0  0.66691896267E+01  0.35275307457E+02  0.19215316409E+03  0.26103766754E+03  0.17300000000E+03 0. -1.
         -6    1    1    2    0  503 -0.66691896267E+01 -0.35275307457E+02  0.44030583032E+03  0.47443339851E+03  0.17300000000E+03 0. -1.
<mgrwt>
<rscale>  2 0.17668567E+03</rscale>
<asrwt>0</asrwt>
<pdfrwt beam="1">  1       21 0.10522538E+00 0.17668567E+03</pdfrwt>
<pdfrwt beam="2">  1       21 0.79240060E-02 0.17668567E+03</pdfrwt>
<totfact> 0.89301704E+04</totfact>
</mgrwt>
</event>
<event>
 4    1  0.3902417E-001  0.1870304E+03  0.7546771E-02  0.1161167E+00
         21   -1    0    0  503  502  0.00000000000E+00  0.00000000000E+00  0.42677371490E+03  0.42677371490E+03  0.00000000000E+00 0. -1.
         21   -1    0    0  501  503 -0.00000000000E+00 -0.00000000000E+00 -0.10346183297E+03  0.10346183297E+03  0.00000000000E+00 0. -1.
          6    1    1    2  501    0  0.70658426933E+02  0.76655069891E+01  0.40808021220E+02  0.19143058243E+03  0.17300000000E+03 0. -1.
         -6    1    1    2    0  502 -0.70658426933E+02 -0.76655069891E+01  0.28250386071E+03  0.33880496544E+03  0.17300000000E+03 0. -1.
<mgrwt>
<rscale>  2 0.18703041E+03</rscale>
<asrwt>0</asrwt>
<pdfrwt beam="1">  1       21 0.65657494E-01 0.18703041E+03</pdfrwt>
<pdfrwt beam="2">  1       21 0.15917205E-01 0.18703041E+03</pdfrwt>
<totfact> 0.75234153E+04</totfact>
</mgrwt>
</event>
<event>
 4    1  0.3902417E-001  0.1982815E+03  0.7546771E-02  0.1151197E+00
         21   -1    0    0  501  502  0.00000000000E+00  0.00000000000E+00  0.48427431699E+03  0.48427431699E+03  0.00000000000E+00 0. -1.
         21   -1    0    0  502  503 -0.00000000000E+00 -0.00000000000E+00 -0.81254013088E+02  0.81254013088E+02  0.00000000000E+00 0.  1.
          6    1    1    2  501    0  0.11709494353E+02 -0.96174012927E+02  0.19323771033E+03  0.27686886014E+03  0.17300000000E+03 0. -1.
         -6    1    1    2    0  503 -0.11709494353E+02  0.96174012927E+02  0.20978259357E+03  0.28865946994E+03  0.17300000000E+03 0. -1.
<mgrwt>
<rscale>  2 0.19828150E+03</rscale>
<asrwt>0</asrwt>
<pdfrwt beam="1">  1       21 0.74503740E-01 0.19828150E+03</pdfrwt>
<pdfrwt beam="2">  1       21 0.12500618E-01 0.19828150E+03</pdfrwt>
<totfact> 0.87793555E+04</totfact>
</mgrwt>
</event>
<event>
 4    1  0.3902417E-001  0.2004324E+03  0.7546771E-02  0.1149375E+00
         21   -1    0    0  501  502  0.00000000000E+00  0.00000000000E+00  0.30200837612E+03  0.30200837612E+03  0.00000000000E+00 0. -1.
         21   -1    0    0  502  503 -0.00000000000E+00 -0.00000000000E+00 -0.13889544978E+03  0.13889544978E+03  0.00000000000E+00 0. -1.
          6    1    1    2  501    0 -0.99212828408E+02 -0.20024242823E+02  0.36215551636E+02  0.20367798556E+03  0.17300000000E+03 0. -1.
         -6    1    1    2    0  503  0.99212828408E+02  0.20024242823E+02  0.12689737470E+03  0.23722584035E+03  0.17300000000E+03 0. -1.
<mgrwt>
<rscale>  2 0.20043242E+03</rscale>
<asrwt>0</asrwt>
<pdfrwt beam="1">  1       21 0.46462827E-01 0.20043242E+03</pdfrwt>
<pdfrwt beam="2">  1       21 0.21368531E-01 0.20043242E+03</pdfrwt>
<totfact> 0.90174657E+04</totfact>
</mgrwt>
</event>
<event>
 4    1  0.3902417E-001  0.2088317E+03  0.7546771E-02  0.1142495E+00
         21   -1    0    0  503  502  0.00000000000E+00  0.00000000000E+00  0.43252592398E+02  0.43252592398E+02  0.00000000000E+00 0. -1.
         21   -1    0    0  501  503 -0.00000000000E+00 -0.00000000000E+00 -0.10596521471E+04  0.10596521471E+04  0.00000000000E+00 0. -1.
          6    1    1    2  501    0  0.61158919376E+02  0.99705878965E+02 -0.62962108615E+03  0.66335012463E+03  0.17300000000E+03 0. -1.
         -6    1    1    2    0  502 -0.61158919376E+02 -0.99705878965E+02 -0.38677846857E+03  0.43955461489E+03  0.17300000000E+03 0. -1.
<mgrwt>
<rscale>  2 0.20883169E+03</rscale>
<asrwt>0</asrwt>
<pdfrwt beam="1">  1       21 0.66542445E-02 0.20883169E+03</pdfrwt>
<pdfrwt beam="2">  1       21 0.16302342E+00 0.20883169E+03</pdfrwt>
<totfact> 0.39108760E+04</totfact>
</mgrwt>
</event>
<event>
 4    1  0.3902417E-001  0.2244988E+03  0.7546771E-02  0.1130573E+00
         21   -1    0    0  501  502  0.00000000000E+00  0.00000000000E+00  0.34720130582E+03  0.34720130582E+03  0.00000000000E+00 0. -1.
         21   -1    0    0  502  503 -0.00000000000E+00 -0.00000000000E+00 -0.27311520874E+03  0.27311520874E+03  0.00000000000E+00 0.  1.
          6    1    1    2  501    0 -0.14283354904E+03 -0.83238644708E+01  0.24933794163E+03  0.33551321671E+03  0.17300000000E+03 0. -1.
         -6    1    1    2    0  503  0.14283354904E+03  0.83238644708E+01 -0.17525184455E+03  0.28480329786E+03  0.17300000000E+03 0.  1.
<mgrwt>
<rscale>  2 0.22449880E+03</rscale>
<asrwt>0</asrwt>
<pdfrwt beam="1">  1       21 0.53415586E-01 0.22449880E+03</pdfrwt>
<pdfrwt beam="2">  1       21 0.42017724E-01 0.22449880E+03</pdfrwt>
<totfact> 0.17749255E+04</totfact>
</mgrwt>
</event>
<event>
 4    1  0.3902417E-001  0.1825743E+03  0.7546771E-02  0.1165335E+00
         21   -1    0    0  503  502  0.00000000000E+00  0.00000000000E+00  0.40793599862E+03  0.40793599862E+03  0.00000000000E+00 0. -1.
         21   -1    0    0  501  503 -0.00000000000E+00 -0.00000000000E+00 -0.21159382622E+03  0.21159382622E+03  0.00000000000E+00 0.  1.
          6    1    1    2  501    0 -0.37044633479E+02  0.45078308096E+02 -0.14452040015E+03  0.23285082089E+03  0.17300000000E+03 0.  1.
         -6    1    1    2    0  502  0.37044633479E+02 -0.45078308096E+02  0.34086257255E+03  0.38667900395E+03  0.17300000000E+03 0. -1.
<mgrwt>
<rscale>  2 0.18257426E+03</rscale>
<asrwt>0</asrwt>
<pdfrwt beam="1">  1       21 0.62759384E-01 0.18257426E+03</pdfrwt>
<pdfrwt beam="2">  1       21 0.32552896E-01 0.18257426E+03</pdfrwt>
<totfact> 0.21484563E+04</totfact>
</mgrwt>
</event>
<event>
 4    1  0.3902417E-001  0.1842013E+03  0.7546771E-02  0.1163798E+00
         21   -1    0    0  501  502  0.00000000000E+00  0.00000000000E+00  0.24268025474E+03  0.24268025474E+03  0.00000000000E+00 0.  1.
         21   -1    0    0  502  503 -0.00000000000E+00 -0.00000000000E+00 -0.17183649176E+03  0.17183649176E+03  0.00000000000E+00 0.  1.
          6    1    1    2  501    0 -0.44003435719E+02  0.45440166870E+02  0.12489273016E+03  0.22254955666E+03  0.17300000000E+03 0.  1.
         -6    1    1    2    0  503  0.44003435719E+02 -0.45440166870E+02 -0.54048967190E+02  0.19196718984E+03  0.17300000000E+03 0.  1.
<mgrwt>
<rscale>  2 0.18420128E+03</rscale>
<asrwt>0</asrwt>
<pdfrwt beam="1">  1       21 0.37335424E-01 0.18420128E+03</pdfrwt>
<pdfrwt beam="2">  1       21 0.26436383E-01 0.18420128E+03</pdfrwt>
<totfact> 0.94471428E+04</totfact>
</mgrwt>
</event>
<event>
 4    1  0.3902417E-001  0.1926870E+03  0.7546771E-02  0.1156060E+00
         21   -1    0    0  503  502  0.00000000000E+00  0.00000000000E+00  0.18617526990E+03  0.18617526990E+03  0.00000000000E+00 0. -1.
         21   -1    0    0  501  503 -0.00000000000E+00 -0.00000000000E+00 -0.27873024557E+03  0.27873024557E+03  0.00000000000E+00 0.  1.
          6    1    1    2  501    0  0.43112191313E+02  0.73079612386E+02 -0.17026826486E+03  0.25713726452E+03  0.17300000000E+03 0.  1.
         -6    1    1    2    0  502 -0.43112191313E+02 -0.73079612386E+02  0.77713289192E+02  0.20776825095E+03  0.17300000000E+03 0. -1.
<mgrwt>
<rscale>  2 0.19268703E+03</rscale>
<asrwt>0</asrwt>
<pdfrwt beam="1">  1       21 0.28642349E-01 0.19268703E+03</pdfrwt>
<pdfrwt beam="2">  1       21 0.42881576E-01 0.19268703E+03</pdfrwt>
<totfact> 0.60986998E+04</totfact>
</mgrwt>
</event>
<event>
 4    1  0.3902417E-001  0.1858082E+03  0.7546771E-02  0.1162297E+00
         21   -1    0    0  503  502  0.00000000000E+00  0.00000000000E+00  0.70443614411E+03  0.70443614411E+03  0.00000000000E+00 0. -1.
         21   -1    0    0  501  503 -0.00000000000E+00 -0.00000000000E+00 -0.52845994155E+02  0.52845994155E+02  0.00000000000E+00 0. -1.
          6    1    1    2  501    0  0.84278098733E+01 -0.67265623576E+02  0.22378609246E+03  0.29086922710E+03  0.17300000000E+03 0. -1.
         -6    1    1    2    0  502 -0.84278098733E+01  0.67265623576E+02  0.42780405749E+03  0.46641291116E+03  0.17300000000E+03 0. -1.
<mgrwt>
<rscale>  2 0.18580821E+03</rscale>
<asrwt>0</asrwt>
<pdfrwt beam="1">  1       21 0.10837478E+00 0.18580821E+03</pdfrwt>
<pdfrwt beam="2">  1       21 0.81301535E-02 0.18580821E+03</pdfrwt>
<totfact> 0.79235176E+04</totfact>
</mgrwt>
</event>
<event>
 4    1  0.3902417E-001  0.2309631E+03  0.7546771E-02  0.1125964E+00
         21   -1    0    0  501  502  0.00000000000E+00  0.00000000000E+00  0.19087758293E+03  0.19087758293E+03  0.00000000000E+00 0.  1.
         21   -1    0    0  502  503 -0.00000000000E+00 -0.00000000000E+00 -0.29583996716E+03  0.29583996716E+03  0.00000000000E+00 0.  1.
          6    1    1    2  501    0 -0.13799085670E+03 -0.66132215408E+02 -0.10973244489E+03  0.25570521291E+03  0.17300000000E+03 0.  1.
         -6    1    1    2    0  503  0.13799085670E+03  0.66132215408E+02  0.47700606641E+01  0.23101233718E+03  0.17300000000E+03 0.  1.
<mgrwt>
<rscale>  2 0.23096308E+03</rscale>
<asrwt>0</asrwt>
<pdfrwt beam="1">  1       21 0.29365782E-01 0.23096308E+03</pdfrwt>
<pdfrwt beam="2">  1       21 0.45513841E-01 0.23096308E+03</pdfrwt>
<totfact> 0.50524789E+04</totfact>
</mgrwt>
</event>
<event>
 4    1  0.3902417E-001  0.1874834E+03  0.7546771E-02  0.1160751E+00
         21   -1    0    0  503  502  0.00000000000E+00  0.00000000000E+00  0.36446471912E+03  0.36446471912E+03  0.00000000000E+00 0.  1.
         21   -1    0    0  501  503 -0.00000000000E+00 -0.00000000000E+00 -0.13703538687E+03  0.13703538687E+03  0.00000000000E+00 0.  1.
          6    1    1    2  501    0 -0.71526488316E+02 -0.10245957942E+02 -0.22758647556E+02  0.18885966807E+03  0.17300000000E+03 0. -1.
         -6    1    1    2    0  502  0.71526488316E+02  0.10245957942E+02  0.25018797981E+03  0.31264043792E+03  0.17300000000E+03 0. -1.
<mgrwt>
<rscale>  2 0.18748338E+03</rscale>
<asrwt>0</asrwt>
<pdfrwt beam="1">  1       21 0.56071495E-01 0.18748338E+03</pdfrwt>
<pdfrwt beam="2">  1       21 0.21082367E-01 0.18748338E+03</pdfrwt>
<totfact> 0.62763807E+04</totfact>
</mgrwt>
</event>
<event>
 4    1  0.3902417E-001  0.2443593E+03  0.7546771E-02  0.1116922E+00
         21   -1    0    0  501  502  0.00000000000E+00  0.00000000000E+00  0.70400569323E+02  0.70400569323E+02  0.00000000000E+00 0.  1.
         21   -1    0    0  502  503 -0.00000000000E+00 -0.00000000000E+00 -0.86315950131E+03  0.86315950131E+03  0.00000000000E+00 0. -1.
          6    1    1    2  501    0 -0.17224974787E+03 -0.10606860319E+02 -0.33486244934E+03  0.41454112113E+03  0.17300000000E+03 0.  1.
         -6    1    1    2    0  503  0.17224974787E+03  0.10606860319E+02 -0.45789648264E+03  0.51901894950E+03  0.17300000000E+03 0. -1.
<mgrwt>
<rscale>  2 0.24435933E+03</rscale>
<asrwt>0</asrwt>
<pdfrwt beam="1">  1       21 0.10830858E-01 0.24435933E+03</pdfrwt>
<pdfrwt beam="2">  1       21 0.13279376E+00 0.24435933E+03</pdfrwt>
<totfact> 0.28027977E+04</totfact>
</mgrwt>
</event>
<event>
 4    1  0.3902417E-001  0.1766260E+03  0.7546771E-02  0.1171109E+00
         21   -1    0    0  503  502  0.00000000000E+00  0.00000000000E+00  0.82077704187E+03  0.82077704187E+03  0.00000000000E+00 0. -1.
         21   -1    0    0  501  503 -0.00000000000E+00 -0.00000000000E+00 -0.38136381596E+02  0.38136381596E+02  0.00000000000E+00 0. -1.
          6    1    1    2  501    0  0.30049980151E+02 -0.19098090050E+02  0.41616130946E+03  0.45209177591E+03  0.17300000000E+03 0. -1.
         -6    1    1    2    0  502 -0.30049980151E+02  0.19098090050E+02  0.36647935081E+03  0.40682164756E+03  0.17300000000E+03 0. -1.
<mgrwt>
<rscale>  2 0.17662598E+03</rscale>
<asrwt>0</asrwt>
<pdfrwt beam="1">  1       21 0.12627338E+00 0.17662598E+03</pdfrwt>
<pdfrwt beam="2">  1       21 0.58671362E-02 0.17662598E+03</pdfrwt>
<totfact> 0.95969565E+04</totfact>
</mgrwt>
</event>
<event>
 4    1  0.3902417E-001  0.2036795E+03  0.7546771E-02  0.1146671E+00
         21   -1    0    0  501  502  0.00000000000E+00  0.00000000000E+00  0.11267530754E+03  0.11267530754E+03  0.00000000000E+00 0.  1.
         21   -1    0    0  502  503 -0.00000000000E+00 -0.00000000000E+00 -0.37513765048E+03  0.37513765048E+03  0.00000000000E+00 0.  1.
          6    1    1    2  501    0 -0.99266241642E+02 -0.41262161181E+02 -0.98026077472E+02  0.22604084706E+03  0.17300000000E+03 0.  1.
         -6    1    1    2    0  503  0.99266241642E+02  0.41262161181E+02 -0.16443626547E+03  0.26177211096E+03  0.17300000000E+03 0.  1.
<mgrwt>
<rscale>  2 0.20367953E+03</rscale>
<asrwt>0</asrwt>
<pdfrwt beam="1">  1       21 0.17334663E-01 0.20367953E+03</pdfrwt>
<pdfrwt beam="2">  1       21 0.57713485E-01 0.20367953E+03</pdfrwt>
<totfact> 0.84351385E+04</totfact>
</mgrwt>
</event>
<event>
 4    1  0.3902417E-001  0.1783271E+03  0.7546771E-02  0.1169432E+00
         21   -1    0    0  503  502  0.00000000000E+00  0.00000000000E+00  0.74966507630E+02  0.74966507630E+02  0.00000000000E+00 0. -1.
         21   -1    0    0  501  503 -0.00000000000E+00 -0.00000000000E+00 -0.48253834041E+03  0.48253834041E+03  0.00000000000E+00 0. -1.
          6    1    1    2  501    0  0.42872870411E+02 -0.57845470397E+01 -0.30071232351E+03  0.34961184978E+03  0.17300000000E+03 0. -1.
         -6    1    1    2    0  502 -0.42872870411E+02  0.57845470397E+01 -0.10685950928E+03  0.20789299826E+03  0.17300000000E+03 0. -1.
<mgrwt>
<rscale>  2 0.17832707E+03</rscale>
<asrwt>0</asrwt>
<pdfrwt beam="1">  1       21 0.11533309E-01 0.17832707E+03</pdfrwt>
<pdfrwt beam="2">  1       21 0.74236669E-01 0.17832707E+03</pdfrwt>
<totfact> 0.10303390E+05</totfact>
</mgrwt>
</event>
<event>
 4    1  0.3902417E-001  0.2217250E+03  0.7546771E-02  0.1132603E+00
         21   -1    0    0  503  502  0.00000000000E+00  0.00000000000E+00  0.71817440611E+03  0.71817440611E+03  0.00000000000E+00 0. -1.
         21   -1    0    0  501  503 -0.00000000000E+00 -0.00000000000E+00 -0.73158833570E+02  0.73158833570E+02  0.00000000000E+00 0.  1.
          6    1    1    2  501    0  0.12837507856E+03  0.52467477183E+02  0.22217043740E+03  0.31388166594E+03  0.17300000000E+03 0.  1.
         -6    1    1    2    0  502 -0.12837507856E+03 -0.52467477183E+02  0.42284513513E+03  0.47745157374E+03  0.17300000000E+03 0. -1.
<mgrwt>
<rscale>  2 0.22172505E+03</rscale>
<asrwt>0</asrwt>
<pdfrwt beam="1">  1       21 0.11048837E+00 0.22172505E+03</pdfrwt>
<pdfrwt beam="2">  1       21 0.11255206E-01 0.22172505E+03</pdfrwt>
<totfact> 0.41866585E+04</totfact>
</mgrwt>
</event>
<event>
 4    1  0.3902417E-001  0.1782037E+03  0.7546771E-02  0.1169553E+00
         21   -1    0    0  503  502  0.00000000000E+00  0.00000000000E+00  0.11662048673E+03  0.11662048673E+03  0.00000000000E+00 0. -1.
         21   -1    0    0  501  503 -0.00000000000E+00 -0.00000000000E+00 -0.27349331957E+03  0.27349331957E+03  0.00000000000E+00 0. -1.
          6    1    1    2  501    0 -0.20607982929E+02  0.37455099723E+02 -0.65589732279E+02  0.18989098566E+03  0.17300000000E+03 0. -1.
         -6    1    1    2    0  502  0.20607982929E+02 -0.37455099723E+02 -0.91283100557E+02  0.20022282063E+03  0.17300000000E+03 0. -1.
<mgrwt>
<rscale>  2 0.17820374E+03</rscale>
<asrwt>0</asrwt>
<pdfrwt beam="1">  1       21 0.17941614E-01 0.17820374E+03</pdfrwt>
<pdfrwt beam="2">  1       21 0.42075895E-01 0.17820374E+03</pdfrwt>
<totfact> 0.15425707E+05</totfact>
</mgrwt>
</event>
<event>
 4    1  0.3902417E-001  0.1903474E+03  0.7546771E-02  0.1158148E+00
         21   -1    0    0  503  502  0.00000000000E+00  0.00000000000E+00  0.12204762536E+03  0.12204762536E+03  0.00000000000E+00 0. -1.
         21   -1    0    0  501  503 -0.00000000000E+00 -0.00000000000E+00 -0.45776520099E+03  0.45776520099E+03  0.00000000000E+00 0. -1.
          6    1    1    2  501    0  0.28703934676E+02 -0.74021753133E+02 -0.33973254034E+03  0.38942307940E+03  0.17300000000E+03 0. -1.
         -6    1    1    2    0  502 -0.28703934676E+02  0.74021753133E+02  0.40149647151E+01  0.19038974695E+03  0.17300000000E+03 0. -1.
<mgrwt>
<rscale>  2 0.19034741E+03</rscale>
<asrwt>0</asrwt>
<pdfrwt beam="1">  1       21 0.18776558E-01 0.19034741E+03</pdfrwt>
<pdfrwt beam="2">  1       21 0.70425416E-01 0.19034741E+03</pdfrwt>
<totfact> 0.47522119E+04</totfact>
</mgrwt>
</event>
<event>
 4    1  0.3902417E-001  0.1856815E+03  0.7546771E-02  0.1162415E+00
         21   -1    0    0  503  502  0.00000000000E+00  0.00000000000E+00  0.83923390470E+02  0.83923390470E+02  0.00000000000E+00 0. -1.
         21   -1    0    0  501  503 -0.00000000000E+00 -0.00000000000E+00 -0.48157414854E+03  0.48157414854E+03  0.00000000000E+00 0. -1.
          6    1    1    2  501    0  0.49350109834E+02 -0.45969551045E+02 -0.30720230835E+03  0.35895806332E+03  0.17300000000E+03 0. -1.
         -6    1    1    2    0  502 -0.49350109834E+02  0.45969551045E+02 -0.90448449722E+02  0.20653947570E+03  0.17300000000E+03 0. -1.
<mgrwt>
<rscale>  2 0.18568154E+03</rscale>
<asrwt>0</asrwt>
<pdfrwt beam="1">  1       21 0.12911291E-01 0.18568154E+03</pdfrwt>
<pdfrwt beam="2">  1       21 0.74088331E-01 0.18568154E+03</pdfrwt>
<totfact> 0.84322797E+04</totfact>
</mgrwt>
</event>
<event>
 4    1  0.3902417E-001  0.1739161E+03  0.7546771E-02  0.1173824E+00
         21   -1    0    0  501  502  0.00000000000E+00  0.00000000000E+00  0.55668442450E+02  0.55668442450E+02  0.00000000000E+00 0. -1.
         21   -1    0    0  502  503 -0.00000000000E+00 -0.00000000000E+00 -0.57246917431E+03  0.57246917431E+03  0.00000000000E+00 0. -1.
          6    1    1    2  501    0  0.75011705974E+01 -0.16172079994E+02 -0.32924787679E+03  0.37235865520E+03  0.17300000000E+03 0. -1.
         -6    1    1    2    0  503 -0.75011705974E+01  0.16172079994E+02 -0.18755285507E+03  0.25577896156E+03  0.17300000000E+03 0. -1.
<mgrwt>
<rscale>  2 0.17391608E+03</rscale>
<asrwt>0</asrwt>
<pdfrwt beam="1">  1       21 0.85643752E-02 0.17391608E+03</pdfrwt>
<pdfrwt beam="2">  1       21 0.88072187E-01 0.17391608E+03</pdfrwt>
<totfact> 0.11852529E+05</totfact>
</mgrwt>
</event>
<event>
 4    1  0.3902417E-001  0.1873503E+03  0.7546771E-02  0.1160873E+00
         21   -1    0    0  501  502  0.00000000000E+00  0.00000000000E+00  0.31589945311E+02  0.31589945311E+02  0.00000000000E+00 0.  1.
         21   -1    0    0  502  503 -0.00000000000E+00 -0.00000000000E+00 -0.11144437437E+04  0.11144437437E+04  0.00000000000E+00 0. -1.
          6    1    1    2  501    0 -0.29786154734E+01 -0.71848785549E+02 -0.51011866446E+03  0.54343460689E+03  0.17300000000E+03 0.  1.
         -6    1    1    2    0  503  0.29786154734E+01  0.71848785549E+02 -0.57273513388E+03  0.60259908208E+03  0.17300000000E+03 0. -1.
<mgrwt>
<rscale>  2 0.18735026E+03</rscale>
<asrwt>0</asrwt>
<pdfrwt beam="1">  1       21 0.48599914E-02 0.18735026E+03</pdfrwt>
<pdfrwt beam="2">  1       21 0.17145289E+00 0.18735026E+03</pdfrwt>
<totfact> 0.59010090E+04</totfact>
</mgrwt>
</event>
<event>
 4    1  0.3902417E-001  0.1930057E+03  0.7546771E-02  0.1155778E+00
         21   -1    0    0  501  502  0.00000000000E+00  0.00000000000E+00  0.63392108246E+03  0.63392108246E+03  0.00000000000E+00 0. -1.
         21   -1    0    0  502  503 -0.00000000000E+00 -0.00000000000E+00 -0.64138095533E+02  0.64138095533E+02  0.00000000000E+00 0.  1.
          6    1    1    2  501    0 -0.85202441875E+02 -0.79202852759E+01  0.38593119506E+03  0.43150211394E+03  0.17300000000E+03 0. -1.
         -6    1    1    2    0  503  0.85202441875E+02  0.79202852759E+01  0.18385179187E+03  0.26655706405E+03  0.17300000000E+03 0.  1.
<mgrwt>
<rscale>  2 0.19300567E+03</rscale>
<asrwt>0</asrwt>
<pdfrwt beam="1">  1       21 0.97526316E-01 0.19300567E+03</pdfrwt>
<pdfrwt beam="2">  1       21 0.98673998E-02 0.19300567E+03</pdfrwt>
<totfact> 0.72355224E+04</totfact>
</mgrwt>
</event>
<event>
 4    1  0.3902417E-001  0.2037675E+03  0.7546771E-02  0.1146599E+00
         21   -1    0    0  503  502  0.00000000000E+00  0.00000000000E+00  0.88529033732E+03  0.88529033732E+03  0.00000000000E+00 0.  1.
         21   -1    0    0  501  503 -0.00000000000E+00 -0.00000000000E+00 -0.48179266079E+02  0.48179266079E+02  0.00000000000E+00 0. -1.
          6    1    1    2  501    0 -0.76154769077E+02 -0.76109361466E+02  0.34253763550E+03  0.39856394153E+03  0.17300000000E+03 0. -1.
         -6    1    1    2    0  502  0.76154769077E+02  0.76109361466E+02  0.49457343574E+03  0.53490566187E+03  0.17300000000E+03 0.  1.
<mgrwt>
<rscale>  2 0.20376747E+03</rscale>
<asrwt>0</asrwt>
<pdfrwt beam="1">  1       21 0.13619850E+00 0.20376747E+03</pdfrwt>
<pdfrwt beam="2">  1       21 0.74121954E-02 0.20376747E+03</pdfrwt>
<totfact> 0.52307080E+04</totfact>
</mgrwt>
</event>
<event>
 4    1  0.3902417E-001  0.2041822E+03  0.7546771E-02  0.1146258E+00
         21   -1    0    0  503  502  0.00000000000E+00  0.00000000000E+00  0.11398949956E+04  0.11398949956E+04  0.00000000000E+00 0. -1.
         21   -1    0    0  501  503 -0.00000000000E+00 -0.00000000000E+00 -0.36575712606E+02  0.36575712606E+02  0.00000000000E+00 0.  1.
          6    1    1    2  501    0 -0.87768457783E+02 -0.63702841050E+02  0.55585188228E+03  0.59216692678E+03  0.17300000000E+03 0. -1.
         -6    1    1    2    0  502  0.87768457783E+02  0.63702841050E+02  0.54746740067E+03  0.58430378138E+03  0.17300000000E+03 0.  1.
<mgrwt>
<rscale>  2 0.20418216E+03</rscale>
<asrwt>0</asrwt>
<pdfrwt beam="1">  1       21 0.17536843E+00 0.20418216E+03</pdfrwt>
<pdfrwt beam="2">  1       21 0.56270336E-02 0.20418216E+03</pdfrwt>
<totfact> 0.42766347E+04</totfact>
</mgrwt>
</event>
<event>
 4    1  0.3902417E-001  0.1774234E+03  0.7546771E-02  0.1170320E+00
         21   -1    0    0  503  502  0.00000000000E+00  0.00000000000E+00  0.44001422363E+03  0.44001422363E+03  0.00000000000E+00 0. -1.
         21   -1    0    0  501  503 -0.00000000000E+00 -0.00000000000E+00 -0.12665940944E+03  0.12665940944E+03  0.00000000000E+00 0. -1.
          6    1    1    2  501    0  0.19112684431E+02  0.34420324578E+02  0.34358745803E+03  0.38669289464E+03  0.17300000000E+03 0. -1.
         -6    1    1    2    0  502 -0.19112684431E+02 -0.34420324578E+02 -0.30232643836E+02  0.17998073842E+03  0.17300000000E+03 0. -1.
<mgrwt>
<rscale>  2 0.17742337E+03</rscale>
<asrwt>0</asrwt>
<pdfrwt beam="1">  1       21 0.67694495E-01 0.17742337E+03</pdfrwt>
<pdfrwt beam="2">  1       21 0.19486063E-01 0.17742337E+03</pdfrwt>
<totfact> 0.48686927E+04</totfact>
</mgrwt>
</event>
<event>
 4    1  0.3902417E-001  0.1939219E+03  0.7546771E-02  0.1154971E+00
         21   -1    0    0  503  502  0.00000000000E+00  0.00000000000E+00  0.30005089444E+02  0.30005089444E+02  0.00000000000E+00 0.  1.
         21   -1    0    0  501  503 -0.00000000000E+00 -0.00000000000E+00 -0.20720698717E+04  0.20720698717E+04  0.00000000000E+00 0.  1.
          6    1    1    2  501    0  0.79349342729E+02  0.37153311410E+02 -0.16817170287E+04  0.16928608482E+04  0.17300000000E+03 0.  1.
         -6    1    1    2    0  502 -0.79349342729E+02 -0.37153311410E+02 -0.36034775353E+03  0.40921411292E+03  0.17300000000E+03 0.  1.
<mgrwt>
<rscale>  2 0.19392186E+03</rscale>
<asrwt>0</asrwt>
<pdfrwt beam="1">  1       21 0.46161689E-02 0.19392186E+03</pdfrwt>
<pdfrwt beam="2">  1       21 0.31877989E+00 0.19392186E+03</pdfrwt>
<totfact> 0.81788186E+03</totfact>
</mgrwt>
</event>
<event>
 4    1  0.3902417E-001  0.2080515E+03  0.7546771E-02  0.1143118E+00
         21   -1    0    0  501  502  0.00000000000E+00  0.00000000000E+00  0.11819726967E+04  0.11819726967E+04  0.00000000000E+00 0.  1.
         21   -1    0    0  502  503 -0.00000000000E+00 -0.00000000000E+00 -0.36753913701E+02  0.36753913701E+02  0.00000000000E+00 0. -1.
          6    1    1    2  501    0  0.11383964641E+03 -0.19923928642E+02  0.53601221300E+03  0.57497349549E+03  0.17300000000E+03 0. -1.
         -6    1    1    2    0  503 -0.11383964641E+03  0.19923928642E+02  0.60920656996E+03  0.64375311487E+03  0.17300000000E+03 0.  1.
<mgrwt>
<rscale>  2 0.20805150E+03</rscale>
<asrwt>0</asrwt>
<pdfrwt beam="1">  1       21 0.18184192E+00 0.20805150E+03</pdfrwt>
<pdfrwt beam="2">  1       21 0.56544492E-02 0.20805150E+03</pdfrwt>
<totfact> 0.38198890E+04</totfact>
</mgrwt>
</event>
<event>
 4    1  0.3902417E-001  0.2110360E+03  0.7546771E-02  0.1140748E+00
         21   -1    0    0  503  502  0.00000000000E+00  0.00000000000E+00  0.42905794646E+03  0.42905794646E+03  0.00000000000E+00 0. -1.
         21   -1    0    0  501  503 -0.00000000000E+00 -0.00000000000E+00 -0.21544559634E+03  0.21544559634E+03  0.00000000000E+00 0. -1.
          6    1    1    2  501    0 -0.59409827176E+02 -0.10525049907E+03 -0.12517214061E+03  0.24536556381E+03  0.17300000000E+03 0. -1.
         -6    1    1    2    0  502  0.59409827176E+02  0.10525049907E+03  0.33878449072E+03  0.39913797899E+03  0.17300000000E+03 0. -1.
<mgrwt>
<rscale>  2 0.21103600E+03</rscale>
<asrwt>0</asrwt>
<pdfrwt beam="1">  1       21 0.66008915E-01 0.21103600E+03</pdfrwt>
<pdfrwt beam="2">  1       21 0.33145476E-01 0.21103600E+03</pdfrwt>
<totfact> 0.18266150E+04</totfact>
</mgrwt>
</event>
<event>
 4    1  0.3902417E-001  0.1786227E+03  0.7546771E-02  0.1169143E+00
         21   -1    0    0  503  502  0.00000000000E+00  0.00000000000E+00  0.12300396356E+03  0.12300396356E+03  0.00000000000E+00 0. -1.
         21   -1    0    0  501  503 -0.00000000000E+00 -0.00000000000E+00 -0.27459291714E+03  0.27459291714E+03  0.00000000000E+00 0. -1.
          6    1    1    2  501    0  0.26854577179E+02 -0.35438726057E+02 -0.12257049341E+03  0.21663240172E+03  0.17300000000E+03 0. -1.
         -6    1    1    2    0  502 -0.26854577179E+02  0.35438726057E+02 -0.29018460170E+02  0.18096447897E+03  0.17300000000E+03 0. -1.
<mgrwt>
<rscale>  2 0.17862271E+03</rscale>
<asrwt>0</asrwt>
<pdfrwt beam="1">  1       21 0.18923687E-01 0.17862271E+03</pdfrwt>
<pdfrwt beam="2">  1       21 0.42245064E-01 0.17862271E+03</pdfrwt>
<totfact> 0.13862456E+05</totfact>
</mgrwt>
</event>
<event>
 4    1  0.3902417E-001  0.2393103E+03  0.7546771E-02  0.1120253E+00
         21   -1    0    0  501  502  0.00000000000E+00  0.00000000000E+00  0.16784405157E+03  0.16784405157E+03  0.00000000000E+00 0. -1.
         21   -1    0    0  502  503 -0.00000000000E+00 -0.00000000000E+00 -0.39854272316E+03  0.39854272316E+03  0.00000000000E+00 0.  1.
          6    1    1    2  501    0 -0.12269191430E+03  0.11084727862E+03 -0.79351899768E+01  0.23944183480E+03  0.17300000000E+03 0. -1.
         -6    1    1    2    0  503  0.12269191430E+03 -0.11084727862E+03 -0.22276348161E+03  0.32694493994E+03  0.17300000000E+03 0. -1.
<mgrwt>
<rscale>  2 0.23931031E+03</rscale>
<asrwt>0</asrwt>
<pdfrwt beam="1">  1       21 0.25822162E-01 0.23931031E+03</pdfrwt>
<pdfrwt beam="2">  1       21 0.61314264E-01 0.23931031E+03</pdfrwt>
<totfact> 0.34402211E+04</totfact>
</mgrwt>
</event>
<event>
 4    1  0.3902417E-001  0.2062345E+03  0.7546771E-02  0.1144583E+00
         21   -1    0    0  501  502  0.00000000000E+00  0.00000000000E+00  0.11871491927E+03  0.11871491927E+03  0.00000000000E+00 0. -1.
         21   -1    0    0  502  503 -0.00000000000E+00 -0.00000000000E+00 -0.54012492001E+03  0.54012492001E+03  0.00000000000E+00 0. -1.
          6    1    1    2  501    0 -0.11142479383E+03  0.13718208105E+02 -0.19561982153E+02  0.20716019178E+03  0.17300000000E+03 0. -1.
         -6    1    1    2    0  503  0.11142479383E+03 -0.13718208105E+02 -0.40184801859E+03  0.45167964749E+03  0.17300000000E+03 0. -1.
<mgrwt>
<rscale>  2 0.20623451E+03</rscale>
<asrwt>0</asrwt>
<pdfrwt beam="1">  1       21 0.18263834E-01 0.20623451E+03</pdfrwt>
<pdfrwt beam="2">  1       21 0.83096141E-01 0.20623451E+03</pdfrwt>
<totfact> 0.34232166E+04</totfact>
</mgrwt>
</event>
<event>
 4    1  0.3902417E-001  0.1948639E+03  0.7546771E-02  0.1154146E+00
         21   -1    0    0  501  502  0.00000000000E+00  0.00000000000E+00  0.32695120082E+03  0.32695120082E+03  0.00000000000E+00 0.  1.
         21   -1    0    0  502  503 -0.00000000000E+00 -0.00000000000E+00 -0.12113668526E+03  0.12113668526E+03  0.00000000000E+00 0. -1.
          6    1    1    2  501    0 -0.84899577682E+02 -0.28896287376E+02  0.14841236262E+03  0.24494522468E+03  0.17300000000E+03 0. -1.
         -6    1    1    2    0  503  0.84899577682E+02  0.28896287376E+02  0.57402152936E+02  0.20314266139E+03  0.17300000000E+03 0. -1.
<mgrwt>
<rscale>  2 0.19486389E+03</rscale>
<asrwt>0</asrwt>
<pdfrwt beam="1">  1       21 0.50300184E-01 0.19486389E+03</pdfrwt>
<pdfrwt beam="2">  1       21 0.18636413E-01 0.19486389E+03</pdfrwt>
<totfact> 0.98985254E+04</totfact>
</mgrwt>
</event>
<event>
 4    1  0.3902417E-001  0.2078871E+03  0.7546771E-02  0.1143250E+00
         21   -1    0    0  501  502  0.00000000000E+00  0.00000000000E+00  0.32152116861E+03  0.32152116861E+03  0.00000000000E+00 0.  1.
         21   -1    0    0  502  503 -0.00000000000E+00 -0.00000000000E+00 -0.15332090790E+03  0.15332090790E+03  0.00000000000E+00 0.  1.
          6    1    1    2  501    0  0.88141600466E+02 -0.74290746292E+02  0.16747301362E+03  0.26695367952E+03  0.17300000000E+03 0. -1.
         -6    1    1    2    0  503 -0.88141600466E+02  0.74290746292E+02  0.72724708718E+00  0.20788839700E+03  0.17300000000E+03 0. -1.
<mgrwt>
<rscale>  2 0.20788712E+03</rscale>
<asrwt>0</asrwt>
<pdfrwt beam="1">  1       21 0.49464795E-01 0.20788712E+03</pdfrwt>
<pdfrwt beam="2">  1       21 0.23587832E-01 0.20788712E+03</pdfrwt>
<totfact> 0.65478157E+04</totfact>
</mgrwt>
</event>
<event>
 4    1  0.3902417E-001  0.2205659E+03  0.7546771E-02  0.1133462E+00
         21   -1    0    0  503  502  0.00000000000E+00  0.00000000000E+00  0.73682102238E+02  0.73682102238E+02  0.00000000000E+00 0. -1.
         21   -1    0    0  501  503 -0.00000000000E+00 -0.00000000000E+00 -0.86821075605E+03  0.86821075605E+03  0.00000000000E+00 0. -1.
          6    1    1    2  501    0 -0.30027727414E+02 -0.13348658534E+03 -0.62774756589E+03  0.66536932553E+03  0.17300000000E+03 0. -1.
         -6    1    1    2    0  502  0.30027727414E+02  0.13348658534E+03 -0.16678108792E+03  0.27652353276E+03  0.17300000000E+03 0. -1.
<mgrwt>
<rscale>  2 0.22056594E+03</rscale>
<asrwt>0</asrwt>
<pdfrwt beam="1">  1       21 0.11335708E-01 0.22056594E+03</pdfrwt>
<pdfrwt beam="2">  1       21 0.13357089E+00 0.22056594E+03</pdfrwt>
<totfact> 0.25781184E+04</totfact>
</mgrwt>
</event>
<event>
 4    1  0.3902417E-001  0.1740110E+03  0.7546771E-02  0.1173728E+00
         21   -1    0    0  503  502  0.00000000000E+00  0.00000000000E+00  0.10117413050E+03  0.10117413050E+03  0.00000000000E+00 0.  1.
         21   -1    0    0  501  503 -0.00000000000E+00 -0.00000000000E+00 -0.30144931132E+03  0.30144931132E+03  0.00000000000E+00 0.  1.
          6    1    1    2  501    0 -0.15607193493E+02  0.10356570801E+02 -0.11719754612E+03  0.20979777850E+03  0.17300000000E+03 0.  1.
         -6    1    1    2    0  502  0.15607193493E+02 -0.10356570801E+02 -0.83077634702E+02  0.19282566332E+03  0.17300000000E+03 0.  1.
<mgrwt>
<rscale>  2 0.17401104E+03</rscale>
<asrwt>0</asrwt>
<pdfrwt beam="1">  1       21 0.15565251E-01 0.17401104E+03</pdfrwt>
<pdfrwt beam="2">  1       21 0.46376817E-01 0.17401104E+03</pdfrwt>
<totfact> 0.16427821E+05</totfact>
</mgrwt>
</event>
<event>
 4    1  0.3902417E-001  0.1894960E+03  0.7546771E-02  0.1158917E+00
         21   -1    0    0  503  502  0.00000000000E+00  0.00000000000E+00  0.24430562745E+03  0.24430562745E+03  0.00000000000E+00 0.  1.
         21   -1    0    0  501  503 -0.00000000000E+00 -0.00000000000E+00 -0.14702292729E+03  0.14702292729E+03  0.00000000000E+00 0.  1.
          6    1    1    2  501    0 -0.60587238375E+02 -0.48051241848E+02  0.45410515825E+02  0.19486110501E+03  0.17300000000E+03 0.  1.
         -6    1    1    2    0  502  0.60587238375E+02  0.48051241848E+02  0.51872184327E+02  0.19646744973E+03  0.17300000000E+03 0.  1.
<mgrwt>
<rscale>  2 0.18949600E+03</rscale>
<asrwt>0</asrwt>
<pdfrwt beam="1">  1       21 0.37585481E-01 0.18949600E+03</pdfrwt>
<pdfrwt beam="2">  1       21 0.22618912E-01 0.18949600E+03</pdfrwt>
<totfact> 0.12519896E+05</totfact>
</mgrwt>
</event>
<event>
 4    1  0.3902417E-001  0.1903043E+03  0.7546771E-02  0.1158187E+00
         21   -1    0    0  501  502  0.00000000000E+00  0.00000000000E+00  0.74499787232E+03  0.74499787232E+03  0.00000000000E+00 0. -1.
         21   -1    0    0  502  503 -0.00000000000E+00 -0.00000000000E+00 -0.55293113381E+02  0.55293113381E+02  0.00000000000E+00 0. -1.
          6    1    1    2  501    0 -0.48370238436E+02  0.62825558504E+02  0.48394735549E+03  0.52001997428E+03  0.17300000000E+03 0. -1.
         -6    1    1    2    0  503  0.48370238436E+02 -0.62825558504E+02  0.20575740345E+03  0.28027101142E+03  0.17300000000E+03 0. -1.
<mgrwt>
<rscale>  2 0.19030431E+03</rscale>
<asrwt>0</asrwt>
<pdfrwt beam="1">  1       21 0.11461505E+00 0.19030431E+03</pdfrwt>
<pdfrwt beam="2">  1       21 0.85066333E-02 0.19030431E+03</pdfrwt>
<totfact> 0.63799735E+04</totfact>
</mgrwt>
</event>
<event>
 4    1  0.3902417E-001  0.1934662E+03  0.7546771E-02  0.1155372E+00
         21   -1    0    0  501  502  0.00000000000E+00  0.00000000000E+00  0.52815471801E+02  0.52815471801E+02  0.00000000000E+00 0.  1.
         21   -1    0    0  502  503 -0.00000000000E+00 -0.00000000000E+00 -0.73412601651E+03  0.73412601651E+03  0.00000000000E+00 0. -1.
          6    1    1    2  501    0 -0.67364220570E+01  0.86341078658E+02 -0.41391315789E+03  0.45689524348E+03  0.17300000000E+03 0.  1.
         -6    1    1    2    0  503  0.67364220570E+01 -0.86341078658E+02 -0.26739738682E+03  0.33004624483E+03  0.17300000000E+03 0.  1.
<mgrwt>
<rscale>  2 0.19346618E+03</rscale>
<asrwt>0</asrwt>
<pdfrwt beam="1">  1       21 0.81254577E-02 0.19346618E+03</pdfrwt>
<pdfrwt beam="2">  1       21 0.11294246E+00 0.19346618E+03</pdfrwt>
<totfact> 0.71524062E+04</totfact>
</mgrwt>
</event>
<event>
 4    1  0.3902417E-001  0.2244295E+03  0.7546771E-02  0.1130623E+00
         21   -1    0    0  501  502  0.00000000000E+00  0.00000000000E+00  0.22164363068E+03  0.22164363068E+03  0.00000000000E+00 0.  1.
         21   -1    0    0  502  503 -0.00000000000E+00 -0.00000000000E+00 -0.75046778257E+03  0.75046778257E+03  0.00000000000E+00 0.  1.
          6    1    1    2  501    0 -0.80806088589E+02 -0.11794056444E+03  0.14143377238E+03  0.26527742585E+03  0.17300000000E+03 0.  1.
         -6    1    1    2    0  503  0.80806088589E+02  0.11794056444E+03 -0.67025792427E+03  0.70683398740E+03  0.17300000000E+03 0.  1.
<mgrwt>
<rscale>  2 0.22442950E+03</rscale>
<asrwt>0</asrwt>
<pdfrwt beam="1">  1       21 0.34099020E-01 0.22442950E+03</pdfrwt>
<pdfrwt beam="2">  1       21 0.11545658E+00 0.22442950E+03</pdfrwt>
<totfact> 0.46944427E+03</totfact>
</mgrwt>
</event>
<event>
 4    1  0.3902417E-001  0.2061577E+03  0.7546771E-02  0.1144645E+00
         21   -1    0    0  503  502  0.00000000000E+00  0.00000000000E+00  0.20437313594E+03  0.20437313594E+03  0.00000000000E+00 0.  1.
         21   -1    0    0  501  503 -0.00000000000E+00 -0.00000000000E+00 -0.20804537337E+03  0.20804537337E+03  0.00000000000E+00 0.  1.
          6    1    1    2  501    0  0.10387620352E+03  0.42210425967E+02 -0.60670848920E+01  0.20624692782E+03  0.17300000000E+03 0.  1.
         -6    1    1    2    0  502 -0.10387620352E+03 -0.42210425967E+02  0.23948474565E+01  0.20617158149E+03  0.17300000000E+03 0.  1.
<mgrwt>
<rscale>  2 0.20615767E+03</rscale>
<asrwt>0</asrwt>
<pdfrwt beam="1">  1       21 0.31442021E-01 0.20615767E+03</pdfrwt>
<pdfrwt beam="2">  1       21 0.32006981E-01 0.20615767E+03</pdfrwt>
<totfact> 0.90765048E+04</totfact>
</mgrwt>
</event>
<event>
 4    1  0.3902417E-001  0.1849935E+03  0.7546771E-02  0.1163056E+00
         21   -1    0    0  501  502  0.00000000000E+00  0.00000000000E+00  0.21562736930E+03  0.21562736930E+03  0.00000000000E+00 0.  1.
         21   -1    0    0  502  503 -0.00000000000E+00 -0.00000000000E+00 -0.16086955301E+03  0.16086955301E+03  0.00000000000E+00 0.  1.
          6    1    1    2  501    0 -0.17248832812E+02  0.63214423806E+02  0.49181382321E+02  0.19141941902E+03  0.17300000000E+03 0.  1.
         -6    1    1    2    0  503  0.17248832812E+02 -0.63214423806E+02  0.55764339721E+01  0.18507750330E+03  0.17300000000E+03 0.  1.
<mgrwt>
<rscale>  2 0.18499347E+03</rscale>
<asrwt>0</asrwt>
<pdfrwt beam="1">  1       21 0.33173442E-01 0.18499347E+03</pdfrwt>
<pdfrwt beam="2">  1       21 0.24749162E-01 0.18499347E+03</pdfrwt>
<totfact> 0.13544987E+05</totfact>
</mgrwt>
</event>
<event>
 4    1  0.3902417E-001  0.1991875E+03  0.7546771E-02  0.1150426E+00
         21   -1    0    0  503  502  0.00000000000E+00  0.00000000000E+00  0.31916815012E+02  0.31916815012E+02  0.00000000000E+00 0.  1.
         21   -1    0    0  501  503 -0.00000000000E+00 -0.00000000000E+00 -0.12774023372E+04  0.12774023372E+04  0.00000000000E+00 0.  1.
          6    1    1    2  501    0  0.70918427200E+02 -0.68682214122E+02 -0.73002748789E+03  0.75671381838E+03  0.17300000000E+03 0.  1.
         -6    1    1    2    0  502 -0.70918427200E+02  0.68682214122E+02 -0.51545803426E+03  0.55260533379E+03  0.17300000000E+03 0.  1.
<mgrwt>
<rscale>  2 0.19918752E+03</rscale>
<asrwt>0</asrwt>
<pdfrwt beam="1">  1       21 0.49102790E-02 0.19918752E+03</pdfrwt>
<pdfrwt beam="2">  1       21 0.19652344E+00 0.19918752E+03</pdfrwt>
<totfact> 0.39042479E+04</totfact>
</mgrwt>
</event>
<event>
 4    1  0.3902417E-001  0.2497155E+03  0.7546771E-02  0.1113485E+00
         21   -1    0    0  503  502  0.00000000000E+00  0.00000000000E+00  0.38981572117E+02  0.38981572117E+02  0.00000000000E+00 0.  1.
         21   -1    0    0  501  503 -0.00000000000E+00 -0.00000000000E+00 -0.18851783196E+04  0.18851783196E+04  0.00000000000E+00 0. -1.
          6    1    1    2  501    0  0.97002124298E+02 -0.15172145984E+03 -0.12975029656E+04  0.13213144059E+04  0.17300000000E+03 0. -1.
         -6    1    1    2    0  502 -0.97002124298E+02  0.15172145984E+03 -0.54869378189E+03  0.60284548582E+03  0.17300000000E+03 0. -1.
<mgrwt>
<rscale>  2 0.24971547E+03</rscale>
<asrwt>0</asrwt>
<pdfrwt beam="1">  1       21 0.59971654E-02 0.24971547E+03</pdfrwt>
<pdfrwt beam="2">  1       21 0.29002741E+00 0.24971547E+03</pdfrwt>
<totfact> 0.72760743E+03</totfact>
</mgrwt>
</event>
<event>
 4    1  0.3902417E-001  0.1883653E+03  0.7546771E-02  0.1159944E+00
         21   -1    0    0  503  502  0.00000000000E+00  0.00000000000E+00  0.37468384787E+03  0.37468384787E+03  0.00000000000E+00 0. -1.
         21   -1    0    0  501  503 -0.00000000000E+00 -0.00000000000E+00 -0.15675351406E+03  0.15675351406E+03  0.00000000000E+00 0. -1.
          6    1    1    2  501    0 -0.16110794431E+01 -0.74497713021E+02 -0.58223368629E+02  0.19715847807E+03  0.17300000000E+03 0. -1.
         -6    1    1    2    0  502  0.16110794431E+01  0.74497713021E+02  0.27615370243E+03  0.33427888385E+03  0.17300000000E+03 0. -1.
<mgrwt>
<rscale>  2 0.18836535E+03</rscale>
<asrwt>0</asrwt>
<pdfrwt beam="1">  1       21 0.57643669E-01 0.18836535E+03</pdfrwt>
<pdfrwt beam="2">  1       21 0.24115925E-01 0.18836535E+03</pdfrwt>
<totfact> 0.45894102E+04</totfact>
</mgrwt>
</event>
<event>
 4    1  0.3902417E-001  0.2177993E+03  0.7546771E-02  0.1135534E+00
         21   -1    0    0  503  502  0.00000000000E+00  0.00000000000E+00  0.56932735144E+02  0.56932735144E+02  0.00000000000E+00 0. -1.
         21   -1    0    0  501  503 -0.00000000000E+00 -0.00000000000E+00 -0.88768588885E+03  0.88768588885E+03  0.00000000000E+00 0. -1.
          6    1    1    2  501    0  0.12870589654E+03  0.30697546166E+02 -0.29836592092E+03  0.36940326191E+03  0.17300000000E+03 0. -1.
         -6    1    1    2    0  502 -0.12870589654E+03 -0.30697546166E+02 -0.53238723279E+03  0.57521536208E+03  0.17300000000E+03 0. -1.
<mgrwt>
<rscale>  2 0.21779933E+03</rscale>
<asrwt>0</asrwt>
<pdfrwt beam="1">  1       21 0.87588825E-02 0.21779933E+03</pdfrwt>
<pdfrwt beam="2">  1       21 0.13656706E+00 0.21779933E+03</pdfrwt>
<totfact> 0.38525707E+04</totfact>
</mgrwt>
</event>
<event>
 4    1  0.3902417E-001  0.2314141E+03  0.7546771E-02  0.1125648E+00
         21   -1    0    0  501  502  0.00000000000E+00  0.00000000000E+00  0.87141128560E+03  0.87141128560E+03  0.00000000000E+00 0. -1.
         21   -1    0    0  502  503 -0.00000000000E+00 -0.00000000000E+00 -0.66488118765E+02  0.66488118765E+02  0.00000000000E+00 0. -1.
          6    1    1    2  501    0 -0.20553589940E+01  0.15368564276E+03  0.27343572548E+03  0.35821724869E+03  0.17300000000E+03 0. -1.
         -6    1    1    2    0  503  0.20553589940E+01 -0.15368564276E+03  0.53148744136E+03  0.57968215568E+03  0.17300000000E+03 0. -1.
<mgrwt>
<rscale>  2 0.23141413E+03</rscale>
<asrwt>0</asrwt>
<pdfrwt beam="1">  1       21 0.13406327E+00 0.23141413E+03</pdfrwt>
<pdfrwt beam="2">  1       21 0.10228942E-01 0.23141413E+03</pdfrwt>
<totfact> 0.30488325E+04</totfact>
</mgrwt>
</event>
<event>
 4    1  0.3902417E-001  0.1750553E+03  0.7546771E-02  0.1172676E+00
         21   -1    0    0  503  502  0.00000000000E+00  0.00000000000E+00  0.24629839496E+03  0.24629839496E+03  0.00000000000E+00 0. -1.
         21   -1    0    0  501  503 -0.00000000000E+00 -0.00000000000E+00 -0.13059054485E+03  0.13059054485E+03  0.00000000000E+00 0. -1.
          6    1    1    2  501    0  0.13412811548E+02  0.23140224787E+02  0.16890177028E+02  0.17586827911E+03  0.17300000000E+03 0. -1.
         -6    1    1    2    0  502 -0.13412811548E+02 -0.23140224787E+02  0.98817673073E+02  0.20102066070E+03  0.17300000000E+03 0. -1.
<mgrwt>
<rscale>  2 0.17505534E+03</rscale>
<asrwt>0</asrwt>
<pdfrwt beam="1">  1       21 0.37892061E-01 0.17505534E+03</pdfrwt>
<pdfrwt beam="2">  1       21 0.20090853E-01 0.17505534E+03</pdfrwt>
<totfact> 0.15460689E+05</totfact>
</mgrwt>
</event>
<event>
 4    1  0.3902417E-001  0.2400993E+03  0.7546771E-02  0.1119727E+00
         21   -1    0    0  503  502  0.00000000000E+00  0.00000000000E+00  0.53304925732E+03  0.53304925732E+03  0.00000000000E+00 0.  1.
         21   -1    0    0  501  503 -0.00000000000E+00 -0.00000000000E+00 -0.12379186192E+03  0.12379186192E+03  0.00000000000E+00 0.  1.
          6    1    1    2  501    0  0.15237836779E+03  0.67078438025E+02  0.87875171561E+02  0.25567504687E+03  0.17300000000E+03 0.  1.
         -6    1    1    2    0  502 -0.15237836779E+03 -0.67078438025E+02  0.32138222385E+03  0.40116607237E+03  0.17300000000E+03 0.  1.
<mgrwt>
<rscale>  2 0.24009932E+03</rscale>
<asrwt>0</asrwt>
<pdfrwt beam="1">  1       21 0.82007577E-01 0.24009932E+03</pdfrwt>
<pdfrwt beam="2">  1       21 0.19044902E-01 0.24009932E+03</pdfrwt>
<totfact> 0.32087330E+04</totfact>
</mgrwt>
</event>
<event>
 4    1  0.3902417E-001  0.1914417E+03  0.7546771E-02  0.1157167E+00
         21   -1    0    0  501  502  0.00000000000E+00  0.00000000000E+00  0.35389455755E+02  0.35389455755E+02  0.00000000000E+00 0.  1.
         21   -1    0    0  502  503 -0.00000000000E+00 -0.00000000000E+00 -0.11624385518E+04  0.11624385518E+04  0.00000000000E+00 0.  1.
          6    1    1    2  501    0  0.46038898778E+02  0.67833263838E+02 -0.36570212418E+03  0.41278078385E+03  0.17300000000E+03 0.  1.
         -6    1    1    2    0  503 -0.46038898778E+02 -0.67833263838E+02 -0.76134697189E+03  0.78504722373E+03  0.17300000000E+03 0.  1.
<mgrwt>
<rscale>  2 0.19144172E+03</rscale>
<asrwt>0</asrwt>
<pdfrwt beam="1">  1       21 0.54445320E-02 0.19144172E+03</pdfrwt>
<pdfrwt beam="2">  1       21 0.17883669E+00 0.19144172E+03</pdfrwt>
<totfact> 0.43165069E+04</totfact>
</mgrwt>
</event>
<event>
 4    1  0.3902417E-001  0.2265413E+03  0.7546771E-02  0.1129098E+00
         21   -1    0    0  501  502  0.00000000000E+00  0.00000000000E+00  0.45204431629E+03  0.45204431629E+03  0.00000000000E+00 0. -1.
         21   -1    0    0  502  503 -0.00000000000E+00 -0.00000000000E+00 -0.11491609880E+03  0.11491609880E+03  0.00000000000E+00 0.  1.
          6    1    1    2  501    0 -0.57936182925E+02  0.13429583935E+03  0.13744000973E+03  0.26497307416E+03  0.17300000000E+03 0.  1.
         -6    1    1    2    0  503  0.57936182925E+02 -0.13429583935E+03  0.19968820776E+03  0.30198734092E+03  0.17300000000E+03 0. -1.
<mgrwt>
<rscale>  2 0.22654133E+03</rscale>
<asrwt>0</asrwt>
<pdfrwt beam="1">  1       21 0.69545279E-01 0.22654133E+03</pdfrwt>
<pdfrwt beam="2">  1       21 0.17679400E-01 0.22654133E+03</pdfrwt>
<totfact> 0.53701081E+04</totfact>
</mgrwt>
</event>
<event>
 4    1  0.3902417E-001  0.3138697E+03  0.7546771E-02  0.1078506E+00
         21   -1    0    0  501  502  0.00000000000E+00  0.00000000000E+00  0.35810826350E+03  0.35810826350E+03  0.00000000000E+00 0. -1.
         21   -1    0    0  502  503 -0.00000000000E+00 -0.00000000000E+00 -0.30154904407E+03  0.30154904407E+03  0.00000000000E+00 0. -1.
          6    1    1    2  501    0 -0.19607847698E+02  0.26115273737E+03  0.12596860627E+03  0.33820453825E+03  0.17300000000E+03 0. -1.
         -6    1    1    2    0  503  0.19607847698E+02 -0.26115273737E+03 -0.69409386834E+02  0.32145276933E+03  0.17300000000E+03 0. -1.
<mgrwt>
<rscale>  2 0.31386975E+03</rscale>
<asrwt>0</asrwt>
<pdfrwt beam="1">  1       21 0.55093579E-01 0.31386975E+03</pdfrwt>
<pdfrwt beam="2">  1       21 0.46392161E-01 0.31386975E+03</pdfrwt>
<totfact> 0.12984365E+04</totfact>
</mgrwt>
</event>
<event>
 4    1  0.3902417E-001  0.1734583E+03  0.7546771E-02  0.1174289E+00
         21   -1    0    0  503  502  0.00000000000E+00  0.00000000000E+00  0.78826393566E+02  0.78826393566E+02  0.00000000000E+00 0. -1.
         21   -1    0    0  501  503 -0.00000000000E+00 -0.00000000000E+00 -0.45523589863E+03  0.45523589863E+03  0.00000000000E+00 0. -1.
          6    1    1    2  501    0 -0.91458522587E+01 -0.86683767912E+01 -0.29553017966E+03  0.34267458975E+03  0.17300000000E+03 0. -1.
         -6    1    1    2    0  502  0.91458522587E+01  0.86683767912E+01 -0.80879325400E+02  0.19138770244E+03  0.17300000000E+03 0. -1.
<mgrwt>
<rscale>  2 0.17345832E+03</rscale>
<asrwt>0</asrwt>
<pdfrwt beam="1">  1       21 0.12127138E-01 0.17345832E+03</pdfrwt>
<pdfrwt beam="2">  1       21 0.70036291E-01 0.17345832E+03</pdfrwt>
<totfact> 0.10736687E+05</totfact>
</mgrwt>
</event>
<event>
 4    1  0.3902417E-001  0.2019061E+03  0.7546771E-02  0.1148141E+00
         21   -1    0    0  501  502  0.00000000000E+00  0.00000000000E+00  0.71088218694E+03  0.71088218694E+03  0.00000000000E+00 0.  1.
         21   -1    0    0  502  503 -0.00000000000E+00 -0.00000000000E+00 -0.57814313721E+02  0.57814313721E+02  0.00000000000E+00 0.  1.
          6    1    1    2  501    0  0.18978221310E+02 -0.10235669444E+03  0.36113549958E+03  0.41374498769E+03  0.17300000000E+03 0.  1.
         -6    1    1    2    0  503 -0.18978221310E+02  0.10235669444E+03  0.29193237363E+03  0.35495151297E+03  0.17300000000E+03 0.  1.
<mgrwt>
<rscale>  2 0.20190608E+03</rscale>
<asrwt>0</asrwt>
<pdfrwt beam="1">  1       21 0.10936648E+00 0.20190608E+03</pdfrwt>
<pdfrwt beam="2">  1       21 0.88945103E-02 0.20190608E+03</pdfrwt>
<totfact> 0.65747176E+04</totfact>
</mgrwt>
</event>
<event>
 4    1  0.3902417E-001  0.1749489E+03  0.7546771E-02  0.1172783E+00
         21   -1    0    0  501  502  0.00000000000E+00  0.00000000000E+00  0.56215696371E+03  0.56215696371E+03  0.00000000000E+00 0. -1.
         21   -1    0    0  502  503 -0.00000000000E+00 -0.00000000000E+00 -0.80020820605E+02  0.80020820605E+02  0.00000000000E+00 0. -1.
          6    1    1    2  501    0 -0.25331707381E+02  0.60348490073E+01  0.42259093622E+03  0.45737316732E+03  0.17300000000E+03 0. -1.
         -6    1    1    2    0  503  0.25331707381E+02 -0.60348490073E+01  0.59545206878E+02  0.18480461700E+03  0.17300000000E+03 0. -1.
<mgrwt>
<rscale>  2 0.17494889E+03</rscale>
<asrwt>0</asrwt>
<pdfrwt beam="1">  1       21 0.86485684E-01 0.17494889E+03</pdfrwt>
<pdfrwt beam="2">  1       21 0.12310896E-01 0.17494889E+03</pdfrwt>
<totfact> 0.65079615E+04</totfact>
</mgrwt>
</event>
<event>
 4    1  0.3902417E-001  0.1810910E+03  0.7546771E-02  0.1166751E+00
         21   -1    0    0  501  502  0.00000000000E+00  0.00000000000E+00  0.34615543555E+02  0.34615543555E+02  0.00000000000E+00 0.  1.
         21   -1    0    0  502  503 -0.00000000000E+00 -0.00000000000E+00 -0.99503220784E+03  0.99503220784E+03  0.00000000000E+00 0.  1.
          6    1    1    2  501    0 -0.17013981859E+02  0.50749168066E+02 -0.36754115251E+03  0.40973217158E+03  0.17300000000E+03 0.  1.
         -6    1    1    2    0  503  0.17013981859E+02 -0.50749168066E+02 -0.59287551178E+03  0.61991557982E+03  0.17300000000E+03 0.  1.
<mgrwt>
<rscale>  2 0.18109101E+03</rscale>
<asrwt>0</asrwt>
<pdfrwt beam="1">  1       21 0.53254684E-02 0.18109101E+03</pdfrwt>
<pdfrwt beam="2">  1       21 0.15308187E+00 0.18109101E+03</pdfrwt>
<totfact> 0.68879024E+04</totfact>
</mgrwt>
</event>
<event>
 4    1  0.3902417E-001  0.2223629E+03  0.7546771E-02  0.1132134E+00
         21   -1    0    0  501  502  0.00000000000E+00  0.00000000000E+00  0.59358579751E+03  0.59358579751E+03  0.00000000000E+00 0. -1.
         21   -1    0    0  502  503 -0.00000000000E+00 -0.00000000000E+00 -0.10031294972E+03  0.10031294972E+03  0.00000000000E+00 0. -1.
          6    1    1    2  501    0  0.64484825863E+02  0.12392733225E+03  0.10375148353E+03  0.24537654081E+03  0.17300000000E+03 0. -1.
         -6    1    1    2    0  503 -0.64484825863E+02 -0.12392733225E+03  0.38952136426E+03  0.44852220643E+03  0.17300000000E+03 0. -1.
<mgrwt>
<rscale>  2 0.22236294E+03</rscale>
<asrwt>0</asrwt>
<pdfrwt beam="1">  1       21 0.91320890E-01 0.22236294E+03</pdfrwt>
<pdfrwt beam="2">  1       21 0.15432762E-01 0.22236294E+03</pdfrwt>
<totfact> 0.37247439E+04</totfact>
</mgrwt>
</event>
<event>
 4    1  0.3902417E-001  0.1847181E+03  0.7546771E-02  0.1163313E+00
         21   -1    0    0  501  502  0.00000000000E+00  0.00000000000E+00  0.55293989431E+02  0.55293989431E+02  0.00000000000E+00 0.  1.
         21   -1    0    0  502  503 -0.00000000000E+00 -0.00000000000E+00 -0.71725203129E+03  0.71725203129E+03  0.00000000000E+00 0.  1.
          6    1    1    2  501    0 -0.46912161228E+02  0.44620752333E+02 -0.18662337555E+03  0.26258150489E+03  0.17300000000E+03 0. -1.
         -6    1    1    2    0  503  0.46912161228E+02 -0.44620752333E+02 -0.47533466631E+03  0.50996451583E+03  0.17300000000E+03 0. -1.
<mgrwt>
<rscale>  2 0.18471806E+03</rscale>
<asrwt>0</asrwt>
<pdfrwt beam="1">  1       21 0.85067676E-02 0.18471806E+03</pdfrwt>
<pdfrwt beam="2">  1       21 0.11034647E+00 0.18471806E+03</pdfrwt>
<totfact> 0.70136298E+04</totfact>
</mgrwt>
</event>
<event>
 4    1  0.3902417E-001  0.1921069E+03  0.7546771E-02  0.1156575E+00
         21   -1    0    0  501  502  0.00000000000E+00  0.00000000000E+00  0.17075190463E+03  0.17075190463E+03  0.00000000000E+00 0.  1.
         21   -1    0    0  502  503 -0.00000000000E+00 -0.00000000000E+00 -0.23255912975E+03  0.23255912975E+03  0.00000000000E+00 0.  1.
          6    1    1    2  501    0 -0.73501384804E+02 -0.39668617452E+02  0.22690409318E+02  0.19344225871E+03  0.17300000000E+03 0.  1.
         -6    1    1    2    0  503  0.73501384804E+02  0.39668617452E+02 -0.84497634441E+02  0.20986877568E+03  0.17300000000E+03 0.  1.
<mgrwt>
<rscale>  2 0.19210688E+03</rscale>
<asrwt>0</asrwt>
<pdfrwt beam="1">  1       21 0.26269524E-01 0.19210688E+03</pdfrwt>
<pdfrwt beam="2">  1       21 0.35778327E-01 0.19210688E+03</pdfrwt>
<totfact> 0.10380344E+05</totfact>
</mgrwt>
</event>
<event>
 4    1  0.3902417E-001  0.1917497E+03  0.7546771E-02  0.1156893E+00
         21   -1    0    0  503  502  0.00000000000E+00  0.00000000000E+00  0.10535984181E+04  0.10535984181E+04  0.00000000000E+00 0.  1.
         21   -1    0    0  501  503 -0.00000000000E+00 -0.00000000000E+00 -0.34903796559E+02  0.34903796559E+02  0.00000000000E+00 0.  1.
          6    1    1    2  501    0  0.43285863395E+02 -0.70464749761E+02  0.51665939439E+03  0.55109425396E+03  0.17300000000E+03 0.  1.
         -6    1    1    2    0  502 -0.43285863395E+02  0.70464749761E+02  0.50203522714E+03  0.53740796070E+03  0.17300000000E+03 0.  1.
<mgrwt>
<rscale>  2 0.19174970E+03</rscale>
<asrwt>0</asrwt>
<pdfrwt beam="1">  1       21 0.16209204E+00 0.19174970E+03</pdfrwt>
<pdfrwt beam="2">  1       21 0.53698157E-02 0.19174970E+03</pdfrwt>
<totfact> 0.57937243E+04</totfact>
</mgrwt>
</event>
<event>
 4    1  0.3902417E-001  0.1830062E+03  0.7546771E-02  0.1164925E+00
         21   -1    0    0  501  502  0.00000000000E+00  0.00000000000E+00  0.15129529202E+03  0.15129529202E+03  0.00000000000E+00 0.  1.
         21   -1    0    0  502  503 -0.00000000000E+00 -0.00000000000E+00 -0.28401100208E+03  0.28401100208E+03  0.00000000000E+00 0.  1.
          6    1    1    2  501    0  0.41863693759E+02 -0.42540691823E+02  0.35865163261E+02  0.18648750428E+03  0.17300000000E+03 0.  1.
         -6    1    1    2    0  503 -0.41863693759E+02  0.42540691823E+02 -0.16858087333E+03  0.24881878982E+03  0.17300000000E+03 0.  1.
<mgrwt>
<rscale>  2 0.18300623E+03</rscale>
<asrwt>0</asrwt>
<pdfrwt beam="1">  1       21 0.23276199E-01 0.18300623E+03</pdfrwt>
<pdfrwt beam="2">  1       21 0.43694000E-01 0.18300623E+03</pdfrwt>
<totfact> 0.87670755E+04</totfact>
</mgrwt>
</event>
<event>
 4    1  0.3902417E-001  0.1907679E+03  0.7546771E-02  0.1157771E+00
         21   -1    0    0  501  502  0.00000000000E+00  0.00000000000E+00  0.47402103768E+02  0.47402103768E+02  0.00000000000E+00 0.  1.
         21   -1    0    0  502  503 -0.00000000000E+00 -0.00000000000E+00 -0.83489692553E+03  0.83489692553E+03  0.00000000000E+00 0.  1.
          6    1    1    2  501    0 -0.11241387753E+02 -0.79605419277E+02 -0.26862889923E+03  0.32947515397E+03  0.17300000000E+03 0. -1.
         -6    1    1    2    0  503  0.11241387753E+02  0.79605419277E+02 -0.51886592253E+03  0.55282387533E+03  0.17300000000E+03 0. -1.
<mgrwt>
<rscale>  2 0.19076790E+03</rscale>
<asrwt>0</asrwt>
<pdfrwt beam="1">  1       21 0.72926318E-02 0.19076790E+03</pdfrwt>
<pdfrwt beam="2">  1       21 0.12844567E+00 0.19076790E+03</pdfrwt>
<totfact> 0.62850077E+04</totfact>
</mgrwt>
</event>
<event>
 4    1  0.3902417E-001  0.2238262E+03  0.7546771E-02  0.1131062E+00
         21   -1    0    0  501  502  0.00000000000E+00  0.00000000000E+00  0.17192571497E+03  0.17192571497E+03  0.00000000000E+00 0. -1.
         21   -1    0    0  502  503 -0.00000000000E+00 -0.00000000000E+00 -0.45950390786E+03  0.45950390786E+03  0.00000000000E+00 0.  1.
          6    1    1    2  501    0  0.53402939506E+02  0.13159513654E+03  0.47172820642E+02  0.22874315053E+03  0.17300000000E+03 0. -1.
         -6    1    1    2    0  503 -0.53402939506E+02 -0.13159513654E+03 -0.33475101354E+03  0.40268647230E+03  0.17300000000E+03 0.  1.
<mgrwt>
<rscale>  2 0.22382617E+03</rscale>
<asrwt>0</asrwt>
<pdfrwt beam="1">  1       21 0.26450110E-01 0.22382617E+03</pdfrwt>
<pdfrwt beam="2">  1       21 0.70692908E-01 0.22382617E+03</pdfrwt>
<totfact> 0.24225116E+04</totfact>
</mgrwt>
</event>
<event>
 4    1  0.3902417E-001  0.2015157E+03  0.7546771E-02  0.1148467E+00
         21   -1    0    0  501  502  0.00000000000E+00  0.00000000000E+00  0.29146813423E+03  0.29146813423E+03  0.00000000000E+00 0. -1.
         21   -1    0    0  502  503 -0.00000000000E+00 -0.00000000000E+00 -0.17529719197E+03  0.17529719197E+03  0.00000000000E+00 0. -1.
          6    1    1    2  501    0 -0.99484730701E+02  0.27970468655E+02  0.16380847972E+03  0.25969554634E+03  0.17300000000E+03 0. -1.
         -6    1    1    2    0  503  0.99484730701E+02 -0.27970468655E+02 -0.47637537453E+02  0.20706977987E+03  0.17300000000E+03 0. -1.
<mgrwt>
<rscale>  2 0.20151565E+03</rscale>
<asrwt>0</asrwt>
<pdfrwt beam="1">  1       21 0.44841251E-01 0.20151565E+03</pdfrwt>
<pdfrwt beam="2">  1       21 0.26968799E-01 0.20151565E+03</pdfrwt>
<totfact> 0.62265455E+04</totfact>
</mgrwt>
</event>
<event>
 4    1  0.3902417E-001  0.2316758E+03  0.7546771E-02  0.1125466E+00
         21   -1    0    0  503  502  0.00000000000E+00  0.00000000000E+00  0.89672095021E+02  0.89672095021E+02  0.00000000000E+00 0. -1.
         21   -1    0    0  501  503 -0.00000000000E+00 -0.00000000000E+00 -0.60953254562E+03  0.60953254562E+03  0.00000000000E+00 0.  1.
          6    1    1    2  501    0  0.12320096215E+03  0.92553713948E+02 -0.21301308584E+03  0.31471930633E+03  0.17300000000E+03 0.  1.
         -6    1    1    2    0  502 -0.12320096215E+03 -0.92553713948E+02 -0.30684736476E+03  0.38448533431E+03  0.17300000000E+03 0. -1.
<mgrwt>
<rscale>  2 0.23167578E+03</rscale>
<asrwt>0</asrwt>
<pdfrwt beam="1">  1       21 0.13795707E-01 0.23167578E+03</pdfrwt>
<pdfrwt beam="2">  1       21 0.93774238E-01 0.23167578E+03</pdfrwt>
<totfact> 0.42761887E+04</totfact>
</mgrwt>
</event>
<event>
 4    1  0.3902417E-001  0.2345442E+03  0.7546771E-02  0.1123482E+00
         21   -1    0    0  503  502  0.00000000000E+00  0.00000000000E+00  0.17251987292E+04  0.17251987292E+04  0.00000000000E+00 0. -1.
         21   -1    0    0  501  503 -0.00000000000E+00 -0.00000000000E+00 -0.32256373105E+02  0.32256373105E+02  0.00000000000E+00 0. -1.
          6    1    1    2  501    0 -0.11440214851E+03 -0.10951773486E+03  0.75240700486E+03  0.78811629015E+03  0.17300000000E+03 0. -1.
         -6    1    1    2    0  502  0.11440214851E+03  0.10951773486E+03  0.94053535122E+03  0.96933881214E+03  0.17300000000E+03 0. -1.
<mgrwt>
<rscale>  2 0.23454421E+03</rscale>
<asrwt>0</asrwt>
<pdfrwt beam="1">  1       21 0.26541512E+00 0.23454421E+03</pdfrwt>
<pdfrwt beam="2">  1       21 0.49625203E-02 0.23454421E+03</pdfrwt>
<totfact> 0.14189668E+04</totfact>
</mgrwt>
</event>
<event>
 4    1  0.3902417E-001  0.2361202E+03  0.7546771E-02  0.1122405E+00
         21   -1    0    0  503  502  0.00000000000E+00  0.00000000000E+00  0.41213449403E+02  0.41213449403E+02  0.00000000000E+00 0.  1.
         21   -1    0    0  501  503 -0.00000000000E+00 -0.00000000000E+00 -0.16033300056E+04  0.16033300056E+04  0.00000000000E+00 0. -1.
          6    1    1    2  501    0 -0.12599390875E+03  0.99746164038E+02 -0.11061084717E+04  0.11310299348E+04  0.17300000000E+03 0. -1.
         -6    1    1    2    0  502  0.12599390875E+03 -0.99746164038E+02 -0.45600808445E+03  0.51351352014E+03  0.17300000000E+03 0.  1.
<mgrwt>
<rscale>  2 0.23612023E+03</rscale>
<asrwt>0</asrwt>
<pdfrwt beam="1">  1       21 0.63405310E-02 0.23612023E+03</pdfrwt>
<pdfrwt beam="2">  1       21 0.24666614E+00 0.23612023E+03</pdfrwt>
<totfact> 0.12023507E+04</totfact>
</mgrwt>
</event>
<event>
 4    1  0.3902417E-001  0.3112027E+03  0.7546771E-02  0.1079771E+00
         21   -1    0    0  501  502  0.00000000000E+00  0.00000000000E+00  0.21877763788E+04  0.21877763788E+04  0.00000000000E+00 0.  1.
         21   -1    0    0  502  503 -0.00000000000E+00 -0.00000000000E+00 -0.52933490625E+02  0.52933490625E+02  0.00000000000E+00 0. -1.
          6    1    1    2  501    0 -0.22807887210E+03  0.12205787352E+03  0.15207393192E+04  0.15522548674E+04  0.17300000000E+03 0. -1.
         -6    1    1    2    0  503  0.22807887210E+03 -0.12205787352E+03  0.61410356892E+03  0.68845500198E+03  0.17300000000E+03 0. -1.
<mgrwt>
<rscale>  2 0.31120266E+03</rscale>
<asrwt>0</asrwt>
<pdfrwt beam="1">  1       21 0.33658091E+00 0.31120266E+03</pdfrwt>
<pdfrwt beam="2">  1       21 0.81436156E-02 0.31120266E+03</pdfrwt>
<totfact> 0.21576495E+03</totfact>
</mgrwt>
</event>
<event>
 4    1  0.3902417E-001  0.3681600E+03  0.7546771E-02  0.1055399E+00
         21   -1    0    0  501  502  0.00000000000E+00  0.00000000000E+00  0.97269129903E+02  0.97269129903E+02  0.00000000000E+00 0. -1.
         21   -1    0    0  502  503 -0.00000000000E+00 -0.00000000000E+00 -0.17512130140E+04  0.17512130140E+04  0.00000000000E+00 0. -1.
          6    1    1    2  501    0 -0.29712853639E+03  0.13163357283E+03 -0.40923736969E+03  0.55046978971E+03  0.17300000000E+03 0. -1.
         -6    1    1    2    0  503  0.29712853639E+03 -0.13163357283E+03 -0.12447065144E+04  0.12980123542E+04  0.17300000000E+03 0. -1.
<mgrwt>
<rscale>  2 0.36815997E+03</rscale>
<asrwt>0</asrwt>
<pdfrwt beam="1">  1       21 0.14964483E-01 0.36815997E+03</pdfrwt>
<pdfrwt beam="2">  1       21 0.26941737E+00 0.36815997E+03</pdfrwt>
<totfact> 0.17386272E+03</totfact>
</mgrwt>
</event>
<event>
 4    1  0.3902417E-001  0.1756111E+03  0.7546771E-02  0.1172119E+00
         21   -1    0    0  503  502  0.00000000000E+00  0.00000000000E+00  0.10214909157E+04  0.10214909157E+04  0.00000000000E+00 0.  1.
         21   -1    0    0  501  503 -0.00000000000E+00 -0.00000000000E+00 -0.33194424214E+02  0.33194424214E+02  0.00000000000E+00 0.  1.
          6    1    1    2  501    0 -0.18149105673E+02  0.24101538329E+02  0.65278659321E+03  0.67599527399E+03  0.17300000000E+03 0.  1.
         -6    1    1    2    0  502  0.18149105673E+02 -0.24101538329E+02  0.33550989828E+03  0.37869006593E+03  0.17300000000E+03 0.  1.
<mgrwt>
<rscale>  2 0.17561114E+03</rscale>
<asrwt>0</asrwt>
<pdfrwt beam="1">  1       21 0.15715242E+00 0.17561114E+03</pdfrwt>
<pdfrwt beam="2">  1       21 0.51068353E-02 0.17561114E+03</pdfrwt>
<totfact> 0.69182656E+04</totfact>
</mgrwt>
</event>
<event>
 4    1  0.3902417E-001  0.2472459E+03  0.7546771E-02  0.1115058E+00
         21   -1    0    0  501  502  0.00000000000E+00  0.00000000000E+00  0.40825058459E+03  0.40825058459E+03  0.00000000000E+00 0. -1.
         21   -1    0    0  502  503 -0.00000000000E+00 -0.00000000000E+00 -0.15049231503E+03  0.15049231503E+03  0.00000000000E+00 0.  1.
          6    1    1    2  501    0 -0.41315604816E+02 -0.17173973787E+03  0.14866150286E+03  0.28849741628E+03  0.17300000000E+03 0. -1.
         -6    1    1    2    0  503  0.41315604816E+02  0.17173973787E+03  0.10909676671E+03  0.27024548335E+03  0.17300000000E+03 0. -1.
<mgrwt>
<rscale>  2 0.24724586E+03</rscale>
<asrwt>0</asrwt>
<pdfrwt beam="1">  1       21 0.62807782E-01 0.24724586E+03</pdfrwt>
<pdfrwt beam="2">  1       21 0.23152664E-01 0.24724586E+03</pdfrwt>
<totfact> 0.40101082E+04</totfact>
</mgrwt>
</event>
<event>
 4    1  0.3902417E-001  0.1815750E+03  0.7546771E-02  0.1166287E+00
         21   -1    0    0  501  502  0.00000000000E+00  0.00000000000E+00  0.75917246124E+03  0.75917246124E+03  0.00000000000E+00 0. -1.
         21   -1    0    0  502  503 -0.00000000000E+00 -0.00000000000E+00 -0.45102230508E+02  0.45102230508E+02  0.00000000000E+00 0. -1.
          6    1    1    2  501    0  0.53829883823E+02 -0.11950814767E+02  0.27956045804E+03  0.33335195824E+03  0.17300000000E+03 0. -1.
         -6    1    1    2    0  503 -0.53829883823E+02  0.11950814767E+02  0.43450977269E+03  0.47092273350E+03  0.17300000000E+03 0. -1.
<mgrwt>
<rscale>  2 0.18157499E+03</rscale>
<asrwt>0</asrwt>
<pdfrwt beam="1">  1       21 0.11679575E+00 0.18157499E+03</pdfrwt>
<pdfrwt beam="2">  1       21 0.69388052E-02 0.18157499E+03</pdfrwt>
<totfact> 0.87122288E+04</totfact>
</mgrwt>
</event>
<event>
 4    1  0.3902417E-001  0.1890297E+03  0.7546771E-02  0.1159339E+00
         21   -1    0    0  503  502  0.00000000000E+00  0.00000000000E+00  0.80632980508E+03  0.80632980508E+03  0.00000000000E+00 0. -1.
         21   -1    0    0  501  503 -0.00000000000E+00 -0.00000000000E+00 -0.47115706710E+02  0.47115706710E+02  0.00000000000E+00 0. -1.
          6    1    1    2  501    0  0.50563682252E+02 -0.56978460772E+02  0.27556158703E+03  0.33416525732E+03  0.17300000000E+03 0. -1.
         -6    1    1    2    0  502 -0.50563682252E+02  0.56978460772E+02  0.48365251135E+03  0.51928025447E+03  0.17300000000E+03 0. -1.
<mgrwt>
<rscale>  2 0.18902971E+03</rscale>
<asrwt>0</asrwt>
<pdfrwt beam="1">  1       21 0.12405073E+00 0.18902971E+03</pdfrwt>
<pdfrwt beam="2">  1       21 0.72485709E-02 0.18902971E+03</pdfrwt>
<totfact> 0.69361975E+04</totfact>
</mgrwt>
</event>
<event>
 4    1  0.3902417E-001  0.1990710E+03  0.7546771E-02  0.1150525E+00
         21   -1    0    0  501  502  0.00000000000E+00  0.00000000000E+00  0.70927060538E+02  0.70927060538E+02  0.00000000000E+00 0.  1.
         21   -1    0    0  502  503 -0.00000000000E+00 -0.00000000000E+00 -0.63247612472E+03  0.63247612472E+03  0.00000000000E+00 0.  1.
          6    1    1    2  501    0 -0.41847178503E+02  0.89157693483E+02 -0.16068272098E+03  0.25582849231E+03  0.17300000000E+03 0.  1.
         -6    1    1    2    0  503  0.41847178503E+02 -0.89157693483E+02 -0.40086634320E+03  0.44757469294E+03  0.17300000000E+03 0.  1.
<mgrwt>
<rscale>  2 0.19907104E+03</rscale>
<asrwt>0</asrwt>
<pdfrwt beam="1">  1       21 0.10911855E-01 0.19907104E+03</pdfrwt>
<pdfrwt beam="2">  1       21 0.97304022E-01 0.19907104E+03</pdfrwt>
<totfact> 0.60687086E+04</totfact>
</mgrwt>
</event>
<event>
 4    1  0.3902417E-001  0.2107309E+03  0.7546771E-02  0.1140988E+00
         21   -1    0    0  501  502  0.00000000000E+00  0.00000000000E+00  0.14117655011E+03  0.14117655011E+03  0.00000000000E+00 0.  1.
         21   -1    0    0  502  503 -0.00000000000E+00 -0.00000000000E+00 -0.36508718643E+03  0.36508718643E+03  0.00000000000E+00 0. -1.
          6    1    1    2  501    0 -0.92352861097E+02  0.77132778127E+02 -0.17779176675E+02  0.21147958657E+03  0.17300000000E+03 0. -1.
         -6    1    1    2    0  503  0.92352861097E+02 -0.77132778127E+02 -0.20613145965E+03  0.29478414997E+03  0.17300000000E+03 0. -1.
<mgrwt>
<rscale>  2 0.21073091E+03</rscale>
<asrwt>0</asrwt>
<pdfrwt beam="1">  1       21 0.21719469E-01 0.21073091E+03</pdfrwt>
<pdfrwt beam="2">  1       21 0.56167259E-01 0.21073091E+03</pdfrwt>
<totfact> 0.58503188E+04</totfact>
</mgrwt>
</event>
<event>
 4    1  0.3902417E-001  0.2519510E+03  0.7546771E-02  0.1112078E+00
         21   -1    0    0  503  502  0.00000000000E+00  0.00000000000E+00  0.21636444042E+03  0.21636444042E+03  0.00000000000E+00 0.  1.
         21   -1    0    0  501  503 -0.00000000000E+00 -0.00000000000E+00 -0.91547134989E+03  0.91547134989E+03  0.00000000000E+00 0. -1.
          6    1    1    2  501    0 -0.10549678902E+03 -0.14973551470E+03 -0.81605643594E+03  0.85406522204E+03  0.17300000000E+03 0. -1.
         -6    1    1    2    0  502  0.10549678902E+03  0.14973551470E+03  0.11694952647E+03  0.27777056827E+03  0.17300000000E+03 0.  1.
<mgrwt>
<rscale>  2 0.25195098E+03</rscale>
<asrwt>0</asrwt>
<pdfrwt beam="1">  1       21 0.33286836E-01 0.25195098E+03</pdfrwt>
<pdfrwt beam="2">  1       21 0.14084175E+00 0.25195098E+03</pdfrwt>
<totfact> 0.29199754E+03</totfact>
</mgrwt>
</event>
<event>
 4    1  0.3902417E-001  0.1824012E+03  0.7546771E-02  0.1165499E+00
         21   -1    0    0  501  502  0.00000000000E+00  0.00000000000E+00  0.40496442475E+03  0.40496442475E+03  0.00000000000E+00 0. -1.
         21   -1    0    0  502  503 -0.00000000000E+00 -0.00000000000E+00 -0.86175775060E+02  0.86175775060E+02  0.00000000000E+00 0. -1.
          6    1    1    2  501    0  0.46960307326E+02 -0.33703423710E+02  0.21243298853E+03  0.27999636756E+03  0.17300000000E+03 0. -1.
         -6    1    1    2    0  503 -0.46960307326E+02  0.33703423710E+02  0.10635566116E+03  0.21114383224E+03  0.17300000000E+03 0. -1.
<mgrwt>
<rscale>  2 0.18240118E+03</rscale>
<asrwt>0</asrwt>
<pdfrwt beam="1">  1       21 0.62302218E-01 0.18240118E+03</pdfrwt>
<pdfrwt beam="2">  1       21 0.13257812E-01 0.18240118E+03</pdfrwt>
<totfact> 0.11766524E+05</totfact>
</mgrwt>
</event>
<event>
 4    1  0.3902417E-001  0.3520636E+03  0.7546771E-02  0.1061771E+00
         21   -1    0    0  503  502  0.00000000000E+00  0.00000000000E+00  0.39136662947E+03  0.39136662947E+03  0.00000000000E+00 0.  1.
         21   -1    0    0  501  503 -0.00000000000E+00 -0.00000000000E+00 -0.32496784924E+03  0.32496784924E+03  0.00000000000E+00 0. -1.
          6    1    1    2  501    0  0.11681647061E+03 -0.28350258172E+03  0.90302686858E+02  0.36346028243E+03  0.17300000000E+03 0. -1.
         -6    1    1    2    0  502 -0.11681647061E+03  0.28350258172E+03 -0.23903906635E+02  0.35287419628E+03  0.17300000000E+03 0.  1.
<mgrwt>
<rscale>  2 0.35206363E+03</rscale>
<asrwt>0</asrwt>
<pdfrwt beam="1">  1       21 0.60210250E-01 0.35206363E+03</pdfrwt>
<pdfrwt beam="2">  1       21 0.49995054E-01 0.35206363E+03</pdfrwt>
<totfact> 0.90195868E+03</totfact>
</mgrwt>
</event>
<event>
 4    1  0.3902417E-001  0.1772327E+03  0.7546771E-02  0.1170508E+00
         21   -1    0    0  503  502  0.00000000000E+00  0.00000000000E+00  0.49380851262E+02  0.49380851262E+02  0.00000000000E+00 0.  1.
         21   -1    0    0  501  503 -0.00000000000E+00 -0.00000000000E+00 -0.63696404860E+03  0.63696404860E+03  0.00000000000E+00 0.  1.
          6    1    1    2  501    0 -0.20093216654E+02 -0.32843430573E+02 -0.30639105228E+03  0.35395890327E+03  0.17300000000E+03 0.  1.
         -6    1    1    2    0  502  0.20093216654E+02  0.32843430573E+02 -0.28119214506E+03  0.33238599659E+03  0.17300000000E+03 0.  1.
<mgrwt>
<rscale>  2 0.17723270E+03</rscale>
<asrwt>0</asrwt>
<pdfrwt beam="1">  1       21 0.75970546E-02 0.17723270E+03</pdfrwt>
<pdfrwt beam="2">  1       21 0.97994461E-01 0.17723270E+03</pdfrwt>
<totfact> 0.11375195E+05</totfact>
</mgrwt>
</event>
<event>
 4    1  0.3902417E-001  0.2990687E+03  0.7546771E-02  0.1085707E+00
         21   -1    0    0  501  502  0.00000000000E+00  0.00000000000E+00  0.46920779289E+03  0.46920779289E+03  0.00000000000E+00 0. -1.
         21   -1    0    0  502  503 -0.00000000000E+00 -0.00000000000E+00 -0.19943450833E+03  0.19943450833E+03  0.00000000000E+00 0.  1.
          6    1    1    2  501    0 -0.13215371178E+03  0.20505726150E+03  0.64616026878E+02  0.30596946737E+03  0.17300000000E+03 0. -1.
         -6    1    1    2    0  503  0.13215371178E+03 -0.20505726150E+03  0.20515725768E+03  0.36267283385E+03  0.17300000000E+03 0.  1.
<mgrwt>
<rscale>  2 0.29906869E+03</rscale>
<asrwt>0</asrwt>
<pdfrwt beam="1">  1       21 0.72185814E-01 0.29906869E+03</pdfrwt>
<pdfrwt beam="2">  1       21 0.30682232E-01 0.29906869E+03</pdfrwt>
<totfact> 0.16713308E+04</totfact>
</mgrwt>
</event>
<event>
 4    1  0.3902417E-001  0.2026006E+03  0.7546771E-02  0.1147563E+00
         21   -1    0    0  503  502  0.00000000000E+00  0.00000000000E+00  0.23099228755E+03  0.23099228755E+03  0.00000000000E+00 0.  1.
         21   -1    0    0  501  503 -0.00000000000E+00 -0.00000000000E+00 -0.18897791069E+03  0.18897791069E+03  0.00000000000E+00 0.  1.
          6    1    1    2  501    0 -0.80133406357E+02 -0.68532017031E+02  0.72308058448E+02  0.21511730634E+03  0.17300000000E+03 0.  1.
         -6    1    1    2    0  502  0.80133406357E+02  0.68532017031E+02 -0.30293681594E+02  0.20485289189E+03  0.17300000000E+03 0.  1.
<mgrwt>
<rscale>  2 0.20260059E+03</rscale>
<asrwt>0</asrwt>
<pdfrwt beam="1">  1       21 0.35537275E-01 0.20260059E+03</pdfrwt>
<pdfrwt beam="2">  1       21 0.29073524E-01 0.20260059E+03</pdfrwt>
<totfact> 0.86116294E+04</totfact>
</mgrwt>
</event>
<event>
 4    1  0.3902417E-001  0.1957783E+03  0.7546771E-02  0.1153351E+00
         21   -1    0    0  501  502  0.00000000000E+00  0.00000000000E+00  0.21982514869E+03  0.21982514869E+03  0.00000000000E+00 0. -1.
         21   -1    0    0  502  503 -0.00000000000E+00 -0.00000000000E+00 -0.18855949424E+03  0.18855949424E+03  0.00000000000E+00 0. -1.
          6    1    1    2  501    0  0.76051112565E+02  0.51150430330E+02 -0.40397357217E+02  0.19990268811E+03  0.17300000000E+03 0. -1.
         -6    1    1    2    0  503 -0.76051112565E+02 -0.51150430330E+02  0.71663011667E+02  0.20848195482E+03  0.17300000000E+03 0. -1.
<mgrwt>
<rscale>  2 0.19577829E+03</rscale>
<asrwt>0</asrwt>
<pdfrwt beam="1">  1       21 0.33819254E-01 0.19577829E+03</pdfrwt>
<pdfrwt beam="2">  1       21 0.29009153E-01 0.19577829E+03</pdfrwt>
<totfact> 0.95697763E+04</totfact>
</mgrwt>
</event>
<event>
 4    1  0.3902417E-001  0.1986803E+03  0.7546771E-02  0.1150857E+00
         21   -1    0    0  501  502  0.00000000000E+00  0.00000000000E+00  0.14450551970E+03  0.14450551970E+03  0.00000000000E+00 0. -1.
         21   -1    0    0  502  503 -0.00000000000E+00 -0.00000000000E+00 -0.40150883998E+03  0.40150883998E+03  0.00000000000E+00 0. -1.
          6    1    1    2  501    0 -0.97448579839E+02  0.69740105242E+01  0.25850916665E+02  0.20035501598E+03  0.17300000000E+03 0. -1.
         -6    1    1    2    0  503  0.97448579839E+02 -0.69740105242E+01 -0.28285423694E+03  0.34565934370E+03  0.17300000000E+03 0. -1.
<mgrwt>
<rscale>  2 0.19868030E+03</rscale>
<asrwt>0</asrwt>
<pdfrwt beam="1">  1       21 0.22231619E-01 0.19868030E+03</pdfrwt>
<pdfrwt beam="2">  1       21 0.61770590E-01 0.19868030E+03</pdfrwt>
<totfact> 0.45925276E+04</totfact>
</mgrwt>
</event>
<event>
 4    1  0.3902417E-001  0.2091387E+03  0.7546771E-02  0.1142250E+00
         21   -1    0    0  503  502  0.00000000000E+00  0.00000000000E+00  0.13415808568E+03  0.13415808568E+03  0.00000000000E+00 0.  1.
         21   -1    0    0  501  503 -0.00000000000E+00 -0.00000000000E+00 -0.38328187384E+03  0.38328187384E+03  0.00000000000E+00 0.  1.
          6    1    1    2  501    0 -0.81956889911E+02 -0.84220296389E+02 -0.22455770587E+03  0.30686341163E+03  0.17300000000E+03 0.  1.
         -6    1    1    2    0  502  0.81956889911E+02  0.84220296389E+02 -0.24566082287E+02  0.21057654790E+03  0.17300000000E+03 0.  1.
<mgrwt>
<rscale>  2 0.20913869E+03</rscale>
<asrwt>0</asrwt>
<pdfrwt beam="1">  1       21 0.20639706E-01 0.20913869E+03</pdfrwt>
<pdfrwt beam="2">  1       21 0.58966441E-01 0.20913869E+03</pdfrwt>
<totfact> 0.58081520E+04</totfact>
</mgrwt>
</event>
<event>
 4    1  0.3902417E-001  0.2126188E+03  0.7546771E-02  0.1139509E+00
         21   -1    0    0  501  502  0.00000000000E+00  0.00000000000E+00  0.36619587330E+03  0.36619587330E+03  0.00000000000E+00 0. -1.
         21   -1    0    0  502  503 -0.00000000000E+00 -0.00000000000E+00 -0.12347050805E+03  0.12347050805E+03  0.00000000000E+00 0.  1.
          6    1    1    2  501    0  0.12329255694E+03 -0.87576877714E+01  0.11818035125E+03  0.24325572370E+03  0.17300000000E+03 0.  1.
         -6    1    1    2    0  503 -0.12329255694E+03  0.87576877714E+01  0.12454501400E+03  0.24641065765E+03  0.17300000000E+03 0. -1.
<mgrwt>
<rscale>  2 0.21261879E+03</rscale>
<asrwt>0</asrwt>
<pdfrwt beam="1">  1       21 0.56337826E-01 0.21261879E+03</pdfrwt>
<pdfrwt beam="2">  1       21 0.18995463E-01 0.21261879E+03</pdfrwt>
<totfact> 0.74667983E+04</totfact>
</mgrwt>
</event>
<event>
 4    1  0.3902417E-001  0.2157585E+03  0.7546771E-02  0.1137085E+00
         21   -1    0    0  501  502  0.00000000000E+00  0.00000000000E+00  0.74691493688E+02  0.74691493688E+02  0.00000000000E+00 0.  1.
         21   -1    0    0  502  503 -0.00000000000E+00 -0.00000000000E+00 -0.62908144360E+03  0.62908144360E+03  0.00000000000E+00 0.  1.
          6    1    1    2  501    0  0.12286502029E+03  0.39075649699E+02 -0.31106491345E+03  0.37856716708E+03  0.17300000000E+03 0.  1.
         -6    1    1    2    0  503 -0.12286502029E+03 -0.39075649699E+02 -0.24332503646E+03  0.32520577021E+03  0.17300000000E+03 0.  1.
<mgrwt>
<rscale>  2 0.21575848E+03</rscale>
<asrwt>0</asrwt>
<pdfrwt beam="1">  1       21 0.11490998E-01 0.21575848E+03</pdfrwt>
<pdfrwt beam="2">  1       21 0.96781767E-01 0.21575848E+03</pdfrwt>
<totfact> 0.55599607E+04</totfact>
</mgrwt>
</event>
<event>
 4    1  0.3902417E-001  0.1801592E+03  0.7546771E-02  0.1167649E+00
         21   -1    0    0  503  502  0.00000000000E+00  0.00000000000E+00  0.56016020938E+02  0.56016020938E+02  0.00000000000E+00 0.  1.
         21   -1    0    0  501  503 -0.00000000000E+00 -0.00000000000E+00 -0.58422911332E+03  0.58422911332E+03  0.00000000000E+00 0.  1.
          6    1    1    2  501    0 -0.48563243209E+02 -0.13036871229E+02 -0.23509192965E+03  0.29618501649E+03  0.17300000000E+03 0.  1.
         -6    1    1    2    0  502  0.48563243209E+02  0.13036871229E+02 -0.29312116273E+03  0.34406011777E+03  0.17300000000E+03 0.  1.
<mgrwt>
<rscale>  2 0.18015923E+03</rscale>
<asrwt>0</asrwt>
<pdfrwt beam="1">  1       21 0.86178489E-02 0.18015923E+03</pdfrwt>
<pdfrwt beam="2">  1       21 0.89881407E-01 0.18015923E+03</pdfrwt>
<totfact> 0.11160402E+05</totfact>
</mgrwt>
</event>
<event>
 4    1  0.3902417E-001  0.2038572E+03  0.7546771E-02  0.1146525E+00
         21   -1    0    0  501  502  0.00000000000E+00  0.00000000000E+00  0.43455932769E+03  0.43455932769E+03  0.00000000000E+00 0. -1.
         21   -1    0    0  502  503 -0.00000000000E+00 -0.00000000000E+00 -0.98246426667E+02  0.98246426667E+02  0.00000000000E+00 0.  1.
          6    1    1    2  501    0 -0.10375142215E+03 -0.29400504796E+02  0.21161493340E+03  0.29383435354E+03  0.17300000000E+03 0. -1.
         -6    1    1    2    0  503  0.10375142215E+03  0.29400504796E+02  0.12469796763E+03  0.23897140083E+03  0.17300000000E+03 0.  1.
<mgrwt>
<rscale>  2 0.20385717E+03</rscale>
<asrwt>0</asrwt>
<pdfrwt beam="1">  1       21 0.66855280E-01 0.20385717E+03</pdfrwt>
<pdfrwt beam="2">  1       21 0.15114835E-01 0.20385717E+03</pdfrwt>
<totfact> 0.78907508E+04</totfact>
</mgrwt>
</event>
<event>
 4    1  0.3902417E-001  0.2055180E+03  0.7546771E-02  0.1145165E+00
         21   -1    0    0  503  502  0.00000000000E+00  0.00000000000E+00  0.18692450574E+03  0.18692450574E+03  0.00000000000E+00 0.  1.
         21   -1    0    0  501  503 -0.00000000000E+00 -0.00000000000E+00 -0.22766018598E+03  0.22766018598E+03  0.00000000000E+00 0.  1.
          6    1    1    2  501    0 -0.88103479424E+02  0.67427326150E+02 -0.38275840035E+02  0.20905192496E+03  0.17300000000E+03 0.  1.
         -6    1    1    2    0  502  0.88103479424E+02 -0.67427326150E+02 -0.24598402031E+01  0.20553276676E+03  0.17300000000E+03 0.  1.
<mgrwt>
<rscale>  2 0.20551805E+03</rscale>
<asrwt>0</asrwt>
<pdfrwt beam="1">  1       21 0.28757616E-01 0.20551805E+03</pdfrwt>
<pdfrwt beam="2">  1       21 0.35024644E-01 0.20551805E+03</pdfrwt>
<totfact> 0.90435209E+04</totfact>
</mgrwt>
</event>
<event>
 4    1  0.3902417E-001  0.2075380E+03  0.7546771E-02  0.1143531E+00
         21   -1    0    0  501  502  0.00000000000E+00  0.00000000000E+00  0.15972225929E+04  0.15972225929E+04  0.00000000000E+00 0. -1.
         21   -1    0    0  502  503 -0.00000000000E+00 -0.00000000000E+00 -0.33268481762E+02  0.33268481762E+02  0.00000000000E+00 0. -1.
          6    1    1    2  501    0  0.84944578545E+02  0.76989776352E+02  0.11367901477E+04  0.11555794421E+04  0.17300000000E+03 0. -1.
         -6    1    1    2    0  503 -0.84944578545E+02 -0.76989776352E+02  0.42716396345E+03  0.47491163258E+03  0.17300000000E+03 0. -1.
<mgrwt>
<rscale>  2 0.20753797E+03</rscale>
<asrwt>0</asrwt>
<pdfrwt beam="1">  1       21 0.24572649E+00 0.20753797E+03</pdfrwt>
<pdfrwt beam="2">  1       21 0.51182292E-02 0.20753797E+03</pdfrwt>
<totfact> 0.17986132E+04</totfact>
</mgrwt>
</event>
<event>
 4    1  0.3902417E-001  0.2532256E+03  0.7546771E-02  0.1111283E+00
         21   -1    0    0  503  502  0.00000000000E+00  0.00000000000E+00  0.16237463069E+04  0.16237463069E+04  0.00000000000E+00 0. -1.
         21   -1    0    0  501  503 -0.00000000000E+00 -0.00000000000E+00 -0.39690875445E+02  0.39690875445E+02  0.00000000000E+00 0.  1.
          6    1    1    2  501    0  0.12050373569E+03 -0.14026063463E+03  0.85106469787E+03  0.88793823878E+03  0.17300000000E+03 0.  1.
         -6    1    1    2    0  502 -0.12050373569E+03  0.14026063463E+03  0.73299073362E+03  0.77549894359E+03  0.17300000000E+03 0. -1.
<mgrwt>
<rscale>  2 0.25322558E+03</rscale>
<asrwt>0</asrwt>
<pdfrwt beam="1">  1       21 0.24980707E+00 0.25322558E+03</pdfrwt>
<pdfrwt beam="2">  1       21 0.61062898E-02 0.25322558E+03</pdfrwt>
<totfact> 0.12134166E+04</totfact>
</mgrwt>
</event>
<event>
 4    1  0.3902417E-001  0.2254345E+03  0.7546771E-02  0.1129895E+00
         21   -1    0    0  501  502  0.00000000000E+00  0.00000000000E+00  0.20874376647E+03  0.20874376647E+03  0.00000000000E+00 0. -1.
         21   -1    0    0  502  503 -0.00000000000E+00 -0.00000000000E+00 -0.24547890093E+03  0.24547890093E+03  0.00000000000E+00 0. -1.
          6    1    1    2  501    0  0.36423791584E+02  0.13987506437E+03  0.22294949776E+01  0.22544555191E+03  0.17300000000E+03 0. -1.
         -6    1    1    2    0  503 -0.36423791584E+02 -0.13987506437E+03 -0.38964629445E+02  0.22877711549E+03  0.17300000000E+03 0. -1.
<mgrwt>
<rscale>  2 0.22543453E+03</rscale>
<asrwt>0</asrwt>
<pdfrwt beam="1">  1       21 0.32114425E-01 0.22543453E+03</pdfrwt>
<pdfrwt beam="2">  1       21 0.37765985E-01 0.22543453E+03</pdfrwt>
<totfact> 0.62157388E+04</totfact>
</mgrwt>
</event>
<event>
 4    1  0.3902417E-001  0.1866555E+03  0.7546771E-02  0.1161513E+00
         21   -1    0    0  501  502  0.00000000000E+00  0.00000000000E+00  0.43209318112E+03  0.43209318112E+03  0.00000000000E+00 0.  1.
         21   -1    0    0  502  503 -0.00000000000E+00 -0.00000000000E+00 -0.80688079123E+02  0.80688079123E+02  0.00000000000E+00 0.  1.
          6    1    1    2  501    0 -0.25582822807E+02 -0.65244112924E+02  0.18249827749E+03  0.26104768986E+03  0.17300000000E+03 0.  1.
         -6    1    1    2    0  503  0.25582822807E+02  0.65244112924E+02  0.16890682451E+03  0.25173357039E+03  0.17300000000E+03 0.  1.
<mgrwt>
<rscale>  2 0.18665550E+03</rscale>
<asrwt>0</asrwt>
<pdfrwt beam="1">  1       21 0.66475873E-01 0.18665550E+03</pdfrwt>
<pdfrwt beam="2">  1       21 0.12413551E-01 0.18665550E+03</pdfrwt>
<totfact> 0.11486713E+05</totfact>
</mgrwt>
</event>
<event>
 4    1  0.3902417E-001  0.2914640E+03  0.7546771E-02  0.1089587E+00
         21   -1    0    0  501  502  0.00000000000E+00  0.00000000000E+00  0.88524921544E+02  0.88524921544E+02  0.00000000000E+00 0.  1.
         21   -1    0    0  502  503 -0.00000000000E+00 -0.00000000000E+00 -0.99441807772E+03  0.99441807772E+03  0.00000000000E+00 0. -1.
          6    1    1    2  501    0 -0.21385230047E+03  0.96381710861E+02 -0.35167178443E+03  0.45675407450E+03  0.17300000000E+03 0.  1.
         -6    1    1    2    0  503  0.21385230047E+03 -0.96381710861E+02 -0.55422137175E+03  0.62618892477E+03  0.17300000000E+03 0. -1.
<mgrwt>
<rscale>  2 0.29146396E+03</rscale>
<asrwt>0</asrwt>
<pdfrwt beam="1">  1       21 0.13619219E-01 0.29146396E+03</pdfrwt>
<pdfrwt beam="2">  1       21 0.15298739E+00 0.29146396E+03</pdfrwt>
<totfact> 0.12485997E+04</totfact>
</mgrwt>
</event>
<event>
 4    1  0.3902417E-001  0.2098213E+03  0.7546771E-02  0.1141708E+00
         21   -1    0    0  503  502  0.00000000000E+00  0.00000000000E+00  0.22521075984E+04  0.22521075984E+04  0.00000000000E+00 0.  1.
         21   -1    0    0  501  503 -0.00000000000E+00 -0.00000000000E+00 -0.19569021288E+02  0.19569021288E+02  0.00000000000E+00 0.  1.
          6    1    1    2  501    0  0.11178155521E+03 -0.40010523863E+02  0.10793415149E+04  0.10995467538E+04  0.17300000000E+03 0.  1.
         -6    1    1    2    0  502 -0.11178155521E+03  0.40010523863E+02  0.11531970622E+04  0.11721298658E+04  0.17300000000E+03 0.  1.
<mgrwt>
<rscale>  2 0.20982125E+03</rscale>
<asrwt>0</asrwt>
<pdfrwt beam="1">  1       21 0.34647789E+00 0.20982125E+03</pdfrwt>
<pdfrwt beam="2">  1       21 0.30106204E-02 0.20982125E+03</pdfrwt>
<totfact> 0.11317779E+04</totfact>
</mgrwt>
</event>
<event>
 4    1  0.3902417E-001  0.1829265E+03  0.7546771E-02  0.1165000E+00
         21   -1    0    0  501  502  0.00000000000E+00  0.00000000000E+00  0.93528657878E+02  0.93528657878E+02  0.00000000000E+00 0.  1.
         21   -1    0    0  502  503 -0.00000000000E+00 -0.00000000000E+00 -0.43362205521E+03  0.43362205521E+03  0.00000000000E+00 0. -1.
          6    1    1    2  501    0  0.59092897987E+02 -0.64149322272E+01 -0.59811231056E+02  0.19245650238E+03  0.17300000000E+03 0.  1.
         -6    1    1    2    0  503 -0.59092897987E+02  0.64149322272E+01 -0.28028216627E+03  0.33469421071E+03  0.17300000000E+03 0. -1.
<mgrwt>
<rscale>  2 0.18292655E+03</rscale>
<asrwt>0</asrwt>
<pdfrwt beam="1">  1       21 0.14389025E-01 0.18292655E+03</pdfrwt>
<pdfrwt beam="2">  1       21 0.66711084E-01 0.18292655E+03</pdfrwt>
<totfact> 0.87471788E+04</totfact>
</mgrwt>
</event>
<event>
 4    1  0.3902417E-001  0.2933407E+03  0.7546771E-02  0.1088618E+00
         21   -1    0    0  501  502  0.00000000000E+00  0.00000000000E+00  0.37930347069E+03  0.37930347069E+03  0.00000000000E+00 0. -1.
         21   -1    0    0  502  503 -0.00000000000E+00 -0.00000000000E+00 -0.22738852132E+03  0.22738852132E+03  0.00000000000E+00 0.  1.
          6    1    1    2  501    0 -0.21850398654E+03 -0.91519233179E+02  0.90582962528E+02  0.30700820067E+03  0.17300000000E+03 0.  1.
         -6    1    1    2    0  503  0.21850398654E+03  0.91519233179E+02  0.61331986844E+02  0.29968379133E+03  0.17300000000E+03 0. -1.
<mgrwt>
<rscale>  2 0.29334069E+03</rscale>
<asrwt>0</asrwt>
<pdfrwt beam="1">  1       21 0.58354380E-01 0.29334069E+03</pdfrwt>
<pdfrwt beam="2">  1       21 0.34982849E-01 0.29334069E+03</pdfrwt>
<totfact> 0.20606648E+04</totfact>
</mgrwt>
</event>
<event>
 4    1  0.3902417E-001  0.1937052E+03  0.7546771E-02  0.1155161E+00
         21   -1    0    0  503  502  0.00000000000E+00  0.00000000000E+00  0.16251642532E+04  0.16251642532E+04  0.00000000000E+00 0. -1.
         21   -1    0    0  501  503 -0.00000000000E+00 -0.00000000000E+00 -0.23230738310E+02  0.23230738310E+02  0.00000000000E+00 0.  1.
          6    1    1    2  501    0  0.79085364831E+02 -0.36581361732E+02  0.73634706517E+03  0.76139916689E+03  0.17300000000E+03 0. -1.
         -6    1    1    2    0  502 -0.79085364831E+02  0.36581361732E+02  0.86558644973E+03  0.88699582464E+03  0.17300000000E+03 0.  1.
<mgrwt>
<rscale>  2 0.19370517E+03</rscale>
<asrwt>0</asrwt>
<pdfrwt beam="1">  1       21 0.25002518E+00 0.19370517E+03</pdfrwt>
<pdfrwt beam="2">  1       21 0.35739610E-02 0.19370517E+03</pdfrwt>
<totfact> 0.31416768E+04</totfact>
</mgrwt>
</event>
<event>
 4    1  0.3902417E-001  0.2086298E+03  0.7546771E-02  0.1142656E+00
         21   -1    0    0  503  502  0.00000000000E+00  0.00000000000E+00  0.24347220709E+02  0.24347220709E+02  0.00000000000E+00 0. -1.
         21   -1    0    0  501  503 -0.00000000000E+00 -0.00000000000E+00 -0.18468205461E+04  0.18468205461E+04  0.00000000000E+00 0.  1.
          6    1    1    2  501    0  0.44976197889E+02 -0.10758502586E+03 -0.74389335051E+03  0.77259543947E+03  0.17300000000E+03 0. -1.
         -6    1    1    2    0  502 -0.44976197889E+02  0.10758502586E+03 -0.10785799749E+04  0.10985723274E+04  0.17300000000E+03 0.  1.
<mgrwt>
<rscale>  2 0.20862981E+03</rscale>
<asrwt>0</asrwt>
<pdfrwt beam="1">  1       21 0.37457262E-02 0.20862981E+03</pdfrwt>
<pdfrwt beam="2">  1       21 0.28412624E+00 0.20862981E+03</pdfrwt>
<totfact> 0.18152125E+04</totfact>
</mgrwt>
</event>
<event>
 4    1  0.3902417E-001  0.1954741E+03  0.7546771E-02  0.1153615E+00
         21   -1    0    0  503  502  0.00000000000E+00  0.00000000000E+00  0.19106668658E+04  0.19106668658E+04  0.00000000000E+00 0. -1.
         21   -1    0    0  501  503 -0.00000000000E+00 -0.00000000000E+00 -0.22047962657E+02  0.22047962657E+02  0.00000000000E+00 0. -1.
          6    1    1    2  501    0 -0.28355519265E+02 -0.86470070324E+02  0.64966811761E+03  0.67843848032E+03  0.17300000000E+03 0. -1.
         -6    1    1    2    0  502  0.28355519265E+02  0.86470070324E+02  0.12389507856E+04  0.12542763482E+04  0.17300000000E+03 0. -1.
<mgrwt>
<rscale>  2 0.19547406E+03</rscale>
<asrwt>0</asrwt>
<pdfrwt beam="1">  1       21 0.29394862E+00 0.19547406E+03</pdfrwt>
<pdfrwt beam="2">  1       21 0.33919958E-02 0.19547406E+03</pdfrwt>
<totfact> 0.19034043E+04</totfact>
</mgrwt>
</event>
<event>
 4    1  0.3902417E-001  0.1752669E+03  0.7546771E-02  0.1172464E+00
         21   -1    0    0  501  502  0.00000000000E+00  0.00000000000E+00  0.11069788064E+03  0.11069788064E+03  0.00000000000E+00 0.  1.
         21   -1    0    0  502  503 -0.00000000000E+00 -0.00000000000E+00 -0.27776786844E+03  0.27776786844E+03  0.00000000000E+00 0.  1.
          6    1    1    2  501    0  0.14908007931E+02 -0.23817027831E+02 -0.89583223241E+02  0.19683407581E+03  0.17300000000E+03 0.  1.
         -6    1    1    2    0  503 -0.14908007931E+02  0.23817027831E+02 -0.77486764566E+02  0.19163167326E+03  0.17300000000E+03 0.  1.
<mgrwt>
<rscale>  2 0.17526694E+03</rscale>
<asrwt>0</asrwt>
<pdfrwt beam="1">  1       21 0.17030443E-01 0.17526694E+03</pdfrwt>
<pdfrwt beam="2">  1       21 0.42733518E-01 0.17526694E+03</pdfrwt>
<totfact> 0.16467574E+05</totfact>
</mgrwt>
</event>
<event>
 4    1  0.3902417E-001  0.2192876E+03  0.7546771E-02  0.1134415E+00
         21   -1    0    0  503  502  0.00000000000E+00  0.00000000000E+00  0.46487875286E+03  0.46487875286E+03  0.00000000000E+00 0.  1.
         21   -1    0    0  501  503 -0.00000000000E+00 -0.00000000000E+00 -0.10351144575E+03  0.10351144575E+03  0.00000000000E+00 0.  1.
          6    1    1    2  501    0 -0.20541233157E+02 -0.13317691887E+03  0.17321454341E+03  0.27944643857E+03  0.17300000000E+03 0.  1.
         -6    1    1    2    0  502  0.20541233157E+02  0.13317691887E+03  0.18815276369E+03  0.28894376004E+03  0.17300000000E+03 0.  1.
<mgrwt>
<rscale>  2 0.21928756E+03</rscale>
<asrwt>0</asrwt>
<pdfrwt beam="1">  1       21 0.71519807E-01 0.21928756E+03</pdfrwt>
<pdfrwt beam="2">  1       21 0.15924838E-01 0.21928756E+03</pdfrwt>
<totfact> 0.61392327E+04</totfact>
</mgrwt>
</event>
<event>
 4    1  0.3902417E-001  0.1762332E+03  0.7546771E-02  0.1171499E+00
         21   -1    0    0  503  502  0.00000000000E+00  0.00000000000E+00  0.82497623302E+02  0.82497623302E+02  0.00000000000E+00 0.  1.
         21   -1    0    0  501  503 -0.00000000000E+00 -0.00000000000E+00 -0.38834655050E+03  0.38834655050E+03  0.00000000000E+00 0.  1.
          6    1    1    2  501    0  0.19451762301E+02  0.27399957082E+02 -0.19408941118E+03  0.26216183596E+03  0.17300000000E+03 0.  1.
         -6    1    1    2    0  502 -0.19451762301E+02 -0.27399957082E+02 -0.11175951602E+03  0.20868233784E+03  0.17300000000E+03 0.  1.
<mgrwt>
<rscale>  2 0.17623317E+03</rscale>
<asrwt>0</asrwt>
<pdfrwt beam="1">  1       21 0.12691942E-01 0.17623317E+03</pdfrwt>
<pdfrwt beam="2">  1       21 0.59745624E-01 0.17623317E+03</pdfrwt>
<totfact> 0.13955825E+05</totfact>
</mgrwt>
</event>
<event>
 4    1  0.3902417E-001  0.1750064E+03  0.7546771E-02  0.1172725E+00
         21   -1    0    0  503  502  0.00000000000E+00  0.00000000000E+00  0.17958373752E+03  0.17958373752E+03  0.00000000000E+00 0. -1.
         21   -1    0    0  501  503 -0.00000000000E+00 -0.00000000000E+00 -0.19291769082E+03  0.19291769082E+03  0.00000000000E+00 0. -1.
          6    1    1    2  501    0 -0.24029214599E+02 -0.10991790051E+02 -0.70092617446E+02  0.18852108005E+03  0.17300000000E+03 0.  1.
         -6    1    1    2    0  502  0.24029214599E+02  0.10991790051E+02  0.56758664139E+02  0.18398034829E+03  0.17300000000E+03 0.  1.
<mgrwt>
<rscale>  2 0.17500635E+03</rscale>
<asrwt>0</asrwt>
<pdfrwt beam="1">  1       21 0.27628267E-01 0.17500635E+03</pdfrwt>
<pdfrwt beam="2">  1       21 0.29679645E-01 0.17500635E+03</pdfrwt>
<totfact> 0.13685117E+05</totfact>
</mgrwt>
</event>
<event>
 4    1  0.3902417E-001  0.1968884E+03  0.7546771E-02  0.1152391E+00
         21   -1    0    0  501  502  0.00000000000E+00  0.00000000000E+00  0.35735252474E+02  0.35735252474E+02  0.00000000000E+00 0. -1.
         21   -1    0    0  502  503 -0.00000000000E+00 -0.00000000000E+00 -0.11026540825E+04  0.11026540825E+04  0.00000000000E+00 0. -1.
          6    1    1    2  501    0  0.28310971572E+02  0.89635565423E+02 -0.46099927680E+03  0.50128373095E+03  0.17300000000E+03 0.  1.
         -6    1    1    2    0  503 -0.28310971572E+02 -0.89635565423E+02 -0.60591955319E+03  0.63710560399E+03  0.17300000000E+03 0.  1.
<mgrwt>
<rscale>  2 0.19688841E+03</rscale>
<asrwt>0</asrwt>
<pdfrwt beam="1">  1       21 0.54977307E-02 0.19688841E+03</pdfrwt>
<pdfrwt beam="2">  1       21 0.16963910E+00 0.19688841E+03</pdfrwt>
<totfact> 0.49009398E+04</totfact>
</mgrwt>
</event>
<event>
 4    1  0.3902417E-001  0.2110710E+03  0.7546771E-02  0.1140721E+00
         21   -1    0    0  503  502  0.00000000000E+00  0.00000000000E+00  0.32350614903E+03  0.32350614903E+03  0.00000000000E+00 0.  1.
         21   -1    0    0  501  503 -0.00000000000E+00 -0.00000000000E+00 -0.14718935888E+03  0.14718935888E+03  0.00000000000E+00 0. -1.
          6    1    1    2  501    0  0.15544460927E+01 -0.12091140286E+03  0.28441953276E+02  0.21297870398E+03  0.17300000000E+03 0. -1.
         -6    1    1    2    0  502 -0.15544460927E+01  0.12091140286E+03  0.14787483688E+03  0.25771680392E+03  0.17300000000E+03 0.  1.
<mgrwt>
<rscale>  2 0.21107104E+03</rscale>
<asrwt>0</asrwt>
<pdfrwt beam="1">  1       21 0.49770177E-01 0.21107104E+03</pdfrwt>
<pdfrwt beam="2">  1       21 0.22644517E-01 0.21107104E+03</pdfrwt>
<totfact> 0.69751357E+04</totfact>
</mgrwt>
</event>
<event>
 4    1  0.3902417E-001  0.1823500E+03  0.7546771E-02  0.1165548E+00
         21   -1    0    0  503  502  0.00000000000E+00  0.00000000000E+00  0.16225274608E+03  0.16225274608E+03  0.00000000000E+00 0. -1.
         21   -1    0    0  501  503 -0.00000000000E+00 -0.00000000000E+00 -0.20559463815E+03  0.20559463815E+03  0.00000000000E+00 0. -1.
          6    1    1    2  501    0 -0.31543533162E+02  0.48244328216E+02 -0.32077111866E+02  0.18514980636E+03  0.17300000000E+03 0.  1.
         -6    1    1    2    0  502  0.31543533162E+02 -0.48244328216E+02 -0.11264780202E+02  0.18269757788E+03  0.17300000000E+03 0.  1.
<mgrwt>
<rscale>  2 0.18234996E+03</rscale>
<asrwt>0</asrwt>
<pdfrwt beam="1">  1       21 0.24961961E-01 0.18234996E+03</pdfrwt>
<pdfrwt beam="2">  1       21 0.31629944E-01 0.18234996E+03</pdfrwt>
<totfact> 0.14645717E+05</totfact>
</mgrwt>
</event>
<event>
 4    1  0.3902417E-001  0.2885261E+03  0.7546771E-02  0.1091121E+00
         21   -1    0    0  503  502  0.00000000000E+00  0.00000000000E+00  0.32535848899E+03  0.32535848899E+03  0.00000000000E+00 0. -1.
         21   -1    0    0  501  503 -0.00000000000E+00 -0.00000000000E+00 -0.51824619157E+03  0.51824619157E+03  0.00000000000E+00 0.  1.
          6    1    1    2  501    0 -0.21480250349E+03 -0.84724301193E+02 -0.39657330384E+03  0.49042604747E+03  0.17300000000E+03 0.  1.
         -6    1    1    2    0  502  0.21480250349E+03  0.84724301193E+02  0.20368560126E+03  0.35317863310E+03  0.17300000000E+03 0. -1.
<mgrwt>
<rscale>  2 0.28852612E+03</rscale>
<asrwt>0</asrwt>
<pdfrwt beam="1">  1       21 0.50055152E-01 0.28852612E+03</pdfrwt>
<pdfrwt beam="2">  1       21 0.79730183E-01 0.28852612E+03</pdfrwt>
<totfact> 0.49499785E+03</totfact>
</mgrwt>
</event>
<event>
 4    1  0.3902417E-001  0.1901011E+03  0.7546771E-02  0.1158370E+00
         21   -1    0    0  503  502  0.00000000000E+00  0.00000000000E+00  0.76615242371E+03  0.76615242371E+03  0.00000000000E+00 0. -1.
         21   -1    0    0  501  503 -0.00000000000E+00 -0.00000000000E+00 -0.47185229516E+02  0.47185229516E+02  0.00000000000E+00 0.  1.
          6    1    1    2  501    0  0.88605643163E+01 -0.78300152689E+02  0.35187504851E+03  0.39994308754E+03  0.17300000000E+03 0.  1.
         -6    1    1    2    0  502 -0.88605643163E+01  0.78300152689E+02  0.36709214569E+03  0.41339456568E+03  0.17300000000E+03 0. -1.
<mgrwt>
<rscale>  2 0.19010109E+03</rscale>
<asrwt>0</asrwt>
<pdfrwt beam="1">  1       21 0.11786959E+00 0.19010109E+03</pdfrwt>
<pdfrwt beam="2">  1       21 0.72592667E-02 0.19010109E+03</pdfrwt>
<totfact> 0.78502417E+04</totfact>
</mgrwt>
</event>
<event>
 4    1  0.3902417E-001  0.3070342E+03  0.7546771E-02  0.1081776E+00
         21   -1    0    0  501  502  0.00000000000E+00  0.00000000000E+00  0.53405513262E+03  0.53405513262E+03  0.00000000000E+00 0. -1.
         21   -1    0    0  502  503 -0.00000000000E+00 -0.00000000000E+00 -0.20138420128E+03  0.20138420128E+03  0.00000000000E+00 0. -1.
          6    1    1    2  501    0  0.21592009484E+03 -0.13311456648E+03  0.29555105460E+03  0.42616945109E+03  0.17300000000E+03 0. -1.
         -6    1    1    2    0  503 -0.21592009484E+03  0.13311456648E+03  0.37119876736E+02  0.30926988281E+03  0.17300000000E+03 0. -1.
<mgrwt>
<rscale>  2 0.30703416E+03</rscale>
<asrwt>0</asrwt>
<pdfrwt beam="1">  1       21 0.82162328E-01 0.30703416E+03</pdfrwt>
<pdfrwt beam="2">  1       21 0.30982185E-01 0.30703416E+03</pdfrwt>
<totfact> 0.12178018E+04</totfact>
</mgrwt>
</event>
<event>
 4    1  0.3902417E-001  0.2104932E+03  0.7546771E-02  0.1141176E+00
         21   -1    0    0  501  502  0.00000000000E+00  0.00000000000E+00  0.55797404703E+03  0.55797404703E+03  0.00000000000E+00 0.  1.
         21   -1    0    0  502  503 -0.00000000000E+00 -0.00000000000E+00 -0.79906494909E+02  0.79906494909E+02  0.00000000000E+00 0.  1.
          6    1    1    2  501    0 -0.87090826145E+02  0.82423213931E+02  0.21383330767E+03  0.30005346467E+03  0.17300000000E+03 0.  1.
         -6    1    1    2    0  503  0.87090826145E+02 -0.82423213931E+02  0.26423424446E+03  0.33782707727E+03  0.17300000000E+03 0.  1.
<mgrwt>
<rscale>  2 0.21049323E+03</rscale>
<asrwt>0</asrwt>
<pdfrwt beam="1">  1       21 0.85842159E-01 0.21049323E+03</pdfrwt>
<pdfrwt beam="2">  1       21 0.12293307E-01 0.21049323E+03</pdfrwt>
<totfact> 0.65290773E+04</totfact>
</mgrwt>
</event>
<event>
 4    1  0.3902417E-001  0.1731343E+03  0.7546771E-02  0.1174618E+00
         21   -1    0    0  503  502  0.00000000000E+00  0.00000000000E+00  0.76497531170E+02  0.76497531170E+02  0.00000000000E+00 0.  1.
         21   -1    0    0  501  503 -0.00000000000E+00 -0.00000000000E+00 -0.39200186483E+03  0.39200186483E+03  0.00000000000E+00 0.  1.
          6    1    1    2  501    0 -0.42351378121E+01 -0.53427050467E+01 -0.16237802711E+03  0.23736491859E+03  0.17300000000E+03 0.  1.
         -6    1    1    2    0  502  0.42351378121E+01  0.53427050467E+01 -0.15312630656E+03  0.23113447741E+03  0.17300000000E+03 0.  1.
<mgrwt>
<rscale>  2 0.17313429E+03</rscale>
<asrwt>0</asrwt>
<pdfrwt beam="1">  1       21 0.11768851E-01 0.17313429E+03</pdfrwt>
<pdfrwt beam="2">  1       21 0.60307980E-01 0.17313429E+03</pdfrwt>
<totfact> 0.15671819E+05</totfact>
</mgrwt>
</event>
<event>
 4    1  0.3902417E-001  0.1875028E+03  0.7546771E-02  0.1160733E+00
         21   -1    0    0  503  502  0.00000000000E+00  0.00000000000E+00  0.14285621290E+03  0.14285621290E+03  0.00000000000E+00 0. -1.
         21   -1    0    0  501  503 -0.00000000000E+00 -0.00000000000E+00 -0.25384253132E+03  0.25384253132E+03  0.00000000000E+00 0. -1.
          6    1    1    2  501    0  0.71726567649E+02 -0.91433516437E+01 -0.90128068391E+02  0.20803934748E+03  0.17300000000E+03 0. -1.
         -6    1    1    2    0  502 -0.71726567649E+02  0.91433516437E+01 -0.20858250036E+02  0.18865939675E+03  0.17300000000E+03 0. -1.
<mgrwt>
<rscale>  2 0.18750280E+03</rscale>
<asrwt>0</asrwt>
<pdfrwt beam="1">  1       21 0.21977879E-01 0.18750280E+03</pdfrwt>
<pdfrwt beam="2">  1       21 0.39052697E-01 0.18750280E+03</pdfrwt>
<totfact> 0.12248290E+05</totfact>
</mgrwt>
</event>
<event>
 4    1  0.3902417E-001  0.2161618E+03  0.7546771E-02  0.1136777E+00
         21   -1    0    0  501  502  0.00000000000E+00  0.00000000000E+00  0.49996208609E+02  0.49996208609E+02  0.00000000000E+00 0. -1.
         21   -1    0    0  502  503 -0.00000000000E+00 -0.00000000000E+00 -0.95469770037E+03  0.95469770037E+03  0.00000000000E+00 0. -1.
          6    1    1    2  501    0 -0.11992616729E+03 -0.49139145869E+02 -0.37944607514E+03  0.43669813967E+03  0.17300000000E+03 0. -1.
         -6    1    1    2    0  503  0.11992616729E+03  0.49139145869E+02 -0.52525541663E+03  0.56799576931E+03  0.17300000000E+03 0. -1.
<mgrwt>
<rscale>  2 0.21616184E+03</rscale>
<asrwt>0</asrwt>
<pdfrwt beam="1">  1       21 0.76917242E-02 0.21616184E+03</pdfrwt>
<pdfrwt beam="2">  1       21 0.14687657E+00 0.21616184E+03</pdfrwt>
<totfact> 0.40039831E+04</totfact>
</mgrwt>
</event>
<event>
 4    1  0.3902417E-001  0.2252256E+03  0.7546771E-02  0.1130046E+00
         21   -1    0    0  503  502  0.00000000000E+00  0.00000000000E+00  0.28462726341E+03  0.28462726341E+03  0.00000000000E+00 0.  1.
         21   -1    0    0  501  503 -0.00000000000E+00 -0.00000000000E+00 -0.23423609912E+03  0.23423609912E+03  0.00000000000E+00 0.  1.
          6    1    1    2  501    0 -0.38689316009E+01 -0.14416165811E+03 -0.10167142502E+03  0.24711056426E+03  0.17300000000E+03 0.  1.
         -6    1    1    2    0  502  0.38689316009E+01  0.14416165811E+03  0.15206258931E+03  0.27175279827E+03  0.17300000000E+03 0.  1.
<mgrwt>
<rscale>  2 0.22522556E+03</rscale>
<asrwt>0</asrwt>
<pdfrwt beam="1">  1       21 0.43788810E-01 0.22522556E+03</pdfrwt>
<pdfrwt beam="2">  1       21 0.36036323E-01 0.22522556E+03</pdfrwt>
<totfact> 0.36605622E+04</totfact>
</mgrwt>
</event>
<event>
 4    1  0.3902417E-001  0.1997561E+03  0.7546771E-02  0.1149945E+00
         21   -1    0    0  501  502  0.00000000000E+00  0.00000000000E+00  0.11314389037E+03  0.11314389037E+03  0.00000000000E+00 0.  1.
         21   -1    0    0  502  503 -0.00000000000E+00 -0.00000000000E+00 -0.36982821948E+03  0.36982821948E+03  0.00000000000E+00 0. -1.
          6    1    1    2  501    0 -0.47570850014E+02 -0.87809560349E+02 -0.18035645512E+03  0.26912999752E+03  0.17300000000E+03 0. -1.
         -6    1    1    2    0  503  0.47570850014E+02  0.87809560349E+02 -0.76327873996E+02  0.21384211234E+03  0.17300000000E+03 0.  1.
<mgrwt>
<rscale>  2 0.19975611E+03</rscale>
<asrwt>0</asrwt>
<pdfrwt beam="1">  1       21 0.17406752E-01 0.19975611E+03</pdfrwt>
<pdfrwt beam="2">  1       21 0.56896649E-01 0.19975611E+03</pdfrwt>
<totfact> 0.86436794E+04</totfact>
</mgrwt>
</event>
<event>
 4    1  0.3902417E-001  0.1755416E+03  0.7546771E-02  0.1172189E+00
         21   -1    0    0  503  502  0.00000000000E+00  0.00000000000E+00  0.19904741519E+04  0.19904741519E+04  0.00000000000E+00 0. -1.
         21   -1    0    0  501  503 -0.00000000000E+00 -0.00000000000E+00 -0.25008021832E+02  0.25008021832E+02  0.00000000000E+00 0. -1.
          6    1    1    2  501    0 -0.22883331728E+02 -0.19031848583E+02  0.36074203375E+03  0.40118533504E+03  0.17300000000E+03 0. -1.
         -6    1    1    2    0  502  0.22883331728E+02  0.19031848583E+02  0.16047240963E+04  0.16142968387E+04  0.17300000000E+03 0. -1.
<mgrwt>
<rscale>  2 0.17554161E+03</rscale>
<asrwt>0</asrwt>
<pdfrwt beam="1">  1       21 0.30622667E+00 0.17554161E+03</pdfrwt>
<pdfrwt beam="2">  1       21 0.38473896E-02 0.17554161E+03</pdfrwt>
<totfact> 0.13396066E+04</totfact>
</mgrwt>
</event>
<event>
 4    1  0.3902417E-001  0.2030712E+03  0.7546771E-02  0.1147173E+00
         21   -1    0    0  501  502  0.00000000000E+00  0.00000000000E+00  0.11081173675E+04  0.11081173675E+04  0.00000000000E+00 0. -1.
         21   -1    0    0  502  503 -0.00000000000E+00 -0.00000000000E+00 -0.37389459984E+02  0.37389459984E+02  0.00000000000E+00 0. -1.
          6    1    1    2  501    0  0.10801004379E+02  0.10579336535E+03  0.57455750753E+03  0.60938840431E+03  0.17300000000E+03 0. -1.
         -6    1    1    2    0  503 -0.10801004379E+02 -0.10579336535E+03  0.49617040003E+03  0.53611842322E+03  0.17300000000E+03 0. -1.
<mgrwt>
<rscale>  2 0.20307116E+03</rscale>
<asrwt>0</asrwt>
<pdfrwt beam="1">  1       21 0.17047957E+00 0.20307116E+03</pdfrwt>
<pdfrwt beam="2">  1       21 0.57522255E-02 0.20307116E+03</pdfrwt>
<totfact> 0.44584598E+04</totfact>
</mgrwt>
</event>
<event>
 4    1  0.3902417E-001  0.2813104E+03  0.7546771E-02  0.1094975E+00
         21   -1    0    0  501  502  0.00000000000E+00  0.00000000000E+00  0.99702278248E+02  0.99702278248E+02  0.00000000000E+00 0. -1.
         21   -1    0    0  502  503 -0.00000000000E+00 -0.00000000000E+00 -0.81390628991E+03  0.81390628991E+03  0.00000000000E+00 0.  1.
          6    1    1    2  501    0 -0.19550397074E+03  0.10480804787E+03 -0.42904504578E+03  0.51304500854E+03  0.17300000000E+03 0. -1.
         -6    1    1    2    0  503  0.19550397074E+03 -0.10480804787E+03 -0.28515896588E+03  0.40056355962E+03  0.17300000000E+03 0.  1.
<mgrwt>
<rscale>  2 0.28131038E+03</rscale>
<asrwt>0</asrwt>
<pdfrwt beam="1">  1       21 0.15338812E-01 0.28131038E+03</pdfrwt>
<pdfrwt beam="2">  1       21 0.12521636E+00 0.28131038E+03</pdfrwt>
<totfact> 0.17016182E+04</totfact>
</mgrwt>
</event>
<event>
 4    1  0.3902417E-001  0.2738220E+03  0.7546771E-02  0.1099112E+00
         21   -1    0    0  501  502  0.00000000000E+00  0.00000000000E+00  0.21144917367E+03  0.21144917367E+03  0.00000000000E+00 0. -1.
         21   -1    0    0  502  503 -0.00000000000E+00 -0.00000000000E+00 -0.36793385627E+03  0.36793385627E+03  0.00000000000E+00 0. -1.
          6    1    1    2  501    0 -0.13373682788E+03  0.16481491925E+03 -0.23080969104E+02  0.27479306373E+03  0.17300000000E+03 0. -1.
         -6    1    1    2    0  503  0.13373682788E+03 -0.16481491925E+03 -0.13340371350E+03  0.30458996621E+03  0.17300000000E+03 0. -1.
<mgrwt>
<rscale>  2 0.27382202E+03</rscale>
<asrwt>0</asrwt>
<pdfrwt beam="1">  1       21 0.32530642E-01 0.27382202E+03</pdfrwt>
<pdfrwt beam="2">  1       21 0.56605208E-01 0.27382202E+03</pdfrwt>
<totfact> 0.25637557E+04</totfact>
</mgrwt>
</event>
<event>
 4    1  0.3902417E-001  0.2370615E+03  0.7546771E-02  0.1121766E+00
         21   -1    0    0  501  502  0.00000000000E+00  0.00000000000E+00  0.56281509205E+03  0.56281509205E+03  0.00000000000E+00 0. -1.
         21   -1    0    0  502  503 -0.00000000000E+00 -0.00000000000E+00 -0.10406849670E+03  0.10406849670E+03  0.00000000000E+00 0. -1.
          6    1    1    2  501    0 -0.57046168044E+02  0.15170662581E+03  0.16225505549E+03  0.28727141980E+03  0.17300000000E+03 0. -1.
         -6    1    1    2    0  503  0.57046168044E+02 -0.15170662581E+03  0.29649153986E+03  0.37961216894E+03  0.17300000000E+03 0. -1.
<mgrwt>
<rscale>  2 0.23706152E+03</rscale>
<asrwt>0</asrwt>
<pdfrwt beam="1">  1       21 0.86586935E-01 0.23706152E+03</pdfrwt>
<pdfrwt beam="2">  1       21 0.16010538E-01 0.23706152E+03</pdfrwt>
<totfact> 0.39122407E+04</totfact>
</mgrwt>
</event>
<event>
 4    1  0.3902417E-001  0.1870232E+03  0.7546771E-02  0.1161174E+00
         21   -1    0    0  501  502  0.00000000000E+00  0.00000000000E+00  0.48600512502E+03  0.48600512502E+03  0.00000000000E+00 0.  1.
         21   -1    0    0  502  503 -0.00000000000E+00 -0.00000000000E+00 -0.72729309279E+02  0.72729309279E+02  0.00000000000E+00 0. -1.
          6    1    1    2  501    0  0.23465490495E+02 -0.67067548385E+02  0.17808890191E+03  0.25825054168E+03  0.17300000000E+03 0. -1.
         -6    1    1    2    0  503 -0.23465490495E+02  0.67067548385E+02  0.23518691383E+03  0.30048389262E+03  0.17300000000E+03 0.  1.
<mgrwt>
<rscale>  2 0.18702322E+03</rscale>
<asrwt>0</asrwt>
<pdfrwt beam="1">  1       21 0.74770017E-01 0.18702322E+03</pdfrwt>
<pdfrwt beam="2">  1       21 0.11189125E-01 0.18702322E+03</pdfrwt>
<totfact> 0.10666351E+05</totfact>
</mgrwt>
</event>
<event>
 4    1  0.3902417E-001  0.1876559E+03  0.7546771E-02  0.1160593E+00
         21   -1    0    0  501  502  0.00000000000E+00  0.00000000000E+00  0.22568043934E+03  0.22568043934E+03  0.00000000000E+00 0.  1.
         21   -1    0    0  502  503 -0.00000000000E+00 -0.00000000000E+00 -0.17901273663E+03  0.17901273663E+03  0.00000000000E+00 0.  1.
          6    1    1    2  501    0 -0.69249552814E+02 -0.22141116880E+02  0.95823996873E+02  0.21070588031E+03  0.17300000000E+03 0.  1.
         -6    1    1    2    0  503  0.69249552814E+02  0.22141116880E+02 -0.49156294162E+02  0.19398729566E+03  0.17300000000E+03 0.  1.
<mgrwt>
<rscale>  2 0.18765588E+03</rscale>
<asrwt>0</asrwt>
<pdfrwt beam="1">  1       21 0.34720068E-01 0.18765588E+03</pdfrwt>
<pdfrwt beam="2">  1       21 0.27540421E-01 0.18765588E+03</pdfrwt>
<totfact> 0.10077025E+05</totfact>
</mgrwt>
</event>
<event>
 4    1  0.3902417E-001  0.1799015E+03  0.7546771E-02  0.1167898E+00
         21   -1    0    0  503  502  0.00000000000E+00  0.00000000000E+00  0.12304315697E+03  0.12304315697E+03  0.00000000000E+00 0. -1.
         21   -1    0    0  501  503 -0.00000000000E+00 -0.00000000000E+00 -0.29301225256E+03  0.29301225256E+03  0.00000000000E+00 0.  1.
          6    1    1    2  501    0  0.89902624757E+01  0.48525475743E+02 -0.15152422451E+03  0.23521083570E+03  0.17300000000E+03 0.  1.
         -6    1    1    2    0  502 -0.89902624757E+01 -0.48525475743E+02 -0.18444871076E+02  0.18084457383E+03  0.17300000000E+03 0. -1.
<mgrwt>
<rscale>  2 0.17990149E+03</rscale>
<asrwt>0</asrwt>
<pdfrwt beam="1">  1       21 0.18929717E-01 0.17990149E+03</pdfrwt>
<pdfrwt beam="2">  1       21 0.45078807E-01 0.17990149E+03</pdfrwt>
<totfact> 0.12129388E+05</totfact>
</mgrwt>
</event>
<event>
 4    1  0.3902417E-001  0.2003857E+03  0.7546771E-02  0.1149414E+00
         21   -1    0    0  503  502  0.00000000000E+00  0.00000000000E+00  0.10792901312E+03  0.10792901312E+03  0.00000000000E+00 0. -1.
         21   -1    0    0  501  503 -0.00000000000E+00 -0.00000000000E+00 -0.38107152351E+03  0.38107152351E+03  0.00000000000E+00 0. -1.
          6    1    1    2  501    0 -0.45354301210E+02 -0.90379387875E+02 -0.17420150364E+03  0.26551951013E+03  0.17300000000E+03 0. -1.
         -6    1    1    2    0  502  0.45354301210E+02  0.90379387875E+02 -0.98941006751E+02  0.22348102650E+03  0.17300000000E+03 0. -1.
<mgrwt>
<rscale>  2 0.20038574E+03</rscale>
<asrwt>0</asrwt>
<pdfrwt beam="1">  1       21 0.16604464E-01 0.20038574E+03</pdfrwt>
<pdfrwt beam="2">  1       21 0.58626388E-01 0.20038574E+03</pdfrwt>
<totfact> 0.88418157E+04</totfact>
</mgrwt>
</event>
<event>
 4    1  0.3902417E-001  0.2258827E+03  0.7546771E-02  0.1129572E+00
         21   -1    0    0  503  502  0.00000000000E+00  0.00000000000E+00  0.29964575226E+03  0.29964575226E+03  0.00000000000E+00 0. -1.
         21   -1    0    0  501  503 -0.00000000000E+00 -0.00000000000E+00 -0.20851927346E+03  0.20851927346E+03  0.00000000000E+00 0. -1.
          6    1    1    2  501    0 -0.11451360001E+03  0.89334476814E+02 -0.63246833040E+02  0.23457019253E+03  0.17300000000E+03 0. -1.
         -6    1    1    2    0  502  0.11451360001E+03 -0.89334476814E+02  0.15437331185E+03  0.27359483319E+03  0.17300000000E+03 0. -1.
<mgrwt>
<rscale>  2 0.22588274E+03</rscale>
<asrwt>0</asrwt>
<pdfrwt beam="1">  1       21 0.46099346E-01 0.22588274E+03</pdfrwt>
<pdfrwt beam="2">  1       21 0.32079888E-01 0.22588274E+03</pdfrwt>
<totfact> 0.41463835E+04</totfact>
</mgrwt>
</event>
<event>
 4    1  0.3902417E-001  0.1968434E+03  0.7546771E-02  0.1152430E+00
         21   -1    0    0  503  502  0.00000000000E+00  0.00000000000E+00  0.58977434175E+03  0.58977434175E+03  0.00000000000E+00 0. -1.
         21   -1    0    0  501  503 -0.00000000000E+00 -0.00000000000E+00 -0.13336763725E+03  0.13336763725E+03  0.00000000000E+00 0. -1.
          6    1    1    2  501    0 -0.58938886089E+01 -0.93720689251E+02 -0.29347850428E+02  0.19901909919E+03  0.17300000000E+03 0. -1.
         -6    1    1    2    0  502  0.58938886089E+01  0.93720689251E+02  0.48575455492E+03  0.52412287981E+03  0.17300000000E+03 0. -1.
<mgrwt>
<rscale>  2 0.19684335E+03</rscale>
<asrwt>0</asrwt>
<pdfrwt beam="1">  1       21 0.90734512E-01 0.19684335E+03</pdfrwt>
<pdfrwt beam="2">  1       21 0.20518098E-01 0.19684335E+03</pdfrwt>
<totfact> 0.22630151E+04</totfact>
</mgrwt>
</event>
<event>
 4    1  0.3902417E-001  0.1940731E+03  0.7546771E-02  0.1154838E+00
         21   -1    0    0  501  502  0.00000000000E+00  0.00000000000E+00  0.75724643245E+02  0.75724643245E+02  0.00000000000E+00 0.  1.
         21   -1    0    0  502  503 -0.00000000000E+00 -0.00000000000E+00 -0.56204797349E+03  0.56204797349E+03  0.00000000000E+00 0.  1.
          6    1    1    2  501    0 -0.51069082002E+02  0.71605184845E+02 -0.13499966452E+03  0.23640910104E+03  0.17300000000E+03 0.  1.
         -6    1    1    2    0  503  0.51069082002E+02 -0.71605184845E+02 -0.35132366572E+03  0.40136351569E+03  0.17300000000E+03 0.  1.
<mgrwt>
<rscale>  2 0.19407306E+03</rscale>
<asrwt>0</asrwt>
<pdfrwt beam="1">  1       21 0.11649945E-01 0.19407306E+03</pdfrwt>
<pdfrwt beam="2">  1       21 0.86468922E-01 0.19407306E+03</pdfrwt>
<totfact> 0.71239214E+04</totfact>
</mgrwt>
</event>
<event>
 4    1  0.3902417E-001  0.1749507E+03  0.7546771E-02  0.1172781E+00
         21   -1    0    0  503  502  0.00000000000E+00  0.00000000000E+00  0.18342011443E+03  0.18342011443E+03  0.00000000000E+00 0.  1.
         21   -1    0    0  501  503 -0.00000000000E+00 -0.00000000000E+00 -0.16689248660E+03  0.16689248660E+03  0.00000000000E+00 0.  1.
          6    1    1    2  501    0 -0.26022514584E+02 -0.12525127485E+01  0.10189219766E+02  0.17524714050E+03  0.17300000000E+03 0. -1.
         -6    1    1    2    0  502  0.26022514584E+02  0.12525127485E+01  0.63384080687E+01  0.17506546053E+03  0.17300000000E+03 0. -1.
<mgrwt>
<rscale>  2 0.17495068E+03</rscale>
<asrwt>0</asrwt>
<pdfrwt beam="1">  1       21 0.28218479E-01 0.17495068E+03</pdfrwt>
<pdfrwt beam="2">  1       21 0.25675767E-01 0.17495068E+03</pdfrwt>
<totfact> 0.17368011E+05</totfact>
</mgrwt>
</event>
<event>
 4    1  0.3902417E-001  0.2861600E+03  0.7546771E-02  0.1092371E+00
         21   -1    0    0  503  502  0.00000000000E+00  0.00000000000E+00  0.14615597461E+03  0.14615597461E+03  0.00000000000E+00 0. -1.
         21   -1    0    0  501  503 -0.00000000000E+00 -0.00000000000E+00 -0.56072803722E+03  0.56072803722E+03  0.00000000000E+00 0. -1.
          6    1    1    2  501    0 -0.21265630037E+03 -0.82072332011E+02 -0.19724202520E+03  0.34755141530E+03  0.17300000000E+03 0. -1.
         -6    1    1    2    0  502  0.21265630037E+03  0.82072332011E+02 -0.21733003740E+03  0.35933259653E+03  0.17300000000E+03 0. -1.
<mgrwt>
<rscale>  2 0.28616004E+03</rscale>
<asrwt>0</asrwt>
<pdfrwt beam="1">  1       21 0.22485534E-01 0.28616004E+03</pdfrwt>
<pdfrwt beam="2">  1       21 0.86265853E-01 0.28616004E+03</pdfrwt>
<totfact> 0.20450456E+04</totfact>
</mgrwt>
</event>
<event>
 4    1  0.3902417E-001  0.2147072E+03  0.7546771E-02  0.1137892E+00
         21   -1    0    0  501  502  0.00000000000E+00  0.00000000000E+00  0.78290997917E+03  0.78290997917E+03  0.00000000000E+00 0.  1.
         21   -1    0    0  502  503 -0.00000000000E+00 -0.00000000000E+00 -0.59470384329E+02  0.59470384329E+02  0.00000000000E+00 0.  1.
          6    1    1    2  501    0 -0.10464790440E+03 -0.72242679118E+02  0.31981985052E+03  0.38520634129E+03  0.17300000000E+03 0.  1.
         -6    1    1    2    0  503  0.10464790440E+03  0.72242679118E+02  0.40361974432E+03  0.45717402221E+03  0.17300000000E+03 0.  1.
<mgrwt>
<rscale>  2 0.21470722E+03</rscale>
<asrwt>0</asrwt>
<pdfrwt beam="1">  1       21 0.12044768E+00 0.21470722E+03</pdfrwt>
<pdfrwt beam="2">  1       21 0.91492904E-02 0.21470722E+03</pdfrwt>
<totfact> 0.49086249E+04</totfact>
</mgrwt>
</event>
<event>
 4    1  0.3902417E-001  0.1740299E+03  0.7546771E-02  0.1173709E+00
         21   -1    0    0  501  502  0.00000000000E+00  0.00000000000E+00  0.16648502702E+04  0.16648502702E+04  0.00000000000E+00 0. -1.
         21   -1    0    0  502  503 -0.00000000000E+00 -0.00000000000E+00 -0.34071922756E+02  0.34071922756E+02  0.00000000000E+00 0. -1.
          6    1    1    2  501    0  0.18392013589E+02  0.43754061581E+01  0.13953168671E+04  0.14061278640E+04  0.17300000000E+03 0. -1.
         -6    1    1    2    0  503 -0.18392013589E+02 -0.43754061581E+01  0.23546148041E+03  0.29279432901E+03  0.17300000000E+03 0. -1.
<mgrwt>
<rscale>  2 0.17402991E+03</rscale>
<asrwt>0</asrwt>
<pdfrwt beam="1">  1       21 0.25613075E+00 0.17402991E+03</pdfrwt>
<pdfrwt beam="2">  1       21 0.52418356E-02 0.17402991E+03</pdfrwt>
<totfact> 0.15469004E+04</totfact>
</mgrwt>
</event>
<event>
 4    1  0.3902417E-001  0.2057123E+03  0.7546771E-02  0.1145007E+00
         21   -1    0    0  501  502  0.00000000000E+00  0.00000000000E+00  0.63039055140E+02  0.63039055140E+02  0.00000000000E+00 0. -1.
         21   -1    0    0  502  503 -0.00000000000E+00 -0.00000000000E+00 -0.72714846336E+03  0.72714846336E+03  0.00000000000E+00 0.  1.
          6    1    1    2  501    0  0.37447234816E+02 -0.10481534140E+03 -0.44155850107E+03  0.48712571381E+03  0.17300000000E+03 0.  1.
         -6    1    1    2    0  503 -0.37447234816E+02  0.10481534140E+03 -0.22255090715E+03  0.30306180469E+03  0.17300000000E+03 0. -1.
<mgrwt>
<rscale>  2 0.20571230E+03</rscale>
<asrwt>0</asrwt>
<pdfrwt beam="1">  1       21 0.96983158E-02 0.20571230E+03</pdfrwt>
<pdfrwt beam="2">  1       21 0.11186900E+00 0.20571230E+03</pdfrwt>
<totfact> 0.53342349E+04</totfact>
</mgrwt>
</event>
<event>
 4    1  0.3902417E-001  0.3460772E+03  0.7546771E-02  0.1064237E+00
         21   -1    0    0  501  502  0.00000000000E+00  0.00000000000E+00  0.38330301318E+03  0.38330301318E+03  0.00000000000E+00 0. -1.
         21   -1    0    0  502  503 -0.00000000000E+00 -0.00000000000E+00 -0.32208124741E+03  0.32208124741E+03  0.00000000000E+00 0.  1.
          6    1    1    2  501    0 -0.17369414579E+03 -0.24427603090E+03  0.91547312626E+02  0.35798092966E+03  0.17300000000E+03 0. -1.
         -6    1    1    2    0  503  0.17369414579E+03  0.24427603090E+03 -0.30325546853E+02  0.34740333093E+03  0.17300000000E+03 0.  1.
<mgrwt>
<rscale>  2 0.34607721E+03</rscale>
<asrwt>0</asrwt>
<pdfrwt beam="1">  1       21 0.58969694E-01 0.34607721E+03</pdfrwt>
<pdfrwt beam="2">  1       21 0.49550961E-01 0.34607721E+03</pdfrwt>
<totfact> 0.96396515E+03</totfact>
</mgrwt>
</event>
<event>
 4    1  0.3902417E-001  0.2146162E+03  0.7546771E-02  0.1137962E+00
         21   -1    0    0  503  502  0.00000000000E+00  0.00000000000E+00  0.60197174266E+02  0.60197174266E+02  0.00000000000E+00 0.  1.
         21   -1    0    0  501  503 -0.00000000000E+00 -0.00000000000E+00 -0.81942813661E+03  0.81942813661E+03  0.00000000000E+00 0. -1.
          6    1    1    2  501    0 -0.10310811264E+03 -0.74160840960E+02 -0.49280558162E+03  0.53751042269E+03  0.17300000000E+03 0. -1.
         -6    1    1    2    0  502  0.10310811264E+03  0.74160840960E+02 -0.26642538072E+03  0.34211488819E+03  0.17300000000E+03 0.  1.
<mgrwt>
<rscale>  2 0.21461620E+03</rscale>
<asrwt>0</asrwt>
<pdfrwt beam="1">  1       21 0.92611039E-02 0.21461620E+03</pdfrwt>
<pdfrwt beam="2">  1       21 0.12606587E+00 0.21461620E+03</pdfrwt>
<totfact> 0.42865774E+04</totfact>
</mgrwt>
</event>
<event>
 4    1  0.3902417E-001  0.1954447E+03  0.7546771E-02  0.1153640E+00
         21   -1    0    0  501  502  0.00000000000E+00  0.00000000000E+00  0.24467249295E+03  0.24467249295E+03  0.00000000000E+00 0.  1.
         21   -1    0    0  502  503 -0.00000000000E+00 -0.00000000000E+00 -0.17956195983E+03  0.17956195983E+03  0.00000000000E+00 0. -1.
          6    1    1    2  501    0 -0.22510525287E+02  0.88107328524E+02  0.10919469741E+03  0.22387967087E+03  0.17300000000E+03 0.  1.
         -6    1    1    2    0  503  0.22510525287E+02 -0.88107328524E+02 -0.44084164289E+02  0.20035478190E+03  0.17300000000E+03 0. -1.
<mgrwt>
<rscale>  2 0.19544469E+03</rscale>
<asrwt>0</asrwt>
<pdfrwt beam="1">  1       21 0.37641922E-01 0.19544469E+03</pdfrwt>
<pdfrwt beam="2">  1       21 0.27624917E-01 0.19544469E+03</pdfrwt>
<totfact> 0.85020640E+04</totfact>
</mgrwt>
</event>
<event>
 4    1  0.3902417E-001  0.3486579E+03  0.7546771E-02  0.1063167E+00
         21   -1    0    0  503  502  0.00000000000E+00  0.00000000000E+00  0.38985628730E+03  0.38985628730E+03  0.00000000000E+00 0. -1.
         21   -1    0    0  501  503 -0.00000000000E+00 -0.00000000000E+00 -0.32720178972E+03  0.32720178972E+03  0.00000000000E+00 0. -1.
          6    1    1    2  501    0 -0.25573068765E+03 -0.16197259610E+03 -0.46425723019E+02  0.35173520473E+03  0.17300000000E+03 0. -1.
         -6    1    1    2    0  502  0.25573068765E+03  0.16197259610E+03  0.10908022060E+03  0.36532287229E+03  0.17300000000E+03 0. -1.
<mgrwt>
<rscale>  2 0.34865786E+03</rscale>
<asrwt>0</asrwt>
<pdfrwt beam="1">  1       21 0.59977890E-01 0.34865786E+03</pdfrwt>
<pdfrwt beam="2">  1       21 0.50338737E-01 0.34865786E+03</pdfrwt>
<totfact> 0.89768274E+03</totfact>
</mgrwt>
</event>
<event>
 4    1  0.3902417E-001  0.2997526E+03  0.7546771E-02  0.1085364E+00
         21   -1    0    0  501  502  0.00000000000E+00  0.00000000000E+00  0.77287740536E+02  0.77287740536E+02  0.00000000000E+00 0.  1.
         21   -1    0    0  502  503 -0.00000000000E+00 -0.00000000000E+00 -0.15089528599E+04  0.15089528599E+04  0.00000000000E+00 0.  1.
          6    1    1    2  501    0  0.23145957179E+03 -0.79681150329E+02 -0.33583060585E+03  0.45014865869E+03  0.17300000000E+03 0.  1.
         -6    1    1    2    0  503 -0.23145957179E+03  0.79681150329E+02 -0.10958345135E+04  0.11360919417E+04  0.17300000000E+03 0.  1.
<mgrwt>
<rscale>  2 0.29975260E+03</rscale>
<asrwt>0</asrwt>
<pdfrwt beam="1">  1       21 0.11890421E-01 0.29975260E+03</pdfrwt>
<pdfrwt beam="2">  1       21 0.23214660E+00 0.29975260E+03</pdfrwt>
<totfact> 0.46450026E+03</totfact>
</mgrwt>
</event>
<event>
 4    1  0.3902417E-001  0.2337319E+03  0.7546771E-02  0.1124040E+00
         21   -1    0    0  501  502  0.00000000000E+00  0.00000000000E+00  0.57684692658E+03  0.57684692658E+03  0.00000000000E+00 0.  1.
         21   -1    0    0  502  503 -0.00000000000E+00 -0.00000000000E+00 -0.15515642944E+03  0.15515642944E+03  0.00000000000E+00 0.  1.
          6    1    1    2  501    0 -0.10704843260E+03 -0.11507483004E+03  0.43929970642E+03  0.49760909909E+03  0.17300000000E+03 0.  1.
         -6    1    1    2    0  503  0.10704843260E+03  0.11507483004E+03 -0.17609209279E+02  0.23439425693E+03  0.17300000000E+03 0.  1.
<mgrwt>
<rscale>  2 0.23373186E+03</rscale>
<asrwt>0</asrwt>
<pdfrwt beam="1">  1       21 0.88745680E-01 0.23373186E+03</pdfrwt>
<pdfrwt beam="2">  1       21 0.23870220E-01 0.23373186E+03</pdfrwt>
<totfact> 0.17518983E+04</totfact>
</mgrwt>
</event>
<event>
 4    1  0.3902417E-001  0.1787787E+03  0.7546771E-02  0.1168990E+00
         21   -1    0    0  503  502  0.00000000000E+00  0.00000000000E+00  0.95284286375E+02  0.95284286375E+02  0.00000000000E+00 0. -1.
         21   -1    0    0  501  503 -0.00000000000E+00 -0.00000000000E+00 -0.36474613711E+03  0.36474613711E+03  0.00000000000E+00 0. -1.
          6    1    1    2  501    0 -0.30475767506E+02  0.33227042018E+02 -0.69527878497E+02  0.19182266450E+03  0.17300000000E+03 0. -1.
         -6    1    1    2    0  502  0.30475767506E+02 -0.33227042018E+02 -0.19993397224E+03  0.26820775899E+03  0.17300000000E+03 0. -1.
<mgrwt>
<rscale>  2 0.17877866E+03</rscale>
<asrwt>0</asrwt>
<pdfrwt beam="1">  1       21 0.14659121E-01 0.17877866E+03</pdfrwt>
<pdfrwt beam="2">  1       21 0.56114790E-01 0.17877866E+03</pdfrwt>
<totfact> 0.12287800E+05</totfact>
</mgrwt>
</event>
<event>
 4    1  0.3902417E-001  0.1853748E+03  0.7546771E-02  0.1162700E+00
         21   -1    0    0  503  502  0.00000000000E+00  0.00000000000E+00  0.21757374239E+03  0.21757374239E+03  0.00000000000E+00 0.  1.
         21   -1    0    0  501  503 -0.00000000000E+00 -0.00000000000E+00 -0.16120534257E+03  0.16120534257E+03  0.00000000000E+00 0.  1.
          6    1    1    2  501    0 -0.66553154199E+02 -0.23410971085E+01  0.12336505620E+01  0.18537886871E+03  0.17300000000E+03 0.  1.
         -6    1    1    2    0  502  0.66553154199E+02  0.23410971085E+01  0.55134749254E+02  0.19340021625E+03  0.17300000000E+03 0.  1.
<mgrwt>
<rscale>  2 0.18537476E+03</rscale>
<asrwt>0</asrwt>
<pdfrwt beam="1">  1       21 0.33472883E-01 0.18537476E+03</pdfrwt>
<pdfrwt beam="2">  1       21 0.24800822E-01 0.18537476E+03</pdfrwt>
<totfact> 0.13252736E+05</totfact>
</mgrwt>
</event>
<event>
 4    1  0.3902417E-001  0.1983014E+03  0.7546771E-02  0.1151180E+00
         21   -1    0    0  501  502  0.00000000000E+00  0.00000000000E+00  0.16975280007E+03  0.16975280007E+03  0.00000000000E+00 0. -1.
         21   -1    0    0  502  503 -0.00000000000E+00 -0.00000000000E+00 -0.37364058419E+03  0.37364058419E+03  0.00000000000E+00 0. -1.
          6    1    1    2  501    0 -0.20028233803E+01 -0.96904196744E+02  0.65544731826E+02  0.20885293036E+03  0.17300000000E+03 0. -1.
         -6    1    1    2    0  503  0.20028233803E+01  0.96904196744E+02 -0.26943251595E+03  0.33454045390E+03  0.17300000000E+03 0. -1.
<mgrwt>
<rscale>  2 0.19830137E+03</rscale>
<asrwt>0</asrwt>
<pdfrwt beam="1">  1       21 0.26115815E-01 0.19830137E+03</pdfrwt>
<pdfrwt beam="2">  1       21 0.57483167E-01 0.19830137E+03</pdfrwt>
<totfact> 0.39453387E+04</totfact>
</mgrwt>
</event>
<event>
 4    1  0.3902417E-001  0.3249662E+03  0.7546771E-02  0.1073386E+00
         21   -1    0    0  503  502  0.00000000000E+00  0.00000000000E+00  0.61918489246E+02  0.61918489246E+02  0.00000000000E+00 0. -1.
         21   -1    0    0  501  503 -0.00000000000E+00 -0.00000000000E+00 -0.20777255844E+04  0.20777255844E+04  0.00000000000E+00 0. -1.
          6    1    1    2  501    0 -0.26149741340E+03  0.85399714670E+02 -0.14607082182E+04  0.14964195625E+04  0.17300000000E+03 0. -1.
         -6    1    1    2    0  502  0.26149741340E+03 -0.85399714670E+02 -0.55509887702E+03  0.64322451116E+03  0.17300000000E+03 0. -1.
<mgrwt>
<rscale>  2 0.32496617E+03</rscale>
<asrwt>0</asrwt>
<pdfrwt beam="1">  1       21 0.95259225E-02 0.32496617E+03</pdfrwt>
<pdfrwt beam="2">  1       21 0.31965005E+00 0.32496617E+03</pdfrwt>
<totfact> 0.20400929E+03</totfact>
</mgrwt>
</event>
<event>
 4    1  0.3902417E-001  0.2326756E+03  0.7546771E-02  0.1124771E+00
         21   -1    0    0  501  502  0.00000000000E+00  0.00000000000E+00  0.55536408679E+02  0.55536408679E+02  0.00000000000E+00 0.  1.
         21   -1    0    0  502  503 -0.00000000000E+00 -0.00000000000E+00 -0.98330187447E+03  0.98330187447E+03  0.00000000000E+00 0. -1.
          6    1    1    2  501    0 -0.55902283680E+02  0.14520288805E+03 -0.51212715647E+03  0.56250526079E+03  0.17300000000E+03 0.  1.
         -6    1    1    2    0  503  0.55902283680E+02 -0.14520288805E+03 -0.41563830932E+03  0.47633302236E+03  0.17300000000E+03 0. -1.
<mgrwt>
<rscale>  2 0.23267562E+03</rscale>
<asrwt>0</asrwt>
<pdfrwt beam="1">  1       21 0.85440630E-02 0.23267562E+03</pdfrwt>
<pdfrwt beam="2">  1       21 0.15127721E+00 0.23267562E+03</pdfrwt>
<totfact> 0.30539593E+04</totfact>
</mgrwt>
</event>
<event>
 4    1  0.3902417E-001  0.1750229E+03  0.7546771E-02  0.1172709E+00
         21   -1    0    0  503  502  0.00000000000E+00  0.00000000000E+00  0.42231174086E+03  0.42231174086E+03  0.00000000000E+00 0. -1.
         21   -1    0    0  501  503 -0.00000000000E+00 -0.00000000000E+00 -0.75487519488E+02  0.75487519488E+02  0.00000000000E+00 0. -1.
          6    1    1    2  501    0  0.12748959608E+02 -0.23269421838E+02  0.12419964930E+03  0.21461256918E+03  0.17300000000E+03 0. -1.
         -6    1    1    2    0  502 -0.12748959608E+02  0.23269421838E+02  0.22262457207E+03  0.28318669117E+03  0.17300000000E+03 0. -1.
<mgrwt>
<rscale>  2 0.17502286E+03</rscale>
<asrwt>0</asrwt>
<pdfrwt beam="1">  1       21 0.64971035E-01 0.17502286E+03</pdfrwt>
<pdfrwt beam="2">  1       21 0.11613465E-01 0.17502286E+03</pdfrwt>
<totfact> 0.13657030E+05</totfact>
</mgrwt>
</event>
<event>
 4    1  0.3902417E-001  0.1777715E+03  0.7546771E-02  0.1169977E+00
         21   -1    0    0  501  502  0.00000000000E+00  0.00000000000E+00  0.21954737910E+02  0.21954737910E+02  0.00000000000E+00 0.  1.
         21   -1    0    0  502  503 -0.00000000000E+00 -0.00000000000E+00 -0.14823626842E+04  0.14823626842E+04  0.00000000000E+00 0.  1.
          6    1    1    2  501    0  0.22601803569E+02 -0.34101033408E+02 -0.60222725590E+03  0.62791750234E+03  0.17300000000E+03 0.  1.
         -6    1    1    2    0  503 -0.22601803569E+02  0.34101033408E+02 -0.85818069038E+03  0.87639991975E+03  0.17300000000E+03 0.  1.
<mgrwt>
<rscale>  2 0.17777154E+03</rscale>
<asrwt>0</asrwt>
<pdfrwt beam="1">  1       21 0.33776519E-02 0.17777154E+03</pdfrwt>
<pdfrwt beam="2">  1       21 0.22805580E+00 0.17777154E+03</pdfrwt>
<totfact> 0.47214553E+04</totfact>
</mgrwt>
</event>
<event>
 4    1  0.3902417E-001  0.2096245E+03  0.7546771E-02  0.1141864E+00
         21   -1    0    0  503  502  0.00000000000E+00  0.00000000000E+00  0.59287800291E+03  0.59287800291E+03  0.00000000000E+00 0.  1.
         21   -1    0    0  501  503 -0.00000000000E+00 -0.00000000000E+00 -0.11847920225E+03  0.11847920225E+03  0.00000000000E+00 0. -1.
          6    1    1    2  501    0  0.32793706457E+02 -0.11374538633E+03  0.19557558773E+02  0.21053488595E+03  0.17300000000E+03 0.  1.
         -6    1    1    2    0  502 -0.32793706457E+02  0.11374538633E+03  0.45484124189E+03  0.50082231921E+03  0.17300000000E+03 0.  1.
<mgrwt>
<rscale>  2 0.20962452E+03</rscale>
<asrwt>0</asrwt>
<pdfrwt beam="1">  1       21 0.91211999E-01 0.20962452E+03</pdfrwt>
<pdfrwt beam="2">  1       21 0.18227570E-01 0.20962452E+03</pdfrwt>
<totfact> 0.27669134E+04</totfact>
</mgrwt>
</event>
<event>
 4    1  0.3902417E-001  0.3225681E+03  0.7546771E-02  0.1074473E+00
         21   -1    0    0  503  502  0.00000000000E+00  0.00000000000E+00  0.79278095860E+03  0.79278095860E+03  0.00000000000E+00 0. -1.
         21   -1    0    0  501  503 -0.00000000000E+00 -0.00000000000E+00 -0.13917253310E+03  0.13917253310E+03  0.00000000000E+00 0. -1.
          6    1    1    2  501    0  0.15105520513E+01 -0.27224783383E+03  0.21560537257E+03  0.38798948629E+03  0.17300000000E+03 0. -1.
         -6    1    1    2    0  502 -0.15105520513E+01  0.27224783383E+03  0.43800305294E+03  0.54396400541E+03  0.17300000000E+03 0. -1.
<mgrwt>
<rscale>  2 0.32256808E+03</rscale>
<asrwt>0</asrwt>
<pdfrwt beam="1">  1       21 0.12196630E+00 0.32256808E+03</pdfrwt>
<pdfrwt beam="2">  1       21 0.21411159E-01 0.32256808E+03</pdfrwt>
<totfact> 0.95671400E+03</totfact>
</mgrwt>
</event>
<event>
 4    1  0.3902417E-001  0.2097426E+03  0.7546771E-02  0.1141770E+00
         21   -1    0    0  503  502  0.00000000000E+00  0.00000000000E+00  0.27076276645E+03  0.27076276645E+03  0.00000000000E+00 0. -1.
         21   -1    0    0  501  503 -0.00000000000E+00 -0.00000000000E+00 -0.19669408689E+03  0.19669408689E+03  0.00000000000E+00 0. -1.
          6    1    1    2  501    0 -0.83362587878E+02  0.84342405636E+02 -0.60454567328E+02  0.21828127991E+03  0.17300000000E+03 0. -1.
         -6    1    1    2    0  502  0.83362587878E+02 -0.84342405636E+02  0.13452324689E+03  0.24917557344E+03  0.17300000000E+03 0. -1.
<mgrwt>
<rscale>  2 0.20974261E+03</rscale>
<asrwt>0</asrwt>
<pdfrwt beam="1">  1       21 0.41655810E-01 0.20974261E+03</pdfrwt>
<pdfrwt beam="2">  1       21 0.30260629E-01 0.20974261E+03</pdfrwt>
<totfact> 0.57673727E+04</totfact>
</mgrwt>
</event>
<event>
 4    1  0.3902417E-001  0.2863213E+03  0.7546771E-02  0.1092286E+00
         21   -1    0    0  501  502  0.00000000000E+00  0.00000000000E+00  0.25574986378E+03  0.25574986378E+03  0.00000000000E+00 0. -1.
         21   -1    0    0  502  503 -0.00000000000E+00 -0.00000000000E+00 -0.40554099034E+03  0.40554099034E+03  0.00000000000E+00 0. -1.
          6    1    1    2  501    0  0.22770095110E+03 -0.14253189757E+02  0.76474154835E+02  0.29635818347E+03  0.17300000000E+03 0. -1.
         -6    1    1    2    0  503 -0.22770095110E+03  0.14253189757E+02 -0.22626528140E+03  0.36493267066E+03  0.17300000000E+03 0. -1.
<mgrwt>
<rscale>  2 0.28632128E+03</rscale>
<asrwt>0</asrwt>
<pdfrwt beam="1">  1       21 0.39346133E-01 0.28632128E+03</pdfrwt>
<pdfrwt beam="2">  1       21 0.62390922E-01 0.28632128E+03</pdfrwt>
<totfact> 0.14097904E+04</totfact>
</mgrwt>
</event>
<event>
 4    1  0.3902417E-001  0.3433218E+03  0.7546771E-02  0.1065390E+00
         21   -1    0    0  503  502  0.00000000000E+00  0.00000000000E+00  0.23356770054E+03  0.23356770054E+03  0.00000000000E+00 0. -1.
         21   -1    0    0  501  503 -0.00000000000E+00 -0.00000000000E+00 -0.50964483683E+03  0.50964483683E+03  0.00000000000E+00 0.  1.
          6    1    1    2  501    0 -0.14698731481E+03  0.25755693958E+03 -0.10124880111E+03  0.35794017317E+03  0.17300000000E+03 0. -1.
         -6    1    1    2    0  502  0.14698731481E+03 -0.25755693958E+03 -0.17482833518E+03  0.38527236421E+03  0.17300000000E+03 0.  1.
<mgrwt>
<rscale>  2 0.34332178E+03</rscale>
<asrwt>0</asrwt>
<pdfrwt beam="1">  1       21 0.35933492E-01 0.34332178E+03</pdfrwt>
<pdfrwt beam="2">  1       21 0.78406898E-01 0.34332178E+03</pdfrwt>
<totfact> 0.99315474E+03</totfact>
</mgrwt>
</event>
<event>
 4    1  0.3902417E-001  0.2479026E+03  0.7546771E-02  0.1114638E+00
         21   -1    0    0  501  502  0.00000000000E+00  0.00000000000E+00  0.11066400527E+04  0.11066400527E+04  0.00000000000E+00 0.  1.
         21   -1    0    0  502  503 -0.00000000000E+00 -0.00000000000E+00 -0.89590305416E+02  0.89590305416E+02  0.00000000000E+00 0. -1.
          6    1    1    2  501    0 -0.91536179168E+02 -0.15214411683E+03  0.87729492303E+03  0.91164800573E+03  0.17300000000E+03 0.  1.
         -6    1    1    2    0  503  0.91536179168E+02  0.15214411683E+03  0.13975482424E+03  0.28458235237E+03  0.17300000000E+03 0. -1.
<mgrwt>
<rscale>  2 0.24790261E+03</rscale>
<asrwt>0</asrwt>
<pdfrwt beam="1">  1       21 0.17025231E+00 0.24790261E+03</pdfrwt>
<pdfrwt beam="2">  1       21 0.13783125E-01 0.24790261E+03</pdfrwt>
<totfact> 0.93405127E+03</totfact>
</mgrwt>
</event>
<event>
 4    1  0.3902417E-001  0.2028505E+03  0.7546771E-02  0.1147356E+00
         21   -1    0    0  503  502  0.00000000000E+00  0.00000000000E+00  0.47437034022E+02  0.47437034022E+02  0.00000000000E+00 0.  1.
         21   -1    0    0  501  503 -0.00000000000E+00 -0.00000000000E+00 -0.10280529842E+04  0.10280529842E+04  0.00000000000E+00 0.  1.
          6    1    1    2  501    0 -0.89809662312E+02  0.56156523625E+02 -0.27775274495E+03  0.34394028249E+03  0.17300000000E+03 0.  1.
         -6    1    1    2    0  502  0.89809662312E+02 -0.56156523625E+02 -0.70286320524E+03  0.73154973574E+03  0.17300000000E+03 0.  1.
<mgrwt>
<rscale>  2 0.20285051E+03</rscale>
<asrwt>0</asrwt>
<pdfrwt beam="1">  1       21 0.72980053E-02 0.20285051E+03</pdfrwt>
<pdfrwt beam="2">  1       21 0.15816200E+00 0.20285051E+03</pdfrwt>
<totfact> 0.36314737E+04</totfact>
</mgrwt>
</event>
<event>
 4    1  0.3902417E-001  0.1867559E+03  0.7546771E-02  0.1161420E+00
         21   -1    0    0  501  502  0.00000000000E+00  0.00000000000E+00  0.87453477695E+03  0.87453477695E+03  0.00000000000E+00 0.  1.
         21   -1    0    0  502  503 -0.00000000000E+00 -0.00000000000E+00 -0.40737019307E+02  0.40737019307E+02  0.00000000000E+00 0.  1.
          6    1    1    2  501    0  0.50192108132E+02  0.49290277196E+02  0.48321733926E+03  0.51805093968E+03  0.17300000000E+03 0.  1.
         -6    1    1    2    0  503 -0.50192108132E+02 -0.49290277196E+02  0.35058041839E+03  0.39722085658E+03  0.17300000000E+03 0.  1.
<mgrwt>
<rscale>  2 0.18675593E+03</rscale>
<asrwt>0</asrwt>
<pdfrwt beam="1">  1       21 0.13454380E+00 0.18675593E+03</pdfrwt>
<pdfrwt beam="2">  1       21 0.62672344E-02 0.18675593E+03</pdfrwt>
<totfact> 0.72715259E+04</totfact>
</mgrwt>
</event>
<event>
 4    1  0.3902417E-001  0.1756367E+03  0.7546771E-02  0.1172094E+00
         21   -1    0    0  503  502  0.00000000000E+00  0.00000000000E+00  0.13839143761E+04  0.13839143761E+04  0.00000000000E+00 0. -1.
         21   -1    0    0  501  503 -0.00000000000E+00 -0.00000000000E+00 -0.24689923835E+02  0.24689923835E+02  0.00000000000E+00 0. -1.
          6    1    1    2  501    0  0.20201363179E+02  0.22608917395E+02  0.46005632479E+03  0.49244297152E+03  0.17300000000E+03 0. -1.
         -6    1    1    2    0  502 -0.20201363179E+02 -0.22608917395E+02  0.89916812752E+03  0.91616132846E+03  0.17300000000E+03 0. -1.
<mgrwt>
<rscale>  2 0.17563672E+03</rscale>
<asrwt>0</asrwt>
<pdfrwt beam="1">  1       21 0.21290984E+00 0.17563672E+03</pdfrwt>
<pdfrwt beam="2">  1       21 0.37984509E-02 0.17563672E+03</pdfrwt>
<totfact> 0.48119655E+04</totfact>
</mgrwt>
</event>
<event>
 4    1  0.3902417E-001  0.1785390E+03  0.7546771E-02  0.1169225E+00
         21   -1    0    0  503  502  0.00000000000E+00  0.00000000000E+00  0.27135340772E+02  0.27135340772E+02  0.00000000000E+00 0. -1.
         21   -1    0    0  501  503 -0.00000000000E+00 -0.00000000000E+00 -0.11772384857E+04  0.11772384857E+04  0.00000000000E+00 0. -1.
          6    1    1    2  501    0  0.42566245817E+02  0.11631755938E+02 -0.60295414712E+03  0.62883216088E+03  0.17300000000E+03 0. -1.
         -6    1    1    2    0  502 -0.42566245817E+02 -0.11631755938E+02 -0.54714899781E+03  0.57554166559E+03  0.17300000000E+03 0. -1.
<mgrwt>
<rscale>  2 0.17853902E+03</rscale>
<asrwt>0</asrwt>
<pdfrwt beam="1">  1       21 0.41746673E-02 0.17853902E+03</pdfrwt>
<pdfrwt beam="2">  1       21 0.18111364E+00 0.17853902E+03</pdfrwt>
<totfact> 0.65763933E+04</totfact>
</mgrwt>
</event>
<event>
 4    1  0.3902417E-001  0.2676365E+03  0.7546771E-02  0.1102640E+00
         21   -1    0    0  503  502  0.00000000000E+00  0.00000000000E+00  0.12737595209E+03  0.12737595209E+03  0.00000000000E+00 0.  1.
         21   -1    0    0  501  503 -0.00000000000E+00 -0.00000000000E+00 -0.57851262010E+03  0.57851262010E+03  0.00000000000E+00 0. -1.
          6    1    1    2  501    0 -0.15932277035E+03 -0.12773619325E+03 -0.28457043354E+03  0.39065280220E+03  0.17300000000E+03 0. -1.
         -6    1    1    2    0  502  0.15932277035E+03  0.12773619325E+03 -0.16656623447E+03  0.31523577000E+03  0.17300000000E+03 0.  1.
<mgrwt>
<rscale>  2 0.26763647E+03</rscale>
<asrwt>0</asrwt>
<pdfrwt beam="1">  1       21 0.19596300E-01 0.26763647E+03</pdfrwt>
<pdfrwt beam="2">  1       21 0.89001942E-01 0.26763647E+03</pdfrwt>
<totfact> 0.24870649E+04</totfact>
</mgrwt>
</event>
<event>
 4    1  0.3902417E-001  0.1791818E+03  0.7546771E-02  0.1168597E+00
         21   -1    0    0  501  502  0.00000000000E+00  0.00000000000E+00  0.71438397677E+03  0.71438397677E+03  0.00000000000E+00 0. -1.
         21   -1    0    0  502  503 -0.00000000000E+00 -0.00000000000E+00 -0.45595844991E+02  0.45595844991E+02  0.00000000000E+00 0.  1.
          6    1    1    2  501    0  0.53462177622E+01 -0.46352303694E+02  0.28890367316E+03  0.33995801280E+03  0.17300000000E+03 0. -1.
         -6    1    1    2    0  503 -0.53462177622E+01  0.46352303694E+02  0.37988445862E+03  0.42002180896E+03  0.17300000000E+03 0. -1.
<mgrwt>
<rscale>  2 0.17918180E+03</rscale>
<asrwt>0</asrwt>
<pdfrwt beam="1">  1       21 0.10990522E+00 0.17918180E+03</pdfrwt>
<pdfrwt beam="2">  1       21 0.70147459E-02 0.17918180E+03</pdfrwt>
<totfact> 0.99203650E+04</totfact>
</mgrwt>
</event>
<event>
 4    1  0.3902417E-001  0.1821747E+03  0.7546771E-02  0.1165715E+00
         21   -1    0    0  503  502  0.00000000000E+00  0.00000000000E+00  0.10599966335E+04  0.10599966335E+04  0.00000000000E+00 0. -1.
         21   -1    0    0  501  503 -0.00000000000E+00 -0.00000000000E+00 -0.39197105001E+02  0.39197105001E+02  0.00000000000E+00 0. -1.
          6    1    1    2  501    0  0.35381213949E+02 -0.44797122874E+02  0.26385318867E+03  0.32063393097E+03  0.17300000000E+03 0. -1.
         -6    1    1    2    0  502 -0.35381213949E+02  0.44797122874E+02  0.75694633980E+03  0.77855980750E+03  0.17300000000E+03 0. -1.
<mgrwt>
<rscale>  2 0.18217468E+03</rscale>
<asrwt>0</asrwt>
<pdfrwt beam="1">  1       21 0.16307638E+00 0.18217468E+03</pdfrwt>
<pdfrwt beam="2">  1       21 0.60303247E-02 0.18217468E+03</pdfrwt>
<totfact> 0.47021198E+04</totfact>
</mgrwt>
</event>
<event>
 4    1  0.3902417E-001  0.2122685E+03  0.7546771E-02  0.1139782E+00
         21   -1    0    0  501  502  0.00000000000E+00  0.00000000000E+00  0.33759864727E+03  0.33759864727E+03  0.00000000000E+00 0.  1.
         21   -1    0    0  502  503 -0.00000000000E+00 -0.00000000000E+00 -0.17357903447E+03  0.17357903447E+03  0.00000000000E+00 0.  1.
          6    1    1    2  501    0 -0.11863808774E+02  0.12242611217E+03  0.20487719401E+03  0.29501282603E+03  0.17300000000E+03 0.  1.
         -6    1    1    2    0  503  0.11863808774E+02 -0.12242611217E+03 -0.40857581207E+02  0.21616485570E+03  0.17300000000E+03 0.  1.
<mgrwt>
<rscale>  2 0.21226847E+03</rscale>
<asrwt>0</asrwt>
<pdfrwt beam="1">  1       21 0.51938253E-01 0.21226847E+03</pdfrwt>
<pdfrwt beam="2">  1       21 0.26704467E-01 0.21226847E+03</pdfrwt>
<totfact> 0.46526370E+04</totfact>
</mgrwt>
</event>
<event>
 4    1  0.3902417E-001  0.1866477E+03  0.7546771E-02  0.1161520E+00
         21   -1    0    0  501  502  0.00000000000E+00  0.00000000000E+00  0.30183074847E+03  0.30183074847E+03  0.00000000000E+00 0. -1.
         21   -1    0    0  502  503 -0.00000000000E+00 -0.00000000000E+00 -0.12582505290E+03  0.12582505290E+03  0.00000000000E+00 0. -1.
          6    1    1    2  501    0  0.44092964630E+01 -0.69920834289E+02  0.14949204325E+03  0.23913434709E+03  0.17300000000E+03 0. -1.
         -6    1    1    2    0  503 -0.44092964630E+01  0.69920834289E+02  0.26513652318E+02  0.18852145428E+03  0.17300000000E+03 0. -1.
<mgrwt>
<rscale>  2 0.18664770E+03</rscale>
<asrwt>0</asrwt>
<pdfrwt beam="1">  1       21 0.46435500E-01 0.18664770E+03</pdfrwt>
<pdfrwt beam="2">  1       21 0.19357701E-01 0.18664770E+03</pdfrwt>
<totfact> 0.10921231E+05</totfact>
</mgrwt>
</event>
<event>
 4    1  0.3902417E-001  0.2011020E+03  0.7546771E-02  0.1148813E+00
         21   -1    0    0  501  502  0.00000000000E+00  0.00000000000E+00  0.55174103270E+03  0.55174103270E+03  0.00000000000E+00 0.  1.
         21   -1    0    0  502  503 -0.00000000000E+00 -0.00000000000E+00 -0.82629898269E+02  0.82629898269E+02  0.00000000000E+00 0.  1.
          6    1    1    2  501    0  0.36846073887E+02 -0.95683749163E+02  0.34114364482E+03  0.39600631234E+03  0.17300000000E+03 0.  1.
         -6    1    1    2    0  503 -0.36846073887E+02  0.95683749163E+02  0.12796748961E+03  0.23836461862E+03  0.17300000000E+03 0.  1.
<mgrwt>
<rscale>  2 0.20110200E+03</rscale>
<asrwt>0</asrwt>
<pdfrwt beam="1">  1       21 0.84883233E-01 0.20110200E+03</pdfrwt>
<pdfrwt beam="2">  1       21 0.12712292E-01 0.20110200E+03</pdfrwt>
<totfact> 0.63354718E+04</totfact>
</mgrwt>
</event>
<event>
 4    1  0.3902417E-001  0.1750004E+03  0.7546771E-02  0.1172731E+00
         21   -1    0    0  503  502  0.00000000000E+00  0.00000000000E+00  0.90910751746E+02  0.90910751746E+02  0.00000000000E+00 0. -1.
         21   -1    0    0  501  503 -0.00000000000E+00 -0.00000000000E+00 -0.55224289895E+03  0.55224289895E+03  0.00000000000E+00 0. -1.
          6    1    1    2  501    0  0.14121587998E+02  0.22286861634E+02 -0.43148978779E+03  0.46562706152E+03  0.17300000000E+03 0. -1.
         -6    1    1    2    0  502 -0.14121587998E+02 -0.22286861634E+02 -0.29842359408E+02  0.17752658918E+03  0.17300000000E+03 0. -1.
<mgrwt>
<rscale>  2 0.17500035E+03</rscale>
<asrwt>0</asrwt>
<pdfrwt beam="1">  1       21 0.13986270E-01 0.17500035E+03</pdfrwt>
<pdfrwt beam="2">  1       21 0.84960445E-01 0.17500035E+03</pdfrwt>
<totfact> 0.53888019E+04</totfact>
</mgrwt>
</event>
<event>
 4    1  0.3902417E-001  0.2088015E+03  0.7546771E-02  0.1142519E+00
         21   -1    0    0  503  502  0.00000000000E+00  0.00000000000E+00  0.17448366220E+03  0.17448366220E+03  0.00000000000E+00 0. -1.
         21   -1    0    0  501  503 -0.00000000000E+00 -0.00000000000E+00 -0.26682958963E+03  0.26682958963E+03  0.00000000000E+00 0.  1.
          6    1    1    2  501    0 -0.73470226885E+01  0.11668371863E+03  0.94583945815E+01  0.20901562181E+03  0.17300000000E+03 0. -1.
         -6    1    1    2    0  502  0.73470226885E+01 -0.11668371863E+03 -0.10180432201E+03  0.23229763002E+03  0.17300000000E+03 0.  1.
<mgrwt>
<rscale>  2 0.20880151E+03</rscale>
<asrwt>0</asrwt>
<pdfrwt beam="1">  1       21 0.26843640E-01 0.20880151E+03</pdfrwt>
<pdfrwt beam="2">  1       21 0.41050706E-01 0.20880151E+03</pdfrwt>
<totfact> 0.75008654E+04</totfact>
</mgrwt>
</event>
<event>
 4    1  0.3902417E-001  0.1786749E+03  0.7546771E-02  0.1169092E+00
         21   -1    0    0  503  502  0.00000000000E+00  0.00000000000E+00  0.22911705190E+04  0.22911705190E+04  0.00000000000E+00 0. -1.
         21   -1    0    0  501  503 -0.00000000000E+00 -0.00000000000E+00 -0.17156027940E+02  0.17156027940E+02  0.00000000000E+00 0. -1.
          6    1    1    2  501    0  0.35897007462E+02  0.26591770298E+02  0.63681512906E+03  0.66140624883E+03  0.17300000000E+03 0. -1.
         -6    1    1    2    0  502 -0.35897007462E+02 -0.26591770298E+02  0.16371993620E+04  0.16469202981E+04  0.17300000000E+03 0. -1.
<mgrwt>
<rscale>  2 0.17867489E+03</rscale>
<asrwt>0</asrwt>
<pdfrwt beam="1">  1       21 0.35248753E+00 0.17867489E+03</pdfrwt>
<pdfrwt beam="2">  1       21 0.26393907E-02 0.17867489E+03</pdfrwt>
<totfact> 0.13440000E+04</totfact>
</mgrwt>
</event>
<event>
 4    1  0.3902417E-001  0.3609371E+03  0.7546771E-02  0.1058213E+00
         21   -1    0    0  501  502  0.00000000000E+00  0.00000000000E+00  0.22117693121E+04  0.22117693121E+04  0.00000000000E+00 0.  1.
         21   -1    0    0  502  503 -0.00000000000E+00 -0.00000000000E+00 -0.67264159502E+02  0.67264159502E+02  0.00000000000E+00 0. -1.
          6    1    1    2  501    0  0.18798006177E+03 -0.25497074284E+03  0.14740546468E+04  0.15176009637E+04  0.17300000000E+03 0. -1.
         -6    1    1    2    0  503 -0.18798006177E+03  0.25497074284E+03  0.67045050577E+03  0.76143250785E+03  0.17300000000E+03 0. -1.
<mgrwt>
<rscale>  2 0.36093709E+03</rscale>
<asrwt>0</asrwt>
<pdfrwt beam="1">  1       21 0.34027215E+00 0.36093709E+03</pdfrwt>
<pdfrwt beam="2">  1       21 0.10348334E-01 0.36093709E+03</pdfrwt>
<totfact> 0.12894463E+03</totfact>
</mgrwt>
</event>
<event>
 4    1  0.3902417E-001  0.2154784E+03  0.7546771E-02  0.1137300E+00
         21   -1    0    0  501  502  0.00000000000E+00  0.00000000000E+00  0.68372080759E+02  0.68372080759E+02  0.00000000000E+00 0.  1.
         21   -1    0    0  502  503 -0.00000000000E+00 -0.00000000000E+00 -0.69003204670E+03  0.69003204670E+03  0.00000000000E+00 0.  1.
          6    1    1    2  501    0  0.11833368381E+03  0.49990682675E+02 -0.35857706191E+03  0.41834009897E+03  0.17300000000E+03 0.  1.
         -6    1    1    2    0  503 -0.11833368381E+03 -0.49990682675E+02 -0.26308290403E+03  0.34006402849E+03  0.17300000000E+03 0.  1.
<mgrwt>
<rscale>  2 0.21547837E+03</rscale>
<asrwt>0</asrwt>
<pdfrwt beam="1">  1       21 0.10518782E-01 0.21547837E+03</pdfrwt>
<pdfrwt beam="2">  1       21 0.10615877E+00 0.21547837E+03</pdfrwt>
<totfact> 0.52195499E+04</totfact>
</mgrwt>
</event>
<event>
 4    1  0.3902417E-001  0.1775556E+03  0.7546771E-02  0.1170190E+00
         21   -1    0    0  503  502  0.00000000000E+00  0.00000000000E+00  0.70757106518E+03  0.70757106518E+03  0.00000000000E+00 0. -1.
         21   -1    0    0  501  503 -0.00000000000E+00 -0.00000000000E+00 -0.50968550984E+02  0.50968550984E+02  0.00000000000E+00 0. -1.
          6    1    1    2  501    0 -0.16998162460E+02  0.36167147865E+02  0.19376535129E+03  0.26281364400E+03  0.17300000000E+03 0.  1.
         -6    1    1    2    0  502  0.16998162460E+02 -0.36167147865E+02  0.46283716291E+03  0.49572597217E+03  0.17300000000E+03 0.  1.
<mgrwt>
<rscale>  2 0.17755563E+03</rscale>
<asrwt>0</asrwt>
<pdfrwt beam="1">  1       21 0.10885708E+00 0.17755563E+03</pdfrwt>
<pdfrwt beam="2">  1       21 0.78413161E-02 0.17755563E+03</pdfrwt>
<totfact> 0.83790144E+04</totfact>
</mgrwt>
</event>
<event>
 4    1  0.3902417E-001  0.4956943E+03  0.7546771E-02  0.1014909E+00
         21   -1    0    0  503  502  0.00000000000E+00  0.00000000000E+00  0.40358792527E+03  0.40358792527E+03  0.00000000000E+00 0.  1.
         21   -1    0    0  501  503 -0.00000000000E+00 -0.00000000000E+00 -0.62708385499E+03  0.62708385499E+03  0.00000000000E+00 0.  1.
          6    1    1    2  501    0  0.17382296307E+03  0.43077764481E+03 -0.19969313401E+03  0.53440635244E+03  0.17300000000E+03 0.  1.
         -6    1    1    2    0  502 -0.17382296307E+03 -0.43077764481E+03 -0.23802795707E+02  0.49626542781E+03  0.17300000000E+03 0.  1.
<mgrwt>
<rscale>  2 0.49569426E+03</rscale>
<asrwt>0</asrwt>
<pdfrwt beam="1">  1       21 0.62090450E-01 0.49569426E+03</pdfrwt>
<pdfrwt beam="2">  1       21 0.96474439E-01 0.49569426E+03</pdfrwt>
<totfact> 0.18219606E+03</totfact>
</mgrwt>
</event>
<event>
 4    1  0.3902417E-001  0.1806763E+03  0.7546771E-02  0.1167150E+00
         21   -1    0    0  503  502  0.00000000000E+00  0.00000000000E+00  0.15018407679E+03  0.15018407679E+03  0.00000000000E+00 0.  1.
         21   -1    0    0  501  503 -0.00000000000E+00 -0.00000000000E+00 -0.24349422172E+03  0.24349422172E+03  0.00000000000E+00 0.  1.
          6    1    1    2  501    0 -0.30533222882E+02 -0.42221595612E+02 -0.11114261290E+03  0.21212407039E+03  0.17300000000E+03 0.  1.
         -6    1    1    2    0  502  0.30533222882E+02  0.42221595612E+02  0.17832467962E+02  0.18155422812E+03  0.17300000000E+03 0.  1.
<mgrwt>
<rscale>  2 0.18067634E+03</rscale>
<asrwt>0</asrwt>
<pdfrwt beam="1">  1       21 0.23105243E-01 0.18067634E+03</pdfrwt>
<pdfrwt beam="2">  1       21 0.37460649E-01 0.18067634E+03</pdfrwt>
<totfact> 0.12143622E+05</totfact>
</mgrwt>
</event>
<event>
 4    1  0.3902417E-001  0.2188310E+03  0.7546771E-02  0.1134758E+00
         21   -1    0    0  501  502  0.00000000000E+00  0.00000000000E+00  0.17988417692E+04  0.17988417692E+04  0.00000000000E+00 0. -1.
         21   -1    0    0  502  503 -0.00000000000E+00 -0.00000000000E+00 -0.28475921816E+02  0.28475921816E+02  0.00000000000E+00 0. -1.
          6    1    1    2  501    0  0.10705593740E+03  0.80604083633E+02  0.65199485492E+03  0.68773852798E+03  0.17300000000E+03 0. -1.
         -6    1    1    2    0  503 -0.10705593740E+03 -0.80604083633E+02  0.11183709925E+04  0.11395791631E+04  0.17300000000E+03 0. -1.
<mgrwt>
<rscale>  2 0.21883097E+03</rscale>
<asrwt>0</asrwt>
<pdfrwt beam="1">  1       21 0.27674480E+00 0.21883097E+03</pdfrwt>
<pdfrwt beam="2">  1       21 0.43809125E-02 0.21883097E+03</pdfrwt>
<totfact> 0.15253115E+04</totfact>
</mgrwt>
</event>
<event>
 4    1  0.3902417E-001  0.1751917E+03  0.7546771E-02  0.1172539E+00
         21   -1    0    0  501  502  0.00000000000E+00  0.00000000000E+00  0.81570065197E+03  0.81570065197E+03  0.00000000000E+00 0. -1.
         21   -1    0    0  502  503 -0.00000000000E+00 -0.00000000000E+00 -0.40939618387E+02  0.40939618387E+02  0.00000000000E+00 0. -1.
          6    1    1    2  501    0  0.20891285144E+02  0.18074031260E+02  0.50922406923E+03  0.53851765902E+03  0.17300000000E+03 0. -1.
         -6    1    1    2    0  503 -0.20891285144E+02 -0.18074031260E+02  0.26553696435E+03  0.31812261133E+03  0.17300000000E+03 0. -1.
<mgrwt>
<rscale>  2 0.17519166E+03</rscale>
<asrwt>0</asrwt>
<pdfrwt beam="1">  1       21 0.12549240E+00 0.17519166E+03</pdfrwt>
<pdfrwt beam="2">  1       21 0.62984034E-02 0.17519166E+03</pdfrwt>
<totfact> 0.86396859E+04</totfact>
</mgrwt>
</event>
<event>
 4    1  0.3902417E-001  0.1850171E+03  0.7546771E-02  0.1163034E+00
         21   -1    0    0  503  502  0.00000000000E+00  0.00000000000E+00  0.29261464619E+03  0.29261464619E+03  0.00000000000E+00 0. -1.
         21   -1    0    0  501  503 -0.00000000000E+00 -0.00000000000E+00 -0.11849447422E+03  0.11849447422E+03  0.00000000000E+00 0. -1.
          6    1    1    2  501    0 -0.28173154845E+02  0.59233454650E+02  0.11026537854E+03  0.21538287422E+03  0.17300000000E+03 0.  1.
         -6    1    1    2    0  502  0.28173154845E+02 -0.59233454650E+02  0.63854793426E+02  0.19572624619E+03  0.17300000000E+03 0.  1.
<mgrwt>
<rscale>  2 0.18501710E+03</rscale>
<asrwt>0</asrwt>
<pdfrwt beam="1">  1       21 0.45017638E-01 0.18501710E+03</pdfrwt>
<pdfrwt beam="2">  1       21 0.18229919E-01 0.18501710E+03</pdfrwt>
<totfact> 0.13018766E+05</totfact>
</mgrwt>
</event>
<event>
 4    1  0.3902417E-001  0.3618543E+03  0.7546771E-02  0.1057852E+00
         21   -1    0    0  501  502  0.00000000000E+00  0.00000000000E+00  0.39845251865E+03  0.39845251865E+03  0.00000000000E+00 0.  1.
         21   -1    0    0  502  503 -0.00000000000E+00 -0.00000000000E+00 -0.65632121509E+03  0.65632121509E+03  0.00000000000E+00 0. -1.
          6    1    1    2  501    0  0.29618374832E+03  0.11525928901E+03  0.24372472140E+03  0.43628002051E+03  0.17300000000E+03 0.  1.
         -6    1    1    2    0  503 -0.29618374832E+03 -0.11525928901E+03 -0.50159341785E+03  0.61849371323E+03  0.17300000000E+03 0. -1.
<mgrwt>
<rscale>  2 0.36185428E+03</rscale>
<asrwt>0</asrwt>
<pdfrwt beam="1">  1       21 0.61300388E-01 0.36185428E+03</pdfrwt>
<pdfrwt beam="2">  1       21 0.10097249E+00 0.36185428E+03</pdfrwt>
<totfact> 0.17728343E+03</totfact>
</mgrwt>
</event>
<event>
 4    1  0.3902417E-001  0.4182257E+03  0.7546771E-02  0.1037645E+00
         21   -1    0    0  503  502  0.00000000000E+00  0.00000000000E+00  0.47192735132E+03  0.47192735132E+03  0.00000000000E+00 0. -1.
         21   -1    0    0  501  503 -0.00000000000E+00 -0.00000000000E+00 -0.53410105496E+03  0.53410105496E+03  0.00000000000E+00 0.  1.
          6    1    1    2  501    0  0.37822637693E+03  0.43914799263E+02 -0.30936722688E+03  0.52021224791E+03  0.17300000000E+03 0.  1.
         -6    1    1    2    0  502 -0.37822637693E+03 -0.43914799263E+02  0.24719352324E+03  0.48581615837E+03  0.17300000000E+03 0. -1.
<mgrwt>
<rscale>  2 0.41822566E+03</rscale>
<asrwt>0</asrwt>
<pdfrwt beam="1">  1       21 0.72604208E-01 0.41822566E+03</pdfrwt>
<pdfrwt beam="2">  1       21 0.82169392E-01 0.41822566E+03</pdfrwt>
<totfact> 0.19320712E+03</totfact>
</mgrwt>
</event>
<event>
 4    1  0.3902417E-001  0.2543820E+03  0.7546771E-02  0.1110566E+00
         21   -1    0    0  503  502  0.00000000000E+00  0.00000000000E+00  0.82485424596E+03  0.82485424596E+03  0.00000000000E+00 0.  1.
         21   -1    0    0  501  503 -0.00000000000E+00 -0.00000000000E+00 -0.13116120358E+03  0.13116120358E+03  0.00000000000E+00 0. -1.
          6    1    1    2  501    0 -0.30561023836E+02  0.18397612320E+03  0.43819180568E+02  0.25812847706E+03  0.17300000000E+03 0. -1.
         -6    1    1    2    0  502  0.30561023836E+02 -0.18397612320E+03  0.64987386181E+03  0.69788697248E+03  0.17300000000E+03 0.  1.
<mgrwt>
<rscale>  2 0.25438198E+03</rscale>
<asrwt>0</asrwt>
<pdfrwt beam="1">  1       21 0.12690065E+00 0.25438198E+03</pdfrwt>
<pdfrwt beam="2">  1       21 0.20178647E-01 0.25438198E+03</pdfrwt>
<totfact> 0.10016284E+04</totfact>
</mgrwt>
</event>
<event>
 4    1  0.3902417E-001  0.2102383E+03  0.7546771E-02  0.1141377E+00
         21   -1    0    0  503  502  0.00000000000E+00  0.00000000000E+00  0.38325743150E+03  0.38325743150E+03  0.00000000000E+00 0.  1.
         21   -1    0    0  501  503 -0.00000000000E+00 -0.00000000000E+00 -0.13637179748E+03  0.13637179748E+03  0.00000000000E+00 0.  1.
          6    1    1    2  501    0 -0.11750773097E+03 -0.21518883306E+02  0.21379823630E+02  0.21132256395E+03  0.17300000000E+03 0.  1.
         -6    1    1    2    0  502  0.11750773097E+03  0.21518883306E+02  0.22550581039E+03  0.30830666502E+03  0.17300000000E+03 0.  1.
<mgrwt>
<rscale>  2 0.21023827E+03</rscale>
<asrwt>0</asrwt>
<pdfrwt beam="1">  1       21 0.58962681E-01 0.21023827E+03</pdfrwt>
<pdfrwt beam="2">  1       21 0.20980277E-01 0.21023827E+03</pdfrwt>
<totfact> 0.56302298E+04</totfact>
</mgrwt>
</event>
<event>
 4    1  0.3902417E-001  0.1781958E+03  0.7546771E-02  0.1169561E+00
         21   -1    0    0  503  502  0.00000000000E+00  0.00000000000E+00  0.33149840591E+02  0.33149840591E+02  0.00000000000E+00 0. -1.
         21   -1    0    0  501  503 -0.00000000000E+00 -0.00000000000E+00 -0.10135678403E+04  0.10135678403E+04  0.00000000000E+00 0. -1.
          6    1    1    2  501    0  0.41672697741E+02 -0.93869762985E+01 -0.61287792171E+03  0.63825784443E+03  0.17300000000E+03 0. -1.
         -6    1    1    2    0  502 -0.41672697741E+02  0.93869762985E+01 -0.36754007797E+03  0.40845983642E+03  0.17300000000E+03 0. -1.
<mgrwt>
<rscale>  2 0.17819576E+03</rscale>
<asrwt>0</asrwt>
<pdfrwt beam="1">  1       21 0.50999769E-02 0.17819576E+03</pdfrwt>
<pdfrwt beam="2">  1       21 0.15593347E+00 0.17819576E+03</pdfrwt>
<totfact> 0.70695668E+04</totfact>
</mgrwt>
</event>
<event>
 4    1  0.3902417E-001  0.2037972E+03  0.7546771E-02  0.1146574E+00
         21   -1    0    0  501  502  0.00000000000E+00  0.00000000000E+00  0.13691748567E+03  0.13691748567E+03  0.00000000000E+00 0. -1.
         21   -1    0    0  502  503 -0.00000000000E+00 -0.00000000000E+00 -0.31918543205E+03  0.31918543205E+03  0.00000000000E+00 0. -1.
          6    1    1    2  501    0  0.10152006318E+03  0.36027696485E+02 -0.40331309946E+02  0.20774968761E+03  0.17300000000E+03 0. -1.
         -6    1    1    2    0  503 -0.10152006318E+03 -0.36027696485E+02 -0.14193663643E+03  0.24835323011E+03  0.17300000000E+03 0. -1.
<mgrwt>
<rscale>  2 0.20379725E+03</rscale>
<asrwt>0</asrwt>
<pdfrwt beam="1">  1       21 0.21064229E-01 0.20379725E+03</pdfrwt>
<pdfrwt beam="2">  1       21 0.49105451E-01 0.20379725E+03</pdfrwt>
<totfact> 0.82482493E+04</totfact>
</mgrwt>
</event>
<event>
 4    1  0.3902417E-001  0.2700420E+03  0.7546771E-02  0.1101256E+00
         21   -1    0    0  503  502  0.00000000000E+00  0.00000000000E+00  0.51235726130E+03  0.51235726130E+03  0.00000000000E+00 0. -1.
         21   -1    0    0  501  503 -0.00000000000E+00 -0.00000000000E+00 -0.26695032491E+03  0.26695032491E+03  0.00000000000E+00 0. -1.
          6    1    1    2  501    0 -0.13566353718E+02 -0.20690487787E+03 -0.14352958913E+03  0.30581598616E+03  0.17300000000E+03 0. -1.
         -6    1    1    2    0  502  0.13566353718E+02  0.20690487787E+03  0.38893652551E+03  0.47349160005E+03  0.17300000000E+03 0. -1.
<mgrwt>
<rscale>  2 0.27004199E+03</rscale>
<asrwt>0</asrwt>
<pdfrwt beam="1">  1       21 0.78824194E-01 0.27004199E+03</pdfrwt>
<pdfrwt beam="2">  1       21 0.41069281E-01 0.27004199E+03</pdfrwt>
<totfact> 0.77352785E+03</totfact>
</mgrwt>
</event>
<event>
 4    1  0.3902417E-001  0.3780334E+03  0.7546771E-02  0.1051663E+00
         21   -1    0    0  503  502  0.00000000000E+00  0.00000000000E+00  0.11859212704E+03  0.11859212704E+03  0.00000000000E+00 0. -1.
         21   -1    0    0  501  503 -0.00000000000E+00 -0.00000000000E+00 -0.12164342684E+04  0.12164342684E+04  0.00000000000E+00 0. -1.
          6    1    1    2  501    0  0.69166823184E+02  0.32893187226E+03 -0.48434034168E+03  0.61440604863E+03  0.17300000000E+03 0. -1.
         -6    1    1    2    0  502 -0.69166823184E+02 -0.32893187226E+03 -0.61350179972E+03  0.72062034684E+03  0.17300000000E+03 0. -1.
<mgrwt>
<rscale>  2 0.37803337E+03</rscale>
<asrwt>0</asrwt>
<pdfrwt beam="1">  1       21 0.18244944E-01 0.37803337E+03</pdfrwt>
<pdfrwt beam="2">  1       21 0.18714372E+00 0.37803337E+03</pdfrwt>
<totfact> 0.39511916E+03</totfact>
</mgrwt>
</event>
<event>
 4    1  0.3902417E-001  0.2942588E+03  0.7546771E-02  0.1088146E+00
         21   -1    0    0  503  502  0.00000000000E+00  0.00000000000E+00  0.48050553745E+03  0.48050553745E+03  0.00000000000E+00 0. -1.
         21   -1    0    0  501  503 -0.00000000000E+00 -0.00000000000E+00 -0.24364063662E+03  0.24364063662E+03  0.00000000000E+00 0. -1.
          6    1    1    2  501    0 -0.11958318779E+03 -0.20581331458E+03 -0.66322836475E+02  0.30164047788E+03  0.17300000000E+03 0. -1.
         -6    1    1    2    0  502  0.11958318779E+03  0.20581331458E+03  0.30318773731E+03  0.42250569619E+03  0.17300000000E+03 0. -1.
<mgrwt>
<rscale>  2 0.29425883E+03</rscale>
<asrwt>0</asrwt>
<pdfrwt beam="1">  1       21 0.73923929E-01 0.29425883E+03</pdfrwt>
<pdfrwt beam="2">  1       21 0.37483175E-01 0.29425883E+03</pdfrwt>
<totfact> 0.10642447E+04</totfact>
</mgrwt>
</event>
<event>
 4    1  0.3902417E-001  0.2212901E+03  0.7546771E-02  0.1132925E+00
         21   -1    0    0  501  502  0.00000000000E+00  0.00000000000E+00  0.77215245277E+02  0.77215245277E+02  0.00000000000E+00 0.  1.
         21   -1    0    0  502  503 -0.00000000000E+00 -0.00000000000E+00 -0.77092537244E+03  0.77092537244E+03  0.00000000000E+00 0.  1.
          6    1    1    2  501    0 -0.12198304087E+03 -0.64501528485E+02 -0.16826035928E+03  0.27799434876E+03  0.17300000000E+03 0.  1.
         -6    1    1    2    0  503  0.12198304087E+03  0.64501528485E+02 -0.52544976788E+03  0.57014626895E+03  0.17300000000E+03 0.  1.
<mgrwt>
<rscale>  2 0.22129010E+03</rscale>
<asrwt>0</asrwt>
<pdfrwt beam="1">  1       21 0.11879268E-01 0.22129010E+03</pdfrwt>
<pdfrwt beam="2">  1       21 0.11860391E+00 0.22129010E+03</pdfrwt>
<totfact> 0.31964054E+04</totfact>
</mgrwt>
</event>
<event>
 4    1  0.3902417E-001  0.2446937E+03  0.7546771E-02  0.1116705E+00
         21   -1    0    0  501  502  0.00000000000E+00  0.00000000000E+00  0.19973883493E+04  0.19973883493E+04  0.00000000000E+00 0. -1.
         21   -1    0    0  502  503 -0.00000000000E+00 -0.00000000000E+00 -0.35729702492E+02  0.35729702492E+02  0.00000000000E+00 0.  1.
          6    1    1    2  501    0 -0.10111752247E+03  0.14043235912E+03  0.13887420637E+04  0.14101345752E+04  0.17300000000E+03 0.  1.
         -6    1    1    2    0  503  0.10111752247E+03 -0.14043235912E+03  0.57291658310E+03  0.62298347653E+03  0.17300000000E+03 0.  1.
<mgrwt>
<rscale>  2 0.24469369E+03</rscale>
<asrwt>0</asrwt>
<pdfrwt beam="1">  1       21 0.30729043E+00 0.24469369E+03</pdfrwt>
<pdfrwt beam="2">  1       21 0.54968789E-02 0.24469369E+03</pdfrwt>
<totfact> 0.67292872E+03</totfact>
</mgrwt>
</event>
<event>
 4    1  0.3902417E-001  0.2015628E+03  0.7546771E-02  0.1148427E+00
         21   -1    0    0  503  502  0.00000000000E+00  0.00000000000E+00  0.47405615495E+03  0.47405615495E+03  0.00000000000E+00 0. -1.
         21   -1    0    0  501  503 -0.00000000000E+00 -0.00000000000E+00 -0.86667329273E+02  0.86667329273E+02  0.00000000000E+00 0.  1.
          6    1    1    2  501    0 -0.88971808448E+02 -0.52750147527E+02  0.22328330465E+03  0.30080391437E+03  0.17300000000E+03 0. -1.
         -6    1    1    2    0  502  0.88971808448E+02  0.52750147527E+02  0.16410552103E+03  0.25991956986E+03  0.17300000000E+03 0. -1.
<mgrwt>
<rscale>  2 0.20156280E+03</rscale>
<asrwt>0</asrwt>
<pdfrwt beam="1">  1       21 0.72931714E-01 0.20156280E+03</pdfrwt>
<pdfrwt beam="2">  1       21 0.13333436E-01 0.20156280E+03</pdfrwt>
<totfact> 0.81852182E+04</totfact>
</mgrwt>
</event>
<event>
 4    1  0.3902417E-001  0.2025305E+03  0.7546771E-02  0.1147621E+00
         21   -1    0    0  501  502  0.00000000000E+00  0.00000000000E+00  0.86192774274E+02  0.86192774274E+02  0.00000000000E+00 0. -1.
         21   -1    0    0  502  503 -0.00000000000E+00 -0.00000000000E+00 -0.56554545544E+03  0.56554545544E+03  0.00000000000E+00 0. -1.
          6    1    1    2  501    0 -0.13884156243E+01  0.10529805716E+03 -0.36942071984E+03  0.42129594917E+03  0.17300000000E+03 0. -1.
         -6    1    1    2    0  503  0.13884156243E+01 -0.10529805716E+03 -0.10993196132E+03  0.23044228054E+03  0.17300000000E+03 0. -1.
<mgrwt>
<rscale>  2 0.20253051E+03</rscale>
<asrwt>0</asrwt>
<pdfrwt beam="1">  1       21 0.13260427E-01 0.20253051E+03</pdfrwt>
<pdfrwt beam="2">  1       21 0.87006995E-01 0.20253051E+03</pdfrwt>
<totfact> 0.55437453E+04</totfact>
</mgrwt>
</event>
<event>
 4    1  0.3902417E-001  0.2058483E+03  0.7546771E-02  0.1144897E+00
         21   -1    0    0  501  502  0.00000000000E+00  0.00000000000E+00  0.89334081223E+02  0.89334081223E+02  0.00000000000E+00 0. -1.
         21   -1    0    0  502  503 -0.00000000000E+00 -0.00000000000E+00 -0.52021083573E+03  0.52021083573E+03  0.00000000000E+00 0.  1.
          6    1    1    2  501    0  0.65314737750E+02  0.90435028366E+02 -0.12492371790E+03  0.24078921200E+03  0.17300000000E+03 0. -1.
         -6    1    1    2    0  503 -0.65314737750E+02 -0.90435028366E+02 -0.30595303660E+03  0.36875570495E+03  0.17300000000E+03 0.  1.
<mgrwt>
<rscale>  2 0.20584827E+03</rscale>
<asrwt>0</asrwt>
<pdfrwt beam="1">  1       21 0.13743704E-01 0.20584827E+03</pdfrwt>
<pdfrwt beam="2">  1       21 0.80032439E-01 0.20584827E+03</pdfrwt>
<totfact> 0.62783511E+04</totfact>
</mgrwt>
</event>
<event>
 4    1  0.3902417E-001  0.3329303E+03  0.7546771E-02  0.1069848E+00
         21   -1    0    0  503  502  0.00000000000E+00  0.00000000000E+00  0.19354345356E+04  0.19354345356E+04  0.00000000000E+00 0. -1.
         21   -1    0    0  501  503 -0.00000000000E+00 -0.00000000000E+00 -0.74577971535E+02  0.74577971535E+02  0.00000000000E+00 0.  1.
          6    1    1    2  501    0 -0.27674978304E+03 -0.65750491845E+02  0.44627257918E+03  0.55677803883E+03  0.17300000000E+03 0.  1.
         -6    1    1    2    0  502  0.27674978304E+03  0.65750491845E+02  0.14145839849E+04  0.14532344683E+04  0.17300000000E+03 0. -1.
<mgrwt>
<rscale>  2 0.33293028E+03</rscale>
<asrwt>0</asrwt>
<pdfrwt beam="1">  1       21 0.29775912E+00 0.33293028E+03</pdfrwt>
<pdfrwt beam="2">  1       21 0.11473536E-01 0.33293028E+03</pdfrwt>
<totfact> 0.19591117E+03</totfact>
</mgrwt>
</event>
<event>
 4    1  0.3902417E-001  0.2990686E+03  0.7546771E-02  0.1085707E+00
         21   -1    0    0  501  502  0.00000000000E+00  0.00000000000E+00  0.89508972843E+03  0.89508972843E+03  0.00000000000E+00 0. -1.
         21   -1    0    0  502  503 -0.00000000000E+00 -0.00000000000E+00 -0.15090834729E+03  0.15090834729E+03  0.00000000000E+00 0.  1.
          6    1    1    2  501    0  0.24377288712E+03 -0.93702678546E+01  0.67607948044E+03  0.73927362071E+03  0.17300000000E+03 0. -1.
         -6    1    1    2    0  503 -0.24377288712E+03  0.93702678546E+01  0.68101900702E+02  0.30672445500E+03  0.17300000000E+03 0.  1.
<mgrwt>
<rscale>  2 0.29906859E+03</rscale>
<asrwt>0</asrwt>
<pdfrwt beam="1">  1       21 0.13770611E+00 0.29906859E+03</pdfrwt>
<pdfrwt beam="2">  1       21 0.23216669E-01 0.29906859E+03</pdfrwt>
<totfact> 0.60736666E+03</totfact>
</mgrwt>
</event>
<event>
 4    1  0.3902417E-001  0.1827671E+03  0.7546771E-02  0.1165152E+00
         21   -1    0    0  503  502  0.00000000000E+00  0.00000000000E+00  0.23337861904E+03  0.23337861904E+03  0.00000000000E+00 0. -1.
         21   -1    0    0  501  503 -0.00000000000E+00 -0.00000000000E+00 -0.18217279410E+03  0.18217279410E+03  0.00000000000E+00 0. -1.
          6    1    1    2  501    0  0.58735227135E+02  0.50000781019E+01 -0.70583828210E+02  0.19592321070E+03  0.17300000000E+03 0. -1.
         -6    1    1    2    0  502 -0.58735227135E+02 -0.50000781019E+01  0.12178965315E+03  0.21962820243E+03  0.17300000000E+03 0. -1.
<mgrwt>
<rscale>  2 0.18276714E+03</rscale>
<asrwt>0</asrwt>
<pdfrwt beam="1">  1       21 0.35904403E-01 0.18276714E+03</pdfrwt>
<pdfrwt beam="2">  1       21 0.28026584E-01 0.18276714E+03</pdfrwt>
<totfact> 0.91316359E+04</totfact>
</mgrwt>
</event>
<event>
 4    1  0.3902417E-001  0.2142385E+03  0.7546771E-02  0.1138253E+00
         21   -1    0    0  503  502  0.00000000000E+00  0.00000000000E+00  0.65010832029E+02  0.65010832029E+02  0.00000000000E+00 0.  1.
         21   -1    0    0  501  503 -0.00000000000E+00 -0.00000000000E+00 -0.70603685544E+03  0.70603685544E+03  0.00000000000E+00 0.  1.
          6    1    1    2  501    0 -0.10295594871E+03 -0.73274960800E+02 -0.32299090308E+03  0.38758388863E+03  0.17300000000E+03 0.  1.
         -6    1    1    2    0  502  0.10295594871E+03  0.73274960800E+02 -0.31803512033E+03  0.38346379884E+03  0.17300000000E+03 0.  1.
<mgrwt>
<rscale>  2 0.21423853E+03</rscale>
<asrwt>0</asrwt>
<pdfrwt beam="1">  1       21 0.10001666E-01 0.21423853E+03</pdfrwt>
<pdfrwt beam="2">  1       21 0.10862106E+00 0.21423853E+03</pdfrwt>
<totfact> 0.54031708E+04</totfact>
</mgrwt>
</event>
<event>
 4    1  0.3902417E-001  0.1741257E+03  0.7546771E-02  0.1173612E+00
         21   -1    0    0  501  502  0.00000000000E+00  0.00000000000E+00  0.69540660749E+02  0.69540660749E+02  0.00000000000E+00 0.  1.
         21   -1    0    0  502  503 -0.00000000000E+00 -0.00000000000E+00 -0.43650159736E+03  0.43650159736E+03  0.00000000000E+00 0.  1.
          6    1    1    2  501    0 -0.19214160437E+02 -0.46458533408E+01 -0.17490824630E+03  0.24680490785E+03  0.17300000000E+03 0.  1.
         -6    1    1    2    0  503  0.19214160437E+02  0.46458533408E+01 -0.19205269032E+03  0.25923735027E+03  0.17300000000E+03 0.  1.
<mgrwt>
<rscale>  2 0.17412572E+03</rscale>
<asrwt>0</asrwt>
<pdfrwt beam="1">  1       21 0.10698563E-01 0.17412572E+03</pdfrwt>
<pdfrwt beam="2">  1       21 0.67154092E-01 0.17412572E+03</pdfrwt>
<totfact> 0.14707149E+05</totfact>
</mgrwt>
</event>
<event>
 4    1  0.3902417E-001  0.2700501E+03  0.7546771E-02  0.1101251E+00
         21   -1    0    0  501  502  0.00000000000E+00  0.00000000000E+00  0.25507804064E+03  0.25507804064E+03  0.00000000000E+00 0. -1.
         21   -1    0    0  502  503 -0.00000000000E+00 -0.00000000000E+00 -0.45141194932E+03  0.45141194932E+03  0.00000000000E+00 0.  1.
          6    1    1    2  501    0  0.19983121890E+03 -0.55367127136E+02  0.11572922219E+03  0.29380314444E+03  0.17300000000E+03 0. -1.
         -6    1    1    2    0  503 -0.19983121890E+03  0.55367127136E+02 -0.31206313086E+03  0.41268684551E+03  0.17300000000E+03 0.  1.
<mgrwt>
<rscale>  2 0.27005006E+03</rscale>
<asrwt>0</asrwt>
<pdfrwt beam="1">  1       21 0.39242776E-01 0.27005006E+03</pdfrwt>
<pdfrwt beam="2">  1       21 0.69447992E-01 0.27005006E+03</pdfrwt>
<totfact> 0.11280740E+04</totfact>
</mgrwt>
</event>
<event>
 4    1  0.3902417E-001  0.2447361E+03  0.7546771E-02  0.1116677E+00
         21   -1    0    0  501  502  0.00000000000E+00  0.00000000000E+00  0.12633770899E+04  0.12633770899E+04  0.00000000000E+00 0. -1.
         21   -1    0    0  502  503 -0.00000000000E+00 -0.00000000000E+00 -0.72231884183E+02  0.72231884183E+02  0.00000000000E+00 0.  1.
          6    1    1    2  501    0 -0.13249752300E+03 -0.11140538119E+03  0.20409326231E+03  0.31866881284E+03  0.17300000000E+03 0.  1.
         -6    1    1    2    0  503  0.13249752300E+03  0.11140538119E+03  0.98705194342E+03  0.10169401613E+04  0.17300000000E+03 0. -1.
<mgrwt>
<rscale>  2 0.24473609E+03</rscale>
<asrwt>0</asrwt>
<pdfrwt beam="1">  1       21 0.19436569E+00 0.24473609E+03</pdfrwt>
<pdfrwt beam="2">  1       21 0.11112598E-01 0.24473609E+03</pdfrwt>
<totfact> 0.94453384E+03</totfact>
</mgrwt>
</event>
<event>
 4    1  0.3902417E-001  0.1924288E+03  0.7546771E-02  0.1156289E+00
         21   -1    0    0  503  502  0.00000000000E+00  0.00000000000E+00  0.10438162657E+04  0.10438162657E+04  0.00000000000E+00 0. -1.
         21   -1    0    0  501  503 -0.00000000000E+00 -0.00000000000E+00 -0.39499472448E+02  0.39499472448E+02  0.00000000000E+00 0. -1.
          6    1    1    2  501    0  0.81276634248E+02  0.22225338234E+02  0.67506478115E+03  0.70195535163E+03  0.17300000000E+03 0. -1.
         -6    1    1    2    0  502 -0.81276634248E+02 -0.22225338234E+02  0.32925201213E+03  0.38136038655E+03  0.17300000000E+03 0. -1.
<mgrwt>
<rscale>  2 0.19242884E+03</rscale>
<asrwt>0</asrwt>
<pdfrwt beam="1">  1       21 0.16058710E+00 0.19242884E+03</pdfrwt>
<pdfrwt beam="2">  1       21 0.60768427E-02 0.19242884E+03</pdfrwt>
<totfact> 0.48089617E+04</totfact>
</mgrwt>
</event>
<event>
 4    1  0.3902417E-001  0.2396337E+03  0.7546771E-02  0.1120037E+00
         21   -1    0    0  501  502  0.00000000000E+00  0.00000000000E+00  0.35191829973E+03  0.35191829973E+03  0.00000000000E+00 0. -1.
         21   -1    0    0  502  503 -0.00000000000E+00 -0.00000000000E+00 -0.16863939823E+03  0.16863939823E+03  0.00000000000E+00 0.  1.
          6    1    1    2  501    0 -0.80036565097E+02 -0.14522209875E+03  0.13849120740E+03  0.27677450071E+03  0.17300000000E+03 0. -1.
         -6    1    1    2    0  503  0.80036565097E+02  0.14522209875E+03  0.44787694107E+02  0.24378319725E+03  0.17300000000E+03 0.  1.
<mgrwt>
<rscale>  2 0.23963370E+03</rscale>
<asrwt>0</asrwt>
<pdfrwt beam="1">  1       21 0.54141277E-01 0.23963370E+03</pdfrwt>
<pdfrwt beam="2">  1       21 0.25944523E-01 0.23963370E+03</pdfrwt>
<totfact> 0.44507241E+04</totfact>
</mgrwt>
</event>
<event>
 4    1  0.3902417E-001  0.2875926E+03  0.7546771E-02  0.1091613E+00
         21   -1    0    0  503  502  0.00000000000E+00  0.00000000000E+00  0.47283753005E+03  0.47283753005E+03  0.00000000000E+00 0.  1.
         21   -1    0    0  501  503 -0.00000000000E+00 -0.00000000000E+00 -0.21047402772E+03  0.21047402772E+03  0.00000000000E+00 0. -1.
          6    1    1    2  501    0  0.22481112828E+03  0.47333197008E+02 -0.92367828964E+01  0.28774084364E+03  0.17300000000E+03 0. -1.
         -6    1    1    2    0  502 -0.22481112828E+03 -0.47333197008E+02  0.27160028523E+03  0.39557071413E+03  0.17300000000E+03 0.  1.
<mgrwt>
<rscale>  2 0.28759255E+03</rscale>
<asrwt>0</asrwt>
<pdfrwt beam="1">  1       21 0.72744235E-01 0.28759255E+03</pdfrwt>
<pdfrwt beam="2">  1       21 0.32380620E-01 0.28759255E+03</pdfrwt>
<totfact> 0.14837483E+04</totfact>
</mgrwt>
</event>
<event>
 4    1  0.3902417E-001  0.1921510E+03  0.7546771E-02  0.1156535E+00
         21   -1    0    0  501  502  0.00000000000E+00  0.00000000000E+00  0.69327579041E+02  0.69327579041E+02  0.00000000000E+00 0. -1.
         21   -1    0    0  502  503 -0.00000000000E+00 -0.00000000000E+00 -0.10970467758E+04  0.10970467758E+04  0.00000000000E+00 0. -1.
          6    1    1    2  501    0 -0.32170220679E+02 -0.77188694702E+02 -0.95531378153E+02  0.21458858753E+03  0.17300000000E+03 0. -1.
         -6    1    1    2    0  503  0.32170220679E+02  0.77188694702E+02 -0.93218781859E+03  0.95178576729E+03  0.17300000000E+03 0. -1.
<mgrwt>
<rscale>  2 0.19215103E+03</rscale>
<asrwt>0</asrwt>
<pdfrwt beam="1">  1       21 0.10665781E-01 0.19215103E+03</pdfrwt>
<pdfrwt beam="2">  1       21 0.16877643E+00 0.19215103E+03</pdfrwt>
<totfact> 0.15763468E+04</totfact>
</mgrwt>
</event>
<event>
 4    1  0.3902417E-001  0.1842030E+03  0.7546771E-02  0.1163796E+00
         21   -1    0    0  503  502  0.00000000000E+00  0.00000000000E+00  0.11711657644E+04  0.11711657644E+04  0.00000000000E+00 0.  1.
         21   -1    0    0  501  503 -0.00000000000E+00 -0.00000000000E+00 -0.32155824121E+02  0.32155824121E+02  0.00000000000E+00 0.  1.
          6    1    1    2  501    0 -0.11248911973E+01  0.63249317574E+02  0.38017807151E+03  0.42245249155E+03  0.17300000000E+03 0.  1.
         -6    1    1    2    0  502  0.11248911973E+01 -0.63249317574E+02  0.75883186872E+03  0.78086909693E+03  0.17300000000E+03 0.  1.
<mgrwt>
<rscale>  2 0.18420299E+03</rscale>
<asrwt>0</asrwt>
<pdfrwt beam="1">  1       21 0.18017931E+00 0.18420299E+03</pdfrwt>
<pdfrwt beam="2">  1       21 0.49470508E-02 0.18420299E+03</pdfrwt>
<totfact> 0.49955056E+04</totfact>
</mgrwt>
</event>
<event>
 4    1  0.3902417E-001  0.2141381E+03  0.7546771E-02  0.1138330E+00
         21   -1    0    0  503  502  0.00000000000E+00  0.00000000000E+00  0.46108343615E+03  0.46108343615E+03  0.00000000000E+00 0.  1.
         21   -1    0    0  501  503 -0.00000000000E+00 -0.00000000000E+00 -0.12073299087E+03  0.12073299087E+03  0.00000000000E+00 0.  1.
          6    1    1    2  501    0 -0.81346532582E+01 -0.12593630481E+03  0.48037174750E+02  0.21946000914E+03  0.17300000000E+03 0.  1.
         -6    1    1    2    0  502  0.81346532582E+01  0.12593630481E+03  0.29231327052E+03  0.36235641788E+03  0.17300000000E+03 0.  1.
<mgrwt>
<rscale>  2 0.21413810E+03</rscale>
<asrwt>0</asrwt>
<pdfrwt beam="1">  1       21 0.70935912E-01 0.21413810E+03</pdfrwt>
<pdfrwt beam="2">  1       21 0.18574307E-01 0.21413810E+03</pdfrwt>
<totfact> 0.47162165E+04</totfact>
</mgrwt>
</event>
<event>
 4    1  0.3902417E-001  0.2384954E+03  0.7546771E-02  0.1120799E+00
         21   -1    0    0  501  502  0.00000000000E+00  0.00000000000E+00  0.13591184201E+03  0.13591184201E+03  0.00000000000E+00 0. -1.
         21   -1    0    0  502  503 -0.00000000000E+00 -0.00000000000E+00 -0.48798675685E+03  0.48798675685E+03  0.00000000000E+00 0. -1.
          6    1    1    2  501    0  0.62958006612E+01  0.16404695651E+03 -0.29374641524E+03  0.37837415016E+03  0.17300000000E+03 0. -1.
         -6    1    1    2    0  503 -0.62958006612E+01 -0.16404695651E+03 -0.58328499607E+02  0.24552444870E+03  0.17300000000E+03 0. -1.
<mgrwt>
<rscale>  2 0.23849537E+03</rscale>
<asrwt>0</asrwt>
<pdfrwt beam="1">  1       21 0.20909514E-01 0.23849537E+03</pdfrwt>
<pdfrwt beam="2">  1       21 0.75074886E-01 0.23849537E+03</pdfrwt>
<totfact> 0.32915115E+04</totfact>
</mgrwt>
</event>
<event>
 4    1  0.3902417E-001  0.1868195E+03  0.7546771E-02  0.1161362E+00
         21   -1    0    0  503  502  0.00000000000E+00  0.00000000000E+00  0.28450590979E+02  0.28450590979E+02  0.00000000000E+00 0. -1.
         21   -1    0    0  501  503 -0.00000000000E+00 -0.00000000000E+00 -0.12715862371E+04  0.12715862371E+04  0.00000000000E+00 0.  1.
          6    1    1    2  501    0 -0.69833959469E+02  0.97846189518E+01 -0.49949795092E+03  0.53329140593E+03  0.17300000000E+03 0.  1.
         -6    1    1    2    0  502  0.69833959469E+02 -0.97846189518E+01 -0.74363769515E+03  0.76674542210E+03  0.17300000000E+03 0.  1.
<mgrwt>
<rscale>  2 0.18681949E+03</rscale>
<asrwt>0</asrwt>
<pdfrwt beam="1">  1       21 0.43770143E-02 0.18681949E+03</pdfrwt>
<pdfrwt beam="2">  1       21 0.19562864E+00 0.18681949E+03</pdfrwt>
<totfact> 0.48443791E+04</totfact>
</mgrwt>
</event>
<event>
 4    1  0.3902417E-001  0.1878457E+03  0.7546771E-02  0.1160419E+00
         21   -1    0    0  501  502  0.00000000000E+00  0.00000000000E+00  0.94619943655E+03  0.94619943655E+03  0.00000000000E+00 0.  1.
         21   -1    0    0  502  503 -0.00000000000E+00 -0.00000000000E+00 -0.37934414122E+02  0.37934414122E+02  0.00000000000E+00 0.  1.
          6    1    1    2  501    0  0.30996192558E+02 -0.66304300664E+02  0.39011655745E+03  0.43298608827E+03  0.17300000000E+03 0. -1.
         -6    1    1    2    0  503 -0.30996192558E+02  0.66304300664E+02  0.51814846497E+03  0.55114776240E+03  0.17300000000E+03 0. -1.
<mgrwt>
<rscale>  2 0.18784575E+03</rscale>
<asrwt>0</asrwt>
<pdfrwt beam="1">  1       21 0.14556913E+00 0.18784575E+03</pdfrwt>
<pdfrwt beam="2">  1       21 0.58360644E-02 0.18784575E+03</pdfrwt>
<totfact> 0.67015960E+04</totfact>
</mgrwt>
</event>
<event>
 4    1  0.3902417E-001  0.1797966E+03  0.7546771E-02  0.1168000E+00
         21   -1    0    0  503  502  0.00000000000E+00  0.00000000000E+00  0.10179236426E+04  0.10179236426E+04  0.00000000000E+00 0.  1.
         21   -1    0    0  501  503 -0.00000000000E+00 -0.00000000000E+00 -0.31979190998E+02  0.31979190998E+02  0.00000000000E+00 0.  1.
          6    1    1    2  501    0 -0.41316333685E+02 -0.26282854241E+02  0.44927578697E+03  0.48391689432E+03  0.17300000000E+03 0.  1.
         -6    1    1    2    0  502  0.41316333685E+02  0.26282854241E+02  0.53666866463E+03  0.56598593927E+03  0.17300000000E+03 0.  1.
<mgrwt>
<rscale>  2 0.17979663E+03</rscale>
<asrwt>0</asrwt>
<pdfrwt beam="1">  1       21 0.15660361E+00 0.17979663E+03</pdfrwt>
<pdfrwt beam="2">  1       21 0.49198763E-02 0.17979663E+03</pdfrwt>
<totfact> 0.74212599E+04</totfact>
</mgrwt>
</event>
<event>
 4    1  0.3902417E-001  0.2357061E+03  0.7546771E-02  0.1122687E+00
         21   -1    0    0  501  502  0.00000000000E+00  0.00000000000E+00  0.10221889570E+04  0.10221889570E+04  0.00000000000E+00 0.  1.
         21   -1    0    0  502  503 -0.00000000000E+00 -0.00000000000E+00 -0.54363513262E+02  0.54363513262E+02  0.00000000000E+00 0.  1.
          6    1    1    2  501    0 -0.95622985131E+02 -0.12839246520E+03  0.49195429016E+03  0.54550564068E+03  0.17300000000E+03 0.  1.
         -6    1    1    2    0  503  0.95622985131E+02  0.12839246520E+03  0.47587115361E+03  0.53104682962E+03  0.17300000000E+03 0.  1.
<mgrwt>
<rscale>  2 0.23570613E+03</rscale>
<asrwt>0</asrwt>
<pdfrwt beam="1">  1       21 0.15725983E+00 0.23570613E+03</pdfrwt>
<pdfrwt beam="2">  1       21 0.83636182E-02 0.23570613E+03</pdfrwt>
<totfact> 0.28529778E+04</totfact>
</mgrwt>
</event>
<event>
 4    1  0.3902417E-001  0.1871815E+03  0.7546771E-02  0.1161028E+00
         21   -1    0    0  501  502  0.00000000000E+00  0.00000000000E+00  0.20579348933E+02  0.20579348933E+02  0.00000000000E+00 0. -1.
         21   -1    0    0  502  503 -0.00000000000E+00 -0.00000000000E+00 -0.17067387421E+04  0.17067387421E+04  0.00000000000E+00 0. -1.
          6    1    1    2  501    0  0.16953044955E+02  0.69429975123E+02 -0.80018391632E+03  0.82178538994E+03  0.17300000000E+03 0. -1.
         -6    1    1    2    0  503 -0.16953044955E+02 -0.69429975123E+02 -0.88597547687E+03  0.90553270112E+03  0.17300000000E+03 0. -1.
<mgrwt>
<rscale>  2 0.18718154E+03</rscale>
<asrwt>0</asrwt>
<pdfrwt beam="1">  1       21 0.31660540E-02 0.18718154E+03</pdfrwt>
<pdfrwt beam="2">  1       21 0.26257517E+00 0.18718154E+03</pdfrwt>
<totfact> 0.32639605E+04</totfact>
</mgrwt>
</event>
<event>
 4    1  0.3902417E-001  0.1859041E+03  0.7546771E-02  0.1162208E+00
         21   -1    0    0  501  502  0.00000000000E+00  0.00000000000E+00  0.21539021632E+03  0.21539021632E+03  0.00000000000E+00 0.  1.
         21   -1    0    0  502  503 -0.00000000000E+00 -0.00000000000E+00 -0.20594798977E+03  0.20594798977E+03  0.00000000000E+00 0.  1.
          6    1    1    2  501    0  0.16067724659E+02 -0.66129906603E+02  0.10373509873E+03  0.21288801524E+03  0.17300000000E+03 0.  1.
         -6    1    1    2    0  503 -0.16067724659E+02  0.66129906603E+02 -0.94292872174E+02  0.20845019085E+03  0.17300000000E+03 0.  1.
<mgrwt>
<rscale>  2 0.18590411E+03</rscale>
<asrwt>0</asrwt>
<pdfrwt beam="1">  1       21 0.33136956E-01 0.18590411E+03</pdfrwt>
<pdfrwt beam="2">  1       21 0.31684306E-01 0.18590411E+03</pdfrwt>
<totfact> 0.84201494E+04</totfact>
</mgrwt>
</event>
<event>
 4    1  0.3902417E-001  0.2565905E+03  0.7546771E-02  0.1109209E+00
         21   -1    0    0  501  502  0.00000000000E+00  0.00000000000E+00  0.52795549087E+03  0.52795549087E+03  0.00000000000E+00 0. -1.
         21   -1    0    0  502  503 -0.00000000000E+00 -0.00000000000E+00 -0.13352803952E+03  0.13352803952E+03  0.00000000000E+00 0. -1.
          6    1    1    2  501    0 -0.17510265043E+02 -0.18868783384E+03  0.28223175848E+03  0.38143606741E+03  0.17300000000E+03 0. -1.
         -6    1    1    2    0  503  0.17510265043E+02  0.18868783384E+03  0.11219569287E+03  0.28004746298E+03  0.17300000000E+03 0. -1.
<mgrwt>
<rscale>  2 0.25659055E+03</rscale>
<asrwt>0</asrwt>
<pdfrwt beam="1">  1       21 0.81223921E-01 0.25659055E+03</pdfrwt>
<pdfrwt beam="2">  1       21 0.20542776E-01 0.25659055E+03</pdfrwt>
<totfact> 0.28242202E+04</totfact>
</mgrwt>
</event>
<event>
 4    1  0.3902417E-001  0.2159018E+03  0.7546771E-02  0.1136976E+00
         21   -1    0    0  501  502  0.00000000000E+00  0.00000000000E+00  0.28520272148E+03  0.28520272148E+03  0.00000000000E+00 0. -1.
         21   -1    0    0  502  503 -0.00000000000E+00 -0.00000000000E+00 -0.16391317731E+03  0.16391317731E+03  0.00000000000E+00 0. -1.
          6    1    1    2  501    0  0.12338112683E+03 -0.38231828444E+02  0.48581495817E+02  0.22130010597E+03  0.17300000000E+03 0. -1.
         -6    1    1    2    0  503 -0.12338112683E+03  0.38231828444E+02  0.72708048352E+02  0.22781579282E+03  0.17300000000E+03 0. -1.
<mgrwt>
<rscale>  2 0.21590177E+03</rscale>
<asrwt>0</asrwt>
<pdfrwt beam="1">  1       21 0.43877342E-01 0.21590177E+03</pdfrwt>
<pdfrwt beam="2">  1       21 0.25217412E-01 0.21590177E+03</pdfrwt>
<totfact> 0.73607717E+04</totfact>
</mgrwt>
</event>
<event>
 4    1  0.3902417E-001  0.1927370E+03  0.7546771E-02  0.1156016E+00
         21   -1    0    0  501  502  0.00000000000E+00  0.00000000000E+00  0.48216975354E+03  0.48216975354E+03  0.00000000000E+00 0. -1.
         21   -1    0    0  502  503 -0.00000000000E+00 -0.00000000000E+00 -0.13222255023E+03  0.13222255023E+03  0.00000000000E+00 0. -1.
          6    1    1    2  501    0 -0.83741547086E+02 -0.14349762695E+02  0.37342495233E+03  0.42023060029E+03  0.17300000000E+03 0. -1.
         -6    1    1    2    0  503  0.83741547086E+02  0.14349762695E+02 -0.23477749015E+02  0.19416170348E+03  0.17300000000E+03 0. -1.
<mgrwt>
<rscale>  2 0.19273703E+03</rscale>
<asrwt>0</asrwt>
<pdfrwt beam="1">  1       21 0.74179961E-01 0.19273703E+03</pdfrwt>
<pdfrwt beam="2">  1       21 0.20341931E-01 0.19273703E+03</pdfrwt>
<totfact> 0.36438919E+04</totfact>
</mgrwt>
</event>
<event>
 4    1  0.3902417E-001  0.2036672E+03  0.7546771E-02  0.1146681E+00
         21   -1    0    0  501  502  0.00000000000E+00  0.00000000000E+00  0.43789850888E+02  0.43789850888E+02  0.00000000000E+00 0.  1.
         21   -1    0    0  502  503 -0.00000000000E+00 -0.00000000000E+00 -0.98221550173E+03  0.98221550173E+03  0.00000000000E+00 0. -1.
          6    1    1    2  501    0 -0.10720244407E+03 -0.76800153258E+01 -0.37243454298E+03  0.42448537720E+03  0.17300000000E+03 0. -1.
         -6    1    1    2    0  503  0.10720244407E+03  0.76800153258E+01 -0.56599110786E+03  0.60151997542E+03  0.17300000000E+03 0. -1.
<mgrwt>
<rscale>  2 0.20366724E+03</rscale>
<asrwt>0</asrwt>
<pdfrwt beam="1">  1       21 0.67368998E-02 0.20366724E+03</pdfrwt>
<pdfrwt beam="2">  1       21 0.15111008E+00 0.20366724E+03</pdfrwt>
<totfact> 0.47073880E+04</totfact>
</mgrwt>
</event>
<event>
 4    1  0.3902417E-001  0.2216440E+03  0.7546771E-02  0.1132663E+00
         21   -1    0    0  503  502  0.00000000000E+00  0.00000000000E+00  0.58639323375E+03  0.58639323375E+03  0.00000000000E+00 0. -1.
         21   -1    0    0  501  503 -0.00000000000E+00 -0.00000000000E+00 -0.83834270370E+02  0.83834270370E+02  0.00000000000E+00 0. -1.
          6    1    1    2  501    0  0.31567802857E+01  0.13851750191E+03  0.26006466641E+03  0.34170117692E+03  0.17300000000E+03 0. -1.
         -6    1    1    2    0  502 -0.31567802857E+01 -0.13851750191E+03  0.24249429697E+03  0.32852632720E+03  0.17300000000E+03 0. -1.
<mgrwt>
<rscale>  2 0.22164400E+03</rscale>
<asrwt>0</asrwt>
<pdfrwt beam="1">  1       21 0.90214341E-01 0.22164400E+03</pdfrwt>
<pdfrwt beam="2">  1       21 0.12897580E-01 0.22164400E+03</pdfrwt>
<totfact> 0.53121285E+04</totfact>
</mgrwt>
</event>
<event>
 4    1  0.3902417E-001  0.1847620E+03  0.7546771E-02  0.1163272E+00
         21   -1    0    0  501  502  0.00000000000E+00  0.00000000000E+00  0.28382664493E+03  0.28382664493E+03  0.00000000000E+00 0. -1.
         21   -1    0    0  502  503 -0.00000000000E+00 -0.00000000000E+00 -0.14250886999E+03  0.14250886999E+03  0.00000000000E+00 0. -1.
          6    1    1    2  501    0  0.22085255263E+02  0.60993677204E+02  0.15485986503E+03  0.24107792300E+03  0.17300000000E+03 0. -1.
         -6    1    1    2    0  503 -0.22085255263E+02 -0.60993677204E+02 -0.13542090095E+02  0.18525759192E+03  0.17300000000E+03 0. -1.
<mgrwt>
<rscale>  2 0.18476197E+03</rscale>
<asrwt>0</asrwt>
<pdfrwt beam="1">  1       21 0.43665638E-01 0.18476197E+03</pdfrwt>
<pdfrwt beam="2">  1       21 0.21924442E-01 0.18476197E+03</pdfrwt>
<totfact> 0.98215996E+04</totfact>
</mgrwt>
</event>
<event>
 4    1  0.3902417E-001  0.2134570E+03  0.7546771E-02  0.1138857E+00
         21   -1    0    0  501  502  0.00000000000E+00  0.00000000000E+00  0.10335130638E+03  0.10335130638E+03  0.00000000000E+00 0. -1.
         21   -1    0    0  502  503 -0.00000000000E+00 -0.00000000000E+00 -0.45686638741E+03  0.45686638741E+03  0.00000000000E+00 0. -1.
          6    1    1    2  501    0 -0.11561946335E+03 -0.47613260784E+02 -0.12433440882E+03  0.24702819297E+03  0.17300000000E+03 0. -1.
         -6    1    1    2    0  503  0.11561946335E+03  0.47613260784E+02 -0.22918067222E+03  0.31318950082E+03  0.17300000000E+03 0. -1.
<mgrwt>
<rscale>  2 0.21345698E+03</rscale>
<asrwt>0</asrwt>
<pdfrwt beam="1">  1       21 0.15900201E-01 0.21345698E+03</pdfrwt>
<pdfrwt beam="2">  1       21 0.70287135E-01 0.21345698E+03</pdfrwt>
<totfact> 0.64149661E+04</totfact>
</mgrwt>
</event>
<event>
 4    1  0.3902417E-001  0.1834660E+03  0.7546771E-02  0.1164490E+00
         21   -1    0    0  503  502  0.00000000000E+00  0.00000000000E+00  0.67726168813E+02  0.67726168813E+02  0.00000000000E+00 0.  1.
         21   -1    0    0  501  503 -0.00000000000E+00 -0.00000000000E+00 -0.49721897785E+03  0.49721897785E+03  0.00000000000E+00 0.  1.
          6    1    1    2  501    0 -0.27835979326E+02 -0.54368502403E+02 -0.22070027190E+03  0.28699892999E+03  0.17300000000E+03 0.  1.
         -6    1    1    2    0  502  0.27835979326E+02  0.54368502403E+02 -0.20879253714E+03  0.27794621667E+03  0.17300000000E+03 0.  1.
<mgrwt>
<rscale>  2 0.18346601E+03</rscale>
<asrwt>0</asrwt>
<pdfrwt beam="1">  1       21 0.10419411E-01 0.18346601E+03</pdfrwt>
<pdfrwt beam="2">  1       21 0.76495227E-01 0.18346601E+03</pdfrwt>
<totfact> 0.11518114E+05</totfact>
</mgrwt>
</event>
<event>
 4    1  0.3902417E-001  0.1954509E+03  0.7546771E-02  0.1153635E+00
         21   -1    0    0  501  502  0.00000000000E+00  0.00000000000E+00  0.10734553778E+04  0.10734553778E+04  0.00000000000E+00 0. -1.
         21   -1    0    0  502  503 -0.00000000000E+00 -0.00000000000E+00 -0.42875129159E+02  0.42875129159E+02  0.00000000000E+00 0. -1.
          6    1    1    2  501    0  0.84040558616E+02 -0.34774050237E+02  0.74541750094E+03  0.77061553369E+03  0.17300000000E+03 0. -1.
         -6    1    1    2    0  503 -0.84040558616E+02  0.34774050237E+02  0.28516274770E+03  0.34571497326E+03  0.17300000000E+03 0. -1.
<mgrwt>
<rscale>  2 0.19545089E+03</rscale>
<asrwt>0</asrwt>
<pdfrwt beam="1">  1       21 0.16514696E+00 0.19545089E+03</pdfrwt>
<pdfrwt beam="2">  1       21 0.65961745E-02 0.19545089E+03</pdfrwt>
<totfact> 0.38644106E+04</totfact>
</mgrwt>
</event>
<event>
 4    1  0.3902417E-001  0.1748124E+03  0.7546771E-02  0.1172920E+00
         21   -1    0    0  503  502  0.00000000000E+00  0.00000000000E+00  0.13493858230E+03  0.13493858230E+03  0.00000000000E+00 0.  1.
         21   -1    0    0  501  503 -0.00000000000E+00 -0.00000000000E+00 -0.22703301235E+03  0.22703301235E+03  0.00000000000E+00 0.  1.
          6    1    1    2  501    0 -0.15372778375E+02  0.19850615669E+02 -0.55070164348E+02  0.18328145640E+03  0.17300000000E+03 0. -1.
         -6    1    1    2    0  502  0.15372778375E+02 -0.19850615669E+02 -0.37024265710E+02  0.17869013825E+03  0.17300000000E+03 0. -1.
<mgrwt>
<rscale>  2 0.17481238E+03</rscale>
<asrwt>0</asrwt>
<pdfrwt beam="1">  1       21 0.20759782E-01 0.17481238E+03</pdfrwt>
<pdfrwt beam="2">  1       21 0.34928156E-01 0.17481238E+03</pdfrwt>
<totfact> 0.17103384E+05</totfact>
</mgrwt>
</event>
<event>
 4    1  0.3902417E-001  0.2137925E+03  0.7546771E-02  0.1138597E+00
         21   -1    0    0  501  502  0.00000000000E+00  0.00000000000E+00  0.29385986560E+03  0.29385986560E+03  0.00000000000E+00 0. -1.
         21   -1    0    0  502  503 -0.00000000000E+00 -0.00000000000E+00 -0.18946496354E+03  0.18946496354E+03  0.00000000000E+00 0. -1.
          6    1    1    2  501    0  0.11496980379E+03 -0.50598178641E+02  0.15445573795E+03  0.26374951460E+03  0.17300000000E+03 0. -1.
         -6    1    1    2    0  503 -0.11496980379E+03  0.50598178641E+02 -0.50060835892E+02  0.21957531454E+03  0.17300000000E+03 0. -1.
<mgrwt>
<rscale>  2 0.21379250E+03</rscale>
<asrwt>0</asrwt>
<pdfrwt beam="1">  1       21 0.45209210E-01 0.21379250E+03</pdfrwt>
<pdfrwt beam="2">  1       21 0.29148456E-01 0.21379250E+03</pdfrwt>
<totfact> 0.52372013E+04</totfact>
</mgrwt>
</event>
<event>
 4    1  0.3902417E-001  0.2008255E+03  0.7546771E-02  0.1149044E+00
         21   -1    0    0  501  502  0.00000000000E+00  0.00000000000E+00  0.17562666987E+02  0.17562666987E+02  0.00000000000E+00 0. -1.
         21   -1    0    0  502  503 -0.00000000000E+00 -0.00000000000E+00 -0.24120760301E+04  0.24120760301E+04  0.00000000000E+00 0. -1.
          6    1    1    2  501    0 -0.10094288771E+03 -0.14575092847E+02 -0.93122166350E+03  0.95263040393E+03  0.17300000000E+03 0. -1.
         -6    1    1    2    0  503  0.10094288771E+03  0.14575092847E+02 -0.14632916996E+04  0.14770082931E+04  0.17300000000E+03 0. -1.
<mgrwt>
<rscale>  2 0.20082555E+03</rscale>
<asrwt>0</asrwt>
<pdfrwt beam="1">  1       21 0.27019503E-02 0.20082555E+03</pdfrwt>
<pdfrwt beam="2">  1       21 0.37108841E+00 0.20082555E+03</pdfrwt>
<totfact> 0.97497071E+03</totfact>
</mgrwt>
</event>
<event>
 4    1  0.3902417E-001  0.2530051E+03  0.7546771E-02  0.1111420E+00
         21   -1    0    0  503  502  0.00000000000E+00  0.00000000000E+00  0.21989305558E+03  0.21989305558E+03  0.00000000000E+00 0. -1.
         21   -1    0    0  501  503 -0.00000000000E+00 -0.00000000000E+00 -0.31995022860E+03  0.31995022860E+03  0.00000000000E+00 0.  1.
          6    1    1    2  501    0 -0.17806914274E+03  0.48723141126E+02 -0.13107752168E+03  0.28494364489E+03  0.17300000000E+03 0. -1.
         -6    1    1    2    0  502  0.17806914274E+03 -0.48723141126E+02  0.31020348664E+02  0.25489963928E+03  0.17300000000E+03 0.  1.
<mgrwt>
<rscale>  2 0.25300507E+03</rscale>
<asrwt>0</asrwt>
<pdfrwt beam="1">  1       21 0.33829701E-01 0.25300507E+03</pdfrwt>
<pdfrwt beam="2">  1       21 0.49223112E-01 0.25300507E+03</pdfrwt>
<totfact> 0.32173911E+04</totfact>
</mgrwt>
</event>
<event>
 4    1  0.3902417E-001  0.1862817E+03  0.7546771E-02  0.1161858E+00
         21   -1    0    0  501  502  0.00000000000E+00  0.00000000000E+00  0.12734238040E+04  0.12734238040E+04  0.00000000000E+00 0.  1.
         21   -1    0    0  502  503 -0.00000000000E+00 -0.00000000000E+00 -0.31791145430E+02  0.31791145430E+02  0.00000000000E+00 0.  1.
          6    1    1    2  501    0 -0.51786077362E+02 -0.45717351971E+02  0.37416763033E+03  0.41797402990E+03  0.17300000000E+03 0.  1.
         -6    1    1    2    0  503  0.51786077362E+02  0.45717351971E+02  0.86746502825E+03  0.88724091954E+03  0.17300000000E+03 0.  1.
<mgrwt>
<rscale>  2 0.18628171E+03</rscale>
<asrwt>0</asrwt>
<pdfrwt beam="1">  1       21 0.19591132E+00 0.18628171E+03</pdfrwt>
<pdfrwt beam="2">  1       21 0.48909464E-02 0.18628171E+03</pdfrwt>
<totfact> 0.40011890E+04</totfact>
</mgrwt>
</event>
<event>
 4    1  0.3902417E-001  0.1978371E+03  0.7546771E-02  0.1151577E+00
         21   -1    0    0  503  502  0.00000000000E+00  0.00000000000E+00  0.25896146745E+03  0.25896146745E+03  0.00000000000E+00 0.  1.
         21   -1    0    0  501  503 -0.00000000000E+00 -0.00000000000E+00 -0.15755128701E+03  0.15755128701E+03  0.00000000000E+00 0.  1.
          6    1    1    2  501    0 -0.85977234365E+02 -0.42643228790E+02  0.86955722044E+01  0.19802813630E+03  0.17300000000E+03 0.  1.
         -6    1    1    2    0  502  0.85977234365E+02  0.42643228790E+02  0.92714608243E+02  0.21848461816E+03  0.17300000000E+03 0.  1.
<mgrwt>
<rscale>  2 0.19783713E+03</rscale>
<asrwt>0</asrwt>
<pdfrwt beam="1">  1       21 0.39840226E-01 0.19783713E+03</pdfrwt>
<pdfrwt beam="2">  1       21 0.24238660E-01 0.19783713E+03</pdfrwt>
<totfact> 0.97358912E+04</totfact>
</mgrwt>
</event>
<event>
 4    1  0.3902417E-001  0.1934828E+03  0.7546771E-02  0.1155357E+00
         21   -1    0    0  501  502  0.00000000000E+00  0.00000000000E+00  0.10284255910E+04  0.10284255910E+04  0.00000000000E+00 0.  1.
         21   -1    0    0  502  503 -0.00000000000E+00 -0.00000000000E+00 -0.40164695687E+02  0.40164695687E+02  0.00000000000E+00 0.  1.
          6    1    1    2  501    0  0.78693469028E+02  0.36248181910E+02  0.65768904274E+03  0.68555850932E+03  0.17300000000E+03 0.  1.
         -6    1    1    2    0  503 -0.78693469028E+02 -0.36248181910E+02  0.33057185256E+03  0.38303177736E+03  0.17300000000E+03 0.  1.
<mgrwt>
<rscale>  2 0.19348280E+03</rscale>
<asrwt>0</asrwt>
<pdfrwt beam="1">  1       21 0.15821930E+00 0.19348280E+03</pdfrwt>
<pdfrwt beam="2">  1       21 0.61791847E-02 0.19348280E+03</pdfrwt>
<totfact> 0.48611173E+04</totfact>
</mgrwt>
</event>
<event>
 4    1  0.3902417E-001  0.1834678E+03  0.7546771E-02  0.1164488E+00
         21   -1    0    0  503  502  0.00000000000E+00  0.00000000000E+00  0.22183218238E+03  0.22183218238E+03  0.00000000000E+00 0. -1.
         21   -1    0    0  501  503 -0.00000000000E+00 -0.00000000000E+00 -0.18618813641E+03  0.18618813641E+03  0.00000000000E+00 0. -1.
          6    1    1    2  501    0  0.60151320487E+02 -0.10642353802E+02 -0.69932456542E+02  0.19634405906E+03  0.17300000000E+03 0. -1.
         -6    1    1    2    0  502 -0.60151320487E+02  0.10642353802E+02  0.10557650251E+03  0.21167625973E+03  0.17300000000E+03 0. -1.
<mgrwt>
<rscale>  2 0.18346782E+03</rscale>
<asrwt>0</asrwt>
<pdfrwt beam="1">  1       21 0.34128028E-01 0.18346782E+03</pdfrwt>
<pdfrwt beam="2">  1       21 0.28644329E-01 0.18346782E+03</pdfrwt>
<totfact> 0.96784152E+04</totfact>
</mgrwt>
</event>
<event>
 4    1  0.3902417E-001  0.1781627E+03  0.7546771E-02  0.1169593E+00
         21   -1    0    0  503  502  0.00000000000E+00  0.00000000000E+00  0.76602118255E+02  0.76602118255E+02  0.00000000000E+00 0.  1.
         21   -1    0    0  501  503 -0.00000000000E+00 -0.00000000000E+00 -0.53445619230E+03  0.53445619230E+03  0.00000000000E+00 0.  1.
          6    1    1    2  501    0  0.41732662960E+02  0.84457780539E+01 -0.37374933370E+03  0.41404167757E+03  0.17300000000E+03 0.  1.
         -6    1    1    2    0  502 -0.41732662960E+02 -0.84457780539E+01 -0.84104740350E+02  0.19701663299E+03  0.17300000000E+03 0.  1.
<mgrwt>
<rscale>  2 0.17816270E+03</rscale>
<asrwt>0</asrwt>
<pdfrwt beam="1">  1       21 0.11784941E-01 0.17816270E+03</pdfrwt>
<pdfrwt beam="2">  1       21 0.82224030E-01 0.17816270E+03</pdfrwt>
<totfact> 0.78825318E+04</totfact>
</mgrwt>
</event>
<event>
 4    1  0.3902417E-001  0.2237928E+03  0.7546771E-02  0.1131087E+00
         21   -1    0    0  503  502  0.00000000000E+00  0.00000000000E+00  0.22362481546E+03  0.22362481546E+03  0.00000000000E+00 0. -1.
         21   -1    0    0  501  503 -0.00000000000E+00 -0.00000000000E+00 -0.27415783092E+03  0.27415783092E+03  0.00000000000E+00 0. -1.
          6    1    1    2  501    0 -0.20947176074E+02  0.14041171425E+03 -0.13176602729E+03  0.25970275245E+03  0.17300000000E+03 0. -1.
         -6    1    1    2    0  502  0.20947176074E+02 -0.14041171425E+03  0.81233011832E+02  0.23807989393E+03  0.17300000000E+03 0. -1.
<mgrwt>
<rscale>  2 0.22379284E+03</rscale>
<asrwt>0</asrwt>
<pdfrwt beam="1">  1       21 0.34403818E-01 0.22379284E+03</pdfrwt>
<pdfrwt beam="2">  1       21 0.42178128E-01 0.22379284E+03</pdfrwt>
<totfact> 0.43382550E+04</totfact>
</mgrwt>
</event>
<event>
 4    1  0.3902417E-001  0.3224781E+03  0.7546771E-02  0.1074514E+00
         21   -1    0    0  501  502  0.00000000000E+00  0.00000000000E+00  0.46795927701E+02  0.46795927701E+02  0.00000000000E+00 0. -1.
         21   -1    0    0  502  503 -0.00000000000E+00 -0.00000000000E+00 -0.22745965174E+04  0.22745965174E+04  0.00000000000E+00 0. -1.
          6    1    1    2  501    0 -0.19085535362E+03  0.19400345196E+03 -0.93781498237E+03  0.99171016257E+03  0.17300000000E+03 0. -1.
         -6    1    1    2    0  503  0.19085535362E+03 -0.19400345196E+03 -0.12899856074E+04  0.13296822826E+04  0.17300000000E+03 0. -1.
<mgrwt>
<rscale>  2 0.32247807E+03</rscale>
<asrwt>0</asrwt>
<pdfrwt beam="1">  1       21 0.71993726E-02 0.32247807E+03</pdfrwt>
<pdfrwt beam="2">  1       21 0.34993797E+00 0.32247807E+03</pdfrwt>
<totfact> 0.22061510E+03</totfact>
</mgrwt>
</event>
<event>
 4    1  0.3902417E-001  0.2139986E+03  0.7546771E-02  0.1138438E+00
         21   -1    0    0  503  502  0.00000000000E+00  0.00000000000E+00  0.27973065124E+04  0.27973065124E+04  0.00000000000E+00 0.  1.
         21   -1    0    0  501  503 -0.00000000000E+00 -0.00000000000E+00 -0.18715095723E+02  0.18715095723E+02  0.00000000000E+00 0.  1.
          6    1    1    2  501    0 -0.93378721048E+02  0.84538910024E+02  0.89101486971E+03  0.91635304927E+03  0.17300000000E+03 0.  1.
         -6    1    1    2    0  502  0.93378721048E+02 -0.84538910024E+02  0.18875765469E+04  0.18996685588E+04  0.17300000000E+03 0.  1.
<mgrwt>
<rscale>  2 0.21399863E+03</rscale>
<asrwt>0</asrwt>
<pdfrwt beam="1">  1       21 0.43035452E+00 0.21399863E+03</pdfrwt>
<pdfrwt beam="2">  1       21 0.28792477E-02 0.21399863E+03</pdfrwt>
<totfact> 0.36802902E+03</totfact>
</mgrwt>
</event>
<event>
 4    1  0.3902417E-001  0.1789278E+03  0.7546771E-02  0.1168845E+00
         21   -1    0    0  501  502  0.00000000000E+00  0.00000000000E+00  0.36794163444E+03  0.36794163444E+03  0.00000000000E+00 0.  1.
         21   -1    0    0  502  503 -0.00000000000E+00 -0.00000000000E+00 -0.91967948016E+02  0.91967948016E+02  0.00000000000E+00 0.  1.
          6    1    1    2  501    0 -0.37238253543E+02 -0.26447554648E+02  0.19137053951E+03  0.26198825177E+03  0.17300000000E+03 0.  1.
         -6    1    1    2    0  503  0.37238253543E+02  0.26447554648E+02  0.84603146922E+02  0.19792133069E+03  0.17300000000E+03 0.  1.
<mgrwt>
<rscale>  2 0.17892781E+03</rscale>
<asrwt>0</asrwt>
<pdfrwt beam="1">  1       21 0.56606404E-01 0.17892781E+03</pdfrwt>
<pdfrwt beam="2">  1       21 0.14148915E-01 0.17892781E+03</pdfrwt>
<totfact> 0.12861578E+05</totfact>
</mgrwt>
</event>
<event>
 4    1  0.3902417E-001  0.1756093E+03  0.7546771E-02  0.1172121E+00
         21   -1    0    0  501  502  0.00000000000E+00  0.00000000000E+00  0.26223217748E+03  0.26223217748E+03  0.00000000000E+00 0.  1.
         21   -1    0    0  502  503 -0.00000000000E+00 -0.00000000000E+00 -0.11954762720E+03  0.11954762720E+03  0.00000000000E+00 0.  1.
          6    1    1    2  501    0  0.29729309270E+02 -0.50782465610E+01  0.95704442301E+02  0.19999490167E+03  0.17300000000E+03 0. -1.
         -6    1    1    2    0  503 -0.29729309270E+02  0.50782465610E+01  0.46980107981E+02  0.18178490301E+03  0.17300000000E+03 0. -1.
<mgrwt>
<rscale>  2 0.17560928E+03</rscale>
<asrwt>0</asrwt>
<pdfrwt beam="1">  1       21 0.40343412E-01 0.17560928E+03</pdfrwt>
<pdfrwt beam="2">  1       21 0.18391943E-01 0.17560928E+03</pdfrwt>
<totfact> 0.16058279E+05</totfact>
</mgrwt>
</event>
<event>
 4    1  0.3902417E-001  0.1863642E+03  0.7546771E-02  0.1161782E+00
         21   -1    0    0  503  502  0.00000000000E+00  0.00000000000E+00  0.70638743565E+02  0.70638743565E+02  0.00000000000E+00 0.  1.
         21   -1    0    0  501  503 -0.00000000000E+00 -0.00000000000E+00 -0.49170037130E+03  0.49170037130E+03  0.00000000000E+00 0. -1.
          6    1    1    2  501    0 -0.60380507461E+02  0.34012074723E+02 -0.21235969676E+03  0.28253896672E+03  0.17300000000E+03 0. -1.
         -6    1    1    2    0  502  0.60380507461E+02 -0.34012074723E+02 -0.20870193098E+03  0.27980014815E+03  0.17300000000E+03 0. -1.
<mgrwt>
<rscale>  2 0.18636423E+03</rscale>
<asrwt>0</asrwt>
<pdfrwt beam="1">  1       21 0.10867499E-01 0.18636423E+03</pdfrwt>
<pdfrwt beam="2">  1       21 0.75646211E-01 0.18636423E+03</pdfrwt>
<totfact> 0.10948121E+05</totfact>
</mgrwt>
</event>
<event>
 4    1  0.3902417E-001  0.2027306E+03  0.7546771E-02  0.1147455E+00
         21   -1    0    0  503  502  0.00000000000E+00  0.00000000000E+00  0.10595714097E+03  0.10595714097E+03  0.00000000000E+00 0. -1.
         21   -1    0    0  501  503 -0.00000000000E+00 -0.00000000000E+00 -0.40787905553E+03  0.40787905553E+03  0.00000000000E+00 0. -1.
          6    1    1    2  501    0 -0.32661839373E+02 -0.10051812451E+03 -0.20783679813E+03  0.29033743087E+03  0.17300000000E+03 0. -1.
         -6    1    1    2    0  502  0.32661839373E+02  0.10051812451E+03 -0.94085116423E+02  0.22349876563E+03  0.17300000000E+03 0. -1.
<mgrwt>
<rscale>  2 0.20273058E+03</rscale>
<asrwt>0</asrwt>
<pdfrwt beam="1">  1       21 0.16301099E-01 0.20273058E+03</pdfrwt>
<pdfrwt beam="2">  1       21 0.62750622E-01 0.20273058E+03</pdfrwt>
<totfact> 0.78926712E+04</totfact>
</mgrwt>
</event>
<event>
 4    1  0.3902417E-001  0.1907134E+03  0.7546771E-02  0.1157819E+00
         21   -1    0    0  501  502  0.00000000000E+00  0.00000000000E+00  0.21709787538E+03  0.21709787538E+03  0.00000000000E+00 0. -1.
         21   -1    0    0  502  503 -0.00000000000E+00 -0.00000000000E+00 -0.21056205869E+03  0.21056205869E+03  0.00000000000E+00 0.  1.
          6    1    1    2  501    0  0.56989499538E+02 -0.56522601817E+02  0.99927880469E+02  0.21530719651E+03  0.17300000000E+03 0. -1.
         -6    1    1    2    0  503 -0.56989499538E+02  0.56522601817E+02 -0.93392063780E+02  0.21235273756E+03  0.17300000000E+03 0.  1.
<mgrwt>
<rscale>  2 0.19071342E+03</rscale>
<asrwt>0</asrwt>
<pdfrwt beam="1">  1       21 0.33399673E-01 0.19071342E+03</pdfrwt>
<pdfrwt beam="2">  1       21 0.32394163E-01 0.19071342E+03</pdfrwt>
<totfact> 0.79222886E+04</totfact>
</mgrwt>
</event>
<event>
 4    1  0.3902417E-001  0.2163903E+03  0.7546771E-02  0.1136603E+00
         21   -1    0    0  503  502  0.00000000000E+00  0.00000000000E+00  0.11994351898E+03  0.11994351898E+03  0.00000000000E+00 0. -1.
         21   -1    0    0  501  503 -0.00000000000E+00 -0.00000000000E+00 -0.43566472215E+03  0.43566472215E+03  0.00000000000E+00 0. -1.
          6    1    1    2  501    0  0.45846988630E+02 -0.12162976375E+03 -0.24741575165E+03  0.32869332205E+03  0.17300000000E+03 0. -1.
         -6    1    1    2    0  502 -0.45846988630E+02  0.12162976375E+03 -0.68305451521E+02  0.22691491909E+03  0.17300000000E+03 0. -1.
<mgrwt>
<rscale>  2 0.21639026E+03</rscale>
<asrwt>0</asrwt>
<pdfrwt beam="1">  1       21 0.18452849E-01 0.21639026E+03</pdfrwt>
<pdfrwt beam="2">  1       21 0.67025341E-01 0.21639026E+03</pdfrwt>
<totfact> 0.54044031E+04</totfact>
</mgrwt>
</event>
<event>
 4    1  0.3902417E-001  0.2497773E+03  0.7546771E-02  0.1113446E+00
         21   -1    0    0  501  502  0.00000000000E+00  0.00000000000E+00  0.25363847729E+03  0.25363847729E+03  0.00000000000E+00 0.  1.
         21   -1    0    0  502  503 -0.00000000000E+00 -0.00000000000E+00 -0.31622741156E+03  0.31622741156E+03  0.00000000000E+00 0. -1.
          6    1    1    2  501    0  0.15731648839E+03 -0.87813530803E+02  0.10300488031E+03  0.27018271425E+03  0.17300000000E+03 0.  1.
         -6    1    1    2    0  503 -0.15731648839E+03  0.87813530803E+02 -0.16559381457E+03  0.29968317460E+03  0.17300000000E+03 0. -1.
<mgrwt>
<rscale>  2 0.24977729E+03</rscale>
<asrwt>0</asrwt>
<pdfrwt beam="1">  1       21 0.39021304E-01 0.24977729E+03</pdfrwt>
<pdfrwt beam="2">  1       21 0.48650371E-01 0.24977729E+03</pdfrwt>
<totfact> 0.24792269E+04</totfact>
</mgrwt>
</event>
<event>
 4    1  0.3902417E-001  0.2518226E+03  0.7546771E-02  0.1112158E+00
         21   -1    0    0  503  502  0.00000000000E+00  0.00000000000E+00  0.39478372636E+03  0.39478372636E+03  0.00000000000E+00 0.  1.
         21   -1    0    0  501  503 -0.00000000000E+00 -0.00000000000E+00 -0.19709967734E+03  0.19709967734E+03  0.00000000000E+00 0. -1.
          6    1    1    2  501    0 -0.17494772688E+03 -0.53655402415E+02 -0.28455992632E+02  0.25342524117E+03  0.17300000000E+03 0. -1.
         -6    1    1    2    0  502  0.17494772688E+03  0.53655402415E+02  0.22614004165E+03  0.33845816253E+03  0.17300000000E+03 0.  1.
<mgrwt>
<rscale>  2 0.25182258E+03</rscale>
<asrwt>0</asrwt>
<pdfrwt beam="1">  1       21 0.60735958E-01 0.25182258E+03</pdfrwt>
<pdfrwt beam="2">  1       21 0.30323027E-01 0.25182258E+03</pdfrwt>
<totfact> 0.25547474E+04</totfact>
</mgrwt>
</event>
<event>
 4    1  0.3902417E-001  0.1878766E+03  0.7546771E-02  0.1160391E+00
         21   -1    0    0  501  502  0.00000000000E+00  0.00000000000E+00  0.11281567868E+03  0.11281567868E+03  0.00000000000E+00 0. -1.
         21   -1    0    0  502  503 -0.00000000000E+00 -0.00000000000E+00 -0.31293264949E+03  0.31293264949E+03  0.00000000000E+00 0. -1.
          6    1    1    2  501    0  0.56712275416E+02 -0.46393143407E+02 -0.10285743410E+03  0.21418977027E+03  0.17300000000E+03 0.  1.
         -6    1    1    2    0  503 -0.56712275416E+02  0.46393143407E+02 -0.97259536715E+02  0.21155855790E+03  0.17300000000E+03 0.  1.
<mgrwt>
<rscale>  2 0.18787657E+03</rscale>
<asrwt>0</asrwt>
<pdfrwt beam="1">  1       21 0.17356258E-01 0.18787657E+03</pdfrwt>
<pdfrwt beam="2">  1       21 0.48143484E-01 0.18787657E+03</pdfrwt>
<totfact> 0.12399282E+05</totfact>
</mgrwt>
</event>
<event>
 4    1  0.3902417E-001  0.1755012E+03  0.7546771E-02  0.1172229E+00
         21   -1    0    0  503  502  0.00000000000E+00  0.00000000000E+00  0.16431886648E+03  0.16431886648E+03  0.00000000000E+00 0. -1.
         21   -1    0    0  501  503 -0.00000000000E+00 -0.00000000000E+00 -0.19919832224E+03  0.19919832224E+03  0.00000000000E+00 0. -1.
          6    1    1    2  501    0 -0.16736747511E+02 -0.24321647942E+02 -0.61590917154E+02  0.18599489872E+03  0.17300000000E+03 0. -1.
         -6    1    1    2    0  502  0.16736747511E+02  0.24321647942E+02  0.26711461384E+02  0.17752229000E+03  0.17300000000E+03 0. -1.
<mgrwt>
<rscale>  2 0.17550117E+03</rscale>
<asrwt>0</asrwt>
<pdfrwt beam="1">  1       21 0.25279826E-01 0.17550117E+03</pdfrwt>
<pdfrwt beam="2">  1       21 0.30645896E-01 0.17550117E+03</pdfrwt>
<totfact> 0.15241492E+05</totfact>
</mgrwt>
</event>
<event>
 4    1  0.3902417E-001  0.2141262E+03  0.7546771E-02  0.1138339E+00
         21   -1    0    0  501  502  0.00000000000E+00  0.00000000000E+00  0.63822055399E+03  0.63822055399E+03  0.00000000000E+00 0.  1.
         21   -1    0    0  502  503 -0.00000000000E+00 -0.00000000000E+00 -0.73274593111E+02  0.73274593111E+02  0.00000000000E+00 0. -1.
          6    1    1    2  501    0 -0.10880409150E+03  0.63896151860E+02  0.23270359766E+03  0.31622936757E+03  0.17300000000E+03 0.  1.
         -6    1    1    2    0  503  0.10880409150E+03 -0.63896151860E+02  0.33224236322E+03  0.39526577953E+03  0.17300000000E+03 0.  1.
<mgrwt>
<rscale>  2 0.21412624E+03</rscale>
<asrwt>0</asrwt>
<pdfrwt beam="1">  1       21 0.98187774E-01 0.21412624E+03</pdfrwt>
<pdfrwt beam="2">  1       21 0.11273015E-01 0.21412624E+03</pdfrwt>
<totfact> 0.55650901E+04</totfact>
</mgrwt>
</event>
<event>
 4    1  0.3902417E-001  0.1960027E+03  0.7546771E-02  0.1153156E+00
         21   -1    0    0  503  502  0.00000000000E+00  0.00000000000E+00  0.45640028575E+03  0.45640028575E+03  0.00000000000E+00 0.  1.
         21   -1    0    0  501  503 -0.00000000000E+00 -0.00000000000E+00 -0.12151285221E+03  0.12151285221E+03  0.00000000000E+00 0.  1.
          6    1    1    2  501    0  0.38727607536E+02  0.83595541631E+02  0.72660774501E+01  0.19613729387E+03  0.17300000000E+03 0.  1.
         -6    1    1    2    0  502 -0.38727607536E+02 -0.83595541631E+02  0.32762135608E+03  0.38177584409E+03  0.17300000000E+03 0.  1.
<mgrwt>
<rscale>  2 0.19600266E+03</rscale>
<asrwt>0</asrwt>
<pdfrwt beam="1">  1       21 0.70215428E-01 0.19600266E+03</pdfrwt>
<pdfrwt beam="2">  1       21 0.18694285E-01 0.19600266E+03</pdfrwt>
<totfact> 0.48093616E+04</totfact>
</mgrwt>
</event>
<event>
 4    1  0.3902417E-001  0.1807045E+03  0.7546771E-02  0.1167123E+00
         21   -1    0    0  501  502  0.00000000000E+00  0.00000000000E+00  0.27362794354E+03  0.27362794354E+03  0.00000000000E+00 0.  1.
         21   -1    0    0  502  503 -0.00000000000E+00 -0.00000000000E+00 -0.15067759319E+03  0.15067759319E+03  0.00000000000E+00 0. -1.
          6    1    1    2  501    0 -0.50198483498E+02  0.14325903634E+02  0.15823016680E+03  0.24018931064E+03  0.17300000000E+03 0.  1.
         -6    1    1    2    0  503  0.50198483498E+02 -0.14325903634E+02 -0.35279816446E+02  0.18411622609E+03  0.17300000000E+03 0. -1.
<mgrwt>
<rscale>  2 0.18070451E+03</rscale>
<asrwt>0</asrwt>
<pdfrwt beam="1">  1       21 0.42096607E-01 0.18070451E+03</pdfrwt>
<pdfrwt beam="2">  1       21 0.23181168E-01 0.18070451E+03</pdfrwt>
<totfact> 0.95401466E+04</totfact>
</mgrwt>
</event>
<event>
 4    1  0.3902417E-001  0.1839698E+03  0.7546771E-02  0.1164015E+00
         21   -1    0    0  503  502  0.00000000000E+00  0.00000000000E+00  0.61385476679E+02  0.61385476679E+02  0.00000000000E+00 0. -1.
         21   -1    0    0  501  503 -0.00000000000E+00 -0.00000000000E+00 -0.80020084583E+03  0.80020084583E+03  0.00000000000E+00 0. -1.
          6    1    1    2  501    0  0.61733335491E+02 -0.10240826062E+02 -0.60964413664E+03  0.63679734027E+03  0.17300000000E+03 0. -1.
         -6    1    1    2    0  502 -0.61733335491E+02  0.10240826062E+02 -0.12917123251E+03  0.22478898224E+03  0.17300000000E+03 0. -1.
<mgrwt>
<rscale>  2 0.18396978E+03</rscale>
<asrwt>0</asrwt>
<pdfrwt beam="1">  1       21 0.94439204E-02 0.18396978E+03</pdfrwt>
<pdfrwt beam="2">  1       21 0.12310781E+00 0.18396978E+03</pdfrwt>
<totfact> 0.44687260E+04</totfact>
</mgrwt>
</event>
<event>
 4    1  0.3902417E-001  0.1954894E+03  0.7546771E-02  0.1153601E+00
         21   -1    0    0  503  502  0.00000000000E+00  0.00000000000E+00  0.20104769122E+02  0.20104769122E+02  0.00000000000E+00 0. -1.
         21   -1    0    0  501  503 -0.00000000000E+00 -0.00000000000E+00 -0.19009713811E+04  0.19009713811E+04  0.00000000000E+00 0. -1.
          6    1    1    2  501    0 -0.88747780935E+02  0.20271687498E+02 -0.94817208054E+03  0.96811487141E+03  0.17300000000E+03 0. -1.
         -6    1    1    2    0  502  0.88747780935E+02 -0.20271687498E+02 -0.93269453144E+03  0.95296127881E+03  0.17300000000E+03 0. -1.
<mgrwt>
<rscale>  2 0.19548941E+03</rscale>
<asrwt>0</asrwt>
<pdfrwt beam="1">  1       21 0.30930402E-02 0.19548941E+03</pdfrwt>
<pdfrwt beam="2">  1       21 0.29245725E+00 0.19548941E+03</pdfrwt>
<totfact> 0.22629746E+04</totfact>
</mgrwt>
</event>
<event>
 4    1  0.3902417E-001  0.2133786E+03  0.7546771E-02  0.1138918E+00
         21   -1    0    0  501  502  0.00000000000E+00  0.00000000000E+00  0.34126231820E+02  0.34126231820E+02  0.00000000000E+00 0. -1.
         21   -1    0    0  502  503 -0.00000000000E+00 -0.00000000000E+00 -0.15881328397E+04  0.15881328397E+04  0.00000000000E+00 0. -1.
          6    1    1    2  501    0  0.12304087300E+03  0.21502823456E+02 -0.45264423250E+03  0.50041705513E+03  0.17300000000E+03 0. -1.
         -6    1    1    2    0  503 -0.12304087300E+03 -0.21502823456E+02 -0.11013623754E+04  0.11218420164E+04  0.17300000000E+03 0. -1.
<mgrwt>
<rscale>  2 0.21337860E+03</rscale>
<asrwt>0</asrwt>
<pdfrwt beam="1">  1       21 0.52501893E-02 0.21337860E+03</pdfrwt>
<pdfrwt beam="2">  1       21 0.24432814E+00 0.21337860E+03</pdfrwt>
<totfact> 0.17471353E+04</totfact>
</mgrwt>
</event>
<event>
 4    1  0.3902417E-001  0.2053978E+03  0.7546771E-02  0.1145263E+00
         21   -1    0    0  503  502  0.00000000000E+00  0.00000000000E+00  0.25193431263E+03  0.25193431263E+03  0.00000000000E+00 0.  1.
         21   -1    0    0  501  503 -0.00000000000E+00 -0.00000000000E+00 -0.18381384085E+03  0.18381384085E+03  0.00000000000E+00 0. -1.
          6    1    1    2  501    0  0.10664586437E+03  0.29764317935E+02 -0.30931985811E+02  0.20771384825E+03  0.17300000000E+03 0. -1.
         -6    1    1    2    0  502 -0.10664586437E+03 -0.29764317935E+02  0.99052457593E+02  0.22803430523E+03  0.17300000000E+03 0.  1.
<mgrwt>
<rscale>  2 0.20539780E+03</rscale>
<asrwt>0</asrwt>
<pdfrwt beam="1">  1       21 0.38759125E-01 0.20539780E+03</pdfrwt>
<pdfrwt beam="2">  1       21 0.28279052E-01 0.20539780E+03</pdfrwt>
<totfact> 0.76290080E+04</totfact>
</mgrwt>
</event>
<event>
 4    1  0.3902417E-001  0.2766391E+03  0.7546771E-02  0.1097539E+00
         21   -1    0    0  501  502  0.00000000000E+00  0.00000000000E+00  0.71218918571E+03  0.71218918571E+03  0.00000000000E+00 0.  1.
         21   -1    0    0  502  503 -0.00000000000E+00 -0.00000000000E+00 -0.11173185987E+03  0.11173185987E+03  0.00000000000E+00 0. -1.
          6    1    1    2  501    0  0.20559103226E+03 -0.65821681163E+02  0.38081604432E+03  0.47069100891E+03  0.17300000000E+03 0.  1.
         -6    1    1    2    0  503 -0.20559103226E+03  0.65821681163E+02  0.21964128152E+03  0.35323003667E+03  0.17300000000E+03 0. -1.
<mgrwt>
<rscale>  2 0.27663905E+03</rscale>
<asrwt>0</asrwt>
<pdfrwt beam="1">  1       21 0.10956756E+00 0.27663905E+03</pdfrwt>
<pdfrwt beam="2">  1       21 0.17189517E-01 0.27663905E+03</pdfrwt>
<totfact> 0.19253732E+04</totfact>
</mgrwt>
</event>
<event>
 4    1  0.3902417E-001  0.1731024E+03  0.7546771E-02  0.1174651E+00
         21   -1    0    0  503  502  0.00000000000E+00  0.00000000000E+00  0.85845594285E+03  0.85845594285E+03  0.00000000000E+00 0.  1.
         21   -1    0    0  501  503 -0.00000000000E+00 -0.00000000000E+00 -0.35001981426E+02  0.35001981426E+02  0.00000000000E+00 0.  1.
          6    1    1    2  501    0  0.43017927313E+01  0.41171966783E+01  0.43523447247E+03  0.46839460154E+03  0.17300000000E+03 0.  1.
         -6    1    1    2    0  502 -0.43017927313E+01 -0.41171966783E+01  0.38821948896E+03  0.42506332274E+03  0.17300000000E+03 0.  1.
<mgrwt>
<rscale>  2 0.17310245E+03</rscale>
<asrwt>0</asrwt>
<pdfrwt beam="1">  1       21 0.13207013E+00 0.17310245E+03</pdfrwt>
<pdfrwt beam="2">  1       21 0.53849209E-02 0.17310245E+03</pdfrwt>
<totfact> 0.99378315E+04</totfact>
</mgrwt>
</event>
<event>
 4    1  0.3902417E-001  0.2516694E+03  0.7546771E-02  0.1112254E+00
         21   -1    0    0  503  502  0.00000000000E+00  0.00000000000E+00  0.25301507504E+03  0.25301507504E+03  0.00000000000E+00 0. -1.
         21   -1    0    0  501  503 -0.00000000000E+00 -0.00000000000E+00 -0.25091016651E+03  0.25091016651E+03  0.00000000000E+00 0.  1.
          6    1    1    2  501    0  0.15056580466E+03  0.10362625800E+03 -0.11055158437E+02  0.25191204697E+03  0.17300000000E+03 0.  1.
         -6    1    1    2    0  502 -0.15056580466E+03 -0.10362625800E+03  0.13160066965E+02  0.25201319458E+03  0.17300000000E+03 0. -1.
<mgrwt>
<rscale>  2 0.25166935E+03</rscale>
<asrwt>0</asrwt>
<pdfrwt beam="1">  1       21 0.38925396E-01 0.25166935E+03</pdfrwt>
<pdfrwt beam="2">  1       21 0.38601564E-01 0.25166935E+03</pdfrwt>
<totfact> 0.40062816E+04</totfact>
</mgrwt>
</event>
<event>
 4    1  0.3902417E-001  0.2289553E+03  0.7546771E-02  0.1127377E+00
         21   -1    0    0  501  502  0.00000000000E+00  0.00000000000E+00  0.12318626210E+03  0.12318626210E+03  0.00000000000E+00 0.  1.
         21   -1    0    0  502  503 -0.00000000000E+00 -0.00000000000E+00 -0.51077592983E+03  0.51077592983E+03  0.00000000000E+00 0.  1.
          6    1    1    2  501    0  0.12742311688E+03 -0.79087892152E+02 -0.32328366993E+03  0.39614754403E+03  0.17300000000E+03 0.  1.
         -6    1    1    2    0  503 -0.12742311688E+03  0.79087892152E+02 -0.64305997800E+02  0.23781464790E+03  0.17300000000E+03 0.  1.
<mgrwt>
<rscale>  2 0.22895533E+03</rscale>
<asrwt>0</asrwt>
<pdfrwt beam="1">  1       21 0.18951733E-01 0.22895533E+03</pdfrwt>
<pdfrwt beam="2">  1       21 0.78580912E-01 0.22895533E+03</pdfrwt>
<totfact> 0.35869518E+04</totfact>
</mgrwt>
</event>
<event>
 4    1  0.3902417E-001  0.1977987E+03  0.7546771E-02  0.1151610E+00
         21   -1    0    0  501  502  0.00000000000E+00  0.00000000000E+00  0.29545120181E+03  0.29545120181E+03  0.00000000000E+00 0. -1.
         21   -1    0    0  502  503 -0.00000000000E+00 -0.00000000000E+00 -0.17340259029E+03  0.17340259029E+03  0.00000000000E+00 0. -1.
          6    1    1    2  501    0  0.78082807942E+02  0.55663195158E+02  0.17498822288E+03  0.26409315466E+03  0.17300000000E+03 0. -1.
         -6    1    1    2    0  503 -0.78082807942E+02 -0.55663195158E+02 -0.52939611357E+02  0.20476063743E+03  0.17300000000E+03 0. -1.
<mgrwt>
<rscale>  2 0.19779868E+03</rscale>
<asrwt>0</asrwt>
<pdfrwt beam="1">  1       21 0.45454031E-01 0.19779868E+03</pdfrwt>
<pdfrwt beam="2">  1       21 0.26677322E-01 0.19779868E+03</pdfrwt>
<totfact> 0.61938841E+04</totfact>
</mgrwt>
</event>
<event>
 4    1  0.3902417E-001  0.2164360E+03  0.7546771E-02  0.1136568E+00
         21   -1    0    0  501  502  0.00000000000E+00  0.00000000000E+00  0.19788289738E+03  0.19788289738E+03  0.00000000000E+00 0.  1.
         21   -1    0    0  502  503 -0.00000000000E+00 -0.00000000000E+00 -0.24960556924E+03  0.24960556924E+03  0.00000000000E+00 0.  1.
          6    1    1    2  501    0  0.12313565205E+03  0.41870558658E+02  0.24958386903E+02  0.21787026774E+03  0.17300000000E+03 0.  1.
         -6    1    1    2    0  503 -0.12313565205E+03 -0.41870558658E+02 -0.76681058760E+02  0.22961819889E+03  0.17300000000E+03 0.  1.
<mgrwt>
<rscale>  2 0.21643598E+03</rscale>
<asrwt>0</asrwt>
<pdfrwt beam="1">  1       21 0.30443523E-01 0.21643598E+03</pdfrwt>
<pdfrwt beam="2">  1       21 0.38400857E-01 0.21643598E+03</pdfrwt>
<totfact> 0.67011020E+04</totfact>
</mgrwt>
</event>
<event>
 4    1  0.3902417E-001  0.1764147E+03  0.7546771E-02  0.1171319E+00
         21   -1    0    0  501  502  0.00000000000E+00  0.00000000000E+00  0.40623595834E+02  0.40623595834E+02  0.00000000000E+00 0.  1.
         21   -1    0    0  502  503 -0.00000000000E+00 -0.00000000000E+00 -0.93688552896E+03  0.93688552896E+03  0.00000000000E+00 0.  1.
          6    1    1    2  501    0 -0.23353942254E+02  0.25450680723E+02 -0.23946080386E+03  0.29742834491E+03  0.17300000000E+03 0.  1.
         -6    1    1    2    0  503  0.23353942254E+02 -0.25450680723E+02 -0.65680112927E+03  0.68008077989E+03  0.17300000000E+03 0.  1.
<mgrwt>
<rscale>  2 0.17641469E+03</rscale>
<asrwt>0</asrwt>
<pdfrwt beam="1">  1       21 0.62497837E-02 0.17641469E+03</pdfrwt>
<pdfrwt beam="2">  1       21 0.14413624E+00 0.17641469E+03</pdfrwt>
<totfact> 0.61533709E+04</totfact>
</mgrwt>
</event>
<event>
 4    1  0.3902417E-001  0.1894370E+03  0.7546771E-02  0.1158970E+00
         21   -1    0    0  503  502  0.00000000000E+00  0.00000000000E+00  0.27422949429E+02  0.27422949429E+02  0.00000000000E+00 0.  1.
         21   -1    0    0  501  503 -0.00000000000E+00 -0.00000000000E+00 -0.14193551991E+04  0.14193551991E+04  0.00000000000E+00 0.  1.
          6    1    1    2  501    0  0.72473947999E+02 -0.26549763511E+02 -0.89801620090E+03  0.91777963594E+03  0.17300000000E+03 0.  1.
         -6    1    1    2    0  502 -0.72473947999E+02  0.26549763511E+02 -0.49391604880E+03  0.52899851261E+03  0.17300000000E+03 0.  1.
<mgrwt>
<rscale>  2 0.18943696E+03</rscale>
<asrwt>0</asrwt>
<pdfrwt beam="1">  1       21 0.42189150E-02 0.18943696E+03</pdfrwt>
<pdfrwt beam="2">  1       21 0.21836235E+00 0.18943696E+03</pdfrwt>
<totfact> 0.36978788E+04</totfact>
</mgrwt>
</event>
<event>
 4    1  0.3902417E-001  0.2091384E+03  0.7546771E-02  0.1142250E+00
         21   -1    0    0  501  502  0.00000000000E+00  0.00000000000E+00  0.26604868735E+03  0.26604868735E+03  0.00000000000E+00 0.  1.
         21   -1    0    0  502  503 -0.00000000000E+00 -0.00000000000E+00 -0.17386529562E+03  0.17386529562E+03  0.00000000000E+00 0.  1.
          6    1    1    2  501    0 -0.10762831656E+03  0.47180656416E+02  0.97408350729E+02  0.23071032846E+03  0.17300000000E+03 0.  1.
         -6    1    1    2    0  503  0.10762831656E+03 -0.47180656416E+02 -0.52249589917E+01  0.20920365451E+03  0.17300000000E+03 0.  1.
<mgrwt>
<rscale>  2 0.20913840E+03</rscale>
<asrwt>0</asrwt>
<pdfrwt beam="1">  1       21 0.40930567E-01 0.20913840E+03</pdfrwt>
<pdfrwt beam="2">  1       21 0.26748507E-01 0.20913840E+03</pdfrwt>
<totfact> 0.75963709E+04</totfact>
</mgrwt>
</event>
<event>
 4    1  0.3902417E-001  0.2199864E+03  0.7546771E-02  0.1133893E+00
         21   -1    0    0  503  502  0.00000000000E+00  0.00000000000E+00  0.81668682756E+03  0.81668682756E+03  0.00000000000E+00 0. -1.
         21   -1    0    0  501  503 -0.00000000000E+00 -0.00000000000E+00 -0.69676259771E+02  0.69676259771E+02  0.00000000000E+00 0. -1.
          6    1    1    2  501    0  0.39681207086E+02  0.12996308822E+03  0.20212213539E+03  0.29874296663E+03  0.17300000000E+03 0. -1.
         -6    1    1    2    0  502 -0.39681207086E+02 -0.12996308822E+03  0.54488843240E+03  0.58762012070E+03  0.17300000000E+03 0. -1.
<mgrwt>
<rscale>  2 0.21998637E+03</rscale>
<asrwt>0</asrwt>
<pdfrwt beam="1">  1       21 0.12564412E+00 0.21998637E+03</pdfrwt>
<pdfrwt beam="2">  1       21 0.10719425E-01 0.21998637E+03</pdfrwt>
<totfact> 0.33270108E+04</totfact>
</mgrwt>
</event>
<event>
 4    1  0.3902417E-001  0.1840292E+03  0.7546771E-02  0.1163960E+00
         21   -1    0    0  501  502  0.00000000000E+00  0.00000000000E+00  0.16344584111E+02  0.16344584111E+02  0.00000000000E+00 0. -1.
         21   -1    0    0  502  503 -0.00000000000E+00 -0.00000000000E+00 -0.20767018504E+04  0.20767018504E+04  0.00000000000E+00 0. -1.
          6    1    1    2  501    0 -0.20069001872E+02  0.59455580342E+02 -0.98062686109E+03  0.99774534404E+03  0.17300000000E+03 0.  1.
         -6    1    1    2    0  503  0.20069001872E+02 -0.59455580342E+02 -0.10797304052E+04  0.10953010905E+04  0.17300000000E+03 0.  1.
<mgrwt>
<rscale>  2 0.18402916E+03</rscale>
<asrwt>0</asrwt>
<pdfrwt beam="1">  1       21 0.25145535E-02 0.18402916E+03</pdfrwt>
<pdfrwt beam="2">  1       21 0.31949232E+00 0.18402916E+03</pdfrwt>
<totfact> 0.22509552E+04</totfact>
</mgrwt>
</event>
<event>
 4    1  0.3902417E-001  0.1988394E+03  0.7546771E-02  0.1150722E+00
         21   -1    0    0  501  502  0.00000000000E+00  0.00000000000E+00  0.13698474697E+03  0.13698474697E+03  0.00000000000E+00 0.  1.
         21   -1    0    0  502  503 -0.00000000000E+00 -0.00000000000E+00 -0.38121191426E+03  0.38121191426E+03  0.00000000000E+00 0.  1.
          6    1    1    2  501    0 -0.87022169938E+02  0.45113631578E+02  0.55768387265E+01  0.19891756822E+03  0.17300000000E+03 0.  1.
         -6    1    1    2    0  503  0.87022169938E+02 -0.45113631578E+02 -0.24980400601E+03  0.31927909301E+03  0.17300000000E+03 0.  1.
<mgrwt>
<rscale>  2 0.19883938E+03</rscale>
<asrwt>0</asrwt>
<pdfrwt beam="1">  1       21 0.21074577E-01 0.19883938E+03</pdfrwt>
<pdfrwt beam="2">  1       21 0.58647985E-01 0.19883938E+03</pdfrwt>
<totfact> 0.56777074E+04</totfact>
</mgrwt>
</event>
<event>
 4    1  0.3902417E-001  0.1944719E+03  0.7546771E-02  0.1154489E+00
         21   -1    0    0  503  502  0.00000000000E+00  0.00000000000E+00  0.42826305703E+02  0.42826305703E+02  0.00000000000E+00 0.  1.
         21   -1    0    0  501  503 -0.00000000000E+00 -0.00000000000E+00 -0.12290990620E+04  0.12290990620E+04  0.00000000000E+00 0.  1.
          6    1    1    2  501    0  0.74457355887E+02  0.48439901334E+02 -0.93056683279E+03  0.95067026469E+03  0.17300000000E+03 0.  1.
         -6    1    1    2    0  502 -0.74457355887E+02 -0.48439901334E+02 -0.25570592347E+03  0.32125510297E+03  0.17300000000E+03 0.  1.
<mgrwt>
<rscale>  2 0.19447191E+03</rscale>
<asrwt>0</asrwt>
<pdfrwt beam="1">  1       21 0.65886628E-02 0.19447191E+03</pdfrwt>
<pdfrwt beam="2">  1       21 0.18909215E+00 0.19447191E+03</pdfrwt>
<totfact> 0.26519634E+04</totfact>
</mgrwt>
</event>
<event>
 4    1  0.3902417E-001  0.1882718E+03  0.7546771E-02  0.1160029E+00
         21   -1    0    0  501  502  0.00000000000E+00  0.00000000000E+00  0.60890351472E+03  0.60890351472E+03  0.00000000000E+00 0. -1.
         21   -1    0    0  502  503 -0.00000000000E+00 -0.00000000000E+00 -0.74074985299E+02  0.74074985299E+02  0.00000000000E+00 0. -1.
          6    1    1    2  501    0 -0.50832689526E+02 -0.54159929529E+02  0.42543585361E+03  0.46523319511E+03  0.17300000000E+03 0. -1.
         -6    1    1    2    0  503  0.50832689526E+02  0.54159929529E+02  0.10939267581E+03  0.21774530491E+03  0.17300000000E+03 0. -1.
<mgrwt>
<rscale>  2 0.18827177E+03</rscale>
<asrwt>0</asrwt>
<pdfrwt beam="1">  1       21 0.93677460E-01 0.18827177E+03</pdfrwt>
<pdfrwt beam="2">  1       21 0.11396152E-01 0.18827177E+03</pdfrwt>
<totfact> 0.61721904E+04</totfact>
</mgrwt>
</event>
<event>
 4    1  0.3902417E-001  0.2711152E+03  0.7546771E-02  0.1100643E+00
         21   -1    0    0  503  502  0.00000000000E+00  0.00000000000E+00  0.23505305079E+03  0.23505305079E+03  0.00000000000E+00 0.  1.
         21   -1    0    0  501  503 -0.00000000000E+00 -0.00000000000E+00 -0.31285926614E+03  0.31285926614E+03  0.00000000000E+00 0. -1.
          6    1    1    2  501    0 -0.18339192014E+03  0.99708729246E+02 -0.44888109015E+02  0.27480605778E+03  0.17300000000E+03 0.  1.
         -6    1    1    2    0  502  0.18339192014E+03 -0.99708729246E+02 -0.32918106341E+02  0.27310625915E+03  0.17300000000E+03 0.  1.
<mgrwt>
<rscale>  2 0.27111515E+03</rscale>
<asrwt>0</asrwt>
<pdfrwt beam="1">  1       21 0.36162008E-01 0.27111515E+03</pdfrwt>
<pdfrwt beam="2">  1       21 0.48132195E-01 0.27111515E+03</pdfrwt>
<totfact> 0.29287336E+04</totfact>
</mgrwt>
</event>
<event>
 4    1  0.3902417E-001  0.1767941E+03  0.7546771E-02  0.1170942E+00
         21   -1    0    0  503  502  0.00000000000E+00  0.00000000000E+00  0.18691281458E+03  0.18691281458E+03  0.00000000000E+00 0. -1.
         21   -1    0    0  501  503 -0.00000000000E+00 -0.00000000000E+00 -0.25790022702E+03  0.25790022702E+03  0.00000000000E+00 0. -1.
          6    1    1    2  501    0 -0.32770866962E+02  0.15913136878E+02 -0.16737108530E+03  0.24345274252E+03  0.17300000000E+03 0.  1.
         -6    1    1    2    0  502  0.32770866962E+02 -0.15913136878E+02  0.96383672864E+02  0.20136029907E+03  0.17300000000E+03 0.  1.
<mgrwt>
<rscale>  2 0.17679411E+03</rscale>
<asrwt>0</asrwt>
<pdfrwt beam="1">  1       21 0.28755818E-01 0.17679411E+03</pdfrwt>
<pdfrwt beam="2">  1       21 0.39676958E-01 0.17679411E+03</pdfrwt>
<totfact> 0.71326796E+04</totfact>
</mgrwt>
</event>
<event>
 4    1  0.3902417E-001  0.1892219E+03  0.7546771E-02  0.1159165E+00
         21   -1    0    0  503  502  0.00000000000E+00  0.00000000000E+00  0.51948503017E+02  0.51948503017E+02  0.00000000000E+00 0.  1.
         21   -1    0    0  501  503 -0.00000000000E+00 -0.00000000000E+00 -0.69067728393E+03  0.69067728393E+03  0.00000000000E+00 0.  1.
          6    1    1    2  501    0 -0.63221128106E+02 -0.43347777545E+02 -0.33630798756E+03  0.38588599787E+03  0.17300000000E+03 0.  1.
         -6    1    1    2    0  502  0.63221128106E+02  0.43347777545E+02 -0.30242079336E+03  0.35673978908E+03  0.17300000000E+03 0.  1.
<mgrwt>
<rscale>  2 0.18922194E+03</rscale>
<asrwt>0</asrwt>
<pdfrwt beam="1">  1       21 0.79920774E-02 0.18922194E+03</pdfrwt>
<pdfrwt beam="2">  1       21 0.10625804E+00 0.18922194E+03</pdfrwt>
<totfact> 0.85476583E+04</totfact>
</mgrwt>
</event>
<event>
 4    1  0.3902417E-001  0.1851654E+03  0.7546771E-02  0.1162896E+00
         21   -1    0    0  503  502  0.00000000000E+00  0.00000000000E+00  0.15330756671E+03  0.15330756671E+03  0.00000000000E+00 0. -1.
         21   -1    0    0  501  503 -0.00000000000E+00 -0.00000000000E+00 -0.22455029869E+03  0.22455029869E+03  0.00000000000E+00 0. -1.
          6    1    1    2  501    0  0.41469703136E+02  0.51356593816E+02 -0.47627538396E+02  0.19119262125E+03  0.17300000000E+03 0. -1.
         -6    1    1    2    0  502 -0.41469703136E+02 -0.51356593816E+02 -0.23615193583E+02  0.18666524415E+03  0.17300000000E+03 0. -1.
<mgrwt>
<rscale>  2 0.18516543E+03</rscale>
<asrwt>0</asrwt>
<pdfrwt beam="1">  1       21 0.23585780E-01 0.18516543E+03</pdfrwt>
<pdfrwt beam="2">  1       21 0.34546200E-01 0.18516543E+03</pdfrwt>
<totfact> 0.13699954E+05</totfact>
</mgrwt>
</event>
<event>
 4    1  0.3902417E-001  0.2221230E+03  0.7546771E-02  0.1132310E+00
         21   -1    0    0  501  502  0.00000000000E+00  0.00000000000E+00  0.34240739491E+03  0.34240739491E+03  0.00000000000E+00 0. -1.
         21   -1    0    0  502  503 -0.00000000000E+00 -0.00000000000E+00 -0.16630418172E+03  0.16630418172E+03  0.00000000000E+00 0.  1.
          6    1    1    2  501    0 -0.61890360302E+02 -0.12481676727E+03 -0.49032458850E+01  0.22217714534E+03  0.17300000000E+03 0. -1.
         -6    1    1    2    0  503  0.61890360302E+02  0.12481676727E+03  0.18100645908E+03  0.28653443130E+03  0.17300000000E+03 0. -1.
<mgrwt>
<rscale>  2 0.22212303E+03</rscale>
<asrwt>0</asrwt>
<pdfrwt beam="1">  1       21 0.52678061E-01 0.22212303E+03</pdfrwt>
<pdfrwt beam="2">  1       21 0.25585259E-01 0.22212303E+03</pdfrwt>
<totfact> 0.48815921E+04</totfact>
</mgrwt>
</event>
<event>
 4    1  0.3902417E-001  0.1884379E+03  0.7546771E-02  0.1159878E+00
         21   -1    0    0  501  502  0.00000000000E+00  0.00000000000E+00  0.93586680744E+03  0.93586680744E+03  0.00000000000E+00 0. -1.
         21   -1    0    0  502  503 -0.00000000000E+00 -0.00000000000E+00 -0.40188381584E+02  0.40188381584E+02  0.00000000000E+00 0. -1.
          6    1    1    2  501    0 -0.40530589031E+02 -0.62746375188E+02  0.56321575423E+03  0.59390304096E+03  0.17300000000E+03 0.  1.
         -6    1    1    2    0  503  0.40530589031E+02  0.62746375188E+02  0.33246267162E+03  0.38215214806E+03  0.17300000000E+03 0.  1.
<mgrwt>
<rscale>  2 0.18843788E+03</rscale>
<asrwt>0</asrwt>
<pdfrwt beam="1">  1       21 0.14397949E+00 0.18843788E+03</pdfrwt>
<pdfrwt beam="2">  1       21 0.61828286E-02 0.18843788E+03</pdfrwt>
<totfact> 0.62457151E+04</totfact>
</mgrwt>
</event>
<event>
 4    1  0.3902417E-001  0.2375881E+03  0.7546771E-02  0.1121410E+00
         21   -1    0    0  501  502  0.00000000000E+00  0.00000000000E+00  0.51835525910E+03  0.51835525910E+03  0.00000000000E+00 0. -1.
         21   -1    0    0  502  503 -0.00000000000E+00 -0.00000000000E+00 -0.11697880442E+03  0.11697880442E+03  0.00000000000E+00 0. -1.
          6    1    1    2  501    0 -0.13188682711E+03  0.95524614874E+02  0.28417806336E+03  0.37041228234E+03  0.17300000000E+03 0. -1.
         -6    1    1    2    0  503  0.13188682711E+03 -0.95524614874E+02  0.11719839132E+03  0.26492178117E+03  0.17300000000E+03 0. -1.
<mgrwt>
<rscale>  2 0.23758806E+03</rscale>
<asrwt>0</asrwt>
<pdfrwt beam="1">  1       21 0.79746961E-01 0.23758806E+03</pdfrwt>
<pdfrwt beam="2">  1       21 0.17996739E-01 0.23758806E+03</pdfrwt>
<totfact> 0.38044717E+04</totfact>
</mgrwt>
</event>
<event>
 4    1  0.3902417E-001  0.3103362E+03  0.7546771E-02  0.1080185E+00
         21   -1    0    0  501  502  0.00000000000E+00  0.00000000000E+00  0.44687084473E+03  0.44687084473E+03  0.00000000000E+00 0.  1.
         21   -1    0    0  502  503 -0.00000000000E+00 -0.00000000000E+00 -0.29015144283E+03  0.29015144283E+03  0.00000000000E+00 0.  1.
          6    1    1    2  501    0 -0.25222167477E+03  0.52571793449E+02  0.26525825177E+03  0.40825299365E+03  0.17300000000E+03 0.  1.
         -6    1    1    2    0  503  0.25222167477E+03 -0.52571793449E+02 -0.10853884987E+03  0.32876929391E+03  0.17300000000E+03 0.  1.
<mgrwt>
<rscale>  2 0.31033622E+03</rscale>
<asrwt>0</asrwt>
<pdfrwt beam="1">  1       21 0.68749360E-01 0.31033622E+03</pdfrwt>
<pdfrwt beam="2">  1       21 0.44638684E-01 0.31033622E+03</pdfrwt>
<totfact> 0.86894104E+03</totfact>
</mgrwt>
</event>
<event>
 4    1  0.3902417E-001  0.2953800E+03  0.7546771E-02  0.1087573E+00
         21   -1    0    0  503  502  0.00000000000E+00  0.00000000000E+00  0.20684444924E+03  0.20684444924E+03  0.00000000000E+00 0. -1.
         21   -1    0    0  501  503 -0.00000000000E+00 -0.00000000000E+00 -0.71016984245E+03  0.71016984245E+03  0.00000000000E+00 0. -1.
          6    1    1    2  501    0  0.13220569618E+03 -0.19960458782E+03 -0.54382983330E+03  0.61887011978E+03  0.17300000000E+03 0. -1.
         -6    1    1    2    0  502 -0.13220569618E+03  0.19960458782E+03  0.40504440081E+02  0.29814417191E+03  0.17300000000E+03 0. -1.
<mgrwt>
<rscale>  2 0.29537999E+03</rscale>
<asrwt>0</asrwt>
<pdfrwt beam="1">  1       21 0.31822223E-01 0.29537999E+03</pdfrwt>
<pdfrwt beam="2">  1       21 0.10925690E+00 0.29537999E+03</pdfrwt>
<totfact> 0.59039737E+03</totfact>
</mgrwt>
</event>
<event>
 4    1  0.3902417E-001  0.2792491E+03  0.7546771E-02  0.1096100E+00
         21   -1    0    0  503  502  0.00000000000E+00  0.00000000000E+00  0.25833358686E+04  0.25833358686E+04  0.00000000000E+00 0. -1.
         21   -1    0    0  501  503 -0.00000000000E+00 -0.00000000000E+00 -0.47439774984E+02  0.47439774984E+02  0.00000000000E+00 0. -1.
          6    1    1    2  501    0 -0.17574870568E+03  0.13100933172E+03  0.47466691598E+03  0.55071656383E+03  0.17300000000E+03 0. -1.
         -6    1    1    2    0  502  0.17574870568E+03 -0.13100933172E+03  0.20612291777E+04  0.20800590798E+04  0.17300000000E+03 0. -1.
<mgrwt>
<rscale>  2 0.27924909E+03</rscale>
<asrwt>0</asrwt>
<pdfrwt beam="1">  1       21 0.39743618E+00 0.27924909E+03</pdfrwt>
<pdfrwt beam="2">  1       21 0.72984290E-02 0.27924909E+03</pdfrwt>
<totfact> 0.11409889E+03</totfact>
</mgrwt>
</event>
<event>
 4    1  0.3902417E-001  0.1746502E+03  0.7546771E-02  0.1173083E+00
         21   -1    0    0  501  502  0.00000000000E+00  0.00000000000E+00  0.22084011805E+04  0.22084011805E+04  0.00000000000E+00 0. -1.
         21   -1    0    0  502  503 -0.00000000000E+00 -0.00000000000E+00 -0.14978183934E+02  0.14978183934E+02  0.00000000000E+00 0. -1.
          6    1    1    2  501    0  0.10028469898E+02  0.21751424524E+02  0.78653006122E+03  0.80568742815E+03  0.17300000000E+03 0. -1.
         -6    1    1    2    0  503 -0.10028469898E+02 -0.21751424524E+02  0.14068929354E+04  0.14176919363E+04  0.17300000000E+03 0. -1.
<mgrwt>
<rscale>  2 0.17465021E+03</rscale>
<asrwt>0</asrwt>
<pdfrwt beam="1">  1       21 0.33975377E+00 0.17465021E+03</pdfrwt>
<pdfrwt beam="2">  1       21 0.23043377E-02 0.17465021E+03</pdfrwt>
<totfact> 0.20030100E+04</totfact>
</mgrwt>
</event>
<event>
 4    1  0.3902417E-001  0.1781353E+03  0.7546771E-02  0.1169620E+00
         21   -1    0    0  501  502  0.00000000000E+00  0.00000000000E+00  0.25359827737E+03  0.25359827737E+03  0.00000000000E+00 0. -1.
         21   -1    0    0  502  503 -0.00000000000E+00 -0.00000000000E+00 -0.19945592922E+03  0.19945592922E+03  0.00000000000E+00 0. -1.
          6    1    1    2  501    0 -0.17618255346E+02 -0.38636700006E+02 -0.11121324918E+03  0.21000139119E+03  0.17300000000E+03 0. -1.
         -6    1    1    2    0  503  0.17618255346E+02  0.38636700006E+02  0.16535559732E+03  0.24305281540E+03  0.17300000000E+03 0. -1.
<mgrwt>
<rscale>  2 0.17813533E+03</rscale>
<asrwt>0</asrwt>
<pdfrwt beam="1">  1       21 0.39015120E-01 0.17813533E+03</pdfrwt>
<pdfrwt beam="2">  1       21 0.30685527E-01 0.17813533E+03</pdfrwt>
<totfact> 0.64995588E+04</totfact>
</mgrwt>
</event>
<event>
 4    1  0.3902417E-001  0.1764594E+03  0.7546771E-02  0.1171274E+00
         21   -1    0    0  503  502  0.00000000000E+00  0.00000000000E+00  0.25509809400E+02  0.25509809400E+02  0.00000000000E+00 0.  1.
         21   -1    0    0  501  503 -0.00000000000E+00 -0.00000000000E+00 -0.14202630922E+04  0.14202630922E+04  0.00000000000E+00 0.  1.
          6    1    1    2  501    0 -0.32587571684E+02  0.12122774226E+02 -0.96840040579E+03  0.98434610652E+03  0.17300000000E+03 0. -1.
         -6    1    1    2    0  502  0.32587571684E+02 -0.12122774226E+02 -0.42635287699E+03  0.46142679506E+03  0.17300000000E+03 0. -1.
<mgrwt>
<rscale>  2 0.17645938E+03</rscale>
<asrwt>0</asrwt>
<pdfrwt beam="1">  1       21 0.39245860E-02 0.17645938E+03</pdfrwt>
<pdfrwt beam="2">  1       21 0.21850202E+00 0.17645938E+03</pdfrwt>
<totfact> 0.42062848E+04</totfact>
</mgrwt>
</event>
<event>
 4    1  0.3902417E-001  0.3158993E+03  0.7546771E-02  0.1077552E+00
         21   -1    0    0  501  502  0.00000000000E+00  0.00000000000E+00  0.77405894454E+02  0.77405894454E+02  0.00000000000E+00 0.  1.
         21   -1    0    0  502  503 -0.00000000000E+00 -0.00000000000E+00 -0.13431359207E+04  0.13431359207E+04  0.00000000000E+00 0. -1.
          6    1    1    2  501    0  0.22320494798E+03  0.14157306146E+03 -0.49054479246E+03  0.58346085896E+03  0.17300000000E+03 0.  1.
         -6    1    1    2    0  503 -0.22320494798E+03 -0.14157306146E+03 -0.77518523375E+03  0.83708095615E+03  0.17300000000E+03 0. -1.
<mgrwt>
<rscale>  2 0.31589932E+03</rscale>
<asrwt>0</asrwt>
<pdfrwt beam="1">  1       21 0.11908599E-01 0.31589932E+03</pdfrwt>
<pdfrwt beam="2">  1       21 0.20663629E+00 0.31589932E+03</pdfrwt>
<totfact> 0.66411061E+03</totfact>
</mgrwt>
</event>
<event>
 4    1  0.3902417E-001  0.2364386E+03  0.7546771E-02  0.1122188E+00
         21   -1    0    0  503  502  0.00000000000E+00  0.00000000000E+00  0.26570810204E+03  0.26570810204E+03  0.00000000000E+00 0. -1.
         21   -1    0    0  501  503 -0.00000000000E+00 -0.00000000000E+00 -0.24205532940E+03  0.24205532940E+03  0.00000000000E+00 0.  1.
          6    1    1    2  501    0 -0.13914894844E+02  0.16056330149E+03 -0.79994956054E+02  0.24960446927E+03  0.17300000000E+03 0.  1.
         -6    1    1    2    0  502  0.13914894844E+02 -0.16056330149E+03  0.10364772869E+03  0.25815896217E+03  0.17300000000E+03 0. -1.
<mgrwt>
<rscale>  2 0.23643857E+03</rscale>
<asrwt>0</asrwt>
<pdfrwt beam="1">  1       21 0.40878169E-01 0.23643857E+03</pdfrwt>
<pdfrwt beam="2">  1       21 0.37239282E-01 0.23643857E+03</pdfrwt>
<totfact> 0.39249302E+04</totfact>
</mgrwt>
</event>
<event>
 4    1  0.3902417E-001  0.1829068E+03  0.7546771E-02  0.1165019E+00
         21   -1    0    0  501  502  0.00000000000E+00  0.00000000000E+00  0.38201534898E+03  0.38201534898E+03  0.00000000000E+00 0.  1.
         21   -1    0    0  502  503 -0.00000000000E+00 -0.00000000000E+00 -0.91116343603E+02  0.91116343603E+02  0.00000000000E+00 0.  1.
          6    1    1    2  501    0 -0.46869749229E+02  0.36456913118E+02  0.19208925962E+03  0.26524170782E+03  0.17300000000E+03 0.  1.
         -6    1    1    2    0  503  0.46869749229E+02 -0.36456913118E+02  0.98809745752E+02  0.20788998476E+03  0.17300000000E+03 0.  1.
<mgrwt>
<rscale>  2 0.18290675E+03</rscale>
<asrwt>0</asrwt>
<pdfrwt beam="1">  1       21 0.58771591E-01 0.18290675E+03</pdfrwt>
<pdfrwt beam="2">  1       21 0.14017899E-01 0.18290675E+03</pdfrwt>
<totfact> 0.12057922E+05</totfact>
</mgrwt>
</event>
<event>
 4    1  0.3902417E-001  0.1961525E+03  0.7546771E-02  0.1153026E+00
         21   -1    0    0  503  502  0.00000000000E+00  0.00000000000E+00  0.10106647676E+03  0.10106647676E+03  0.00000000000E+00 0.  1.
         21   -1    0    0  501  503 -0.00000000000E+00 -0.00000000000E+00 -0.42768946466E+03  0.42768946466E+03  0.00000000000E+00 0.  1.
          6    1    1    2  501    0  0.88217059468E+02  0.27650875039E+02 -0.25094492144E+03  0.31851086962E+03  0.17300000000E+03 0.  1.
         -6    1    1    2    0  502 -0.88217059468E+02 -0.27650875039E+02 -0.75678066459E+02  0.21024507180E+03  0.17300000000E+03 0.  1.
<mgrwt>
<rscale>  2 0.19615254E+03</rscale>
<asrwt>0</asrwt>
<pdfrwt beam="1">  1       21 0.15548689E-01 0.19615254E+03</pdfrwt>
<pdfrwt beam="2">  1       21 0.65798380E-01 0.19615254E+03</pdfrwt>
<totfact> 0.77856654E+04</totfact>
</mgrwt>
</event>
<event>
 4    1  0.3902417E-001  0.1928953E+03  0.7546771E-02  0.1155876E+00
         21   -1    0    0  501  502  0.00000000000E+00  0.00000000000E+00  0.15872741256E+04  0.15872741256E+04  0.00000000000E+00 0.  1.
         21   -1    0    0  502  503 -0.00000000000E+00 -0.00000000000E+00 -0.23862195132E+02  0.23862195132E+02  0.00000000000E+00 0.  1.
          6    1    1    2  501    0  0.71175031844E+02 -0.47050064609E+02  0.88862765211E+03  0.90932265881E+03  0.17300000000E+03 0.  1.
         -6    1    1    2    0  503 -0.71175031844E+02  0.47050064609E+02  0.67478427839E+03  0.70181366195E+03  0.17300000000E+03 0.  1.
<mgrwt>
<rscale>  2 0.19289529E+03</rscale>
<asrwt>0</asrwt>
<pdfrwt beam="1">  1       21 0.24419594E+00 0.19289529E+03</pdfrwt>
<pdfrwt beam="2">  1       21 0.36711082E-02 0.19289529E+03</pdfrwt>
<totfact> 0.32538295E+04</totfact>
</mgrwt>
</event>
<event>
 4    1  0.3902417E-001  0.1910340E+03  0.7546771E-02  0.1157532E+00
         21   -1    0    0  503  502  0.00000000000E+00  0.00000000000E+00  0.35073838658E+03  0.35073838658E+03  0.00000000000E+00 0.  1.
         21   -1    0    0  501  503 -0.00000000000E+00 -0.00000000000E+00 -0.18013914846E+03  0.18013914846E+03  0.00000000000E+00 0. -1.
          6    1    1    2  501    0 -0.80314410530E+02  0.10703881651E+02 -0.87214450982E+02  0.21000080495E+03  0.17300000000E+03 0. -1.
         -6    1    1    2    0  502  0.80314410530E+02 -0.10703881651E+02  0.25781368910E+03  0.32087673009E+03  0.17300000000E+03 0.  1.
<mgrwt>
<rscale>  2 0.19103397E+03</rscale>
<asrwt>0</asrwt>
<pdfrwt beam="1">  1       21 0.53959752E-01 0.19103397E+03</pdfrwt>
<pdfrwt beam="2">  1       21 0.27713715E-01 0.19103397E+03</pdfrwt>
<totfact> 0.40394708E+04</totfact>
</mgrwt>
</event>
<event>
 4    1  0.3902417E-001  0.1961135E+03  0.7546771E-02  0.1153060E+00
         21   -1    0    0  501  502  0.00000000000E+00  0.00000000000E+00  0.98176043734E+03  0.98176043734E+03  0.00000000000E+00 0.  1.
         21   -1    0    0  502  503 -0.00000000000E+00 -0.00000000000E+00 -0.57067604649E+02  0.57067604649E+02  0.00000000000E+00 0. -1.
          6    1    1    2  501    0  0.47410013154E+02 -0.79270370460E+02  0.75318711997E+03  0.77830028823E+03  0.17300000000E+03 0.  1.
         -6    1    1    2    0  503 -0.47410013154E+02  0.79270370460E+02  0.17150571272E+03  0.26052775376E+03  0.17300000000E+03 0. -1.
<mgrwt>
<rscale>  2 0.19611349E+03</rscale>
<asrwt>0</asrwt>
<pdfrwt beam="1">  1       21 0.15104005E+00 0.19611349E+03</pdfrwt>
<pdfrwt beam="2">  1       21 0.87796322E-02 0.19611349E+03</pdfrwt>
<totfact> 0.29878965E+04</totfact>
</mgrwt>
</event>
<event>
 4    1  0.3902417E-001  0.2007171E+03  0.7546771E-02  0.1149135E+00
         21   -1    0    0  501  502  0.00000000000E+00  0.00000000000E+00  0.35376414405E+03  0.35376414405E+03  0.00000000000E+00 0.  1.
         21   -1    0    0  502  503 -0.00000000000E+00 -0.00000000000E+00 -0.12355994999E+03  0.12355994999E+03  0.00000000000E+00 0.  1.
          6    1    1    2  501    0  0.35940460458E+02 -0.95218950448E+02  0.48308262202E+02  0.20644867018E+03  0.17300000000E+03 0.  1.
         -6    1    1    2    0  503 -0.35940460458E+02  0.95218950448E+02  0.18189593186E+03  0.27087542386E+03  0.17300000000E+03 0.  1.
<mgrwt>
<rscale>  2 0.20071713E+03</rscale>
<asrwt>0</asrwt>
<pdfrwt beam="1">  1       21 0.54425253E-01 0.20071713E+03</pdfrwt>
<pdfrwt beam="2">  1       21 0.19009223E-01 0.20071713E+03</pdfrwt>
<totfact> 0.80646012E+04</totfact>
</mgrwt>
</event>
<event>
 4    1  0.3902417E-001  0.2602313E+03  0.7546771E-02  0.1107004E+00
         21   -1    0    0  501  502  0.00000000000E+00  0.00000000000E+00  0.18934238416E+03  0.18934238416E+03  0.00000000000E+00 0. -1.
         21   -1    0    0  502  503 -0.00000000000E+00 -0.00000000000E+00 -0.36488902747E+03  0.36488902747E+03  0.00000000000E+00 0. -1.
          6    1    1    2  501    0 -0.12295493185E+03  0.15057691701E+03 -0.48770082806E+02  0.26476186315E+03  0.17300000000E+03 0. -1.
         -6    1    1    2    0  503  0.12295493185E+03 -0.15057691701E+03 -0.12677656050E+03  0.28946954847E+03  0.17300000000E+03 0. -1.
<mgrwt>
<rscale>  2 0.26023129E+03</rscale>
<asrwt>0</asrwt>
<pdfrwt beam="1">  1       21 0.29129598E-01 0.26023129E+03</pdfrwt>
<pdfrwt beam="2">  1       21 0.56136773E-01 0.26023129E+03</pdfrwt>
<totfact> 0.32625388E+04</totfact>
</mgrwt>
</event>
<event>
 4    1  0.3902417E-001  0.1768626E+03  0.7546771E-02  0.1170874E+00
         21   -1    0    0  501  502  0.00000000000E+00  0.00000000000E+00  0.57327823409E+03  0.57327823409E+03  0.00000000000E+00 0. -1.
         21   -1    0    0  502  503 -0.00000000000E+00 -0.00000000000E+00 -0.54633421624E+02  0.54633421624E+02  0.00000000000E+00 0. -1.
          6    1    1    2  501    0 -0.12677065637E+02  0.34506192484E+02  0.27050940116E+03  0.32319610367E+03  0.17300000000E+03 0. -1.
         -6    1    1    2    0  503  0.12677065637E+02 -0.34506192484E+02  0.24813541131E+03  0.30471555205E+03  0.17300000000E+03 0. -1.
<mgrwt>
<rscale>  2 0.17686262E+03</rscale>
<asrwt>0</asrwt>
<pdfrwt beam="1">  1       21 0.88196647E-01 0.17686262E+03</pdfrwt>
<pdfrwt beam="2">  1       21 0.84051422E-02 0.17686262E+03</pdfrwt>
<totfact> 0.12192898E+05</totfact>
</mgrwt>
</event>
<event>
 4    1  0.3902417E-001  0.2021339E+03  0.7546771E-02  0.1147951E+00
         21   -1    0    0  501  502  0.00000000000E+00  0.00000000000E+00  0.26084153827E+03  0.26084153827E+03  0.00000000000E+00 0. -1.
         21   -1    0    0  502  503 -0.00000000000E+00 -0.00000000000E+00 -0.21376999823E+03  0.21376999823E+03  0.00000000000E+00 0. -1.
          6    1    1    2  501    0 -0.42031740284E+02 -0.95720612457E+02  0.14621434128E+03  0.24947291724E+03  0.17300000000E+03 0. -1.
         -6    1    1    2    0  503  0.42031740284E+02  0.95720612457E+02 -0.99142801247E+02  0.22513861925E+03  0.17300000000E+03 0. -1.
<mgrwt>
<rscale>  2 0.20213387E+03</rscale>
<asrwt>0</asrwt>
<pdfrwt beam="1">  1       21 0.40129468E-01 0.20213387E+03</pdfrwt>
<pdfrwt beam="2">  1       21 0.32887692E-01 0.20213387E+03</pdfrwt>
<totfact> 0.53019354E+04</totfact>
</mgrwt>
</event>
<event>
 4    1  0.3902417E-001  0.2757345E+03  0.7546771E-02  0.1098042E+00
         21   -1    0    0  503  502  0.00000000000E+00  0.00000000000E+00  0.11949076231E+04  0.11949076231E+04  0.00000000000E+00 0.  1.
         21   -1    0    0  501  503 -0.00000000000E+00 -0.00000000000E+00 -0.71538312818E+02  0.71538312818E+02  0.00000000000E+00 0. -1.
          6    1    1    2  501    0  0.17926623053E+03  0.11816983066E+03  0.35111962154E+03  0.44644650174E+03  0.17300000000E+03 0. -1.
         -6    1    1    2    0  502 -0.17926623053E+03 -0.11816983066E+03  0.77224968871E+03  0.81999943415E+03  0.17300000000E+03 0.  1.
<mgrwt>
<rscale>  2 0.27573446E+03</rscale>
<asrwt>0</asrwt>
<pdfrwt beam="1">  1       21 0.18383193E+00 0.27573446E+03</pdfrwt>
<pdfrwt beam="2">  1       21 0.11005895E-01 0.27573446E+03</pdfrwt>
<totfact> 0.11089921E+04</totfact>
</mgrwt>
</event>
<event>
 4    1  0.3902417E-001  0.1883394E+03  0.7546771E-02  0.1159968E+00
         21   -1    0    0  503  502  0.00000000000E+00  0.00000000000E+00  0.18036352393E+04  0.18036352393E+04  0.00000000000E+00 0.  1.
         21   -1    0    0  501  503 -0.00000000000E+00 -0.00000000000E+00 -0.21525265628E+02  0.21525265628E+02  0.00000000000E+00 0.  1.
          6    1    1    2  501    0 -0.54499243559E+02 -0.50720506339E+02  0.11592025337E+04  0.11744029340E+04  0.17300000000E+03 0.  1.
         -6    1    1    2    0  502  0.54499243559E+02  0.50720506339E+02  0.62290743992E+03  0.65075757085E+03  0.17300000000E+03 0.  1.
<mgrwt>
<rscale>  2 0.18833942E+03</rscale>
<asrwt>0</asrwt>
<pdfrwt beam="1">  1       21 0.27748223E+00 0.18833942E+03</pdfrwt>
<pdfrwt beam="2">  1       21 0.33115807E-02 0.18833942E+03</pdfrwt>
<totfact> 0.24812781E+04</totfact>
</mgrwt>
</event>
<event>
 4    1  0.3902417E-001  0.1769871E+03  0.7546771E-02  0.1170751E+00
         21   -1    0    0  501  502  0.00000000000E+00  0.00000000000E+00  0.49237663476E+03  0.49237663476E+03  0.00000000000E+00 0. -1.
         21   -1    0    0  502  503 -0.00000000000E+00 -0.00000000000E+00 -0.64744893881E+02  0.64744893881E+02  0.00000000000E+00 0. -1.
          6    1    1    2  501    0  0.36769642424E+02 -0.65893166998E+01  0.17707930169E+03  0.25036274640E+03  0.17300000000E+03 0.  1.
         -6    1    1    2    0  503 -0.36769642424E+02  0.65893166998E+01  0.25055243919E+03  0.30675878224E+03  0.17300000000E+03 0.  1.
<mgrwt>
<rscale>  2 0.17698708E+03</rscale>
<asrwt>0</asrwt>
<pdfrwt beam="1">  1       21 0.75750249E-01 0.17698708E+03</pdfrwt>
<pdfrwt beam="2">  1       21 0.99607532E-02 0.17698708E+03</pdfrwt>
<totfact> 0.12777809E+05</totfact>
</mgrwt>
</event>
<event>
 4    1  0.3902417E-001  0.2478069E+03  0.7546771E-02  0.1114699E+00
         21   -1    0    0  503  502  0.00000000000E+00  0.00000000000E+00  0.29722370829E+03  0.29722370829E+03  0.00000000000E+00 0. -1.
         21   -1    0    0  501  503 -0.00000000000E+00 -0.00000000000E+00 -0.24011457485E+03  0.24011457485E+03  0.00000000000E+00 0.  1.
          6    1    1    2  501    0 -0.14803385210E+03  0.97802066206E+02 -0.71811084952E+02  0.25800212682E+03  0.17300000000E+03 0.  1.
         -6    1    1    2    0  502  0.14803385210E+03 -0.97802066206E+02  0.12892021839E+03  0.27933615633E+03  0.17300000000E+03 0.  1.
<mgrwt>
<rscale>  2 0.24780691E+03</rscale>
<asrwt>0</asrwt>
<pdfrwt beam="1">  1       21 0.45726724E-01 0.24780691E+03</pdfrwt>
<pdfrwt beam="2">  1       21 0.36940704E-01 0.24780691E+03</pdfrwt>
<totfact> 0.31529421E+04</totfact>
</mgrwt>
</event>
<event>
 4    1  0.3902417E-001  0.1730645E+03  0.7546771E-02  0.1174689E+00
         21   -1    0    0  503  502  0.00000000000E+00  0.00000000000E+00  0.15928041667E+03  0.15928041667E+03  0.00000000000E+00 0.  1.
         21   -1    0    0  501  503 -0.00000000000E+00 -0.00000000000E+00 -0.52262133325E+03  0.52262133325E+03  0.00000000000E+00 0.  1.
          6    1    1    2  501    0 -0.26000394372E+01  0.39447171722E+01 -0.45447283720E+03  0.48630944958E+03  0.17300000000E+03 0.  1.
         -6    1    1    2    0  502  0.26000394372E+01 -0.39447171722E+01  0.91131920613E+02  0.19559230034E+03  0.17300000000E+03 0.  1.
<mgrwt>
<rscale>  2 0.17306450E+03</rscale>
<asrwt>0</asrwt>
<pdfrwt beam="1">  1       21 0.24504680E-01 0.17306450E+03</pdfrwt>
<pdfrwt beam="2">  1       21 0.80403281E-01 0.17306450E+03</pdfrwt>
<totfact> 0.21652841E+04</totfact>
</mgrwt>
</event>
<event>
 4    1  0.3902417E-001  0.3013932E+03  0.7546771E-02  0.1084546E+00
         21   -1    0    0  503  502  0.00000000000E+00  0.00000000000E+00  0.44183793643E+02  0.44183793643E+02  0.00000000000E+00 0.  1.
         21   -1    0    0  501  503 -0.00000000000E+00 -0.00000000000E+00 -0.20577649370E+04  0.20577649370E+04  0.00000000000E+00 0. -1.
          6    1    1    2  501    0 -0.12544908013E+03 -0.21253567022E+03 -0.97523233137E+03  0.10207428584E+04  0.17300000000E+03 0.  1.
         -6    1    1    2    0  502  0.12544908013E+03  0.21253567022E+03 -0.10383488120E+04  0.10812058722E+04  0.17300000000E+03 0. -1.
<mgrwt>
<rscale>  2 0.30139324E+03</rscale>
<asrwt>0</asrwt>
<pdfrwt beam="1">  1       21 0.67975046E-02 0.30139324E+03</pdfrwt>
<pdfrwt beam="2">  1       21 0.31657932E+00 0.30139324E+03</pdfrwt>
<totfact> 0.39234716E+03</totfact>
</mgrwt>
</event>
<event>
 4    1  0.3902417E-001  0.2553124E+03  0.7546771E-02  0.1109993E+00
         21   -1    0    0  501  502  0.00000000000E+00  0.00000000000E+00  0.25840033650E+03  0.25840033650E+03  0.00000000000E+00 0. -1.
         21   -1    0    0  502  503 -0.00000000000E+00 -0.00000000000E+00 -0.25663107199E+03  0.25663107199E+03  0.00000000000E+00 0. -1.
          6    1    1    2  501    0 -0.15413897467E+03 -0.10722229130E+03 -0.32717829260E+02  0.25740027120E+03  0.17300000000E+03 0. -1.
         -6    1    1    2    0  503  0.15413897467E+03  0.10722229130E+03  0.34487093765E+02  0.25763113729E+03  0.17300000000E+03 0. -1.
<mgrwt>
<rscale>  2 0.25531244E+03</rscale>
<asrwt>0</asrwt>
<pdfrwt beam="1">  1       21 0.39753898E-01 0.25531244E+03</pdfrwt>
<pdfrwt beam="2">  1       21 0.39481703E-01 0.25531244E+03</pdfrwt>
<totfact> 0.36618307E+04</totfact>
</mgrwt>
</event>
<event>
 4    1  0.3902417E-001  0.1944563E+03  0.7546771E-02  0.1154502E+00
         21   -1    0    0  503  502  0.00000000000E+00  0.00000000000E+00  0.15909800189E+03  0.15909800189E+03  0.00000000000E+00 0. -1.
         21   -1    0    0  501  503 -0.00000000000E+00 -0.00000000000E+00 -0.49844140645E+03  0.49844140645E+03  0.00000000000E+00 0. -1.
          6    1    1    2  501    0  0.11777955406E+02 -0.88008780391E+02 -0.40747200197E+03  0.45149385161E+03  0.17300000000E+03 0. -1.
         -6    1    1    2    0  502 -0.11777955406E+02  0.88008780391E+02  0.68128597413E+02  0.20604555672E+03  0.17300000000E+03 0. -1.
<mgrwt>
<rscale>  2 0.19445633E+03</rscale>
<asrwt>0</asrwt>
<pdfrwt beam="1">  1       21 0.24476616E-01 0.19445633E+03</pdfrwt>
<pdfrwt beam="2">  1       21 0.76683292E-01 0.19445633E+03</pdfrwt>
<totfact> 0.23834892E+04</totfact>
</mgrwt>
</event>
<event>
 4    1  0.3902417E-001  0.1760206E+03  0.7546771E-02  0.1171711E+00
         21   -1    0    0  503  502  0.00000000000E+00  0.00000000000E+00  0.19536800891E+03  0.19536800891E+03  0.00000000000E+00 0.  1.
         21   -1    0    0  501  503 -0.00000000000E+00 -0.00000000000E+00 -0.16010302348E+03  0.16010302348E+03  0.00000000000E+00 0.  1.
          6    1    1    2  501    0  0.17003885637E+02 -0.27660522069E+02  0.34920000799E+00  0.17602090373E+03  0.17300000000E+03 0.  1.
         -6    1    1    2    0  502 -0.17003885637E+02  0.27660522069E+02  0.34915785421E+02  0.17945012867E+03  0.17300000000E+03 0.  1.
<mgrwt>
<rscale>  2 0.17602056E+03</rscale>
<asrwt>0</asrwt>
<pdfrwt beam="1">  1       21 0.30056617E-01 0.17602056E+03</pdfrwt>
<pdfrwt beam="2">  1       21 0.24631234E-01 0.17602056E+03</pdfrwt>
<totfact> 0.16629107E+05</totfact>
</mgrwt>
</event>
<event>
 4    1  0.3902417E-001  0.1941794E+03  0.7546771E-02  0.1154745E+00
         21   -1    0    0  503  502  0.00000000000E+00  0.00000000000E+00  0.14676541600E+03  0.14676541600E+03  0.00000000000E+00 0. -1.
         21   -1    0    0  501  503 -0.00000000000E+00 -0.00000000000E+00 -0.31136571814E+03  0.31136571814E+03  0.00000000000E+00 0.  1.
          6    1    1    2  501    0  0.72165174107E+02  0.50683751738E+02 -0.17809497172E+03  0.26348334671E+03  0.17300000000E+03 0.  1.
         -6    1    1    2    0  502 -0.72165174107E+02 -0.50683751738E+02  0.13494669575E+02  0.19464778743E+03  0.17300000000E+03 0. -1.
<mgrwt>
<rscale>  2 0.19417944E+03</rscale>
<asrwt>0</asrwt>
<pdfrwt beam="1">  1       21 0.22579295E-01 0.19417944E+03</pdfrwt>
<pdfrwt beam="2">  1       21 0.47902418E-01 0.19417944E+03</pdfrwt>
<totfact> 0.76510731E+04</totfact>
</mgrwt>
</event>
<event>
 4    1  0.3902417E-001  0.1882553E+03  0.7546771E-02  0.1160044E+00
         21   -1    0    0  501  502  0.00000000000E+00  0.00000000000E+00  0.76921302649E+02  0.76921302649E+02  0.00000000000E+00 0.  1.
         21   -1    0    0  502  503 -0.00000000000E+00 -0.00000000000E+00 -0.49796561038E+03  0.49796561038E+03  0.00000000000E+00 0. -1.
          6    1    1    2  501    0  0.23366403607E+01  0.74199634690E+02 -0.13192173325E+03  0.22987690049E+03  0.17300000000E+03 0.  1.
         -6    1    1    2    0  503 -0.23366403607E+01 -0.74199634690E+02 -0.28912257448E+03  0.34501001253E+03  0.17300000000E+03 0.  1.
<mgrwt>
<rscale>  2 0.18825527E+03</rscale>
<asrwt>0</asrwt>
<pdfrwt beam="1">  1       21 0.11834047E-01 0.18825527E+03</pdfrwt>
<pdfrwt beam="2">  1       21 0.76610092E-01 0.18825527E+03</pdfrwt>
<totfact> 0.91375563E+04</totfact>
</mgrwt>
</event>
<event>
 4    1  0.3902417E-001  0.2170690E+03  0.7546771E-02  0.1136087E+00
         21   -1    0    0  501  502  0.00000000000E+00  0.00000000000E+00  0.20843654489E+03  0.20843654489E+03  0.00000000000E+00 0.  1.
         21   -1    0    0  502  503 -0.00000000000E+00 -0.00000000000E+00 -0.25994769722E+03  0.25994769722E+03  0.00000000000E+00 0.  1.
          6    1    1    2  501    0 -0.10657949891E+03 -0.76359407830E+02  0.58802867316E+02  0.22489269876E+03  0.17300000000E+03 0.  1.
         -6    1    1    2    0  503  0.10657949891E+03  0.76359407830E+02 -0.11031401964E+03  0.24349154335E+03  0.17300000000E+03 0.  1.
<mgrwt>
<rscale>  2 0.21706900E+03</rscale>
<asrwt>0</asrwt>
<pdfrwt beam="1">  1       21 0.32067161E-01 0.21706900E+03</pdfrwt>
<pdfrwt beam="2">  1       21 0.39991953E-01 0.21706900E+03</pdfrwt>
<totfact> 0.55731363E+04</totfact>
</mgrwt>
</event>
<event>
 4    1  0.3902417E-001  0.2150124E+03  0.7546771E-02  0.1137657E+00
         21   -1    0    0  501  502  0.00000000000E+00  0.00000000000E+00  0.34245661441E+03  0.34245661441E+03  0.00000000000E+00 0.  1.
         21   -1    0    0  502  503 -0.00000000000E+00 -0.00000000000E+00 -0.35911510468E+03  0.35911510468E+03  0.00000000000E+00 0.  1.
          6    1    1    2  501    0 -0.50092777125E+02  0.11743947477E+03  0.26878864173E+03  0.34420582575E+03  0.17300000000E+03 0.  1.
         -6    1    1    2    0  503  0.50092777125E+02 -0.11743947477E+03 -0.28544713200E+03  0.35736589334E+03  0.17300000000E+03 0.  1.
<mgrwt>
<rscale>  2 0.21501236E+03</rscale>
<asrwt>0</asrwt>
<pdfrwt beam="1">  1       21 0.52685633E-01 0.21501236E+03</pdfrwt>
<pdfrwt beam="2">  1       21 0.55248478E-01 0.21501236E+03</pdfrwt>
<totfact> 0.10394778E+04</totfact>
</mgrwt>
</event>
<event>
 4    1  0.3902417E-001  0.1941243E+03  0.7546771E-02  0.1154793E+00
         21   -1    0    0  501  502  0.00000000000E+00  0.00000000000E+00  0.10642442932E+04  0.10642442932E+04  0.00000000000E+00 0.  1.
         21   -1    0    0  502  503 -0.00000000000E+00 -0.00000000000E+00 -0.37569381418E+02  0.37569381418E+02  0.00000000000E+00 0.  1.
          6    1    1    2  501    0  0.48165961575E+02  0.73724507410E+02  0.64543207029E+03  0.67399319003E+03  0.17300000000E+03 0.  1.
         -6    1    1    2    0  503 -0.48165961575E+02 -0.73724507410E+02  0.38124284152E+03  0.42782048462E+03  0.17300000000E+03 0.  1.
<mgrwt>
<rscale>  2 0.19412435E+03</rscale>
<asrwt>0</asrwt>
<pdfrwt beam="1">  1       21 0.16372987E+00 0.19412435E+03</pdfrwt>
<pdfrwt beam="2">  1       21 0.57799056E-02 0.19412435E+03</pdfrwt>
<totfact> 0.49662448E+04</totfact>
</mgrwt>
</event>
<event>
 4    1  0.3902417E-001  0.2108488E+03  0.7546771E-02  0.1140896E+00
         21   -1    0    0  503  502  0.00000000000E+00  0.00000000000E+00  0.82470723466E+02  0.82470723466E+02  0.00000000000E+00 0. -1.
         21   -1    0    0  501  503 -0.00000000000E+00 -0.00000000000E+00 -0.58220925014E+03  0.58220925014E+03  0.00000000000E+00 0.  1.
          6    1    1    2  501    0 -0.54001517827E+02  0.10775928359E+03 -0.15940114354E+03  0.26432168221E+03  0.17300000000E+03 0.  1.
         -6    1    1    2    0  502  0.54001517827E+02 -0.10775928359E+03 -0.34033738314E+03  0.40035829139E+03  0.17300000000E+03 0.  1.
<mgrwt>
<rscale>  2 0.21084883E+03</rscale>
<asrwt>0</asrwt>
<pdfrwt beam="1">  1       21 0.12687804E-01 0.21084883E+03</pdfrwt>
<pdfrwt beam="2">  1       21 0.89570651E-01 0.21084883E+03</pdfrwt>
<totfact> 0.55911274E+04</totfact>
</mgrwt>
</event>
<event>
 4    1  0.3902417E-001  0.2137500E+03  0.7546771E-02  0.1138630E+00
         21   -1    0    0  503  502  0.00000000000E+00  0.00000000000E+00  0.38080392407E+02  0.38080392407E+02  0.00000000000E+00 0.  1.
         21   -1    0    0  501  503 -0.00000000000E+00 -0.00000000000E+00 -0.13061146245E+04  0.13061146245E+04  0.00000000000E+00 0.  1.
          6    1    1    2  501    0  0.89527153205E+02  0.88005455155E+02 -0.82576321281E+03  0.85297945751E+03  0.17300000000E+03 0.  1.
         -6    1    1    2    0  502 -0.89527153205E+02 -0.88005455155E+02 -0.44227101927E+03  0.49121555939E+03  0.17300000000E+03 0.  1.
<mgrwt>
<rscale>  2 0.21375002E+03</rscale>
<asrwt>0</asrwt>
<pdfrwt beam="1">  1       21 0.58585215E-02 0.21375002E+03</pdfrwt>
<pdfrwt beam="2">  1       21 0.20094073E+00 0.21375002E+03</pdfrwt>
<totfact> 0.26792361E+04</totfact>
</mgrwt>
</event>
<event>
 4    1  0.3902417E-001  0.2433487E+03  0.7546771E-02  0.1117582E+00
         21   -1    0    0  503  502  0.00000000000E+00  0.00000000000E+00  0.34621242971E+02  0.34621242971E+02  0.00000000000E+00 0.  1.
         21   -1    0    0  501  503 -0.00000000000E+00 -0.00000000000E+00 -0.18014199305E+04  0.18014199305E+04  0.00000000000E+00 0. -1.
          6    1    1    2  501    0 -0.15941836326E+03 -0.62252443071E+02 -0.10896746523E+04  0.11165166497E+04  0.17300000000E+03 0. -1.
         -6    1    1    2    0  502  0.15941836326E+03  0.62252443071E+02 -0.67712403526E+03  0.71952452379E+03  0.17300000000E+03 0.  1.
<mgrwt>
<rscale>  2 0.24334868E+03</rscale>
<asrwt>0</asrwt>
<pdfrwt beam="1">  1       21 0.53263446E-02 0.24334868E+03</pdfrwt>
<pdfrwt beam="2">  1       21 0.27714155E+00 0.24334868E+03</pdfrwt>
<totfact> 0.10661668E+04</totfact>
</mgrwt>
</event>
<event>
 4    1  0.3902417E-001  0.2172078E+03  0.7546771E-02  0.1135982E+00
         21   -1    0    0  501  502  0.00000000000E+00  0.00000000000E+00  0.29591115993E+03  0.29591115993E+03  0.00000000000E+00 0.  1.
         21   -1    0    0  502  503 -0.00000000000E+00 -0.00000000000E+00 -0.16524101062E+03  0.16524101062E+03  0.00000000000E+00 0. -1.
          6    1    1    2  501    0  0.49539278277E+02 -0.12163912785E+03  0.10854819802E+03  0.24282077508E+03  0.17300000000E+03 0.  1.
         -6    1    1    2    0  503 -0.49539278277E+02  0.12163912785E+03  0.22121951280E+02  0.21833139546E+03  0.17300000000E+03 0.  1.
<mgrwt>
<rscale>  2 0.21720777E+03</rscale>
<asrwt>0</asrwt>
<pdfrwt beam="1">  1       21 0.45524794E-01 0.21720777E+03</pdfrwt>
<pdfrwt beam="2">  1       21 0.25421694E-01 0.21720777E+03</pdfrwt>
<totfact> 0.67147842E+04</totfact>
</mgrwt>
</event>
<event>
 4    1  0.3902417E-001  0.1997724E+03  0.7546771E-02  0.1149931E+00
         21   -1    0    0  501  502  0.00000000000E+00  0.00000000000E+00  0.71690331279E+03  0.71690331279E+03  0.00000000000E+00 0. -1.
         21   -1    0    0  502  503 -0.00000000000E+00 -0.00000000000E+00 -0.78811969880E+02  0.78811969880E+02  0.00000000000E+00 0. -1.
          6    1    1    2  501    0  0.50264557210E+01  0.99773432708E+02  0.53464376621E+03  0.57074772000E+03  0.17300000000E+03 0. -1.
         -6    1    1    2    0  503 -0.50264557210E+01 -0.99773432708E+02  0.10344757670E+03  0.22496756268E+03  0.17300000000E+03 0. -1.
<mgrwt>
<rscale>  2 0.19977238E+03</rscale>
<asrwt>0</asrwt>
<pdfrwt beam="1">  1       21 0.11029281E+00 0.19977238E+03</pdfrwt>
<pdfrwt beam="2">  1       21 0.12124919E-01 0.19977238E+03</pdfrwt>
<totfact> 0.37232261E+04</totfact>
</mgrwt>
</event>
<event>
 4    1  0.3902417E-001  0.2310295E+03  0.7546771E-02  0.1125917E+00
         21   -1    0    0  501  502  0.00000000000E+00  0.00000000000E+00  0.81446665648E+02  0.81446665648E+02  0.00000000000E+00 0. -1.
         21   -1    0    0  502  503 -0.00000000000E+00 -0.00000000000E+00 -0.77541195735E+03  0.77541195735E+03  0.00000000000E+00 0.  1.
          6    1    1    2  501    0  0.10301085019E+03 -0.11328901170E+03 -0.17838653793E+03  0.29188421050E+03  0.17300000000E+03 0.  1.
         -6    1    1    2    0  503 -0.10301085019E+03  0.11328901170E+03 -0.51557875378E+03  0.56497441250E+03  0.17300000000E+03 0.  1.
<mgrwt>
<rscale>  2 0.23102951E+03</rscale>
<asrwt>0</asrwt>
<pdfrwt beam="1">  1       21 0.12530256E-01 0.23102951E+03</pdfrwt>
<pdfrwt beam="2">  1       21 0.11929415E+00 0.23102951E+03</pdfrwt>
<totfact> 0.28477292E+04</totfact>
</mgrwt>
</event>
<event>
 4    1  0.3902417E-001  0.1926195E+03  0.7546771E-02  0.1156120E+00
         21   -1    0    0  503  502  0.00000000000E+00  0.00000000000E+00  0.18078583400E+03  0.18078583400E+03  0.00000000000E+00 0. -1.
         21   -1    0    0  501  503 -0.00000000000E+00 -0.00000000000E+00 -0.25179068750E+03  0.25179068750E+03  0.00000000000E+00 0.  1.
          6    1    1    2  501    0 -0.19128769819E+02  0.82506656881E+02 -0.12851327458E+03  0.23155543614E+03  0.17300000000E+03 0.  1.
         -6    1    1    2    0  502  0.19128769819E+02 -0.82506656881E+02  0.57508421074E+02  0.20102108536E+03  0.17300000000E+03 0. -1.
<mgrwt>
<rscale>  2 0.19261946E+03</rscale>
<asrwt>0</asrwt>
<pdfrwt beam="1">  1       21 0.27813205E-01 0.19261946E+03</pdfrwt>
<pdfrwt beam="2">  1       21 0.38737029E-01 0.19261946E+03</pdfrwt>
<totfact> 0.79315785E+04</totfact>
</mgrwt>
</event>
<event>
 4    1  0.3902417E-001  0.2432417E+03  0.7546771E-02  0.1117652E+00
         21   -1    0    0  503  502  0.00000000000E+00  0.00000000000E+00  0.46572689982E+03  0.46572689982E+03  0.00000000000E+00 0.  1.
         21   -1    0    0  501  503 -0.00000000000E+00 -0.00000000000E+00 -0.13978925395E+03  0.13978925395E+03  0.00000000000E+00 0. -1.
          6    1    1    2  501    0  0.16950033220E+03 -0.22519917006E+02  0.71540531065E+02  0.25354399394E+03  0.17300000000E+03 0. -1.
         -6    1    1    2    0  502 -0.16950033220E+03  0.22519917006E+02  0.25439711480E+03  0.35197215983E+03  0.17300000000E+03 0.  1.
<mgrwt>
<rscale>  2 0.24324167E+03</rscale>
<asrwt>0</asrwt>
<pdfrwt beam="1">  1       21 0.71650291E-01 0.24324167E+03</pdfrwt>
<pdfrwt beam="2">  1       21 0.21506039E-01 0.24324167E+03</pdfrwt>
<totfact> 0.34574118E+04</totfact>
</mgrwt>
</event>
<event>
 4    1  0.3902417E-001  0.2373373E+03  0.7546771E-02  0.1121579E+00
         21   -1    0    0  503  502  0.00000000000E+00  0.00000000000E+00  0.36507969913E+03  0.36507969913E+03  0.00000000000E+00 0. -1.
         21   -1    0    0  501  503 -0.00000000000E+00 -0.00000000000E+00 -0.15517021498E+03  0.15517021498E+03  0.00000000000E+00 0. -1.
          6    1    1    2  501    0 -0.15782096830E+03 -0.38633481617E+02  0.85389184497E+02  0.25223068165E+03  0.17300000000E+03 0. -1.
         -6    1    1    2    0  502  0.15782096830E+03  0.38633481617E+02  0.12452029965E+03  0.26801923245E+03  0.17300000000E+03 0. -1.
<mgrwt>
<rscale>  2 0.23733732E+03</rscale>
<asrwt>0</asrwt>
<pdfrwt beam="1">  1       21 0.56166107E-01 0.23733732E+03</pdfrwt>
<pdfrwt beam="2">  1       21 0.23872341E-01 0.23733732E+03</pdfrwt>
<totfact> 0.48334330E+04</totfact>
</mgrwt>
</event>
<event>
 4    1  0.3902417E-001  0.1869331E+03  0.7546771E-02  0.1161257E+00
         21   -1    0    0  501  502  0.00000000000E+00  0.00000000000E+00  0.10650900968E+03  0.10650900968E+03  0.00000000000E+00 0. -1.
         21   -1    0    0  502  503 -0.00000000000E+00 -0.00000000000E+00 -0.36622863484E+03  0.36622863484E+03  0.00000000000E+00 0. -1.
          6    1    1    2  501    0 -0.70188562409E+02 -0.94104607085E+01 -0.53577120881E+02  0.19445950464E+03  0.17300000000E+03 0. -1.
         -6    1    1    2    0  503  0.70188562409E+02  0.94104607085E+01 -0.20614250428E+03  0.27827813988E+03  0.17300000000E+03 0. -1.
<mgrwt>
<rscale>  2 0.18693312E+03</rscale>
<asrwt>0</asrwt>
<pdfrwt beam="1">  1       21 0.16386001E-01 0.18693312E+03</pdfrwt>
<pdfrwt beam="2">  1       21 0.56342868E-01 0.18693312E+03</pdfrwt>
<totfact> 0.99138316E+04</totfact>
</mgrwt>
</event>
<event>
 4    1  0.3902417E-001  0.2231141E+03  0.7546771E-02  0.1131582E+00
         21   -1    0    0  503  502  0.00000000000E+00  0.00000000000E+00  0.11076892882E+03  0.11076892882E+03  0.00000000000E+00 0.  1.
         21   -1    0    0  501  503 -0.00000000000E+00 -0.00000000000E+00 -0.62157953932E+03  0.62157953932E+03  0.00000000000E+00 0.  1.
          6    1    1    2  501    0 -0.88244927294E+02  0.10983511393E+03 -0.44812498545E+03  0.50059556733E+03  0.17300000000E+03 0.  1.
         -6    1    1    2    0  502  0.88244927294E+02 -0.10983511393E+03 -0.62685625044E+02  0.23175290081E+03  0.17300000000E+03 0.  1.
<mgrwt>
<rscale>  2 0.22311414E+03</rscale>
<asrwt>0</asrwt>
<pdfrwt beam="1">  1       21 0.17041373E-01 0.22311414E+03</pdfrwt>
<pdfrwt beam="2">  1       21 0.95627623E-01 0.22311414E+03</pdfrwt>
<totfact> 0.27852494E+04</totfact>
</mgrwt>
</event>
<event>
 4    1  0.3902417E-001  0.2328264E+03  0.7546771E-02  0.1124666E+00
         21   -1    0    0  503  502  0.00000000000E+00  0.00000000000E+00  0.23807676156E+03  0.23807676156E+03  0.00000000000E+00 0.  1.
         21   -1    0    0  501  503 -0.00000000000E+00 -0.00000000000E+00 -0.22776008021E+03  0.22776008021E+03  0.00000000000E+00 0. -1.
          6    1    1    2  501    0 -0.40258528473E+02 -0.15052703332E+03  0.11267895086E+01  0.23282913591E+03  0.17300000000E+03 0.  1.
         -6    1    1    2    0  502  0.40258528473E+02  0.15052703332E+03  0.91898918432E+01  0.23300770585E+03  0.17300000000E+03 0. -1.
<mgrwt>
<rscale>  2 0.23282641E+03</rscale>
<asrwt>0</asrwt>
<pdfrwt beam="1">  1       21 0.36627194E-01 0.23282641E+03</pdfrwt>
<pdfrwt beam="2">  1       21 0.35040012E-01 0.23282641E+03</pdfrwt>
<totfact> 0.55435517E+04</totfact>
</mgrwt>
</event>
<event>
 4    1  0.3902417E-001  0.1889422E+03  0.7546771E-02  0.1159419E+00
         21   -1    0    0  501  502  0.00000000000E+00  0.00000000000E+00  0.17975198568E+03  0.17975198568E+03  0.00000000000E+00 0.  1.
         21   -1    0    0  502  503 -0.00000000000E+00 -0.00000000000E+00 -0.51365582277E+03  0.51365582277E+03  0.00000000000E+00 0.  1.
          6    1    1    2  501    0 -0.68310277141E+02 -0.33224242183E+02  0.10457622258E+03  0.21595214878E+03  0.17300000000E+03 0.  1.
         -6    1    1    2    0  503  0.68310277141E+02  0.33224242183E+02 -0.43848005967E+03  0.47745565968E+03  0.17300000000E+03 0.  1.
<mgrwt>
<rscale>  2 0.18894217E+03</rscale>
<asrwt>0</asrwt>
<pdfrwt beam="1">  1       21 0.27654152E-01 0.18894217E+03</pdfrwt>
<pdfrwt beam="2">  1       21 0.79023972E-01 0.18894217E+03</pdfrwt>
<totfact> 0.17686894E+04</totfact>
</mgrwt>
</event>
<event>
 4    1  0.3902417E-001  0.1833695E+03  0.7546771E-02  0.1164581E+00
         21   -1    0    0  503  502  0.00000000000E+00  0.00000000000E+00  0.16099332556E+02  0.16099332556E+02  0.00000000000E+00 0.  1.
         21   -1    0    0  501  503 -0.00000000000E+00 -0.00000000000E+00 -0.21370463933E+04  0.21370463933E+04  0.00000000000E+00 0.  1.
          6    1    1    2  501    0 -0.12746574971E+02  0.59438193959E+02 -0.12226395009E+04  0.12363137641E+04  0.17300000000E+03 0.  1.
         -6    1    1    2    0  502  0.12746574971E+02 -0.59438193959E+02 -0.89830755990E+03  0.91683196184E+03  0.17300000000E+03 0.  1.
<mgrwt>
<rscale>  2 0.18336950E+03</rscale>
<asrwt>0</asrwt>
<pdfrwt beam="1">  1       21 0.24768195E-02 0.18336950E+03</pdfrwt>
<pdfrwt beam="2">  1       21 0.32877648E+00 0.18336950E+03</pdfrwt>
<totfact> 0.20406322E+04</totfact>
</mgrwt>
</event>
<event>
 4    1  0.3902417E-001  0.2032635E+03  0.7546771E-02  0.1147014E+00
         21   -1    0    0  501  502  0.00000000000E+00  0.00000000000E+00  0.30602221488E+03  0.30602221488E+03  0.00000000000E+00 0.  1.
         21   -1    0    0  502  503 -0.00000000000E+00 -0.00000000000E+00 -0.28758970591E+03  0.28758970591E+03  0.00000000000E+00 0. -1.
          6    1    1    2  501    0  0.50609707215E+02 -0.93945187250E+02  0.22540566772E+03  0.30351895445E+03  0.17300000000E+03 0.  1.
         -6    1    1    2    0  503 -0.50609707215E+02  0.93945187250E+02 -0.20697315876E+03  0.29009296634E+03  0.17300000000E+03 0. -1.
<mgrwt>
<rscale>  2 0.20326348E+03</rscale>
<asrwt>0</asrwt>
<pdfrwt beam="1">  1       21 0.47080341E-01 0.20326348E+03</pdfrwt>
<pdfrwt beam="2">  1       21 0.44244570E-01 0.20326348E+03</pdfrwt>
<totfact> 0.21048208E+04</totfact>
</mgrwt>
</event>
<event>
 4    1  0.3902417E-001  0.1944622E+03  0.7546771E-02  0.1154497E+00
         21   -1    0    0  503  502  0.00000000000E+00  0.00000000000E+00  0.65934679995E+02  0.65934679995E+02  0.00000000000E+00 0.  1.
         21   -1    0    0  501  503 -0.00000000000E+00 -0.00000000000E+00 -0.70190095179E+03  0.70190095179E+03  0.00000000000E+00 0.  1.
          6    1    1    2  501    0  0.84432505911E+02 -0.27526057744E+02 -0.48216808744E+03  0.51990537260E+03  0.17300000000E+03 0.  1.
         -6    1    1    2    0  502 -0.84432505911E+02  0.27526057744E+02 -0.15379818435E+03  0.24793025918E+03  0.17300000000E+03 0.  1.
<mgrwt>
<rscale>  2 0.19446216E+03</rscale>
<asrwt>0</asrwt>
<pdfrwt beam="1">  1       21 0.10143797E-01 0.19446216E+03</pdfrwt>
<pdfrwt beam="2">  1       21 0.10798477E+00 0.19446216E+03</pdfrwt>
<totfact> 0.53989218E+04</totfact>
</mgrwt>
</event>
<event>
 4    1  0.3902417E-001  0.2252825E+03  0.7546771E-02  0.1130005E+00
         21   -1    0    0  503  502  0.00000000000E+00  0.00000000000E+00  0.25878549301E+03  0.25878549301E+03  0.00000000000E+00 0. -1.
         21   -1    0    0  501  503 -0.00000000000E+00 -0.00000000000E+00 -0.19746161177E+03  0.19746161177E+03  0.00000000000E+00 0. -1.
          6    1    1    2  501    0 -0.45032727472E+02 -0.13709580371E+03  0.11836502857E+02  0.22559323735E+03  0.17300000000E+03 0. -1.
         -6    1    1    2    0  502  0.45032727472E+02  0.13709580371E+03  0.49487378385E+02  0.23065386742E+03  0.17300000000E+03 0. -1.
<mgrwt>
<rscale>  2 0.22528250E+03</rscale>
<asrwt>0</asrwt>
<pdfrwt beam="1">  1       21 0.39813153E-01 0.22528250E+03</pdfrwt>
<pdfrwt beam="2">  1       21 0.30378709E-01 0.22528250E+03</pdfrwt>
<totfact> 0.62325787E+04</totfact>
</mgrwt>
</event>
<event>
 4    1  0.3902417E-001  0.1750980E+03  0.7546771E-02  0.1172633E+00
         21   -1    0    0  501  502  0.00000000000E+00  0.00000000000E+00  0.18733030101E+04  0.18733030101E+04  0.00000000000E+00 0.  1.
         21   -1    0    0  502  503 -0.00000000000E+00 -0.00000000000E+00 -0.20486707698E+02  0.20486707698E+02  0.00000000000E+00 0.  1.
          6    1    1    2  501    0 -0.91554107553E+01 -0.25425957455E+02  0.50176081636E+03  0.53143505501E+03  0.17300000000E+03 0.  1.
         -6    1    1    2    0  503  0.91554107553E+01  0.25425957455E+02  0.13510554860E+04  0.13623546628E+04  0.17300000000E+03 0.  1.
<mgrwt>
<rscale>  2 0.17509798E+03</rscale>
<asrwt>0</asrwt>
<pdfrwt beam="1">  1       21 0.28820033E+00 0.17509798E+03</pdfrwt>
<pdfrwt beam="2">  1       21 0.31518027E-02 0.17509798E+03</pdfrwt>
<totfact> 0.23678743E+04</totfact>
</mgrwt>
</event>
<event>
 4    1  0.3902417E-001  0.2276888E+03  0.7546771E-02  0.1128277E+00
         21   -1    0    0  501  502  0.00000000000E+00  0.00000000000E+00  0.24021634872E+03  0.24021634872E+03  0.00000000000E+00 0. -1.
         21   -1    0    0  502  503 -0.00000000000E+00 -0.00000000000E+00 -0.23049460326E+03  0.23049460326E+03  0.00000000000E+00 0.  1.
          6    1    1    2  501    0  0.31918052183E+02  0.14454905163E+03 -0.54535141160E+02  0.23412875091E+03  0.17300000000E+03 0.  1.
         -6    1    1    2    0  503 -0.31918052183E+02 -0.14454905163E+03  0.64256886623E+02  0.23658220107E+03  0.17300000000E+03 0. -1.
<mgrwt>
<rscale>  2 0.22768880E+03</rscale>
<asrwt>0</asrwt>
<pdfrwt beam="1">  1       21 0.36956361E-01 0.22768880E+03</pdfrwt>
<pdfrwt beam="2">  1       21 0.35460708E-01 0.22768880E+03</pdfrwt>
<totfact> 0.53282859E+04</totfact>
</mgrwt>
</event>
<event>
 4    1  0.3902417E-001  0.1942617E+03  0.7546771E-02  0.1154673E+00
         21   -1    0    0  501  502  0.00000000000E+00  0.00000000000E+00  0.94209674936E+03  0.94209674936E+03  0.00000000000E+00 0. -1.
         21   -1    0    0  502  503 -0.00000000000E+00 -0.00000000000E+00 -0.58480296076E+02  0.58480296076E+02  0.00000000000E+00 0.  1.
          6    1    1    2  501    0  0.47787561254E+02 -0.74329953895E+02  0.72260953648E+03  0.74826608587E+03  0.17300000000E+03 0. -1.
         -6    1    1    2    0  503 -0.47787561254E+02  0.74329953895E+02  0.16100691680E+03  0.25231095956E+03  0.17300000000E+03 0.  1.
<mgrwt>
<rscale>  2 0.19426166E+03</rscale>
<asrwt>0</asrwt>
<pdfrwt beam="1">  1       21 0.14493795E+00 0.19426166E+03</pdfrwt>
<pdfrwt beam="2">  1       21 0.89969693E-02 0.19426166E+03</pdfrwt>
<totfact> 0.31933825E+04</totfact>
</mgrwt>
</event>
<event>
 4    1  0.3902417E-001  0.1752961E+03  0.7546771E-02  0.1172435E+00
         21   -1    0    0  503  502  0.00000000000E+00  0.00000000000E+00  0.64622269867E+03  0.64622269867E+03  0.00000000000E+00 0. -1.
         21   -1    0    0  501  503 -0.00000000000E+00 -0.00000000000E+00 -0.88469236489E+02  0.88469236489E+02  0.00000000000E+00 0. -1.
          6    1    1    2  501    0  0.24660196051E+02 -0.13842011884E+02  0.29051658297E+02  0.17768715601E+03  0.17300000000E+03 0. -1.
         -6    1    1    2    0  502 -0.24660196051E+02  0.13842011884E+02  0.52870180388E+03  0.55700477915E+03  0.17300000000E+03 0. -1.
<mgrwt>
<rscale>  2 0.17529611E+03</rscale>
<asrwt>0</asrwt>
<pdfrwt beam="1">  1       21 0.99418874E-01 0.17529611E+03</pdfrwt>
<pdfrwt beam="2">  1       21 0.13610652E-01 0.17529611E+03</pdfrwt>
<totfact> 0.39311665E+04</totfact>
</mgrwt>
</event>
<event>
 4    1  0.3902417E-001  0.2001670E+03  0.7546771E-02  0.1149598E+00
         21   -1    0    0  501  502  0.00000000000E+00  0.00000000000E+00  0.28143199522E+02  0.28143199522E+02  0.00000000000E+00 0. -1.
         21   -1    0    0  502  503 -0.00000000000E+00 -0.00000000000E+00 -0.14261104723E+04  0.14261104723E+04  0.00000000000E+00 0. -1.
          6    1    1    2  501    0 -0.10012299708E+03  0.10639378578E+02 -0.66894403433E+03  0.69824990654E+03  0.17300000000E+03 0. -1.
         -6    1    1    2    0  503  0.10012299708E+03 -0.10639378578E+02 -0.72902323845E+03  0.75600376528E+03  0.17300000000E+03 0. -1.
<mgrwt>
<rscale>  2 0.20016696E+03</rscale>
<asrwt>0</asrwt>
<pdfrwt beam="1">  1       21 0.43297236E-02 0.20016696E+03</pdfrwt>
<pdfrwt beam="2">  1       21 0.21940158E+00 0.20016696E+03</pdfrwt>
<totfact> 0.34609292E+04</totfact>
</mgrwt>
</event>
<event>
 4    1  0.3902417E-001  0.2122013E+03  0.7546771E-02  0.1139835E+00
         21   -1    0    0  501  502  0.00000000000E+00  0.00000000000E+00  0.25118975639E+03  0.25118975639E+03  0.00000000000E+00 0. -1.
         21   -1    0    0  502  503 -0.00000000000E+00 -0.00000000000E+00 -0.19175999067E+03  0.19175999067E+03  0.00000000000E+00 0. -1.
          6    1    1    2  501    0  0.11170327665E+03  0.51213101316E+02  0.86250518646E+02  0.22906015744E+03  0.17300000000E+03 0. -1.
         -6    1    1    2    0  503 -0.11170327665E+03 -0.51213101316E+02 -0.26820752922E+02  0.21388958962E+03  0.17300000000E+03 0. -1.
<mgrwt>
<rscale>  2 0.21220133E+03</rscale>
<asrwt>0</asrwt>
<pdfrwt beam="1">  1       21 0.38644578E-01 0.21220133E+03</pdfrwt>
<pdfrwt beam="2">  1       21 0.29501537E-01 0.21220133E+03</pdfrwt>
<totfact> 0.70478938E+04</totfact>
</mgrwt>
</event>
<event>
 4    1  0.3902417E-001  0.2691050E+03  0.7546771E-02  0.1101793E+00
         21   -1    0    0  503  502  0.00000000000E+00  0.00000000000E+00  0.37979079370E+03  0.37979079370E+03  0.00000000000E+00 0. -1.
         21   -1    0    0  501  503 -0.00000000000E+00 -0.00000000000E+00 -0.38057172996E+03  0.38057172996E+03  0.00000000000E+00 0.  1.
          6    1    1    2  501    0 -0.18806536420E+03  0.84379748067E+02 -0.26894249728E+03  0.38045708029E+03  0.17300000000E+03 0.  1.
         -6    1    1    2    0  502  0.18806536420E+03 -0.84379748067E+02  0.26816156102E+03  0.37990544337E+03  0.17300000000E+03 0. -1.
<mgrwt>
<rscale>  2 0.26910504E+03</rscale>
<asrwt>0</asrwt>
<pdfrwt beam="1">  1       21 0.58429353E-01 0.26910504E+03</pdfrwt>
<pdfrwt beam="2">  1       21 0.58549497E-01 0.26910504E+03</pdfrwt>
<totfact> 0.71350355E+03</totfact>
</mgrwt>
</event>
<event>
 4    1  0.3902417E-001  0.1994601E+03  0.7546771E-02  0.1150195E+00
         21   -1    0    0  503  502  0.00000000000E+00  0.00000000000E+00  0.72650510514E+03  0.72650510514E+03  0.00000000000E+00 0.  1.
         21   -1    0    0  501  503 -0.00000000000E+00 -0.00000000000E+00 -0.56352195399E+02  0.56352195399E+02  0.00000000000E+00 0.  1.
          6    1    1    2  501    0  0.62398121675E+02  0.77212682052E+02  0.26930680236E+03  0.33512755431E+03  0.17300000000E+03 0.  1.
         -6    1    1    2    0  502 -0.62398121675E+02 -0.77212682052E+02  0.40084610737E+03  0.44772974623E+03  0.17300000000E+03 0.  1.
<mgrwt>
<rscale>  2 0.19946008E+03</rscale>
<asrwt>0</asrwt>
<pdfrwt beam="1">  1       21 0.11177001E+00 0.19946008E+03</pdfrwt>
<pdfrwt beam="2">  1       21 0.86695690E-02 0.19946008E+03</pdfrwt>
<totfact> 0.65312910E+04</totfact>
</mgrwt>
</event>
<event>
 4    1  0.3902417E-001  0.1861250E+03  0.7546771E-02  0.1162003E+00
         21   -1    0    0  503  502  0.00000000000E+00  0.00000000000E+00  0.24725503035E+03  0.24725503035E+03  0.00000000000E+00 0. -1.
         21   -1    0    0  501  503 -0.00000000000E+00 -0.00000000000E+00 -0.16932666762E+03  0.16932666762E+03  0.00000000000E+00 0. -1.
          6    1    1    2  501    0  0.23505382756E+02  0.64505987285E+02 -0.47559338380E+02  0.19210522138E+03  0.17300000000E+03 0. -1.
         -6    1    1    2    0  502 -0.23505382756E+02 -0.64505987285E+02  0.12548770110E+03  0.22447647659E+03  0.17300000000E+03 0. -1.
<mgrwt>
<rscale>  2 0.18612503E+03</rscale>
<asrwt>0</asrwt>
<pdfrwt beam="1">  1       21 0.38039236E-01 0.18612503E+03</pdfrwt>
<pdfrwt beam="2">  1       21 0.26050256E-01 0.18612503E+03</pdfrwt>
<totfact> 0.93540455E+04</totfact>
</mgrwt>
</event>
<event>
 4    1  0.3902417E-001  0.1807351E+03  0.7546771E-02  0.1167094E+00
         21   -1    0    0  503  502  0.00000000000E+00  0.00000000000E+00  0.85953752720E+02  0.85953752720E+02  0.00000000000E+00 0.  1.
         21   -1    0    0  501  503 -0.00000000000E+00 -0.00000000000E+00 -0.38813431083E+03  0.38813431083E+03  0.00000000000E+00 0.  1.
          6    1    1    2  501    0  0.12741436103E+02 -0.50732875677E+02 -0.18533903918E+03  0.25887396222E+03  0.17300000000E+03 0.  1.
         -6    1    1    2    0  502 -0.12741436103E+02  0.50732875677E+02 -0.11684151893E+03  0.21521410134E+03  0.17300000000E+03 0.  1.
<mgrwt>
<rscale>  2 0.18073508E+03</rscale>
<asrwt>0</asrwt>
<pdfrwt beam="1">  1       21 0.13223654E-01 0.18073508E+03</pdfrwt>
<pdfrwt beam="2">  1       21 0.59712971E-01 0.18073508E+03</pdfrwt>
<totfact> 0.12958508E+05</totfact>
</mgrwt>
</event>
<event>
 4    1  0.3902417E-001  0.1907675E+03  0.7546771E-02  0.1157771E+00
         21   -1    0    0  501  502  0.00000000000E+00  0.00000000000E+00  0.37637301775E+02  0.37637301775E+02  0.00000000000E+00 0. -1.
         21   -1    0    0  502  503 -0.00000000000E+00 -0.00000000000E+00 -0.10316572843E+04  0.10316572843E+04  0.00000000000E+00 0. -1.
          6    1    1    2  501    0 -0.73103450402E+02 -0.33453385653E+02 -0.63094013784E+03  0.65914922515E+03  0.17300000000E+03 0. -1.
         -6    1    1    2    0  503  0.73103450402E+02  0.33453385653E+02 -0.36307984466E+03  0.41014536090E+03  0.17300000000E+03 0. -1.
<mgrwt>
<rscale>  2 0.19076751E+03</rscale>
<asrwt>0</asrwt>
<pdfrwt beam="1">  1       21 0.57903551E-02 0.19076751E+03</pdfrwt>
<pdfrwt beam="2">  1       21 0.15871648E+00 0.19076751E+03</pdfrwt>
<totfact> 0.53955738E+04</totfact>
</mgrwt>
</event>
<event>
 4    1  0.3902417E-001  0.1760084E+03  0.7546771E-02  0.1171723E+00
         21   -1    0    0  501  502  0.00000000000E+00  0.00000000000E+00  0.31119413224E+03  0.31119413224E+03  0.00000000000E+00 0. -1.
         21   -1    0    0  502  503 -0.00000000000E+00 -0.00000000000E+00 -0.10164112376E+03  0.10164112376E+03  0.00000000000E+00 0. -1.
          6    1    1    2  501    0  0.26548513634E+02 -0.18577384540E+02  0.13439386711E+03  0.22145124590E+03  0.17300000000E+03 0. -1.
         -6    1    1    2    0  503 -0.26548513634E+02  0.18577384540E+02  0.75159141364E+02  0.19138401010E+03  0.17300000000E+03 0. -1.
<mgrwt>
<rscale>  2 0.17600836E+03</rscale>
<asrwt>0</asrwt>
<pdfrwt beam="1">  1       21 0.47876020E-01 0.17600836E+03</pdfrwt>
<pdfrwt beam="2">  1       21 0.15637096E-01 0.17600836E+03</pdfrwt>
<totfact> 0.15246020E+05</totfact>
</mgrwt>
</event>
<event>
 4    1  0.3902417E-001  0.2848318E+03  0.7546771E-02  0.1093079E+00
         21   -1    0    0  501  502  0.00000000000E+00  0.00000000000E+00  0.25102201913E+03  0.25102201913E+03  0.00000000000E+00 0.  1.
         21   -1    0    0  502  503 -0.00000000000E+00 -0.00000000000E+00 -0.41444944314E+03  0.41444944314E+03  0.00000000000E+00 0. -1.
          6    1    1    2  501    0 -0.10469207765E+03  0.20059838387E+03  0.74417560592E+02  0.29439279213E+03  0.17300000000E+03 0.  1.
         -6    1    1    2    0  503  0.10469207765E+03 -0.20059838387E+03 -0.23784498460E+03  0.37107867014E+03  0.17300000000E+03 0. -1.
<mgrwt>
<rscale>  2 0.28483178E+03</rscale>
<asrwt>0</asrwt>
<pdfrwt beam="1">  1       21 0.38618772E-01 0.28483178E+03</pdfrwt>
<pdfrwt beam="2">  1       21 0.63761453E-01 0.28483178E+03</pdfrwt>
<totfact> 0.13972164E+04</totfact>
</mgrwt>
</event>
<event>
 4    1  0.3902417E-001  0.3132692E+03  0.7546771E-02  0.1078789E+00
         21   -1    0    0  501  502  0.00000000000E+00  0.00000000000E+00  0.18982558813E+04  0.18982558813E+04  0.00000000000E+00 0.  1.
         21   -1    0    0  502  503 -0.00000000000E+00 -0.00000000000E+00 -0.51722093521E+02  0.51722093521E+02  0.00000000000E+00 0. -1.
          6    1    1    2  501    0 -0.18035682596E+03  0.18889159887E+03  0.90259230073E+03  0.95541115868E+03  0.17300000000E+03 0. -1.
         -6    1    1    2    0  503  0.18035682596E+03 -0.18889159887E+03  0.94394148703E+03  0.99456681612E+03  0.17300000000E+03 0. -1.
<mgrwt>
<rscale>  2 0.31326925E+03</rscale>
<asrwt>0</asrwt>
<pdfrwt beam="1">  1       21 0.29203931E+00 0.31326925E+03</pdfrwt>
<pdfrwt beam="2">  1       21 0.79572466E-02 0.31326925E+03</pdfrwt>
<totfact> 0.41224298E+03</totfact>
</mgrwt>
</event>
<event>
 4    1  0.3902417E-001  0.1852890E+03  0.7546771E-02  0.1162780E+00
         21   -1    0    0  503  502  0.00000000000E+00  0.00000000000E+00  0.60095364322E+03  0.60095364322E+03  0.00000000000E+00 0. -1.
         21   -1    0    0  501  503 -0.00000000000E+00 -0.00000000000E+00 -0.59771812876E+02  0.59771812876E+02  0.00000000000E+00 0. -1.
          6    1    1    2  501    0  0.58915621743E+02 -0.30528240534E+02  0.20112744956E+03  0.27346713682E+03  0.17300000000E+03 0. -1.
         -6    1    1    2    0  502 -0.58915621743E+02  0.30528240534E+02  0.34005438079E+03  0.38725831928E+03  0.17300000000E+03 0. -1.
<mgrwt>
<rscale>  2 0.18528903E+03</rscale>
<asrwt>0</asrwt>
<pdfrwt beam="1">  1       21 0.92454402E-01 0.18528903E+03</pdfrwt>
<pdfrwt beam="2">  1       21 0.91956640E-02 0.18528903E+03</pdfrwt>
<totfact> 0.93119849E+04</totfact>
</mgrwt>
</event>
<event>
 4    1  0.3902417E-001  0.2809512E+03  0.7546771E-02  0.1095171E+00
         21   -1    0    0  501  502  0.00000000000E+00  0.00000000000E+00  0.33187417099E+03  0.33187417099E+03  0.00000000000E+00 0.  1.
         21   -1    0    0  502  503 -0.00000000000E+00 -0.00000000000E+00 -0.23814921877E+03  0.23814921877E+03  0.00000000000E+00 0.  1.
          6    1    1    2  501    0  0.21566978033E+03 -0.49910877862E+02  0.57102571140E+02  0.28669540196E+03  0.17300000000E+03 0.  1.
         -6    1    1    2    0  503 -0.21566978033E+03  0.49910877862E+02  0.36622381084E+02  0.28332798780E+03  0.17300000000E+03 0.  1.
<mgrwt>
<rscale>  2 0.28095115E+03</rscale>
<asrwt>0</asrwt>
<pdfrwt beam="1">  1       21 0.51057565E-01 0.28095115E+03</pdfrwt>
<pdfrwt beam="2">  1       21 0.36638341E-01 0.28095115E+03</pdfrwt>
<totfact> 0.25099126E+04</totfact>
</mgrwt>
</event>
<event>
 4    1  0.3902417E-001  0.1942933E+03  0.7546771E-02  0.1154645E+00
         21   -1    0    0  501  502  0.00000000000E+00  0.00000000000E+00  0.13672522583E+04  0.13672522583E+04  0.00000000000E+00 0.  1.
         21   -1    0    0  502  503 -0.00000000000E+00 -0.00000000000E+00 -0.34300529150E+02  0.34300529150E+02  0.00000000000E+00 0.  1.
          6    1    1    2  501    0  0.53722558467E+02 -0.70247813369E+02  0.97597432080E+03  0.99512599375E+03  0.17300000000E+03 0.  1.
         -6    1    1    2    0  503 -0.53722558467E+02  0.70247813369E+02  0.35697740839E+03  0.40642679375E+03  0.17300000000E+03 0.  1.
<mgrwt>
<rscale>  2 0.19429325E+03</rscale>
<asrwt>0</asrwt>
<pdfrwt beam="1">  1       21 0.21034646E+00 0.19429325E+03</pdfrwt>
<pdfrwt beam="2">  1       21 0.52770055E-02 0.19429325E+03</pdfrwt>
<totfact> 0.28307298E+04</totfact>
</mgrwt>
</event>
<event>
 4    1  0.3902417E-001  0.2125495E+03  0.7546771E-02  0.1139563E+00
         21   -1    0    0  503  502  0.00000000000E+00  0.00000000000E+00  0.27675065698E+03  0.27675065698E+03  0.00000000000E+00 0.  1.
         21   -1    0    0  501  503 -0.00000000000E+00 -0.00000000000E+00 -0.16843774161E+03  0.16843774161E+03  0.00000000000E+00 0.  1.
          6    1    1    2  501    0  0.10289076767E+03 -0.68277107740E+02  0.93251938000E+02  0.23210600478E+03  0.17300000000E+03 0. -1.
         -6    1    1    2    0  502 -0.10289076767E+03  0.68277107740E+02  0.15060977364E+02  0.21308239381E+03  0.17300000000E+03 0. -1.
<mgrwt>
<rscale>  2 0.21254946E+03</rscale>
<asrwt>0</asrwt>
<pdfrwt beam="1">  1       21 0.42577024E-01 0.21254946E+03</pdfrwt>
<pdfrwt beam="2">  1       21 0.25913499E-01 0.21254946E+03</pdfrwt>
<totfact> 0.74403319E+04</totfact>
</mgrwt>
</event>
<event>
 4    1  0.3902417E-001  0.1749931E+03  0.7546771E-02  0.1172739E+00
         21   -1    0    0  503  502  0.00000000000E+00  0.00000000000E+00  0.23576853926E+02  0.23576853926E+02  0.00000000000E+00 0. -1.
         21   -1    0    0  501  503 -0.00000000000E+00 -0.00000000000E+00 -0.14537937658E+04  0.14537937658E+04  0.00000000000E+00 0. -1.
          6    1    1    2  501    0 -0.94065708122E+01 -0.24599080767E+02 -0.47394755028E+03  0.50522161351E+03  0.17300000000E+03 0.  1.
         -6    1    1    2    0  502  0.94065708122E+01  0.24599080767E+02 -0.95626936161E+03  0.97214900623E+03  0.17300000000E+03 0.  1.
<mgrwt>
<rscale>  2 0.17499314E+03</rscale>
<asrwt>0</asrwt>
<pdfrwt beam="1">  1       21 0.36272076E-02 0.17499314E+03</pdfrwt>
<pdfrwt beam="2">  1       21 0.22366062E+00 0.17499314E+03</pdfrwt>
<totfact> 0.44673347E+04</totfact>
</mgrwt>
</event>
<event>
 4    1  0.3902417E-001  0.2010923E+03  0.7546771E-02  0.1148821E+00
         21   -1    0    0  503  502  0.00000000000E+00  0.00000000000E+00  0.83008281680E+03  0.83008281680E+03  0.00000000000E+00 0. -1.
         21   -1    0    0  501  503 -0.00000000000E+00 -0.00000000000E+00 -0.68553821460E+02  0.68553821460E+02  0.00000000000E+00 0. -1.
          6    1    1    2  501    0 -0.10182869972E+03  0.11833702093E+02  0.13905827202E+03  0.24448992538E+03  0.17300000000E+03 0. -1.
         -6    1    1    2    0  502  0.10182869972E+03 -0.11833702093E+02  0.62247072332E+03  0.65414671288E+03  0.17300000000E+03 0. -1.
<mgrwt>
<rscale>  2 0.20109232E+03</rscale>
<asrwt>0</asrwt>
<pdfrwt beam="1">  1       21 0.12770504E+00 0.20109232E+03</pdfrwt>
<pdfrwt beam="2">  1       21 0.10546742E-01 0.20109232E+03</pdfrwt>
<totfact> 0.33220880E+04</totfact>
</mgrwt>
</event>
<event>
 4    1  0.3902417E-001  0.3277963E+03  0.7546771E-02  0.1072116E+00
         21   -1    0    0  501  502  0.00000000000E+00  0.00000000000E+00  0.10077520497E+04  0.10077520497E+04  0.00000000000E+00 0.  1.
         21   -1    0    0  502  503 -0.00000000000E+00 -0.00000000000E+00 -0.12055179202E+03  0.12055179202E+03  0.00000000000E+00 0.  1.
          6    1    1    2  501    0 -0.27674863369E+03 -0.30522199423E+02  0.63535773293E+03  0.71493346522E+03  0.17300000000E+03 0.  1.
         -6    1    1    2    0  503  0.27674863369E+03  0.30522199423E+02  0.25184252478E+03  0.41337037653E+03  0.17300000000E+03 0.  1.
<mgrwt>
<rscale>  2 0.32779629E+03</rscale>
<asrwt>0</asrwt>
<pdfrwt beam="1">  1       21 0.15503877E+00 0.32779629E+03</pdfrwt>
<pdfrwt beam="2">  1       21 0.18546430E-01 0.32779629E+03</pdfrwt>
<totfact> 0.66838267E+03</totfact>
</mgrwt>
</event>
<event>
 4    1  0.3902417E-001  0.1777235E+03  0.7546771E-02  0.1170025E+00
         21   -1    0    0  501  502  0.00000000000E+00  0.00000000000E+00  0.34072799322E+03  0.34072799322E+03  0.00000000000E+00 0. -1.
         21   -1    0    0  502  503 -0.00000000000E+00 -0.00000000000E+00 -0.92886212699E+02  0.92886212699E+02  0.00000000000E+00 0. -1.
          6    1    1    2  501    0  0.33990214884E+01  0.40559530796E+02  0.13361726581E+03  0.22234928065E+03  0.17300000000E+03 0. -1.
         -6    1    1    2    0  503 -0.33990214884E+01 -0.40559530796E+02  0.11422451471E+03  0.21126492526E+03  0.17300000000E+03 0. -1.
<mgrwt>
<rscale>  2 0.17772346E+03</rscale>
<asrwt>0</asrwt>
<pdfrwt beam="1">  1       21 0.52419691E-01 0.17772346E+03</pdfrwt>
<pdfrwt beam="2">  1       21 0.14290187E-01 0.17772346E+03</pdfrwt>
<totfact> 0.14860057E+05</totfact>
</mgrwt>
</event>
<event>
 4    1  0.3902417E-001  0.1852958E+03  0.7546771E-02  0.1162774E+00
         21   -1    0    0  501  502  0.00000000000E+00  0.00000000000E+00  0.12473445180E+04  0.12473445180E+04  0.00000000000E+00 0. -1.
         21   -1    0    0  502  503 -0.00000000000E+00 -0.00000000000E+00 -0.28030356618E+02  0.28030356618E+02  0.00000000000E+00 0. -1.
          6    1    1    2  501    0  0.50874758367E+02 -0.42629689218E+02  0.69518715176E+03  0.71945792609E+03  0.17300000000E+03 0.  1.
         -6    1    1    2    0  503 -0.50874758367E+02  0.42629689218E+02  0.52412700958E+03  0.55591694848E+03  0.17300000000E+03 0.  1.
<mgrwt>
<rscale>  2 0.18529579E+03</rscale>
<asrwt>0</asrwt>
<pdfrwt beam="1">  1       21 0.19189911E+00 0.18529579E+03</pdfrwt>
<pdfrwt beam="2">  1       21 0.43123635E-02 0.18529579E+03</pdfrwt>
<totfact> 0.52584070E+04</totfact>
</mgrwt>
</event>
<event>
 4    1  0.3902417E-001  0.1784141E+03  0.7546771E-02  0.1169347E+00
         21   -1    0    0  501  502  0.00000000000E+00  0.00000000000E+00  0.80244431548E+03  0.80244431548E+03  0.00000000000E+00 0. -1.
         21   -1    0    0  502  503 -0.00000000000E+00 -0.00000000000E+00 -0.39740636280E+02  0.39740636280E+02  0.00000000000E+00 0.  1.
          6    1    1    2  501    0  0.37838560683E+02 -0.21698863676E+02  0.36338569380E+03  0.40482188653E+03  0.17300000000E+03 0.  1.
         -6    1    1    2    0  503 -0.37838560683E+02  0.21698863676E+02  0.39931798540E+03  0.43736306523E+03  0.17300000000E+03 0.  1.
<mgrwt>
<rscale>  2 0.17841412E+03</rscale>
<asrwt>0</asrwt>
<pdfrwt beam="1">  1       21 0.12345296E+00 0.17841412E+03</pdfrwt>
<pdfrwt beam="2">  1       21 0.61139446E-02 0.17841412E+03</pdfrwt>
<totfact> 0.94554726E+04</totfact>
</mgrwt>
</event>
<event>
 4    1  0.3902417E-001  0.2391450E+03  0.7546771E-02  0.1120364E+00
         21   -1    0    0  503  502  0.00000000000E+00  0.00000000000E+00  0.10947852708E+03  0.10947852708E+03  0.00000000000E+00 0.  1.
         21   -1    0    0  501  503 -0.00000000000E+00 -0.00000000000E+00 -0.54015160150E+03  0.54015160150E+03  0.00000000000E+00 0. -1.
          6    1    1    2  501    0 -0.15230219438E+03  0.63760234896E+02 -0.27423954292E+03  0.36386488271E+03  0.17300000000E+03 0. -1.
         -6    1    1    2    0  502  0.15230219438E+03 -0.63760234896E+02 -0.15643353150E+03  0.28576524587E+03  0.17300000000E+03 0.  1.
<mgrwt>
<rscale>  2 0.23914499E+03</rscale>
<asrwt>0</asrwt>
<pdfrwt beam="1">  1       21 0.16842851E-01 0.23914499E+03</pdfrwt>
<pdfrwt beam="2">  1       21 0.83100244E-01 0.23914499E+03</pdfrwt>
<totfact> 0.39129756E+04</totfact>
</mgrwt>
</event>
<event>
 4    1  0.3902417E-001  0.2013498E+03  0.7546771E-02  0.1148605E+00
         21   -1    0    0  501  502  0.00000000000E+00  0.00000000000E+00  0.57202162602E+02  0.57202162602E+02  0.00000000000E+00 0.  1.
         21   -1    0    0  502  503 -0.00000000000E+00 -0.00000000000E+00 -0.71037255296E+03  0.71037255296E+03  0.00000000000E+00 0.  1.
          6    1    1    2  501    0  0.67991788734E+02  0.77394114011E+02 -0.34495688033E+03  0.39942080755E+03  0.17300000000E+03 0.  1.
         -6    1    1    2    0  503 -0.67991788734E+02 -0.77394114011E+02 -0.30821351003E+03  0.36815390801E+03  0.17300000000E+03 0.  1.
<mgrwt>
<rscale>  2 0.20134978E+03</rscale>
<asrwt>0</asrwt>
<pdfrwt beam="1">  1       21 0.88003331E-02 0.20134978E+03</pdfrwt>
<pdfrwt beam="2">  1       21 0.10928808E+00 0.20134978E+03</pdfrwt>
<totfact> 0.67120490E+04</totfact>
</mgrwt>
</event>
<event>
 4    1  0.3902417E-001  0.1785798E+03  0.7546771E-02  0.1169185E+00
         21   -1    0    0  501  502  0.00000000000E+00  0.00000000000E+00  0.42023710324E+03  0.42023710324E+03  0.00000000000E+00 0.  1.
         21   -1    0    0  502  503 -0.00000000000E+00 -0.00000000000E+00 -0.94986212517E+02  0.94986212517E+02  0.00000000000E+00 0.  1.
          6    1    1    2  501    0 -0.44266584775E+02  0.14926336041E+01  0.27814004005E+03  0.33053387173E+03  0.17300000000E+03 0.  1.
         -6    1    1    2    0  503  0.44266584775E+02 -0.14926336041E+01  0.47110850671E+02  0.18468944402E+03  0.17300000000E+03 0.  1.
<mgrwt>
<rscale>  2 0.17857984E+03</rscale>
<asrwt>0</asrwt>
<pdfrwt beam="1">  1       21 0.64651861E-01 0.17857984E+03</pdfrwt>
<pdfrwt beam="2">  1       21 0.14613264E-01 0.17857984E+03</pdfrwt>
<totfact> 0.91221298E+04</totfact>
</mgrwt>
</event>
<event>
 4    1  0.3902417E-001  0.1998103E+03  0.7546771E-02  0.1149899E+00
         21   -1    0    0  501  502  0.00000000000E+00  0.00000000000E+00  0.80494497314E+02  0.80494497314E+02  0.00000000000E+00 0.  1.
         21   -1    0    0  502  503 -0.00000000000E+00 -0.00000000000E+00 -0.50214528702E+03  0.50214528702E+03  0.00000000000E+00 0. -1.
          6    1    1    2  501    0 -0.74156256354E+02 -0.67052383518E+02 -0.17856214769E+03  0.26797129152E+03  0.17300000000E+03 0.  1.
         -6    1    1    2    0  503  0.74156256354E+02  0.67052383518E+02 -0.24308864202E+03  0.31466849281E+03  0.17300000000E+03 0. -1.
<mgrwt>
<rscale>  2 0.19981034E+03</rscale>
<asrwt>0</asrwt>
<pdfrwt beam="1">  1       21 0.12383769E-01 0.19981034E+03</pdfrwt>
<pdfrwt beam="2">  1       21 0.77253122E-01 0.19981034E+03</pdfrwt>
<totfact> 0.82271012E+04</totfact>
</mgrwt>
</event>
<event>
 4    1  0.3902417E-001  0.2333155E+03  0.7546771E-02  0.1124328E+00
         21   -1    0    0  503  502  0.00000000000E+00  0.00000000000E+00  0.31429181036E+03  0.31429181036E+03  0.00000000000E+00 0.  1.
         21   -1    0    0  501  503 -0.00000000000E+00 -0.00000000000E+00 -0.17551618913E+03  0.17551618913E+03  0.00000000000E+00 0.  1.
          6    1    1    2  501    0  0.11671373994E+03 -0.10433130926E+03  0.97506314571E+02  0.25287071907E+03  0.17300000000E+03 0.  1.
         -6    1    1    2    0  502 -0.11671373994E+03  0.10433130926E+03  0.41269306663E+02  0.23693728042E+03  0.17300000000E+03 0.  1.
<mgrwt>
<rscale>  2 0.23331549E+03</rscale>
<asrwt>0</asrwt>
<pdfrwt beam="1">  1       21 0.48352586E-01 0.23331549E+03</pdfrwt>
<pdfrwt beam="2">  1       21 0.27002491E-01 0.23331549E+03</pdfrwt>
<totfact> 0.52403908E+04</totfact>
</mgrwt>
</event>
<event>
 4    1  0.3902417E-001  0.1916976E+03  0.7546771E-02  0.1156939E+00
         21   -1    0    0  503  502  0.00000000000E+00  0.00000000000E+00  0.10089795031E+04  0.10089795031E+04  0.00000000000E+00 0.  1.
         21   -1    0    0  501  503 -0.00000000000E+00 -0.00000000000E+00 -0.49767568035E+02  0.49767568035E+02  0.00000000000E+00 0. -1.
          6    1    1    2  501    0 -0.82233742024E+02  0.75223794690E+01  0.20546438527E+03  0.28100460518E+03  0.17300000000E+03 0. -1.
         -6    1    1    2    0  502  0.82233742024E+02 -0.75223794690E+01  0.75374754980E+03  0.77774246595E+03  0.17300000000E+03 0.  1.
<mgrwt>
<rscale>  2 0.19169761E+03</rscale>
<asrwt>0</asrwt>
<pdfrwt beam="1">  1       21 0.15522760E+00 0.19169761E+03</pdfrwt>
<pdfrwt beam="2">  1       21 0.76565497E-02 0.19169761E+03</pdfrwt>
<totfact> 0.35379982E+04</totfact>
</mgrwt>
</event>
<event>
 4    1  0.3902417E-001  0.1779659E+03  0.7546771E-02  0.1169786E+00
         21   -1    0    0  503  502  0.00000000000E+00  0.00000000000E+00  0.40859577176E+02  0.40859577176E+02  0.00000000000E+00 0. -1.
         21   -1    0    0  501  503 -0.00000000000E+00 -0.00000000000E+00 -0.81620655782E+03  0.81620655782E+03  0.00000000000E+00 0.  1.
          6    1    1    2  501    0  0.19518558220E+02 -0.36903986668E+02 -0.48379715108E+03  0.51549157291E+03  0.17300000000E+03 0.  1.
         -6    1    1    2    0  502 -0.19518558220E+02  0.36903986668E+02 -0.29154982957E+03  0.34157456209E+03  0.17300000000E+03 0. -1.
<mgrwt>
<rscale>  2 0.17796595E+03</rscale>
<asrwt>0</asrwt>
<pdfrwt beam="1">  1       21 0.62860887E-02 0.17796595E+03</pdfrwt>
<pdfrwt beam="2">  1       21 0.12557024E+00 0.17796595E+03</pdfrwt>
<totfact> 0.86438972E+04</totfact>
</mgrwt>
</event>
<event>
 4    1  0.3902417E-001  0.2291912E+03  0.7546771E-02  0.1127210E+00
         21   -1    0    0  501  502  0.00000000000E+00  0.00000000000E+00  0.10386047756E+04  0.10386047756E+04  0.00000000000E+00 0. -1.
         21   -1    0    0  502  503 -0.00000000000E+00 -0.00000000000E+00 -0.53704520210E+02  0.53704520210E+02  0.00000000000E+00 0.  1.
          6    1    1    2  501    0 -0.33928112749E+02 -0.14645301583E+03  0.36063320410E+03  0.42729955603E+03  0.17300000000E+03 0.  1.
         -6    1    1    2    0  503  0.33928112749E+02  0.14645301583E+03  0.62426705129E+03  0.66500973979E+03  0.17300000000E+03 0.  1.
<mgrwt>
<rscale>  2 0.22919119E+03</rscale>
<asrwt>0</asrwt>
<pdfrwt beam="1">  1       21 0.15978534E+00 0.22919119E+03</pdfrwt>
<pdfrwt beam="2">  1       21 0.82622346E-02 0.22919119E+03</pdfrwt>
<totfact> 0.28016631E+04</totfact>
</mgrwt>
</event>
<event>
 4    1  0.3902417E-001  0.2414349E+03  0.7546771E-02  0.1118841E+00
         21   -1    0    0  503  502  0.00000000000E+00  0.00000000000E+00  0.86248320178E+02  0.86248320178E+02  0.00000000000E+00 0. -1.
         21   -1    0    0  501  503 -0.00000000000E+00 -0.00000000000E+00 -0.78377038590E+03  0.78377038590E+03  0.00000000000E+00 0. -1.
          6    1    1    2  501    0  0.29663317724E+02  0.16577658611E+03 -0.51018170089E+03  0.56442551045E+03  0.17300000000E+03 0. -1.
         -6    1    1    2    0  502 -0.29663317724E+02 -0.16577658611E+03 -0.18734036483E+03  0.30559319563E+03  0.17300000000E+03 0. -1.
<mgrwt>
<rscale>  2 0.24143485E+03</rscale>
<asrwt>0</asrwt>
<pdfrwt beam="1">  1       21 0.13268971E-01 0.24143485E+03</pdfrwt>
<pdfrwt beam="2">  1       21 0.12058007E+00 0.24143485E+03</pdfrwt>
<totfact> 0.24865301E+04</totfact>
</mgrwt>
</event>
<event>
 4    1  0.3902417E-001  0.2047394E+03  0.7546771E-02  0.1145801E+00
         21   -1    0    0  501  502  0.00000000000E+00  0.00000000000E+00  0.59897286338E+03  0.59897286338E+03  0.00000000000E+00 0. -1.
         21   -1    0    0  502  503 -0.00000000000E+00 -0.00000000000E+00 -0.76626949325E+02  0.76626949325E+02  0.00000000000E+00 0. -1.
          6    1    1    2  501    0 -0.95974132353E+02  0.52708547058E+02  0.36063678144E+03  0.41470123359E+03  0.17300000000E+03 0. -1.
         -6    1    1    2    0  503  0.95974132353E+02 -0.52708547058E+02  0.16170913262E+03  0.26089857912E+03  0.17300000000E+03 0. -1.
<mgrwt>
<rscale>  2 0.20473941E+03</rscale>
<asrwt>0</asrwt>
<pdfrwt beam="1">  1       21 0.92149668E-01 0.20473941E+03</pdfrwt>
<pdfrwt beam="2">  1       21 0.11788762E-01 0.20473941E+03</pdfrwt>
<totfact> 0.59895217E+04</totfact>
</mgrwt>
</event>
<event>
 4    1  0.3902417E-001  0.2532204E+03  0.7546771E-02  0.1111286E+00
         21   -1    0    0  501  502  0.00000000000E+00  0.00000000000E+00  0.23320195393E+03  0.23320195393E+03  0.00000000000E+00 0. -1.
         21   -1    0    0  502  503 -0.00000000000E+00 -0.00000000000E+00 -0.31358842532E+03  0.31358842532E+03  0.00000000000E+00 0.  1.
          6    1    1    2  501    0 -0.15774580379E+03 -0.96477036131E+02  0.55764519246E+02  0.25928794558E+03  0.17300000000E+03 0.  1.
         -6    1    1    2    0  503  0.15774580379E+03  0.96477036131E+02 -0.13615099063E+03  0.28750243367E+03  0.17300000000E+03 0. -1.
<mgrwt>
<rscale>  2 0.25322037E+03</rscale>
<asrwt>0</asrwt>
<pdfrwt beam="1">  1       21 0.35877224E-01 0.25322037E+03</pdfrwt>
<pdfrwt beam="2">  1       21 0.48244373E-01 0.25322037E+03</pdfrwt>
<totfact> 0.29836248E+04</totfact>
</mgrwt>
</event>
<event>
 4    1  0.3902417E-001  0.1779435E+03  0.7546771E-02  0.1169808E+00
         21   -1    0    0  501  502  0.00000000000E+00  0.00000000000E+00  0.10619517755E+03  0.10619517755E+03  0.00000000000E+00 0. -1.
         21   -1    0    0  502  503 -0.00000000000E+00 -0.00000000000E+00 -0.33632209117E+03  0.33632209117E+03  0.00000000000E+00 0. -1.
          6    1    1    2  501    0  0.10886845858E+02  0.40203948012E+02 -0.18958805970E+03  0.26001444812E+03  0.17300000000E+03 0. -1.
         -6    1    1    2    0  503 -0.10886845858E+02 -0.40203948012E+02 -0.40538853916E+02  0.18250282060E+03  0.17300000000E+03 0. -1.
<mgrwt>
<rscale>  2 0.17794348E+03</rscale>
<asrwt>0</asrwt>
<pdfrwt beam="1">  1       21 0.16337720E-01 0.17794348E+03</pdfrwt>
<pdfrwt beam="2">  1       21 0.51741860E-01 0.17794348E+03</pdfrwt>
<totfact> 0.11966719E+05</totfact>
</mgrwt>
</event>
<event>
 4    1  0.3902417E-001  0.1833498E+03  0.7546771E-02  0.1164600E+00
         21   -1    0    0  501  502  0.00000000000E+00  0.00000000000E+00  0.42672340430E+02  0.42672340430E+02  0.00000000000E+00 0. -1.
         21   -1    0    0  502  503 -0.00000000000E+00 -0.00000000000E+00 -0.81474527694E+03  0.81474527694E+03  0.00000000000E+00 0.  1.
          6    1    1    2  501    0  0.55994628563E+02  0.23510950528E+02 -0.46400384671E+03  0.49891555697E+03  0.17300000000E+03 0.  1.
         -6    1    1    2    0  503 -0.55994628563E+02 -0.23510950528E+02 -0.30806908979E+03  0.35850206040E+03  0.17300000000E+03 0. -1.
<mgrwt>
<rscale>  2 0.18334984E+03</rscale>
<asrwt>0</asrwt>
<pdfrwt beam="1">  1       21 0.65649757E-02 0.18334984E+03</pdfrwt>
<pdfrwt beam="2">  1       21 0.12534542E+00 0.18334984E+03</pdfrwt>
<totfact> 0.80389473E+04</totfact>
</mgrwt>
</event>
<event>
 4    1  0.3902417E-001  0.2565293E+03  0.7546771E-02  0.1109247E+00
         21   -1    0    0  503  502  0.00000000000E+00  0.00000000000E+00  0.24808804990E+03  0.24808804990E+03  0.00000000000E+00 0.  1.
         21   -1    0    0  501  503 -0.00000000000E+00 -0.00000000000E+00 -0.26733300718E+03  0.26733300718E+03  0.00000000000E+00 0.  1.
          6    1    1    2  501    0  0.14095721063E+03 -0.12652802900E+03 -0.32328553793E+02  0.25855833528E+03  0.17300000000E+03 0.  1.
         -6    1    1    2    0  502 -0.14095721063E+03  0.12652802900E+03  0.13083596518E+02  0.25686272180E+03  0.17300000000E+03 0.  1.
<mgrwt>
<rscale>  2 0.25652929E+03</rscale>
<asrwt>0</asrwt>
<pdfrwt beam="1">  1       21 0.38167392E-01 0.25652929E+03</pdfrwt>
<pdfrwt beam="2">  1       21 0.41128155E-01 0.25652929E+03</pdfrwt>
<totfact> 0.36574505E+04</totfact>
</mgrwt>
</event>
<event>
 4    1  0.3902417E-001  0.1768608E+03  0.7546771E-02  0.1170876E+00
         21   -1    0    0  503  502  0.00000000000E+00  0.00000000000E+00  0.77252139681E+03  0.77252139681E+03  0.00000000000E+00 0.  1.
         21   -1    0    0  501  503 -0.00000000000E+00 -0.00000000000E+00 -0.40523136744E+02  0.40523136744E+02  0.00000000000E+00 0.  1.
          6    1    1    2  501    0  0.98152930850E+01 -0.35417715453E+02  0.37754123017E+03  0.41691382206E+03  0.17300000000E+03 0.  1.
         -6    1    1    2    0  502 -0.98152930850E+01  0.35417715453E+02  0.35445702990E+03  0.39613071149E+03  0.17300000000E+03 0.  1.
<mgrwt>
<rscale>  2 0.17686083E+03</rscale>
<asrwt>0</asrwt>
<pdfrwt beam="1">  1       21 0.11884944E+00 0.17686083E+03</pdfrwt>
<pdfrwt beam="2">  1       21 0.62343293E-02 0.17686083E+03</pdfrwt>
<totfact> 0.10055460E+05</totfact>
</mgrwt>
</event>
<event>
 4    1  0.3902417E-001  0.2039581E+03  0.7546771E-02  0.1146442E+00
         21   -1    0    0  503  502  0.00000000000E+00  0.00000000000E+00  0.91100497691E+03  0.91100497691E+03  0.00000000000E+00 0.  1.
         21   -1    0    0  501  503 -0.00000000000E+00 -0.00000000000E+00 -0.53902675592E+02  0.53902675592E+02  0.00000000000E+00 0.  1.
          6    1    1    2  501    0  0.75144254345E+02 -0.77609475101E+02  0.23991921738E+03  0.31489699976E+03  0.17300000000E+03 0.  1.
         -6    1    1    2    0  502 -0.75144254345E+02  0.77609475101E+02  0.61718308394E+03  0.65001065275E+03  0.17300000000E+03 0.  1.
<mgrwt>
<rscale>  2 0.20395806E+03</rscale>
<asrwt>0</asrwt>
<pdfrwt beam="1">  1       21 0.14015460E+00 0.20395806E+03</pdfrwt>
<pdfrwt beam="2">  1       21 0.82927200E-02 0.20395806E+03</pdfrwt>
<totfact> 0.39955956E+04</totfact>
</mgrwt>
</event>
<event>
 4    1  0.3902417E-001  0.2184513E+03  0.7546771E-02  0.1135043E+00
         21   -1    0    0  503  502  0.00000000000E+00  0.00000000000E+00  0.24001629575E+03  0.24001629575E+03  0.00000000000E+00 0. -1.
         21   -1    0    0  501  503 -0.00000000000E+00 -0.00000000000E+00 -0.20302838499E+03  0.20302838499E+03  0.00000000000E+00 0. -1.
          6    1    1    2  501    0 -0.11282392342E+03  0.71152770478E+02 -0.13384714328E+02  0.21886092620E+03  0.17300000000E+03 0. -1.
         -6    1    1    2    0  502  0.11282392342E+03 -0.71152770478E+02  0.50372625090E+02  0.22418375454E+03  0.17300000000E+03 0. -1.
<mgrwt>
<rscale>  2 0.21845126E+03</rscale>
<asrwt>0</asrwt>
<pdfrwt beam="1">  1       21 0.36925584E-01 0.21845126E+03</pdfrwt>
<pdfrwt beam="2">  1       21 0.31235136E-01 0.21845126E+03</pdfrwt>
<totfact> 0.68881185E+04</totfact>
</mgrwt>
</event>
<event>
 4    1  0.3902417E-001  0.2199788E+03  0.7546771E-02  0.1133899E+00
         21   -1    0    0  501  502  0.00000000000E+00  0.00000000000E+00  0.43782846785E+03  0.43782846785E+03  0.00000000000E+00 0. -1.
         21   -1    0    0  502  503 -0.00000000000E+00 -0.00000000000E+00 -0.13984451058E+03  0.13984451058E+03  0.00000000000E+00 0.  1.
          6    1    1    2  501    0 -0.61557226954E+02  0.12112961630E+03  0.28124726407E+03  0.35705839814E+03  0.17300000000E+03 0. -1.
         -6    1    1    2    0  503  0.61557226954E+02 -0.12112961630E+03  0.16736693201E+02  0.22061458029E+03  0.17300000000E+03 0.  1.
<mgrwt>
<rscale>  2 0.21997881E+03</rscale>
<asrwt>0</asrwt>
<pdfrwt beam="1">  1       21 0.67358225E-01 0.21997881E+03</pdfrwt>
<pdfrwt beam="2">  1       21 0.21514540E-01 0.21997881E+03</pdfrwt>
<totfact> 0.40035500E+04</totfact>
</mgrwt>
</event>
<event>
 4    1  0.3902417E-001  0.1749299E+03  0.7546771E-02  0.1172802E+00
         21   -1    0    0  503  502  0.00000000000E+00  0.00000000000E+00  0.37472329334E+03  0.37472329334E+03  0.00000000000E+00 0.  1.
         21   -1    0    0  501  503 -0.00000000000E+00 -0.00000000000E+00 -0.11252595074E+03  0.11252595074E+03  0.00000000000E+00 0. -1.
          6    1    1    2  501    0  0.23333272113E+02  0.11270435279E+02  0.35064655778E+01  0.17496502393E+03  0.17300000000E+03 0. -1.
         -6    1    1    2    0  502 -0.23333272113E+02 -0.11270435279E+02  0.25869087702E+03  0.31228422015E+03  0.17300000000E+03 0.  1.
<mgrwt>
<rscale>  2 0.17492988E+03</rscale>
<asrwt>0</asrwt>
<pdfrwt beam="1">  1       21 0.57649737E-01 0.17492988E+03</pdfrwt>
<pdfrwt beam="2">  1       21 0.17311685E-01 0.17492988E+03</pdfrwt>
<totfact> 0.85773298E+04</totfact>
</mgrwt>
</event>
<event>
 4    1  0.3902417E-001  0.2691358E+03  0.7546771E-02  0.1101775E+00
         21   -1    0    0  501  502  0.00000000000E+00  0.00000000000E+00  0.37847396144E+02  0.37847396144E+02  0.00000000000E+00 0.  1.
         21   -1    0    0  502  503 -0.00000000000E+00 -0.00000000000E+00 -0.21647116799E+04  0.21647116799E+04  0.00000000000E+00 0. -1.
          6    1    1    2  501    0  0.20072023050E+03  0.47079333081E+02 -0.14383347545E+04  0.14632979671E+04  0.17300000000E+03 0.  1.
         -6    1    1    2    0  503 -0.20072023050E+03 -0.47079333081E+02 -0.68852952928E+03  0.73926110896E+03  0.17300000000E+03 0.  1.
<mgrwt>
<rscale>  2 0.26913579E+03</rscale>
<asrwt>0</asrwt>
<pdfrwt beam="1">  1       21 0.58226764E-02 0.26913579E+03</pdfrwt>
<pdfrwt beam="2">  1       21 0.33303256E+00 0.26913579E+03</pdfrwt>
<totfact> 0.42088899E+03</totfact>
</mgrwt>
</event>
<event>
 4    1  0.3902417E-001  0.1791429E+03  0.7546771E-02  0.1168635E+00
         21   -1    0    0  503  502  0.00000000000E+00  0.00000000000E+00  0.60204190855E+03  0.60204190855E+03  0.00000000000E+00 0. -1.
         21   -1    0    0  501  503 -0.00000000000E+00 -0.00000000000E+00 -0.33874424171E+03  0.33874424171E+03  0.00000000000E+00 0. -1.
          6    1    1    2  501    0 -0.14503633377E+02 -0.44190849377E+02 -0.30014990141E+03  0.34954563345E+03  0.17300000000E+03 0. -1.
         -6    1    1    2    0  502  0.14503633377E+02  0.44190849377E+02  0.56344756825E+03  0.59124051681E+03  0.17300000000E+03 0. -1.
<mgrwt>
<rscale>  2 0.17914292E+03</rscale>
<asrwt>0</asrwt>
<pdfrwt beam="1">  1       21 0.92621832E-01 0.17914292E+03</pdfrwt>
<pdfrwt beam="2">  1       21 0.52114499E-01 0.17914292E+03</pdfrwt>
<totfact> 0.34740756E+03</totfact>
</mgrwt>
</event>
<event>
 4    1  0.3902417E-001  0.1750066E+03  0.7546771E-02  0.1172725E+00
         21   -1    0    0  503  502  0.00000000000E+00  0.00000000000E+00  0.50645232184E+02  0.50645232184E+02  0.00000000000E+00 0. -1.
         21   -1    0    0  501  503 -0.00000000000E+00 -0.00000000000E+00 -0.84321442247E+03  0.84321442247E+03  0.00000000000E+00 0. -1.
          6    1    1    2  501    0 -0.11713019516E+02  0.23687628839E+02 -0.15860635902E+03  0.23618483378E+03  0.17300000000E+03 0. -1.
         -6    1    1    2    0  502  0.11713019516E+02 -0.23687628839E+02 -0.63396283127E+03  0.65767482088E+03  0.17300000000E+03 0. -1.
<mgrwt>
<rscale>  2 0.17500657E+03</rscale>
<asrwt>0</asrwt>
<pdfrwt beam="1">  1       21 0.77915745E-02 0.17500657E+03</pdfrwt>
<pdfrwt beam="2">  1       21 0.12972529E+00 0.17500657E+03</pdfrwt>
<totfact> 0.55107537E+04</totfact>
</mgrwt>
</event>
<event>
 4    1  0.3902417E-001  0.1842343E+03  0.7546771E-02  0.1163767E+00
         21   -1    0    0  503  502  0.00000000000E+00  0.00000000000E+00  0.31164976036E+02  0.31164976036E+02  0.00000000000E+00 0. -1.
         21   -1    0    0  501  503 -0.00000000000E+00 -0.00000000000E+00 -0.14104971682E+04  0.14104971682E+04  0.00000000000E+00 0. -1.
          6    1    1    2  501    0  0.84348256832E+00 -0.63344895839E+02 -0.10337444208E+04  0.10500332447E+04  0.17300000000E+03 0. -1.
         -6    1    1    2    0  502 -0.84348256832E+00  0.63344895839E+02 -0.34558777137E+03  0.39162889961E+03  0.17300000000E+03 0. -1.
<mgrwt>
<rscale>  2 0.18423433E+03</rscale>
<asrwt>0</asrwt>
<pdfrwt beam="1">  1       21 0.47946141E-02 0.18423433E+03</pdfrwt>
<pdfrwt beam="2">  1       21 0.21699945E+00 0.18423433E+03</pdfrwt>
<totfact> 0.30507119E+04</totfact>
</mgrwt>
</event>
<event>
 4    1  0.3902417E-001  0.1741251E+03  0.7546771E-02  0.1173613E+00
         21   -1    0    0  501  502  0.00000000000E+00  0.00000000000E+00  0.11584317960E+03  0.11584317960E+03  0.00000000000E+00 0. -1.
         21   -1    0    0  502  503 -0.00000000000E+00 -0.00000000000E+00 -0.26814451469E+03  0.26814451469E+03  0.00000000000E+00 0. -1.
          6    1    1    2  501    0 -0.13520369613E+02 -0.14413154928E+02 -0.46453652648E+02  0.18021509724E+03  0.17300000000E+03 0.  1.
         -6    1    1    2    0  503  0.13520369613E+02  0.14413154928E+02 -0.10584768245E+03  0.20377259705E+03  0.17300000000E+03 0.  1.
<mgrwt>
<rscale>  2 0.17412507E+03</rscale>
<asrwt>0</asrwt>
<pdfrwt beam="1">  1       21 0.17822028E-01 0.17412507E+03</pdfrwt>
<pdfrwt beam="2">  1       21 0.41253002E-01 0.17412507E+03</pdfrwt>
<totfact> 0.16276791E+05</totfact>
</mgrwt>
</event>
<event>
 4    1  0.3902417E-001  0.2022849E+03  0.7546771E-02  0.1147825E+00
         21   -1    0    0  503  502  0.00000000000E+00  0.00000000000E+00  0.77811230314E+02  0.77811230314E+02  0.00000000000E+00 0.  1.
         21   -1    0    0  501  503 -0.00000000000E+00 -0.00000000000E+00 -0.53854136886E+03  0.53854136886E+03  0.00000000000E+00 0.  1.
          6    1    1    2  501    0 -0.15179418260E+02  0.10372926004E+03 -0.18310730679E+03  0.27285061834E+03  0.17300000000E+03 0. -1.
         -6    1    1    2    0  502  0.15179418260E+02 -0.10372926004E+03 -0.27762283176E+03  0.34350198084E+03  0.17300000000E+03 0. -1.
<mgrwt>
<rscale>  2 0.20228488E+03</rscale>
<asrwt>0</asrwt>
<pdfrwt beam="1">  1       21 0.11970959E-01 0.20228488E+03</pdfrwt>
<pdfrwt beam="2">  1       21 0.82852516E-01 0.20228488E+03</pdfrwt>
<totfact> 0.74540525E+04</totfact>
</mgrwt>
</event>
<event>
 4    1  0.3902417E-001  0.2256466E+03  0.7546771E-02  0.1129742E+00
         21   -1    0    0  503  502  0.00000000000E+00  0.00000000000E+00  0.47624462011E+02  0.47624462011E+02  0.00000000000E+00 0. -1.
         21   -1    0    0  501  503 -0.00000000000E+00 -0.00000000000E+00 -0.10759516728E+04  0.10759516728E+04  0.00000000000E+00 0.  1.
          6    1    1    2  501    0 -0.61349393735E+02  0.13123880208E+03 -0.55892139146E+03  0.60275160150E+03  0.17300000000E+03 0.  1.
         -6    1    1    2    0  502  0.61349393735E+02 -0.13123880208E+03 -0.46940581938E+03  0.52082453336E+03  0.17300000000E+03 0. -1.
<mgrwt>
<rscale>  2 0.22564656E+03</rscale>
<asrwt>0</asrwt>
<pdfrwt beam="1">  1       21 0.73268410E-02 0.22564656E+03</pdfrwt>
<pdfrwt beam="2">  1       21 0.16553101E+00 0.22564656E+03</pdfrwt>
<totfact> 0.31437305E+04</totfact>
</mgrwt>
</event>
<event>
 4    1  0.3902417E-001  0.1940252E+03  0.7546771E-02  0.1154880E+00
         21   -1    0    0  501  502  0.00000000000E+00  0.00000000000E+00  0.19116406502E+02  0.19116406502E+02  0.00000000000E+00 0.  1.
         21   -1    0    0  502  503 -0.00000000000E+00 -0.00000000000E+00 -0.20144736505E+04  0.20144736505E+04  0.00000000000E+00 0.  1.
          6    1    1    2  501    0  0.61412839629E+02 -0.62811046149E+02 -0.84539990938E+03  0.86737925452E+03  0.17300000000E+03 0.  1.
         -6    1    1    2    0  503 -0.61412839629E+02  0.62811046149E+02 -0.11499573346E+04  0.11662108025E+04  0.17300000000E+03 0.  1.
<mgrwt>
<rscale>  2 0.19402516E+03</rscale>
<asrwt>0</asrwt>
<pdfrwt beam="1">  1       21 0.29409870E-02 0.19402516E+03</pdfrwt>
<pdfrwt beam="2">  1       21 0.30991888E+00 0.19402516E+03</pdfrwt>
<totfact> 0.19540947E+04</totfact>
</mgrwt>
</event>
<event>
 4    1  0.3902417E-001  0.1887078E+03  0.7546771E-02  0.1159632E+00
         21   -1    0    0  503  502  0.00000000000E+00  0.00000000000E+00  0.48418484881E+02  0.48418484881E+02  0.00000000000E+00 0.  1.
         21   -1    0    0  501  503 -0.00000000000E+00 -0.00000000000E+00 -0.75859109723E+03  0.75859109723E+03  0.00000000000E+00 0. -1.
          6    1    1    2  501    0  0.55238528358E+02  0.51286681888E+02 -0.42552244892E+03  0.46548896151E+03  0.17300000000E+03 0. -1.
         -6    1    1    2    0  502 -0.55238528358E+02 -0.51286681888E+02 -0.28465016343E+03  0.34152062060E+03  0.17300000000E+03 0. -1.
<mgrwt>
<rscale>  2 0.18870776E+03</rscale>
<asrwt>0</asrwt>
<pdfrwt beam="1">  1       21 0.74489974E-02 0.18870776E+03</pdfrwt>
<pdfrwt beam="2">  1       21 0.11670633E+00 0.18870776E+03</pdfrwt>
<totfact> 0.76964270E+04</totfact>
</mgrwt>
</event>
<event>
 4    1  0.3902417E-001  0.2041492E+03  0.7546771E-02  0.1146285E+00
         21   -1    0    0  503  502  0.00000000000E+00  0.00000000000E+00  0.13637362054E+03  0.13637362054E+03  0.00000000000E+00 0.  1.
         21   -1    0    0  501  503 -0.00000000000E+00 -0.00000000000E+00 -0.34959081893E+03  0.34959081893E+03  0.00000000000E+00 0.  1.
          6    1    1    2  501    0  0.95618071551E+02  0.51040029267E+02 -0.19279423747E+03  0.28079622183E+03  0.17300000000E+03 0.  1.
         -6    1    1    2    0  502 -0.95618071551E+02 -0.51040029267E+02 -0.20422960916E+02  0.20516821763E+03  0.17300000000E+03 0.  1.
<mgrwt>
<rscale>  2 0.20414921E+03</rscale>
<asrwt>0</asrwt>
<pdfrwt beam="1">  1       21 0.20980557E-01 0.20414921E+03</pdfrwt>
<pdfrwt beam="2">  1       21 0.53783203E-01 0.20414921E+03</pdfrwt>
<totfact> 0.68657192E+04</totfact>
</mgrwt>
</event>
<event>
 4    1  0.3902417E-001  0.2626751E+03  0.7546771E-02  0.1105547E+00
         21   -1    0    0  501  502  0.00000000000E+00  0.00000000000E+00  0.22106826112E+03  0.22106826112E+03  0.00000000000E+00 0.  1.
         21   -1    0    0  502  503 -0.00000000000E+00 -0.00000000000E+00 -0.36888429521E+03  0.36888429521E+03  0.00000000000E+00 0. -1.
          6    1    1    2  501    0 -0.19719125034E+03 -0.13594443570E+02  0.41811815208E+02  0.26598200315E+03  0.17300000000E+03 0. -1.
         -6    1    1    2    0  503  0.19719125034E+03  0.13594443570E+02 -0.18962784930E+03  0.32397055319E+03  0.17300000000E+03 0. -1.
<mgrwt>
<rscale>  2 0.26267508E+03</rscale>
<asrwt>0</asrwt>
<pdfrwt beam="1">  1       21 0.34010503E-01 0.26267508E+03</pdfrwt>
<pdfrwt beam="2">  1       21 0.56751429E-01 0.26267508E+03</pdfrwt>
<totfact> 0.23450203E+04</totfact>
</mgrwt>
</event>
<event>
 4    1  0.3902417E-001  0.1869847E+03  0.7546771E-02  0.1161209E+00
         21   -1    0    0  501  502  0.00000000000E+00  0.00000000000E+00  0.82244717882E+02  0.82244717882E+02  0.00000000000E+00 0. -1.
         21   -1    0    0  502  503 -0.00000000000E+00 -0.00000000000E+00 -0.42848822361E+03  0.42848822361E+03  0.00000000000E+00 0. -1.
          6    1    1    2  501    0  0.42138286997E+02 -0.57084472891E+02 -0.19578731081E+03  0.27073223552E+03  0.17300000000E+03 0. -1.
         -6    1    1    2    0  503 -0.42138286997E+02  0.57084472891E+02 -0.15045619492E+03  0.24000070597E+03  0.17300000000E+03 0. -1.
<mgrwt>
<rscale>  2 0.18698468E+03</rscale>
<asrwt>0</asrwt>
<pdfrwt beam="1">  1       21 0.12653033E-01 0.18698468E+03</pdfrwt>
<pdfrwt beam="2">  1       21 0.65921266E-01 0.18698468E+03</pdfrwt>
<totfact> 0.11303122E+05</totfact>
</mgrwt>
</event>
<event>
 4    1  0.3902417E-001  0.1754399E+03  0.7546771E-02  0.1172291E+00
         21   -1    0    0  501  502  0.00000000000E+00  0.00000000000E+00  0.24375901671E+02  0.24375901671E+02  0.00000000000E+00 0. -1.
         21   -1    0    0  502  503 -0.00000000000E+00 -0.00000000000E+00 -0.13097015861E+04  0.13097015861E+04  0.00000000000E+00 0. -1.
          6    1    1    2  501    0  0.10811101925E+02 -0.27079041647E+02 -0.76904255123E+03  0.78880010143E+03  0.17300000000E+03 0. -1.
         -6    1    1    2    0  503 -0.10811101925E+02  0.27079041647E+02 -0.51628313316E+03  0.54527738630E+03  0.17300000000E+03 0. -1.
<mgrwt>
<rscale>  2 0.17543989E+03</rscale>
<asrwt>0</asrwt>
<pdfrwt beam="1">  1       21 0.37501383E-02 0.17543989E+03</pdfrwt>
<pdfrwt beam="2">  1       21 0.20149257E+00 0.17543989E+03</pdfrwt>
<totfact> 0.57982403E+04</totfact>
</mgrwt>
</event>
<event>
 4    1  0.3902417E-001  0.1989565E+03  0.7546771E-02  0.1150622E+00
         21   -1    0    0  501  502  0.00000000000E+00  0.00000000000E+00  0.24327655485E+03  0.24327655485E+03  0.00000000000E+00 0.  1.
         21   -1    0    0  502  503 -0.00000000000E+00 -0.00000000000E+00 -0.18345209660E+03  0.18345209660E+03  0.00000000000E+00 0. -1.
          6    1    1    2  501    0 -0.96032379550E+02 -0.20796295457E+02 -0.41830722124E+02  0.20330645130E+03  0.17300000000E+03 0. -1.
         -6    1    1    2    0  503  0.96032379550E+02  0.20796295457E+02  0.10165518037E+03  0.22342220016E+03  0.17300000000E+03 0.  1.
<mgrwt>
<rscale>  2 0.19895654E+03</rscale>
<asrwt>0</asrwt>
<pdfrwt beam="1">  1       21 0.37427162E-01 0.19895654E+03</pdfrwt>
<pdfrwt beam="2">  1       21 0.28223399E-01 0.19895654E+03</pdfrwt>
<totfact> 0.82382269E+04</totfact>
</mgrwt>
</event>
<event>
 4    1  0.3902417E-001  0.1918707E+03  0.7546771E-02  0.1156785E+00
         21   -1    0    0  501  502  0.00000000000E+00  0.00000000000E+00  0.45624436767E+02  0.45624436767E+02  0.00000000000E+00 0.  1.
         21   -1    0    0  502  503 -0.00000000000E+00 -0.00000000000E+00 -0.86393863870E+03  0.86393863870E+03  0.00000000000E+00 0.  1.
          6    1    1    2  501    0 -0.66899280577E+02  0.49090048985E+02 -0.29230220795E+03  0.34964972104E+03  0.17300000000E+03 0.  1.
         -6    1    1    2    0  503  0.66899280577E+02 -0.49090048985E+02 -0.52601199398E+03  0.55991335442E+03  0.17300000000E+03 0.  1.
<mgrwt>
<rscale>  2 0.19187065E+03</rscale>
<asrwt>0</asrwt>
<pdfrwt beam="1">  1       21 0.70191445E-02 0.19187065E+03</pdfrwt>
<pdfrwt beam="2">  1       21 0.13291363E+00 0.19187065E+03</pdfrwt>
<totfact> 0.61556209E+04</totfact>
</mgrwt>
</event>
<event>
 4    1  0.3902417E-001  0.3341661E+03  0.7546771E-02  0.1069308E+00
         21   -1    0    0  503  502  0.00000000000E+00  0.00000000000E+00  0.59591621211E+02  0.59591621211E+02  0.00000000000E+00 0.  1.
         21   -1    0    0  501  503 -0.00000000000E+00 -0.00000000000E+00 -0.20093725450E+04  0.20093725450E+04  0.00000000000E+00 0. -1.
          6    1    1    2  501    0  0.12024243775E+03  0.25938335719E+03 -0.12435275477E+04  0.12876442567E+04  0.17300000000E+03 0. -1.
         -6    1    1    2    0  502 -0.12024243775E+03 -0.25938335719E+03 -0.70625337610E+03  0.78131990957E+03  0.17300000000E+03 0.  1.
<mgrwt>
<rscale>  2 0.33416608E+03</rscale>
<asrwt>0</asrwt>
<pdfrwt beam="1">  1       21 0.91679420E-02 0.33416608E+03</pdfrwt>
<pdfrwt beam="2">  1       21 0.30913423E+00 0.33416608E+03</pdfrwt>
<totfact> 0.25045945E+03</totfact>
</mgrwt>
</event>
<event>
 4    1  0.3902417E-001  0.3082546E+03  0.7546771E-02  0.1081186E+00
         21   -1    0    0  503  502  0.00000000000E+00  0.00000000000E+00  0.88442402476E+02  0.88442402476E+02  0.00000000000E+00 0.  1.
         21   -1    0    0  501  503 -0.00000000000E+00 -0.00000000000E+00 -0.10750138113E+04  0.10750138113E+04  0.00000000000E+00 0.  1.
          6    1    1    2  501    0 -0.71108171114E+02  0.24502142692E+03 -0.47917609656E+03  0.56976363798E+03  0.17300000000E+03 0.  1.
         -6    1    1    2    0  502  0.71108171114E+02 -0.24502142692E+03 -0.50739531229E+03  0.59369257582E+03  0.17300000000E+03 0.  1.
<mgrwt>
<rscale>  2 0.30825456E+03</rscale>
<asrwt>0</asrwt>
<pdfrwt beam="1">  1       21 0.13606524E-01 0.30825456E+03</pdfrwt>
<pdfrwt beam="2">  1       21 0.16538673E+00 0.30825456E+03</pdfrwt>
<totfact> 0.10020871E+04</totfact>
</mgrwt>
</event>
<event>
 4    1  0.3902417E-001  0.1961152E+03  0.7546771E-02  0.1153059E+00
         21   -1    0    0  501  502  0.00000000000E+00  0.00000000000E+00  0.81122475919E+02  0.81122475919E+02  0.00000000000E+00 0.  1.
         21   -1    0    0  502  503 -0.00000000000E+00 -0.00000000000E+00 -0.47477361722E+03  0.47477361722E+03  0.00000000000E+00 0.  1.
          6    1    1    2  501    0 -0.91866377986E+02 -0.96297735853E+01 -0.20719903990E+03  0.28529389422E+03  0.17300000000E+03 0.  1.
         -6    1    1    2    0  503  0.91866377986E+02  0.96297735853E+01 -0.18645210140E+03  0.27060219892E+03  0.17300000000E+03 0.  1.
<mgrwt>
<rscale>  2 0.19611518E+03</rscale>
<asrwt>0</asrwt>
<pdfrwt beam="1">  1       21 0.12480381E-01 0.19611518E+03</pdfrwt>
<pdfrwt beam="2">  1       21 0.73042094E-01 0.19611518E+03</pdfrwt>
<totfact> 0.92109122E+04</totfact>
</mgrwt>
</event>
<event>
 4    1  0.3902417E-001  0.3141395E+03  0.7546771E-02  0.1078379E+00
         21   -1    0    0  501  502  0.00000000000E+00  0.00000000000E+00  0.39606682952E+03  0.39606682952E+03  0.00000000000E+00 0.  1.
         21   -1    0    0  502  503 -0.00000000000E+00 -0.00000000000E+00 -0.34252705695E+03  0.34252705695E+03  0.00000000000E+00 0. -1.
          6    1    1    2  501    0  0.13403910748E+02 -0.26186824293E+03  0.21957887529E+03  0.38327343236E+03  0.17300000000E+03 0.  1.
         -6    1    1    2    0  503 -0.13403910748E+02  0.26186824293E+03 -0.16603910272E+03  0.35532045411E+03  0.17300000000E+03 0. -1.
<mgrwt>
<rscale>  2 0.31413953E+03</rscale>
<asrwt>0</asrwt>
<pdfrwt beam="1">  1       21 0.60933358E-01 0.31413953E+03</pdfrwt>
<pdfrwt beam="2">  1       21 0.52696470E-01 0.31413953E+03</pdfrwt>
<totfact> 0.79848476E+03</totfact>
</mgrwt>
</event>
<event>
 4    1  0.3902417E-001  0.3039409E+03  0.7546771E-02  0.1083287E+00
         21   -1    0    0  503  502  0.00000000000E+00  0.00000000000E+00  0.18896722449E+03  0.18896722449E+03  0.00000000000E+00 0. -1.
         21   -1    0    0  501  503 -0.00000000000E+00 -0.00000000000E+00 -0.48887562706E+03  0.48887562706E+03  0.00000000000E+00 0. -1.
          6    1    1    2  501    0  0.18502580488E+03 -0.16797773258E+03 -0.14863328806E+03  0.33833699389E+03  0.17300000000E+03 0. -1.
         -6    1    1    2    0  502 -0.18502580488E+03  0.16797773258E+03 -0.15127511451E+03  0.33950585766E+03  0.17300000000E+03 0. -1.
<mgrwt>
<rscale>  2 0.30394089E+03</rscale>
<asrwt>0</asrwt>
<pdfrwt beam="1">  1       21 0.29071881E-01 0.30394089E+03</pdfrwt>
<pdfrwt beam="2">  1       21 0.75211635E-01 0.30394089E+03</pdfrwt>
<totfact> 0.16909650E+04</totfact>
</mgrwt>
</event>
<event>
 4    1  0.3902417E-001  0.1843262E+03  0.7546771E-02  0.1163681E+00
         21   -1    0    0  501  502  0.00000000000E+00  0.00000000000E+00  0.13408106234E+03  0.13408106234E+03  0.00000000000E+00 0.  1.
         21   -1    0    0  502  503 -0.00000000000E+00 -0.00000000000E+00 -0.25949823120E+03  0.25949823120E+03  0.00000000000E+00 0.  1.
          6    1    1    2  501    0 -0.92634293170E+00 -0.63610316999E+02 -0.92876118912E+02  0.20640277131E+03  0.17300000000E+03 0.  1.
         -6    1    1    2    0  503  0.92634293170E+00  0.63610316999E+02 -0.32541049946E+02  0.18717652222E+03  0.17300000000E+03 0.  1.
<mgrwt>
<rscale>  2 0.18432615E+03</rscale>
<asrwt>0</asrwt>
<pdfrwt beam="1">  1       21 0.20627856E-01 0.18432615E+03</pdfrwt>
<pdfrwt beam="2">  1       21 0.39922804E-01 0.18432615E+03</pdfrwt>
<totfact> 0.13211413E+05</totfact>
</mgrwt>
</event>
<event>
 4    1  0.3902417E-001  0.2138621E+03  0.7546771E-02  0.1138544E+00
         21   -1    0    0  501  502  0.00000000000E+00  0.00000000000E+00  0.21261571387E+03  0.21261571387E+03  0.00000000000E+00 0.  1.
         21   -1    0    0  502  503 -0.00000000000E+00 -0.00000000000E+00 -0.21694396841E+03  0.21694396841E+03  0.00000000000E+00 0.  1.
          6    1    1    2  501    0 -0.11560859701E+03  0.49423064661E+02 -0.21880850088E+02  0.21497850736E+03  0.17300000000E+03 0.  1.
         -6    1    1    2    0  503  0.11560859701E+03 -0.49423064661E+02  0.17552595548E+02  0.21458117493E+03  0.17300000000E+03 0.  1.
<mgrwt>
<rscale>  2 0.21386207E+03</rscale>
<asrwt>0</asrwt>
<pdfrwt beam="1">  1       21 0.32710110E-01 0.21386207E+03</pdfrwt>
<pdfrwt beam="2">  1       21 0.33375995E-01 0.21386207E+03</pdfrwt>
<totfact> 0.77067615E+04</totfact>
</mgrwt>
</event>
<event>
 4    1  0.3902417E-001  0.2148402E+03  0.7546771E-02  0.1137789E+00
         21   -1    0    0  503  502  0.00000000000E+00  0.00000000000E+00  0.12982034801E+04  0.12982034801E+04  0.00000000000E+00 0. -1.
         21   -1    0    0  501  503 -0.00000000000E+00 -0.00000000000E+00 -0.40354260885E+02  0.40354260885E+02  0.00000000000E+00 0.  1.
          6    1    1    2  501    0 -0.85912972010E+01 -0.12709646319E+03  0.39809313980E+03  0.45236541568E+03  0.17300000000E+03 0.  1.
         -6    1    1    2    0  502  0.85912972010E+01  0.12709646319E+03  0.85975607941E+03  0.88619232530E+03  0.17300000000E+03 0. -1.
<mgrwt>
<rscale>  2 0.21484022E+03</rscale>
<asrwt>0</asrwt>
<pdfrwt beam="1">  1       21 0.19972358E+00 0.21484022E+03</pdfrwt>
<pdfrwt beam="2">  1       21 0.62083488E-02 0.21484022E+03</pdfrwt>
<totfact> 0.24677576E+04</totfact>
</mgrwt>
</event>
<event>
 4    1  0.3902417E-001  0.1907936E+03  0.7546771E-02  0.1157747E+00
         21   -1    0    0  501  502  0.00000000000E+00  0.00000000000E+00  0.11910909798E+03  0.11910909798E+03  0.00000000000E+00 0.  1.
         21   -1    0    0  502  503 -0.00000000000E+00 -0.00000000000E+00 -0.38592918276E+03  0.38592918276E+03  0.00000000000E+00 0. -1.
          6    1    1    2  501    0 -0.58495789605E+02 -0.55239962955E+02 -0.18218368526E+02  0.19166147203E+03  0.17300000000E+03 0. -1.
         -6    1    1    2    0  503  0.58495789605E+02  0.55239962955E+02 -0.24860171626E+03  0.31337680871E+03  0.17300000000E+03 0. -1.
<mgrwt>
<rscale>  2 0.19079363E+03</rscale>
<asrwt>0</asrwt>
<pdfrwt beam="1">  1       21 0.18324476E-01 0.19079363E+03</pdfrwt>
<pdfrwt beam="2">  1       21 0.59373721E-01 0.19079363E+03</pdfrwt>
<totfact> 0.72045793E+04</totfact>
</mgrwt>
</event>
<event>
 4    1  0.3902417E-001  0.2050703E+03  0.7546771E-02  0.1145530E+00
         21   -1    0    0  503  502  0.00000000000E+00  0.00000000000E+00  0.89063771243E+03  0.89063771243E+03  0.00000000000E+00 0. -1.
         21   -1    0    0  501  503 -0.00000000000E+00 -0.00000000000E+00 -0.52017680464E+02  0.52017680464E+02  0.00000000000E+00 0. -1.
          6    1    1    2  501    0  0.10720546629E+03  0.25136203705E+02  0.27613461705E+03  0.34395372868E+03  0.17300000000E+03 0. -1.
         -6    1    1    2    0  502 -0.10720546629E+03 -0.25136203705E+02  0.56248541492E+03  0.59870166422E+03  0.17300000000E+03 0. -1.
<mgrwt>
<rscale>  2 0.20507033E+03</rscale>
<asrwt>0</asrwt>
<pdfrwt beam="1">  1       21 0.13702118E+00 0.20507033E+03</pdfrwt>
<pdfrwt beam="2">  1       21 0.80027207E-02 0.20507033E+03</pdfrwt>
<totfact> 0.45045592E+04</totfact>
</mgrwt>
</event>
<event>
 4    1  0.3902417E-001  0.2110696E+03  0.7546771E-02  0.1140722E+00
         21   -1    0    0  501  502  0.00000000000E+00  0.00000000000E+00  0.15631482337E+03  0.15631482337E+03  0.00000000000E+00 0.  1.
         21   -1    0    0  502  503 -0.00000000000E+00 -0.00000000000E+00 -0.28504733117E+03  0.28504733117E+03  0.00000000000E+00 0.  1.
          6    1    1    2  501    0  0.10189200612E+03  0.65110488802E+02 -0.61646744722E+02  0.21988787551E+03  0.17300000000E+03 0.  1.
         -6    1    1    2    0  503 -0.10189200612E+03 -0.65110488802E+02 -0.67085763080E+02  0.22147427903E+03  0.17300000000E+03 0.  1.
<mgrwt>
<rscale>  2 0.21106955E+03</rscale>
<asrwt>0</asrwt>
<pdfrwt beam="1">  1       21 0.24048435E-01 0.21106955E+03</pdfrwt>
<pdfrwt beam="2">  1       21 0.43853435E-01 0.21106955E+03</pdfrwt>
<totfact> 0.80847032E+04</totfact>
</mgrwt>
</event>
<event>
 4    1  0.3902417E-001  0.1968609E+03  0.7546771E-02  0.1152415E+00
         21   -1    0    0  501  502  0.00000000000E+00  0.00000000000E+00  0.18012557731E+02  0.18012557731E+02  0.00000000000E+00 0.  1.
         21   -1    0    0  502  503 -0.00000000000E+00 -0.00000000000E+00 -0.21954125107E+04  0.21954125107E+04  0.00000000000E+00 0.  1.
          6    1    1    2  501    0 -0.35021143183E+02 -0.87170631243E+02 -0.12452024020E+04  0.12606677680E+04  0.17300000000E+03 0.  1.
         -6    1    1    2    0  503  0.35021143183E+02  0.87170631243E+02 -0.93219755094E+03  0.95275730037E+03  0.17300000000E+03 0.  1.
<mgrwt>
<rscale>  2 0.19686086E+03</rscale>
<asrwt>0</asrwt>
<pdfrwt beam="1">  1       21 0.27711633E-02 0.19686086E+03</pdfrwt>
<pdfrwt beam="2">  1       21 0.33775571E+00 0.19686086E+03</pdfrwt>
<totfact> 0.14816399E+04</totfact>
</mgrwt>
</event>
<event>
 4    1  0.3902417E-001  0.1882061E+03  0.7546771E-02  0.1160089E+00
         21   -1    0    0  503  502  0.00000000000E+00  0.00000000000E+00  0.34257106303E+03  0.34257106303E+03  0.00000000000E+00 0.  1.
         21   -1    0    0  501  503 -0.00000000000E+00 -0.00000000000E+00 -0.18750149832E+03  0.18750149832E+03  0.00000000000E+00 0.  1.
          6    1    1    2  501    0  0.73440822335E+02  0.99480170594E+01 -0.99968878535E+02  0.21310864390E+03  0.17300000000E+03 0.  1.
         -6    1    1    2    0  502 -0.73440822335E+02 -0.99480170594E+01  0.25503844325E+03  0.31696391744E+03  0.17300000000E+03 0.  1.
<mgrwt>
<rscale>  2 0.18820605E+03</rscale>
<asrwt>0</asrwt>
<pdfrwt beam="1">  1       21 0.52703241E-01 0.18820605E+03</pdfrwt>
<pdfrwt beam="2">  1       21 0.28846384E-01 0.18820605E+03</pdfrwt>
<totfact> 0.39336345E+04</totfact>
</mgrwt>
</event>
<event>
 4    1  0.3902417E-001  0.1922361E+03  0.7546771E-02  0.1156460E+00
         21   -1    0    0  503  502  0.00000000000E+00  0.00000000000E+00  0.23050080271E+02  0.23050080271E+02  0.00000000000E+00 0. -1.
         21   -1    0    0  501  503 -0.00000000000E+00 -0.00000000000E+00 -0.18000215459E+04  0.18000215459E+04  0.00000000000E+00 0. -1.
          6    1    1    2  501    0 -0.64900300497E+02 -0.53043943193E+02 -0.11898778859E+04  0.12053066383E+04  0.17300000000E+03 0. -1.
         -6    1    1    2    0  502  0.64900300497E+02  0.53043943193E+02 -0.58709357977E+03  0.61776498794E+03  0.17300000000E+03 0. -1.
<mgrwt>
<rscale>  2 0.19223608E+03</rscale>
<asrwt>0</asrwt>
<pdfrwt beam="1">  1       21 0.35461651E-02 0.19223608E+03</pdfrwt>
<pdfrwt beam="2">  1       21 0.27692648E+00 0.19223608E+03</pdfrwt>
<totfact> 0.22224292E+04</totfact>
</mgrwt>
</event>
<event>
 4    1  0.3902417E-001  0.2115097E+03  0.7546771E-02  0.1140376E+00
         21   -1    0    0  503  502  0.00000000000E+00  0.00000000000E+00  0.71366846203E+03  0.71366846203E+03  0.00000000000E+00 0.  1.
         21   -1    0    0  501  503 -0.00000000000E+00 -0.00000000000E+00 -0.95669271268E+02  0.95669271268E+02  0.00000000000E+00 0. -1.
          6    1    1    2  501    0  0.33096017587E+02 -0.11709829211E+03  0.71388587633E+02  0.22323236065E+03  0.17300000000E+03 0. -1.
         -6    1    1    2    0  502 -0.33096017587E+02  0.11709829211E+03  0.54661060313E+03  0.58610537265E+03  0.17300000000E+03 0.  1.
<mgrwt>
<rscale>  2 0.21150971E+03</rscale>
<asrwt>0</asrwt>
<pdfrwt beam="1">  1       21 0.10979514E+00 0.21150971E+03</pdfrwt>
<pdfrwt beam="2">  1       21 0.14718350E-01 0.21150971E+03</pdfrwt>
<totfact> 0.26345108E+04</totfact>
</mgrwt>
</event>
<event>
 4    1  0.3902417E-001  0.1843365E+03  0.7546771E-02  0.1163671E+00
         21   -1    0    0  503  502  0.00000000000E+00  0.00000000000E+00  0.15756702989E+02  0.15756702989E+02  0.00000000000E+00 0.  1.
         21   -1    0    0  501  503 -0.00000000000E+00 -0.00000000000E+00 -0.21817012674E+04  0.21817012674E+04  0.00000000000E+00 0.  1.
          6    1    1    2  501    0  0.55093749898E+02 -0.31868614301E+02 -0.96497395494E+03  0.98242285375E+03  0.17300000000E+03 0.  1.
         -6    1    1    2    0  502 -0.55093749898E+02  0.31868614301E+02 -0.12009706095E+04  0.12150351166E+04  0.17300000000E+03 0.  1.
<mgrwt>
<rscale>  2 0.18433646E+03</rscale>
<asrwt>0</asrwt>
<pdfrwt beam="1">  1       21 0.24241061E-02 0.18433646E+03</pdfrwt>
<pdfrwt beam="2">  1       21 0.33564663E+00 0.18433646E+03</pdfrwt>
<totfact> 0.19262140E+04</totfact>
</mgrwt>
</event>
<event>
 4    1  0.3902417E-001  0.1825639E+03  0.7546771E-02  0.1165344E+00
         21   -1    0    0  503  502  0.00000000000E+00  0.00000000000E+00  0.38127342801E+03  0.38127342801E+03  0.00000000000E+00 0.  1.
         21   -1    0    0  501  503 -0.00000000000E+00 -0.00000000000E+00 -0.11356993733E+03  0.11356993733E+03  0.00000000000E+00 0.  1.
          6    1    1    2  501    0  0.55845779765E+02  0.16787848420E+02  0.25258450829E+03  0.31165448304E+03  0.17300000000E+03 0.  1.
         -6    1    1    2    0  502 -0.55845779765E+02 -0.16787848420E+02  0.15118982391E+02  0.18318888231E+03  0.17300000000E+03 0.  1.
<mgrwt>
<rscale>  2 0.18256391E+03</rscale>
<asrwt>0</asrwt>
<pdfrwt beam="1">  1       21 0.58657450E-01 0.18256391E+03</pdfrwt>
<pdfrwt beam="2">  1       21 0.17472298E-01 0.18256391E+03</pdfrwt>
<totfact> 0.81011329E+04</totfact>
</mgrwt>
</event>
<event>
 4    1  0.3902417E-001  0.2756379E+03  0.7546771E-02  0.1098096E+00
         21   -1    0    0  503  502  0.00000000000E+00  0.00000000000E+00  0.95724401461E+03  0.95724401461E+03  0.00000000000E+00 0. -1.
         21   -1    0    0  501  503 -0.00000000000E+00 -0.00000000000E+00 -0.79827653722E+02  0.79827653722E+02  0.00000000000E+00 0. -1.
          6    1    1    2  501    0  0.19475869145E+03 -0.90090386135E+02  0.39943595670E+03  0.48530949823E+03  0.17300000000E+03 0. -1.
         -6    1    1    2    0  502 -0.19475869145E+03  0.90090386135E+02  0.47798040419E+03  0.55176217010E+03  0.17300000000E+03 0. -1.
<mgrwt>
<rscale>  2 0.27563785E+03</rscale>
<asrwt>0</asrwt>
<pdfrwt beam="1">  1       21 0.14726830E+00 0.27563785E+03</pdfrwt>
<pdfrwt beam="2">  1       21 0.12281178E-01 0.27563785E+03</pdfrwt>
<totfact> 0.16810249E+04</totfact>
</mgrwt>
</event>
<event>
 4    1  0.3902417E-001  0.2719007E+03  0.7546771E-02  0.1100197E+00
         21   -1    0    0  503  502  0.00000000000E+00  0.00000000000E+00  0.16399396663E+03  0.16399396663E+03  0.00000000000E+00 0.  1.
         21   -1    0    0  501  503 -0.00000000000E+00 -0.00000000000E+00 -0.45479059915E+03  0.45479059915E+03  0.00000000000E+00 0. -1.
          6    1    1    2  501    0 -0.20455506206E+03 -0.46456801397E+02 -0.11645053323E+03  0.29578832718E+03  0.17300000000E+03 0. -1.
         -6    1    1    2    0  502  0.20455506206E+03  0.46456801397E+02 -0.17434609929E+03  0.32299623860E+03  0.17300000000E+03 0. -1.
<mgrwt>
<rscale>  2 0.27190073E+03</rscale>
<asrwt>0</asrwt>
<pdfrwt beam="1">  1       21 0.25229841E-01 0.27190073E+03</pdfrwt>
<pdfrwt beam="2">  1       21 0.69967784E-01 0.27190073E+03</pdfrwt>
<totfact> 0.26544160E+04</totfact>
</mgrwt>
</event>
<event>
 4    1  0.3902417E-001  0.1926828E+03  0.7546771E-02  0.1156064E+00
         21   -1    0    0  501  502  0.00000000000E+00  0.00000000000E+00  0.61082930822E+03  0.61082930822E+03  0.00000000000E+00 0. -1.
         21   -1    0    0  502  503 -0.00000000000E+00 -0.00000000000E+00 -0.67348037366E+02  0.67348037366E+02  0.00000000000E+00 0. -1.
          6    1    1    2  501    0 -0.34071255731E+02 -0.77696922563E+02  0.37762793854E+03  0.42394518775E+03  0.17300000000E+03 0. -1.
         -6    1    1    2    0  503  0.34071255731E+02  0.77696922563E+02  0.16585333231E+03  0.25423215784E+03  0.17300000000E+03 0. -1.
<mgrwt>
<rscale>  2 0.19268280E+03</rscale>
<asrwt>0</asrwt>
<pdfrwt beam="1">  1       21 0.93973736E-01 0.19268280E+03</pdfrwt>
<pdfrwt beam="2">  1       21 0.10361237E-01 0.19268280E+03</pdfrwt>
<totfact> 0.72414661E+04</totfact>
</mgrwt>
</event>
<event>
 4    1  0.3902417E-001  0.2277582E+03  0.7546771E-02  0.1128228E+00
         21   -1    0    0  503  502  0.00000000000E+00  0.00000000000E+00  0.55105041756E+02  0.55105041756E+02  0.00000000000E+00 0. -1.
         21   -1    0    0  501  503 -0.00000000000E+00 -0.00000000000E+00 -0.97541444477E+03  0.97541444477E+03  0.00000000000E+00 0. -1.
          6    1    1    2  501    0 -0.10924622331E+03 -0.10005023791E+03 -0.36388129538E+03  0.42928240652E+03  0.17300000000E+03 0. -1.
         -6    1    1    2    0  502  0.10924622331E+03  0.10005023791E+03 -0.55642810763E+03  0.60123708000E+03  0.17300000000E+03 0. -1.
<mgrwt>
<rscale>  2 0.22775818E+03</rscale>
<asrwt>0</asrwt>
<pdfrwt beam="1">  1       21 0.84776995E-02 0.22775818E+03</pdfrwt>
<pdfrwt beam="2">  1       21 0.15006375E+00 0.22775818E+03</pdfrwt>
<totfact> 0.31715114E+04</totfact>
</mgrwt>
</event>
<event>
 4    1  0.3902417E-001  0.2260406E+03  0.7546771E-02  0.1129458E+00
         21   -1    0    0  501  502  0.00000000000E+00  0.00000000000E+00  0.26172942874E+03  0.26172942874E+03  0.00000000000E+00 0. -1.
         21   -1    0    0  502  503 -0.00000000000E+00 -0.00000000000E+00 -0.31226878413E+03  0.31226878413E+03  0.00000000000E+00 0.  1.
          6    1    1    2  501    0 -0.12605158091E+03 -0.72638574668E+02  0.15044293664E+03  0.27152797418E+03  0.17300000000E+03 0. -1.
         -6    1    1    2    0  503  0.12605158091E+03  0.72638574668E+02 -0.20098229203E+03  0.30247023868E+03  0.17300000000E+03 0.  1.
<mgrwt>
<rscale>  2 0.22604062E+03</rscale>
<asrwt>0</asrwt>
<pdfrwt beam="1">  1       21 0.40266066E-01 0.22604062E+03</pdfrwt>
<pdfrwt beam="2">  1       21 0.48041351E-01 0.22604062E+03</pdfrwt>
<totfact> 0.24158619E+04</totfact>
</mgrwt>
</event>
<event>
 4    1  0.3902417E-001  0.1763504E+03  0.7546771E-02  0.1171383E+00
         21   -1    0    0  503  502  0.00000000000E+00  0.00000000000E+00  0.63793856966E+02  0.63793856966E+02  0.00000000000E+00 0. -1.
         21   -1    0    0  501  503 -0.00000000000E+00 -0.00000000000E+00 -0.49871592006E+03  0.49871592006E+03  0.00000000000E+00 0. -1.
          6    1    1    2  501    0  0.29276607540E+02 -0.17701157704E+02 -0.17528094494E+03  0.24864203263E+03  0.17300000000E+03 0.  1.
         -6    1    1    2    0  502 -0.29276607540E+02  0.17701157704E+02 -0.25964111815E+03  0.31386774439E+03  0.17300000000E+03 0.  1.
<mgrwt>
<rscale>  2 0.17635036E+03</rscale>
<asrwt>0</asrwt>
<pdfrwt beam="1">  1       21 0.98144394E-02 0.17635036E+03</pdfrwt>
<pdfrwt beam="2">  1       21 0.76725527E-01 0.17635036E+03</pdfrwt>
<totfact> 0.12748785E+05</totfact>
</mgrwt>
</event>
<event>
 4    1  0.3902417E-001  0.2157962E+03  0.7546771E-02  0.1137057E+00
         21   -1    0    0  501  502  0.00000000000E+00  0.00000000000E+00  0.19252441704E+03  0.19252441704E+03  0.00000000000E+00 0. -1.
         21   -1    0    0  502  503 -0.00000000000E+00 -0.00000000000E+00 -0.27298450351E+03  0.27298450351E+03  0.00000000000E+00 0. -1.
          6    1    1    2  501    0 -0.75992311866E+02  0.10423123024E+03 -0.11879598346E+03  0.24633405470E+03  0.17300000000E+03 0. -1.
         -6    1    1    2    0  503  0.75992311866E+02 -0.10423123024E+03  0.38335896998E+02  0.21917486585E+03  0.17300000000E+03 0. -1.
<mgrwt>
<rscale>  2 0.21579616E+03</rscale>
<asrwt>0</asrwt>
<pdfrwt beam="1">  1       21 0.29619141E-01 0.21579616E+03</pdfrwt>
<pdfrwt beam="2">  1       21 0.41997616E-01 0.21579616E+03</pdfrwt>
<totfact> 0.58986270E+04</totfact>
</mgrwt>
</event>
<event>
 4    1  0.3902417E-001  0.2312931E+03  0.7546771E-02  0.1125733E+00
         21   -1    0    0  503  502  0.00000000000E+00  0.00000000000E+00  0.65042406571E+03  0.65042406571E+03  0.00000000000E+00 0.  1.
         21   -1    0    0  501  503 -0.00000000000E+00 -0.00000000000E+00 -0.10265550163E+03  0.10265550163E+03  0.00000000000E+00 0. -1.
          6    1    1    2  501    0  0.49667953758E+01  0.15343665600E+03  0.10600072421E+03  0.25442607963E+03  0.17300000000E+03 0. -1.
         -6    1    1    2    0  502 -0.49667953758E+01 -0.15343665600E+03  0.44176783987E+03  0.49865348771E+03  0.17300000000E+03 0. -1.
<mgrwt>
<rscale>  2 0.23129305E+03</rscale>
<asrwt>0</asrwt>
<pdfrwt beam="1">  1       21 0.10006524E+00 0.23129305E+03</pdfrwt>
<pdfrwt beam="2">  1       21 0.15793155E-01 0.23129305E+03</pdfrwt>
<totfact> 0.28656032E+04</totfact>
</mgrwt>
</event>
<event>
 4    1  0.3902417E-001  0.1871194E+03  0.7546771E-02  0.1161085E+00
         21   -1    0    0  501  502  0.00000000000E+00  0.00000000000E+00  0.23299370716E+03  0.23299370716E+03  0.00000000000E+00 0.  1.
         21   -1    0    0  502  503 -0.00000000000E+00 -0.00000000000E+00 -0.15199641182E+03  0.15199641182E+03  0.00000000000E+00 0.  1.
          6    1    1    2  501    0 -0.29825045840E+02 -0.64769738646E+02  0.20026569274E+02  0.18818798017E+03  0.17300000000E+03 0.  1.
         -6    1    1    2    0  503  0.29825045840E+02  0.64769738646E+02  0.60970726071E+02  0.19680213881E+03  0.17300000000E+03 0.  1.
<mgrwt>
<rscale>  2 0.18711935E+03</rscale>
<asrwt>0</asrwt>
<pdfrwt beam="1">  1       21 0.35845186E-01 0.18711935E+03</pdfrwt>
<pdfrwt beam="2">  1       21 0.23384063E-01 0.18711935E+03</pdfrwt>
<totfact> 0.12932892E+05</totfact>
</mgrwt>
</event>
<event>
 4    1  0.3902417E-001  0.3719365E+03  0.7546771E-02  0.1053955E+00
         21   -1    0    0  503  502  0.00000000000E+00  0.00000000000E+00  0.10087035826E+04  0.10087035826E+04  0.00000000000E+00 0. -1.
         21   -1    0    0  501  503 -0.00000000000E+00 -0.00000000000E+00 -0.16948867845E+03  0.16948867845E+03  0.00000000000E+00 0. -1.
          6    1    1    2  501    0  0.31754509355E+03  0.87022046381E+02  0.16225792586E+03  0.40578856255E+03  0.17300000000E+03 0. -1.
         -6    1    1    2    0  502 -0.31754509355E+03 -0.87022046381E+02  0.67695697828E+03  0.77240369848E+03  0.17300000000E+03 0. -1.
<mgrwt>
<rscale>  2 0.37193645E+03</rscale>
<asrwt>0</asrwt>
<pdfrwt beam="1">  1       21 0.15518516E+00 0.37193645E+03</pdfrwt>
<pdfrwt beam="2">  1       21 0.26075182E-01 0.37193645E+03</pdfrwt>
<totfact> 0.34050318E+03</totfact>
</mgrwt>
</event>
<event>
 4    1  0.3902417E-001  0.2227694E+03  0.7546771E-02  0.1131835E+00
         21   -1    0    0  503  502  0.00000000000E+00  0.00000000000E+00  0.31801270211E+03  0.31801270211E+03  0.00000000000E+00 0.  1.
         21   -1    0    0  501  503 -0.00000000000E+00 -0.00000000000E+00 -0.15791625690E+03  0.15791625690E+03  0.00000000000E+00 0. -1.
          6    1    1    2  501    0 -0.44663672888E+02 -0.13305016680E+03  0.54185659538E+02  0.22926464241E+03  0.17300000000E+03 0. -1.
         -6    1    1    2    0  502  0.44663672888E+02  0.13305016680E+03  0.10591078567E+03  0.24666431660E+03  0.17300000000E+03 0. -1.
<mgrwt>
<rscale>  2 0.22276937E+03</rscale>
<asrwt>0</asrwt>
<pdfrwt beam="1">  1       21 0.48925031E-01 0.22276937E+03</pdfrwt>
<pdfrwt beam="2">  1       21 0.24294809E-01 0.22276937E+03</pdfrwt>
<totfact> 0.62923184E+04</totfact>
</mgrwt>
</event>
<event>
 4    1  0.3902417E-001  0.2009011E+03  0.7546771E-02  0.1148981E+00
         21   -1    0    0  501  502  0.00000000000E+00  0.00000000000E+00  0.55347424886E+02  0.55347424886E+02  0.00000000000E+00 0.  1.
         21   -1    0    0  502  503 -0.00000000000E+00 -0.00000000000E+00 -0.84614404306E+03  0.84614404306E+03  0.00000000000E+00 0.  1.
          6    1    1    2  501    0  0.97648828137E+02 -0.29949209088E+02 -0.22785211963E+03  0.30377267353E+03  0.17300000000E+03 0.  1.
         -6    1    1    2    0  503 -0.97648828137E+02  0.29949209088E+02 -0.56294449854E+03  0.59771879441E+03  0.17300000000E+03 0.  1.
<mgrwt>
<rscale>  2 0.20090109E+03</rscale>
<asrwt>0</asrwt>
<pdfrwt beam="1">  1       21 0.85149891E-02 0.20090109E+03</pdfrwt>
<pdfrwt beam="2">  1       21 0.13017600E+00 0.20090109E+03</pdfrwt>
<totfact> 0.46153990E+04</totfact>
</mgrwt>
</event>
<event>
 4    1  0.3902417E-001  0.1989075E+03  0.7546771E-02  0.1150664E+00
         21   -1    0    0  503  502  0.00000000000E+00  0.00000000000E+00  0.92803309485E+02  0.92803309485E+02  0.00000000000E+00 0. -1.
         21   -1    0    0  501  503 -0.00000000000E+00 -0.00000000000E+00 -0.47227410353E+03  0.47227410353E+03  0.00000000000E+00 0. -1.
          6    1    1    2  501    0 -0.97606397238E+02 -0.10401543628E+02 -0.10160452532E+03  0.22335550241E+03  0.17300000000E+03 0. -1.
         -6    1    1    2    0  502  0.97606397238E+02  0.10401543628E+02 -0.27786626873E+03  0.34172191060E+03  0.17300000000E+03 0. -1.
<mgrwt>
<rscale>  2 0.19890752E+03</rscale>
<asrwt>0</asrwt>
<pdfrwt beam="1">  1       21 0.14277432E-01 0.19890752E+03</pdfrwt>
<pdfrwt beam="2">  1       21 0.72657554E-01 0.19890752E+03</pdfrwt>
<totfact> 0.73012064E+04</totfact>
</mgrwt>
</event>
<event>
 4    1  0.3902417E-001  0.1740336E+03  0.7546771E-02  0.1173706E+00
         21   -1    0    0  503  502  0.00000000000E+00  0.00000000000E+00  0.75282413830E+03  0.75282413830E+03  0.00000000000E+00 0.  1.
         21   -1    0    0  501  503 -0.00000000000E+00 -0.00000000000E+00 -0.44951525290E+02  0.44951525290E+02  0.00000000000E+00 0.  1.
          6    1    1    2  501    0 -0.81632260250E+01 -0.17089302362E+02  0.22468826985E+03  0.28420503360E+03  0.17300000000E+03 0.  1.
         -6    1    1    2    0  502  0.81632260250E+01  0.17089302362E+02  0.48318434317E+03  0.51357063000E+03  0.17300000000E+03 0.  1.
<mgrwt>
<rscale>  2 0.17403357E+03</rscale>
<asrwt>0</asrwt>
<pdfrwt beam="1">  1       21 0.11581909E+00 0.17403357E+03</pdfrwt>
<pdfrwt beam="2">  1       21 0.69156198E-02 0.17403357E+03</pdfrwt>
<totfact> 0.89746622E+04</totfact>
</mgrwt>
</event>
<event>
 4    1  0.3902417E-001  0.2144679E+03  0.7546771E-02  0.1138076E+00
         21   -1    0    0  501  502  0.00000000000E+00  0.00000000000E+00  0.12810705680E+03  0.12810705680E+03  0.00000000000E+00 0. -1.
         21   -1    0    0  502  503 -0.00000000000E+00 -0.00000000000E+00 -0.36751892353E+03  0.36751892353E+03  0.00000000000E+00 0.  1.
          6    1    1    2  501    0  0.12272470459E+03  0.31719297900E+02 -0.82081261879E+02  0.22963841257E+03  0.17300000000E+03 0. -1.
         -6    1    1    2    0  503 -0.12272470459E+03 -0.31719297900E+02 -0.15733060485E+03  0.26598756775E+03  0.17300000000E+03 0.  1.
<mgrwt>
<rscale>  2 0.21446787E+03</rscale>
<asrwt>0</asrwt>
<pdfrwt beam="1">  1       21 0.19708778E-01 0.21446787E+03</pdfrwt>
<pdfrwt beam="2">  1       21 0.56541372E-01 0.21446787E+03</pdfrwt>
<totfact> 0.69115067E+04</totfact>
</mgrwt>
</event>
<event>
 4    1  0.3902417E-001  0.1897704E+03  0.7546771E-02  0.1158669E+00
         21   -1    0    0  501  502  0.00000000000E+00  0.00000000000E+00  0.30814245916E+03  0.30814245916E+03  0.00000000000E+00 0.  1.
         21   -1    0    0  502  503 -0.00000000000E+00 -0.00000000000E+00 -0.17655386115E+03  0.17655386115E+03  0.00000000000E+00 0.  1.
          6    1    1    2  501    0 -0.62163595201E+02  0.47111672364E+02  0.20669951090E+03  0.28060204926E+03  0.17300000000E+03 0.  1.
         -6    1    1    2    0  503  0.62163595201E+02 -0.47111672364E+02 -0.75110912894E+02  0.20409427105E+03  0.17300000000E+03 0.  1.
<mgrwt>
<rscale>  2 0.18977045E+03</rscale>
<asrwt>0</asrwt>
<pdfrwt beam="1">  1       21 0.47406532E-01 0.18977045E+03</pdfrwt>
<pdfrwt beam="2">  1       21 0.27162133E-01 0.18977045E+03</pdfrwt>
<totfact> 0.55060876E+04</totfact>
</mgrwt>
</event>
<event>
 4    1  0.3902417E-001  0.2294289E+03  0.7546771E-02  0.1127042E+00
         21   -1    0    0  503  502  0.00000000000E+00  0.00000000000E+00  0.56347917564E+02  0.56347917564E+02  0.00000000000E+00 0.  1.
         21   -1    0    0  501  503 -0.00000000000E+00 -0.00000000000E+00 -0.93942923854E+03  0.93942923854E+03  0.00000000000E+00 0.  1.
          6    1    1    2  501    0  0.58341509268E+02  0.13894204361E+03 -0.40423042041E+03  0.46480087776E+03  0.17300000000E+03 0.  1.
         -6    1    1    2    0  502 -0.58341509268E+02 -0.13894204361E+03 -0.47885090057E+03  0.53097627835E+03  0.17300000000E+03 0.  1.
<mgrwt>
<rscale>  2 0.22942891E+03</rscale>
<asrwt>0</asrwt>
<pdfrwt beam="1">  1       21 0.86689110E-02 0.22942891E+03</pdfrwt>
<pdfrwt beam="2">  1       21 0.14452757E+00 0.22942891E+03</pdfrwt>
<totfact> 0.33644151E+04</totfact>
</mgrwt>
</event>
<event>
 4    1  0.3902417E-001  0.1885680E+03  0.7546771E-02  0.1159759E+00
         21   -1    0    0  501  502  0.00000000000E+00  0.00000000000E+00  0.54988364298E+03  0.54988364298E+03  0.00000000000E+00 0. -1.
         21   -1    0    0  502  503 -0.00000000000E+00 -0.00000000000E+00 -0.71821986555E+02  0.71821986555E+02  0.00000000000E+00 0. -1.
          6    1    1    2  501    0 -0.73871668160E+02  0.13110092724E+02  0.14089913576E+03  0.23539427424E+03  0.17300000000E+03 0. -1.
         -6    1    1    2    0  503  0.73871668160E+02 -0.13110092724E+02  0.33716252066E+03  0.38631135529E+03  0.17300000000E+03 0. -1.
<mgrwt>
<rscale>  2 0.18856802E+03</rscale>
<asrwt>0</asrwt>
<pdfrwt beam="1">  1       21 0.84597481E-01 0.18856802E+03</pdfrwt>
<pdfrwt beam="2">  1       21 0.11049537E-01 0.18856802E+03</pdfrwt>
<totfact> 0.82498153E+04</totfact>
</mgrwt>
</event>
<event>
 4    1  0.3902417E-001  0.2049904E+03  0.7546771E-02  0.1145596E+00
         21   -1    0    0  501  502  0.00000000000E+00  0.00000000000E+00  0.11696977356E+03  0.11696977356E+03  0.00000000000E+00 0.  1.
         21   -1    0    0  502  503 -0.00000000000E+00 -0.00000000000E+00 -0.37299349537E+03  0.37299349537E+03  0.00000000000E+00 0.  1.
          6    1    1    2  501    0 -0.10736581444E+03 -0.23762662432E+02 -0.17504167073E+03  0.26955642958E+03  0.17300000000E+03 0. -1.
         -6    1    1    2    0  503  0.10736581444E+03  0.23762662432E+02 -0.80982051077E+02  0.22040683935E+03  0.17300000000E+03 0. -1.
<mgrwt>
<rscale>  2 0.20499044E+03</rscale>
<asrwt>0</asrwt>
<pdfrwt beam="1">  1       21 0.17995350E-01 0.20499044E+03</pdfrwt>
<pdfrwt beam="2">  1       21 0.57383614E-01 0.20499044E+03</pdfrwt>
<totfact> 0.79641474E+04</totfact>
</mgrwt>
</event>
<event>
 4    1  0.3902417E-001  0.1870119E+03  0.7546771E-02  0.1161184E+00
         21   -1    0    0  501  502  0.00000000000E+00  0.00000000000E+00  0.52004259450E+02  0.52004259450E+02  0.00000000000E+00 0. -1.
         21   -1    0    0  502  503 -0.00000000000E+00 -0.00000000000E+00 -0.74481498190E+03  0.74481498190E+03  0.00000000000E+00 0. -1.
          6    1    1    2  501    0  0.44106323222E+02  0.55669324839E+02 -0.22227259400E+03  0.29047985734E+03  0.17300000000E+03 0.  1.
         -6    1    1    2    0  503 -0.44106323222E+02 -0.55669324839E+02 -0.47053812845E+03  0.50633938401E+03  0.17300000000E+03 0.  1.
<mgrwt>
<rscale>  2 0.18701188E+03</rscale>
<asrwt>0</asrwt>
<pdfrwt beam="1">  1       21 0.80006552E-02 0.18701188E+03</pdfrwt>
<pdfrwt beam="2">  1       21 0.11458692E+00 0.18701188E+03</pdfrwt>
<totfact> 0.71149202E+04</totfact>
</mgrwt>
</event>
<event>
 4    1  0.3902417E-001  0.2207675E+03  0.7546771E-02  0.1133312E+00
         21   -1    0    0  501  502  0.00000000000E+00  0.00000000000E+00  0.81808090536E+03  0.81808090536E+03  0.00000000000E+00 0. -1.
         21   -1    0    0  502  503 -0.00000000000E+00 -0.00000000000E+00 -0.59722294615E+02  0.59722294615E+02  0.00000000000E+00 0.  1.
          6    1    1    2  501    0  0.12408774554E+02 -0.13658436824E+03  0.35748200443E+03  0.42015669794E+03  0.17300000000E+03 0. -1.
         -6    1    1    2    0  503 -0.12408774554E+02  0.13658436824E+03  0.40087660631E+03  0.45764650203E+03  0.17300000000E+03 0. -1.
<mgrwt>
<rscale>  2 0.22076745E+03</rscale>
<asrwt>0</asrwt>
<pdfrwt beam="1">  1       21 0.12585859E+00 0.22076745E+03</pdfrwt>
<pdfrwt beam="2">  1       21 0.91880459E-02 0.22076745E+03</pdfrwt>
<totfact> 0.43510230E+04</totfact>
</mgrwt>
</event>
<event>
 4    1  0.3902417E-001  0.1759228E+03  0.7546771E-02  0.1171808E+00
         21   -1    0    0  503  502  0.00000000000E+00  0.00000000000E+00  0.22237202679E+03  0.22237202679E+03  0.00000000000E+00 0.  1.
         21   -1    0    0  501  503 -0.00000000000E+00 -0.00000000000E+00 -0.14251388277E+03  0.14251388277E+03  0.00000000000E+00 0.  1.
          6    1    1    2  501    0  0.26067731192E+02 -0.18447629257E+02  0.12007731527E+02  0.17633215036E+03  0.17300000000E+03 0.  1.
         -6    1    1    2    0  502 -0.26067731192E+02  0.18447629257E+02  0.67850412494E+02  0.18855375921E+03  0.17300000000E+03 0.  1.
<mgrwt>
<rscale>  2 0.17592283E+03</rscale>
<asrwt>0</asrwt>
<pdfrwt beam="1">  1       21 0.34211081E-01 0.17592283E+03</pdfrwt>
<pdfrwt beam="2">  1       21 0.21925213E-01 0.17592283E+03</pdfrwt>
<totfact> 0.16079149E+05</totfact>
</mgrwt>
</event>
<event>
 4    1  0.3902417E-001  0.2704163E+03  0.7546771E-02  0.1101042E+00
         21   -1    0    0  503  502  0.00000000000E+00  0.00000000000E+00  0.23830945658E+03  0.23830945658E+03  0.00000000000E+00 0.  1.
         21   -1    0    0  501  503 -0.00000000000E+00 -0.00000000000E+00 -0.36768866889E+03  0.36768866889E+03  0.00000000000E+00 0.  1.
          6    1    1    2  501    0  0.15184800015E+03 -0.14190906059E+03 -0.18794187130E+03  0.32931313915E+03  0.17300000000E+03 0.  1.
         -6    1    1    2    0  502 -0.15184800015E+03  0.14190906059E+03  0.58562658993E+02  0.27668498632E+03  0.17300000000E+03 0.  1.
<mgrwt>
<rscale>  2 0.27041634E+03</rscale>
<asrwt>0</asrwt>
<pdfrwt beam="1">  1       21 0.36662993E-01 0.27041634E+03</pdfrwt>
<pdfrwt beam="2">  1       21 0.56567487E-01 0.27041634E+03</pdfrwt>
<totfact> 0.20247005E+04</totfact>
</mgrwt>
</event>
<event>
 4    1  0.3902417E-001  0.2170274E+03  0.7546771E-02  0.1136119E+00
         21   -1    0    0  501  502  0.00000000000E+00  0.00000000000E+00  0.11170745681E+03  0.11170745681E+03  0.00000000000E+00 0.  1.
         21   -1    0    0  502  503 -0.00000000000E+00 -0.00000000000E+00 -0.49609704023E+03  0.49609704023E+03  0.00000000000E+00 0. -1.
          6    1    1    2  501    0  0.95416393094E+02  0.89819749138E+02 -0.74464208783E+02  0.22944671232E+03  0.17300000000E+03 0.  1.
         -6    1    1    2    0  503 -0.95416393094E+02 -0.89819749138E+02 -0.30992537464E+03  0.37835778471E+03  0.17300000000E+03 0. -1.
<mgrwt>
<rscale>  2 0.21702736E+03</rscale>
<asrwt>0</asrwt>
<pdfrwt beam="1">  1       21 0.17185763E-01 0.21702736E+03</pdfrwt>
<pdfrwt beam="2">  1       21 0.76322622E-01 0.21702736E+03</pdfrwt>
<totfact> 0.46193226E+04</totfact>
</mgrwt>
</event>
<event>
 4    1  0.3902417E-001  0.1944764E+03  0.7546771E-02  0.1154485E+00
         21   -1    0    0  503  502  0.00000000000E+00  0.00000000000E+00  0.10598080985E+03  0.10598080985E+03  0.00000000000E+00 0.  1.
         21   -1    0    0  501  503 -0.00000000000E+00 -0.00000000000E+00 -0.36777970089E+03  0.36777970089E+03  0.00000000000E+00 0.  1.
          6    1    1    2  501    0 -0.74811560812E+02  0.47909401156E+02 -0.17170282185E+03  0.25942810060E+03  0.17300000000E+03 0.  1.
         -6    1    1    2    0  502  0.74811560812E+02 -0.47909401156E+02 -0.90096069190E+02  0.21433241013E+03  0.17300000000E+03 0.  1.
<mgrwt>
<rscale>  2 0.19447643E+03</rscale>
<asrwt>0</asrwt>
<pdfrwt beam="1">  1       21 0.16304740E-01 0.19447643E+03</pdfrwt>
<pdfrwt beam="2">  1       21 0.56581493E-01 0.19447643E+03</pdfrwt>
<totfact> 0.98867795E+04</totfact>
</mgrwt>
</event>
<event>
 4    1  0.3902417E-001  0.2433284E+03  0.7546771E-02  0.1117595E+00
         21   -1    0    0  503  502  0.00000000000E+00  0.00000000000E+00  0.34070051224E+03  0.34070051224E+03  0.00000000000E+00 0. -1.
         21   -1    0    0  501  503 -0.00000000000E+00 -0.00000000000E+00 -0.23112154229E+03  0.23112154229E+03  0.00000000000E+00 0. -1.
          6    1    1    2  501    0  0.62969715503E+02 -0.15910533614E+03 -0.87615710971E+02  0.25862174284E+03  0.17300000000E+03 0. -1.
         -6    1    1    2    0  502 -0.62969715503E+02  0.15910533614E+03  0.19719468093E+03  0.31320031169E+03  0.17300000000E+03 0. -1.
<mgrwt>
<rscale>  2 0.24332836E+03</rscale>
<asrwt>0</asrwt>
<pdfrwt beam="1">  1       21 0.52415463E-01 0.24332836E+03</pdfrwt>
<pdfrwt beam="2">  1       21 0.35557160E-01 0.24332836E+03</pdfrwt>
<totfact> 0.25635824E+04</totfact>
</mgrwt>
</event>
<event>
 4    1  0.3902417E-001  0.1765888E+03  0.7546771E-02  0.1171146E+00
         21   -1    0    0  503  502  0.00000000000E+00  0.00000000000E+00  0.38615288340E+03  0.38615288340E+03  0.00000000000E+00 0. -1.
         21   -1    0    0  501  503 -0.00000000000E+00 -0.00000000000E+00 -0.81079694545E+02  0.81079694545E+02  0.00000000000E+00 0. -1.
          6    1    1    2  501    0 -0.26306524613E+02  0.23718696973E+02  0.13774304642E+03  0.22395704200E+03  0.17300000000E+03 0. -1.
         -6    1    1    2    0  502  0.26306524613E+02 -0.23718696973E+02  0.16733014243E+03  0.24327553595E+03  0.17300000000E+03 0. -1.
<mgrwt>
<rscale>  2 0.17658882E+03</rscale>
<asrwt>0</asrwt>
<pdfrwt beam="1">  1       21 0.59408135E-01 0.17658882E+03</pdfrwt>
<pdfrwt beam="2">  1       21 0.12473799E-01 0.17658882E+03</pdfrwt>
<totfact> 0.14569820E+05</totfact>
</mgrwt>
</event>
<event>
 4    1  0.3902417E-001  0.3732116E+03  0.7546771E-02  0.1053472E+00
         21   -1    0    0  503  502  0.00000000000E+00  0.00000000000E+00  0.43821555007E+03  0.43821555007E+03  0.00000000000E+00 0.  1.
         21   -1    0    0  501  503 -0.00000000000E+00 -0.00000000000E+00 -0.36983982822E+03  0.36983982822E+03  0.00000000000E+00 0. -1.
          6    1    1    2  501    0  0.20641777389E+03  0.25835938839E+03  0.18567052184E+03  0.41684579118E+03  0.17300000000E+03 0.  1.
         -6    1    1    2    0  502 -0.20641777389E+03 -0.25835938839E+03 -0.11729479998E+03  0.39120958711E+03  0.17300000000E+03 0. -1.
<mgrwt>
<rscale>  2 0.37321156E+03</rscale>
<asrwt>0</asrwt>
<pdfrwt beam="1">  1       21 0.67417777E-01 0.37321156E+03</pdfrwt>
<pdfrwt beam="2">  1       21 0.56898435E-01 0.37321156E+03</pdfrwt>
<totfact> 0.52879098E+03</totfact>
</mgrwt>
</event>
<event>
 4    1  0.3902417E-001  0.2389204E+03  0.7546771E-02  0.1120514E+00
         21   -1    0    0  503  502  0.00000000000E+00  0.00000000000E+00  0.26791315877E+04  0.26791315877E+04  0.00000000000E+00 0. -1.
         21   -1    0    0  501  503 -0.00000000000E+00 -0.00000000000E+00 -0.28573042190E+02  0.28573042190E+02  0.00000000000E+00 0. -1.
          6    1    1    2  501    0 -0.10305617631E+03  0.12858222650E+03  0.64253758231E+03  0.68551988238E+03  0.17300000000E+03 0. -1.
         -6    1    1    2    0  502  0.10305617631E+03 -0.12858222650E+03  0.20080209632E+04  0.20221847475E+04  0.17300000000E+03 0. -1.
<mgrwt>
<rscale>  2 0.23892041E+03</rscale>
<asrwt>0</asrwt>
<pdfrwt beam="1">  1       21 0.41217389E+00 0.23892041E+03</pdfrwt>
<pdfrwt beam="2">  1       21 0.43958548E-02 0.23892041E+03</pdfrwt>
<totfact> 0.22991967E+03</totfact>
</mgrwt>
</event>
<event>
 4    1  0.3902417E-001  0.1889068E+03  0.7546771E-02  0.1159451E+00
         21   -1    0    0  501  502  0.00000000000E+00  0.00000000000E+00  0.20473205975E+03  0.20473205975E+03  0.00000000000E+00 0.  1.
         21   -1    0    0  502  503 -0.00000000000E+00 -0.00000000000E+00 -0.17714573303E+03  0.17714573303E+03  0.00000000000E+00 0.  1.
          6    1    1    2  501    0  0.65541407973E+02  0.38224311495E+02 -0.10387155024E+02  0.18919214344E+03  0.17300000000E+03 0.  1.
         -6    1    1    2    0  503 -0.65541407973E+02 -0.38224311495E+02  0.37973481747E+02  0.19268564935E+03  0.17300000000E+03 0.  1.
<mgrwt>
<rscale>  2 0.18890679E+03</rscale>
<asrwt>0</asrwt>
<pdfrwt beam="1">  1       21 0.31497240E-01 0.18890679E+03</pdfrwt>
<pdfrwt beam="2">  1       21 0.27253190E-01 0.18890679E+03</pdfrwt>
<totfact> 0.12453052E+05</totfact>
</mgrwt>
</event>
<event>
 4    1  0.3902417E-001  0.1792867E+03  0.7546771E-02  0.1168495E+00
         21   -1    0    0  501  502  0.00000000000E+00  0.00000000000E+00  0.26018367233E+03  0.26018367233E+03  0.00000000000E+00 0.  1.
         21   -1    0    0  502  503 -0.00000000000E+00 -0.00000000000E+00 -0.12899288001E+03  0.12899288001E+03  0.00000000000E+00 0.  1.
          6    1    1    2  501    0 -0.42583611826E+02 -0.20033908945E+02  0.25596295204E+02  0.18110464332E+03  0.17300000000E+03 0.  1.
         -6    1    1    2    0  503  0.42583611826E+02  0.20033908945E+02  0.10559449711E+03  0.20807190902E+03  0.17300000000E+03 0.  1.
<mgrwt>
<rscale>  2 0.17928670E+03</rscale>
<asrwt>0</asrwt>
<pdfrwt beam="1">  1       21 0.40028257E-01 0.17928670E+03</pdfrwt>
<pdfrwt beam="2">  1       21 0.19845059E-01 0.17928670E+03</pdfrwt>
<totfact> 0.14149738E+05</totfact>
</mgrwt>
</event>
<event>
 4    1  0.3902417E-001  0.1799133E+03  0.7546771E-02  0.1167887E+00
         21   -1    0    0  503  502  0.00000000000E+00  0.00000000000E+00  0.21500649136E+03  0.21500649136E+03  0.00000000000E+00 0.  1.
         21   -1    0    0  501  503 -0.00000000000E+00 -0.00000000000E+00 -0.20944126145E+03  0.20944126145E+03  0.00000000000E+00 0.  1.
          6    1    1    2  501    0 -0.17748381158E+02  0.46095481872E+02 -0.10975453244E+03  0.21074832354E+03  0.17300000000E+03 0.  1.
         -6    1    1    2    0  502  0.17748381158E+02 -0.46095481872E+02  0.11531976235E+03  0.21369942927E+03  0.17300000000E+03 0.  1.
<mgrwt>
<rscale>  2 0.17991331E+03</rscale>
<asrwt>0</asrwt>
<pdfrwt beam="1">  1       21 0.33077922E-01 0.17991331E+03</pdfrwt>
<pdfrwt beam="2">  1       21 0.32221732E-01 0.17991331E+03</pdfrwt>
<totfact> 0.81953705E+04</totfact>
</mgrwt>
</event>
<event>
 4    1  0.3902417E-001  0.1766084E+03  0.7546771E-02  0.1171126E+00
         21   -1    0    0  503  502  0.00000000000E+00  0.00000000000E+00  0.22816069592E+03  0.22816069592E+03  0.00000000000E+00 0.  1.
         21   -1    0    0  501  503 -0.00000000000E+00 -0.00000000000E+00 -0.14544622489E+03  0.14544622489E+03  0.00000000000E+00 0.  1.
          6    1    1    2  501    0  0.29174079659E+02 -0.20258376443E+02 -0.44400087909E+01  0.17666420808E+03  0.17300000000E+03 0.  1.
         -6    1    1    2    0  502 -0.29174079659E+02  0.20258376443E+02  0.87154479822E+02  0.19694271272E+03  0.17300000000E+03 0.  1.
<mgrwt>
<rscale>  2 0.17660841E+03</rscale>
<asrwt>0</asrwt>
<pdfrwt beam="1">  1       21 0.35101645E-01 0.17660841E+03</pdfrwt>
<pdfrwt beam="2">  1       21 0.22376342E-01 0.17660841E+03</pdfrwt>
<totfact> 0.14704234E+05</totfact>
</mgrwt>
</event>
<event>
 4    1  0.3902417E-001  0.1758181E+03  0.7546771E-02  0.1171913E+00
         21   -1    0    0  503  502  0.00000000000E+00  0.00000000000E+00  0.71314730287E+02  0.71314730287E+02  0.00000000000E+00 0. -1.
         21   -1    0    0  501  503 -0.00000000000E+00 -0.00000000000E+00 -0.46427002488E+03  0.46427002488E+03  0.00000000000E+00 0. -1.
          6    1    1    2  501    0 -0.14229527675E+02  0.27937885142E+02 -0.12749074692E+03  0.21717710615E+03  0.17300000000E+03 0. -1.
         -6    1    1    2    0  502  0.14229527675E+02 -0.27937885142E+02 -0.26546454767E+03  0.31840764902E+03  0.17300000000E+03 0. -1.
<mgrwt>
<rscale>  2 0.17581810E+03</rscale>
<asrwt>0</asrwt>
<pdfrwt beam="1">  1       21 0.10971497E-01 0.17581810E+03</pdfrwt>
<pdfrwt beam="2">  1       21 0.71426156E-01 0.17581810E+03</pdfrwt>
<totfact> 0.12276693E+05</totfact>
</mgrwt>
</event>
<event>
 4    1  0.3902417E-001  0.1900048E+03  0.7546771E-02  0.1158457E+00
         21   -1    0    0  503  502  0.00000000000E+00  0.00000000000E+00  0.68121688808E+03  0.68121688808E+03  0.00000000000E+00 0. -1.
         21   -1    0    0  501  503 -0.00000000000E+00 -0.00000000000E+00 -0.55736413667E+02  0.55736413667E+02  0.00000000000E+00 0. -1.
          6    1    1    2  501    0 -0.89792793016E+01 -0.78052638523E+02  0.39444364901E+03  0.43782146371E+03  0.17300000000E+03 0. -1.
         -6    1    1    2    0  502  0.89792793016E+01  0.78052638523E+02  0.23103682540E+03  0.29913183804E+03  0.17300000000E+03 0. -1.
<mgrwt>
<rscale>  2 0.19000485E+03</rscale>
<asrwt>0</asrwt>
<pdfrwt beam="1">  1       21 0.10480259E+00 0.19000485E+03</pdfrwt>
<pdfrwt beam="2">  1       21 0.85748333E-02 0.19000485E+03</pdfrwt>
<totfact> 0.78124672E+04</totfact>
</mgrwt>
</event>
<event>
 4    1  0.3902417E-001  0.1863015E+03  0.7546771E-02  0.1161840E+00
         21   -1    0    0  501  502  0.00000000000E+00  0.00000000000E+00  0.74908984054E+03  0.74908984054E+03  0.00000000000E+00 0. -1.
         21   -1    0    0  502  503 -0.00000000000E+00 -0.00000000000E+00 -0.77116829387E+02  0.77116829387E+02  0.00000000000E+00 0. -1.
          6    1    1    2  501    0 -0.42202802181E+02  0.54755597960E+02  0.59698566446E+03  0.62537999296E+03  0.17300000000E+03 0. -1.
         -6    1    1    2    0  503  0.42202802181E+02 -0.54755597960E+02  0.74987346697E+02  0.20082667697E+03  0.17300000000E+03 0. -1.
<mgrwt>
<rscale>  2 0.18630151E+03</rscale>
<asrwt>0</asrwt>
<pdfrwt beam="1">  1       21 0.11524459E+00 0.18630151E+03</pdfrwt>
<pdfrwt beam="2">  1       21 0.11864128E-01 0.18630151E+03</pdfrwt>
<totfact> 0.35052759E+04</totfact>
</mgrwt>
</event>
<event>
 4    1  0.3902417E-001  0.2401454E+03  0.7546771E-02  0.1119696E+00
         21   -1    0    0  501  502  0.00000000000E+00  0.00000000000E+00  0.13761155306E+04  0.13761155306E+04  0.00000000000E+00 0. -1.
         21   -1    0    0  502  503 -0.00000000000E+00 -0.00000000000E+00 -0.44741698002E+02  0.44741698002E+02  0.00000000000E+00 0.  1.
          6    1    1    2  501    0 -0.16652151107E+03 -0.33746891457E+01  0.84448625708E+03  0.87796744847E+03  0.17300000000E+03 0. -1.
         -6    1    1    2    0  503  0.16652151107E+03  0.33746891457E+01  0.48688757550E+03  0.54288978011E+03  0.17300000000E+03 0.  1.
<mgrwt>
<rscale>  2 0.24014538E+03</rscale>
<asrwt>0</asrwt>
<pdfrwt beam="1">  1       21 0.21171005E+00 0.24014538E+03</pdfrwt>
<pdfrwt beam="2">  1       21 0.68833392E-02 0.24014538E+03</pdfrwt>
<totfact> 0.17020919E+04</totfact>
</mgrwt>
</event>
<event>
 4    1  0.3902417E-001  0.2184745E+03  0.7546771E-02  0.1135026E+00
         21   -1    0    0  503  502  0.00000000000E+00  0.00000000000E+00  0.22174258244E+03  0.22174258244E+03  0.00000000000E+00 0. -1.
         21   -1    0    0  501  503 -0.00000000000E+00 -0.00000000000E+00 -0.36835783524E+03  0.36835783524E+03  0.00000000000E+00 0. -1.
          6    1    1    2  501    0  0.91110545448E+02 -0.97472914605E+02 -0.26352633122E+03  0.34231159463E+03  0.17300000000E+03 0. -1.
         -6    1    1    2    0  502 -0.91110545448E+02  0.97472914605E+02  0.11691107842E+03  0.24778882305E+03  0.17300000000E+03 0. -1.
<mgrwt>
<rscale>  2 0.21847448E+03</rscale>
<asrwt>0</asrwt>
<pdfrwt beam="1">  1       21 0.34114244E-01 0.21847448E+03</pdfrwt>
<pdfrwt beam="2">  1       21 0.56670436E-01 0.21847448E+03</pdfrwt>
<totfact> 0.23887139E+04</totfact>
</mgrwt>
</event>
<event>
 4    1  0.3902417E-001  0.1827609E+03  0.7546771E-02  0.1165158E+00
         21   -1    0    0  501  502  0.00000000000E+00  0.00000000000E+00  0.25393934980E+03  0.25393934980E+03  0.00000000000E+00 0.  1.
         21   -1    0    0  502  503 -0.00000000000E+00 -0.00000000000E+00 -0.13690002512E+03  0.13690002512E+03  0.00000000000E+00 0.  1.
          6    1    1    2  501    0 -0.44044908822E+02 -0.39148127333E+02  0.19828356386E+02  0.18383333099E+03  0.17300000000E+03 0. -1.
         -6    1    1    2    0  503  0.44044908822E+02  0.39148127333E+02  0.97210968297E+02  0.20700604393E+03  0.17300000000E+03 0. -1.
<mgrwt>
<rscale>  2 0.18276085E+03</rscale>
<asrwt>0</asrwt>
<pdfrwt beam="1">  1       21 0.39067592E-01 0.18276085E+03</pdfrwt>
<pdfrwt beam="2">  1       21 0.21061542E-01 0.18276085E+03</pdfrwt>
<totfact> 0.13279934E+05</totfact>
</mgrwt>
</event>
<event>
 4    1  0.3902417E-001  0.2127008E+03  0.7546771E-02  0.1139445E+00
         21   -1    0    0  501  502  0.00000000000E+00  0.00000000000E+00  0.20563497292E+03  0.20563497292E+03  0.00000000000E+00 0.  1.
         21   -1    0    0  502  503 -0.00000000000E+00 -0.00000000000E+00 -0.22929469648E+03  0.22929469648E+03  0.00000000000E+00 0.  1.
          6    1    1    2  501    0  0.75902934443E+02  0.97731169882E+02  0.31931293952E+02  0.21508427315E+03  0.17300000000E+03 0.  1.
         -6    1    1    2    0  503 -0.75902934443E+02 -0.97731169882E+02 -0.55591017516E+02  0.21984539625E+03  0.17300000000E+03 0.  1.
<mgrwt>
<rscale>  2 0.21270082E+03</rscale>
<asrwt>0</asrwt>
<pdfrwt beam="1">  1       21 0.31636150E-01 0.21270082E+03</pdfrwt>
<pdfrwt beam="2">  1       21 0.35276107E-01 0.21270082E+03</pdfrwt>
<totfact> 0.73774539E+04</totfact>
</mgrwt>
</event>
<event>
 4    1  0.3902417E-001  0.1956950E+03  0.7546771E-02  0.1153423E+00
         21   -1    0    0  501  502  0.00000000000E+00  0.00000000000E+00  0.99699586909E+03  0.99699586909E+03  0.00000000000E+00 0. -1.
         21   -1    0    0  502  503 -0.00000000000E+00 -0.00000000000E+00 -0.50327812152E+02  0.50327812152E+02  0.00000000000E+00 0. -1.
          6    1    1    2  501    0  0.66734174765E+01 -0.91230366962E+02  0.72814046195E+03  0.75397947365E+03  0.17300000000E+03 0. -1.
         -6    1    1    2    0  503 -0.66734174765E+01  0.91230366962E+02  0.21852759499E+03  0.29334420759E+03  0.17300000000E+03 0. -1.
<mgrwt>
<rscale>  2 0.19569495E+03</rscale>
<asrwt>0</asrwt>
<pdfrwt beam="1">  1       21 0.15338397E+00 0.19569495E+03</pdfrwt>
<pdfrwt beam="2">  1       21 0.77427411E-02 0.19569495E+03</pdfrwt>
<totfact> 0.35728914E+04</totfact>
</mgrwt>
</event>
<event>
 4    1  0.3902417E-001  0.1873898E+03  0.7546771E-02  0.1160837E+00
         21   -1    0    0  501  502  0.00000000000E+00  0.00000000000E+00  0.42089381804E+02  0.42089381804E+02  0.00000000000E+00 0. -1.
         21   -1    0    0  502  503 -0.00000000000E+00 -0.00000000000E+00 -0.10929439152E+04  0.10929439152E+04  0.00000000000E+00 0. -1.
          6    1    1    2  501    0 -0.34494635337E+02  0.63214372072E+02 -0.24934692789E+03  0.31191156945E+03  0.17300000000E+03 0. -1.
         -6    1    1    2    0  503  0.34494635337E+02 -0.63214372072E+02 -0.80150760555E+03  0.82312172761E+03  0.17300000000E+03 0. -1.
<mgrwt>
<rscale>  2 0.18738980E+03</rscale>
<asrwt>0</asrwt>
<pdfrwt beam="1">  1       21 0.64752910E-02 0.18738980E+03</pdfrwt>
<pdfrwt beam="2">  1       21 0.16814518E+00 0.18738980E+03</pdfrwt>
<totfact> 0.38169505E+04</totfact>
</mgrwt>
</event>
<event>
 4    1  0.3902417E-001  0.2129026E+03  0.7546771E-02  0.1139288E+00
         21   -1    0    0  503  502  0.00000000000E+00  0.00000000000E+00  0.37360013299E+03  0.37360013299E+03  0.00000000000E+00 0. -1.
         21   -1    0    0  501  503 -0.00000000000E+00 -0.00000000000E+00 -0.12910839333E+03  0.12910839333E+03  0.00000000000E+00 0.  1.
          6    1    1    2  501    0  0.12303634392E+03  0.16142068390E+02  0.60535486461E+02  0.22134148599E+03  0.17300000000E+03 0. -1.
         -6    1    1    2    0  502 -0.12303634392E+03 -0.16142068390E+02  0.18395625320E+03  0.28136704034E+03  0.17300000000E+03 0.  1.
<mgrwt>
<rscale>  2 0.21290258E+03</rscale>
<asrwt>0</asrwt>
<pdfrwt beam="1">  1       21 0.57476943E-01 0.21290258E+03</pdfrwt>
<pdfrwt beam="2">  1       21 0.19862830E-01 0.21290258E+03</pdfrwt>
<totfact> 0.65816129E+04</totfact>
</mgrwt>
</event>
<event>
 4    1  0.3902417E-001  0.2802114E+03  0.7546771E-02  0.1095574E+00
         21   -1    0    0  501  502  0.00000000000E+00  0.00000000000E+00  0.90042901145E+03  0.90042901145E+03  0.00000000000E+00 0. -1.
         21   -1    0    0  502  503 -0.00000000000E+00 -0.00000000000E+00 -0.87482470002E+02  0.87482470002E+02  0.00000000000E+00 0.  1.
          6    1    1    2  501    0 -0.21200537047E+03  0.60358431252E+02  0.43448576578E+03  0.51700705797E+03  0.17300000000E+03 0.  1.
         -6    1    1    2    0  503  0.21200537047E+03 -0.60358431252E+02  0.37846077567E+03  0.47090442348E+03  0.17300000000E+03 0. -1.
<mgrwt>
<rscale>  2 0.28021138E+03</rscale>
<asrwt>0</asrwt>
<pdfrwt beam="1">  1       21 0.13852753E+00 0.28021138E+03</pdfrwt>
<pdfrwt beam="2">  1       21 0.13458842E-01 0.28021138E+03</pdfrwt>
<totfact> 0.16689524E+04</totfact>
</mgrwt>
</event>
<event>
 4    1  0.3902417E-001  0.1953704E+03  0.7546771E-02  0.1153705E+00
         21   -1    0    0  501  502  0.00000000000E+00  0.00000000000E+00  0.24680673579E+03  0.24680673579E+03  0.00000000000E+00 0.  1.
         21   -1    0    0  502  503 -0.00000000000E+00 -0.00000000000E+00 -0.16214112601E+03  0.16214112601E+03  0.00000000000E+00 0.  1.
          6    1    1    2  501    0 -0.79477013329E+02  0.43863585388E+02  0.86272144459E+02  0.21357081421E+03  0.17300000000E+03 0. -1.
         -6    1    1    2    0  503  0.79477013329E+02 -0.43863585388E+02 -0.16065346828E+01  0.19537704759E+03  0.17300000000E+03 0. -1.
<mgrwt>
<rscale>  2 0.19537044E+03</rscale>
<asrwt>0</asrwt>
<pdfrwt beam="1">  1       21 0.37970267E-01 0.19537044E+03</pdfrwt>
<pdfrwt beam="2">  1       21 0.24944789E-01 0.19537044E+03</pdfrwt>
<totfact> 0.10164038E+05</totfact>
</mgrwt>
</event>
<event>
 4    1  0.3902417E-001  0.1949930E+03  0.7546771E-02  0.1154034E+00
         21   -1    0    0  503  502  0.00000000000E+00  0.00000000000E+00  0.38747954156E+02  0.38747954156E+02  0.00000000000E+00 0. -1.
         21   -1    0    0  501  503 -0.00000000000E+00 -0.00000000000E+00 -0.10158094671E+04  0.10158094671E+04  0.00000000000E+00 0. -1.
          6    1    1    2  501    0 -0.21044424344E+02  0.87466574957E+02 -0.39130497322E+03  0.43719772598E+03  0.17300000000E+03 0. -1.
         -6    1    1    2    0  502  0.21044424344E+02 -0.87466574957E+02 -0.58575653976E+03  0.61735969532E+03  0.17300000000E+03 0. -1.
<mgrwt>
<rscale>  2 0.19499300E+03</rscale>
<asrwt>0</asrwt>
<pdfrwt beam="1">  1       21 0.59612240E-02 0.19499300E+03</pdfrwt>
<pdfrwt beam="2">  1       21 0.15627837E+00 0.19499300E+03</pdfrwt>
<totfact> 0.53388515E+04</totfact>
</mgrwt>
</event>
<event>
 4    1  0.3902417E-001  0.1922134E+03  0.7546771E-02  0.1156480E+00
         21   -1    0    0  503  502  0.00000000000E+00  0.00000000000E+00  0.19140670724E+03  0.19140670724E+03  0.00000000000E+00 0. -1.
         21   -1    0    0  501  503 -0.00000000000E+00 -0.00000000000E+00 -0.20083988552E+03  0.20083988552E+03  0.00000000000E+00 0. -1.
          6    1    1    2  501    0 -0.36556500308E+02  0.75369897392E+02 -0.43407257367E+02  0.19705377220E+03  0.17300000000E+03 0. -1.
         -6    1    1    2    0  502  0.36556500308E+02 -0.75369897392E+02  0.33974079092E+02  0.19519282056E+03  0.17300000000E+03 0. -1.
<mgrwt>
<rscale>  2 0.19221342E+03</rscale>
<asrwt>0</asrwt>
<pdfrwt beam="1">  1       21 0.29447186E-01 0.19221342E+03</pdfrwt>
<pdfrwt beam="2">  1       21 0.30898444E-01 0.19221342E+03</pdfrwt>
<totfact> 0.11117459E+05</totfact>
</mgrwt>
</event>
<event>
 4    1  0.3902417E-001  0.1774280E+03  0.7546771E-02  0.1170316E+00
         21   -1    0    0  503  502  0.00000000000E+00  0.00000000000E+00  0.64195763791E+02  0.64195763791E+02  0.00000000000E+00 0. -1.
         21   -1    0    0  501  503 -0.00000000000E+00 -0.00000000000E+00 -0.58566779981E+03  0.58566779981E+03  0.00000000000E+00 0. -1.
          6    1    1    2  501    0  0.34873586350E+02  0.18317796427E+02 -0.39179636751E+03  0.43009894476E+03  0.17300000000E+03 0. -1.
         -6    1    1    2    0  502 -0.34873586350E+02 -0.18317796427E+02 -0.12967566851E+03  0.21976461884E+03  0.17300000000E+03 0. -1.
<mgrwt>
<rscale>  2 0.17742804E+03</rscale>
<asrwt>0</asrwt>
<pdfrwt beam="1">  1       21 0.98762713E-02 0.17742804E+03</pdfrwt>
<pdfrwt beam="2">  1       21 0.90102739E-01 0.17742804E+03</pdfrwt>
<totfact> 0.87473921E+04</totfact>
</mgrwt>
</event>
<event>
 4    1  0.3902417E-001  0.1772990E+03  0.7546771E-02  0.1170443E+00
         21   -1    0    0  503  502  0.00000000000E+00  0.00000000000E+00  0.49424332067E+03  0.49424332067E+03  0.00000000000E+00 0.  1.
         21   -1    0    0  501  503 -0.00000000000E+00 -0.00000000000E+00 -0.95376173866E+02  0.95376173866E+02  0.00000000000E+00 0.  1.
          6    1    1    2  501    0 -0.22542421431E+02  0.31587497754E+02  0.29273330668E+02  0.17969935633E+03  0.17300000000E+03 0.  1.
         -6    1    1    2    0  502  0.22542421431E+02 -0.31587497754E+02  0.36959381614E+03  0.40992013820E+03  0.17300000000E+03 0.  1.
<mgrwt>
<rscale>  2 0.17729899E+03</rscale>
<asrwt>0</asrwt>
<pdfrwt beam="1">  1       21 0.76037432E-01 0.17729899E+03</pdfrwt>
<pdfrwt beam="2">  1       21 0.14673258E-01 0.17729899E+03</pdfrwt>
<totfact> 0.63395664E+04</totfact>
</mgrwt>
</event>
<event>
 4    1  0.3902417E-001  0.1765050E+03  0.7546771E-02  0.1171229E+00
         21   -1    0    0  503  502  0.00000000000E+00  0.00000000000E+00  0.65994109865E+03  0.65994109865E+03  0.00000000000E+00 0. -1.
         21   -1    0    0  501  503 -0.00000000000E+00 -0.00000000000E+00 -0.47472946449E+02  0.47472946449E+02  0.00000000000E+00 0. -1.
          6    1    1    2  501    0 -0.20227079578E+02 -0.28563638576E+02  0.27977352472E+03  0.33079788593E+03  0.17300000000E+03 0. -1.
         -6    1    1    2    0  502  0.20227079578E+02  0.28563638576E+02  0.33269462748E+03  0.37661615917E+03  0.17300000000E+03 0. -1.
<mgrwt>
<rscale>  2 0.17650500E+03</rscale>
<asrwt>0</asrwt>
<pdfrwt beam="1">  1       21 0.10152939E+00 0.17650500E+03</pdfrwt>
<pdfrwt beam="2">  1       21 0.73035307E-02 0.17650500E+03</pdfrwt>
<totfact> 0.11202158E+05</totfact>
</mgrwt>
</event>
<event>
 4    1  0.3902417E-001  0.2399891E+03  0.7546771E-02  0.1119800E+00
         21   -1    0    0  503  502  0.00000000000E+00  0.00000000000E+00  0.52454074540E+03  0.52454074540E+03  0.00000000000E+00 0. -1.
         21   -1    0    0  501  503 -0.00000000000E+00 -0.00000000000E+00 -0.11429713454E+03  0.11429713454E+03  0.00000000000E+00 0. -1.
          6    1    1    2  501    0 -0.22488199338E+02  0.16480303694E+03  0.14176492474E+03  0.27873294384E+03  0.17300000000E+03 0. -1.
         -6    1    1    2    0  502  0.22488199338E+02 -0.16480303694E+03  0.26847868612E+03  0.36010493609E+03  0.17300000000E+03 0. -1.
<mgrwt>
<rscale>  2 0.23998908E+03</rscale>
<asrwt>0</asrwt>
<pdfrwt beam="1">  1       21 0.80698575E-01 0.23998908E+03</pdfrwt>
<pdfrwt beam="2">  1       21 0.17584175E-01 0.23998908E+03</pdfrwt>
<totfact> 0.38619580E+04</totfact>
</mgrwt>
</event>
<event>
 4    1  0.3902417E-001  0.1846489E+03  0.7546771E-02  0.1163378E+00
         21   -1    0    0  503  502  0.00000000000E+00  0.00000000000E+00  0.20272578525E+03  0.20272578525E+03  0.00000000000E+00 0. -1.
         21   -1    0    0  501  503 -0.00000000000E+00 -0.00000000000E+00 -0.21396221765E+03  0.21396221765E+03  0.00000000000E+00 0. -1.
          6    1    1    2  501    0 -0.48050341658E+02  0.43097280549E+02 -0.10198834134E+03  0.21094272373E+03  0.17300000000E+03 0. -1.
         -6    1    1    2    0  502  0.48050341658E+02 -0.43097280549E+02  0.90751908944E+02  0.20574527917E+03  0.17300000000E+03 0. -1.
<mgrwt>
<rscale>  2 0.18464889E+03</rscale>
<asrwt>0</asrwt>
<pdfrwt beam="1">  1       21 0.31188582E-01 0.18464889E+03</pdfrwt>
<pdfrwt beam="2">  1       21 0.32917264E-01 0.18464889E+03</pdfrwt>
<totfact> 0.88029572E+04</totfact>
</mgrwt>
</event>
<event>
 4    1  0.3902417E-001  0.1812189E+03  0.7546771E-02  0.1166629E+00
         21   -1    0    0  503  502  0.00000000000E+00  0.00000000000E+00  0.74728910230E+02  0.74728910230E+02  0.00000000000E+00 0. -1.
         21   -1    0    0  501  503 -0.00000000000E+00 -0.00000000000E+00 -0.66440766669E+03  0.66440766669E+03  0.00000000000E+00 0. -1.
          6    1    1    2  501    0  0.53662939645E+01 -0.53688907614E+02 -0.79799480771E+02  0.19801073972E+03  0.17300000000E+03 0. -1.
         -6    1    1    2    0  502 -0.53662939645E+01  0.53688907614E+02 -0.50987927568E+03  0.54112583720E+03  0.17300000000E+03 0. -1.
<mgrwt>
<rscale>  2 0.18121892E+03</rscale>
<asrwt>0</asrwt>
<pdfrwt beam="1">  1       21 0.11496756E-01 0.18121892E+03</pdfrwt>
<pdfrwt beam="2">  1       21 0.10221656E+00 0.18121892E+03</pdfrwt>
<totfact> 0.49643645E+04</totfact>
</mgrwt>
</event>
<event>
 4    1  0.3902417E-001  0.5778174E+03  0.7546771E-02  0.9952527E-01
         21   -1    0    0  501  502  0.00000000000E+00  0.00000000000E+00  0.52509351204E+03  0.52509351204E+03  0.00000000000E+00 0.  1.
         21   -1    0    0  502  503 -0.00000000000E+00 -0.00000000000E+00 -0.63825166214E+03  0.63825166214E+03  0.00000000000E+00 0.  1.
          6    1    1    2  501    0 -0.14998218662E+03  0.53051797320E+03 -0.92369439650E+02  0.58515390247E+03  0.17300000000E+03 0.  1.
         -6    1    1    2    0  503  0.14998218662E+03 -0.53051797320E+03 -0.20788710448E+02  0.57819127171E+03  0.17300000000E+03 0.  1.
<mgrwt>
<rscale>  2 0.57781742E+03</rscale>
<asrwt>0</asrwt>
<pdfrwt beam="1">  1       21 0.80783617E-01 0.57781742E+03</pdfrwt>
<pdfrwt beam="2">  1       21 0.98192563E-01 0.57781742E+03</pdfrwt>
<totfact> 0.93571743E+02</totfact>
</mgrwt>
</event>
<event>
 4    1  0.3902417E-001  0.2153557E+03  0.7546771E-02  0.1137394E+00
         21   -1    0    0  501  502  0.00000000000E+00  0.00000000000E+00  0.32240180552E+03  0.32240180552E+03  0.00000000000E+00 0.  1.
         21   -1    0    0  502  503 -0.00000000000E+00 -0.00000000000E+00 -0.14674871259E+03  0.14674871259E+03  0.00000000000E+00 0.  1.
          6    1    1    2  501    0 -0.59962862025E+02 -0.11337350023E+03  0.12078442024E+03  0.24691490751E+03  0.17300000000E+03 0.  1.
         -6    1    1    2    0  503  0.59962862025E+02  0.11337350023E+03  0.54868672693E+02  0.22223561060E+03  0.17300000000E+03 0.  1.
<mgrwt>
<rscale>  2 0.21535574E+03</rscale>
<asrwt>0</asrwt>
<pdfrwt beam="1">  1       21 0.49600278E-01 0.21535574E+03</pdfrwt>
<pdfrwt beam="2">  1       21 0.22576725E-01 0.21535574E+03</pdfrwt>
<totfact> 0.70522942E+04</totfact>
</mgrwt>
</event>
<event>
 4    1  0.3902417E-001  0.2248491E+03  0.7546771E-02  0.1130319E+00
         21   -1    0    0  503  502  0.00000000000E+00  0.00000000000E+00  0.45373813919E+03  0.45373813919E+03  0.00000000000E+00 0. -1.
         21   -1    0    0  501  503 -0.00000000000E+00 -0.00000000000E+00 -0.11719934343E+03  0.11719934343E+03  0.00000000000E+00 0.  1.
          6    1    1    2  501    0  0.46985354512E+02 -0.13572211434E+03  0.10489677786E+03  0.24811378411E+03  0.17300000000E+03 0. -1.
         -6    1    1    2    0  502 -0.46985354512E+02  0.13572211434E+03  0.23164201791E+03  0.32282369851E+03  0.17300000000E+03 0. -1.
<mgrwt>
<rscale>  2 0.22484910E+03</rscale>
<asrwt>0</asrwt>
<pdfrwt beam="1">  1       21 0.69805866E-01 0.22484910E+03</pdfrwt>
<pdfrwt beam="2">  1       21 0.18030669E-01 0.22484910E+03</pdfrwt>
<totfact> 0.51388668E+04</totfact>
</mgrwt>
</event>
<event>
 4    1  0.3902417E-001  0.1823435E+03  0.7546771E-02  0.1165554E+00
         21   -1    0    0  501  502  0.00000000000E+00  0.00000000000E+00  0.48397494374E+02  0.48397494374E+02  0.00000000000E+00 0. -1.
         21   -1    0    0  502  503 -0.00000000000E+00 -0.00000000000E+00 -0.11970450610E+04  0.11970450610E+04  0.00000000000E+00 0. -1.
          6    1    1    2  501    0  0.34024654929E+02  0.46502372994E+02 -0.16784103314E+03  0.24783010359E+03  0.17300000000E+03 0. -1.
         -6    1    1    2    0  503 -0.34024654929E+02 -0.46502372994E+02 -0.98080653344E+03  0.99761245175E+03  0.17300000000E+03 0. -1.
<mgrwt>
<rscale>  2 0.18234349E+03</rscale>
<asrwt>0</asrwt>
<pdfrwt beam="1">  1       21 0.74457687E-02 0.18234349E+03</pdfrwt>
<pdfrwt beam="2">  1       21 0.18416077E+00 0.18234349E+03</pdfrwt>
<totfact> 0.23357058E+04</totfact>
</mgrwt>
</event>
<event>
 4    1  0.3902417E-001  0.1804564E+03  0.7546771E-02  0.1167362E+00
         21   -1    0    0  501  502  0.00000000000E+00  0.00000000000E+00  0.64213850292E+03  0.64213850292E+03  0.00000000000E+00 0. -1.
         21   -1    0    0  502  503 -0.00000000000E+00 -0.00000000000E+00 -0.62396967061E+02  0.62396967061E+02  0.00000000000E+00 0. -1.
          6    1    1    2  501    0  0.19330606416E+02 -0.47558659435E+02  0.44230908502E+03  0.47770474681E+03  0.17300000000E+03 0. -1.
         -6    1    1    2    0  503 -0.19330606416E+02  0.47558659435E+02  0.13743245084E+03  0.22683072317E+03  0.17300000000E+03 0. -1.
<mgrwt>
<rscale>  2 0.18045636E+03</rscale>
<asrwt>0</asrwt>
<pdfrwt beam="1">  1       21 0.98790534E-01 0.18045636E+03</pdfrwt>
<pdfrwt beam="2">  1       21 0.95995338E-02 0.18045636E+03</pdfrwt>
<totfact> 0.74092046E+04</totfact>
</mgrwt>
</event>
<event>
 4    1  0.3902417E-001  0.2275554E+03  0.7546771E-02  0.1128372E+00
         21   -1    0    0  503  502  0.00000000000E+00  0.00000000000E+00  0.89563713250E+03  0.89563713250E+03  0.00000000000E+00 0. -1.
         21   -1    0    0  501  503 -0.00000000000E+00 -0.00000000000E+00 -0.62027015527E+02  0.62027015527E+02  0.00000000000E+00 0. -1.
          6    1    1    2  501    0 -0.47962408680E+02  0.13982877640E+03  0.29203074396E+03  0.37022079192E+03  0.17300000000E+03 0. -1.
         -6    1    1    2    0  502  0.47962408680E+02 -0.13982877640E+03  0.54157937302E+03  0.58744335611E+03  0.17300000000E+03 0. -1.
<mgrwt>
<rscale>  2 0.22755544E+03</rscale>
<asrwt>0</asrwt>
<pdfrwt beam="1">  1       21 0.13779032E+00 0.22755544E+03</pdfrwt>
<pdfrwt beam="2">  1       21 0.95426184E-02 0.22755544E+03</pdfrwt>
<totfact> 0.32202782E+04</totfact>
</mgrwt>
</event>
<event>
 4    1  0.3902417E-001  0.2355991E+03  0.7546771E-02  0.1122760E+00
         21   -1    0    0  501  502  0.00000000000E+00  0.00000000000E+00  0.14748965111E+03  0.14748965111E+03  0.00000000000E+00 0. -1.
         21   -1    0    0  502  503 -0.00000000000E+00 -0.00000000000E+00 -0.47590242109E+03  0.47590242109E+03  0.00000000000E+00 0. -1.
          6    1    1    2  501    0  0.14265356906E+03 -0.72304199392E+02 -0.21642359187E+02  0.23659106012E+03  0.17300000000E+03 0. -1.
         -6    1    1    2    0  503 -0.14265356906E+03  0.72304199392E+02 -0.30677041079E+03  0.38680101208E+03  0.17300000000E+03 0. -1.
<mgrwt>
<rscale>  2 0.23559910E+03</rscale>
<asrwt>0</asrwt>
<pdfrwt beam="1">  1       21 0.22690715E-01 0.23559910E+03</pdfrwt>
<pdfrwt beam="2">  1       21 0.73215759E-01 0.23559910E+03</pdfrwt>
<totfact> 0.29866941E+04</totfact>
</mgrwt>
</event>
<event>
 4    1  0.3902417E-001  0.2624190E+03  0.7546771E-02  0.1105698E+00
         21   -1    0    0  503  502  0.00000000000E+00  0.00000000000E+00  0.19183465300E+03  0.19183465300E+03  0.00000000000E+00 0.  1.
         21   -1    0    0  501  503 -0.00000000000E+00 -0.00000000000E+00 -0.42329045373E+03  0.42329045373E+03  0.00000000000E+00 0.  1.
          6    1    1    2  501    0 -0.17771780920E+03  0.85738731939E+02 -0.23561530436E+03  0.35267310858E+03  0.17300000000E+03 0.  1.
         -6    1    1    2    0  502  0.17771780920E+03 -0.85738731939E+02  0.41595036319E+01  0.26245199815E+03  0.17300000000E+03 0.  1.
<mgrwt>
<rscale>  2 0.26241903E+03</rscale>
<asrwt>0</asrwt>
<pdfrwt beam="1">  1       21 0.29513023E-01 0.26241903E+03</pdfrwt>
<pdfrwt beam="2">  1       21 0.65121609E-01 0.26241903E+03</pdfrwt>
<totfact> 0.23031572E+04</totfact>
</mgrwt>
</event>
<event>
 4    1  0.3902417E-001  0.1905566E+03  0.7546771E-02  0.1157960E+00
         21   -1    0    0  501  502  0.00000000000E+00  0.00000000000E+00  0.41037812179E+02  0.41037812179E+02  0.00000000000E+00 0.  1.
         21   -1    0    0  502  503 -0.00000000000E+00 -0.00000000000E+00 -0.14401378891E+04  0.14401378891E+04  0.00000000000E+00 0.  1.
          6    1    1    2  501    0  0.55386206159E+02  0.57577709205E+02 -0.23967667576E+03  0.30619721313E+03  0.17300000000E+03 0.  1.
         -6    1    1    2    0  503 -0.55386206159E+02 -0.57577709205E+02 -0.11594234011E+04  0.11749784881E+04  0.17300000000E+03 0.  1.
<mgrwt>
<rscale>  2 0.19055662E+03</rscale>
<asrwt>0</asrwt>
<pdfrwt beam="1">  1       21 0.63135098E-02 0.19055662E+03</pdfrwt>
<pdfrwt beam="2">  1       21 0.22155967E+00 0.19055662E+03</pdfrwt>
<totfact> 0.17812301E+04</totfact>
</mgrwt>
</event>
<event>
 4    1  0.3902417E-001  0.2229909E+03  0.7546771E-02  0.1131673E+00
         21   -1    0    0  503  502  0.00000000000E+00  0.00000000000E+00  0.63834668898E+03  0.63834668898E+03  0.00000000000E+00 0.  1.
         21   -1    0    0  501  503 -0.00000000000E+00 -0.00000000000E+00 -0.11708452833E+03  0.11708452833E+03  0.00000000000E+00 0. -1.
          6    1    1    2  501    0 -0.79961202994E+01 -0.14047069437E+03  0.42110649714E+02  0.22693228227E+03  0.17300000000E+03 0. -1.
         -6    1    1    2    0  502  0.79961202994E+01  0.14047069437E+03  0.47915151093E+03  0.52849893504E+03  0.17300000000E+03 0.  1.
<mgrwt>
<rscale>  2 0.22299093E+03</rscale>
<asrwt>0</asrwt>
<pdfrwt beam="1">  1       21 0.98207181E-01 0.22299093E+03</pdfrwt>
<pdfrwt beam="2">  1       21 0.18013005E-01 0.22299093E+03</pdfrwt>
<totfact> 0.23605961E+04</totfact>
</mgrwt>
</event>
<event>
 4    1  0.3902417E-001  0.1738548E+03  0.7546771E-02  0.1173886E+00
         21   -1    0    0  501  502  0.00000000000E+00  0.00000000000E+00  0.59681844452E+02  0.59681844452E+02  0.00000000000E+00 0. -1.
         21   -1    0    0  502  503 -0.00000000000E+00 -0.00000000000E+00 -0.61538895886E+03  0.61538895886E+03  0.00000000000E+00 0. -1.
          6    1    1    2  501    0 -0.14845891800E+02 -0.87231958874E+01 -0.41987326989E+03  0.45444367904E+03  0.17300000000E+03 0. -1.
         -6    1    1    2    0  503  0.14845891800E+02  0.87231958874E+01 -0.13583384452E+03  0.22062712428E+03  0.17300000000E+03 0. -1.
<mgrwt>
<rscale>  2 0.17385481E+03</rscale>
<asrwt>0</asrwt>
<pdfrwt beam="1">  1       21 0.91818219E-02 0.17385481E+03</pdfrwt>
<pdfrwt beam="2">  1       21 0.94675227E-01 0.17385481E+03</pdfrwt>
<totfact> 0.88777540E+04</totfact>
</mgrwt>
</event>
<event>
 4    1  0.3902417E-001  0.1791603E+03  0.7546771E-02  0.1168618E+00
         21   -1    0    0  503  502  0.00000000000E+00  0.00000000000E+00  0.84085732147E+02  0.84085732147E+02  0.00000000000E+00 0.  1.
         21   -1    0    0  501  503 -0.00000000000E+00 -0.00000000000E+00 -0.43433608888E+03  0.43433608888E+03  0.00000000000E+00 0.  1.
          6    1    1    2  501    0  0.15560206200E+02 -0.43900810080E+02 -0.26533231924E+03  0.32015565086E+03  0.17300000000E+03 0.  1.
         -6    1    1    2    0  502 -0.15560206200E+02  0.43900810080E+02 -0.84918037496E+02  0.19826617017E+03  0.17300000000E+03 0.  1.
<mgrwt>
<rscale>  2 0.17916027E+03</rscale>
<asrwt>0</asrwt>
<pdfrwt beam="1">  1       21 0.12936267E-01 0.17916027E+03</pdfrwt>
<pdfrwt beam="2">  1       21 0.66820936E-01 0.17916027E+03</pdfrwt>
<totfact> 0.10577231E+05</totfact>
</mgrwt>
</event>
<event>
 4    1  0.3902417E-001  0.2668462E+03  0.7546771E-02  0.1103098E+00
         21   -1    0    0  501  502  0.00000000000E+00  0.00000000000E+00  0.16060520280E+03  0.16060520280E+03  0.00000000000E+00 0.  1.
         21   -1    0    0  502  503 -0.00000000000E+00 -0.00000000000E+00 -0.44379521729E+03  0.44379521729E+03  0.00000000000E+00 0.  1.
          6    1    1    2  501    0  0.10644264828E+02 -0.20289058977E+03 -0.15099277914E+03  0.30660350804E+03  0.17300000000E+03 0. -1.
         -6    1    1    2    0  503 -0.10644264828E+02  0.20289058977E+03 -0.13219723535E+03  0.29779691205E+03  0.17300000000E+03 0. -1.
<mgrwt>
<rscale>  2 0.26684620E+03</rscale>
<asrwt>0</asrwt>
<pdfrwt beam="1">  1       21 0.24708493E-01 0.26684620E+03</pdfrwt>
<pdfrwt beam="2">  1       21 0.68276187E-01 0.26684620E+03</pdfrwt>
<totfact> 0.29236592E+04</totfact>
</mgrwt>
</event>
<event>
 4    1  0.3902417E-001  0.2134177E+03  0.7546771E-02  0.1138888E+00
         21   -1    0    0  503  502  0.00000000000E+00  0.00000000000E+00  0.34905605384E+03  0.34905605384E+03  0.00000000000E+00 0.  1.
         21   -1    0    0  501  503 -0.00000000000E+00 -0.00000000000E+00 -0.13437861149E+03  0.13437861149E+03  0.00000000000E+00 0.  1.
          6    1    1    2  501    0  0.11576173390E+03  0.47088632360E+02  0.66201697477E+02  0.22344973278E+03  0.17300000000E+03 0.  1.
         -6    1    1    2    0  502 -0.11576173390E+03 -0.47088632360E+02  0.14847574487E+03  0.25998493254E+03  0.17300000000E+03 0.  1.
<mgrwt>
<rscale>  2 0.21341771E+03</rscale>
<asrwt>0</asrwt>
<pdfrwt beam="1">  1       21 0.53700931E-01 0.21341771E+03</pdfrwt>
<pdfrwt beam="2">  1       21 0.20673633E-01 0.21341771E+03</pdfrwt>
<totfact> 0.70527851E+04</totfact>
</mgrwt>
</event>
<event>
 4    1  0.3902417E-001  0.1945568E+03  0.7546771E-02  0.1154414E+00
         21   -1    0    0  501  502  0.00000000000E+00  0.00000000000E+00  0.48684619174E+03  0.48684619174E+03  0.00000000000E+00 0. -1.
         21   -1    0    0  502  503 -0.00000000000E+00 -0.00000000000E+00 -0.11358009717E+03  0.11358009717E+03  0.00000000000E+00 0.  1.
          6    1    1    2  501    0 -0.28177225010E+02  0.84435685137E+02  0.35525028169E+03  0.40503716320E+03  0.17300000000E+03 0. -1.
         -6    1    1    2    0  503  0.28177225010E+02 -0.84435685137E+02  0.18015812878E+02  0.19538912571E+03  0.17300000000E+03 0. -1.
<mgrwt>
<rscale>  2 0.19455678E+03</rscale>
<asrwt>0</asrwt>
<pdfrwt beam="1">  1       21 0.74899413E-01 0.19455678E+03</pdfrwt>
<pdfrwt beam="2">  1       21 0.17473861E-01 0.19455678E+03</pdfrwt>
<totfact> 0.47250028E+04</totfact>
</mgrwt>
</event>
<event>
 4    1  0.3902417E-001  0.2291929E+03  0.7546771E-02  0.1127209E+00
         21   -1    0    0  503  502  0.00000000000E+00  0.00000000000E+00  0.26772602459E+03  0.26772602459E+03  0.00000000000E+00 0. -1.
         21   -1    0    0  501  503 -0.00000000000E+00 -0.00000000000E+00 -0.20768767463E+03  0.20768767463E+03  0.00000000000E+00 0. -1.
          6    1    1    2  501    0  0.98439531705E+02  0.11362230277E+03  0.85910555368E+02  0.24476517852E+03  0.17300000000E+03 0. -1.
         -6    1    1    2    0  502 -0.98439531705E+02 -0.11362230277E+03 -0.25872205407E+02  0.23064852070E+03  0.17300000000E+03 0. -1.
<mgrwt>
<rscale>  2 0.22919286E+03</rscale>
<asrwt>0</asrwt>
<pdfrwt beam="1">  1       21 0.41188619E-01 0.22919286E+03</pdfrwt>
<pdfrwt beam="2">  1       21 0.31951950E-01 0.22919286E+03</pdfrwt>
<totfact> 0.52587461E+04</totfact>
</mgrwt>
</event>
<event>
 4    1  0.3902417E-001  0.1881884E+03  0.7546771E-02  0.1160106E+00
         21   -1    0    0  503  502  0.00000000000E+00  0.00000000000E+00  0.50309938702E+03  0.50309938702E+03  0.00000000000E+00 0. -1.
         21   -1    0    0  501  503 -0.00000000000E+00 -0.00000000000E+00 -0.71393393902E+02  0.71393393902E+02  0.00000000000E+00 0. -1.
          6    1    1    2  501    0 -0.39645380292E+02  0.62562824549E+02  0.18185683083E+03  0.26169977095E+03  0.17300000000E+03 0. -1.
         -6    1    1    2    0  502  0.39645380292E+02 -0.62562824549E+02  0.24984916229E+03  0.31279300998E+03  0.17300000000E+03 0. -1.
<mgrwt>
<rscale>  2 0.18818837E+03</rscale>
<asrwt>0</asrwt>
<pdfrwt beam="1">  1       21 0.77399904E-01 0.18818837E+03</pdfrwt>
<pdfrwt beam="2">  1       21 0.10983599E-01 0.18818837E+03</pdfrwt>
<totfact> 0.10198943E+05</totfact>
</mgrwt>
</event>
<event>
 4    1  0.3902417E-001  0.1968859E+03  0.7546771E-02  0.1152393E+00
         21   -1    0    0  503  502  0.00000000000E+00  0.00000000000E+00  0.28837231159E+03  0.28837231159E+03  0.00000000000E+00 0.  1.
         21   -1    0    0  501  503 -0.00000000000E+00 -0.00000000000E+00 -0.40983532201E+03  0.40983532201E+03  0.00000000000E+00 0.  1.
          6    1    1    2  501    0 -0.43800016722E+02  0.83166289146E+02 -0.34691266252E+03  0.39888904288E+03  0.17300000000E+03 0.  1.
         -6    1    1    2    0  502  0.43800016722E+02 -0.83166289146E+02  0.22544965210E+03  0.29931859072E+03  0.17300000000E+03 0.  1.
<mgrwt>
<rscale>  2 0.19688594E+03</rscale>
<asrwt>0</asrwt>
<pdfrwt beam="1">  1       21 0.44364971E-01 0.19688594E+03</pdfrwt>
<pdfrwt beam="2">  1       21 0.63051588E-01 0.19688594E+03</pdfrwt>
<totfact> 0.11327387E+04</totfact>
</mgrwt>
</event>
<event>
 4    1  0.3902417E-001  0.1873942E+03  0.7546771E-02  0.1160833E+00
         21   -1    0    0  503  502  0.00000000000E+00  0.00000000000E+00  0.20555650870E+03  0.20555650870E+03  0.00000000000E+00 0. -1.
         21   -1    0    0  501  503 -0.00000000000E+00 -0.00000000000E+00 -0.22588820955E+03  0.22588820955E+03  0.00000000000E+00 0. -1.
          6    1    1    2  501    0 -0.38129254587E+02 -0.61104500711E+02 -0.11666175581E+03  0.22074094621E+03  0.17300000000E+03 0.  1.
         -6    1    1    2    0  502  0.38129254587E+02  0.61104500711E+02  0.96330054965E+02  0.21070377204E+03  0.17300000000E+03 0.  1.
<mgrwt>
<rscale>  2 0.18739424E+03</rscale>
<asrwt>0</asrwt>
<pdfrwt beam="1">  1       21 0.31624079E-01 0.18739424E+03</pdfrwt>
<pdfrwt beam="2">  1       21 0.34752032E-01 0.18739424E+03</pdfrwt>
<totfact> 0.76885668E+04</totfact>
</mgrwt>
</event>
<event>
 4    1  0.3902417E-001  0.1893641E+03  0.7546771E-02  0.1159036E+00
         21   -1    0    0  503  502  0.00000000000E+00  0.00000000000E+00  0.33485416454E+02  0.33485416454E+02  0.00000000000E+00 0.  1.
         21   -1    0    0  501  503 -0.00000000000E+00 -0.00000000000E+00 -0.11423756756E+04  0.11423756756E+04  0.00000000000E+00 0. -1.
          6    1    1    2  501    0  0.75047440533E+02 -0.17252152327E+02 -0.40735917442E+03  0.44922182947E+03  0.17300000000E+03 0.  1.
         -6    1    1    2    0  502 -0.75047440533E+02  0.17252152327E+02 -0.70153108475E+03  0.72663926261E+03  0.17300000000E+03 0. -1.
<mgrwt>
<rscale>  2 0.18936408E+03</rscale>
<asrwt>0</asrwt>
<pdfrwt beam="1">  1       21 0.51516033E-02 0.18936408E+03</pdfrwt>
<pdfrwt beam="2">  1       21 0.17575008E+00 0.18936408E+03</pdfrwt>
<totfact> 0.49854047E+04</totfact>
</mgrwt>
</event>
<event>
 4    1  0.3902417E-001  0.2111026E+03  0.7546771E-02  0.1140696E+00
         21   -1    0    0  501  502  0.00000000000E+00  0.00000000000E+00  0.32592296494E+04  0.32592296494E+04  0.00000000000E+00 0.  1.
         21   -1    0    0  502  503 -0.00000000000E+00 -0.00000000000E+00 -0.13739646526E+02  0.13739646526E+02  0.00000000000E+00 0.  1.
          6    1    1    2  501    0  0.77328899526E+01 -0.12072909198E+03  0.17364939067E+04  0.17492785367E+04  0.17300000000E+03 0. -1.
         -6    1    1    2    0  503 -0.77328899526E+01  0.12072909198E+03  0.15089960963E+04  0.15236907592E+04  0.17300000000E+03 0. -1.
<mgrwt>
<rscale>  2 0.21110261E+03</rscale>
<asrwt>0</asrwt>
<pdfrwt beam="1">  1       21 0.50141933E+00 0.21110261E+03</pdfrwt>
<pdfrwt beam="2">  1       21 0.21137944E-02 0.21110261E+03</pdfrwt>
<totfact> 0.20261856E+03</totfact>
</mgrwt>
</event>
<event>
 4    1  0.3902417E-001  0.1862327E+03  0.7546771E-02  0.1161904E+00
         21   -1    0    0  501  502  0.00000000000E+00  0.00000000000E+00  0.38079619161E+02  0.38079619161E+02  0.00000000000E+00 0.  1.
         21   -1    0    0  502  503 -0.00000000000E+00 -0.00000000000E+00 -0.10879726195E+04  0.10879726195E+04  0.00000000000E+00 0.  1.
          6    1    1    2  501    0  0.60751501954E+02  0.32601813695E+02 -0.29773656298E+03  0.35118326296E+03  0.17300000000E+03 0.  1.
         -6    1    1    2    0  503 -0.60751501954E+02 -0.32601813695E+02 -0.75215643732E+03  0.77486897566E+03  0.17300000000E+03 0.  1.
<mgrwt>
<rscale>  2 0.18623271E+03</rscale>
<asrwt>0</asrwt>
<pdfrwt beam="1">  1       21 0.58584039E-02 0.18623271E+03</pdfrwt>
<pdfrwt beam="2">  1       21 0.16738038E+00 0.18623271E+03</pdfrwt>
<totfact> 0.45912417E+04</totfact>
</mgrwt>
</event>
<event>
 4    1  0.3902417E-001  0.2168208E+03  0.7546771E-02  0.1136276E+00
         21   -1    0    0  501  502  0.00000000000E+00  0.00000000000E+00  0.61060307596E+03  0.61060307596E+03  0.00000000000E+00 0. -1.
         21   -1    0    0  502  503 -0.00000000000E+00 -0.00000000000E+00 -0.89044426414E+02  0.89044426414E+02  0.00000000000E+00 0. -1.
          6    1    1    2  501    0  0.10141483922E+03 -0.82445774004E+02  0.13207553581E+03  0.25388033091E+03  0.17300000000E+03 0. -1.
         -6    1    1    2    0  503 -0.10141483922E+03  0.82445774004E+02  0.38948311374E+03  0.44576717147E+03  0.17300000000E+03 0. -1.
<mgrwt>
<rscale>  2 0.21682084E+03</rscale>
<asrwt>0</asrwt>
<pdfrwt beam="1">  1       21 0.93938932E-01 0.21682084E+03</pdfrwt>
<pdfrwt beam="2">  1       21 0.13699143E-01 0.21682084E+03</pdfrwt>
<totfact> 0.43438558E+04</totfact>
</mgrwt>
</event>
<event>
 4    1  0.3902417E-001  0.2198227E+03  0.7546771E-02  0.1134015E+00
         21   -1    0    0  501  502  0.00000000000E+00  0.00000000000E+00  0.11233828612E+03  0.11233828612E+03  0.00000000000E+00 0.  1.
         21   -1    0    0  502  503 -0.00000000000E+00 -0.00000000000E+00 -0.82363315211E+03  0.82363315211E+03  0.00000000000E+00 0. -1.
          6    1    1    2  501    0 -0.10930394622E+03 -0.80284919907E+02 -0.32180269674E+02  0.22216568317E+03  0.17300000000E+03 0.  1.
         -6    1    1    2    0  503  0.10930394622E+03  0.80284919907E+02 -0.67911459632E+03  0.71380575506E+03  0.17300000000E+03 0. -1.
<mgrwt>
<rscale>  2 0.21982270E+03</rscale>
<asrwt>0</asrwt>
<pdfrwt beam="1">  1       21 0.17282814E-01 0.21982270E+03</pdfrwt>
<pdfrwt beam="2">  1       21 0.12671279E+00 0.21982270E+03</pdfrwt>
<totfact> 0.13701250E+04</totfact>
</mgrwt>
</event>
<event>
 4    1  0.3902417E-001  0.1866044E+03  0.7546771E-02  0.1161560E+00
         21   -1    0    0  501  502  0.00000000000E+00  0.00000000000E+00  0.50216183380E+02  0.50216183380E+02  0.00000000000E+00 0.  1.
         21   -1    0    0  502  503 -0.00000000000E+00 -0.00000000000E+00 -0.92042933172E+03  0.92042933172E+03  0.00000000000E+00 0.  1.
          6    1    1    2  501    0  0.22735985530E+02  0.66145845169E+02 -0.19408732763E+03  0.26924169182E+03  0.17300000000E+03 0.  1.
         -6    1    1    2    0  503 -0.22735985530E+02 -0.66145845169E+02 -0.67612582071E+03  0.70140382327E+03  0.17300000000E+03 0.  1.
<mgrwt>
<rscale>  2 0.18660439E+03</rscale>
<asrwt>0</asrwt>
<pdfrwt beam="1">  1       21 0.77255666E-02 0.18660439E+03</pdfrwt>
<pdfrwt beam="2">  1       21 0.14160451E+00 0.18660439E+03</pdfrwt>
<totfact> 0.44451398E+04</totfact>
</mgrwt>
</event>
<event>
 4    1  0.3902417E-001  0.2983915E+03  0.7546771E-02  0.1086047E+00
         21   -1    0    0  503  502  0.00000000000E+00  0.00000000000E+00  0.77253418018E+03  0.77253418018E+03  0.00000000000E+00 0. -1.
         21   -1    0    0  501  503 -0.00000000000E+00 -0.00000000000E+00 -0.13559707532E+03  0.13559707532E+03  0.00000000000E+00 0.  1.
          6    1    1    2  501    0 -0.88739754389E+02 -0.22634873563E+03  0.49434350138E+03  0.57741925105E+03  0.17300000000E+03 0. -1.
         -6    1    1    2    0  502  0.88739754389E+02  0.22634873563E+03  0.14259360348E+03  0.33071200445E+03  0.17300000000E+03 0.  1.
<mgrwt>
<rscale>  2 0.29839151E+03</rscale>
<asrwt>0</asrwt>
<pdfrwt beam="1">  1       21 0.11885141E+00 0.29839151E+03</pdfrwt>
<pdfrwt beam="2">  1       21 0.20861089E-01 0.29839151E+03</pdfrwt>
<totfact> 0.10848093E+04</totfact>
</mgrwt>
</event>
<event>
 4    1  0.3902417E-001  0.2087460E+03  0.7546771E-02  0.1142563E+00
         21   -1    0    0  501  502  0.00000000000E+00  0.00000000000E+00  0.30509219868E+03  0.30509219868E+03  0.00000000000E+00 0.  1.
         21   -1    0    0  502  503 -0.00000000000E+00 -0.00000000000E+00 -0.15375502307E+03  0.15375502307E+03  0.00000000000E+00 0.  1.
          6    1    1    2  501    0  0.10986937227E+03  0.39681466466E+02  0.13683699770E+03  0.24959820049E+03  0.17300000000E+03 0.  1.
         -6    1    1    2    0  503 -0.10986937227E+03 -0.39681466466E+02  0.14500177905E+02  0.20924902127E+03  0.17300000000E+03 0.  1.
<mgrwt>
<rscale>  2 0.20874601E+03</rscale>
<asrwt>0</asrwt>
<pdfrwt beam="1">  1       21 0.46937261E-01 0.20874601E+03</pdfrwt>
<pdfrwt beam="2">  1       21 0.23654619E-01 0.20874601E+03</pdfrwt>
<totfact> 0.72598839E+04</totfact>
</mgrwt>
</event>
<event>
 4    1  0.3902417E-001  0.2823381E+03  0.7546771E-02  0.1094419E+00
         21   -1    0    0  503  502  0.00000000000E+00  0.00000000000E+00  0.76483049992E+03  0.76483049992E+03  0.00000000000E+00 0.  1.
         21   -1    0    0  501  503 -0.00000000000E+00 -0.00000000000E+00 -0.12970520645E+03  0.12970520645E+03  0.00000000000E+00 0. -1.
          6    1    1    2  501    0  0.16420375578E+03 -0.15107267423E+03  0.51580039548E+03  0.58801774998E+03  0.17300000000E+03 0.  1.
         -6    1    1    2    0  502 -0.16420375578E+03  0.15107267423E+03  0.11932489799E+03  0.30651795639E+03  0.17300000000E+03 0. -1.
<mgrwt>
<rscale>  2 0.28233814E+03</rscale>
<asrwt>0</asrwt>
<pdfrwt beam="1">  1       21 0.11766623E+00 0.28233814E+03</pdfrwt>
<pdfrwt beam="2">  1       21 0.19954648E-01 0.28233814E+03</pdfrwt>
<totfact> 0.12188718E+04</totfact>
</mgrwt>
</event>
<event>
 4    1  0.3902417E-001  0.1904840E+03  0.7546771E-02  0.1158026E+00
         21   -1    0    0  501  502  0.00000000000E+00  0.00000000000E+00  0.50049451480E+03  0.50049451480E+03  0.00000000000E+00 0. -1.
         21   -1    0    0  502  503 -0.00000000000E+00 -0.00000000000E+00 -0.78288914854E+02  0.78288914854E+02  0.00000000000E+00 0. -1.
          6    1    1    2  501    0  0.59582502108E+02 -0.52962860841E+02  0.28981877787E+03  0.34681272063E+03  0.17300000000E+03 0. -1.
         -6    1    1    2    0  503 -0.59582502108E+02  0.52962860841E+02  0.13238682208E+03  0.23197070903E+03  0.17300000000E+03 0. -1.
<mgrwt>
<rscale>  2 0.19048396E+03</rscale>
<asrwt>0</asrwt>
<pdfrwt beam="1">  1       21 0.76999154E-01 0.19048396E+03</pdfrwt>
<pdfrwt beam="2">  1       21 0.12044449E-01 0.19048396E+03</pdfrwt>
<totfact> 0.87464930E+04</totfact>
</mgrwt>
</event>
<event>
 4    1  0.3902417E-001  0.2451711E+03  0.7546771E-02  0.1116395E+00
         21   -1    0    0  503  502  0.00000000000E+00  0.00000000000E+00  0.10475630667E+03  0.10475630667E+03  0.00000000000E+00 0.  1.
         21   -1    0    0  501  503 -0.00000000000E+00 -0.00000000000E+00 -0.86218569441E+03  0.86218569441E+03  0.00000000000E+00 0. -1.
          6    1    1    2  501    0 -0.12572147775E+03 -0.11989146371E+03 -0.65832884629E+03  0.70249962484E+03  0.17300000000E+03 0. -1.
         -6    1    1    2    0  502  0.12572147775E+03  0.11989146371E+03 -0.99100541441E+02  0.26444237624E+03  0.17300000000E+03 0.  1.
<mgrwt>
<rscale>  2 0.24517107E+03</rscale>
<asrwt>0</asrwt>
<pdfrwt beam="1">  1       21 0.16116355E-01 0.24517107E+03</pdfrwt>
<pdfrwt beam="2">  1       21 0.13264395E+00 0.24517107E+03</pdfrwt>
<totfact> 0.13669127E+04</totfact>
</mgrwt>
</event>
<event>
 4    1  0.3902417E-001  0.2364792E+03  0.7546771E-02  0.1122161E+00
         21   -1    0    0  501  502  0.00000000000E+00  0.00000000000E+00  0.10996347212E+04  0.10996347212E+04  0.00000000000E+00 0. -1.
         21   -1    0    0  502  503 -0.00000000000E+00 -0.00000000000E+00 -0.61713488766E+02  0.61713488766E+02  0.00000000000E+00 0.  1.
          6    1    1    2  501    0  0.20578394374E+02 -0.15990604313E+03  0.76252748126E+03  0.79835491645E+03  0.17300000000E+03 0. -1.
         -6    1    1    2    0  503 -0.20578394374E+02  0.15990604313E+03  0.27539375115E+03  0.36299329349E+03  0.17300000000E+03 0.  1.
<mgrwt>
<rscale>  2 0.23647920E+03</rscale>
<asrwt>0</asrwt>
<pdfrwt beam="1">  1       21 0.16917456E+00 0.23647920E+03</pdfrwt>
<pdfrwt beam="2">  1       21 0.94943838E-02 0.23647920E+03</pdfrwt>
<totfact> 0.18677038E+04</totfact>
</mgrwt>
</event>
<event>
 4    1  0.3902417E-001  0.2666528E+03  0.7546771E-02  0.1103211E+00
         21   -1    0    0  503  502  0.00000000000E+00  0.00000000000E+00  0.63993277328E+03  0.63993277328E+03  0.00000000000E+00 0. -1.
         21   -1    0    0  501  503 -0.00000000000E+00 -0.00000000000E+00 -0.11274602163E+03  0.11274602163E+03  0.00000000000E+00 0. -1.
          6    1    1    2  501    0 -0.56117846086E+02 -0.19500123652E+03  0.21827597647E+03  0.34459845733E+03  0.17300000000E+03 0. -1.
         -6    1    1    2    0  502  0.56117846086E+02  0.19500123652E+03  0.30891077518E+03  0.40808033757E+03  0.17300000000E+03 0. -1.
<mgrwt>
<rscale>  2 0.26665276E+03</rscale>
<asrwt>0</asrwt>
<pdfrwt beam="1">  1       21 0.98451194E-01 0.26665276E+03</pdfrwt>
<pdfrwt beam="2">  1       21 0.17345542E-01 0.26665276E+03</pdfrwt>
<totfact> 0.24636929E+04</totfact>
</mgrwt>
</event>
<event>
 4    1  0.3902417E-001  0.2098506E+03  0.7546771E-02  0.1141684E+00
         21   -1    0    0  503  502  0.00000000000E+00  0.00000000000E+00  0.22998720197E+03  0.22998720197E+03  0.00000000000E+00 0.  1.
         21   -1    0    0  501  503 -0.00000000000E+00 -0.00000000000E+00 -0.20453034631E+03  0.20453034631E+03  0.00000000000E+00 0.  1.
          6    1    1    2  501    0  0.13559188727E+02  0.11800185054E+03 -0.42157029921E+02  0.21404322811E+03  0.17300000000E+03 0.  1.
         -6    1    1    2    0  502 -0.13559188727E+02 -0.11800185054E+03  0.67613885582E+02  0.22047432017E+03  0.17300000000E+03 0.  1.
<mgrwt>
<rscale>  2 0.20985063E+03</rscale>
<asrwt>0</asrwt>
<pdfrwt beam="1">  1       21 0.35382646E-01 0.20985063E+03</pdfrwt>
<pdfrwt beam="2">  1       21 0.31466207E-01 0.20985063E+03</pdfrwt>
<totfact> 0.74201818E+04</totfact>
</mgrwt>
</event>
<event>
 4    1  0.3902417E-001  0.2399470E+03  0.7546771E-02  0.1119828E+00
         21   -1    0    0  501  502  0.00000000000E+00  0.00000000000E+00  0.14802653184E+04  0.14802653184E+04  0.00000000000E+00 0. -1.
         21   -1    0    0  502  503 -0.00000000000E+00 -0.00000000000E+00 -0.40774777239E+02  0.40774777239E+02  0.00000000000E+00 0. -1.
          6    1    1    2  501    0  0.28746461987E+01  0.16624473917E+03  0.55644203068E+03  0.60597220266E+03  0.17300000000E+03 0. -1.
         -6    1    1    2    0  503 -0.28746461987E+01 -0.16624473917E+03  0.88304851052E+03  0.91506789302E+03  0.17300000000E+03 0. -1.
<mgrwt>
<rscale>  2 0.23994703E+03</rscale>
<asrwt>0</asrwt>
<pdfrwt beam="1">  1       21 0.22773308E+00 0.23994703E+03</pdfrwt>
<pdfrwt beam="2">  1       21 0.62730438E-02 0.23994703E+03</pdfrwt>
<totfact> 0.15893361E+04</totfact>
</mgrwt>
</event>
<event>
 4    1  0.3902417E-001  0.1812797E+03  0.7546771E-02  0.1166570E+00
         21   -1    0    0  503  502  0.00000000000E+00  0.00000000000E+00  0.30920029182E+03  0.30920029182E+03  0.00000000000E+00 0.  1.
         21   -1    0    0  501  503 -0.00000000000E+00 -0.00000000000E+00 -0.11530705381E+03  0.11530705381E+03  0.00000000000E+00 0. -1.
          6    1    1    2  501    0  0.39210589510E+02  0.37361126483E+02  0.37563902673E+02  0.18513068596E+03  0.17300000000E+03 0. -1.
         -6    1    1    2    0  502 -0.39210589510E+02 -0.37361126483E+02  0.15632933534E+03  0.23937665966E+03  0.17300000000E+03 0. -1.
<mgrwt>
<rscale>  2 0.18127968E+03</rscale>
<asrwt>0</asrwt>
<pdfrwt beam="1">  1       21 0.47569275E-01 0.18127968E+03</pdfrwt>
<pdfrwt beam="2">  1       21 0.17739547E-01 0.18127968E+03</pdfrwt>
<totfact> 0.12237616E+05</totfact>
</mgrwt>
</event>
<event>
 4    1  0.3902417E-001  0.2113718E+03  0.7546771E-02  0.1140484E+00
         21   -1    0    0  501  502  0.00000000000E+00  0.00000000000E+00  0.21078220136E+03  0.21078220136E+03  0.00000000000E+00 0.  1.
         21   -1    0    0  502  503 -0.00000000000E+00 -0.00000000000E+00 -0.21479121317E+03  0.21479121317E+03  0.00000000000E+00 0.  1.
          6    1    1    2  501    0 -0.11702499762E+03 -0.32468281673E+02 -0.26421267908E+02  0.21301671949E+03  0.17300000000E+03 0.  1.
         -6    1    1    2    0  503  0.11702499762E+03  0.32468281673E+02  0.22412256095E+02  0.21255669504E+03  0.17300000000E+03 0.  1.
<mgrwt>
<rscale>  2 0.21137180E+03</rscale>
<asrwt>0</asrwt>
<pdfrwt beam="1">  1       21 0.32428031E-01 0.21137180E+03</pdfrwt>
<pdfrwt beam="2">  1       21 0.33044802E-01 0.21137180E+03</pdfrwt>
<totfact> 0.80038319E+04</totfact>
</mgrwt>
</event>
<event>
 4    1  0.3902417E-001  0.2207968E+03  0.7546771E-02  0.1133290E+00
         21   -1    0    0  501  502  0.00000000000E+00  0.00000000000E+00  0.73607174971E+02  0.73607174971E+02  0.00000000000E+00 0. -1.
         21   -1    0    0  502  503 -0.00000000000E+00 -0.00000000000E+00 -0.70380946764E+03  0.70380946764E+03  0.00000000000E+00 0.  1.
          6    1    1    2  501    0  0.10994816265E+03 -0.82058775289E+02 -0.22072028849E+03  0.31219975468E+03  0.17300000000E+03 0.  1.
         -6    1    1    2    0  503 -0.10994816265E+03  0.82058775289E+02 -0.40948200418E+03  0.46521688794E+03  0.17300000000E+03 0.  1.
<mgrwt>
<rscale>  2 0.22079683E+03</rscale>
<asrwt>0</asrwt>
<pdfrwt beam="1">  1       21 0.11324181E-01 0.22079683E+03</pdfrwt>
<pdfrwt beam="2">  1       21 0.10827838E+00 0.22079683E+03</pdfrwt>
<totfact> 0.43514378E+04</totfact>
</mgrwt>
</event>
<event>
 4    1  0.3902417E-001  0.1791841E+03  0.7546771E-02  0.1168595E+00
         21   -1    0    0  503  502  0.00000000000E+00  0.00000000000E+00  0.25078617738E+03  0.25078617738E+03  0.00000000000E+00 0. -1.
         21   -1    0    0  501  503 -0.00000000000E+00 -0.00000000000E+00 -0.13327776083E+03  0.13327776083E+03  0.00000000000E+00 0. -1.
          6    1    1    2  501    0 -0.43171766052E+02  0.17723671890E+02  0.20631510119E+02  0.18036792714E+03  0.17300000000E+03 0. -1.
         -6    1    1    2    0  502  0.43171766052E+02 -0.17723671890E+02  0.96876906436E+02  0.20369601108E+03  0.17300000000E+03 0. -1.
<mgrwt>
<rscale>  2 0.17918407E+03</rscale>
<asrwt>0</asrwt>
<pdfrwt beam="1">  1       21 0.38582489E-01 0.17918407E+03</pdfrwt>
<pdfrwt beam="2">  1       21 0.20504271E-01 0.17918407E+03</pdfrwt>
<totfact> 0.14335502E+05</totfact>
</mgrwt>
</event>
<event>
 4    1  0.3902417E-001  0.2183062E+03  0.7546771E-02  0.1135152E+00
         21   -1    0    0  501  502  0.00000000000E+00  0.00000000000E+00  0.21391880900E+03  0.21391880900E+03  0.00000000000E+00 0.  1.
         21   -1    0    0  502  503 -0.00000000000E+00 -0.00000000000E+00 -0.25228613108E+03  0.25228613108E+03  0.00000000000E+00 0.  1.
          6    1    1    2  501    0  0.98116388574E+02  0.90009928605E+02  0.60529395377E+02  0.22654231538E+03  0.17300000000E+03 0.  1.
         -6    1    1    2    0  503 -0.98116388574E+02 -0.90009928605E+02 -0.98896717457E+02  0.23966262470E+03  0.17300000000E+03 0.  1.
<mgrwt>
<rscale>  2 0.21830624E+03</rscale>
<asrwt>0</asrwt>
<pdfrwt beam="1">  1       21 0.32910586E-01 0.21830624E+03</pdfrwt>
<pdfrwt beam="2">  1       21 0.38813251E-01 0.21830624E+03</pdfrwt>
<totfact> 0.56219401E+04</totfact>
</mgrwt>
</event>
<event>
 4    1  0.3902417E-001  0.2882480E+03  0.7546771E-02  0.1091267E+00
         21   -1    0    0  503  502  0.00000000000E+00  0.00000000000E+00  0.60210933538E+03  0.60210933538E+03  0.00000000000E+00 0. -1.
         21   -1    0    0  501  503 -0.00000000000E+00 -0.00000000000E+00 -0.16835366199E+03  0.16835366199E+03  0.00000000000E+00 0. -1.
          6    1    1    2  501    0  0.14590109899E+03 -0.17852394781E+03  0.53284561763E+02  0.29313166862E+03  0.17300000000E+03 0. -1.
         -6    1    1    2    0  502 -0.14590109899E+03  0.17852394781E+03  0.38047111162E+03  0.47733132875E+03  0.17300000000E+03 0. -1.
<mgrwt>
<rscale>  2 0.28824804E+03</rscale>
<asrwt>0</asrwt>
<pdfrwt beam="1">  1       21 0.92632204E-01 0.28824804E+03</pdfrwt>
<pdfrwt beam="2">  1       21 0.25900564E-01 0.28824804E+03</pdfrwt>
<totfact> 0.13186058E+04</totfact>
</mgrwt>
</event>
<event>
 4    1  0.3902417E-001  0.2048165E+03  0.7546771E-02  0.1145738E+00
         21   -1    0    0  501  502  0.00000000000E+00  0.00000000000E+00  0.11496853758E+03  0.11496853758E+03  0.00000000000E+00 0. -1.
         21   -1    0    0  502  503 -0.00000000000E+00 -0.00000000000E+00 -0.39566132979E+03  0.39566132979E+03  0.00000000000E+00 0. -1.
          6    1    1    2  501    0  0.16796162902E+02 -0.10834513669E+03 -0.69134190343E+02  0.21616964636E+03  0.17300000000E+03 0. -1.
         -6    1    1    2    0  503 -0.16796162902E+02  0.10834513669E+03 -0.21155860187E+03  0.29446022101E+03  0.17300000000E+03 0. -1.
<mgrwt>
<rscale>  2 0.20481645E+03</rscale>
<asrwt>0</asrwt>
<pdfrwt beam="1">  1       21 0.17687467E-01 0.20481645E+03</pdfrwt>
<pdfrwt beam="2">  1       21 0.60870973E-01 0.20481645E+03</pdfrwt>
<totfact> 0.72455310E+04</totfact>
</mgrwt>
</event>
<event>
 4    1  0.3902417E-001  0.2381883E+03  0.7546771E-02  0.1121006E+00
         21   -1    0    0  501  502  0.00000000000E+00  0.00000000000E+00  0.66063453286E+02  0.66063453286E+02  0.00000000000E+00 0.  1.
         21   -1    0    0  502  503 -0.00000000000E+00 -0.00000000000E+00 -0.86813118248E+03  0.86813118248E+03  0.00000000000E+00 0.  1.
          6    1    1    2  501    0 -0.17570915041E+02 -0.16277574088E+03 -0.35254398387E+03  0.42546555611E+03  0.17300000000E+03 0.  1.
         -6    1    1    2    0  503  0.17570915041E+02  0.16277574088E+03 -0.44952374532E+03  0.50872907965E+03  0.17300000000E+03 0.  1.
<mgrwt>
<rscale>  2 0.23818833E+03</rscale>
<asrwt>0</asrwt>
<pdfrwt beam="1">  1       21 0.10163608E-01 0.23818833E+03</pdfrwt>
<pdfrwt beam="2">  1       21 0.13355864E+00 0.23818833E+03</pdfrwt>
<totfact> 0.31028055E+04</totfact>
</mgrwt>
</event>
<event>
 4    1  0.3902417E-001  0.2696484E+03  0.7546771E-02  0.1101481E+00
         21   -1    0    0  503  502  0.00000000000E+00  0.00000000000E+00  0.11720839212E+04  0.11720839212E+04  0.00000000000E+00 0. -1.
         21   -1    0    0  501  503 -0.00000000000E+00 -0.00000000000E+00 -0.62374384180E+02  0.62374384180E+02  0.00000000000E+00 0.  1.
          6    1    1    2  501    0 -0.14323743713E+03  0.14921220916E+03  0.60038268645E+03  0.65815622534E+03  0.17300000000E+03 0. -1.
         -6    1    1    2    0  502  0.14323743713E+03 -0.14921220916E+03  0.50932685061E+03  0.57630208008E+03  0.17300000000E+03 0. -1.
<mgrwt>
<rscale>  2 0.26964838E+03</rscale>
<asrwt>0</asrwt>
<pdfrwt beam="1">  1       21 0.18032059E+00 0.26964838E+03</pdfrwt>
<pdfrwt beam="2">  1       21 0.95960599E-02 0.26964838E+03</pdfrwt>
<totfact> 0.15021967E+04</totfact>
</mgrwt>
</event>
<event>
 4    1  0.3902417E-001  0.1733125E+03  0.7546771E-02  0.1174437E+00
         21   -1    0    0  501  502  0.00000000000E+00  0.00000000000E+00  0.45225931022E+02  0.45225931022E+02  0.00000000000E+00 0.  1.
         21   -1    0    0  502  503 -0.00000000000E+00 -0.00000000000E+00 -0.97310335684E+03  0.97310335684E+03  0.00000000000E+00 0.  1.
          6    1    1    2  501    0 -0.62773355587E+01 -0.82954317371E+01 -0.17704651914E+03  0.24775530079E+03  0.17300000000E+03 0.  1.
         -6    1    1    2    0  503  0.62773355587E+01  0.82954317371E+01 -0.75083090668E+03  0.77057398707E+03  0.17300000000E+03 0.  1.
<mgrwt>
<rscale>  2 0.17331249E+03</rscale>
<asrwt>0</asrwt>
<pdfrwt beam="1">  1       21 0.69578349E-02 0.17331249E+03</pdfrwt>
<pdfrwt beam="2">  1       21 0.14970822E+00 0.17331249E+03</pdfrwt>
<totfact> 0.46439563E+04</totfact>
</mgrwt>
</event>
<event>
 4    1  0.3902417E-001  0.2013450E+03  0.7546771E-02  0.1148609E+00
         21   -1    0    0  501  502  0.00000000000E+00  0.00000000000E+00  0.13605959500E+03  0.13605959500E+03  0.00000000000E+00 0.  1.
         21   -1    0    0  502  503 -0.00000000000E+00 -0.00000000000E+00 -0.30013293126E+03  0.30013293126E+03  0.00000000000E+00 0.  1.
          6    1    1    2  501    0  0.54521522275E+02  0.87396788742E+02 -0.10061032184E+03  0.22508272243E+03  0.17300000000E+03 0.  1.
         -6    1    1    2    0  503 -0.54521522275E+02 -0.87396788742E+02 -0.63463014413E+02  0.21110980383E+03  0.17300000000E+03 0.  1.
<mgrwt>
<rscale>  2 0.20134497E+03</rscale>
<asrwt>0</asrwt>
<pdfrwt beam="1">  1       21 0.20932246E-01 0.20134497E+03</pdfrwt>
<pdfrwt beam="2">  1       21 0.46174297E-01 0.20134497E+03</pdfrwt>
<totfact> 0.94916786E+04</totfact>
</mgrwt>
</event>
<event>
 4    1  0.3902417E-001  0.1793370E+03  0.7546771E-02  0.1168446E+00
         21   -1    0    0  503  502  0.00000000000E+00  0.00000000000E+00  0.81267314152E+02  0.81267314152E+02  0.00000000000E+00 0. -1.
         21   -1    0    0  501  503 -0.00000000000E+00 -0.00000000000E+00 -0.39835044274E+03  0.39835044274E+03  0.00000000000E+00 0. -1.
          6    1    1    2  501    0  0.29581898973E+02 -0.36846746621E+02 -0.17790657907E+03  0.25261140584E+03  0.17300000000E+03 0. -1.
         -6    1    1    2    0  502 -0.29581898973E+02  0.36846746621E+02 -0.13917654952E+03  0.22700635106E+03  0.17300000000E+03 0. -1.
<mgrwt>
<rscale>  2 0.17933703E+03</rscale>
<asrwt>0</asrwt>
<pdfrwt beam="1">  1       21 0.12502664E-01 0.17933703E+03</pdfrwt>
<pdfrwt beam="2">  1       21 0.61284683E-01 0.17933703E+03</pdfrwt>
<totfact> 0.13560460E+05</totfact>
</mgrwt>
</event>
<event>
 4    1  0.3902417E-001  0.1844716E+03  0.7546771E-02  0.1163544E+00
         21   -1    0    0  501  502  0.00000000000E+00  0.00000000000E+00  0.45300667511E+03  0.45300667511E+03  0.00000000000E+00 0. -1.
         21   -1    0    0  502  503 -0.00000000000E+00 -0.00000000000E+00 -0.97451870233E+02  0.97451870233E+02  0.00000000000E+00 0.  1.
          6    1    1    2  501    0 -0.52373896011E+02 -0.36847659844E+02  0.46023363945E+02  0.19012607672E+03  0.17300000000E+03 0.  1.
         -6    1    1    2    0  503  0.52373896011E+02  0.36847659844E+02  0.30953144093E+03  0.36033246862E+03  0.17300000000E+03 0. -1.
<mgrwt>
<rscale>  2 0.18447161E+03</rscale>
<asrwt>0</asrwt>
<pdfrwt beam="1">  1       21 0.69693334E-01 0.18447161E+03</pdfrwt>
<pdfrwt beam="2">  1       21 0.14992596E-01 0.18447161E+03</pdfrwt>
<totfact> 0.73715271E+04</totfact>
</mgrwt>
</event>
<event>
 4    1  0.3902417E-001  0.2008562E+03  0.7546771E-02  0.1149019E+00
         21   -1    0    0  503  502  0.00000000000E+00  0.00000000000E+00  0.16669319063E+03  0.16669319063E+03  0.00000000000E+00 0. -1.
         21   -1    0    0  501  503 -0.00000000000E+00 -0.00000000000E+00 -0.38439471596E+03  0.38439471596E+03  0.00000000000E+00 0.  1.
          6    1    1    2  501    0  0.76973957936E+02 -0.67001619031E+02 -0.27654475620E+03  0.34178971508E+03  0.17300000000E+03 0.  1.
         -6    1    1    2    0  502 -0.76973957936E+02  0.67001619031E+02  0.58843230865E+02  0.20929819152E+03  0.17300000000E+03 0. -1.
<mgrwt>
<rscale>  2 0.20085619E+03</rscale>
<asrwt>0</asrwt>
<pdfrwt beam="1">  1       21 0.25645107E-01 0.20085619E+03</pdfrwt>
<pdfrwt beam="2">  1       21 0.59137648E-01 0.20085619E+03</pdfrwt>
<totfact> 0.38396207E+04</totfact>
</mgrwt>
</event>
<event>
 4    1  0.3902417E-001  0.1964007E+03  0.7546771E-02  0.1152812E+00
         21   -1    0    0  501  502  0.00000000000E+00  0.00000000000E+00  0.78578902595E+03  0.78578902595E+03  0.00000000000E+00 0. -1.
         21   -1    0    0  502  503 -0.00000000000E+00 -0.00000000000E+00 -0.56969019008E+02  0.56969019008E+02  0.00000000000E+00 0. -1.
          6    1    1    2  501    0 -0.92825113416E+02  0.52653607845E+01  0.20768791473E+03  0.28584523020E+03  0.17300000000E+03 0. -1.
         -6    1    1    2    0  503  0.92825113416E+02 -0.52653607845E+01  0.52113209221E+03  0.55691281475E+03  0.17300000000E+03 0. -1.
<mgrwt>
<rscale>  2 0.19640068E+03</rscale>
<asrwt>0</asrwt>
<pdfrwt beam="1">  1       21 0.12089061E+00 0.19640068E+03</pdfrwt>
<pdfrwt beam="2">  1       21 0.87644651E-02 0.19640068E+03</pdfrwt>
<totfact> 0.52953473E+04</totfact>
</mgrwt>
</event>
<event>
 4    1  0.3902417E-001  0.1927542E+03  0.7546771E-02  0.1156000E+00
         21   -1    0    0  503  502  0.00000000000E+00  0.00000000000E+00  0.28785087035E+03  0.28785087035E+03  0.00000000000E+00 0.  1.
         21   -1    0    0  501  503 -0.00000000000E+00 -0.00000000000E+00 -0.13194323130E+03  0.13194323130E+03  0.00000000000E+00 0.  1.
          6    1    1    2  501    0 -0.62700115294E+02 -0.57392194266E+02  0.47003302873E+02  0.19840231577E+03  0.17300000000E+03 0.  1.
         -6    1    1    2    0  502  0.62700115294E+02  0.57392194266E+02  0.10890433617E+03  0.22139178589E+03  0.17300000000E+03 0.  1.
<mgrwt>
<rscale>  2 0.19275417E+03</rscale>
<asrwt>0</asrwt>
<pdfrwt beam="1">  1       21 0.44284749E-01 0.19275417E+03</pdfrwt>
<pdfrwt beam="2">  1       21 0.20298959E-01 0.19275417E+03</pdfrwt>
<totfact> 0.10994867E+05</totfact>
</mgrwt>
</event>
<event>
 4    1  0.3902417E-001  0.1796104E+03  0.7546771E-02  0.1168181E+00
         21   -1    0    0  503  502  0.00000000000E+00  0.00000000000E+00  0.14992511239E+03  0.14992511239E+03  0.00000000000E+00 0. -1.
         21   -1    0    0  501  503 -0.00000000000E+00 -0.00000000000E+00 -0.21551122813E+03  0.21551122813E+03  0.00000000000E+00 0. -1.
          6    1    1    2  501    0  0.20958397215E+02  0.43492893713E+02 -0.25558076966E+02  0.18141968337E+03  0.17300000000E+03 0.  1.
         -6    1    1    2    0  502 -0.20958397215E+02 -0.43492893713E+02 -0.40028038771E+02  0.18401665714E+03  0.17300000000E+03 0.  1.
<mgrwt>
<rscale>  2 0.17961037E+03</rscale>
<asrwt>0</asrwt>
<pdfrwt beam="1">  1       21 0.23065402E-01 0.17961037E+03</pdfrwt>
<pdfrwt beam="2">  1       21 0.33155574E-01 0.17961037E+03</pdfrwt>
<totfact> 0.15526485E+05</totfact>
</mgrwt>
</event>
<event>
 4    1  0.3902417E-001  0.2229117E+03  0.7546771E-02  0.1131731E+00
         21   -1    0    0  501  502  0.00000000000E+00  0.00000000000E+00  0.24075673526E+03  0.24075673526E+03  0.00000000000E+00 0. -1.
         21   -1    0    0  502  503 -0.00000000000E+00 -0.00000000000E+00 -0.21218101037E+03  0.21218101037E+03  0.00000000000E+00 0.  1.
          6    1    1    2  501    0 -0.13288631253E+03 -0.45845961238E+02  0.51703840125E+02  0.22882943714E+03  0.17300000000E+03 0. -1.
         -6    1    1    2    0  503  0.13288631253E+03  0.45845961238E+02 -0.23128115241E+02  0.22410830849E+03  0.17300000000E+03 0.  1.
<mgrwt>
<rscale>  2 0.22291170E+03</rscale>
<asrwt>0</asrwt>
<pdfrwt beam="1">  1       21 0.37039498E-01 0.22291170E+03</pdfrwt>
<pdfrwt beam="2">  1       21 0.32643233E-01 0.22291170E+03</pdfrwt>
<totfact> 0.62646242E+04</totfact>
</mgrwt>
</event>
<event>
 4    1  0.3902417E-001  0.1776095E+03  0.7546771E-02  0.1170137E+00
         21   -1    0    0  501  502  0.00000000000E+00  0.00000000000E+00  0.52041852276E+02  0.52041852276E+02  0.00000000000E+00 0.  1.
         21   -1    0    0  502  503 -0.00000000000E+00 -0.00000000000E+00 -0.60785541575E+03  0.60785541575E+03  0.00000000000E+00 0.  1.
          6    1    1    2  501    0 -0.26522215625E+02  0.30211249999E+02 -0.29538564599E+03  0.34467060711E+03  0.17300000000E+03 0. -1.
         -6    1    1    2    0  503  0.26522215625E+02 -0.30211249999E+02 -0.26042791748E+03  0.31522666092E+03  0.17300000000E+03 0. -1.
<mgrwt>
<rscale>  2 0.17760954E+03</rscale>
<asrwt>0</asrwt>
<pdfrwt beam="1">  1       21 0.80064389E-02 0.17760954E+03</pdfrwt>
<pdfrwt beam="2">  1       21 0.93516217E-01 0.17760954E+03</pdfrwt>
<totfact> 0.11584293E+05</totfact>
</mgrwt>
</event>
<event>
 4    1  0.3902417E-001  0.2023543E+03  0.7546771E-02  0.1147768E+00
         21   -1    0    0  503  502  0.00000000000E+00  0.00000000000E+00  0.14059947097E+03  0.14059947097E+03  0.00000000000E+00 0. -1.
         21   -1    0    0  501  503 -0.00000000000E+00 -0.00000000000E+00 -0.29593586956E+03  0.29593586956E+03  0.00000000000E+00 0.  1.
          6    1    1    2  501    0 -0.73323218435E+02  0.75112987048E+02 -0.10518233236E+03  0.22805827814E+03  0.17300000000E+03 0.  1.
         -6    1    1    2    0  502  0.73323218435E+02 -0.75112987048E+02 -0.50154066226E+02  0.20847706239E+03  0.17300000000E+03 0.  1.
<mgrwt>
<rscale>  2 0.20235428E+03</rscale>
<asrwt>0</asrwt>
<pdfrwt beam="1">  1       21 0.21630688E-01 0.20235428E+03</pdfrwt>
<pdfrwt beam="2">  1       21 0.45528595E-01 0.20235428E+03</pdfrwt>
<totfact> 0.91824358E+04</totfact>
</mgrwt>
</event>
<event>
 4    1  0.3902417E-001  0.1821067E+03  0.7546771E-02  0.1165780E+00
         21   -1    0    0  501  502  0.00000000000E+00  0.00000000000E+00  0.15721763162E+03  0.15721763162E+03  0.00000000000E+00 0.  1.
         21   -1    0    0  502  503 -0.00000000000E+00 -0.00000000000E+00 -0.21218039725E+03  0.21218039725E+03  0.00000000000E+00 0.  1.
          6    1    1    2  501    0 -0.95533074501E+01  0.56058894374E+02 -0.13337009019E+02  0.18259447180E+03  0.17300000000E+03 0.  1.
         -6    1    1    2    0  503  0.95533074501E+01 -0.56058894374E+02 -0.41625756608E+02  0.18680355707E+03  0.17300000000E+03 0.  1.
<mgrwt>
<rscale>  2 0.18210674E+03</rscale>
<asrwt>0</asrwt>
<pdfrwt beam="1">  1       21 0.24187328E-01 0.18210674E+03</pdfrwt>
<pdfrwt beam="2">  1       21 0.32643138E-01 0.18210674E+03</pdfrwt>
<totfact> 0.14619616E+05</totfact>
</mgrwt>
</event>
<event>
 4    1  0.3902417E-001  0.2620905E+03  0.7546771E-02  0.1105894E+00
         21   -1    0    0  503  502  0.00000000000E+00  0.00000000000E+00  0.23440659975E+03  0.23440659975E+03  0.00000000000E+00 0.  1.
         21   -1    0    0  501  503 -0.00000000000E+00 -0.00000000000E+00 -0.31387095575E+03  0.31387095575E+03  0.00000000000E+00 0.  1.
          6    1    1    2  501    0 -0.17187167925E+03 -0.96034242567E+02 -0.11034892440E+03  0.28437358349E+03  0.17300000000E+03 0.  1.
         -6    1    1    2    0  502  0.17187167925E+03  0.96034242567E+02  0.30884568405E+02  0.26390397200E+03  0.17300000000E+03 0.  1.
<mgrwt>
<rscale>  2 0.26209054E+03</rscale>
<asrwt>0</asrwt>
<pdfrwt beam="1">  1       21 0.36062554E-01 0.26209054E+03</pdfrwt>
<pdfrwt beam="2">  1       21 0.48287839E-01 0.26209054E+03</pdfrwt>
<totfact> 0.29361861E+04</totfact>
</mgrwt>
</event>
<event>
 4    1  0.3902417E-001  0.2247270E+03  0.7546771E-02  0.1130407E+00
         21   -1    0    0  503  502  0.00000000000E+00  0.00000000000E+00  0.55229564937E+03  0.55229564937E+03  0.00000000000E+00 0.  1.
         21   -1    0    0  501  503 -0.00000000000E+00 -0.00000000000E+00 -0.13422044399E+03  0.13422044399E+03  0.00000000000E+00 0. -1.
          6    1    1    2  501    0 -0.44847530928E+02  0.13624208892E+03  0.15247614513E+02  0.22524364047E+03  0.17300000000E+03 0. -1.
         -6    1    1    2    0  502  0.44847530928E+02 -0.13624208892E+03  0.40282759087E+03  0.46127245289E+03  0.17300000000E+03 0.  1.
<mgrwt>
<rscale>  2 0.22472696E+03</rscale>
<asrwt>0</asrwt>
<pdfrwt beam="1">  1       21 0.84968560E-01 0.22472696E+03</pdfrwt>
<pdfrwt beam="2">  1       21 0.20649299E-01 0.22472696E+03</pdfrwt>
<totfact> 0.25613498E+04</totfact>
</mgrwt>
</event>
<event>
 4    1  0.3902417E-001  0.2369908E+03  0.7546771E-02  0.1121814E+00
         21   -1    0    0  501  502  0.00000000000E+00  0.00000000000E+00  0.17119638787E+02  0.17119638787E+02  0.00000000000E+00 0.  1.
         21   -1    0    0  502  503 -0.00000000000E+00 -0.00000000000E+00 -0.34609908569E+04  0.34609908569E+04  0.00000000000E+00 0. -1.
          6    1    1    2  501    0  0.32310758915E+01  0.16194190424E+03 -0.13250325559E+04  0.13460593948E+04  0.17300000000E+03 0.  1.
         -6    1    1    2    0  503 -0.32310758915E+01 -0.16194190424E+03 -0.21188386622E+04  0.21320511008E+04  0.17300000000E+03 0. -1.
<mgrwt>
<rscale>  2 0.23699076E+03</rscale>
<asrwt>0</asrwt>
<pdfrwt beam="1">  1       21 0.26337905E-02 0.23699076E+03</pdfrwt>
<pdfrwt beam="2">  1       21 0.53246014E+00 0.23699076E+03</pdfrwt>
<totfact> 0.81417939E+02</totfact>
</mgrwt>
</event>
<event>
 4    1  0.3902417E-001  0.1782295E+03  0.7546771E-02  0.1169528E+00
         21   -1    0    0  503  502  0.00000000000E+00  0.00000000000E+00  0.15871485562E+04  0.15871485562E+04  0.00000000000E+00 0.  1.
         21   -1    0    0  501  503 -0.00000000000E+00 -0.00000000000E+00 -0.20103593630E+02  0.20103593630E+02  0.00000000000E+00 0.  1.
          6    1    1    2  501    0  0.36420035089E+02  0.22590637964E+02  0.83706412777E+03  0.85582831800E+03  0.17300000000E+03 0.  1.
         -6    1    1    2    0  502 -0.36420035089E+02 -0.22590637964E+02  0.72998083483E+03  0.75142383187E+03  0.17300000000E+03 0.  1.
<mgrwt>
<rscale>  2 0.17822950E+03</rscale>
<asrwt>0</asrwt>
<pdfrwt beam="1">  1       21 0.24417660E+00 0.17822950E+03</pdfrwt>
<pdfrwt beam="2">  1       21 0.30928618E-02 0.17822950E+03</pdfrwt>
<totfact> 0.43788594E+04</totfact>
</mgrwt>
</event>
<event>
 4    1  0.3902417E-001  0.1800767E+03  0.7546771E-02  0.1167729E+00
         21   -1    0    0  501  502  0.00000000000E+00  0.00000000000E+00  0.44202623460E+03  0.44202623460E+03  0.00000000000E+00 0.  1.
         21   -1    0    0  502  503 -0.00000000000E+00 -0.00000000000E+00 -0.75944892632E+02  0.75944892632E+02  0.00000000000E+00 0.  1.
          6    1    1    2  501    0 -0.48483408975E+02  0.12165135530E+02  0.23080854985E+03  0.29274599597E+03  0.17300000000E+03 0. -1.
         -6    1    1    2    0  503  0.48483408975E+02 -0.12165135530E+02  0.13527279212E+03  0.22522513127E+03  0.17300000000E+03 0. -1.
<mgrwt>
<rscale>  2 0.18007674E+03</rscale>
<asrwt>0</asrwt>
<pdfrwt beam="1">  1       21 0.68004035E-01 0.18007674E+03</pdfrwt>
<pdfrwt beam="2">  1       21 0.11683830E-01 0.18007674E+03</pdfrwt>
<totfact> 0.12209171E+05</totfact>
</mgrwt>
</event>
<event>
 4    1  0.3902417E-001  0.1933035E+03  0.7546771E-02  0.1155515E+00
         21   -1    0    0  503  502  0.00000000000E+00  0.00000000000E+00  0.95493629336E+02  0.95493629336E+02  0.00000000000E+00 0.  1.
         21   -1    0    0  501  503 -0.00000000000E+00 -0.00000000000E+00 -0.40630766880E+03  0.40630766880E+03  0.00000000000E+00 0.  1.
          6    1    1    2  501    0  0.86160855952E+02  0.36836574136E+01 -0.10717997009E+03  0.22102897643E+03  0.17300000000E+03 0.  1.
         -6    1    1    2    0  502 -0.86160855952E+02 -0.36836574136E+01 -0.20363406937E+03  0.28077232171E+03  0.17300000000E+03 0.  1.
<mgrwt>
<rscale>  2 0.19330355E+03</rscale>
<asrwt>0</asrwt>
<pdfrwt beam="1">  1       21 0.14691328E-01 0.19330355E+03</pdfrwt>
<pdfrwt beam="2">  1       21 0.62508872E-01 0.19330355E+03</pdfrwt>
<totfact> 0.96630587E+04</totfact>
</mgrwt>
</event>
<event>
 4    1  0.3902417E-001  0.1893288E+03  0.7546771E-02  0.1159068E+00
         21   -1    0    0  501  502  0.00000000000E+00  0.00000000000E+00  0.76868888243E+02  0.76868888243E+02  0.00000000000E+00 0. -1.
         21   -1    0    0  502  503 -0.00000000000E+00 -0.00000000000E+00 -0.72960802046E+03  0.72960802046E+03  0.00000000000E+00 0. -1.
          6    1    1    2  501    0 -0.34047199960E+02  0.68972324208E+02 -0.84136271866E+02  0.20718181768E+03  0.17300000000E+03 0. -1.
         -6    1    1    2    0  503  0.34047199960E+02 -0.68972324208E+02 -0.56860286035E+03  0.59929509103E+03  0.17300000000E+03 0. -1.
<mgrwt>
<rscale>  2 0.18932880E+03</rscale>
<asrwt>0</asrwt>
<pdfrwt beam="1">  1       21 0.11825983E-01 0.18932880E+03</pdfrwt>
<pdfrwt beam="2">  1       21 0.11224739E+00 0.18932880E+03</pdfrwt>
<totfact> 0.37525810E+04</totfact>
</mgrwt>
</event>
<event>
 4    1  0.3902417E-001  0.1737319E+03  0.7546771E-02  0.1174011E+00
         21   -1    0    0  501  502  0.00000000000E+00  0.00000000000E+00  0.10289694093E+04  0.10289694093E+04  0.00000000000E+00 0.  1.
         21   -1    0    0  502  503 -0.00000000000E+00 -0.00000000000E+00 -0.29721790691E+02  0.29721790691E+02  0.00000000000E+00 0.  1.
          6    1    1    2  501    0 -0.14035694471E+02  0.75358010757E+01  0.56016400611E+03  0.58648657508E+03  0.17300000000E+03 0.  1.
         -6    1    1    2    0  503  0.14035694471E+02 -0.75358010757E+01  0.43908361253E+03  0.47220462493E+03  0.17300000000E+03 0.  1.
<mgrwt>
<rscale>  2 0.17373195E+03</rscale>
<asrwt>0</asrwt>
<pdfrwt beam="1">  1       21 0.15830296E+00 0.17373195E+03</pdfrwt>
<pdfrwt beam="2">  1       21 0.45725840E-02 0.17373195E+03</pdfrwt>
<totfact> 0.81850058E+04</totfact>
</mgrwt>
</event>
<event>
 4    1  0.3902417E-001  0.2094951E+03  0.7546771E-02  0.1141966E+00
         21   -1    0    0  501  502  0.00000000000E+00  0.00000000000E+00  0.28894776102E+03  0.28894776102E+03  0.00000000000E+00 0.  1.
         21   -1    0    0  502  503 -0.00000000000E+00 -0.00000000000E+00 -0.15336330012E+03  0.15336330012E+03  0.00000000000E+00 0. -1.
          6    1    1    2  501    0  0.53547097266E+02 -0.10531808753E+03  0.89470552148E+02  0.22780072627E+03  0.17300000000E+03 0. -1.
         -6    1    1    2    0  503 -0.53547097266E+02  0.10531808753E+03  0.46113908747E+02  0.21451033487E+03  0.17300000000E+03 0.  1.
<mgrwt>
<rscale>  2 0.20949509E+03</rscale>
<asrwt>0</asrwt>
<pdfrwt beam="1">  1       21 0.44453501E-01 0.20949509E+03</pdfrwt>
<pdfrwt beam="2">  1       21 0.23594354E-01 0.20949509E+03</pdfrwt>
<totfact> 0.81581450E+04</totfact>
</mgrwt>
</event>
<event>
 4    1  0.3902417E-001  0.1924314E+03  0.7546771E-02  0.1156286E+00
         21   -1    0    0  501  502  0.00000000000E+00  0.00000000000E+00  0.22300204886E+03  0.22300204886E+03  0.00000000000E+00 0.  1.
         21   -1    0    0  502  503 -0.00000000000E+00 -0.00000000000E+00 -0.23986784792E+03  0.23986784792E+03  0.00000000000E+00 0.  1.
          6    1    1    2  501    0  0.56045876061E+01  0.84079918307E+02  0.11995347761E+03  0.22675687610E+03  0.17300000000E+03 0.  1.
         -6    1    1    2    0  503 -0.56045876061E+01 -0.84079918307E+02 -0.13681927668E+03  0.23611302068E+03  0.17300000000E+03 0.  1.
<mgrwt>
<rscale>  2 0.19243140E+03</rscale>
<asrwt>0</asrwt>
<pdfrwt beam="1">  1       21 0.34308008E-01 0.19243140E+03</pdfrwt>
<pdfrwt beam="2">  1       21 0.36902746E-01 0.19243140E+03</pdfrwt>
<totfact> 0.57991054E+04</totfact>
</mgrwt>
</event>
<event>
 4    1  0.3902417E-001  0.1849733E+03  0.7546771E-02  0.1163075E+00
         21   -1    0    0  503  502  0.00000000000E+00  0.00000000000E+00  0.54541173637E+02  0.54541173637E+02  0.00000000000E+00 0.  1.
         21   -1    0    0  501  503 -0.00000000000E+00 -0.00000000000E+00 -0.62777775451E+03  0.62777775451E+03  0.00000000000E+00 0.  1.
          6    1    1    2  501    0 -0.22681834234E+02 -0.61413809537E+02 -0.29576537121E+03  0.34884420078E+03  0.17300000000E+03 0. -1.
         -6    1    1    2    0  502  0.22681834234E+02  0.61413809537E+02 -0.27747120966E+03  0.33347472738E+03  0.17300000000E+03 0. -1.
<mgrwt>
<rscale>  2 0.18497330E+03</rscale>
<asrwt>0</asrwt>
<pdfrwt beam="1">  1       21 0.83909500E-02 0.18497330E+03</pdfrwt>
<pdfrwt beam="2">  1       21 0.96581190E-01 0.18497330E+03</pdfrwt>
<totfact> 0.98715517E+04</totfact>
</mgrwt>
</event>
<event>
 4    1  0.3902417E-001  0.1988214E+03  0.7546771E-02  0.1150737E+00
         21   -1    0    0  501  502  0.00000000000E+00  0.00000000000E+00  0.14797797094E+03  0.14797797094E+03  0.00000000000E+00 0. -1.
         21   -1    0    0  502  503 -0.00000000000E+00 -0.00000000000E+00 -0.28389266313E+03  0.28389266313E+03  0.00000000000E+00 0. -1.
          6    1    1    2  501    0 -0.61129950189E+02  0.76577161757E+02 -0.15492600205E+02  0.19942405365E+03  0.17300000000E+03 0. -1.
         -6    1    1    2    0  503  0.61129950189E+02 -0.76577161757E+02 -0.12042209199E+03  0.23244658043E+03  0.17300000000E+03 0. -1.
<mgrwt>
<rscale>  2 0.19882136E+03</rscale>
<asrwt>0</asrwt>
<pdfrwt beam="1">  1       21 0.22765842E-01 0.19882136E+03</pdfrwt>
<pdfrwt beam="2">  1       21 0.43675794E-01 0.19882136E+03</pdfrwt>
<totfact> 0.90928224E+04</totfact>
</mgrwt>
</event>
<event>
 4    1  0.3902417E-001  0.1873661E+03  0.7546771E-02  0.1160859E+00
         21   -1    0    0  501  502  0.00000000000E+00  0.00000000000E+00  0.19497838965E+04  0.19497838965E+04  0.00000000000E+00 0.  1.
         21   -1    0    0  502  503 -0.00000000000E+00 -0.00000000000E+00 -0.20543456608E+02  0.20543456608E+02  0.00000000000E+00 0.  1.
          6    1    1    2  501    0 -0.50941450964E+02  0.50813608540E+02  0.13109165906E+04  0.13242387858E+04  0.17300000000E+03 0.  1.
         -6    1    1    2    0  503  0.50941450964E+02 -0.50813608540E+02  0.61832384934E+03  0.64608856738E+03  0.17300000000E+03 0.  1.
<mgrwt>
<rscale>  2 0.18736610E+03</rscale>
<asrwt>0</asrwt>
<pdfrwt beam="1">  1       21 0.29996661E+00 0.18736610E+03</pdfrwt>
<pdfrwt beam="2">  1       21 0.31605333E-02 0.18736610E+03</pdfrwt>
<totfact> 0.19926968E+04</totfact>
</mgrwt>
</event>
<event>
 4    1  0.3902417E-001  0.2969548E+03  0.7546771E-02  0.1086773E+00
         21   -1    0    0  501  502  0.00000000000E+00  0.00000000000E+00  0.25774021227E+03  0.25774021227E+03  0.00000000000E+00 0. -1.
         21   -1    0    0  502  503 -0.00000000000E+00 -0.00000000000E+00 -0.34375269740E+03  0.34375269740E+03  0.00000000000E+00 0. -1.
          6    1    1    2  501    0 -0.19929922868E+03 -0.13613574800E+03 -0.22379343291E+02  0.29779684257E+03  0.17300000000E+03 0. -1.
         -6    1    1    2    0  503  0.19929922868E+03  0.13613574800E+03 -0.63633141844E+02  0.30369606711E+03  0.17300000000E+03 0. -1.
<mgrwt>
<rscale>  2 0.29695475E+03</rscale>
<asrwt>0</asrwt>
<pdfrwt beam="1">  1       21 0.39652341E-01 0.29695475E+03</pdfrwt>
<pdfrwt beam="2">  1       21 0.52885030E-01 0.29695475E+03</pdfrwt>
<totfact> 0.19722043E+04</totfact>
</mgrwt>
</event>
<event>
 4    1  0.3902417E-001  0.1884497E+03  0.7546771E-02  0.1159867E+00
         21   -1    0    0  501  502  0.00000000000E+00  0.00000000000E+00  0.14438695678E+03  0.14438695678E+03  0.00000000000E+00 0. -1.
         21   -1    0    0  502  503 -0.00000000000E+00 -0.00000000000E+00 -0.27400566868E+03  0.27400566868E+03  0.00000000000E+00 0. -1.
          6    1    1    2  501    0 -0.74325944851E+02 -0.77417845418E+01  0.21196489471E+01  0.18846159879E+03  0.17300000000E+03 0. -1.
         -6    1    1    2    0  503  0.74325944851E+02  0.77417845418E+01 -0.13173836085E+03  0.22993102667E+03  0.17300000000E+03 0. -1.
<mgrwt>
<rscale>  2 0.18844968E+03</rscale>
<asrwt>0</asrwt>
<pdfrwt beam="1">  1       21 0.22213378E-01 0.18844968E+03</pdfrwt>
<pdfrwt beam="2">  1       21 0.42154718E-01 0.18844968E+03</pdfrwt>
<totfact> 0.10281363E+05</totfact>
</mgrwt>
</event>
<event>
 4    1  0.3902417E-001  0.3620701E+03  0.7546771E-02  0.1057767E+00
         21   -1    0    0  501  502  0.00000000000E+00  0.00000000000E+00  0.98604505772E+03  0.98604505772E+03  0.00000000000E+00 0.  1.
         21   -1    0    0  502  503 -0.00000000000E+00 -0.00000000000E+00 -0.16355549400E+03  0.16355549400E+03  0.00000000000E+00 0. -1.
          6    1    1    2  501    0 -0.29220653192E+03 -0.12562280045E+03  0.65989205539E+03  0.75269666537E+03  0.17300000000E+03 0.  1.
         -6    1    1    2    0  503  0.29220653192E+03  0.12562280045E+03  0.16259750833E+03  0.39690388636E+03  0.17300000000E+03 0. -1.
<mgrwt>
<rscale>  2 0.36207008E+03</rscale>
<asrwt>0</asrwt>
<pdfrwt beam="1">  1       21 0.15169924E+00 0.36207008E+03</pdfrwt>
<pdfrwt beam="2">  1       21 0.25162384E-01 0.36207008E+03</pdfrwt>
<totfact> 0.38988537E+03</totfact>
</mgrwt>
</event>
<event>
 4    1  0.3902417E-001  0.2126413E+03  0.7546771E-02  0.1139491E+00
         21   -1    0    0  501  502  0.00000000000E+00  0.00000000000E+00  0.18386570803E+04  0.18386570803E+04  0.00000000000E+00 0. -1.
         21   -1    0    0  502  503 -0.00000000000E+00 -0.00000000000E+00 -0.26659222908E+02  0.26659222908E+02  0.00000000000E+00 0. -1.
          6    1    1    2  501    0  0.21937872095E+02  0.12168019375E+03  0.64628959768E+03  0.68037238616E+03  0.17300000000E+03 0. -1.
         -6    1    1    2    0  503 -0.21937872095E+02 -0.12168019375E+03  0.11657082597E+04  0.11849439171E+04  0.17300000000E+03 0. -1.
<mgrwt>
<rscale>  2 0.21264134E+03</rscale>
<asrwt>0</asrwt>
<pdfrwt beam="1">  1       21 0.28287022E+00 0.21264134E+03</pdfrwt>
<pdfrwt beam="2">  1       21 0.41014204E-02 0.21264134E+03</pdfrwt>
<totfact> 0.15793940E+04</totfact>
</mgrwt>
</event>
<event>
 4    1  0.3902417E-001  0.2220296E+03  0.7546771E-02  0.1132379E+00
         21   -1    0    0  501  502  0.00000000000E+00  0.00000000000E+00  0.26631684000E+03  0.26631684000E+03  0.00000000000E+00 0.  1.
         21   -1    0    0  502  503 -0.00000000000E+00 -0.00000000000E+00 -0.18671988661E+03  0.18671988661E+03  0.00000000000E+00 0.  1.
          6    1    1    2  501    0  0.94623997352E+02  0.10205114396E+03  0.60850659133E+02  0.23021715743E+03  0.17300000000E+03 0.  1.
         -6    1    1    2    0  503 -0.94623997352E+02 -0.10205114396E+03  0.18746294261E+02  0.22281956917E+03  0.17300000000E+03 0.  1.
<mgrwt>
<rscale>  2 0.22202959E+03</rscale>
<asrwt>0</asrwt>
<pdfrwt beam="1">  1       21 0.40971822E-01 0.22202959E+03</pdfrwt>
<pdfrwt beam="2">  1       21 0.28726136E-01 0.22202959E+03</pdfrwt>
<totfact> 0.65672659E+04</totfact>
</mgrwt>
</event>
<event>
 4    1  0.3902417E-001  0.1789810E+03  0.7546771E-02  0.1168793E+00
         21   -1    0    0  503  502  0.00000000000E+00  0.00000000000E+00  0.28016133219E+02  0.28016133219E+02  0.00000000000E+00 0.  1.
         21   -1    0    0  501  503 -0.00000000000E+00 -0.00000000000E+00 -0.11436247995E+04  0.11436247995E+04  0.00000000000E+00 0.  1.
          6    1    1    2  501    0 -0.40606266344E+02 -0.21362050395E+02 -0.54996418324E+03  0.57835526185E+03  0.17300000000E+03 0.  1.
         -6    1    1    2    0  502  0.40606266344E+02  0.21362050395E+02 -0.56564448307E+03  0.59328567089E+03  0.17300000000E+03 0.  1.
<mgrwt>
<rscale>  2 0.17898102E+03</rscale>
<asrwt>0</asrwt>
<pdfrwt beam="1">  1       21 0.43101740E-02 0.17898102E+03</pdfrwt>
<pdfrwt beam="2">  1       21 0.17594229E+00 0.17898102E+03</pdfrwt>
<totfact> 0.67582651E+04</totfact>
</mgrwt>
</event>
<event>
 4    1  0.3902417E-001  0.1857763E+03  0.7546771E-02  0.1162327E+00
         21   -1    0    0  503  502  0.00000000000E+00  0.00000000000E+00  0.59590252302E+02  0.59590252302E+02  0.00000000000E+00 0.  1.
         21   -1    0    0  501  503 -0.00000000000E+00 -0.00000000000E+00 -0.79943914506E+03  0.79943914506E+03  0.00000000000E+00 0.  1.
          6    1    1    2  501    0 -0.67616202357E+02 -0.34456309110E+01 -0.59538117694E+03  0.62369188631E+03  0.17300000000E+03 0. -1.
         -6    1    1    2    0  502  0.67616202357E+02  0.34456309110E+01 -0.14446771581E+03  0.23533751105E+03  0.17300000000E+03 0. -1.
<mgrwt>
<rscale>  2 0.18577627E+03</rscale>
<asrwt>0</asrwt>
<pdfrwt beam="1">  1       21 0.91677317E-02 0.18577627E+03</pdfrwt>
<pdfrwt beam="2">  1       21 0.12299063E+00 0.18577627E+03</pdfrwt>
<totfact> 0.47145195E+04</totfact>
</mgrwt>
</event>
<event>
 4    1  0.3902417E-001  0.2053199E+03  0.7546771E-02  0.1145327E+00
         21   -1    0    0  501  502  0.00000000000E+00  0.00000000000E+00  0.83380191963E+03  0.83380191963E+03  0.00000000000E+00 0. -1.
         21   -1    0    0  502  503 -0.00000000000E+00 -0.00000000000E+00 -0.73482650483E+02  0.73482650483E+02  0.00000000000E+00 0. -1.
          6    1    1    2  501    0 -0.49533318894E+02 -0.98862025842E+02  0.63353380897E+03  0.66597397617E+03  0.17300000000E+03 0. -1.
         -6    1    1    2    0  503  0.49533318894E+02  0.98862025842E+02  0.12678546018E+03  0.24131059394E+03  0.17300000000E+03 0. -1.
<mgrwt>
<rscale>  2 0.20531987E+03</rscale>
<asrwt>0</asrwt>
<pdfrwt beam="1">  1       21 0.12827721E+00 0.20531987E+03</pdfrwt>
<pdfrwt beam="2">  1       21 0.11305024E-01 0.20531987E+03</pdfrwt>
<totfact> 0.28959151E+04</totfact>
</mgrwt>
</event>
<event>
 4    1  0.3902417E-001  0.1894837E+03  0.7546771E-02  0.1158928E+00
         21   -1    0    0  501  502  0.00000000000E+00  0.00000000000E+00  0.51749662213E+02  0.51749662213E+02  0.00000000000E+00 0. -1.
         21   -1    0    0  502  503 -0.00000000000E+00 -0.00000000000E+00 -0.72847612754E+03  0.72847612754E+03  0.00000000000E+00 0. -1.
          6    1    1    2  501    0  0.54755507924E+02 -0.54561058303E+02 -0.25325360558E+03  0.31629331873E+03  0.17300000000E+03 0. -1.
         -6    1    1    2    0  503 -0.54755507924E+02  0.54561058303E+02 -0.42347285975E+03  0.46393247103E+03  0.17300000000E+03 0. -1.
<mgrwt>
<rscale>  2 0.18948371E+03</rscale>
<asrwt>0</asrwt>
<pdfrwt beam="1">  1       21 0.79614867E-02 0.18948371E+03</pdfrwt>
<pdfrwt beam="2">  1       21 0.11207325E+00 0.18948371E+03</pdfrwt>
<totfact> 0.75648267E+04</totfact>
</mgrwt>
</event>
<event>
 4    1  0.3902417E-001  0.2044484E+03  0.7546771E-02  0.1146039E+00
         21   -1    0    0  503  502  0.00000000000E+00  0.00000000000E+00  0.39058005945E+03  0.39058005945E+03  0.00000000000E+00 0. -1.
         21   -1    0    0  501  503 -0.00000000000E+00 -0.00000000000E+00 -0.11211905033E+03  0.11211905033E+03  0.00000000000E+00 0. -1.
          6    1    1    2  501    0 -0.66648507798E+02  0.86186573731E+02  0.19284256781E+03  0.28104698014E+03  0.17300000000E+03 0.  1.
         -6    1    1    2    0  502  0.66648507798E+02 -0.86186573731E+02  0.85618441312E+02  0.22165212964E+03  0.17300000000E+03 0.  1.
<mgrwt>
<rscale>  2 0.20444840E+03</rscale>
<asrwt>0</asrwt>
<pdfrwt beam="1">  1       21 0.60089239E-01 0.20444840E+03</pdfrwt>
<pdfrwt beam="2">  1       21 0.17249085E-01 0.20444840E+03</pdfrwt>
<totfact> 0.78047004E+04</totfact>
</mgrwt>
</event>
<event>
 4    1  0.3902417E-001  0.2941789E+03  0.7546771E-02  0.1088187E+00
         21   -1    0    0  503  502  0.00000000000E+00  0.00000000000E+00  0.11040407125E+03  0.11040407125E+03  0.00000000000E+00 0.  1.
         21   -1    0    0  501  503 -0.00000000000E+00 -0.00000000000E+00 -0.85175527785E+03  0.85175527785E+03  0.00000000000E+00 0. -1.
          6    1    1    2  501    0 -0.23765766520E+03 -0.11448261048E+02 -0.23484974125E+03  0.37642479923E+03  0.17300000000E+03 0.  1.
         -6    1    1    2    0  502  0.23765766520E+03  0.11448261048E+02 -0.50650146535E+03  0.58573454987E+03  0.17300000000E+03 0.  1.
<mgrwt>
<rscale>  2 0.29417891E+03</rscale>
<asrwt>0</asrwt>
<pdfrwt beam="1">  1       21 0.16985242E-01 0.29417891E+03</pdfrwt>
<pdfrwt beam="2">  1       21 0.13103927E+00 0.29417891E+03</pdfrwt>
<totfact> 0.12475431E+04</totfact>
</mgrwt>
</event>
<event>
 4    1  0.3902417E-001  0.1884737E+03  0.7546771E-02  0.1159845E+00
         21   -1    0    0  501  502  0.00000000000E+00  0.00000000000E+00  0.14910207469E+03  0.14910207469E+03  0.00000000000E+00 0.  1.
         21   -1    0    0  502  503 -0.00000000000E+00 -0.00000000000E+00 -0.24825895916E+03  0.24825895916E+03  0.00000000000E+00 0.  1.
          6    1    1    2  501    0  0.23347770745E+02 -0.71050788324E+02 -0.96688674556E+01  0.18872154068E+03  0.17300000000E+03 0.  1.
         -6    1    1    2    0  503 -0.23347770745E+02  0.71050788324E+02 -0.89488017008E+02  0.20863949317E+03  0.17300000000E+03 0.  1.
<mgrwt>
<rscale>  2 0.18847369E+03</rscale>
<asrwt>0</asrwt>
<pdfrwt beam="1">  1       21 0.22938781E-01 0.18847369E+03</pdfrwt>
<pdfrwt beam="2">  1       21 0.38193685E-01 0.18847369E+03</pdfrwt>
<totfact> 0.11810097E+05</totfact>
</mgrwt>
</event>
<event>
 4    1  0.3902417E-001  0.2000715E+03  0.7546771E-02  0.1149679E+00
         21   -1    0    0  503  502  0.00000000000E+00  0.00000000000E+00  0.40733014314E+03  0.40733014314E+03  0.00000000000E+00 0.  1.
         21   -1    0    0  501  503 -0.00000000000E+00 -0.00000000000E+00 -0.99366810557E+02  0.99366810557E+02  0.00000000000E+00 0.  1.
          6    1    1    2  501    0  0.97278572900E+02  0.25228887891E+02  0.12737287321E+03  0.23717602400E+03  0.17300000000E+03 0.  1.
         -6    1    1    2    0  502 -0.97278572900E+02 -0.25228887891E+02  0.18059045937E+03  0.26952092970E+03  0.17300000000E+03 0.  1.
<mgrwt>
<rscale>  2 0.20007153E+03</rscale>
<asrwt>0</asrwt>
<pdfrwt beam="1">  1       21 0.62666175E-01 0.20007153E+03</pdfrwt>
<pdfrwt beam="2">  1       21 0.15287202E-01 0.20007153E+03</pdfrwt>
<totfact> 0.89132457E+04</totfact>
</mgrwt>
</event>
<event>
 4    1  0.3902417E-001  0.1822867E+03  0.7546771E-02  0.1165608E+00
         21   -1    0    0  501  502  0.00000000000E+00  0.00000000000E+00  0.15153352239E+03  0.15153352239E+03  0.00000000000E+00 0. -1.
         21   -1    0    0  502  503 -0.00000000000E+00 -0.00000000000E+00 -0.21983176297E+03  0.21983176297E+03  0.00000000000E+00 0. -1.
          6    1    1    2  501    0 -0.17545907816E+02  0.54695342011E+02 -0.24855942884E+02  0.18397352314E+03  0.17300000000E+03 0. -1.
         -6    1    1    2    0  503  0.17545907816E+02 -0.54695342011E+02 -0.43442297700E+02  0.18739176222E+03  0.17300000000E+03 0. -1.
<mgrwt>
<rscale>  2 0.18228670E+03</rscale>
<asrwt>0</asrwt>
<pdfrwt beam="1">  1       21 0.23312850E-01 0.18228670E+03</pdfrwt>
<pdfrwt beam="2">  1       21 0.33820271E-01 0.18228670E+03</pdfrwt>
<totfact> 0.14619671E+05</totfact>
</mgrwt>
</event>
<event>
 4    1  0.3902417E-001  0.2081373E+03  0.7546771E-02  0.1143050E+00
         21   -1    0    0  503  502  0.00000000000E+00  0.00000000000E+00  0.15479242485E+03  0.15479242485E+03  0.00000000000E+00 0. -1.
         21   -1    0    0  501  503 -0.00000000000E+00 -0.00000000000E+00 -0.29073344702E+03  0.29073344702E+03  0.00000000000E+00 0. -1.
          6    1    1    2  501    0 -0.11570918565E+03 -0.18737285598E+01 -0.24901933793E+02  0.20962164204E+03  0.17300000000E+03 0.  1.
         -6    1    1    2    0  502  0.11570918565E+03  0.18737285598E+01 -0.11103908838E+03  0.23590422983E+03  0.17300000000E+03 0.  1.
<mgrwt>
<rscale>  2 0.20813728E+03</rscale>
<asrwt>0</asrwt>
<pdfrwt beam="1">  1       21 0.23814219E-01 0.20813728E+03</pdfrwt>
<pdfrwt beam="2">  1       21 0.44728222E-01 0.20813728E+03</pdfrwt>
<totfact> 0.79190842E+04</totfact>
</mgrwt>
</event>
<event>
 4    1  0.3902417E-001  0.2028929E+03  0.7546771E-02  0.1147321E+00
         21   -1    0    0  503  502  0.00000000000E+00  0.00000000000E+00  0.29629527904E+03  0.29629527904E+03  0.00000000000E+00 0. -1.
         21   -1    0    0  501  503 -0.00000000000E+00 -0.00000000000E+00 -0.13977792878E+03  0.13977792878E+03  0.00000000000E+00 0.  1.
          6    1    1    2  501    0 -0.73189524881E+02  0.76679973786E+02  0.95199368959E+02  0.22411703367E+03  0.17300000000E+03 0. -1.
         -6    1    1    2    0  502  0.73189524881E+02 -0.76679973786E+02  0.61317981301E+02  0.21195617416E+03  0.17300000000E+03 0.  1.
<mgrwt>
<rscale>  2 0.20289289E+03</rscale>
<asrwt>0</asrwt>
<pdfrwt beam="1">  1       21 0.45583889E-01 0.20289289E+03</pdfrwt>
<pdfrwt beam="2">  1       21 0.21504297E-01 0.20289289E+03</pdfrwt>
<totfact> 0.92591095E+04</totfact>
</mgrwt>
</event>
<event>
 4    1  0.3902417E-001  0.2163229E+03  0.7546771E-02  0.1136655E+00
         21   -1    0    0  503  502  0.00000000000E+00  0.00000000000E+00  0.65161487588E+02  0.65161487588E+02  0.00000000000E+00 0.  1.
         21   -1    0    0  501  503 -0.00000000000E+00 -0.00000000000E+00 -0.75222347131E+03  0.75222347131E+03  0.00000000000E+00 0.  1.
          6    1    1    2  501    0  0.12959971161E+03 -0.83961732184E+01 -0.25654582142E+03  0.33557613065E+03  0.17300000000E+03 0.  1.
         -6    1    1    2    0  502 -0.12959971161E+03  0.83961732184E+01 -0.43051616231E+03  0.48180882825E+03  0.17300000000E+03 0.  1.
<mgrwt>
<rscale>  2 0.21632286E+03</rscale>
<asrwt>0</asrwt>
<pdfrwt beam="1">  1       21 0.10024845E-01 0.21632286E+03</pdfrwt>
<pdfrwt beam="2">  1       21 0.11572668E+00 0.21632286E+03</pdfrwt>
<totfact> 0.46065848E+04</totfact>
</mgrwt>
</event>
<event>
 4    1  0.3902417E-001  0.1783544E+03  0.7546771E-02  0.1169405E+00
         21   -1    0    0  501  502  0.00000000000E+00  0.00000000000E+00  0.36690142399E+02  0.36690142399E+02  0.00000000000E+00 0.  1.
         21   -1    0    0  502  503 -0.00000000000E+00 -0.00000000000E+00 -0.86764898389E+03  0.86764898389E+03  0.00000000000E+00 0.  1.
          6    1    1    2  501    0 -0.12038392374E+02 -0.41669788093E+02 -0.40309753952E+03  0.44079237799E+03  0.17300000000E+03 0. -1.
         -6    1    1    2    0  503  0.12038392374E+02  0.41669788093E+02 -0.42786130197E+03  0.46354674830E+03  0.17300000000E+03 0. -1.
<mgrwt>
<rscale>  2 0.17835441E+03</rscale>
<asrwt>0</asrwt>
<pdfrwt beam="1">  1       21 0.56446374E-02 0.17835441E+03</pdfrwt>
<pdfrwt beam="2">  1       21 0.13348446E+00 0.17835441E+03</pdfrwt>
<totfact> 0.89071140E+04</totfact>
</mgrwt>
</event>
<event>
 4    1  0.3902417E-001  0.2411135E+03  0.7546771E-02  0.1119053E+00
         21   -1    0    0  501  502  0.00000000000E+00  0.00000000000E+00  0.11938622820E+04  0.11938622820E+04  0.00000000000E+00 0.  1.
         21   -1    0    0  502  503 -0.00000000000E+00 -0.00000000000E+00 -0.53214539539E+02  0.53214539539E+02  0.00000000000E+00 0. -1.
          6    1    1    2  501    0  0.13914468981E+03 -0.94050360618E+02  0.38861699678E+03  0.45733891724E+03  0.17300000000E+03 0. -1.
         -6    1    1    2    0  503 -0.13914468981E+03  0.94050360618E+02  0.75203074566E+03  0.78973790428E+03  0.17300000000E+03 0.  1.
<mgrwt>
<rscale>  2 0.24111349E+03</rscale>
<asrwt>0</asrwt>
<pdfrwt beam="1">  1       21 0.18367110E+00 0.24111349E+03</pdfrwt>
<pdfrwt beam="2">  1       21 0.81868531E-02 0.24111349E+03</pdfrwt>
<totfact> 0.19169826E+04</totfact>
</mgrwt>
</event>
<event>
 4    1  0.3902417E-001  0.2191207E+03  0.7546771E-02  0.1134540E+00
         21   -1    0    0  503  502  0.00000000000E+00  0.00000000000E+00  0.12058672502E+03  0.12058672502E+03  0.00000000000E+00 0.  1.
         21   -1    0    0  501  503 -0.00000000000E+00 -0.00000000000E+00 -0.41645147589E+03  0.41645147589E+03  0.00000000000E+00 0.  1.
          6    1    1    2  501    0 -0.15116887838E+02 -0.13362762413E+03 -0.20419419630E+03  0.29951482773E+03  0.17300000000E+03 0.  1.
         -6    1    1    2    0  502  0.15116887838E+02  0.13362762413E+03 -0.91670554570E+02  0.23752337318E+03  0.17300000000E+03 0.  1.
<mgrwt>
<rscale>  2 0.21912066E+03</rscale>
<asrwt>0</asrwt>
<pdfrwt beam="1">  1       21 0.18551804E-01 0.21912066E+03</pdfrwt>
<pdfrwt beam="2">  1       21 0.64069459E-01 0.21912066E+03</pdfrwt>
<totfact> 0.58983551E+04</totfact>
</mgrwt>
</event>
<event>
 4    1  0.3902417E-001  0.1789060E+03  0.7546771E-02  0.1168866E+00
         21   -1    0    0  503  502  0.00000000000E+00  0.00000000000E+00  0.24007196142E+02  0.24007196142E+02  0.00000000000E+00 0. -1.
         21   -1    0    0  501  503 -0.00000000000E+00 -0.00000000000E+00 -0.13710327232E+04  0.13710327232E+04  0.00000000000E+00 0. -1.
          6    1    1    2  501    0  0.42743047397E+02 -0.15855081785E+02 -0.55770506982E+03  0.58569812756E+03  0.17300000000E+03 0. -1.
         -6    1    1    2    0  502 -0.42743047397E+02  0.15855081785E+02 -0.78932045728E+03  0.80934179183E+03  0.17300000000E+03 0. -1.
<mgrwt>
<rscale>  2 0.17890599E+03</rscale>
<asrwt>0</asrwt>
<pdfrwt beam="1">  1       21 0.36934138E-02 0.17890599E+03</pdfrwt>
<pdfrwt beam="2">  1       21 0.21092817E+00 0.17890599E+03</pdfrwt>
<totfact> 0.51754649E+04</totfact>
</mgrwt>
</event>
<event>
 4    1  0.3902417E-001  0.1745029E+03  0.7546771E-02  0.1173232E+00
         21   -1    0    0  501  502  0.00000000000E+00  0.00000000000E+00  0.95403057683E+03  0.95403057683E+03  0.00000000000E+00 0. -1.
         21   -1    0    0  502  503 -0.00000000000E+00 -0.00000000000E+00 -0.36470303187E+02  0.36470303187E+02  0.00000000000E+00 0. -1.
          6    1    1    2  501    0 -0.78392039761E+01  0.21466504385E+02  0.63374263563E+03  0.65732867893E+03  0.17300000000E+03 0. -1.
         -6    1    1    2    0  503  0.78392039761E+01 -0.21466504385E+02  0.28381763801E+03  0.33317220108E+03  0.17300000000E+03 0. -1.
<mgrwt>
<rscale>  2 0.17450291E+03</rscale>
<asrwt>0</asrwt>
<pdfrwt beam="1">  1       21 0.14677392E+00 0.17450291E+03</pdfrwt>
<pdfrwt beam="2">  1       21 0.56108166E-02 0.17450291E+03</pdfrwt>
<totfact> 0.70635969E+04</totfact>
</mgrwt>
</event>
<event>
 4    1  0.3902417E-001  0.2308807E+03  0.7546771E-02  0.1126021E+00
         21   -1    0    0  503  502  0.00000000000E+00  0.00000000000E+00  0.44233162373E+02  0.44233162373E+02  0.00000000000E+00 0. -1.
         21   -1    0    0  501  503 -0.00000000000E+00 -0.00000000000E+00 -0.12131961002E+04  0.12131961002E+04  0.00000000000E+00 0.  1.
          6    1    1    2  501    0 -0.12415988178E+03  0.89225722566E+02 -0.63580415177E+03  0.67642651132E+03  0.17300000000E+03 0. -1.
         -6    1    1    2    0  502  0.12415988178E+03 -0.89225722566E+02 -0.53315878604E+03  0.58100275123E+03  0.17300000000E+03 0.  1.
<mgrwt>
<rscale>  2 0.23088072E+03</rscale>
<asrwt>0</asrwt>
<pdfrwt beam="1">  1       21 0.68051032E-02 0.23088072E+03</pdfrwt>
<pdfrwt beam="2">  1       21 0.18664552E+00 0.23088072E+03</pdfrwt>
<totfact> 0.25412359E+04</totfact>
</mgrwt>
</event>
<event>
 4    1  0.3902417E-001  0.1939116E+03  0.7546771E-02  0.1154980E+00
         21   -1    0    0  503  502  0.00000000000E+00  0.00000000000E+00  0.23044464907E+03  0.23044464907E+03  0.00000000000E+00 0.  1.
         21   -1    0    0  501  503 -0.00000000000E+00 -0.00000000000E+00 -0.19176324339E+03  0.19176324339E+03  0.00000000000E+00 0.  1.
          6    1    1    2  501    0 -0.39496155156E+02 -0.78184104202E+02 -0.62175478938E+02  0.20363568107E+03  0.17300000000E+03 0. -1.
         -6    1    1    2    0  502  0.39496155156E+02  0.78184104202E+02  0.10085688461E+03  0.21857221140E+03  0.17300000000E+03 0. -1.
<mgrwt>
<rscale>  2 0.19391158E+03</rscale>
<asrwt>0</asrwt>
<pdfrwt beam="1">  1       21 0.35453023E-01 0.19391158E+03</pdfrwt>
<pdfrwt beam="2">  1       21 0.29502038E-01 0.19391158E+03</pdfrwt>
<totfact> 0.84411350E+04</totfact>
</mgrwt>
</event>
<event>
 4    1  0.3902417E-001  0.2534095E+03  0.7546771E-02  0.1111169E+00
         21   -1    0    0  503  502  0.00000000000E+00  0.00000000000E+00  0.36087177280E+03  0.36087177280E+03  0.00000000000E+00 0.  1.
         21   -1    0    0  501  503 -0.00000000000E+00 -0.00000000000E+00 -0.19964861468E+03  0.19964861468E+03  0.00000000000E+00 0. -1.
          6    1    1    2  501    0 -0.12613175143E+03 -0.13556601275E+03 -0.11787067051E+02  0.25368345922E+03  0.17300000000E+03 0. -1.
         -6    1    1    2    0  502  0.12613175143E+03  0.13556601275E+03  0.17301022517E+03  0.30683692826E+03  0.17300000000E+03 0.  1.
<mgrwt>
<rscale>  2 0.25340948E+03</rscale>
<asrwt>0</asrwt>
<pdfrwt beam="1">  1       21 0.55518734E-01 0.25340948E+03</pdfrwt>
<pdfrwt beam="2">  1       21 0.30715172E-01 0.25340948E+03</pdfrwt>
<totfact> 0.30194792E+04</totfact>
</mgrwt>
</event>
<event>
 4    1  0.3902417E-001  0.1797811E+03  0.7546771E-02  0.1168015E+00
         21   -1    0    0  503  502  0.00000000000E+00  0.00000000000E+00  0.28006045864E+03  0.28006045864E+03  0.00000000000E+00 0.  1.
         21   -1    0    0  501  503 -0.00000000000E+00 -0.00000000000E+00 -0.11783958019E+03  0.11783958019E+03  0.00000000000E+00 0.  1.
          6    1    1    2  501    0  0.17257161343E+01  0.48880124226E+02  0.52532296053E+02  0.18729892357E+03  0.17300000000E+03 0.  1.
         -6    1    1    2    0  502 -0.17257161343E+01 -0.48880124226E+02  0.10968858240E+03  0.21060111526E+03  0.17300000000E+03 0.  1.
<mgrwt>
<rscale>  2 0.17978110E+03</rscale>
<asrwt>0</asrwt>
<pdfrwt beam="1">  1       21 0.43086224E-01 0.17978110E+03</pdfrwt>
<pdfrwt beam="2">  1       21 0.18129166E-01 0.17978110E+03</pdfrwt>
<totfact> 0.14411891E+05</totfact>
</mgrwt>
</event>
<event>
 4    1  0.3902417E-001  0.2146046E+03  0.7546771E-02  0.1137971E+00
         21   -1    0    0  501  502  0.00000000000E+00  0.00000000000E+00  0.11483849546E+03  0.11483849546E+03  0.00000000000E+00 0. -1.
         21   -1    0    0  502  503 -0.00000000000E+00 -0.00000000000E+00 -0.54592735138E+03  0.54592735138E+03  0.00000000000E+00 0. -1.
          6    1    1    2  501    0 -0.18266487718E+02 -0.12566816218E+03 -0.45343780464E+02  0.21934267708E+03  0.17300000000E+03 0. -1.
         -6    1    1    2    0  503  0.18266487718E+02  0.12566816218E+03 -0.38574507546E+03  0.44142316976E+03  0.17300000000E+03 0. -1.
<mgrwt>
<rscale>  2 0.21460464E+03</rscale>
<asrwt>0</asrwt>
<pdfrwt beam="1">  1       21 0.17667461E-01 0.21460464E+03</pdfrwt>
<pdfrwt beam="2">  1       21 0.83988821E-01 0.21460464E+03</pdfrwt>
<totfact> 0.35370304E+04</totfact>
</mgrwt>
</event>
<event>
 4    1  0.3902417E-001  0.2076677E+03  0.7546771E-02  0.1143426E+00
         21   -1    0    0  503  502  0.00000000000E+00  0.00000000000E+00  0.40606714367E+03  0.40606714367E+03  0.00000000000E+00 0. -1.
         21   -1    0    0  501  503 -0.00000000000E+00 -0.00000000000E+00 -0.13447789172E+03  0.13447789172E+03  0.00000000000E+00 0.  1.
          6    1    1    2  501    0  0.57044348108E+02  0.99713579683E+02  0.11866148348E+02  0.20800639678E+03  0.17300000000E+03 0. -1.
         -6    1    1    2    0  502 -0.57044348108E+02 -0.99713579683E+02  0.25972310360E+03  0.33253863861E+03  0.17300000000E+03 0. -1.
<mgrwt>
<rscale>  2 0.20766766E+03</rscale>
<asrwt>0</asrwt>
<pdfrwt beam="1">  1       21 0.62471868E-01 0.20766766E+03</pdfrwt>
<pdfrwt beam="2">  1       21 0.20688907E-01 0.20766766E+03</pdfrwt>
<totfact> 0.51089356E+04</totfact>
</mgrwt>
</event>
<event>
 4    1  0.3902417E-001  0.1883276E+03  0.7546771E-02  0.1159978E+00
         21   -1    0    0  503  502  0.00000000000E+00  0.00000000000E+00  0.68782441122E+02  0.68782441122E+02  0.00000000000E+00 0. -1.
         21   -1    0    0  501  503 -0.00000000000E+00 -0.00000000000E+00 -0.57701680828E+03  0.57701680828E+03  0.00000000000E+00 0. -1.
          6    1    1    2  501    0  0.14147430672E+02  0.73062466800E+02 -0.35942491019E+03  0.40577523324E+03  0.17300000000E+03 0. -1.
         -6    1    1    2    0  502 -0.14147430672E+02 -0.73062466800E+02 -0.14880945697E+03  0.24002401616E+03  0.17300000000E+03 0. -1.
<mgrwt>
<rscale>  2 0.18832757E+03</rscale>
<asrwt>0</asrwt>
<pdfrwt beam="1">  1       21 0.10581914E-01 0.18832757E+03</pdfrwt>
<pdfrwt beam="2">  1       21 0.88771816E-01 0.18832757E+03</pdfrwt>
<totfact> 0.79765279E+04</totfact>
</mgrwt>
</event>
<event>
 4    1  0.3902417E-001  0.2028755E+03  0.7546771E-02  0.1147335E+00
         21   -1    0    0  501  502  0.00000000000E+00  0.00000000000E+00  0.55356715123E+02  0.55356715123E+02  0.00000000000E+00 0. -1.
         21   -1    0    0  502  503 -0.00000000000E+00 -0.00000000000E+00 -0.76066605492E+03  0.76066605492E+03  0.00000000000E+00 0.  1.
          6    1    1    2  501    0  0.86006309979E+02  0.61906350126E+02 -0.29138636120E+03  0.35505561963E+03  0.17300000000E+03 0. -1.
         -6    1    1    2    0  503 -0.86006309979E+02 -0.61906350126E+02 -0.41392297860E+03  0.46096715041E+03  0.17300000000E+03 0.  1.
<mgrwt>
<rscale>  2 0.20287553E+03</rscale>
<asrwt>0</asrwt>
<pdfrwt beam="1">  1       21 0.85164181E-02 0.20287553E+03</pdfrwt>
<pdfrwt beam="2">  1       21 0.11702554E+00 0.20287553E+03</pdfrwt>
<totfact> 0.60135224E+04</totfact>
</mgrwt>
</event>
<event>
 4    1  0.3902417E-001  0.1889755E+03  0.7546771E-02  0.1159389E+00
         21   -1    0    0  503  502  0.00000000000E+00  0.00000000000E+00  0.57222534953E+03  0.57222534953E+03  0.00000000000E+00 0. -1.
         21   -1    0    0  501  503 -0.00000000000E+00 -0.00000000000E+00 -0.62503932307E+02  0.62503932307E+02  0.00000000000E+00 0. -1.
          6    1    1    2  501    0 -0.32022182973E+02 -0.68973434377E+02  0.24246313392E+03  0.30740872818E+03  0.17300000000E+03 0. -1.
         -6    1    1    2    0  502  0.32022182973E+02  0.68973434377E+02  0.26725828331E+03  0.32732055366E+03  0.17300000000E+03 0. -1.
<mgrwt>
<rscale>  2 0.18897554E+03</rscale>
<asrwt>0</asrwt>
<pdfrwt beam="1">  1       21 0.88034666E-01 0.18897554E+03</pdfrwt>
<pdfrwt beam="2">  1       21 0.96159900E-02 0.18897554E+03</pdfrwt>
<totfact> 0.96269680E+04</totfact>
</mgrwt>
</event>
<event>
 4    1  0.3902417E-001  0.2089495E+03  0.7546771E-02  0.1142401E+00
         21   -1    0    0  503  502  0.00000000000E+00  0.00000000000E+00  0.85684041892E+02  0.85684041892E+02  0.00000000000E+00 0. -1.
         21   -1    0    0  501  503 -0.00000000000E+00 -0.00000000000E+00 -0.61255438501E+03  0.61255438501E+03  0.00000000000E+00 0.  1.
          6    1    1    2  501    0 -0.71735597734E+02  0.92654787792E+02 -0.40660090064E+03  0.45714789520E+03  0.17300000000E+03 0.  1.
         -6    1    1    2    0  502  0.71735597734E+02 -0.92654787792E+02 -0.12026944248E+03  0.24109053170E+03  0.17300000000E+03 0. -1.
<mgrwt>
<rscale>  2 0.20894953E+03</rscale>
<asrwt>0</asrwt>
<pdfrwt beam="1">  1       21 0.13182160E-01 0.20894953E+03</pdfrwt>
<pdfrwt beam="2">  1       21 0.94239139E-01 0.20894953E+03</pdfrwt>
<totfact> 0.46403434E+04</totfact>
</mgrwt>
</event>
<event>
 4    1  0.3902417E-001  0.2807444E+03  0.7546771E-02  0.1095283E+00
         21   -1    0    0  501  502  0.00000000000E+00  0.00000000000E+00  0.14285382317E+03  0.14285382317E+03  0.00000000000E+00 0.  1.
         21   -1    0    0  502  503 -0.00000000000E+00 -0.00000000000E+00 -0.66798123584E+03  0.66798123584E+03  0.00000000000E+00 0. -1.
          6    1    1    2  501    0  0.20098189438E+03 -0.92166672292E+02 -0.93437728033E+02  0.29588515740E+03  0.17300000000E+03 0.  1.
         -6    1    1    2    0  503 -0.20098189438E+03  0.92166672292E+02 -0.43168968464E+03  0.51494990161E+03  0.17300000000E+03 0. -1.
<mgrwt>
<rscale>  2 0.28074440E+03</rscale>
<asrwt>0</asrwt>
<pdfrwt beam="1">  1       21 0.21977511E-01 0.28074440E+03</pdfrwt>
<pdfrwt beam="2">  1       21 0.10276634E+00 0.28074440E+03</pdfrwt>
<totfact> 0.14153977E+04</totfact>
</mgrwt>
</event>
<event>
 4    1  0.3902417E-001  0.2273932E+03  0.7546771E-02  0.1128488E+00
         21   -1    0    0  501  502  0.00000000000E+00  0.00000000000E+00  0.14801366827E+03  0.14801366827E+03  0.00000000000E+00 0. -1.
         21   -1    0    0  502  503 -0.00000000000E+00 -0.00000000000E+00 -0.35044510177E+03  0.35044510177E+03  0.00000000000E+00 0.  1.
          6    1    1    2  501    0 -0.49692619518E+02  0.13895794205E+03 -0.11518682112E+03  0.25490325587E+03  0.17300000000E+03 0. -1.
         -6    1    1    2    0  503  0.49692619518E+02 -0.13895794205E+03 -0.87244612383E+02  0.24355551417E+03  0.17300000000E+03 0.  1.
<mgrwt>
<rscale>  2 0.22739320E+03</rscale>
<asrwt>0</asrwt>
<pdfrwt beam="1">  1       21 0.22771334E-01 0.22739320E+03</pdfrwt>
<pdfrwt beam="2">  1       21 0.53914631E-01 0.22739320E+03</pdfrwt>
<totfact> 0.57927782E+04</totfact>
</mgrwt>
</event>
<event>
 4    1  0.3902417E-001  0.2309282E+03  0.7546771E-02  0.1125988E+00
         21   -1    0    0  503  502  0.00000000000E+00  0.00000000000E+00  0.19635597365E+03  0.19635597365E+03  0.00000000000E+00 0. -1.
         21   -1    0    0  501  503 -0.00000000000E+00 -0.00000000000E+00 -0.30820585235E+03  0.30820585235E+03  0.00000000000E+00 0.  1.
          6    1    1    2  501    0  0.14045192338E+03 -0.60597608477E+02 -0.14288379340E+03  0.27155771275E+03  0.17300000000E+03 0.  1.
         -6    1    1    2    0  502 -0.14045192338E+03  0.60597608477E+02  0.31033914698E+02  0.23300411326E+03  0.17300000000E+03 0.  1.
<mgrwt>
<rscale>  2 0.23092816E+03</rscale>
<asrwt>0</asrwt>
<pdfrwt beam="1">  1       21 0.30208612E-01 0.23092816E+03</pdfrwt>
<pdfrwt beam="2">  1       21 0.47416285E-01 0.23092816E+03</pdfrwt>
<totfact> 0.43915793E+04</totfact>
</mgrwt>
</event>
<event>
 4    1  0.3902417E-001  0.2660435E+03  0.7546771E-02  0.1103566E+00
         21   -1    0    0  501  502  0.00000000000E+00  0.00000000000E+00  0.96265830364E+03  0.96265830364E+03  0.00000000000E+00 0.  1.
         21   -1    0    0  502  503 -0.00000000000E+00 -0.00000000000E+00 -0.73723424374E+02  0.73723424374E+02  0.00000000000E+00 0. -1.
          6    1    1    2  501    0 -0.17442054554E+03  0.10211572463E+03  0.47137223267E+03  0.54126789084E+03  0.17300000000E+03 0. -1.
         -6    1    1    2    0  503  0.17442054554E+03 -0.10211572463E+03  0.41756264660E+03  0.49511383717E+03  0.17300000000E+03 0.  1.
<mgrwt>
<rscale>  2 0.26604351E+03</rscale>
<asrwt>0</asrwt>
<pdfrwt beam="1">  1       21 0.14810127E+00 0.26604351E+03</pdfrwt>
<pdfrwt beam="2">  1       21 0.11342066E-01 0.26604351E+03</pdfrwt>
<totfact> 0.19204223E+04</totfact>
</mgrwt>
</event>
<event>
 4    1  0.3902417E-001  0.1820361E+03  0.7546771E-02  0.1165847E+00
         21   -1    0    0  503  502  0.00000000000E+00  0.00000000000E+00  0.81435578323E+02  0.81435578323E+02  0.00000000000E+00 0. -1.
         21   -1    0    0  501  503 -0.00000000000E+00 -0.00000000000E+00 -0.45161223837E+03  0.45161223837E+03  0.00000000000E+00 0. -1.
          6    1    1    2  501    0 -0.39486163650E+02 -0.40607716494E+02 -0.10123767316E+03  0.20829356741E+03  0.17300000000E+03 0. -1.
         -6    1    1    2    0  502  0.39486163650E+02  0.40607716494E+02 -0.26893898689E+03  0.32475424928E+03  0.17300000000E+03 0. -1.
<mgrwt>
<rscale>  2 0.18203611E+03</rscale>
<asrwt>0</asrwt>
<pdfrwt beam="1">  1       21 0.12528551E-01 0.18203611E+03</pdfrwt>
<pdfrwt beam="2">  1       21 0.69478805E-01 0.18203611E+03</pdfrwt>
<totfact> 0.10273869E+05</totfact>
</mgrwt>
</event>
<event>
 4    1  0.3902417E-001  0.2208423E+03  0.7546771E-02  0.1133257E+00
         21   -1    0    0  503  502  0.00000000000E+00  0.00000000000E+00  0.62156188725E+03  0.62156188725E+03  0.00000000000E+00 0.  1.
         21   -1    0    0  501  503 -0.00000000000E+00 -0.00000000000E+00 -0.81435991554E+02  0.81435991554E+02  0.00000000000E+00 0. -1.
          6    1    1    2  501    0 -0.21128154208E+02 -0.13563157156E+03  0.20293375560E+03  0.29992237540E+03  0.17300000000E+03 0. -1.
         -6    1    1    2    0  502  0.21128154208E+02  0.13563157156E+03  0.33719214010E+03  0.40307550341E+03  0.17300000000E+03 0.  1.
<mgrwt>
<rscale>  2 0.22084230E+03</rscale>
<asrwt>0</asrwt>
<pdfrwt beam="1">  1       21 0.95624903E-01 0.22084230E+03</pdfrwt>
<pdfrwt beam="2">  1       21 0.12528614E-01 0.22084230E+03</pdfrwt>
<totfact> 0.48862589E+04</totfact>
</mgrwt>
</event>
<event>
 4    1  0.3902417E-001  0.1956453E+03  0.7546771E-02  0.1153466E+00
         21   -1    0    0  503  502  0.00000000000E+00  0.00000000000E+00  0.99536309181E+02  0.99536309181E+02  0.00000000000E+00 0. -1.
         21   -1    0    0  501  503 -0.00000000000E+00 -0.00000000000E+00 -0.40421491843E+03  0.40421491843E+03  0.00000000000E+00 0. -1.
          6    1    1    2  501    0 -0.19275929744E+02 -0.89311371588E+02 -0.96789540741E+02  0.21827802858E+03  0.17300000000E+03 0. -1.
         -6    1    1    2    0  502  0.19275929744E+02  0.89311371588E+02 -0.20788906851E+03  0.28547319904E+03  0.17300000000E+03 0. -1.
<mgrwt>
<rscale>  2 0.19564530E+03</rscale>
<asrwt>0</asrwt>
<pdfrwt beam="1">  1       21 0.15313278E-01 0.19564530E+03</pdfrwt>
<pdfrwt beam="2">  1       21 0.62186911E-01 0.19564530E+03</pdfrwt>
<totfact> 0.90516062E+04</totfact>
</mgrwt>
</event>
<event>
 4    1  0.3902417E-001  0.1890780E+03  0.7546771E-02  0.1159296E+00
         21   -1    0    0  503  502  0.00000000000E+00  0.00000000000E+00  0.14902528676E+03  0.14902528676E+03  0.00000000000E+00 0. -1.
         21   -1    0    0  501  503 -0.00000000000E+00 -0.00000000000E+00 -0.26125995548E+03  0.26125995548E+03  0.00000000000E+00 0. -1.
          6    1    1    2  501    0  0.26844874116E+02 -0.71420060167E+02  0.25460328726E+01  0.18909509392E+03  0.17300000000E+03 0. -1.
         -6    1    1    2    0  502 -0.26844874116E+02  0.71420060167E+02 -0.11478070159E+03  0.22119014833E+03  0.17300000000E+03 0. -1.
<mgrwt>
<rscale>  2 0.18907795E+03</rscale>
<asrwt>0</asrwt>
<pdfrwt beam="1">  1       21 0.22926968E-01 0.18907795E+03</pdfrwt>
<pdfrwt beam="2">  1       21 0.40193839E-01 0.18907795E+03</pdfrwt>
<totfact> 0.10664953E+05</totfact>
</mgrwt>
</event>
<event>
 4    1  0.3902417E-001  0.1936973E+03  0.7546771E-02  0.1155168E+00
         21   -1    0    0  503  502  0.00000000000E+00  0.00000000000E+00  0.87667602762E+02  0.87667602762E+02  0.00000000000E+00 0.  1.
         21   -1    0    0  501  503 -0.00000000000E+00 -0.00000000000E+00 -0.48907956197E+03  0.48907956197E+03  0.00000000000E+00 0. -1.
          6    1    1    2  501    0 -0.64684735402E+02  0.58356813233E+02 -0.98767206272E+02  0.21742491504E+03  0.17300000000E+03 0.  1.
         -6    1    1    2    0  502  0.64684735402E+02 -0.58356813233E+02 -0.30264475293E+03  0.35932224969E+03  0.17300000000E+03 0. -1.
<mgrwt>
<rscale>  2 0.19369727E+03</rscale>
<asrwt>0</asrwt>
<pdfrwt beam="1">  1       21 0.13487323E-01 0.19369727E+03</pdfrwt>
<pdfrwt beam="2">  1       21 0.75243010E-01 0.19369727E+03</pdfrwt>
<totfact> 0.75053668E+04</totfact>
</mgrwt>
</event>
<event>
 4    1  0.3902417E-001  0.1771036E+03  0.7546771E-02  0.1170636E+00
         21   -1    0    0  503  502  0.00000000000E+00  0.00000000000E+00  0.10332307699E+03  0.10332307699E+03  0.00000000000E+00 0.  1.
         21   -1    0    0  501  503 -0.00000000000E+00 -0.00000000000E+00 -0.30492338536E+03  0.30492338536E+03  0.00000000000E+00 0. -1.
          6    1    1    2  501    0  0.34715038306E+01 -0.37744221591E+02 -0.87195834871E+02  0.19740514487E+03  0.17300000000E+03 0.  1.
         -6    1    1    2    0  502 -0.34715038306E+01  0.37744221591E+02 -0.11440447349E+03  0.21084131748E+03  0.17300000000E+03 0. -1.
<mgrwt>
<rscale>  2 0.17710358E+03</rscale>
<asrwt>0</asrwt>
<pdfrwt beam="1">  1       21 0.15895858E-01 0.17710358E+03</pdfrwt>
<pdfrwt beam="2">  1       21 0.46911289E-01 0.17710358E+03</pdfrwt>
<totfact> 0.15425622E+05</totfact>
</mgrwt>
</event>
<event>
 4    1  0.3902417E-001  0.1828394E+03  0.7546771E-02  0.1165083E+00
         21   -1    0    0  501  502  0.00000000000E+00  0.00000000000E+00  0.19825509869E+04  0.19825509869E+04  0.00000000000E+00 0.  1.
         21   -1    0    0  502  503 -0.00000000000E+00 -0.00000000000E+00 -0.16867274332E+02  0.16867274332E+02  0.00000000000E+00 0.  1.
          6    1    1    2  501    0  0.14151613823E+02  0.57454061795E+02  0.10001244263E+04  0.10167001059E+04  0.17300000000E+03 0.  1.
         -6    1    1    2    0  503 -0.14151613823E+02 -0.57454061795E+02  0.96555928630E+03  0.98271815530E+03  0.17300000000E+03 0.  1.
<mgrwt>
<rscale>  2 0.18283938E+03</rscale>
<asrwt>0</asrwt>
<pdfrwt beam="1">  1       21 0.30500766E+00 0.18283938E+03</pdfrwt>
<pdfrwt beam="2">  1       21 0.25949669E-02 0.18283938E+03</pdfrwt>
<totfact> 0.25930414E+04</totfact>
</mgrwt>
</event>
<event>
 4    1  0.3902417E-001  0.1889975E+03  0.7546771E-02  0.1159369E+00
         21   -1    0    0  503  502  0.00000000000E+00  0.00000000000E+00  0.75927381626E+02  0.75927381626E+02  0.00000000000E+00 0.  1.
         21   -1    0    0  501  503 -0.00000000000E+00 -0.00000000000E+00 -0.55126081066E+03  0.55126081066E+03  0.00000000000E+00 0. -1.
          6    1    1    2  501    0 -0.52608522706E+02 -0.54985381926E+02 -0.35773370308E+03  0.40459047345E+03  0.17300000000E+03 0. -1.
         -6    1    1    2    0  502  0.52608522706E+02  0.54985381926E+02 -0.11759972595E+03  0.22259771884E+03  0.17300000000E+03 0.  1.
<mgrwt>
<rscale>  2 0.18899748E+03</rscale>
<asrwt>0</asrwt>
<pdfrwt beam="1">  1       21 0.11681136E-01 0.18899748E+03</pdfrwt>
<pdfrwt beam="2">  1       21 0.84809351E-01 0.18899748E+03</pdfrwt>
<totfact> 0.74281976E+04</totfact>
</mgrwt>
</event>
<event>
 4    1  0.3902417E-001  0.1924187E+03  0.7546771E-02  0.1156298E+00
         21   -1    0    0  503  502  0.00000000000E+00  0.00000000000E+00  0.81015228899E+02  0.81015228899E+02  0.00000000000E+00 0.  1.
         21   -1    0    0  501  503 -0.00000000000E+00 -0.00000000000E+00 -0.60413694067E+03  0.60413694067E+03  0.00000000000E+00 0.  1.
          6    1    1    2  501    0 -0.45624519627E+02  0.70812104634E+02 -0.43061746230E+03  0.47165278521E+03  0.17300000000E+03 0.  1.
         -6    1    1    2    0  502  0.45624519627E+02 -0.70812104634E+02 -0.92504249471E+02  0.21349938436E+03  0.17300000000E+03 0.  1.
<mgrwt>
<rscale>  2 0.19241869E+03</rscale>
<asrwt>0</asrwt>
<pdfrwt beam="1">  1       21 0.12463881E-01 0.19241869E+03</pdfrwt>
<pdfrwt beam="2">  1       21 0.92944145E-01 0.19241869E+03</pdfrwt>
<totfact> 0.53460548E+04</totfact>
</mgrwt>
</event>
<event>
 4    1  0.3902417E-001  0.1977563E+03  0.7546771E-02  0.1151646E+00
         21   -1    0    0  501  502  0.00000000000E+00  0.00000000000E+00  0.34668777797E+03  0.34668777797E+03  0.00000000000E+00 0. -1.
         21   -1    0    0  502  503 -0.00000000000E+00 -0.00000000000E+00 -0.11492096965E+03  0.11492096965E+03  0.00000000000E+00 0. -1.
          6    1    1    2  501    0  0.42282748638E+02  0.85969361781E+02  0.14721356917E+03  0.24653477837E+03  0.17300000000E+03 0. -1.
         -6    1    1    2    0  503 -0.42282748638E+02 -0.85969361781E+02  0.84553239156E+02  0.21507396925E+03  0.17300000000E+03 0. -1.
<mgrwt>
<rscale>  2 0.19775632E+03</rscale>
<asrwt>0</asrwt>
<pdfrwt beam="1">  1       21 0.53336581E-01 0.19775632E+03</pdfrwt>
<pdfrwt beam="2">  1       21 0.17680149E-01 0.19775632E+03</pdfrwt>
<totfact> 0.96383489E+04</totfact>
</mgrwt>
</event>
<event>
 4    1  0.3902417E-001  0.2155604E+03  0.7546771E-02  0.1137237E+00
         21   -1    0    0  501  502  0.00000000000E+00  0.00000000000E+00  0.22701435088E+03  0.22701435088E+03  0.00000000000E+00 0.  1.
         21   -1    0    0  502  503 -0.00000000000E+00 -0.00000000000E+00 -0.22626514563E+03  0.22626514563E+03  0.00000000000E+00 0. -1.
          6    1    1    2  501    0  0.30747628687E+01 -0.12856064121E+03  0.70368573152E+02  0.22675543813E+03  0.17300000000E+03 0. -1.
         -6    1    1    2    0  503 -0.30747628687E+01  0.12856064121E+03 -0.69619367904E+02  0.22652405837E+03  0.17300000000E+03 0. -1.
<mgrwt>
<rscale>  2 0.21556042E+03</rscale>
<asrwt>0</asrwt>
<pdfrwt beam="1">  1       21 0.34925285E-01 0.21556042E+03</pdfrwt>
<pdfrwt beam="2">  1       21 0.34810022E-01 0.21556042E+03</pdfrwt>
<totfact> 0.62219203E+04</totfact>
</mgrwt>
</event>
<event>
 4    1  0.3902417E-001  0.1801960E+03  0.7546771E-02  0.1167614E+00
         21   -1    0    0  503  502  0.00000000000E+00  0.00000000000E+00  0.19100188213E+03  0.19100188213E+03  0.00000000000E+00 0.  1.
         21   -1    0    0  501  503 -0.00000000000E+00 -0.00000000000E+00 -0.17154736051E+03  0.17154736051E+03  0.00000000000E+00 0.  1.
          6    1    1    2  501    0  0.10813880140E+02  0.49240695790E+02 -0.74813215943E+01  0.18035120265E+03  0.17300000000E+03 0.  1.
         -6    1    1    2    0  502 -0.10813880140E+02 -0.49240695790E+02  0.26935843216E+02  0.18219803999E+03  0.17300000000E+03 0.  1.
<mgrwt>
<rscale>  2 0.18019597E+03</rscale>
<asrwt>0</asrwt>
<pdfrwt beam="1">  1       21 0.29384905E-01 0.18019597E+03</pdfrwt>
<pdfrwt beam="2">  1       21 0.26391902E-01 0.18019597E+03</pdfrwt>
<totfact> 0.15209291E+05</totfact>
</mgrwt>
</event>
<event>
 4    1  0.3902417E-001  0.2541475E+03  0.7546771E-02  0.1110711E+00
         21   -1    0    0  501  502  0.00000000000E+00  0.00000000000E+00  0.13318070572E+03  0.13318070572E+03  0.00000000000E+00 0.  1.
         21   -1    0    0  502  503 -0.00000000000E+00 -0.00000000000E+00 -0.51252226598E+03  0.51252226598E+03  0.00000000000E+00 0. -1.
          6    1    1    2  501    0  0.86196102278E+02 -0.16502170746E+03 -0.26450320388E+03  0.36681449923E+03  0.17300000000E+03 0. -1.
         -6    1    1    2    0  503 -0.86196102278E+02  0.16502170746E+03 -0.11483835637E+03  0.27888847247E+03  0.17300000000E+03 0.  1.
<mgrwt>
<rscale>  2 0.25414746E+03</rscale>
<asrwt>0</asrwt>
<pdfrwt beam="1">  1       21 0.20489339E-01 0.25414746E+03</pdfrwt>
<pdfrwt beam="2">  1       21 0.78849580E-01 0.25414746E+03</pdfrwt>
<totfact> 0.30398017E+04</totfact>
</mgrwt>
</event>
<event>
 4    1  0.3902417E-001  0.2545176E+03  0.7546771E-02  0.1110483E+00
         21   -1    0    0  503  502  0.00000000000E+00  0.00000000000E+00  0.16042618451E+03  0.16042618451E+03  0.00000000000E+00 0.  1.
         21   -1    0    0  501  503 -0.00000000000E+00 -0.00000000000E+00 -0.56582322144E+03  0.56582322144E+03  0.00000000000E+00 0. -1.
          6    1    1    2  501    0 -0.18210903075E+03 -0.41067347279E+02 -0.39701573780E+03  0.47159381055E+03  0.17300000000E+03 0. -1.
         -6    1    1    2    0  502  0.18210903075E+03  0.41067347279E+02 -0.83812991340E+01  0.25465559540E+03  0.17300000000E+03 0.  1.
<mgrwt>
<rscale>  2 0.25451763E+03</rscale>
<asrwt>0</asrwt>
<pdfrwt beam="1">  1       21 0.24680951E-01 0.25451763E+03</pdfrwt>
<pdfrwt beam="2">  1       21 0.87049727E-01 0.25451763E+03</pdfrwt>
<totfact> 0.17002980E+04</totfact>
</mgrwt>
</event>
<event>
 4    1  0.3902417E-001  0.1813784E+03  0.7546771E-02  0.1166476E+00
         21   -1    0    0  501  502  0.00000000000E+00  0.00000000000E+00  0.66053036821E+02  0.66053036821E+02  0.00000000000E+00 0. -1.
         21   -1    0    0  502  503 -0.00000000000E+00 -0.00000000000E+00 -0.53740388074E+03  0.53740388074E+03  0.00000000000E+00 0. -1.
          6    1    1    2  501    0 -0.52054757397E+02  0.16107201530E+02 -0.15403144048E+03  0.23795761044E+03  0.17300000000E+03 0. -1.
         -6    1    1    2    0  503  0.52054757397E+02 -0.16107201530E+02 -0.31731940344E+03  0.36549930713E+03  0.17300000000E+03 0. -1.
<mgrwt>
<rscale>  2 0.18137844E+03</rscale>
<asrwt>0</asrwt>
<pdfrwt beam="1">  1       21 0.10162006E-01 0.18137844E+03</pdfrwt>
<pdfrwt beam="2">  1       21 0.82677517E-01 0.18137844E+03</pdfrwt>
<totfact> 0.10112314E+05</totfact>
</mgrwt>
</event>
<event>
 4    1  0.3902417E-001  0.2351770E+03  0.7546771E-02  0.1123048E+00
         21   -1    0    0  503  502  0.00000000000E+00  0.00000000000E+00  0.29406432447E+03  0.29406432447E+03  0.00000000000E+00 0. -1.
         21   -1    0    0  501  503 -0.00000000000E+00 -0.00000000000E+00 -0.21402352579E+03  0.21402352579E+03  0.00000000000E+00 0. -1.
          6    1    1    2  501    0 -0.11985263596E+03 -0.10495033536E+03 -0.48424994147E+02  0.24011082295E+03  0.17300000000E+03 0. -1.
         -6    1    1    2    0  502  0.11985263596E+03  0.10495033536E+03  0.12846579283E+03  0.26797702731E+03  0.17300000000E+03 0. -1.
<mgrwt>
<rscale>  2 0.23517701E+03</rscale>
<asrwt>0</asrwt>
<pdfrwt beam="1">  1       21 0.45240665E-01 0.23517701E+03</pdfrwt>
<pdfrwt beam="2">  1       21 0.32926696E-01 0.23517701E+03</pdfrwt>
<totfact> 0.40774004E+04</totfact>
</mgrwt>
</event>
<event>
 4    1  0.3902417E-001  0.1931268E+03  0.7546771E-02  0.1155671E+00
         21   -1    0    0  503  502  0.00000000000E+00  0.00000000000E+00  0.17194772945E+03  0.17194772945E+03  0.00000000000E+00 0.  1.
         21   -1    0    0  501  503 -0.00000000000E+00 -0.00000000000E+00 -0.21739492023E+03  0.21739492023E+03  0.00000000000E+00 0.  1.
          6    1    1    2  501    0  0.67487072888E+02  0.53051531405E+02 -0.31874215301E+02  0.19573945845E+03  0.17300000000E+03 0.  1.
         -6    1    1    2    0  502 -0.67487072888E+02 -0.53051531405E+02 -0.13572975482E+02  0.19360319123E+03  0.17300000000E+03 0.  1.
<mgrwt>
<rscale>  2 0.19312682E+03</rscale>
<asrwt>0</asrwt>
<pdfrwt beam="1">  1       21 0.26453497E-01 0.19312682E+03</pdfrwt>
<pdfrwt beam="2">  1       21 0.33445372E-01 0.19312682E+03</pdfrwt>
<totfact> 0.11702557E+05</totfact>
</mgrwt>
</event>
<event>
 4    1  0.3902417E-001  0.2072979E+03  0.7546771E-02  0.1143724E+00
         21   -1    0    0  503  502  0.00000000000E+00  0.00000000000E+00  0.34675517901E+02  0.34675517901E+02  0.00000000000E+00 0. -1.
         21   -1    0    0  501  503 -0.00000000000E+00 -0.00000000000E+00 -0.17312096816E+04  0.17312096816E+04  0.00000000000E+00 0. -1.
          6    1    1    2  501    0  0.10584710503E+03  0.42893112052E+02 -0.13189325048E+04  0.13351237324E+04  0.17300000000E+03 0. -1.
         -6    1    1    2    0  502 -0.10584710503E+03 -0.42893112052E+02 -0.37760165893E+03  0.43076146709E+03  0.17300000000E+03 0. -1.
<mgrwt>
<rscale>  2 0.20729792E+03</rscale>
<asrwt>0</asrwt>
<pdfrwt beam="1">  1       21 0.53346960E-02 0.20729792E+03</pdfrwt>
<pdfrwt beam="2">  1       21 0.26633990E+00 0.20729792E+03</pdfrwt>
<totfact> 0.12686192E+04</totfact>
</mgrwt>
</event>
<event>
 4    1  0.3902417E-001  0.2054305E+03  0.7546771E-02  0.1145236E+00
         21   -1    0    0  501  502  0.00000000000E+00  0.00000000000E+00  0.18274559952E+03  0.18274559952E+03  0.00000000000E+00 0. -1.
         21   -1    0    0  502  503 -0.00000000000E+00 -0.00000000000E+00 -0.23905626116E+03  0.23905626116E+03  0.00000000000E+00 0.  1.
          6    1    1    2  501    0 -0.10993735055E+03 -0.13656103437E+02 -0.67036068591E+02  0.21609151927E+03  0.17300000000E+03 0.  1.
         -6    1    1    2    0  503  0.10993735055E+03  0.13656103437E+02  0.10725406954E+02  0.20571034141E+03  0.17300000000E+03 0. -1.
<mgrwt>
<rscale>  2 0.20543055E+03</rscale>
<asrwt>0</asrwt>
<pdfrwt beam="1">  1       21 0.28114708E-01 0.20543055E+03</pdfrwt>
<pdfrwt beam="2">  1       21 0.36777886E-01 0.20543055E+03</pdfrwt>
<totfact> 0.85723953E+04</totfact>
</mgrwt>
</event>
<event>
 4    1  0.3902417E-001  0.1914260E+03  0.7546771E-02  0.1157181E+00
         21   -1    0    0  501  502  0.00000000000E+00  0.00000000000E+00  0.48945878251E+03  0.48945878251E+03  0.00000000000E+00 0. -1.
         21   -1    0    0  502  503 -0.00000000000E+00 -0.00000000000E+00 -0.78747329468E+02  0.78747329468E+02  0.00000000000E+00 0. -1.
          6    1    1    2  501    0 -0.25008697029E+02  0.78034994726E+02  0.26842818664E+03  0.32969317055E+03  0.17300000000E+03 0.  1.
         -6    1    1    2    0  503  0.25008697029E+02 -0.78034994726E+02  0.14228326641E+03  0.23851294143E+03  0.17300000000E+03 0.  1.
<mgrwt>
<rscale>  2 0.19142595E+03</rscale>
<asrwt>0</asrwt>
<pdfrwt beam="1">  1       21 0.75301350E-01 0.19142595E+03</pdfrwt>
<pdfrwt beam="2">  1       21 0.12114974E-01 0.19142595E+03</pdfrwt>
<totfact> 0.90951902E+04</totfact>
</mgrwt>
</event>
<event>
 4    1  0.3902417E-001  0.2505758E+03  0.7546771E-02  0.1112941E+00
         21   -1    0    0  503  502  0.00000000000E+00  0.00000000000E+00  0.92990465059E+02  0.92990465059E+02  0.00000000000E+00 0. -1.
         21   -1    0    0  501  503 -0.00000000000E+00 -0.00000000000E+00 -0.79807257826E+03  0.79807257826E+03  0.00000000000E+00 0.  1.
          6    1    1    2  501    0 -0.12726179605E+02  0.18082384326E+03 -0.52735040694E+03  0.58385500737E+03  0.17300000000E+03 0.  1.
         -6    1    1    2    0  502  0.12726179605E+02 -0.18082384326E+03 -0.17773170627E+03  0.30720803595E+03  0.17300000000E+03 0. -1.
<mgrwt>
<rscale>  2 0.25057577E+03</rscale>
<asrwt>0</asrwt>
<pdfrwt beam="1">  1       21 0.14306226E-01 0.25057577E+03</pdfrwt>
<pdfrwt beam="2">  1       21 0.12278040E+00 0.25057577E+03</pdfrwt>
<totfact> 0.20626350E+04</totfact>
</mgrwt>
</event>
<event>
 4    1  0.3902417E-001  0.2098346E+03  0.7546771E-02  0.1141697E+00
         21   -1    0    0  501  502  0.00000000000E+00  0.00000000000E+00  0.66627007704E+03  0.66627007704E+03  0.00000000000E+00 0.  1.
         21   -1    0    0  502  503 -0.00000000000E+00 -0.00000000000E+00 -0.67925139501E+02  0.67925139501E+02  0.00000000000E+00 0.  1.
          6    1    1    2  501    0  0.88745639303E+01 -0.11841785772E+03  0.23875313685E+03  0.31785784129E+03  0.17300000000E+03 0.  1.
         -6    1    1    2    0  503 -0.88745639303E+01  0.11841785772E+03  0.35959180069E+03  0.41633737525E+03  0.17300000000E+03 0.  1.
<mgrwt>
<rscale>  2 0.20983457E+03</rscale>
<asrwt>0</asrwt>
<pdfrwt beam="1">  1       21 0.10250308E+00 0.20983457E+03</pdfrwt>
<pdfrwt beam="2">  1       21 0.10450022E-01 0.20983457E+03</pdfrwt>
<totfact> 0.57607539E+04</totfact>
</mgrwt>
</event>
<event>
 4    1  0.3902417E-001  0.1898327E+03  0.7546771E-02  0.1158612E+00
         21   -1    0    0  501  502  0.00000000000E+00  0.00000000000E+00  0.16506455549E+03  0.16506455549E+03  0.00000000000E+00 0. -1.
         21   -1    0    0  502  503 -0.00000000000E+00 -0.00000000000E+00 -0.22943984892E+03  0.22943984892E+03  0.00000000000E+00 0. -1.
          6    1    1    2  501    0 -0.74510830413E+02 -0.23570853766E+02  0.11242319391E+02  0.19016529321E+03  0.17300000000E+03 0. -1.
         -6    1    1    2    0  503  0.74510830413E+02  0.23570853766E+02 -0.75617612822E+02  0.20433911120E+03  0.17300000000E+03 0. -1.
<mgrwt>
<rscale>  2 0.18983269E+03</rscale>
<asrwt>0</asrwt>
<pdfrwt beam="1">  1       21 0.25394547E-01 0.18983269E+03</pdfrwt>
<pdfrwt beam="2">  1       21 0.35298438E-01 0.18983269E+03</pdfrwt>
<totfact> 0.11386576E+05</totfact>
</mgrwt>
</event>
<event>
 4    1  0.3902417E-001  0.3651139E+03  0.7546771E-02  0.1056577E+00
         21   -1    0    0  501  502  0.00000000000E+00  0.00000000000E+00  0.19530113959E+03  0.19530113959E+03  0.00000000000E+00 0. -1.
         21   -1    0    0  502  503 -0.00000000000E+00 -0.00000000000E+00 -0.70603136947E+03  0.70603136947E+03  0.00000000000E+00 0.  1.
          6    1    1    2  501    0  0.10036771631E+03 -0.30545944431E+03 -0.33750439834E+03  0.49720958307E+03  0.17300000000E+03 0. -1.
         -6    1    1    2    0  503 -0.10036771631E+03  0.30545944431E+03 -0.17322583154E+03  0.40412292599E+03  0.17300000000E+03 0.  1.
<mgrwt>
<rscale>  2 0.36511389E+03</rscale>
<asrwt>0</asrwt>
<pdfrwt beam="1">  1       21 0.30046329E-01 0.36511389E+03</pdfrwt>
<pdfrwt beam="2">  1       21 0.10862021E+00 0.36511389E+03</pdfrwt>
<totfact> 0.65006351E+03</totfact>
</mgrwt>
</event>
<event>
 4    1  0.3902417E-001  0.2423313E+03  0.7546771E-02  0.1118249E+00
         21   -1    0    0  501  502  0.00000000000E+00  0.00000000000E+00  0.12279041921E+04  0.12279041921E+04  0.00000000000E+00 0.  1.
         21   -1    0    0  502  503 -0.00000000000E+00 -0.00000000000E+00 -0.49073139536E+02  0.49073139536E+02  0.00000000000E+00 0. -1.
          6    1    1    2  501    0 -0.30334549117E+02  0.16695885374E+03  0.69124496834E+03  0.73249167228E+03  0.17300000000E+03 0.  1.
         -6    1    1    2    0  503  0.30334549117E+02 -0.16695885374E+03  0.48758608423E+03  0.54448565936E+03  0.17300000000E+03 0.  1.
<mgrwt>
<rscale>  2 0.24233127E+03</rscale>
<asrwt>0</asrwt>
<pdfrwt beam="1">  1       21 0.18890831E+00 0.24233127E+03</pdfrwt>
<pdfrwt beam="2">  1       21 0.75497147E-02 0.24233127E+03</pdfrwt>
<totfact> 0.20348614E+04</totfact>
</mgrwt>
</event>
<event>
 4    1  0.3902417E-001  0.1883149E+03  0.7546771E-02  0.1159990E+00
         21   -1    0    0  501  502  0.00000000000E+00  0.00000000000E+00  0.14894053953E+03  0.14894053953E+03  0.00000000000E+00 0. -1.
         21   -1    0    0  502  503 -0.00000000000E+00 -0.00000000000E+00 -0.24117659538E+03  0.24117659538E+03  0.00000000000E+00 0. -1.
          6    1    1    2  501    0  0.32719249673E+02 -0.66805248605E+02 -0.68155003513E+02  0.20026880697E+03  0.17300000000E+03 0. -1.
         -6    1    1    2    0  503 -0.32719249673E+02  0.66805248605E+02 -0.24081052334E+02  0.18984832794E+03  0.17300000000E+03 0. -1.
<mgrwt>
<rscale>  2 0.18831487E+03</rscale>
<asrwt>0</asrwt>
<pdfrwt beam="1">  1       21 0.22913929E-01 0.18831487E+03</pdfrwt>
<pdfrwt beam="2">  1       21 0.37104091E-01 0.18831487E+03</pdfrwt>
<totfact> 0.12540978E+05</totfact>
</mgrwt>
</event>
<event>
 4    1  0.3902417E-001  0.2078132E+03  0.7546771E-02  0.1143309E+00
         21   -1    0    0  503  502  0.00000000000E+00  0.00000000000E+00  0.24690288563E+03  0.24690288563E+03  0.00000000000E+00 0. -1.
         21   -1    0    0  501  503 -0.00000000000E+00 -0.00000000000E+00 -0.18030107043E+03  0.18030107043E+03  0.00000000000E+00 0. -1.
          6    1    1    2  501    0  0.10676772453E+03 -0.43104482424E+02 -0.36267955982E+01  0.20784488700E+03  0.17300000000E+03 0. -1.
         -6    1    1    2    0  502 -0.10676772453E+03  0.43104482424E+02  0.70228610795E+02  0.21935906906E+03  0.17300000000E+03 0. -1.
<mgrwt>
<rscale>  2 0.20781324E+03</rscale>
<asrwt>0</asrwt>
<pdfrwt beam="1">  1       21 0.37985060E-01 0.20781324E+03</pdfrwt>
<pdfrwt beam="2">  1       21 0.27738626E-01 0.20781324E+03</pdfrwt>
<totfact> 0.82391365E+04</totfact>
</mgrwt>
</event>
<event>
 4    1  0.3902417E-001  0.1904711E+03  0.7546771E-02  0.1158037E+00
         21   -1    0    0  503  502  0.00000000000E+00  0.00000000000E+00  0.76869024785E+02  0.76869024785E+02  0.00000000000E+00 0. -1.
         21   -1    0    0  501  503 -0.00000000000E+00 -0.00000000000E+00 -0.47559753983E+03  0.47559753983E+03  0.00000000000E+00 0.  1.
          6    1    1    2  501    0 -0.27377280965E+02 -0.74838063645E+02 -0.17521263001E+03  0.25880246714E+03  0.17300000000E+03 0. -1.
         -6    1    1    2    0  502  0.27377280965E+02  0.74838063645E+02 -0.22351588504E+03  0.29366409748E+03  0.17300000000E+03 0. -1.
<mgrwt>
<rscale>  2 0.19047113E+03</rscale>
<asrwt>0</asrwt>
<pdfrwt beam="1">  1       21 0.11826004E-01 0.19047113E+03</pdfrwt>
<pdfrwt beam="2">  1       21 0.73168853E-01 0.19047113E+03</pdfrwt>
<totfact> 0.10127828E+05</totfact>
</mgrwt>
</event>
<event>
 4    1  0.3902417E-001  0.2056179E+03  0.7546771E-02  0.1145084E+00
         21   -1    0    0  503  502  0.00000000000E+00  0.00000000000E+00  0.43303029834E+03  0.43303029834E+03  0.00000000000E+00 0. -1.
         21   -1    0    0  501  503 -0.00000000000E+00 -0.00000000000E+00 -0.97634696960E+02  0.97634696960E+02  0.00000000000E+00 0. -1.
          6    1    1    2  501    0 -0.47812668465E+02 -0.10031780656E+03  0.16803522557E+03  0.26554575992E+03  0.17300000000E+03 0. -1.
         -6    1    1    2    0  502  0.47812668465E+02  0.10031780656E+03  0.16736037580E+03  0.26511923538E+03  0.17300000000E+03 0. -1.
<mgrwt>
<rscale>  2 0.20561788E+03</rscale>
<asrwt>0</asrwt>
<pdfrwt beam="1">  1       21 0.66620045E-01 0.20561788E+03</pdfrwt>
<pdfrwt beam="2">  1       21 0.15020723E-01 0.20561788E+03</pdfrwt>
<totfact> 0.80368843E+04</totfact>
</mgrwt>
</event>
<event>
 4    1  0.3902417E-001  0.2045031E+03  0.7546771E-02  0.1145994E+00
         21   -1    0    0  501  502  0.00000000000E+00  0.00000000000E+00  0.28877500922E+02  0.28877500922E+02  0.00000000000E+00 0.  1.
         21   -1    0    0  502  503 -0.00000000000E+00 -0.00000000000E+00 -0.15523654346E+04  0.15523654346E+04  0.00000000000E+00 0. -1.
          6    1    1    2  501    0  0.78799763755E+02  0.75386373795E+02 -0.55698015855E+03  0.59333667099E+03  0.17300000000E+03 0.  1.
         -6    1    1    2    0  503 -0.78799763755E+02 -0.75386373795E+02 -0.96650777515E+03  0.98790626455E+03  0.17300000000E+03 0. -1.
<mgrwt>
<rscale>  2 0.20450308E+03</rscale>
<asrwt>0</asrwt>
<pdfrwt beam="1">  1       21 0.44426915E-02 0.20450308E+03</pdfrwt>
<pdfrwt beam="2">  1       21 0.23882550E+00 0.20450308E+03</pdfrwt>
<totfact> 0.25188370E+04</totfact>
</mgrwt>
</event>
<event>
 4    1  0.3902417E-001  0.1754929E+03  0.7546771E-02  0.1172238E+00
         21   -1    0    0  501  502  0.00000000000E+00  0.00000000000E+00  0.22902553439E+03  0.22902553439E+03  0.00000000000E+00 0.  1.
         21   -1    0    0  502  503 -0.00000000000E+00 -0.00000000000E+00 -0.14517194632E+03  0.14517194632E+03  0.00000000000E+00 0.  1.
          6    1    1    2  501    0 -0.12193393098E+02  0.26833971805E+02  0.92719445843E+02  0.19848082153E+03  0.17300000000E+03 0.  1.
         -6    1    1    2    0  503  0.12193393098E+02 -0.26833971805E+02 -0.88658577749E+01  0.17571665918E+03  0.17300000000E+03 0.  1.
<mgrwt>
<rscale>  2 0.17549285E+03</rscale>
<asrwt>0</asrwt>
<pdfrwt beam="1">  1       21 0.35234698E-01 0.17549285E+03</pdfrwt>
<pdfrwt beam="2">  1       21 0.22334146E-01 0.17549285E+03</pdfrwt>
<totfact> 0.14651902E+05</totfact>
</mgrwt>
</event>
<event>
 4    1  0.3902417E-001  0.1990954E+03  0.7546771E-02  0.1150505E+00
         21   -1    0    0  503  502  0.00000000000E+00  0.00000000000E+00  0.47762234844E+03  0.47762234844E+03  0.00000000000E+00 0.  1.
         21   -1    0    0  501  503 -0.00000000000E+00 -0.00000000000E+00 -0.90099492953E+02  0.90099492953E+02  0.00000000000E+00 0.  1.
          6    1    1    2  501    0 -0.96790505263E+02 -0.18481311152E+02  0.11403642562E+03  0.22944120628E+03  0.17300000000E+03 0.  1.
         -6    1    1    2    0  502  0.96790505263E+02  0.18481311152E+02  0.27348642988E+03  0.33828063512E+03  0.17300000000E+03 0.  1.
<mgrwt>
<rscale>  2 0.19909536E+03</rscale>
<asrwt>0</asrwt>
<pdfrwt beam="1">  1       21 0.73480360E-01 0.19909536E+03</pdfrwt>
<pdfrwt beam="2">  1       21 0.13861461E-01 0.19909536E+03</pdfrwt>
<totfact> 0.75121227E+04</totfact>
</mgrwt>
</event>
<event>
 4    1  0.3902417E-001  0.2692287E+03  0.7546771E-02  0.1101722E+00
         21   -1    0    0  503  502  0.00000000000E+00  0.00000000000E+00  0.33216295737E+03  0.33216295737E+03  0.00000000000E+00 0.  1.
         21   -1    0    0  501  503 -0.00000000000E+00 -0.00000000000E+00 -0.26097751982E+03  0.26097751982E+03  0.00000000000E+00 0. -1.
          6    1    1    2  501    0  0.20607847174E+03 -0.93156520808E+01  0.15563649517E+03  0.31097722830E+03  0.17300000000E+03 0.  1.
         -6    1    1    2    0  502 -0.20607847174E+03  0.93156520808E+01 -0.84451057625E+02  0.28216324889E+03  0.17300000000E+03 0. -1.
<mgrwt>
<rscale>  2 0.26922875E+03</rscale>
<asrwt>0</asrwt>
<pdfrwt beam="1">  1       21 0.51101993E-01 0.26922875E+03</pdfrwt>
<pdfrwt beam="2">  1       21 0.40150388E-01 0.26922875E+03</pdfrwt>
<totfact> 0.20917303E+04</totfact>
</mgrwt>
</event>
<event>
 4    1  0.3902417E-001  0.2042149E+03  0.7546771E-02  0.1146231E+00
         21   -1    0    0  501  502  0.00000000000E+00  0.00000000000E+00  0.16640705644E+03  0.16640705644E+03  0.00000000000E+00 0. -1.
         21   -1    0    0  502  503 -0.00000000000E+00 -0.00000000000E+00 -0.36702104373E+03  0.36702104373E+03  0.00000000000E+00 0. -1.
          6    1    1    2  501    0  0.36803428577E+02  0.10207952848E+03  0.49900796782E+02  0.21022324327E+03  0.17300000000E+03 0. -1.
         -6    1    1    2    0  503 -0.36803428577E+02 -0.10207952848E+03 -0.25051478407E+03  0.32320485690E+03  0.17300000000E+03 0. -1.
<mgrwt>
<rscale>  2 0.20421489E+03</rscale>
<asrwt>0</asrwt>
<pdfrwt beam="1">  1       21 0.25601086E-01 0.20421489E+03</pdfrwt>
<pdfrwt beam="2">  1       21 0.56464775E-01 0.20421489E+03</pdfrwt>
<totfact> 0.42450152E+04</totfact>
</mgrwt>
</event>
<event>
 4    1  0.3902417E-001  0.1971012E+03  0.7546771E-02  0.1152208E+00
         21   -1    0    0  503  502  0.00000000000E+00  0.00000000000E+00  0.13960198309E+04  0.13960198309E+04  0.00000000000E+00 0.  1.
         21   -1    0    0  501  503 -0.00000000000E+00 -0.00000000000E+00 -0.34172723680E+02  0.34172723680E+02  0.00000000000E+00 0.  1.
          6    1    1    2  501    0 -0.94363144902E+02 -0.39323789562E+01  0.37280304163E+03  0.42170010027E+03  0.17300000000E+03 0.  1.
         -6    1    1    2    0  502  0.94363144902E+02  0.39323789562E+01  0.98904406561E+03  0.10084924543E+04  0.17300000000E+03 0.  1.
<mgrwt>
<rscale>  2 0.19710116E+03</rscale>
<asrwt>0</asrwt>
<pdfrwt beam="1">  1       21 0.21477224E+00 0.19710116E+03</pdfrwt>
<pdfrwt beam="2">  1       21 0.52573432E-02 0.19710116E+03</pdfrwt>
<totfact> 0.26675620E+04</totfact>
</mgrwt>
</event>
<event>
 4    1  0.3902417E-001  0.1949396E+03  0.7546771E-02  0.1154080E+00
         21   -1    0    0  501  502  0.00000000000E+00  0.00000000000E+00  0.68015718077E+03  0.68015718077E+03  0.00000000000E+00 0.  1.
         21   -1    0    0  502  503 -0.00000000000E+00 -0.00000000000E+00 -0.89267916472E+02  0.89267916472E+02  0.00000000000E+00 0. -1.
          6    1    1    2  501    0  0.51912706744E+02 -0.73331527083E+02  0.53075345130E+03  0.56542078849E+03  0.17300000000E+03 0.  1.
         -6    1    1    2    0  503 -0.51912706744E+02  0.73331527083E+02  0.60135812996E+02  0.20400430875E+03  0.17300000000E+03 0. -1.
<mgrwt>
<rscale>  2 0.19493959E+03</rscale>
<asrwt>0</asrwt>
<pdfrwt beam="1">  1       21 0.10463956E+00 0.19493959E+03</pdfrwt>
<pdfrwt beam="2">  1       21 0.13733526E-01 0.19493959E+03</pdfrwt>
<totfact> 0.33872002E+04</totfact>
</mgrwt>
</event>
<event>
 4    1  0.3902417E-001  0.3319519E+03  0.7546771E-02  0.1070276E+00
         21   -1    0    0  503  502  0.00000000000E+00  0.00000000000E+00  0.61485345135E+03  0.61485345135E+03  0.00000000000E+00 0. -1.
         21   -1    0    0  501  503 -0.00000000000E+00 -0.00000000000E+00 -0.18225366263E+03  0.18225366263E+03  0.00000000000E+00 0. -1.
          6    1    1    2  501    0  0.63915661575E+02  0.27600336132E+03  0.26774703237E+03  0.42647454859E+03  0.17300000000E+03 0. -1.
         -6    1    1    2    0  502 -0.63915661575E+02 -0.27600336132E+03  0.16485275634E+03  0.37063256539E+03  0.17300000000E+03 0. -1.
<mgrwt>
<rscale>  2 0.33195191E+03</rscale>
<asrwt>0</asrwt>
<pdfrwt beam="1">  1       21 0.94592838E-01 0.33195191E+03</pdfrwt>
<pdfrwt beam="2">  1       21 0.28039025E-01 0.33195191E+03</pdfrwt>
<totfact> 0.10551631E+04</totfact>
</mgrwt>
</event>
<event>
 4    1  0.3902417E-001  0.2284756E+03  0.7546771E-02  0.1127717E+00
         21   -1    0    0  501  502  0.00000000000E+00  0.00000000000E+00  0.17131387200E+03  0.17131387200E+03  0.00000000000E+00 0. -1.
         21   -1    0    0  502  503 -0.00000000000E+00 -0.00000000000E+00 -0.30507783509E+03  0.30507783509E+03  0.00000000000E+00 0. -1.
          6    1    1    2  501    0  0.13448147066E+03  0.64705774599E+02 -0.58614527870E+02  0.23587447105E+03  0.17300000000E+03 0. -1.
         -6    1    1    2    0  503 -0.13448147066E+03 -0.64705774599E+02 -0.75149435213E+02  0.24051723604E+03  0.17300000000E+03 0. -1.
<mgrwt>
<rscale>  2 0.22847561E+03</rscale>
<asrwt>0</asrwt>
<pdfrwt beam="1">  1       21 0.26355980E-01 0.22847561E+03</pdfrwt>
<pdfrwt beam="2">  1       21 0.46935051E-01 0.22847561E+03</pdfrwt>
<totfact> 0.58537574E+04</totfact>
</mgrwt>
</event>
<event>
 4    1  0.3902417E-001  0.2029895E+03  0.7546771E-02  0.1147241E+00
         21   -1    0    0  501  502  0.00000000000E+00  0.00000000000E+00  0.13268351815E+02  0.13268351815E+02  0.00000000000E+00 0. -1.
         21   -1    0    0  502  503 -0.00000000000E+00 -0.00000000000E+00 -0.32395946825E+04  0.32395946825E+04  0.00000000000E+00 0.  1.
          6    1    1    2  501    0 -0.81952021067E+02 -0.67524940457E+02 -0.19440734635E+04  0.19546422647E+04  0.17300000000E+03 0.  1.
         -6    1    1    2    0  503  0.81952021067E+02  0.67524940457E+02 -0.12822528672E+04  0.12982207696E+04  0.17300000000E+03 0. -1.
<mgrwt>
<rscale>  2 0.20298954E+03</rscale>
<asrwt>0</asrwt>
<pdfrwt beam="1">  1       21 0.20412864E-02 0.20298954E+03</pdfrwt>
<pdfrwt beam="2">  1       21 0.49839880E+00 0.20298954E+03</pdfrwt>
<totfact> 0.22787602E+03</totfact>
</mgrwt>
</event>
<event>
 4    1  0.3902417E-001  0.1851817E+03  0.7546771E-02  0.1162880E+00
         21   -1    0    0  501  502  0.00000000000E+00  0.00000000000E+00  0.13731042576E+03  0.13731042576E+03  0.00000000000E+00 0.  1.
         21   -1    0    0  502  503 -0.00000000000E+00 -0.00000000000E+00 -0.29128313798E+03  0.29128313798E+03  0.00000000000E+00 0. -1.
          6    1    1    2  501    0  0.28081736691E+02 -0.59788764189E+02  0.39406302749E+01  0.18522367242E+03  0.17300000000E+03 0.  1.
         -6    1    1    2    0  503 -0.28081736691E+02  0.59788764189E+02 -0.15791334249E+03  0.24336989131E+03  0.17300000000E+03 0. -1.
<mgrwt>
<rscale>  2 0.18518175E+03</rscale>
<asrwt>0</asrwt>
<pdfrwt beam="1">  1       21 0.21124681E-01 0.18518175E+03</pdfrwt>
<pdfrwt beam="2">  1       21 0.44812789E-01 0.18518175E+03</pdfrwt>
<totfact> 0.99859446E+04</totfact>
</mgrwt>
</event>
<event>
 4    1  0.3902417E-001  0.2204390E+03  0.7546771E-02  0.1133556E+00
         21   -1    0    0  503  502  0.00000000000E+00  0.00000000000E+00  0.23000390404E+03  0.23000390404E+03  0.00000000000E+00 0. -1.
         21   -1    0    0  501  503 -0.00000000000E+00 -0.00000000000E+00 -0.21712692726E+03  0.21712692726E+03  0.00000000000E+00 0. -1.
          6    1    1    2  501    0 -0.11703760782E+03 -0.70473879884E+02 -0.30273762907E+02  0.22250813493E+03  0.17300000000E+03 0. -1.
         -6    1    1    2    0  502  0.11703760782E+03  0.70473879884E+02  0.43150739686E+02  0.22462269637E+03  0.17300000000E+03 0. -1.
<mgrwt>
<rscale>  2 0.22043904E+03</rscale>
<asrwt>0</asrwt>
<pdfrwt beam="1">  1       21 0.35385216E-01 0.22043904E+03</pdfrwt>
<pdfrwt beam="2">  1       21 0.33404143E-01 0.22043904E+03</pdfrwt>
<totfact> 0.65650635E+04</totfact>
</mgrwt>
</event>
<event>
 4    1  0.3902417E-001  0.2680899E+03  0.7546771E-02  0.1102378E+00
         21   -1    0    0  503  502  0.00000000000E+00  0.00000000000E+00  0.72057045251E+03  0.72057045251E+03  0.00000000000E+00 0. -1.
         21   -1    0    0  501  503 -0.00000000000E+00 -0.00000000000E+00 -0.10104106652E+03  0.10104106652E+03  0.00000000000E+00 0. -1.
          6    1    1    2  501    0 -0.99234596125E+02 -0.17915275196E+03  0.26321105599E+03  0.37570237369E+03  0.17300000000E+03 0. -1.
         -6    1    1    2    0  502  0.99234596125E+02  0.17915275196E+03  0.35631833001E+03  0.44590914534E+03  0.17300000000E+03 0. -1.
<mgrwt>
<rscale>  2 0.26808994E+03</rscale>
<asrwt>0</asrwt>
<pdfrwt beam="1">  1       21 0.11085699E+00 0.26808994E+03</pdfrwt>
<pdfrwt beam="2">  1       21 0.15544780E-01 0.26808994E+03</pdfrwt>
<totfact> 0.22622127E+04</totfact>
</mgrwt>
</event>
<event>
 4    1  0.3902417E-001  0.1778076E+03  0.7546771E-02  0.1169942E+00
         21   -1    0    0  503  502  0.00000000000E+00  0.00000000000E+00  0.15696013613E+03  0.15696013613E+03  0.00000000000E+00 0.  1.
         21   -1    0    0  501  503 -0.00000000000E+00 -0.00000000000E+00 -0.37442203324E+03  0.37442203324E+03  0.00000000000E+00 0.  1.
          6    1    1    2  501    0 -0.37623778722E+02  0.16461870463E+02 -0.28933057119E+03  0.33959935414E+03  0.17300000000E+03 0.  1.
         -6    1    1    2    0  502  0.37623778722E+02 -0.16461870463E+02  0.71868674088E+02  0.19178281524E+03  0.17300000000E+03 0.  1.
<mgrwt>
<rscale>  2 0.17780760E+03</rscale>
<asrwt>0</asrwt>
<pdfrwt beam="1">  1       21 0.24147713E-01 0.17780760E+03</pdfrwt>
<pdfrwt beam="2">  1       21 0.57603389E-01 0.17780760E+03</pdfrwt>
<totfact> 0.46084088E+04</totfact>
</mgrwt>
</event>
<event>
 4    1  0.3902417E-001  0.1931842E+03  0.7546771E-02  0.1155620E+00
         21   -1    0    0  503  502  0.00000000000E+00  0.00000000000E+00  0.15400866923E+03  0.15400866923E+03  0.00000000000E+00 0.  1.
         21   -1    0    0  501  503 -0.00000000000E+00 -0.00000000000E+00 -0.24499842615E+03  0.24499842615E+03  0.00000000000E+00 0.  1.
          6    1    1    2  501    0 -0.45849868804E+02 -0.72725087446E+02 -0.66335185070E+02  0.20425598055E+03  0.17300000000E+03 0.  1.
         -6    1    1    2    0  502  0.45849868804E+02  0.72725087446E+02 -0.24654571852E+02  0.19475111483E+03  0.17300000000E+03 0.  1.
<mgrwt>
<rscale>  2 0.19318424E+03</rscale>
<asrwt>0</asrwt>
<pdfrwt beam="1">  1       21 0.23693642E-01 0.19318424E+03</pdfrwt>
<pdfrwt beam="2">  1       21 0.37692065E-01 0.19318424E+03</pdfrwt>
<totfact> 0.11387030E+05</totfact>
</mgrwt>
</event>
<event>
 4    1  0.3902417E-001  0.2990324E+03  0.7546771E-02  0.1085725E+00
         21   -1    0    0  503  502  0.00000000000E+00  0.00000000000E+00  0.15242616776E+04  0.15242616776E+04  0.00000000000E+00 0.  1.
         21   -1    0    0  501  503 -0.00000000000E+00 -0.00000000000E+00 -0.58852529638E+02  0.58852529638E+02  0.00000000000E+00 0.  1.
          6    1    1    2  501    0 -0.21661393611E+03 -0.11211492292E+03  0.77742257024E+03  0.83295030223E+03  0.17300000000E+03 0.  1.
         -6    1    1    2    0  502  0.21661393611E+03  0.11211492292E+03  0.68798657773E+03  0.75016390502E+03  0.17300000000E+03 0.  1.
<mgrwt>
<rscale>  2 0.29903236E+03</rscale>
<asrwt>0</asrwt>
<pdfrwt beam="1">  1       21 0.23450177E+00 0.29903236E+03</pdfrwt>
<pdfrwt beam="2">  1       21 0.90542365E-02 0.29903236E+03</pdfrwt>
<totfact> 0.73180148E+03</totfact>
</mgrwt>
</event>
<event>
 4    1  0.3902417E-001  0.1794447E+03  0.7546771E-02  0.1168342E+00
         21   -1    0    0  501  502  0.00000000000E+00  0.00000000000E+00  0.57562831480E+02  0.57562831480E+02  0.00000000000E+00 0.  1.
         21   -1    0    0  502  503 -0.00000000000E+00 -0.00000000000E+00 -0.55939573725E+03  0.55939573725E+03  0.00000000000E+00 0.  1.
          6    1    1    2  501    0  0.39091610545E+02  0.27262393921E+02 -0.25074100286E+03  0.30833657365E+03  0.17300000000E+03 0.  1.
         -6    1    1    2    0  503 -0.39091610545E+02 -0.27262393921E+02 -0.25109190291E+03  0.30862199508E+03  0.17300000000E+03 0.  1.
<mgrwt>
<rscale>  2 0.17944468E+03</rscale>
<asrwt>0</asrwt>
<pdfrwt beam="1">  1       21 0.88558199E-02 0.17944468E+03</pdfrwt>
<pdfrwt beam="2">  1       21 0.86060886E-01 0.17944468E+03</pdfrwt>
<totfact> 0.11762372E+05</totfact>
</mgrwt>
</event>
<event>
 4    1  0.3902417E-001  0.1764587E+03  0.7546771E-02  0.1171275E+00
         21   -1    0    0  501  502  0.00000000000E+00  0.00000000000E+00  0.57717951748E+02  0.57717951748E+02  0.00000000000E+00 0.  1.
         21   -1    0    0  502  503 -0.00000000000E+00 -0.00000000000E+00 -0.57498025300E+03  0.57498025300E+03  0.00000000000E+00 0.  1.
          6    1    1    2  501    0 -0.33119333888E+02  0.10572801870E+02 -0.18002500131E+03  0.25208465942E+03  0.17300000000E+03 0.  1.
         -6    1    1    2    0  503  0.33119333888E+02 -0.10572801870E+02 -0.33723729994E+03  0.38061354533E+03  0.17300000000E+03 0.  1.
<mgrwt>
<rscale>  2 0.17645870E+03</rscale>
<asrwt>0</asrwt>
<pdfrwt beam="1">  1       21 0.88796851E-02 0.17645870E+03</pdfrwt>
<pdfrwt beam="2">  1       21 0.88458498E-01 0.17645870E+03</pdfrwt>
<totfact> 0.11004790E+05</totfact>
</mgrwt>
</event>
<event>
 4    1  0.3902417E-001  0.2081503E+03  0.7546771E-02  0.1143039E+00
         21   -1    0    0  503  502  0.00000000000E+00  0.00000000000E+00  0.40646828036E+03  0.40646828036E+03  0.00000000000E+00 0.  1.
         21   -1    0    0  501  503 -0.00000000000E+00 -0.00000000000E+00 -0.10661286054E+03  0.10661286054E+03  0.00000000000E+00 0. -1.
          6    1    1    2  501    0 -0.10860603680E+03 -0.40028320040E+02  0.14639694643E+03  0.25447711795E+03  0.17300000000E+03 0. -1.
         -6    1    1    2    0  502  0.10860603680E+03  0.40028320040E+02  0.15345847338E+03  0.25860402295E+03  0.17300000000E+03 0. -1.
<mgrwt>
<rscale>  2 0.20815028E+03</rscale>
<asrwt>0</asrwt>
<pdfrwt beam="1">  1       21 0.62533581E-01 0.20815028E+03</pdfrwt>
<pdfrwt beam="2">  1       21 0.16401979E-01 0.20815028E+03</pdfrwt>
<totfact> 0.78441953E+04</totfact>
</mgrwt>
</event>
<event>
 4    1  0.3902417E-001  0.1835664E+03  0.7546771E-02  0.1164395E+00
         21   -1    0    0  503  502  0.00000000000E+00  0.00000000000E+00  0.57698594684E+02  0.57698594684E+02  0.00000000000E+00 0. -1.
         21   -1    0    0  501  503 -0.00000000000E+00 -0.00000000000E+00 -0.59089223145E+03  0.59089223145E+03  0.00000000000E+00 0. -1.
          6    1    1    2  501    0  0.60871771540E+02  0.78892050520E+01 -0.30159300811E+03  0.35306508559E+03  0.17300000000E+03 0. -1.
         -6    1    1    2    0  502 -0.60871771540E+02 -0.78892050520E+01 -0.23160062866E+03  0.29552574054E+03  0.17300000000E+03 0. -1.
<mgrwt>
<rscale>  2 0.18356637E+03</rscale>
<asrwt>0</asrwt>
<pdfrwt beam="1">  1       21 0.88767072E-02 0.18356637E+03</pdfrwt>
<pdfrwt beam="2">  1       21 0.90906493E-01 0.18356637E+03</pdfrwt>
<totfact> 0.10309447E+05</totfact>
</mgrwt>
</event>
<event>
 4    1  0.3902417E-001  0.2673778E+03  0.7546771E-02  0.1102790E+00
         21   -1    0    0  501  502  0.00000000000E+00  0.00000000000E+00  0.14221873590E+03  0.14221873590E+03  0.00000000000E+00 0. -1.
         21   -1    0    0  502  503 -0.00000000000E+00 -0.00000000000E+00 -0.50338433198E+03  0.50338433198E+03  0.00000000000E+00 0.  1.
          6    1    1    2  501    0 -0.11767621394E+03  0.16647583685E+03 -0.16853116151E+03  0.31605956398E+03  0.17300000000E+03 0.  1.
         -6    1    1    2    0  503  0.11767621394E+03 -0.16647583685E+03 -0.19263443457E+03  0.32954350391E+03  0.17300000000E+03 0. -1.
<mgrwt>
<rscale>  2 0.26737781E+03</rscale>
<asrwt>0</asrwt>
<pdfrwt beam="1">  1       21 0.21879805E-01 0.26737781E+03</pdfrwt>
<pdfrwt beam="2">  1       21 0.77443745E-01 0.26737781E+03</pdfrwt>
<totfact> 0.27806235E+04</totfact>
</mgrwt>
</event>
<event>
 4    1  0.3902417E-001  0.2646304E+03  0.7546771E-02  0.1104393E+00
         21   -1    0    0  501  502  0.00000000000E+00  0.00000000000E+00  0.29993711132E+04  0.29993711132E+04  0.00000000000E+00 0. -1.
         21   -1    0    0  502  503 -0.00000000000E+00 -0.00000000000E+00 -0.23588048325E+02  0.23588048325E+02  0.00000000000E+00 0.  1.
          6    1    1    2  501    0 -0.17757866856E+02 -0.19946160102E+03  0.13354093563E+04  0.13613770312E+04  0.17300000000E+03 0. -1.
         -6    1    1    2    0  503  0.17757866856E+02  0.19946160102E+03  0.16403737086E+04  0.16615821304E+04  0.17300000000E+03 0. -1.
<mgrwt>
<rscale>  2 0.26463044E+03</rscale>
<asrwt>0</asrwt>
<pdfrwt beam="1">  1       21 0.46144141E+00 0.26463044E+03</pdfrwt>
<pdfrwt beam="2">  1       21 0.36289329E-02 0.26463044E+03</pdfrwt>
<totfact> 0.14643667E+03</totfact>
</mgrwt>
</event>
<event>
 4    1  0.3902417E-001  0.2519449E+03  0.7546771E-02  0.1112082E+00
         21   -1    0    0  503  502  0.00000000000E+00  0.00000000000E+00  0.64356475218E+02  0.64356475218E+02  0.00000000000E+00 0. -1.
         21   -1    0    0  501  503 -0.00000000000E+00 -0.00000000000E+00 -0.10662148867E+04  0.10662148867E+04  0.00000000000E+00 0. -1.
          6    1    1    2  501    0 -0.85621997046E+02  0.16191381986E+03 -0.65566810305E+03  0.70240791054E+03  0.17300000000E+03 0. -1.
         -6    1    1    2    0  502  0.85621997046E+02 -0.16191381986E+03 -0.34619030843E+03  0.42816345137E+03  0.17300000000E+03 0. -1.
<mgrwt>
<rscale>  2 0.25194486E+03</rscale>
<asrwt>0</asrwt>
<pdfrwt beam="1">  1       21 0.99009969E-02 0.25194486E+03</pdfrwt>
<pdfrwt beam="2">  1       21 0.16403305E+00 0.25194486E+03</pdfrwt>
<totfact> 0.18713969E+04</totfact>
</mgrwt>
</event>
<event>
 4    1  0.3902417E-001  0.1730428E+03  0.7546771E-02  0.1174711E+00
         21   -1    0    0  501  502  0.00000000000E+00  0.00000000000E+00  0.80959388025E+03  0.80959388025E+03  0.00000000000E+00 0. -1.
         21   -1    0    0  502  503 -0.00000000000E+00 -0.00000000000E+00 -0.65076128829E+02  0.65076128829E+02  0.00000000000E+00 0. -1.
          6    1    1    2  501    0 -0.29596425332E+00  0.38356691217E+01  0.65958738248E+03  0.68190858265E+03  0.17300000000E+03 0. -1.
         -6    1    1    2    0  503  0.29596425332E+00 -0.38356691217E+01  0.84930368933E+02  0.19276142643E+03  0.17300000000E+03 0. -1.
<mgrwt>
<rscale>  2 0.17304277E+03</rscale>
<asrwt>0</asrwt>
<pdfrwt beam="1">  1       21 0.12455290E+00 0.17304277E+03</pdfrwt>
<pdfrwt beam="2">  1       21 0.10011713E-01 0.17304277E+03</pdfrwt>
<totfact> 0.39409624E+04</totfact>
</mgrwt>
</event>
<event>
 4    1  0.3902417E-001  0.1805422E+03  0.7546771E-02  0.1167279E+00
         21   -1    0    0  503  502  0.00000000000E+00  0.00000000000E+00  0.23010574848E+03  0.23010574848E+03  0.00000000000E+00 0. -1.
         21   -1    0    0  501  503 -0.00000000000E+00 -0.00000000000E+00 -0.15421744026E+03  0.15421744026E+03  0.00000000000E+00 0. -1.
          6    1    1    2  501    0  0.23961464151E+02  0.45742000160E+02 -0.16902221015E+02  0.18133165035E+03  0.17300000000E+03 0. -1.
         -6    1    1    2    0  502 -0.23961464151E+02 -0.45742000160E+02  0.92790529232E+02  0.20299153839E+03  0.17300000000E+03 0. -1.
<mgrwt>
<rscale>  2 0.18054219E+03</rscale>
<asrwt>0</asrwt>
<pdfrwt beam="1">  1       21 0.35400884E-01 0.18054219E+03</pdfrwt>
<pdfrwt beam="2">  1       21 0.23725760E-01 0.18054219E+03</pdfrwt>
<totfact> 0.12926712E+05</totfact>
</mgrwt>
</event>
<event>
 4    1  0.3902417E-001  0.2539016E+03  0.7546771E-02  0.1110864E+00
         21   -1    0    0  503  502  0.00000000000E+00  0.00000000000E+00  0.42162798352E+03  0.42162798352E+03  0.00000000000E+00 0.  1.
         21   -1    0    0  501  503 -0.00000000000E+00 -0.00000000000E+00 -0.23481196071E+03  0.23481196071E+03  0.00000000000E+00 0. -1.
          6    1    1    2  501    0  0.14455464621E+03  0.11679457298E+03 -0.10045020846E+03  0.27304992657E+03  0.17300000000E+03 0. -1.
         -6    1    1    2    0  502 -0.14455464621E+03 -0.11679457298E+03  0.28726623127E+03  0.38339001767E+03  0.17300000000E+03 0.  1.
<mgrwt>
<rscale>  2 0.25390159E+03</rscale>
<asrwt>0</asrwt>
<pdfrwt beam="1">  1       21 0.64865844E-01 0.25390159E+03</pdfrwt>
<pdfrwt beam="2">  1       21 0.36124917E-01 0.25390159E+03</pdfrwt>
<totfact> 0.15623508E+04</totfact>
</mgrwt>
</event>
<event>
 4    1  0.3902417E-001  0.2857253E+03  0.7546771E-02  0.1092602E+00
         21   -1    0    0  503  502  0.00000000000E+00  0.00000000000E+00  0.59378802464E+03  0.59378802464E+03  0.00000000000E+00 0.  1.
         21   -1    0    0  501  503 -0.00000000000E+00 -0.00000000000E+00 -0.18111689285E+03  0.18111689285E+03  0.00000000000E+00 0. -1.
          6    1    1    2  501    0 -0.16640373758E+03 -0.15498311275E+03  0.16173443369E+02  0.28618272029E+03  0.17300000000E+03 0. -1.
         -6    1    1    2    0  502  0.16640373758E+03  0.15498311275E+03  0.39649768842E+03  0.48872219721E+03  0.17300000000E+03 0.  1.
<mgrwt>
<rscale>  2 0.28572534E+03</rscale>
<asrwt>0</asrwt>
<pdfrwt beam="1">  1       21 0.91352003E-01 0.28572534E+03</pdfrwt>
<pdfrwt beam="2">  1       21 0.27864138E-01 0.28572534E+03</pdfrwt>
<totfact> 0.11835599E+04</totfact>
</mgrwt>
</event>
<event>
 4    1  0.3902417E-001  0.2195779E+03  0.7546771E-02  0.1134198E+00
         21   -1    0    0  501  502  0.00000000000E+00  0.00000000000E+00  0.47625788393E+02  0.47625788393E+02  0.00000000000E+00 0. -1.
         21   -1    0    0  502  503 -0.00000000000E+00 -0.00000000000E+00 -0.11404371170E+04  0.11404371170E+04  0.00000000000E+00 0.  1.
          6    1    1    2  501    0  0.12895102662E+03 -0.40707151334E+02 -0.74547743164E+03  0.77714287008E+03  0.17300000000E+03 0.  1.
         -6    1    1    2    0  503 -0.12895102662E+03  0.40707151334E+02 -0.34733389696E+03  0.41092003530E+03  0.17300000000E+03 0. -1.
<mgrwt>
<rscale>  2 0.21957787E+03</rscale>
<asrwt>0</asrwt>
<pdfrwt beam="1">  1       21 0.73270449E-02 0.21957787E+03</pdfrwt>
<pdfrwt beam="2">  1       21 0.17545185E+00 0.21957787E+03</pdfrwt>
<totfact> 0.26848079E+04</totfact>
</mgrwt>
</event>
<event>
 4    1  0.3902417E-001  0.2365942E+03  0.7546771E-02  0.1122083E+00
         21   -1    0    0  501  502  0.00000000000E+00  0.00000000000E+00  0.10662321804E+04  0.10662321804E+04  0.00000000000E+00 0.  1.
         21   -1    0    0  502  503 -0.00000000000E+00 -0.00000000000E+00 -0.68238701989E+02  0.68238701989E+02  0.00000000000E+00 0.  1.
          6    1    1    2  501    0  0.16059674903E+03  0.16015276129E+02  0.77141575034E+03  0.80688231158E+03  0.17300000000E+03 0.  1.
         -6    1    1    2    0  503 -0.16059674903E+03 -0.16015276129E+02  0.22657772807E+03  0.32758857081E+03  0.17300000000E+03 0.  1.
<mgrwt>
<rscale>  2 0.23659418E+03</rscale>
<asrwt>0</asrwt>
<pdfrwt beam="1">  1       21 0.16403571E+00 0.23659418E+03</pdfrwt>
<pdfrwt beam="2">  1       21 0.10498263E-01 0.23659418E+03</pdfrwt>
<totfact> 0.17011300E+04</totfact>
</mgrwt>
</event>
<event>
 4    1  0.3902417E-001  0.2193707E+03  0.7546771E-02  0.1134353E+00
         21   -1    0    0  503  502  0.00000000000E+00  0.00000000000E+00  0.33827829285E+03  0.33827829285E+03  0.00000000000E+00 0. -1.
         21   -1    0    0  501  503 -0.00000000000E+00 -0.00000000000E+00 -0.14254019547E+03  0.14254019547E+03  0.00000000000E+00 0. -1.
          6    1    1    2  501    0  0.65243296304E+02  0.11805860762E+03  0.10852500655E+03  0.24474721570E+03  0.17300000000E+03 0. -1.
         -6    1    1    2    0  502 -0.65243296304E+02 -0.11805860762E+03  0.87213090828E+02  0.23607127262E+03  0.17300000000E+03 0. -1.
<mgrwt>
<rscale>  2 0.21937074E+03</rscale>
<asrwt>0</asrwt>
<pdfrwt beam="1">  1       21 0.52042814E-01 0.21937074E+03</pdfrwt>
<pdfrwt beam="2">  1       21 0.21929261E-01 0.21937074E+03</pdfrwt>
<totfact> 0.67258446E+04</totfact>
</mgrwt>
</event>
<event>
 4    1  0.3902417E-001  0.2119619E+03  0.7546771E-02  0.1140022E+00
         21   -1    0    0  501  502  0.00000000000E+00  0.00000000000E+00  0.90535330247E+03  0.90535330247E+03  0.00000000000E+00 0.  1.
         21   -1    0    0  502  503 -0.00000000000E+00 -0.00000000000E+00 -0.52078738428E+02  0.52078738428E+02  0.00000000000E+00 0.  1.
          6    1    1    2  501    0  0.92564867864E+02  0.80190943388E+02  0.53055574167E+03  0.57132935964E+03  0.17300000000E+03 0.  1.
         -6    1    1    2    0  503 -0.92564867864E+02 -0.80190943388E+02  0.32271882237E+03  0.38610268126E+03  0.17300000000E+03 0.  1.
<mgrwt>
<rscale>  2 0.21196189E+03</rscale>
<asrwt>0</asrwt>
<pdfrwt beam="1">  1       21 0.13928511E+00 0.21196189E+03</pdfrwt>
<pdfrwt beam="2">  1       21 0.80121143E-02 0.21196189E+03</pdfrwt>
<totfact> 0.42928145E+04</totfact>
</mgrwt>
</event>
<event>
 4    1  0.3902417E-001  0.1767529E+03  0.7546771E-02  0.1170983E+00
         21   -1    0    0  503  502  0.00000000000E+00  0.00000000000E+00  0.76647757246E+03  0.76647757246E+03  0.00000000000E+00 0. -1.
         21   -1    0    0  501  503 -0.00000000000E+00 -0.00000000000E+00 -0.42971766475E+02  0.42971766475E+02  0.00000000000E+00 0. -1.
          6    1    1    2  501    0  0.26069540642E+02 -0.25159116651E+02  0.26993217078E+03  0.32265303179E+03  0.17300000000E+03 0. -1.
         -6    1    1    2    0  502 -0.26069540642E+02  0.25159116651E+02  0.45357363520E+03  0.48679630715E+03  0.17300000000E+03 0. -1.
<mgrwt>
<rscale>  2 0.17675294E+03</rscale>
<asrwt>0</asrwt>
<pdfrwt beam="1">  1       21 0.11791962E+00 0.17675294E+03</pdfrwt>
<pdfrwt beam="2">  1       21 0.66110416E-02 0.17675294E+03</pdfrwt>
<totfact> 0.92702661E+04</totfact>
</mgrwt>
</event>
<event>
 4    1  0.3902417E-001  0.2085338E+03  0.7546771E-02  0.1142732E+00
         21   -1    0    0  503  502  0.00000000000E+00  0.00000000000E+00  0.75353099010E+02  0.75353099010E+02  0.00000000000E+00 0. -1.
         21   -1    0    0  501  503 -0.00000000000E+00 -0.00000000000E+00 -0.58071868917E+03  0.58071868917E+03  0.00000000000E+00 0. -1.
          6    1    1    2  501    0 -0.20859796046E+02 -0.11455220805E+03 -0.27857455219E+03  0.34798005774E+03  0.17300000000E+03 0. -1.
         -6    1    1    2    0  502  0.20859796046E+02  0.11455220805E+03 -0.22679103797E+03  0.30809173044E+03  0.17300000000E+03 0. -1.
<mgrwt>
<rscale>  2 0.20853378E+03</rscale>
<asrwt>0</asrwt>
<pdfrwt beam="1">  1       21 0.11592785E-01 0.20853378E+03</pdfrwt>
<pdfrwt beam="2">  1       21 0.89341331E-01 0.20853378E+03</pdfrwt>
<totfact> 0.66201395E+04</totfact>
</mgrwt>
</event>
<event>
 4    1  0.3902417E-001  0.2181322E+03  0.7546771E-02  0.1135283E+00
         21   -1    0    0  503  502  0.00000000000E+00  0.00000000000E+00  0.59419863090E+03  0.59419863090E+03  0.00000000000E+00 0. -1.
         21   -1    0    0  501  503 -0.00000000000E+00 -0.00000000000E+00 -0.88439840156E+02  0.88439840156E+02  0.00000000000E+00 0. -1.
          6    1    1    2  501    0 -0.12657240635E+03  0.40398817933E+02  0.14792178940E+03  0.26355738335E+03  0.17300000000E+03 0. -1.
         -6    1    1    2    0  502  0.12657240635E+03 -0.40398817933E+02  0.35783700134E+03  0.41908108770E+03  0.17300000000E+03 0. -1.
<mgrwt>
<rscale>  2 0.21813216E+03</rscale>
<asrwt>0</asrwt>
<pdfrwt beam="1">  1       21 0.91415171E-01 0.21813216E+03</pdfrwt>
<pdfrwt beam="2">  1       21 0.13606130E-01 0.21813216E+03</pdfrwt>
<totfact> 0.46838423E+04</totfact>
</mgrwt>
</event>
<event>
 4    1  0.3902417E-001  0.1928797E+03  0.7546771E-02  0.1155889E+00
         21   -1    0    0  501  502  0.00000000000E+00  0.00000000000E+00  0.72708138215E+03  0.72708138215E+03  0.00000000000E+00 0. -1.
         21   -1    0    0  502  503 -0.00000000000E+00 -0.00000000000E+00 -0.51170695735E+02  0.51170695735E+02  0.00000000000E+00 0.  1.
          6    1    1    2  501    0  0.31286402532E+02 -0.79339356536E+02  0.33464800484E+03  0.38625362086E+03  0.17300000000E+03 0. -1.
         -6    1    1    2    0  503 -0.31286402532E+02  0.79339356536E+02  0.34126268157E+03  0.39199845703E+03  0.17300000000E+03 0.  1.
<mgrwt>
<rscale>  2 0.19287968E+03</rscale>
<asrwt>0</asrwt>
<pdfrwt beam="1">  1       21 0.11185867E+00 0.19287968E+03</pdfrwt>
<pdfrwt beam="2">  1       21 0.78724153E-02 0.19287968E+03</pdfrwt>
<totfact> 0.77386359E+04</totfact>
</mgrwt>
</event>
<event>
 4    1  0.3902417E-001  0.1851346E+03  0.7546771E-02  0.1162924E+00
         21   -1    0    0  503  502  0.00000000000E+00  0.00000000000E+00  0.12114063871E+04  0.12114063871E+04  0.00000000000E+00 0. -1.
         21   -1    0    0  501  503 -0.00000000000E+00 -0.00000000000E+00 -0.28568501905E+02  0.28568501905E+02  0.00000000000E+00 0. -1.
          6    1    1    2  501    0 -0.59561355733E+02  0.28253389148E+02  0.65225815724E+03  0.67802323912E+03  0.17300000000E+03 0. -1.
         -6    1    1    2    0  502  0.59561355733E+02 -0.28253389148E+02  0.53057972795E+03  0.56195164988E+03  0.17300000000E+03 0. -1.
<mgrwt>
<rscale>  2 0.18513457E+03</rscale>
<asrwt>0</asrwt>
<pdfrwt beam="1">  1       21 0.18637017E+00 0.18513457E+03</pdfrwt>
<pdfrwt beam="2">  1       21 0.43951551E-02 0.18513457E+03</pdfrwt>
<totfact> 0.55393039E+04</totfact>
</mgrwt>
</event>
<event>
 4    1  0.3902417E-001  0.2754966E+03  0.7546771E-02  0.1098174E+00
         21   -1    0    0  503  502  0.00000000000E+00  0.00000000000E+00  0.36721760792E+03  0.36721760792E+03  0.00000000000E+00 0. -1.
         21   -1    0    0  501  503 -0.00000000000E+00 -0.00000000000E+00 -0.35540518692E+03  0.35540518692E+03  0.00000000000E+00 0. -1.
          6    1    1    2  501    0  0.20321672840E+03 -0.68354698188E+02 -0.22781849107E+03  0.35749079476E+03  0.17300000000E+03 0. -1.
         -6    1    1    2    0  502 -0.20321672840E+03  0.68354698188E+02  0.23963091207E+03  0.36513200008E+03  0.17300000000E+03 0. -1.
<mgrwt>
<rscale>  2 0.27549665E+03</rscale>
<asrwt>0</asrwt>
<pdfrwt beam="1">  1       21 0.56495017E-01 0.27549665E+03</pdfrwt>
<pdfrwt beam="2">  1       21 0.54677721E-01 0.27549665E+03</pdfrwt>
<totfact> 0.88528763E+03</totfact>
</mgrwt>
</event>
<event>
 4    1  0.3902417E-001  0.2001153E+03  0.7546771E-02  0.1149642E+00
         21   -1    0    0  503  502  0.00000000000E+00  0.00000000000E+00  0.16114281291E+03  0.16114281291E+03  0.00000000000E+00 0.  1.
         21   -1    0    0  501  503 -0.00000000000E+00 -0.00000000000E+00 -0.25252092321E+03  0.25252092321E+03  0.00000000000E+00 0.  1.
          6    1    1    2  501    0 -0.73754320576E+02 -0.68391772022E+02 -0.71745281211E+02  0.21258767523E+03  0.17300000000E+03 0.  1.
         -6    1    1    2    0  502  0.73754320576E+02  0.68391772022E+02 -0.19632829088E+02  0.20107606089E+03  0.17300000000E+03 0.  1.
<mgrwt>
<rscale>  2 0.20011530E+03</rscale>
<asrwt>0</asrwt>
<pdfrwt beam="1">  1       21 0.24791202E-01 0.20011530E+03</pdfrwt>
<pdfrwt beam="2">  1       21 0.38849373E-01 0.20011530E+03</pdfrwt>
<totfact> 0.98030679E+04</totfact>
</mgrwt>
</event>
<event>
 4    1  0.3902417E-001  0.1794740E+03  0.7546771E-02  0.1168313E+00
         21   -1    0    0  503  502  0.00000000000E+00  0.00000000000E+00  0.19614064876E+04  0.19614064876E+04  0.00000000000E+00 0.  1.
         21   -1    0    0  501  503 -0.00000000000E+00 -0.00000000000E+00 -0.16600950314E+02  0.16600950314E+02  0.00000000000E+00 0.  1.
          6    1    1    2  501    0 -0.10603425364E+02  0.46577702327E+02  0.10749834659E+04  0.10898625449E+04  0.17300000000E+03 0.  1.
         -6    1    1    2    0  502  0.10603425364E+02 -0.46577702327E+02  0.86982207143E+03  0.88814489299E+03  0.17300000000E+03 0.  1.
<mgrwt>
<rscale>  2 0.17947400E+03</rscale>
<asrwt>0</asrwt>
<pdfrwt beam="1">  1       21 0.30175466E+00 0.17947400E+03</pdfrwt>
<pdfrwt beam="2">  1       21 0.25539939E-02 0.17947400E+03</pdfrwt>
<totfact> 0.27882021E+04</totfact>
</mgrwt>
</event>
<event>
 4    1  0.3902417E-001  0.1758802E+03  0.7546771E-02  0.1171851E+00
         21   -1    0    0  501  502  0.00000000000E+00  0.00000000000E+00  0.52463849118E+02  0.52463849118E+02  0.00000000000E+00 0. -1.
         21   -1    0    0  502  503 -0.00000000000E+00 -0.00000000000E+00 -0.73515523418E+03  0.73515523418E+03  0.00000000000E+00 0. -1.
          6    1    1    2  501    0 -0.42818463471E+01 -0.31408896584E+02 -0.16612821719E+03  0.24193477952E+03  0.17300000000E+03 0.  1.
         -6    1    1    2    0  503  0.42818463471E+01  0.31408896584E+02 -0.51656316787E+03  0.54568430378E+03  0.17300000000E+03 0.  1.
<mgrwt>
<rscale>  2 0.17588022E+03</rscale>
<asrwt>0</asrwt>
<pdfrwt beam="1">  1       21 0.80713620E-02 0.17588022E+03</pdfrwt>
<pdfrwt beam="2">  1       21 0.11310080E+00 0.17588022E+03</pdfrwt>
<totfact> 0.72708667E+04</totfact>
</mgrwt>
</event>
<event>
 4    1  0.3902417E-001  0.1813083E+03  0.7546771E-02  0.1166543E+00
         21   -1    0    0  501  502  0.00000000000E+00  0.00000000000E+00  0.36237820607E+03  0.36237820607E+03  0.00000000000E+00 0.  1.
         21   -1    0    0  502  503 -0.00000000000E+00 -0.00000000000E+00 -0.96861584276E+02  0.96861584276E+02  0.00000000000E+00 0.  1.
          6    1    1    2  501    0  0.27352732550E+02 -0.46856474690E+02  0.19060697363E+03  0.26306599856E+03  0.17300000000E+03 0.  1.
         -6    1    1    2    0  503 -0.27352732550E+02  0.46856474690E+02  0.74909648162E+02  0.19617379179E+03  0.17300000000E+03 0.  1.
<mgrwt>
<rscale>  2 0.18130830E+03</rscale>
<asrwt>0</asrwt>
<pdfrwt beam="1">  1       21 0.55750493E-01 0.18130830E+03</pdfrwt>
<pdfrwt beam="2">  1       21 0.14901782E-01 0.18130830E+03</pdfrwt>
<totfact> 0.12081464E+05</totfact>
</mgrwt>
</event>
<event>
 4    1  0.3902417E-001  0.2305509E+03  0.7546771E-02  0.1126253E+00
         21   -1    0    0  501  502  0.00000000000E+00  0.00000000000E+00  0.16131303621E+03  0.16131303621E+03  0.00000000000E+00 0. -1.
         21   -1    0    0  502  503 -0.00000000000E+00 -0.00000000000E+00 -0.35128796930E+03  0.35128796930E+03  0.00000000000E+00 0. -1.
          6    1    1    2  501    0 -0.15220214763E+03  0.76960209086E+01 -0.15880788448E+03  0.27995297221E+03  0.17300000000E+03 0. -1.
         -6    1    1    2    0  503  0.15220214763E+03 -0.76960209086E+01 -0.31167048610E+02  0.23264803330E+03  0.17300000000E+03 0. -1.
<mgrwt>
<rscale>  2 0.23055091E+03</rscale>
<asrwt>0</asrwt>
<pdfrwt beam="1">  1       21 0.24817390E-01 0.23055091E+03</pdfrwt>
<pdfrwt beam="2">  1       21 0.54044303E-01 0.23055091E+03</pdfrwt>
<totfact> 0.48845333E+04</totfact>
</mgrwt>
</event>
<event>
 4    1  0.3902417E-001  0.2049671E+03  0.7546771E-02  0.1145615E+00
         21   -1    0    0  501  502  0.00000000000E+00  0.00000000000E+00  0.80102739408E+02  0.80102739408E+02  0.00000000000E+00 0.  1.
         21   -1    0    0  502  503 -0.00000000000E+00 -0.00000000000E+00 -0.64041045356E+03  0.64041045356E+03  0.00000000000E+00 0. -1.
          6    1    1    2  501    0 -0.10664392152E+03 -0.26637882758E+02 -0.12686881147E+03  0.24105434682E+03  0.17300000000E+03 0.  1.
         -6    1    1    2    0  503  0.10664392152E+03  0.26637882758E+02 -0.43343890268E+03  0.47945884615E+03  0.17300000000E+03 0. -1.
<mgrwt>
<rscale>  2 0.20496708E+03</rscale>
<asrwt>0</asrwt>
<pdfrwt beam="1">  1       21 0.12323499E-01 0.20496708E+03</pdfrwt>
<pdfrwt beam="2">  1       21 0.98524683E-01 0.20496708E+03</pdfrwt>
<totfact> 0.47275353E+04</totfact>
</mgrwt>
</event>
<event>
 4    1  0.3902417E-001  0.1738726E+03  0.7546771E-02  0.1173869E+00
         21   -1    0    0  501  502  0.00000000000E+00  0.00000000000E+00  0.16959565365E+03  0.16959565365E+03  0.00000000000E+00 0.  1.
         21   -1    0    0  502  503 -0.00000000000E+00 -0.00000000000E+00 -0.17892388419E+03  0.17892388419E+03  0.00000000000E+00 0.  1.
          6    1    1    2  501    0 -0.17218225504E+02 -0.24905551874E+01  0.59718603678E+01  0.17397509382E+03  0.17300000000E+03 0. -1.
         -6    1    1    2    0  503  0.17218225504E+02  0.24905551874E+01 -0.15300090914E+02  0.17454444402E+03  0.17300000000E+03 0. -1.
<mgrwt>
<rscale>  2 0.17387257E+03</rscale>
<asrwt>0</asrwt>
<pdfrwt beam="1">  1       21 0.26091639E-01 0.17387257E+03</pdfrwt>
<pdfrwt beam="2">  1       21 0.27526751E-01 0.17387257E+03</pdfrwt>
<totfact> 0.17674296E+05</totfact>
</mgrwt>
</event>
<event>
 4    1  0.3902417E-001  0.1905940E+03  0.7546771E-02  0.1157927E+00
         21   -1    0    0  501  502  0.00000000000E+00  0.00000000000E+00  0.90015980979E+03  0.90015980979E+03  0.00000000000E+00 0.  1.
         21   -1    0    0  502  503 -0.00000000000E+00 -0.00000000000E+00 -0.40416882979E+02  0.40416882979E+02  0.00000000000E+00 0. -1.
          6    1    1    2  501    0 -0.75429731607E+02 -0.26597720259E+02  0.41149146829E+03  0.45348793988E+03  0.17300000000E+03 0. -1.
         -6    1    1    2    0  503  0.75429731607E+02  0.26597720259E+02  0.44825145852E+03  0.48708875289E+03  0.17300000000E+03 0.  1.
<mgrwt>
<rscale>  2 0.19059403E+03</rscale>
<asrwt>0</asrwt>
<pdfrwt beam="1">  1       21 0.13848611E+00 0.19059403E+03</pdfrwt>
<pdfrwt beam="2">  1       21 0.62179827E-02 0.19059403E+03</pdfrwt>
<totfact> 0.68331928E+04</totfact>
</mgrwt>
</event>
<event>
 4    1  0.3902417E-001  0.2136361E+03  0.7546771E-02  0.1138719E+00
         21   -1    0    0  501  502  0.00000000000E+00  0.00000000000E+00  0.85530165637E+02  0.85530165637E+02  0.00000000000E+00 0. -1.
         21   -1    0    0  502  503 -0.00000000000E+00 -0.00000000000E+00 -0.61014850085E+03  0.61014850085E+03  0.00000000000E+00 0.  1.
          6    1    1    2  501    0  0.12289169566E+03 -0.24678084602E+02 -0.13911783377E+03  0.25493949948E+03  0.17300000000E+03 0. -1.
         -6    1    1    2    0  503 -0.12289169566E+03  0.24678084602E+02 -0.38550050144E+03  0.44073916700E+03  0.17300000000E+03 0.  1.
<mgrwt>
<rscale>  2 0.21363608E+03</rscale>
<asrwt>0</asrwt>
<pdfrwt beam="1">  1       21 0.13158487E-01 0.21363608E+03</pdfrwt>
<pdfrwt beam="2">  1       21 0.93869001E-01 0.21363608E+03</pdfrwt>
<totfact> 0.46876800E+04</totfact>
</mgrwt>
</event>
<event>
 4    1  0.3902417E-001  0.2213124E+03  0.7546771E-02  0.1132908E+00
         21   -1    0    0  501  502  0.00000000000E+00  0.00000000000E+00  0.69151203459E+02  0.69151203459E+02  0.00000000000E+00 0. -1.
         21   -1    0    0  502  503 -0.00000000000E+00 -0.00000000000E+00 -0.82461821846E+03  0.82461821846E+03  0.00000000000E+00 0.  1.
          6    1    1    2  501    0  0.12549636547E+03  0.57452937330E+02 -0.20988803436E+03  0.30501174522E+03  0.17300000000E+03 0. -1.
         -6    1    1    2    0  503 -0.12549636547E+03 -0.57452937330E+02 -0.54557898064E+03  0.58875767670E+03  0.17300000000E+03 0.  1.
<mgrwt>
<rscale>  2 0.22131240E+03</rscale>
<asrwt>0</asrwt>
<pdfrwt beam="1">  1       21 0.10638647E-01 0.22131240E+03</pdfrwt>
<pdfrwt beam="2">  1       21 0.12686434E+00 0.22131240E+03</pdfrwt>
<totfact> 0.32886418E+04</totfact>
</mgrwt>
</event>
<event>
 4    1  0.3902417E-001  0.1759752E+03  0.7546771E-02  0.1171756E+00
         21   -1    0    0  501  502  0.00000000000E+00  0.00000000000E+00  0.95810340858E+02  0.95810340858E+02  0.00000000000E+00 0. -1.
         21   -1    0    0  502  503 -0.00000000000E+00 -0.00000000000E+00 -0.36796397695E+03  0.36796397695E+03  0.00000000000E+00 0. -1.
          6    1    1    2  501    0  0.25420398438E+02  0.19801094954E+02 -0.21694331056E+03  0.27934151144E+03  0.17300000000E+03 0. -1.
         -6    1    1    2    0  503 -0.25420398438E+02 -0.19801094954E+02 -0.55210325532E+02  0.18443280636E+03  0.17300000000E+03 0. -1.
<mgrwt>
<rscale>  2 0.17597523E+03</rscale>
<asrwt>0</asrwt>
<pdfrwt beam="1">  1       21 0.14740053E-01 0.17597523E+03</pdfrwt>
<pdfrwt beam="2">  1       21 0.56609842E-01 0.17597523E+03</pdfrwt>
<totfact> 0.11953632E+05</totfact>
</mgrwt>
</event>
<event>
 4    1  0.3902417E-001  0.1834254E+03  0.7546771E-02  0.1164529E+00
         21   -1    0    0  501  502  0.00000000000E+00  0.00000000000E+00  0.23735687020E+03  0.23735687020E+03  0.00000000000E+00 0.  1.
         21   -1    0    0  502  503 -0.00000000000E+00 -0.00000000000E+00 -0.14175371351E+03  0.14175371351E+03  0.00000000000E+00 0. -1.
          6    1    1    2  501    0 -0.36467576940E+02 -0.48846576893E+02  0.49000292619E+02  0.18985758062E+03  0.17300000000E+03 0. -1.
         -6    1    1    2    0  503  0.36467576940E+02  0.48846576893E+02  0.46602864073E+02  0.18925300310E+03  0.17300000000E+03 0. -1.
<mgrwt>
<rscale>  2 0.18342539E+03</rscale>
<asrwt>0</asrwt>
<pdfrwt beam="1">  1       21 0.36516442E-01 0.18342539E+03</pdfrwt>
<pdfrwt beam="2">  1       21 0.21808264E-01 0.18342539E+03</pdfrwt>
<totfact> 0.14235876E+05</totfact>
</mgrwt>
</event>
<event>
 4    1  0.3902417E-001  0.1972636E+03  0.7546771E-02  0.1152068E+00
         21   -1    0    0  501  502  0.00000000000E+00  0.00000000000E+00  0.37597774322E+03  0.37597774322E+03  0.00000000000E+00 0.  1.
         21   -1    0    0  502  503 -0.00000000000E+00 -0.00000000000E+00 -0.12934785110E+03  0.12934785110E+03  0.00000000000E+00 0.  1.
          6    1    1    2  501    0  0.68070984820E+02 -0.65956703389E+02  0.23626610367E+03  0.30778989171E+03  0.17300000000E+03 0.  1.
         -6    1    1    2    0  503 -0.68070984820E+02  0.65956703389E+02  0.10363788446E+02  0.19753570261E+03  0.17300000000E+03 0.  1.
<mgrwt>
<rscale>  2 0.19726365E+03</rscale>
<asrwt>0</asrwt>
<pdfrwt beam="1">  1       21 0.57842729E-01 0.19726365E+03</pdfrwt>
<pdfrwt beam="2">  1       21 0.19899670E-01 0.19726365E+03</pdfrwt>
<totfact> 0.65163800E+04</totfact>
</mgrwt>
</event>
<event>
 4    1  0.3902417E-001  0.2868397E+03  0.7546771E-02  0.1092011E+00
         21   -1    0    0  503  502  0.00000000000E+00  0.00000000000E+00  0.63376011840E+02  0.63376011840E+02  0.00000000000E+00 0.  1.
         21   -1    0    0  501  503 -0.00000000000E+00 -0.00000000000E+00 -0.14584068732E+04  0.14584068732E+04  0.00000000000E+00 0.  1.
          6    1    1    2  501    0  0.80373917516E+02 -0.21421499590E+03 -0.94967466974E+03  0.99204788667E+03  0.17300000000E+03 0.  1.
         -6    1    1    2    0  502 -0.80373917516E+02  0.21421499590E+03 -0.44535619160E+03  0.52973499835E+03  0.17300000000E+03 0.  1.
<mgrwt>
<rscale>  2 0.28683973E+03</rscale>
<asrwt>0</asrwt>
<pdfrwt beam="1">  1       21 0.97501560E-02 0.28683973E+03</pdfrwt>
<pdfrwt beam="2">  1       21 0.22437028E+00 0.28683973E+03</pdfrwt>
<totfact> 0.74655378E+03</totfact>
</mgrwt>
</event>
<event>
 4    1  0.3902417E-001  0.1843930E+03  0.7546771E-02  0.1163618E+00
         21   -1    0    0  503  502  0.00000000000E+00  0.00000000000E+00  0.70816757484E+02  0.70816757484E+02  0.00000000000E+00 0.  1.
         21   -1    0    0  501  503 -0.00000000000E+00 -0.00000000000E+00 -0.57195606902E+03  0.57195606902E+03  0.00000000000E+00 0. -1.
          6    1    1    2  501    0  0.47113040336E+02 -0.43036495419E+02 -0.12179069703E+03  0.22098360208E+03  0.17300000000E+03 0.  1.
         -6    1    1    2    0  502 -0.47113040336E+02  0.43036495419E+02 -0.37934861451E+03  0.42178922442E+03  0.17300000000E+03 0. -1.
<mgrwt>
<rscale>  2 0.18439300E+03</rscale>
<asrwt>0</asrwt>
<pdfrwt beam="1">  1       21 0.10894885E-01 0.18439300E+03</pdfrwt>
<pdfrwt beam="2">  1       21 0.87993244E-01 0.18439300E+03</pdfrwt>
<totfact> 0.77428872E+04</totfact>
</mgrwt>
</event>
<event>
 4    1  0.3902417E-001  0.1767717E+03  0.7546771E-02  0.1170964E+00
         21   -1    0    0  501  502  0.00000000000E+00  0.00000000000E+00  0.91658842932E+02  0.91658842932E+02  0.00000000000E+00 0.  1.
         21   -1    0    0  502  503 -0.00000000000E+00 -0.00000000000E+00 -0.42120704151E+03  0.42120704151E+03  0.00000000000E+00 0.  1.
          6    1    1    2  501    0 -0.23569564168E+02 -0.27635411343E+02 -0.52817046245E+02  0.18449357899E+03  0.17300000000E+03 0.  1.
         -6    1    1    2    0  503  0.23569564168E+02  0.27635411343E+02 -0.27673115233E+03  0.32837230545E+03  0.17300000000E+03 0.  1.
<mgrwt>
<rscale>  2 0.17677172E+03</rscale>
<asrwt>0</asrwt>
<pdfrwt beam="1">  1       21 0.14101360E-01 0.17677172E+03</pdfrwt>
<pdfrwt beam="2">  1       21 0.64801084E-01 0.17677172E+03</pdfrwt>
<totfact> 0.96891837E+04</totfact>
</mgrwt>
</event>
<event>
 4    1  0.3902417E-001  0.2392305E+03  0.7546771E-02  0.1120306E+00
         21   -1    0    0  503  502  0.00000000000E+00  0.00000000000E+00  0.14262533217E+03  0.14262533217E+03  0.00000000000E+00 0.  1.
         21   -1    0    0  501  503 -0.00000000000E+00 -0.00000000000E+00 -0.40227476945E+03  0.40227476945E+03  0.00000000000E+00 0. -1.
          6    1    1    2  501    0  0.85268777373E+02  0.14153260683E+03 -0.14344213890E+03  0.27893886499E+03  0.17300000000E+03 0. -1.
         -6    1    1    2    0  502 -0.85268777373E+02 -0.14153260683E+03 -0.11620729838E+03  0.26596123663E+03  0.17300000000E+03 0. -1.
<mgrwt>
<rscale>  2 0.23923052E+03</rscale>
<asrwt>0</asrwt>
<pdfrwt beam="1">  1       21 0.21942359E-01 0.23923052E+03</pdfrwt>
<pdfrwt beam="2">  1       21 0.61888426E-01 0.23923052E+03</pdfrwt>
<totfact> 0.46009195E+04</totfact>
</mgrwt>
</event>
<event>
 4    1  0.3902417E-001  0.2274730E+03  0.7546771E-02  0.1128431E+00
         21   -1    0    0  501  502  0.00000000000E+00  0.00000000000E+00  0.43748692149E+03  0.43748692149E+03  0.00000000000E+00 0. -1.
         21   -1    0    0  502  503 -0.00000000000E+00 -0.00000000000E+00 -0.12184897115E+03  0.12184897115E+03  0.00000000000E+00 0.  1.
          6    1    1    2  501    0 -0.14704133705E+03  0.13921524542E+02  0.20571282852E+03  0.30669485073E+03  0.17300000000E+03 0. -1.
         -6    1    1    2    0  503  0.14704133705E+03 -0.13921524542E+02  0.10992512182E+03  0.25264104191E+03  0.17300000000E+03 0.  1.
<mgrwt>
<rscale>  2 0.22747300E+03</rscale>
<asrwt>0</asrwt>
<pdfrwt beam="1">  1       21 0.67305680E-01 0.22747300E+03</pdfrwt>
<pdfrwt beam="2">  1       21 0.18745996E-01 0.22747300E+03</pdfrwt>
<totfact> 0.51747753E+04</totfact>
</mgrwt>
</event>
<event>
 4    1  0.3902417E-001  0.2104357E+03  0.7546771E-02  0.1141221E+00
         21   -1    0    0  503  502  0.00000000000E+00  0.00000000000E+00  0.24105101819E+04  0.24105101819E+04  0.00000000000E+00 0. -1.
         21   -1    0    0  501  503 -0.00000000000E+00 -0.00000000000E+00 -0.19527583639E+02  0.19527583639E+02  0.00000000000E+00 0. -1.
          6    1    1    2  501    0 -0.22824740598E+02 -0.11761460877E+03  0.89977720103E+03  0.92405745301E+03  0.17300000000E+03 0. -1.
         -6    1    1    2    0  502  0.22824740598E+02  0.11761460877E+03  0.14912053972E+04  0.15059803125E+04  0.17300000000E+03 0. -1.
<mgrwt>
<rscale>  2 0.21043566E+03</rscale>
<asrwt>0</asrwt>
<pdfrwt beam="1">  1       21 0.37084749E+00 0.21043566E+03</pdfrwt>
<pdfrwt beam="2">  1       21 0.30042455E-02 0.21043566E+03</pdfrwt>
<totfact> 0.81168478E+03</totfact>
</mgrwt>
</event>
<event>
 4    1  0.3902417E-001  0.1822184E+03  0.7546771E-02  0.1165673E+00
         21   -1    0    0  503  502  0.00000000000E+00  0.00000000000E+00  0.58134697351E+02  0.58134697351E+02  0.00000000000E+00 0.  1.
         21   -1    0    0  501  503 -0.00000000000E+00 -0.00000000000E+00 -0.73377884449E+03  0.73377884449E+03  0.00000000000E+00 0.  1.
          6    1    1    2  501    0  0.43507565128E+02  0.37170540376E+02 -0.52423056575E+03  0.55499661563E+03  0.17300000000E+03 0.  1.
         -6    1    1    2    0  502 -0.43507565128E+02 -0.37170540376E+02 -0.15141358138E+03  0.23691692621E+03  0.17300000000E+03 0.  1.
<mgrwt>
<rscale>  2 0.18221843E+03</rscale>
<asrwt>0</asrwt>
<pdfrwt beam="1">  1       21 0.89437997E-02 0.18221843E+03</pdfrwt>
<pdfrwt beam="2">  1       21 0.11288905E+00 0.18221843E+03</pdfrwt>
<totfact> 0.60878662E+04</totfact>
</mgrwt>
</event>
<event>
 4    1  0.3902417E-001  0.1827714E+03  0.7546771E-02  0.1165148E+00
         21   -1    0    0  503  502  0.00000000000E+00  0.00000000000E+00  0.83022431772E+03  0.83022431772E+03  0.00000000000E+00 0. -1.
         21   -1    0    0  501  503 -0.00000000000E+00 -0.00000000000E+00 -0.40237631661E+02  0.40237631661E+02  0.00000000000E+00 0. -1.
          6    1    1    2  501    0  0.10190998007E+02 -0.58073377137E+02  0.39723567121E+03  0.43726599691E+03  0.17300000000E+03 0. -1.
         -6    1    1    2    0  502 -0.10190998007E+02  0.58073377137E+02  0.39275101485E+03  0.43319595247E+03  0.17300000000E+03 0. -1.
<mgrwt>
<rscale>  2 0.18277137E+03</rscale>
<asrwt>0</asrwt>
<pdfrwt beam="1">  1       21 0.12772681E+00 0.18277137E+03</pdfrwt>
<pdfrwt beam="2">  1       21 0.61904055E-02 0.18277137E+03</pdfrwt>
<totfact> 0.84845492E+04</totfact>
</mgrwt>
</event>
<event>
 4    1  0.3902417E-001  0.1804878E+03  0.7546771E-02  0.1167332E+00
         21   -1    0    0  501  502  0.00000000000E+00  0.00000000000E+00  0.75800698588E+03  0.75800698588E+03  0.00000000000E+00 0.  1.
         21   -1    0    0  502  503 -0.00000000000E+00 -0.00000000000E+00 -0.50164550491E+02  0.50164550491E+02  0.00000000000E+00 0.  1.
          6    1    1    2  501    0 -0.47158957132E+01  0.51230810995E+02  0.20095109409E+03  0.27010586421E+03  0.17300000000E+03 0.  1.
         -6    1    1    2    0  503  0.47158957132E+01 -0.51230810995E+02  0.50689134131E+03  0.53806567216E+03  0.17300000000E+03 0.  1.
<mgrwt>
<rscale>  2 0.18048777E+03</rscale>
<asrwt>0</asrwt>
<pdfrwt beam="1">  1       21 0.11661645E+00 0.18048777E+03</pdfrwt>
<pdfrwt beam="2">  1       21 0.77176237E-02 0.18048777E+03</pdfrwt>
<totfact> 0.72793601E+04</totfact>
</mgrwt>
</event>
<event>
 4    1  0.3902417E-001  0.2122066E+03  0.7546771E-02  0.1139830E+00
         21   -1    0    0  501  502  0.00000000000E+00  0.00000000000E+00  0.10089067214E+03  0.10089067214E+03  0.00000000000E+00 0.  1.
         21   -1    0    0  502  503 -0.00000000000E+00 -0.00000000000E+00 -0.45251827410E+03  0.45251827410E+03  0.00000000000E+00 0.  1.
          6    1    1    2  501    0  0.18252416512E+02 -0.12152972103E+03 -0.14348397141E+03  0.25616259261E+03  0.17300000000E+03 0.  1.
         -6    1    1    2    0  503 -0.18252416512E+02  0.12152972103E+03 -0.20814363055E+03  0.29724635362E+03  0.17300000000E+03 0.  1.
<mgrwt>
<rscale>  2 0.21220656E+03</rscale>
<asrwt>0</asrwt>
<pdfrwt beam="1">  1       21 0.15521642E-01 0.21220656E+03</pdfrwt>
<pdfrwt beam="2">  1       21 0.69618197E-01 0.21220656E+03</pdfrwt>
<totfact> 0.68514737E+04</totfact>
</mgrwt>
</event>
<event>
 4    1  0.3902417E-001  0.2690893E+03  0.7546771E-02  0.1101802E+00
         21   -1    0    0  503  502  0.00000000000E+00  0.00000000000E+00  0.64700059418E+02  0.64700059418E+02  0.00000000000E+00 0. -1.
         21   -1    0    0  501  503 -0.00000000000E+00 -0.00000000000E+00 -0.12805003758E+04  0.12805003758E+04  0.00000000000E+00 0. -1.
          6    1    1    2  501    0  0.20439527618E+03  0.26506970427E+02 -0.36914507907E+03  0.45681192827E+03  0.17300000000E+03 0. -1.
         -6    1    1    2    0  502 -0.20439527618E+03 -0.26506970427E+02 -0.84665523728E+03  0.88838850692E+03  0.17300000000E+03 0. -1.
<mgrwt>
<rscale>  2 0.26908929E+03</rscale>
<asrwt>0</asrwt>
<pdfrwt beam="1">  1       21 0.99538560E-02 0.26908929E+03</pdfrwt>
<pdfrwt beam="2">  1       21 0.19700004E+00 0.26908929E+03</pdfrwt>
<totfact> 0.10875059E+04</totfact>
</mgrwt>
</event>
<event>
 4    1  0.3902417E-001  0.2745637E+03  0.7546771E-02  0.1098696E+00
         21   -1    0    0  503  502  0.00000000000E+00  0.00000000000E+00  0.34375069532E+03  0.34375069532E+03  0.00000000000E+00 0. -1.
         21   -1    0    0  501  503 -0.00000000000E+00 -0.00000000000E+00 -0.26395417189E+03  0.26395417189E+03  0.00000000000E+00 0.  1.
          6    1    1    2  501    0 -0.21068587645E+03 -0.32675423546E+02 -0.85075732629E+02  0.28744234574E+03  0.17300000000E+03 0.  1.
         -6    1    1    2    0  502  0.21068587645E+03  0.32675423546E+02  0.16487225606E+03  0.32026252147E+03  0.17300000000E+03 0. -1.
<mgrwt>
<rscale>  2 0.27456369E+03</rscale>
<asrwt>0</asrwt>
<pdfrwt beam="1">  1       21 0.52884722E-01 0.27456369E+03</pdfrwt>
<pdfrwt beam="2">  1       21 0.40608334E-01 0.27456369E+03</pdfrwt>
<totfact> 0.18963967E+04</totfact>
</mgrwt>
</event>
<event>
 4    1  0.3902417E-001  0.2580314E+03  0.7546771E-02  0.1108332E+00
         21   -1    0    0  501  502  0.00000000000E+00  0.00000000000E+00  0.13612424982E+03  0.13612424982E+03  0.00000000000E+00 0.  1.
         21   -1    0    0  502  503 -0.00000000000E+00 -0.00000000000E+00 -0.56089733235E+03  0.56089733235E+03  0.00000000000E+00 0.  1.
          6    1    1    2  501    0  0.18473747668E+03  0.50232011898E+02 -0.33706409196E+03  0.42449074477E+03  0.17300000000E+03 0.  1.
         -6    1    1    2    0  503 -0.18473747668E+03 -0.50232011898E+02 -0.87708990576E+02  0.27253083741E+03  0.17300000000E+03 0.  1.
<mgrwt>
<rscale>  2 0.25803137E+03</rscale>
<asrwt>0</asrwt>
<pdfrwt beam="1">  1       21 0.20942193E-01 0.25803137E+03</pdfrwt>
<pdfrwt beam="2">  1       21 0.86291896E-01 0.25803137E+03</pdfrwt>
<totfact> 0.23681247E+04</totfact>
</mgrwt>
</event>
<event>
 4    1  0.3902417E-001  0.2146468E+03  0.7546771E-02  0.1137938E+00
         21   -1    0    0  501  502  0.00000000000E+00  0.00000000000E+00  0.74195917460E+02  0.74195917460E+02  0.00000000000E+00 0.  1.
         21   -1    0    0  502  503 -0.00000000000E+00 -0.00000000000E+00 -0.62454889685E+03  0.62454889685E+03  0.00000000000E+00 0.  1.
          6    1    1    2  501    0  0.64119818170E+01  0.12689812528E+03 -0.24871975561E+03  0.32853426692E+03  0.17300000000E+03 0.  1.
         -6    1    1    2    0  503 -0.64119818170E+01 -0.12689812528E+03 -0.30163322378E+03  0.37021054739E+03  0.17300000000E+03 0.  1.
<mgrwt>
<rscale>  2 0.21464680E+03</rscale>
<asrwt>0</asrwt>
<pdfrwt beam="1">  1       21 0.11414756E-01 0.21464680E+03</pdfrwt>
<pdfrwt beam="2">  1       21 0.96084450E-01 0.21464680E+03</pdfrwt>
<totfact> 0.57261876E+04</totfact>
</mgrwt>
</event>
<event>
 4    1  0.3902417E-001  0.1807876E+03  0.7546771E-02  0.1167043E+00
         21   -1    0    0  503  502  0.00000000000E+00  0.00000000000E+00  0.58491858731E+03  0.58491858731E+03  0.00000000000E+00 0.  1.
         21   -1    0    0  501  503 -0.00000000000E+00 -0.00000000000E+00 -0.60782378456E+02  0.60782378456E+02  0.00000000000E+00 0.  1.
          6    1    1    2  501    0 -0.40689186055E+02 -0.33159375171E+02  0.35377437704E+03  0.39729140927E+03  0.17300000000E+03 0.  1.
         -6    1    1    2    0  502  0.40689186055E+02  0.33159375171E+02  0.17036183181E+03  0.24840955650E+03  0.17300000000E+03 0.  1.
<mgrwt>
<rscale>  2 0.18078759E+03</rscale>
<asrwt>0</asrwt>
<pdfrwt beam="1">  1       21 0.89987471E-01 0.18078759E+03</pdfrwt>
<pdfrwt beam="2">  1       21 0.93511355E-02 0.18078759E+03</pdfrwt>
<totfact> 0.96445593E+04</totfact>
</mgrwt>
</event>
<event>
 4    1  0.3902417E-001  0.1784192E+03  0.7546771E-02  0.1169342E+00
         21   -1    0    0  503  502  0.00000000000E+00  0.00000000000E+00  0.77316663277E+02  0.77316663277E+02  0.00000000000E+00 0.  1.
         21   -1    0    0  501  503 -0.00000000000E+00 -0.00000000000E+00 -0.42107215225E+03  0.42107215225E+03  0.00000000000E+00 0.  1.
          6    1    1    2  501    0  0.43358636227E+02 -0.49447734441E+01 -0.20899996085E+03  0.27479884599E+03  0.17300000000E+03 0.  1.
         -6    1    1    2    0  502 -0.43358636227E+02  0.49447734441E+01 -0.13475552812E+03  0.22358996954E+03  0.17300000000E+03 0.  1.
<mgrwt>
<rscale>  2 0.17841923E+03</rscale>
<asrwt>0</asrwt>
<pdfrwt beam="1">  1       21 0.11894871E-01 0.17841923E+03</pdfrwt>
<pdfrwt beam="2">  1       21 0.64780330E-01 0.17841923E+03</pdfrwt>
<totfact> 0.13154087E+05</totfact>
</mgrwt>
</event>
<event>
 4    1  0.3902417E-001  0.2703665E+03  0.7546771E-02  0.1101070E+00
         21   -1    0    0  501  502  0.00000000000E+00  0.00000000000E+00  0.24298706216E+03  0.24298706216E+03  0.00000000000E+00 0. -1.
         21   -1    0    0  502  503 -0.00000000000E+00 -0.00000000000E+00 -0.30271972046E+03  0.30271972046E+03  0.00000000000E+00 0.  1.
          6    1    1    2  501    0 -0.15205464774E+03  0.14159239721E+03 -0.83136441264E+01  0.27049425045E+03  0.17300000000E+03 0. -1.
         -6    1    1    2    0  503  0.15205464774E+03 -0.14159239721E+03 -0.51419014177E+02  0.27521253217E+03  0.17300000000E+03 0. -1.
<mgrwt>
<rscale>  2 0.27036646E+03</rscale>
<asrwt>0</asrwt>
<pdfrwt beam="1">  1       21 0.37382625E-01 0.27036646E+03</pdfrwt>
<pdfrwt beam="2">  1       21 0.46572264E-01 0.27036646E+03</pdfrwt>
<totfact> 0.29351534E+04</totfact>
</mgrwt>
</event>
<event>
 4    1  0.3902417E-001  0.1747711E+03  0.7546771E-02  0.1172962E+00
         21   -1    0    0  501  502  0.00000000000E+00  0.00000000000E+00  0.75062260034E+02  0.75062260034E+02  0.00000000000E+00 0.  1.
         21   -1    0    0  502  503 -0.00000000000E+00 -0.00000000000E+00 -0.48677880741E+03  0.48677880741E+03  0.00000000000E+00 0.  1.
          6    1    1    2  501    0  0.24531165189E+02  0.37628798616E+01 -0.92080550742E+02  0.19754433719E+03  0.17300000000E+03 0.  1.
         -6    1    1    2    0  503 -0.24531165189E+02 -0.37628798616E+01 -0.31963599663E+03  0.36429673025E+03  0.17300000000E+03 0.  1.
<mgrwt>
<rscale>  2 0.17477110E+03</rscale>
<asrwt>0</asrwt>
<pdfrwt beam="1">  1       21 0.11548040E-01 0.17477110E+03</pdfrwt>
<pdfrwt beam="2">  1       21 0.74889046E-01 0.17477110E+03</pdfrwt>
<totfact> 0.10096268E+05</totfact>
</mgrwt>
</event>
<event>
 4    1  0.3902417E-001  0.2637265E+03  0.7546771E-02  0.1104925E+00
         21   -1    0    0  501  502  0.00000000000E+00  0.00000000000E+00  0.23842912536E+04  0.23842912536E+04  0.00000000000E+00 0. -1.
         21   -1    0    0  502  503 -0.00000000000E+00 -0.00000000000E+00 -0.29709318223E+02  0.29709318223E+02  0.00000000000E+00 0. -1.
          6    1    1    2  501    0 -0.18541614781E+03 -0.72412114192E+02  0.13397952498E+04  0.13655046589E+04  0.17300000000E+03 0. -1.
         -6    1    1    2    0  503  0.18541614781E+03  0.72412114192E+02  0.10147866856E+04  0.10484959129E+04  0.17300000000E+03 0. -1.
<mgrwt>
<rscale>  2 0.26372649E+03</rscale>
<asrwt>0</asrwt>
<pdfrwt beam="1">  1       21 0.36681389E+00 0.26372649E+03</pdfrwt>
<pdfrwt beam="2">  1       21 0.45706662E-02 0.26372649E+03</pdfrwt>
<totfact> 0.40132691E+03</totfact>
</mgrwt>
</event>
<event>
 4    1  0.3902417E-001  0.1837821E+03  0.7546771E-02  0.1164192E+00
         21   -1    0    0  501  502  0.00000000000E+00  0.00000000000E+00  0.69532462938E+03  0.69532462938E+03  0.00000000000E+00 0. -1.
         21   -1    0    0  502  503 -0.00000000000E+00 -0.00000000000E+00 -0.69958308873E+02  0.69958308873E+02  0.00000000000E+00 0. -1.
          6    1    1    2  501    0 -0.47801410969E+02  0.39520701556E+02  0.52422828450E+03  0.55550981541E+03  0.17300000000E+03 0. -1.
         -6    1    1    2    0  503  0.47801410969E+02 -0.39520701556E+02  0.10113803601E+03  0.20977312285E+03  0.17300000000E+03 0. -1.
<mgrwt>
<rscale>  2 0.18378210E+03</rscale>
<asrwt>0</asrwt>
<pdfrwt beam="1">  1       21 0.10697302E+00 0.18378210E+03</pdfrwt>
<pdfrwt beam="2">  1       21 0.10762817E-01 0.18378210E+03</pdfrwt>
<totfact> 0.49992375E+04</totfact>
</mgrwt>
</event>
<event>
 4    1  0.3902417E-001  0.2126246E+03  0.7546771E-02  0.1139504E+00
         21   -1    0    0  503  502  0.00000000000E+00  0.00000000000E+00  0.17765042398E+03  0.17765042398E+03  0.00000000000E+00 0.  1.
         21   -1    0    0  501  503 -0.00000000000E+00 -0.00000000000E+00 -0.25602752467E+03  0.25602752467E+03  0.00000000000E+00 0.  1.
          6    1    1    2  501    0 -0.12312528738E+03 -0.10971174239E+02 -0.56024625496E+02  0.21988169937E+03  0.17300000000E+03 0.  1.
         -6    1    1    2    0  502  0.12312528738E+03  0.10971174239E+02 -0.22352475192E+02  0.21379624927E+03  0.17300000000E+03 0.  1.
<mgrwt>
<rscale>  2 0.21262456E+03</rscale>
<asrwt>0</asrwt>
<pdfrwt beam="1">  1       21 0.27330835E-01 0.21262456E+03</pdfrwt>
<pdfrwt beam="2">  1       21 0.39388850E-01 0.21262456E+03</pdfrwt>
<totfact> 0.78652573E+04</totfact>
</mgrwt>
</event>
<event>
 4    1  0.3902417E-001  0.1903994E+03  0.7546771E-02  0.1158102E+00
         21   -1    0    0  503  502  0.00000000000E+00  0.00000000000E+00  0.16901514152E+03  0.16901514152E+03  0.00000000000E+00 0.  1.
         21   -1    0    0  501  503 -0.00000000000E+00 -0.00000000000E+00 -0.30714813135E+03  0.30714813135E+03  0.00000000000E+00 0.  1.
          6    1    1    2  501    0  0.25529849548E+02 -0.75307158256E+02 -0.19983264657E+03  0.27601635447E+03  0.17300000000E+03 0.  1.
         -6    1    1    2    0  502 -0.25529849548E+02  0.75307158256E+02  0.61699656743E+02  0.20014691840E+03  0.17300000000E+03 0.  1.
<mgrwt>
<rscale>  2 0.19039943E+03</rscale>
<asrwt>0</asrwt>
<pdfrwt beam="1">  1       21 0.26002330E-01 0.19039943E+03</pdfrwt>
<pdfrwt beam="2">  1       21 0.47253558E-01 0.19039943E+03</pdfrwt>
<totfact> 0.60259890E+04</totfact>
</mgrwt>
</event>
<event>
 4    1  0.3902417E-001  0.2116776E+03  0.7546771E-02  0.1140244E+00
         21   -1    0    0  503  502  0.00000000000E+00  0.00000000000E+00  0.28936206854E+03  0.28936206854E+03  0.00000000000E+00 0.  1.
         21   -1    0    0  501  503 -0.00000000000E+00 -0.00000000000E+00 -0.20757976972E+03  0.20757976972E+03  0.00000000000E+00 0.  1.
          6    1    1    2  501    0 -0.27142380384E+02  0.11891878659E+03 -0.84340956292E+02  0.22786132521E+03  0.17300000000E+03 0.  1.
         -6    1    1    2    0  502  0.27142380384E+02 -0.11891878659E+03  0.16612325510E+03  0.26908051305E+03  0.17300000000E+03 0.  1.
<mgrwt>
<rscale>  2 0.21167755E+03</rscale>
<asrwt>0</asrwt>
<pdfrwt beam="1">  1       21 0.44517242E-01 0.21167755E+03</pdfrwt>
<pdfrwt beam="2">  1       21 0.31935349E-01 0.21167755E+03</pdfrwt>
<totfact> 0.45256975E+04</totfact>
</mgrwt>
</event>
<event>
 4    1  0.3902417E-001  0.2249517E+03  0.7546771E-02  0.1130244E+00
         21   -1    0    0  503  502  0.00000000000E+00  0.00000000000E+00  0.13780292695E+03  0.13780292695E+03  0.00000000000E+00 0. -1.
         21   -1    0    0  501  503 -0.00000000000E+00 -0.00000000000E+00 -0.49010164122E+03  0.49010164122E+03  0.00000000000E+00 0. -1.
          6    1    1    2  501    0 -0.94875403716E+01 -0.14347209704E+03 -0.33335694082E+03  0.40215681772E+03  0.17300000000E+03 0. -1.
         -6    1    1    2    0  502  0.94875403716E+01  0.14347209704E+03 -0.18941773450E+02  0.22574775045E+03  0.17300000000E+03 0. -1.
<mgrwt>
<rscale>  2 0.22495167E+03</rscale>
<asrwt>0</asrwt>
<pdfrwt beam="1">  1       21 0.21200450E-01 0.22495167E+03</pdfrwt>
<pdfrwt beam="2">  1       21 0.75400252E-01 0.22495167E+03</pdfrwt>
<totfact> 0.31964882E+04</totfact>
</mgrwt>
</event>
<event>
 4    1  0.3902417E-001  0.2140618E+03  0.7546771E-02  0.1138389E+00
         21   -1    0    0  501  502  0.00000000000E+00  0.00000000000E+00  0.13520227311E+03  0.13520227311E+03  0.00000000000E+00 0. -1.
         21   -1    0    0  502  503 -0.00000000000E+00 -0.00000000000E+00 -0.57209694884E+03  0.57209694884E+03  0.00000000000E+00 0. -1.
          6    1    1    2  501    0 -0.17284143440E+02  0.12487877981E+03  0.73315162167E+01  0.21418730679E+03  0.17300000000E+03 0. -1.
         -6    1    1    2    0  503  0.17284143440E+02 -0.12487877981E+03 -0.44422619195E+03  0.49311191516E+03  0.17300000000E+03 0. -1.
<mgrwt>
<rscale>  2 0.21406179E+03</rscale>
<asrwt>0</asrwt>
<pdfrwt beam="1">  1       21 0.20800350E-01 0.21406179E+03</pdfrwt>
<pdfrwt beam="2">  1       21 0.88014915E-01 0.21406179E+03</pdfrwt>
<totfact> 0.23430339E+04</totfact>
</mgrwt>
</event>
<event>
 4    1  0.3902417E-001  0.2502018E+03  0.7546771E-02  0.1113177E+00
         21   -1    0    0  501  502  0.00000000000E+00  0.00000000000E+00  0.43548422134E+02  0.43548422134E+02  0.00000000000E+00 0.  1.
         21   -1    0    0  502  503 -0.00000000000E+00 -0.00000000000E+00 -0.14845695173E+04  0.14845695173E+04  0.00000000000E+00 0. -1.
          6    1    1    2  501    0  0.17671480838E+03  0.37997651573E+02 -0.58446412170E+03  0.63576666677E+03  0.17300000000E+03 0. -1.
         -6    1    1    2    0  503 -0.17671480838E+03 -0.37997651573E+02 -0.85655697347E+03  0.89235127266E+03  0.17300000000E+03 0.  1.
<mgrwt>
<rscale>  2 0.25020181E+03</rscale>
<asrwt>0</asrwt>
<pdfrwt beam="1">  1       21 0.66997587E-02 0.25020181E+03</pdfrwt>
<pdfrwt beam="2">  1       21 0.22839526E+00 0.25020181E+03</pdfrwt>
<totfact> 0.13954485E+04</totfact>
</mgrwt>
</event>
<event>
 4    1  0.3902417E-001  0.1955670E+03  0.7546771E-02  0.1153534E+00
         21   -1    0    0  501  502  0.00000000000E+00  0.00000000000E+00  0.13174462408E+04  0.13174462408E+04  0.00000000000E+00 0. -1.
         21   -1    0    0  502  503 -0.00000000000E+00 -0.00000000000E+00 -0.30492724422E+02  0.30492724422E+02  0.00000000000E+00 0.  1.
          6    1    1    2  501    0  0.73693444850E+02 -0.53728228882E+02  0.49590179332E+03  0.53307132263E+03  0.17300000000E+03 0.  1.
         -6    1    1    2    0  503 -0.73693444850E+02  0.53728228882E+02  0.79105172310E+03  0.81486764263E+03  0.17300000000E+03 0. -1.
<mgrwt>
<rscale>  2 0.19556699E+03</rscale>
<asrwt>0</asrwt>
<pdfrwt beam="1">  1       21 0.20268399E+00 0.19556699E+03</pdfrwt>
<pdfrwt beam="2">  1       21 0.46911894E-02 0.19556699E+03</pdfrwt>
<totfact> 0.38595608E+04</totfact>
</mgrwt>
</event>
<event>
 4    1  0.3902417E-001  0.1942999E+03  0.7546771E-02  0.1154639E+00
         21   -1    0    0  503  502  0.00000000000E+00  0.00000000000E+00  0.68172131888E+03  0.68172131888E+03  0.00000000000E+00 0.  1.
         21   -1    0    0  501  503 -0.00000000000E+00 -0.00000000000E+00 -0.74401806695E+02  0.74401806695E+02  0.00000000000E+00 0.  1.
          6    1    1    2  501    0  0.87229653639E+02 -0.14643658169E+02  0.11249049716E+03  0.22451405557E+03  0.17300000000E+03 0.  1.
         -6    1    1    2    0  502 -0.87229653639E+02  0.14643658169E+02  0.49482901502E+03  0.53160907000E+03  0.17300000000E+03 0.  1.
<mgrwt>
<rscale>  2 0.19429990E+03</rscale>
<asrwt>0</asrwt>
<pdfrwt beam="1">  1       21 0.10488020E+00 0.19429990E+03</pdfrwt>
<pdfrwt beam="2">  1       21 0.11446432E-01 0.19429990E+03</pdfrwt>
<totfact> 0.46736915E+04</totfact>
</mgrwt>
</event>
<event>
 4    1  0.3902417E-001  0.2225388E+03  0.7546771E-02  0.1132004E+00
         21   -1    0    0  503  502  0.00000000000E+00  0.00000000000E+00  0.24223617946E+03  0.24223617946E+03  0.00000000000E+00 0.  1.
         21   -1    0    0  501  503 -0.00000000000E+00 -0.00000000000E+00 -0.22887576671E+03  0.22887576671E+03  0.00000000000E+00 0. -1.
          6    1    1    2  501    0 -0.50923347816E+02  0.13038916772E+03  0.83642746950E+02  0.23773857812E+03  0.17300000000E+03 0. -1.
         -6    1    1    2    0  502  0.50923347816E+02 -0.13038916772E+03 -0.70282334198E+02  0.23337336804E+03  0.17300000000E+03 0.  1.
<mgrwt>
<rscale>  2 0.22253881E+03</rscale>
<asrwt>0</asrwt>
<pdfrwt beam="1">  1       21 0.37267105E-01 0.22253881E+03</pdfrwt>
<pdfrwt beam="2">  1       21 0.35211656E-01 0.22253881E+03</pdfrwt>
<totfact> 0.53254728E+04</totfact>
</mgrwt>
</event>
<event>
 4    1  0.3902417E-001  0.1736675E+03  0.7546771E-02  0.1174076E+00
         21   -1    0    0  503  502  0.00000000000E+00  0.00000000000E+00  0.31444278352E+03  0.31444278352E+03  0.00000000000E+00 0. -1.
         21   -1    0    0  501  503 -0.00000000000E+00 -0.00000000000E+00 -0.96326557487E+02  0.96326557487E+02  0.00000000000E+00 0. -1.
          6    1    1    2  501    0  0.20552527073E+01 -0.15072941323E+02  0.12244985275E+03  0.21249560951E+03  0.17300000000E+03 0.  1.
         -6    1    1    2    0  502 -0.20552527073E+01  0.15072941323E+02  0.95666373288E+02  0.19827373150E+03  0.17300000000E+03 0.  1.
<mgrwt>
<rscale>  2 0.17366755E+03</rscale>
<asrwt>0</asrwt>
<pdfrwt beam="1">  1       21 0.48375812E-01 0.17366755E+03</pdfrwt>
<pdfrwt beam="2">  1       21 0.14819471E-01 0.17366755E+03</pdfrwt>
<totfact> 0.16465906E+05</totfact>
</mgrwt>
</event>
<event>
 4    1  0.3902417E-001  0.2133723E+03  0.7546771E-02  0.1138923E+00
         21   -1    0    0  501  502  0.00000000000E+00  0.00000000000E+00  0.63987154503E+03  0.63987154503E+03  0.00000000000E+00 0.  1.
         21   -1    0    0  502  503 -0.00000000000E+00 -0.00000000000E+00 -0.74721923956E+02  0.74721923956E+02  0.00000000000E+00 0.  1.
          6    1    1    2  501    0 -0.12289534407E+03 -0.22258954888E+02  0.36067890679E+03  0.41906682101E+03  0.17300000000E+03 0.  1.
         -6    1    1    2    0  503  0.12289534407E+03  0.22258954888E+02  0.20447071428E+03  0.29552664798E+03  0.17300000000E+03 0.  1.
<mgrwt>
<rscale>  2 0.21337227E+03</rscale>
<asrwt>0</asrwt>
<pdfrwt beam="1">  1       21 0.98441772E-01 0.21337227E+03</pdfrwt>
<pdfrwt beam="2">  1       21 0.11495681E-01 0.21337227E+03</pdfrwt>
<totfact> 0.53431386E+04</totfact>
</mgrwt>
</event>
<event>
 4    1  0.3902417E-001  0.1872740E+03  0.7546771E-02  0.1160943E+00
         21   -1    0    0  501  502  0.00000000000E+00  0.00000000000E+00  0.75701909764E+02  0.75701909764E+02  0.00000000000E+00 0.  1.
         21   -1    0    0  502  503 -0.00000000000E+00 -0.00000000000E+00 -0.59285523102E+03  0.59285523102E+03  0.00000000000E+00 0.  1.
          6    1    1    2  501    0  0.12523600010E+02  0.70609541537E+02 -0.41485078563E+03  0.45516230320E+03  0.17300000000E+03 0.  1.
         -6    1    1    2    0  503 -0.12523600010E+02 -0.70609541537E+02 -0.10230253562E+03  0.21339483759E+03  0.17300000000E+03 0.  1.
<mgrwt>
<rscale>  2 0.18727399E+03</rscale>
<asrwt>0</asrwt>
<pdfrwt beam="1">  1       21 0.11646447E-01 0.18727399E+03</pdfrwt>
<pdfrwt beam="2">  1       21 0.91208500E-01 0.18727399E+03</pdfrwt>
<totfact> 0.63211170E+04</totfact>
</mgrwt>
</event>
<event>
 4    1  0.3902417E-001  0.2396116E+03  0.7546771E-02  0.1120052E+00
         21   -1    0    0  501  502  0.00000000000E+00  0.00000000000E+00  0.55232564553E+03  0.55232564553E+03  0.00000000000E+00 0. -1.
         21   -1    0    0  502  503 -0.00000000000E+00 -0.00000000000E+00 -0.10791572572E+03  0.10791572572E+03  0.00000000000E+00 0.  1.
          6    1    1    2  501    0 -0.77265820951E+02 -0.14667894743E+03  0.15891362459E+03  0.28751914856E+03  0.17300000000E+03 0. -1.
         -6    1    1    2    0  503  0.77265820951E+02  0.14667894743E+03  0.28549629522E+03  0.37272222270E+03  0.17300000000E+03 0. -1.
<mgrwt>
<rscale>  2 0.23961160E+03</rscale>
<asrwt>0</asrwt>
<pdfrwt beam="1">  1       21 0.84973174E-01 0.23961160E+03</pdfrwt>
<pdfrwt beam="2">  1       21 0.16602420E-01 0.23961160E+03</pdfrwt>
<totfact> 0.38169790E+04</totfact>
</mgrwt>
</event>
<event>
 4    1  0.3902417E-001  0.1870588E+03  0.7546771E-02  0.1161141E+00
         21   -1    0    0  503  502  0.00000000000E+00  0.00000000000E+00  0.63695816497E+02  0.63695816497E+02  0.00000000000E+00 0.  1.
         21   -1    0    0  501  503 -0.00000000000E+00 -0.00000000000E+00 -0.56400162249E+03  0.56400162249E+03  0.00000000000E+00 0.  1.
          6    1    1    2  501    0 -0.27771491571E+01 -0.71093416481E+02 -0.30074646409E+03  0.35417428208E+03  0.17300000000E+03 0.  1.
         -6    1    1    2    0  502  0.27771491571E+01  0.71093416481E+02 -0.19955934190E+03  0.27352315691E+03  0.17300000000E+03 0.  1.
<mgrwt>
<rscale>  2 0.18705878E+03</rscale>
<asrwt>0</asrwt>
<pdfrwt beam="1">  1       21 0.97993562E-02 0.18705878E+03</pdfrwt>
<pdfrwt beam="2">  1       21 0.86769482E-01 0.18705878E+03</pdfrwt>
<totfact> 0.96342238E+04</totfact>
</mgrwt>
</event>
<event>
 4    1  0.3902417E-001  0.2506650E+03  0.7546771E-02  0.1112885E+00
         21   -1    0    0  501  502  0.00000000000E+00  0.00000000000E+00  0.15039207494E+03  0.15039207494E+03  0.00000000000E+00 0.  1.
         21   -1    0    0  502  503 -0.00000000000E+00 -0.00000000000E+00 -0.45559558656E+03  0.45559558656E+03  0.00000000000E+00 0. -1.
          6    1    1    2  501    0  0.89442987349E+02  0.15780962496E+03 -0.23987845520E+03  0.34695042728E+03  0.17300000000E+03 0. -1.
         -6    1    1    2    0  503 -0.89442987349E+02 -0.15780962496E+03 -0.65325056412E+02  0.25903723422E+03  0.17300000000E+03 0.  1.
<mgrwt>
<rscale>  2 0.25066497E+03</rscale>
<asrwt>0</asrwt>
<pdfrwt beam="1">  1       21 0.23137243E-01 0.25066497E+03</pdfrwt>
<pdfrwt beam="2">  1       21 0.70091628E-01 0.25066497E+03</pdfrwt>
<totfact> 0.31498393E+04</totfact>
</mgrwt>
</event>
<event>
 4    1  0.3902417E-001  0.1765247E+03  0.7546771E-02  0.1171209E+00
         21   -1    0    0  501  502  0.00000000000E+00  0.00000000000E+00  0.46115292876E+02  0.46115292876E+02  0.00000000000E+00 0. -1.
         21   -1    0    0  502  503 -0.00000000000E+00 -0.00000000000E+00 -0.10017751539E+04  0.10017751539E+04  0.00000000000E+00 0. -1.
          6    1    1    2  501    0  0.46709362611E+01  0.34787230200E+02 -0.17891534253E+03  0.25133974780E+03  0.17300000000E+03 0. -1.
         -6    1    1    2    0  503 -0.46709362611E+01 -0.34787230200E+02 -0.77674451849E+03  0.79655069897E+03  0.17300000000E+03 0. -1.
<mgrwt>
<rscale>  2 0.17652470E+03</rscale>
<asrwt>0</asrwt>
<pdfrwt beam="1">  1       21 0.70946603E-02 0.17652470E+03</pdfrwt>
<pdfrwt beam="2">  1       21 0.15411926E+00 0.17652470E+03</pdfrwt>
<totfact> 0.41522174E+04</totfact>
</mgrwt>
</event>
<event>
 4    1  0.3902417E-001  0.2029471E+03  0.7546771E-02  0.1147276E+00
         21   -1    0    0  503  502  0.00000000000E+00  0.00000000000E+00  0.39730878636E+03  0.39730878636E+03  0.00000000000E+00 0. -1.
         21   -1    0    0  501  503 -0.00000000000E+00 -0.00000000000E+00 -0.10493456612E+03  0.10493456612E+03  0.00000000000E+00 0. -1.
          6    1    1    2  501    0 -0.28035829036E+02 -0.10233533536E+03  0.11857932791E+03  0.23505017673E+03  0.17300000000E+03 0. -1.
         -6    1    1    2    0  502  0.28035829036E+02  0.10233533536E+03  0.17379489233E+03  0.26719317576E+03  0.17300000000E+03 0. -1.
<mgrwt>
<rscale>  2 0.20294711E+03</rscale>
<asrwt>0</asrwt>
<pdfrwt beam="1">  1       21 0.61124428E-01 0.20294711E+03</pdfrwt>
<pdfrwt beam="2">  1       21 0.16143780E-01 0.20294711E+03</pdfrwt>
<totfact> 0.85027379E+04</totfact>
</mgrwt>
</event>
<event>
 4    1  0.3902417E-001  0.2423105E+03  0.7546771E-02  0.1118263E+00
         21   -1    0    0  501  502  0.00000000000E+00  0.00000000000E+00  0.53882508079E+03  0.53882508079E+03  0.00000000000E+00 0. -1.
         21   -1    0    0  502  503 -0.00000000000E+00 -0.00000000000E+00 -0.18726438323E+03  0.18726438323E+03  0.00000000000E+00 0.  1.
          6    1    1    2  501    0 -0.76282179578E+02 -0.15154666391E+03  0.41053007348E+03  0.47670672693E+03  0.17300000000E+03 0. -1.
         -6    1    1    2    0  503  0.76282179578E+02  0.15154666391E+03 -0.58969375923E+02  0.24938273709E+03  0.17300000000E+03 0.  1.
<mgrwt>
<rscale>  2 0.24231047E+03</rscale>
<asrwt>0</asrwt>
<pdfrwt beam="1">  1       21 0.82896166E-01 0.24231047E+03</pdfrwt>
<pdfrwt beam="2">  1       21 0.28809905E-01 0.24231047E+03</pdfrwt>
<totfact> 0.14197444E+04</totfact>
</mgrwt>
</event>
<event>
 4    1  0.3902417E-001  0.1950359E+03  0.7546771E-02  0.1153996E+00
         21   -1    0    0  501  502  0.00000000000E+00  0.00000000000E+00  0.42138154075E+02  0.42138154075E+02  0.00000000000E+00 0. -1.
         21   -1    0    0  502  503 -0.00000000000E+00 -0.00000000000E+00 -0.10877022188E+04  0.10877022188E+04  0.00000000000E+00 0.  1.
          6    1    1    2  501    0 -0.17717699459E+02  0.88295362621E+02 -0.28981409969E+03  0.34932964419E+03  0.17300000000E+03 0. -1.
         -6    1    1    2    0  503  0.17717699459E+02 -0.88295362621E+02 -0.75574996507E+03  0.78051072872E+03  0.17300000000E+03 0.  1.
<mgrwt>
<rscale>  2 0.19503586E+03</rscale>
<asrwt>0</asrwt>
<pdfrwt beam="1">  1       21 0.64827930E-02 0.19503586E+03</pdfrwt>
<pdfrwt beam="2">  1       21 0.16733880E+00 0.19503586E+03</pdfrwt>
<totfact> 0.38415864E+04</totfact>
</mgrwt>
</event>
<event>
 4    1  0.3902417E-001  0.2145697E+03  0.7546771E-02  0.1137998E+00
         21   -1    0    0  501  502  0.00000000000E+00  0.00000000000E+00  0.55783249720E+03  0.55783249720E+03  0.00000000000E+00 0. -1.
         21   -1    0    0  502  503 -0.00000000000E+00 -0.00000000000E+00 -0.88126604545E+02  0.88126604545E+02  0.00000000000E+00 0.  1.
          6    1    1    2  501    0 -0.96972988284E+02 -0.81898771791E+02  0.31621596165E+03  0.38214225581E+03  0.17300000000E+03 0. -1.
         -6    1    1    2    0  503  0.96972988284E+02  0.81898771791E+02  0.15348993101E+03  0.26381684594E+03  0.17300000000E+03 0. -1.
<mgrwt>
<rscale>  2 0.21456973E+03</rscale>
<asrwt>0</asrwt>
<pdfrwt beam="1">  1       21 0.85820382E-01 0.21456973E+03</pdfrwt>
<pdfrwt beam="2">  1       21 0.13557940E-01 0.21456973E+03</pdfrwt>
<totfact> 0.54651924E+04</totfact>
</mgrwt>
</event>
<event>
 4    1  0.3902417E-001  0.2075206E+03  0.7546771E-02  0.1143545E+00
         21   -1    0    0  501  502  0.00000000000E+00  0.00000000000E+00  0.47974191762E+02  0.47974191762E+02  0.00000000000E+00 0.  1.
         21   -1    0    0  502  503 -0.00000000000E+00 -0.00000000000E+00 -0.15143062655E+04  0.15143062655E+04  0.00000000000E+00 0.  1.
          6    1    1    2  501    0  0.96192491523E+02  0.62312275843E+02 -0.23469723753E+03  0.31328518709E+03  0.17300000000E+03 0.  1.
         -6    1    1    2    0  503 -0.96192491523E+02 -0.62312275843E+02 -0.12316348362E+04  0.12489952702E+04  0.17300000000E+03 0.  1.
<mgrwt>
<rscale>  2 0.20752064E+03</rscale>
<asrwt>0</asrwt>
<pdfrwt beam="1">  1       21 0.73806447E-02 0.20752064E+03</pdfrwt>
<pdfrwt beam="2">  1       21 0.23297020E+00 0.20752064E+03</pdfrwt>
<totfact> 0.11433289E+04</totfact>
</mgrwt>
</event>
<event>
 4    1  0.3902417E-001  0.2108199E+03  0.7546771E-02  0.1140918E+00
         21   -1    0    0  501  502  0.00000000000E+00  0.00000000000E+00  0.79439058280E+03  0.79439058280E+03  0.00000000000E+00 0. -1.
         21   -1    0    0  502  503 -0.00000000000E+00 -0.00000000000E+00 -0.61306211809E+02  0.61306211809E+02  0.00000000000E+00 0. -1.
          6    1    1    2  501    0  0.11785745410E+03  0.25012608514E+02  0.49302306195E+03  0.53620588367E+03  0.17300000000E+03 0. -1.
         -6    1    1    2    0  503 -0.11785745410E+03 -0.25012608514E+02  0.24006130904E+03  0.31949091094E+03  0.17300000000E+03 0. -1.
<mgrwt>
<rscale>  2 0.21081985E+03</rscale>
<asrwt>0</asrwt>
<pdfrwt beam="1">  1       21 0.12221393E+00 0.21081985E+03</pdfrwt>
<pdfrwt beam="2">  1       21 0.94317254E-02 0.21081985E+03</pdfrwt>
<totfact> 0.44955987E+04</totfact>
</mgrwt>
</event>
<event>
 4    1  0.3902417E-001  0.2878749E+03  0.7546771E-02  0.1091464E+00
         21   -1    0    0  501  502  0.00000000000E+00  0.00000000000E+00  0.24972367367E+03  0.24972367367E+03  0.00000000000E+00 0. -1.
         21   -1    0    0  502  503 -0.00000000000E+00 -0.00000000000E+00 -0.33430845992E+03  0.33430845992E+03  0.00000000000E+00 0.  1.
          6    1    1    2  501    0 -0.22935470809E+03 -0.18422670309E+02 -0.67310149288E+02  0.29563936325E+03  0.17300000000E+03 0.  1.
         -6    1    1    2    0  503  0.22935470809E+03  0.18422670309E+02 -0.17274636958E+02  0.28839277034E+03  0.17300000000E+03 0.  1.
<mgrwt>
<rscale>  2 0.28787493E+03</rscale>
<asrwt>0</asrwt>
<pdfrwt beam="1">  1       21 0.38419027E-01 0.28787493E+03</pdfrwt>
<pdfrwt beam="2">  1       21 0.51432071E-01 0.28787493E+03</pdfrwt>
<totfact> 0.22391573E+04</totfact>
</mgrwt>
</event>
<event>
 4    1  0.3902417E-001  0.2442460E+03  0.7546771E-02  0.1116996E+00
         21   -1    0    0  503  502  0.00000000000E+00  0.00000000000E+00  0.61737745540E+03  0.61737745540E+03  0.00000000000E+00 0.  1.
         21   -1    0    0  501  503 -0.00000000000E+00 -0.00000000000E+00 -0.10521653708E+03  0.10521653708E+03  0.00000000000E+00 0.  1.
          6    1    1    2  501    0 -0.10503749465E+03  0.13672689325E+03  0.15285781256E+03  0.28813474188E+03  0.17300000000E+03 0.  1.
         -6    1    1    2    0  502  0.10503749465E+03 -0.13672689325E+03  0.35930310576E+03  0.43445925059E+03  0.17300000000E+03 0.  1.
<mgrwt>
<rscale>  2 0.24424602E+03</rscale>
<asrwt>0</asrwt>
<pdfrwt beam="1">  1       21 0.94981145E-01 0.24424602E+03</pdfrwt>
<pdfrwt beam="2">  1       21 0.16187160E-01 0.24424602E+03</pdfrwt>
<totfact> 0.30794371E+04</totfact>
</mgrwt>
</event>
<event>
 4    1  0.3902417E-001  0.2167892E+03  0.7546771E-02  0.1136300E+00
         21   -1    0    0  501  502  0.00000000000E+00  0.00000000000E+00  0.14168696640E+04  0.14168696640E+04  0.00000000000E+00 0. -1.
         21   -1    0    0  502  503 -0.00000000000E+00 -0.00000000000E+00 -0.57563549146E+02  0.57563549146E+02  0.00000000000E+00 0.  1.
          6    1    1    2  501    0  0.17743132103E+02 -0.12943625040E+03  0.11595620153E+04  0.11796531817E+04  0.17300000000E+03 0. -1.
         -6    1    1    2    0  503 -0.17743132103E+02  0.12943625040E+03  0.19974409951E+03  0.29478003145E+03  0.17300000000E+03 0.  1.
<mgrwt>
<rscale>  2 0.21678921E+03</rscale>
<asrwt>0</asrwt>
<pdfrwt beam="1">  1       21 0.21797992E+00 0.21678921E+03</pdfrwt>
<pdfrwt beam="2">  1       21 0.88559317E-02 0.21678921E+03</pdfrwt>
<totfact> 0.10191462E+04</totfact>
</mgrwt>
</event>
<event>
 4    1  0.3902417E-001  0.1739598E+03  0.7546771E-02  0.1173780E+00
         21   -1    0    0  503  502  0.00000000000E+00  0.00000000000E+00  0.13196872370E+04  0.13196872370E+04  0.00000000000E+00 0. -1.
         21   -1    0    0  501  503 -0.00000000000E+00 -0.00000000000E+00 -0.23415709030E+02  0.23415709030E+02  0.00000000000E+00 0. -1.
          6    1    1    2  501    0 -0.18247294661E+02 -0.24799979423E+00  0.74473463968E+03  0.76478213160E+03  0.17300000000E+03 0.  1.
         -6    1    1    2    0  502  0.18247294661E+02  0.24799979423E+00  0.55153688830E+03  0.57832081444E+03  0.17300000000E+03 0.  1.
<mgrwt>
<rscale>  2 0.17395984E+03</rscale>
<asrwt>0</asrwt>
<pdfrwt beam="1">  1       21 0.20302875E+00 0.17395984E+03</pdfrwt>
<pdfrwt beam="2">  1       21 0.36024178E-02 0.17395984E+03</pdfrwt>
<totfact> 0.60681959E+04</totfact>
</mgrwt>
</event>
<event>
 4    1  0.3902417E-001  0.2717297E+03  0.7546771E-02  0.1100294E+00
         21   -1    0    0  503  502  0.00000000000E+00  0.00000000000E+00  0.88057725535E+02  0.88057725535E+02  0.00000000000E+00 0. -1.
         21   -1    0    0  501  503 -0.00000000000E+00 -0.00000000000E+00 -0.84218528623E+03  0.84218528623E+03  0.00000000000E+00 0. -1.
          6    1    1    2  501    0  0.19211404000E+03  0.83667231305E+02 -0.34632464868E+03  0.44020196756E+03  0.17300000000E+03 0. -1.
         -6    1    1    2    0  502 -0.19211404000E+03 -0.83667231305E+02 -0.40780291201E+03  0.49004104420E+03  0.17300000000E+03 0. -1.
<mgrwt>
<rscale>  2 0.27172966E+03</rscale>
<asrwt>0</asrwt>
<pdfrwt beam="1">  1       21 0.13547343E-01 0.27172966E+03</pdfrwt>
<pdfrwt beam="2">  1       21 0.12956696E+00 0.27172966E+03</pdfrwt>
<totfact> 0.19671848E+04</totfact>
</mgrwt>
</event>
<event>
 4    1  0.3902417E-001  0.1742136E+03  0.7546771E-02  0.1173524E+00
         21   -1    0    0  501  502  0.00000000000E+00  0.00000000000E+00  0.16527214279E+04  0.16527214279E+04  0.00000000000E+00 0. -1.
         21   -1    0    0  502  503 -0.00000000000E+00 -0.00000000000E+00 -0.18826236082E+02  0.18826236082E+02  0.00000000000E+00 0. -1.
          6    1    1    2  501    0  0.16804257261E+02  0.11789402673E+02  0.68597009543E+03  0.70774666718E+03  0.17300000000E+03 0.  1.
         -6    1    1    2    0  503 -0.16804257261E+02 -0.11789402673E+02  0.94792509637E+03  0.96380099679E+03  0.17300000000E+03 0.  1.
<mgrwt>
<rscale>  2 0.17421358E+03</rscale>
<asrwt>0</asrwt>
<pdfrwt beam="1">  1       21 0.25426472E+00 0.17421358E+03</pdfrwt>
<pdfrwt beam="2">  1       21 0.28963453E-02 0.17421358E+03</pdfrwt>
<totfact> 0.42740089E+04</totfact>
</mgrwt>
</event>
<event>
 4    1  0.3902417E-001  0.1751416E+03  0.7546771E-02  0.1172590E+00
         21   -1    0    0  501  502  0.00000000000E+00  0.00000000000E+00  0.31697208397E+03  0.31697208397E+03  0.00000000000E+00 0. -1.
         21   -1    0    0  502  503 -0.00000000000E+00 -0.00000000000E+00 -0.10790546974E+03  0.10790546974E+03  0.00000000000E+00 0. -1.
          6    1    1    2  501    0 -0.20900019227E+02  0.17571794292E+02  0.17276609229E+03  0.24601362036E+03  0.17300000000E+03 0. -1.
         -6    1    1    2    0  503  0.20900019227E+02 -0.17571794292E+02  0.36300521932E+02  0.17886393334E+03  0.17300000000E+03 0. -1.
<mgrwt>
<rscale>  2 0.17514160E+03</rscale>
<asrwt>0</asrwt>
<pdfrwt beam="1">  1       21 0.48764935E-01 0.17514160E+03</pdfrwt>
<pdfrwt beam="2">  1       21 0.16600842E-01 0.17514160E+03</pdfrwt>
<totfact> 0.13160926E+05</totfact>
</mgrwt>
</event>
<event>
 4    1  0.3902417E-001  0.2205978E+03  0.7546771E-02  0.1133438E+00
         21   -1    0    0  501  502  0.00000000000E+00  0.00000000000E+00  0.26783163730E+03  0.26783163730E+03  0.00000000000E+00 0. -1.
         21   -1    0    0  502  503 -0.00000000000E+00 -0.00000000000E+00 -0.18627202393E+03  0.18627202393E+03  0.00000000000E+00 0. -1.
          6    1    1    2  501    0  0.98226213408E+02 -0.95320537672E+02  0.76375017292E+02  0.23344493391E+03  0.17300000000E+03 0. -1.
         -6    1    1    2    0  503 -0.98226213408E+02  0.95320537672E+02  0.51845960799E+01  0.22065872731E+03  0.17300000000E+03 0. -1.
<mgrwt>
<rscale>  2 0.22059781E+03</rscale>
<asrwt>0</asrwt>
<pdfrwt beam="1">  1       21 0.41204867E-01 0.22059781E+03</pdfrwt>
<pdfrwt beam="2">  1       21 0.28657234E-01 0.22059781E+03</pdfrwt>
<totfact> 0.65261886E+04</totfact>
</mgrwt>
</event>
<event>
 4    1  0.3902417E-001  0.2032080E+03  0.7546771E-02  0.1147060E+00
         21   -1    0    0  501  502  0.00000000000E+00  0.00000000000E+00  0.81577607561E+03  0.81577607561E+03  0.00000000000E+00 0.  1.
         21   -1    0    0  502  503 -0.00000000000E+00 -0.00000000000E+00 -0.51837718529E+02  0.51837718529E+02  0.00000000000E+00 0.  1.
          6    1    1    2  501    0 -0.67501106379E+02  0.82511225565E+02  0.44849398658E+03  0.49238232879E+03  0.17300000000E+03 0.  1.
         -6    1    1    2    0  503  0.67501106379E+02 -0.82511225565E+02  0.31544437051E+03  0.37523146535E+03  0.17300000000E+03 0.  1.
<mgrwt>
<rscale>  2 0.20320803E+03</rscale>
<asrwt>0</asrwt>
<pdfrwt beam="1">  1       21 0.12550400E+00 0.20320803E+03</pdfrwt>
<pdfrwt beam="2">  1       21 0.79750342E-02 0.20320803E+03</pdfrwt>
<totfact> 0.56665685E+04</totfact>
</mgrwt>
</event>
<event>
 4    1  0.3902417E-001  0.1794658E+03  0.7546771E-02  0.1168321E+00
         21   -1    0    0  503  502  0.00000000000E+00  0.00000000000E+00  0.76544250211E+03  0.76544250211E+03  0.00000000000E+00 0. -1.
         21   -1    0    0  501  503 -0.00000000000E+00 -0.00000000000E+00 -0.62158617599E+02  0.62158617599E+02  0.00000000000E+00 0. -1.
          6    1    1    2  501    0 -0.23445499990E+02 -0.41584595468E+02  0.11644403798E+03  0.21393266238E+03  0.17300000000E+03 0. -1.
         -6    1    1    2    0  502  0.23445499990E+02  0.41584595468E+02  0.58683984653E+03  0.61366845733E+03  0.17300000000E+03 0. -1.
<mgrwt>
<rscale>  2 0.17946579E+03</rscale>
<asrwt>0</asrwt>
<pdfrwt beam="1">  1       21 0.11776038E+00 0.17946579E+03</pdfrwt>
<pdfrwt beam="2">  1       21 0.95628648E-02 0.17946579E+03</pdfrwt>
<totfact> 0.48910986E+04</totfact>
</mgrwt>
</event>
<event>
 4    1  0.3902417E-001  0.2292752E+03  0.7546771E-02  0.1127151E+00
         21   -1    0    0  501  502  0.00000000000E+00  0.00000000000E+00  0.51357868991E+03  0.51357868991E+03  0.00000000000E+00 0.  1.
         21   -1    0    0  502  503 -0.00000000000E+00 -0.00000000000E+00 -0.10601066259E+03  0.10601066259E+03  0.00000000000E+00 0.  1.
          6    1    1    2  501    0  0.12038633836E+03 -0.90251072854E+02  0.14625224924E+03  0.27195008186E+03  0.17300000000E+03 0.  1.
         -6    1    1    2    0  503 -0.12038633836E+03  0.90251072854E+02  0.26131577808E+03  0.34763927064E+03  0.17300000000E+03 0.  1.
<mgrwt>
<rscale>  2 0.22927522E+03</rscale>
<asrwt>0</asrwt>
<pdfrwt beam="1">  1       21 0.79012105E-01 0.22927522E+03</pdfrwt>
<pdfrwt beam="2">  1       21 0.16309333E-01 0.22927522E+03</pdfrwt>
<totfact> 0.46785088E+04</totfact>
</mgrwt>
</event>
<event>
 4    1  0.3902417E-001  0.1764183E+03  0.7546771E-02  0.1171315E+00
         21   -1    0    0  501  502  0.00000000000E+00  0.00000000000E+00  0.14169743161E+03  0.14169743161E+03  0.00000000000E+00 0. -1.
         21   -1    0    0  502  503 -0.00000000000E+00 -0.00000000000E+00 -0.26887844696E+03  0.26887844696E+03  0.00000000000E+00 0. -1.
          6    1    1    2  501    0 -0.31045767564E+02 -0.15184520864E+02  0.24252447793E+02  0.17807748477E+03  0.17300000000E+03 0.  1.
         -6    1    1    2    0  503  0.31045767564E+02  0.15184520864E+02 -0.15143346314E+03  0.23249839379E+03  0.17300000000E+03 0.  1.
<mgrwt>
<rscale>  2 0.17641828E+03</rscale>
<asrwt>0</asrwt>
<pdfrwt beam="1">  1       21 0.21799605E-01 0.17641828E+03</pdfrwt>
<pdfrwt beam="2">  1       21 0.41365914E-01 0.17641828E+03</pdfrwt>
<totfact> 0.11117425E+05</totfact>
</mgrwt>
</event>
<event>
 4    1  0.3902417E-001  0.1792502E+03  0.7546771E-02  0.1168531E+00
         21   -1    0    0  503  502  0.00000000000E+00  0.00000000000E+00  0.97796670476E+02  0.97796670476E+02  0.00000000000E+00 0.  1.
         21   -1    0    0  501  503 -0.00000000000E+00 -0.00000000000E+00 -0.35204617894E+03  0.35204617894E+03  0.00000000000E+00 0. -1.
          6    1    1    2  501    0  0.10730782426E+02 -0.45677969096E+02 -0.18523784783E+03  0.25776672947E+03  0.17300000000E+03 0. -1.
         -6    1    1    2    0  502 -0.10730782426E+02  0.45677969096E+02 -0.69011660641E+02  0.19207611995E+03  0.17300000000E+03 0.  1.
<mgrwt>
<rscale>  2 0.17925018E+03</rscale>
<asrwt>0</asrwt>
<pdfrwt beam="1">  1       21 0.15045642E-01 0.17925018E+03</pdfrwt>
<pdfrwt beam="2">  1       21 0.54160950E-01 0.17925018E+03</pdfrwt>
<totfact> 0.12629415E+05</totfact>
</mgrwt>
</event>
<event>
 4    1  0.3902417E-001  0.2765031E+03  0.7546771E-02  0.1097614E+00
         21   -1    0    0  503  502  0.00000000000E+00  0.00000000000E+00  0.21254343889E+03  0.21254343889E+03  0.00000000000E+00 0.  1.
         21   -1    0    0  501  503 -0.00000000000E+00 -0.00000000000E+00 -0.36002030555E+03  0.36002030555E+03  0.00000000000E+00 0.  1.
          6    1    1    2  501    0  0.73962904055E+02  0.20261892822E+03 -0.82146957810E+02  0.28844767971E+03  0.17300000000E+03 0.  1.
         -6    1    1    2    0  502 -0.73962904055E+02 -0.20261892822E+03 -0.65329908845E+02  0.28411606474E+03  0.17300000000E+03 0.  1.
<mgrwt>
<rscale>  2 0.27650306E+03</rscale>
<asrwt>0</asrwt>
<pdfrwt beam="1">  1       21 0.32698991E-01 0.27650306E+03</pdfrwt>
<pdfrwt beam="2">  1       21 0.55387738E-01 0.27650306E+03</pdfrwt>
<totfact> 0.26555573E+04</totfact>
</mgrwt>
</event>
<event>
 4    1  0.3902417E-001  0.2761108E+03  0.7546771E-02  0.1097832E+00
         21   -1    0    0  501  502  0.00000000000E+00  0.00000000000E+00  0.18156596351E+03  0.18156596351E+03  0.00000000000E+00 0.  1.
         21   -1    0    0  502  503 -0.00000000000E+00 -0.00000000000E+00 -0.42312778341E+03  0.42312778341E+03  0.00000000000E+00 0. -1.
          6    1    1    2  501    0 -0.20884898341E+03 -0.51867911434E+02 -0.14724142309E+03  0.31291726507E+03  0.17300000000E+03 0. -1.
         -6    1    1    2    0  503  0.20884898341E+03  0.51867911434E+02 -0.94320396806E+02  0.29177648185E+03  0.17300000000E+03 0.  1.
<mgrwt>
<rscale>  2 0.27611081E+03</rscale>
<asrwt>0</asrwt>
<pdfrwt beam="1">  1       21 0.27933226E-01 0.27611081E+03</pdfrwt>
<pdfrwt beam="2">  1       21 0.65096581E-01 0.27611081E+03</pdfrwt>
<totfact> 0.25516783E+04</totfact>
</mgrwt>
</event>
<event>
 4    1  0.3902417E-001  0.3993049E+03  0.7546771E-02  0.1044021E+00
         21   -1    0    0  503  502  0.00000000000E+00  0.00000000000E+00  0.76668547375E+03  0.76668547375E+03  0.00000000000E+00 0.  1.
         21   -1    0    0  501  503 -0.00000000000E+00 -0.00000000000E+00 -0.20958452367E+03  0.20958452367E+03  0.00000000000E+00 0. -1.
          6    1    1    2  501    0 -0.24255012406E+03  0.26586624788E+03  0.23565267149E+03  0.46365569772E+03  0.17300000000E+03 0. -1.
         -6    1    1    2    0  502  0.24255012406E+03 -0.26586624788E+03  0.32144827859E+03  0.51261429970E+03  0.17300000000E+03 0. -1.
<mgrwt>
<rscale>  2 0.39930493E+03</rscale>
<asrwt>0</asrwt>
<pdfrwt beam="1">  1       21 0.11795161E+00 0.39930493E+03</pdfrwt>
<pdfrwt beam="2">  1       21 0.32243773E-01 0.39930493E+03</pdfrwt>
<totfact> 0.45416299E+03</totfact>
</mgrwt>
</event>
<event>
 4    1  0.3902417E-001  0.2486767E+03  0.7546771E-02  0.1114144E+00
         21   -1    0    0  503  502  0.00000000000E+00  0.00000000000E+00  0.25129828998E+03  0.25129828998E+03  0.00000000000E+00 0.  1.
         21   -1    0    0  501  503 -0.00000000000E+00 -0.00000000000E+00 -0.25514850800E+03  0.25514850800E+03  0.00000000000E+00 0.  1.
          6    1    1    2  501    0  0.13686442944E+03 -0.11480073286E+03 -0.49658065385E+02  0.25358628466E+03  0.17300000000E+03 0.  1.
         -6    1    1    2    0  502 -0.13686442944E+03  0.11480073286E+03  0.45807847368E+02  0.25286051331E+03  0.17300000000E+03 0.  1.
<mgrwt>
<rscale>  2 0.24867666E+03</rscale>
<asrwt>0</asrwt>
<pdfrwt beam="1">  1       21 0.38661275E-01 0.24867666E+03</pdfrwt>
<pdfrwt beam="2">  1       21 0.39253617E-01 0.24867666E+03</pdfrwt>
<totfact> 0.39312912E+04</totfact>
</mgrwt>
</event>
<event>
 4    1  0.3902417E-001  0.1744368E+03  0.7546771E-02  0.1173298E+00
         21   -1    0    0  503  502  0.00000000000E+00  0.00000000000E+00  0.39999140932E+02  0.39999140932E+02  0.00000000000E+00 0.  1.
         21   -1    0    0  501  503 -0.00000000000E+00 -0.00000000000E+00 -0.80967532914E+03  0.80967532914E+03  0.00000000000E+00 0.  1.
          6    1    1    2  501    0  0.19595526533E+02 -0.10734336853E+02 -0.48930049256E+03  0.51946432280E+03  0.17300000000E+03 0. -1.
         -6    1    1    2    0  502 -0.19595526533E+02  0.10734336853E+02 -0.28037569565E+03  0.33021014727E+03  0.17300000000E+03 0. -1.
<mgrwt>
<rscale>  2 0.17443684E+03</rscale>
<asrwt>0</asrwt>
<pdfrwt beam="1">  1       21 0.61537142E-02 0.17443684E+03</pdfrwt>
<pdfrwt beam="2">  1       21 0.12456543E+00 0.17443684E+03</pdfrwt>
<totfact> 0.91614302E+04</totfact>
</mgrwt>
</event>
<event>
 4    1  0.3902417E-001  0.1876856E+03  0.7546771E-02  0.1160565E+00
         21   -1    0    0  501  502  0.00000000000E+00  0.00000000000E+00  0.41696649743E+03  0.41696649743E+03  0.00000000000E+00 0. -1.
         21   -1    0    0  502  503 -0.00000000000E+00 -0.00000000000E+00 -0.86616243473E+02  0.86616243473E+02  0.00000000000E+00 0. -1.
          6    1    1    2  501    0  0.60531246660E+02 -0.40408710857E+02  0.12564497254E+03  0.22585959103E+03  0.17300000000E+03 0. -1.
         -6    1    1    2    0  503 -0.60531246660E+02  0.40408710857E+02  0.20470528142E+03  0.27772314987E+03  0.17300000000E+03 0. -1.
<mgrwt>
<rscale>  2 0.18768563E+03</rscale>
<asrwt>0</asrwt>
<pdfrwt beam="1">  1       21 0.64148691E-01 0.18768563E+03</pdfrwt>
<pdfrwt beam="2">  1       21 0.13325576E-01 0.18768563E+03</pdfrwt>
<totfact> 0.10923818E+05</totfact>
</mgrwt>
</event>
<event>
 4    1  0.3902417E-001  0.2197404E+03  0.7546771E-02  0.1134077E+00
         21   -1    0    0  503  502  0.00000000000E+00  0.00000000000E+00  0.57141408374E+02  0.57141408374E+02  0.00000000000E+00 0. -1.
         21   -1    0    0  501  503 -0.00000000000E+00 -0.00000000000E+00 -0.89073445148E+03  0.89073445148E+03  0.00000000000E+00 0. -1.
          6    1    1    2  501    0  0.10845184375E+03 -0.81209984432E+02 -0.30943345965E+03  0.37951934066E+03  0.17300000000E+03 0. -1.
         -6    1    1    2    0  502 -0.10845184375E+03  0.81209984432E+02 -0.52415958346E+03  0.56835651920E+03  0.17300000000E+03 0. -1.
<mgrwt>
<rscale>  2 0.21974045E+03</rscale>
<asrwt>0</asrwt>
<pdfrwt beam="1">  1       21 0.87909865E-02 0.21974045E+03</pdfrwt>
<pdfrwt beam="2">  1       21 0.13703606E+00 0.21974045E+03</pdfrwt>
<totfact> 0.37902999E+04</totfact>
</mgrwt>
</event>
<event>
 4    1  0.3902417E-001  0.2810615E+03  0.7546771E-02  0.1095111E+00
         21   -1    0    0  503  502  0.00000000000E+00  0.00000000000E+00  0.86412693405E+03  0.86412693405E+03  0.00000000000E+00 0.  1.
         21   -1    0    0  501  503 -0.00000000000E+00 -0.00000000000E+00 -0.97203745136E+02  0.97203745136E+02  0.00000000000E+00 0.  1.
          6    1    1    2  501    0  0.11513548275E+03  0.18923631364E+03  0.26617920073E+03  0.38710066996E+03  0.17300000000E+03 0.  1.
         -6    1    1    2    0  502 -0.11513548275E+03 -0.18923631364E+03  0.50074398819E+03  0.57423000922E+03  0.17300000000E+03 0.  1.
<mgrwt>
<rscale>  2 0.28106149E+03</rscale>
<asrwt>0</asrwt>
<pdfrwt beam="1">  1       21 0.13294260E+00 0.28106149E+03</pdfrwt>
<pdfrwt beam="2">  1       21 0.14954423E-01 0.28106149E+03</pdfrwt>
<totfact> 0.15304394E+04</totfact>
</mgrwt>
</event>
<event>
 4    1  0.3902417E-001  0.1826547E+03  0.7546771E-02  0.1165258E+00
         21   -1    0    0  503  502  0.00000000000E+00  0.00000000000E+00  0.10149294457E+03  0.10149294457E+03  0.00000000000E+00 0. -1.
         21   -1    0    0  501  503 -0.00000000000E+00 -0.00000000000E+00 -0.33576093809E+03  0.33576093809E+03  0.00000000000E+00 0.  1.
          6    1    1    2  501    0  0.49046611094E+02 -0.32065214871E+02 -0.14879376334E+03  0.23558932928E+03  0.17300000000E+03 0.  1.
         -6    1    1    2    0  502 -0.49046611094E+02  0.32065214871E+02 -0.85474230184E+02  0.20166455338E+03  0.17300000000E+03 0.  1.
<mgrwt>
<rscale>  2 0.18265472E+03</rscale>
<asrwt>0</asrwt>
<pdfrwt beam="1">  1       21 0.15614299E-01 0.18265472E+03</pdfrwt>
<pdfrwt beam="2">  1       21 0.51655530E-01 0.18265472E+03</pdfrwt>
<totfact> 0.13022775E+05</totfact>
</mgrwt>
</event>
<event>
 4    1  0.3902417E-001  0.2290217E+03  0.7546771E-02  0.1127330E+00
         21   -1    0    0  503  502  0.00000000000E+00  0.00000000000E+00  0.49336286192E+03  0.49336286192E+03  0.00000000000E+00 0. -1.
         21   -1    0    0  501  503 -0.00000000000E+00 -0.00000000000E+00 -0.19391715686E+03  0.19391715686E+03  0.00000000000E+00 0.  1.
          6    1    1    2  501    0  0.14939909889E+03 -0.14207854944E+02 -0.81248235595E+02  0.24300664534E+03  0.17300000000E+03 0.  1.
         -6    1    1    2    0  502 -0.14939909889E+03  0.14207854944E+02  0.38069394065E+03  0.44427337343E+03  0.17300000000E+03 0. -1.
<mgrwt>
<rscale>  2 0.22902173E+03</rscale>
<asrwt>0</asrwt>
<pdfrwt beam="1">  1       21 0.75901978E-01 0.22902173E+03</pdfrwt>
<pdfrwt beam="2">  1       21 0.29833409E-01 0.22902173E+03</pdfrwt>
<totfact> 0.16315235E+04</totfact>
</mgrwt>
</event>
<event>
 4    1  0.3902417E-001  0.3207316E+03  0.7546771E-02  0.1075313E+00
         21   -1    0    0  503  502  0.00000000000E+00  0.00000000000E+00  0.29106965236E+03  0.29106965236E+03  0.00000000000E+00 0. -1.
         21   -1    0    0  501  503 -0.00000000000E+00 -0.00000000000E+00 -0.35851718068E+03  0.35851718068E+03  0.00000000000E+00 0.  1.
          6    1    1    2  501    0 -0.87697387942E+02 -0.25543868318E+03 -0.72465209353E+02  0.32881599609E+03  0.17300000000E+03 0.  1.
         -6    1    1    2    0  502  0.87697387942E+02  0.25543868318E+03  0.50176810316E+01  0.32077083696E+03  0.17300000000E+03 0. -1.
<mgrwt>
<rscale>  2 0.32073159E+03</rscale>
<asrwt>0</asrwt>
<pdfrwt beam="1">  1       21 0.44779947E-01 0.32073159E+03</pdfrwt>
<pdfrwt beam="2">  1       21 0.55156489E-01 0.32073159E+03</pdfrwt>
<totfact> 0.13903957E+04</totfact>
</mgrwt>
</event>
<event>
 4    1  0.3902417E-001  0.1879449E+03  0.7546771E-02  0.1160328E+00
         21   -1    0    0  503  502  0.00000000000E+00  0.00000000000E+00  0.13697146289E+03  0.13697146289E+03  0.00000000000E+00 0. -1.
         21   -1    0    0  501  503 -0.00000000000E+00 -0.00000000000E+00 -0.27376634610E+03  0.27376634610E+03  0.00000000000E+00 0. -1.
          6    1    1    2  501    0 -0.24650206566E+02  0.69185724497E+02 -0.11785665843E+03  0.22184113481E+03  0.17300000000E+03 0. -1.
         -6    1    1    2    0  502  0.24650206566E+02 -0.69185724497E+02 -0.18938224789E+02  0.18889667418E+03  0.17300000000E+03 0. -1.
<mgrwt>
<rscale>  2 0.18794493E+03</rscale>
<asrwt>0</asrwt>
<pdfrwt beam="1">  1       21 0.21072533E-01 0.18794493E+03</pdfrwt>
<pdfrwt beam="2">  1       21 0.42117899E-01 0.18794493E+03</pdfrwt>
<totfact> 0.11375388E+05</totfact>
</mgrwt>
</event>
<event>
 4    1  0.3902417E-001  0.1874739E+03  0.7546771E-02  0.1160760E+00
         21   -1    0    0  503  502  0.00000000000E+00  0.00000000000E+00  0.24417567907E+04  0.24417567907E+04  0.00000000000E+00 0. -1.
         21   -1    0    0  501  503 -0.00000000000E+00 -0.00000000000E+00 -0.15607399510E+02  0.15607399510E+02  0.00000000000E+00 0. -1.
          6    1    1    2  501    0  0.71848447607E+02 -0.74337458391E+01  0.87047270160E+03  0.89043202112E+03  0.17300000000E+03 0. -1.
         -6    1    1    2    0  502 -0.71848447607E+02  0.74337458391E+01  0.15556766896E+04  0.15669321691E+04  0.17300000000E+03 0. -1.
<mgrwt>
<rscale>  2 0.18747389E+03</rscale>
<asrwt>0</asrwt>
<pdfrwt beam="1">  1       21 0.37565459E+00 0.18747389E+03</pdfrwt>
<pdfrwt beam="2">  1       21 0.24011403E-02 0.18747389E+03</pdfrwt>
<totfact> 0.11292861E+04</totfact>
</mgrwt>
</event>
<event>
 4    1  0.3902417E-001  0.2046651E+03  0.7546771E-02  0.1145862E+00
         21   -1    0    0  501  502  0.00000000000E+00  0.00000000000E+00  0.45645158464E+03  0.45645158464E+03  0.00000000000E+00 0. -1.
         21   -1    0    0  502  503 -0.00000000000E+00 -0.00000000000E+00 -0.96357560016E+02  0.96357560016E+02  0.00000000000E+00 0. -1.
          6    1    1    2  501    0  0.28650868845E+02  0.10553648059E+03  0.24036821932E+03  0.31569716799E+03  0.17300000000E+03 0. -1.
         -6    1    1    2    0  503 -0.28650868845E+02 -0.10553648059E+03  0.11972580530E+03  0.23711197666E+03  0.17300000000E+03 0. -1.
<mgrwt>
<rscale>  2 0.20466514E+03</rscale>
<asrwt>0</asrwt>
<pdfrwt beam="1">  1       21 0.70223319E-01 0.20466514E+03</pdfrwt>
<pdfrwt beam="2">  1       21 0.14824240E-01 0.20466514E+03</pdfrwt>
<totfact> 0.73345995E+04</totfact>
</mgrwt>
</event>
<event>
 4    1  0.3902417E-001  0.1790356E+03  0.7546771E-02  0.1168740E+00
         21   -1    0    0  501  502  0.00000000000E+00  0.00000000000E+00  0.84572627852E+02  0.84572627852E+02  0.00000000000E+00 0.  1.
         21   -1    0    0  502  503 -0.00000000000E+00 -0.00000000000E+00 -0.40599854748E+03  0.40599854748E+03  0.00000000000E+00 0.  1.
          6    1    1    2  501    0  0.13677962206E+02  0.44018722252E+02 -0.97469941055E+02  0.20384828664E+03  0.17300000000E+03 0.  1.
         -6    1    1    2    0  503 -0.13677962206E+02 -0.44018722252E+02 -0.22395597857E+03  0.28672288869E+03  0.17300000000E+03 0.  1.
<mgrwt>
<rscale>  2 0.17903557E+03</rscale>
<asrwt>0</asrwt>
<pdfrwt beam="1">  1       21 0.13011174E-01 0.17903557E+03</pdfrwt>
<pdfrwt beam="2">  1       21 0.62461314E-01 0.17903557E+03</pdfrwt>
<totfact> 0.12119013E+05</totfact>
</mgrwt>
</event>
<event>
 4    1  0.3902417E-001  0.2128007E+03  0.7546771E-02  0.1139367E+00
         21   -1    0    0  503  502  0.00000000000E+00  0.00000000000E+00  0.46141498693E+03  0.46141498693E+03  0.00000000000E+00 0. -1.
         21   -1    0    0  501  503 -0.00000000000E+00 -0.00000000000E+00 -0.17634127493E+03  0.17634127493E+03  0.00000000000E+00 0. -1.
          6    1    1    2  501    0  0.62393256164E+02  0.10706168081E+03 -0.69811800869E+02  0.22395939242E+03  0.17300000000E+03 0. -1.
         -6    1    1    2    0  502 -0.62393256164E+02 -0.10706168081E+03  0.35488551287E+03  0.41379686944E+03  0.17300000000E+03 0. -1.
<mgrwt>
<rscale>  2 0.21280066E+03</rscale>
<asrwt>0</asrwt>
<pdfrwt beam="1">  1       21 0.70986921E-01 0.21280066E+03</pdfrwt>
<pdfrwt beam="2">  1       21 0.27129427E-01 0.21280066E+03</pdfrwt>
<totfact> 0.22994173E+04</totfact>
</mgrwt>
</event>
<event>
 4    1  0.3902417E-001  0.2055909E+03  0.7546771E-02  0.1145106E+00
         21   -1    0    0  503  502  0.00000000000E+00  0.00000000000E+00  0.24143563747E+03  0.24143563747E+03  0.00000000000E+00 0. -1.
         21   -1    0    0  501  503 -0.00000000000E+00 -0.00000000000E+00 -0.28605942190E+03  0.28605942190E+03  0.00000000000E+00 0.  1.
          6    1    1    2  501    0  0.66645456298E+02 -0.88865119574E+02 -0.18659965123E+03  0.27764555851E+03  0.17300000000E+03 0.  1.
         -6    1    1    2    0  502 -0.66645456298E+02  0.88865119574E+02  0.14197586681E+03  0.24984950086E+03  0.17300000000E+03 0. -1.
<mgrwt>
<rscale>  2 0.20559092E+03</rscale>
<asrwt>0</asrwt>
<pdfrwt beam="1">  1       21 0.37143944E-01 0.20559092E+03</pdfrwt>
<pdfrwt beam="2">  1       21 0.44009142E-01 0.20559092E+03</pdfrwt>
<totfact> 0.34434619E+04</totfact>
</mgrwt>
</event>
<event>
 4    1  0.3902417E-001  0.3345316E+03  0.7546771E-02  0.1069149E+00
         21   -1    0    0  503  502  0.00000000000E+00  0.00000000000E+00  0.33995009987E+03  0.33995009987E+03  0.00000000000E+00 0. -1.
         21   -1    0    0  501  503 -0.00000000000E+00 -0.00000000000E+00 -0.43872216465E+03  0.43872216465E+03  0.00000000000E+00 0.  1.
          6    1    1    2  501    0  0.63031107271E+02 -0.27930171678E+03 -0.24391403069E+03  0.41401138130E+03  0.17300000000E+03 0.  1.
         -6    1    1    2    0  502 -0.63031107271E+02  0.27930171678E+03  0.14514196591E+03  0.36466088322E+03  0.17300000000E+03 0. -1.
<mgrwt>
<rscale>  2 0.33453157E+03</rscale>
<asrwt>0</asrwt>
<pdfrwt beam="1">  1       21 0.52300015E-01 0.33453157E+03</pdfrwt>
<pdfrwt beam="2">  1       21 0.67495718E-01 0.33453157E+03</pdfrwt>
<totfact> 0.64208117E+03</totfact>
</mgrwt>
</event>
<event>
 4    1  0.3902417E-001  0.2189698E+03  0.7546771E-02  0.1134653E+00
         21   -1    0    0  501  502  0.00000000000E+00  0.00000000000E+00  0.19349013978E+03  0.19349013978E+03  0.00000000000E+00 0. -1.
         21   -1    0    0  502  503 -0.00000000000E+00 -0.00000000000E+00 -0.31241839838E+03  0.31241839838E+03  0.00000000000E+00 0.  1.
          6    1    1    2  501    0  0.15275117402E+02 -0.13336206532E+03  0.55572447410E+02  0.22591163447E+03  0.17300000000E+03 0. -1.
         -6    1    1    2    0  503 -0.15275117402E+02  0.13336206532E+03 -0.17450070601E+03  0.27999690369E+03  0.17300000000E+03 0.  1.
<mgrwt>
<rscale>  2 0.21896979E+03</rscale>
<asrwt>0</asrwt>
<pdfrwt beam="1">  1       21 0.29767714E-01 0.21896979E+03</pdfrwt>
<pdfrwt beam="2">  1       21 0.48064369E-01 0.21896979E+03</pdfrwt>
<totfact> 0.44177944E+04</totfact>
</mgrwt>
</event>
<event>
 4    1  0.3902417E-001  0.2103845E+03  0.7546771E-02  0.1141262E+00
         21   -1    0    0  503  502  0.00000000000E+00  0.00000000000E+00  0.13087700618E+03  0.13087700618E+03  0.00000000000E+00 0. -1.
         21   -1    0    0  501  503 -0.00000000000E+00 -0.00000000000E+00 -0.10126643033E+04  0.10126643033E+04  0.00000000000E+00 0. -1.
          6    1    1    2  501    0 -0.42668625588E+02 -0.11185710637E+03 -0.90752187511E+03  0.93158873847E+03  0.17300000000E+03 0. -1.
         -6    1    1    2    0  502  0.42668625588E+02  0.11185710637E+03  0.25734577971E+02  0.21195257101E+03  0.17300000000E+03 0. -1.
<mgrwt>
<rscale>  2 0.21038447E+03</rscale>
<asrwt>0</asrwt>
<pdfrwt beam="1">  1       21 0.20134924E-01 0.21038447E+03</pdfrwt>
<pdfrwt beam="2">  1       21 0.15579451E+00 0.21038447E+03</pdfrwt>
<totfact> 0.60748146E+03</totfact>
</mgrwt>
</event>
<event>
 4    1  0.3902417E-001  0.1760634E+03  0.7546771E-02  0.1171668E+00
         21   -1    0    0  501  502  0.00000000000E+00  0.00000000000E+00  0.68835847060E+02  0.68835847060E+02  0.00000000000E+00 0. -1.
         21   -1    0    0  502  503 -0.00000000000E+00 -0.00000000000E+00 -0.54151127984E+03  0.54151127984E+03  0.00000000000E+00 0. -1.
          6    1    1    2  501    0  0.28286758667E+02  0.16406861136E+02 -0.11110608794E+03  0.20818954966E+03  0.17300000000E+03 0. -1.
         -6    1    1    2    0  503 -0.28286758667E+02 -0.16406861136E+02 -0.36156934484E+03  0.40215757725E+03  0.17300000000E+03 0. -1.
<mgrwt>
<rscale>  2 0.17606341E+03</rscale>
<asrwt>0</asrwt>
<pdfrwt beam="1">  1       21 0.10590130E-01 0.17606341E+03</pdfrwt>
<pdfrwt beam="2">  1       21 0.83309429E-01 0.17606341E+03</pdfrwt>
<totfact> 0.92598714E+04</totfact>
</mgrwt>
</event>
<event>
 4    1  0.3902417E-001  0.2150181E+03  0.7546771E-02  0.1137653E+00
         21   -1    0    0  501  502  0.00000000000E+00  0.00000000000E+00  0.87578952317E+02  0.87578952317E+02  0.00000000000E+00 0. -1.
         21   -1    0    0  502  503 -0.00000000000E+00 -0.00000000000E+00 -0.57695359178E+03  0.57695359178E+03  0.00000000000E+00 0. -1.
          6    1    1    2  501    0  0.11448108781E+03 -0.56549479902E+02 -0.14780163701E+03  0.26091777832E+03  0.17300000000E+03 0. -1.
         -6    1    1    2    0  503 -0.11448108781E+03  0.56549479902E+02 -0.34157300245E+03  0.40361476577E+03  0.17300000000E+03 0. -1.
<mgrwt>
<rscale>  2 0.21501805E+03</rscale>
<asrwt>0</asrwt>
<pdfrwt beam="1">  1       21 0.13473685E-01 0.21501805E+03</pdfrwt>
<pdfrwt beam="2">  1       21 0.88762089E-01 0.21501805E+03</pdfrwt>
<totfact> 0.51126734E+04</totfact>
</mgrwt>
</event>
<event>
 4    1  0.3902417E-001  0.2037058E+03  0.7546771E-02  0.1146650E+00
         21   -1    0    0  503  502  0.00000000000E+00  0.00000000000E+00  0.58155785766E+02  0.58155785766E+02  0.00000000000E+00 0. -1.
         21   -1    0    0  501  503 -0.00000000000E+00 -0.00000000000E+00 -0.82920436424E+03  0.82920436424E+03  0.00000000000E+00 0. -1.
          6    1    1    2  501    0  0.10520862246E+03 -0.22320773858E+02 -0.55123558010E+03  0.58767060158E+03  0.17300000000E+03 0. -1.
         -6    1    1    2    0  502 -0.10520862246E+03  0.22320773858E+02 -0.21981299837E+03  0.29968954843E+03  0.17300000000E+03 0. -1.
<mgrwt>
<rscale>  2 0.20370584E+03</rscale>
<asrwt>0</asrwt>
<pdfrwt beam="1">  1       21 0.89470446E-02 0.20370584E+03</pdfrwt>
<pdfrwt beam="2">  1       21 0.12756989E+00 0.20370584E+03</pdfrwt>
<totfact> 0.44466621E+04</totfact>
</mgrwt>
</event>
<event>
 4    1  0.3902417E-001  0.1873029E+03  0.7546771E-02  0.1160917E+00
         21   -1    0    0  501  502  0.00000000000E+00  0.00000000000E+00  0.62114330024E+02  0.62114330024E+02  0.00000000000E+00 0.  1.
         21   -1    0    0  502  503 -0.00000000000E+00 -0.00000000000E+00 -0.56678585373E+03  0.56678585373E+03  0.00000000000E+00 0.  1.
          6    1    1    2  501    0 -0.30927142714E+02  0.64783338368E+02 -0.23373753938E+03  0.29952563564E+03  0.17300000000E+03 0.  1.
         -6    1    1    2    0  503  0.30927142714E+02 -0.64783338368E+02 -0.27093398433E+03  0.32937454812E+03  0.17300000000E+03 0.  1.
<mgrwt>
<rscale>  2 0.18730288E+03</rscale>
<asrwt>0</asrwt>
<pdfrwt beam="1">  1       21 0.95560510E-02 0.18730288E+03</pdfrwt>
<pdfrwt beam="2">  1       21 0.87197822E-01 0.18730288E+03</pdfrwt>
<totfact> 0.99563058E+04</totfact>
</mgrwt>
</event>
<event>
 4    1  0.3902417E-001  0.1847217E+03  0.7546771E-02  0.1163310E+00
         21   -1    0    0  503  502  0.00000000000E+00  0.00000000000E+00  0.23753393138E+03  0.23753393138E+03  0.00000000000E+00 0.  1.
         21   -1    0    0  501  503 -0.00000000000E+00 -0.00000000000E+00 -0.14399113346E+03  0.14399113346E+03  0.00000000000E+00 0.  1.
          6    1    1    2  501    0 -0.27472142067E+00  0.64753484236E+02  0.56037018082E+02  0.19303428863E+03  0.17300000000E+03 0. -1.
         -6    1    1    2    0  502  0.27472142067E+00 -0.64753484236E+02  0.37505779842E+02  0.18849077620E+03  0.17300000000E+03 0. -1.
<mgrwt>
<rscale>  2 0.18472165E+03</rscale>
<asrwt>0</asrwt>
<pdfrwt beam="1">  1       21 0.36543682E-01 0.18472165E+03</pdfrwt>
<pdfrwt beam="2">  1       21 0.22152482E-01 0.18472165E+03</pdfrwt>
<totfact> 0.13795882E+05</totfact>
</mgrwt>
</event>
<event>
 4    1  0.3902417E-001  0.3026029E+03  0.7546771E-02  0.1083947E+00
         21   -1    0    0  501  502  0.00000000000E+00  0.00000000000E+00  0.20913798910E+03  0.20913798910E+03  0.00000000000E+00 0.  1.
         21   -1    0    0  502  503 -0.00000000000E+00 -0.00000000000E+00 -0.56555318969E+03  0.56555318969E+03  0.00000000000E+00 0. -1.
          6    1    1    2  501    0 -0.11189895974E+03 -0.22162616971E+03  0.58625415573E+01  0.30265971930E+03  0.17300000000E+03 0.  1.
         -6    1    1    2    0  503  0.11189895974E+03  0.22162616971E+03 -0.36227774215E+03  0.47203145949E+03  0.17300000000E+03 0. -1.
<mgrwt>
<rscale>  2 0.30260294E+03</rscale>
<asrwt>0</asrwt>
<pdfrwt beam="1">  1       21 0.32175076E-01 0.30260294E+03</pdfrwt>
<pdfrwt beam="2">  1       21 0.87008181E-01 0.30260294E+03</pdfrwt>
<totfact> 0.99155587E+03</totfact>
</mgrwt>
</event>
<event>
 4    1  0.3902417E-001  0.2298285E+03  0.7546771E-02  0.1126761E+00
         21   -1    0    0  501  502  0.00000000000E+00  0.00000000000E+00  0.11133431749E+03  0.11133431749E+03  0.00000000000E+00 0. -1.
         21   -1    0    0  502  503 -0.00000000000E+00 -0.00000000000E+00 -0.47469298461E+03  0.47469298461E+03  0.00000000000E+00 0.  1.
          6    1    1    2  501    0 -0.13861577959E+03  0.60644882047E+02 -0.18848174301E+03  0.29723139726E+03  0.17300000000E+03 0. -1.
         -6    1    1    2    0  503  0.13861577959E+03 -0.60644882047E+02 -0.17487692411E+03  0.28879590485E+03  0.17300000000E+03 0.  1.
<mgrwt>
<rscale>  2 0.22982849E+03</rscale>
<asrwt>0</asrwt>
<pdfrwt beam="1">  1       21 0.17128356E-01 0.22982849E+03</pdfrwt>
<pdfrwt beam="2">  1       21 0.73029690E-01 0.22982849E+03</pdfrwt>
<totfact> 0.51007970E+04</totfact>
</mgrwt>
</event>
<event>
 4    1  0.3902417E-001  0.1899335E+03  0.7546771E-02  0.1158521E+00
         21   -1    0    0  501  502  0.00000000000E+00  0.00000000000E+00  0.34081214905E+03  0.34081214905E+03  0.00000000000E+00 0. -1.
         21   -1    0    0  502  503 -0.00000000000E+00 -0.00000000000E+00 -0.13047445031E+03  0.13047445031E+03  0.00000000000E+00 0.  1.
          6    1    1    2  501    0 -0.24129539476E+02  0.74588769064E+02  0.27966541025E+01  0.18995404818E+03  0.17300000000E+03 0.  1.
         -6    1    1    2    0  503  0.24129539476E+02 -0.74588769064E+02  0.20754104464E+03  0.28133255118E+03  0.17300000000E+03 0. -1.
<mgrwt>
<rscale>  2 0.18993346E+03</rscale>
<asrwt>0</asrwt>
<pdfrwt beam="1">  1       21 0.52432638E-01 0.18993346E+03</pdfrwt>
<pdfrwt beam="2">  1       21 0.20072992E-01 0.18993346E+03</pdfrwt>
<totfact> 0.79183045E+04</totfact>
</mgrwt>
</event>
<event>
 4    1  0.3902417E-001  0.1835236E+03  0.7546771E-02  0.1164436E+00
         21   -1    0    0  503  502  0.00000000000E+00  0.00000000000E+00  0.97189790049E+02  0.97189790049E+02  0.00000000000E+00 0.  1.
         21   -1    0    0  501  503 -0.00000000000E+00 -0.00000000000E+00 -0.35318166481E+03  0.35318166481E+03  0.00000000000E+00 0.  1.
          6    1    1    2  501    0 -0.42163494416E+02 -0.44431324976E+02 -0.97133744120E+02  0.20764360608E+03  0.17300000000E+03 0.  1.
         -6    1    1    2    0  502  0.42163494416E+02  0.44431324976E+02 -0.15885813064E+03  0.24272784878E+03  0.17300000000E+03 0.  1.
<mgrwt>
<rscale>  2 0.18352358E+03</rscale>
<asrwt>0</asrwt>
<pdfrwt beam="1">  1       21 0.14952275E-01 0.18352358E+03</pdfrwt>
<pdfrwt beam="2">  1       21 0.54335641E-01 0.18352358E+03</pdfrwt>
<totfact> 0.12667624E+05</totfact>
</mgrwt>
</event>
<event>
 4    1  0.3902417E-001  0.1795771E+03  0.7546771E-02  0.1168213E+00
         21   -1    0    0  503  502  0.00000000000E+00  0.00000000000E+00  0.56971113771E+03  0.56971113771E+03  0.00000000000E+00 0.  1.
         21   -1    0    0  501  503 -0.00000000000E+00 -0.00000000000E+00 -0.61397587637E+02  0.61397587637E+02  0.00000000000E+00 0.  1.
          6    1    1    2  501    0  0.18822834309E+02 -0.44324187265E+02  0.16598520013E+03  0.24453838008E+03  0.17300000000E+03 0.  1.
         -6    1    1    2    0  502 -0.18822834309E+02  0.44324187265E+02  0.34232834994E+03  0.38657034527E+03  0.17300000000E+03 0.  1.
<mgrwt>
<rscale>  2 0.17957709E+03</rscale>
<asrwt>0</asrwt>
<pdfrwt beam="1">  1       21 0.87647864E-01 0.17957709E+03</pdfrwt>
<pdfrwt beam="2">  1       21 0.94457831E-02 0.17957709E+03</pdfrwt>
<totfact> 0.10073251E+05</totfact>
</mgrwt>
</event>
<event>
 4    1  0.3902417E-001  0.2976239E+03  0.7546771E-02  0.1086434E+00
         21   -1    0    0  501  502  0.00000000000E+00  0.00000000000E+00  0.14492945322E+03  0.14492945322E+03  0.00000000000E+00 0.  1.
         21   -1    0    0  502  503 -0.00000000000E+00 -0.00000000000E+00 -0.72944623390E+03  0.72944623390E+03  0.00000000000E+00 0.  1.
          6    1    1    2  501    0  0.61308001603E+02  0.23429107654E+03 -0.11623251020E+03  0.31951522035E+03  0.17300000000E+03 0.  1.
         -6    1    1    2    0  503 -0.61308001603E+02 -0.23429107654E+03 -0.46828427048E+03  0.55486046677E+03  0.17300000000E+03 0.  1.
<mgrwt>
<rscale>  2 0.29762389E+03</rscale>
<asrwt>0</asrwt>
<pdfrwt beam="1">  1       21 0.22296840E-01 0.29762389E+03</pdfrwt>
<pdfrwt beam="2">  1       21 0.11222249E+00 0.29762389E+03</pdfrwt>
<totfact> 0.11022053E+04</totfact>
</mgrwt>
</event>
<event>
 4    1  0.3902417E-001  0.2372775E+03  0.7546771E-02  0.1121620E+00
         21   -1    0    0  503  502  0.00000000000E+00  0.00000000000E+00  0.36109484705E+02  0.36109484705E+02  0.00000000000E+00 0. -1.
         21   -1    0    0  501  503 -0.00000000000E+00 -0.00000000000E+00 -0.18326740260E+04  0.18326740260E+04  0.00000000000E+00 0. -1.
          6    1    1    2  501    0  0.14991846831E+03  0.62418489677E+02 -0.12592537343E+04  0.12814135095E+04  0.17300000000E+03 0. -1.
         -6    1    1    2    0  502 -0.14991846831E+03 -0.62418489677E+02 -0.53731080699E+03  0.58737000120E+03  0.17300000000E+03 0. -1.
<mgrwt>
<rscale>  2 0.23727751E+03</rscale>
<asrwt>0</asrwt>
<pdfrwt beam="1">  1       21 0.55553064E-02 0.23727751E+03</pdfrwt>
<pdfrwt beam="2">  1       21 0.28194979E+00 0.23727751E+03</pdfrwt>
<totfact> 0.93461036E+03</totfact>
</mgrwt>
</event>
<event>
 4    1  0.3902417E-001  0.3053818E+03  0.7546771E-02  0.1082581E+00
         21   -1    0    0  503  502  0.00000000000E+00  0.00000000000E+00  0.10026047060E+03  0.10026047060E+03  0.00000000000E+00 0. -1.
         21   -1    0    0  501  503 -0.00000000000E+00 -0.00000000000E+00 -0.93114179373E+03  0.93114179373E+03  0.00000000000E+00 0.  1.
          6    1    1    2  501    0 -0.23296753446E+03  0.95158723020E+02 -0.43220534323E+03  0.52920649410E+03  0.17300000000E+03 0.  1.
         -6    1    1    2    0  502  0.23296753446E+03 -0.95158723020E+02 -0.39867597990E+03  0.50219577022E+03  0.17300000000E+03 0.  1.
<mgrwt>
<rscale>  2 0.30538182E+03</rscale>
<asrwt>0</asrwt>
<pdfrwt beam="1">  1       21 0.15424688E-01 0.30538182E+03</pdfrwt>
<pdfrwt beam="2">  1       21 0.14325258E+00 0.30538182E+03</pdfrwt>
<totfact> 0.11762268E+04</totfact>
</mgrwt>
</event>
<event>
 4    1  0.3902417E-001  0.1844187E+03  0.7546771E-02  0.1163594E+00
         21   -1    0    0  503  502  0.00000000000E+00  0.00000000000E+00  0.18572378660E+02  0.18572378660E+02  0.00000000000E+00 0. -1.
         21   -1    0    0  501  503 -0.00000000000E+00 -0.00000000000E+00 -0.20699375572E+04  0.20699375572E+04  0.00000000000E+00 0. -1.
          6    1    1    2  501    0  0.60675756673E+02 -0.19992647376E+02 -0.13803025247E+04  0.13925678845E+04  0.17300000000E+03 0. -1.
         -6    1    1    2    0  502 -0.60675756673E+02  0.19992647376E+02 -0.67106265384E+03  0.69594205131E+03  0.17300000000E+03 0. -1.
<mgrwt>
<rscale>  2 0.18441869E+03</rscale>
<asrwt>0</asrwt>
<pdfrwt beam="1">  1       21 0.28572906E-02 0.18441869E+03</pdfrwt>
<pdfrwt beam="2">  1       21 0.31845176E+00 0.18441869E+03</pdfrwt>
<totfact> 0.18487598E+04</totfact>
</mgrwt>
</event>
<event>
 4    1  0.3902417E-001  0.1856873E+03  0.7546771E-02  0.1162410E+00
         21   -1    0    0  503  502  0.00000000000E+00  0.00000000000E+00  0.57559728271E+03  0.57559728271E+03  0.00000000000E+00 0. -1.
         21   -1    0    0  501  503 -0.00000000000E+00 -0.00000000000E+00 -0.60101933232E+02  0.60101933232E+02  0.00000000000E+00 0.  1.
          6    1    1    2  501    0  0.65153331035E+02 -0.17487576814E+02  0.23944262517E+03  0.30300584588E+03  0.17300000000E+03 0. -1.
         -6    1    1    2    0  502 -0.65153331035E+02  0.17487576814E+02  0.27605272431E+03  0.33269337007E+03  0.17300000000E+03 0. -1.
<mgrwt>
<rscale>  2 0.18568730E+03</rscale>
<asrwt>0</asrwt>
<pdfrwt beam="1">  1       21 0.88553424E-01 0.18568730E+03</pdfrwt>
<pdfrwt beam="2">  1       21 0.92464517E-02 0.18568730E+03</pdfrwt>
<totfact> 0.10188384E+05</totfact>
</mgrwt>
</event>
<event>
 4    1  0.3902417E-001  0.2017634E+03  0.7546771E-02  0.1148260E+00
         21   -1    0    0  501  502  0.00000000000E+00  0.00000000000E+00  0.21820336039E+03  0.21820336039E+03  0.00000000000E+00 0. -1.
         21   -1    0    0  502  503 -0.00000000000E+00 -0.00000000000E+00 -0.27120211428E+03  0.27120211428E+03  0.00000000000E+00 0. -1.
          6    1    1    2  501    0  0.26266592523E+02  0.10044677879E+03  0.11020424260E+03  0.22989881326E+03  0.17300000000E+03 0. -1.
         -6    1    1    2    0  503 -0.26266592523E+02 -0.10044677879E+03 -0.16320299649E+03  0.25950666141E+03  0.17300000000E+03 0. -1.
<mgrwt>
<rscale>  2 0.20176345E+03</rscale>
<asrwt>0</asrwt>
<pdfrwt beam="1">  1       21 0.33569748E-01 0.20176345E+03</pdfrwt>
<pdfrwt beam="2">  1       21 0.41723402E-01 0.20176345E+03</pdfrwt>
<totfact> 0.47052473E+04</totfact>
</mgrwt>
</event>
<event>
 4    1  0.3902417E-001  0.1830651E+03  0.7546771E-02  0.1164869E+00
         21   -1    0    0  501  502  0.00000000000E+00  0.00000000000E+00  0.39022488490E+03  0.39022488490E+03  0.00000000000E+00 0. -1.
         21   -1    0    0  502  503 -0.00000000000E+00 -0.00000000000E+00 -0.10694537011E+03  0.10694537011E+03  0.00000000000E+00 0.  1.
          6    1    1    2  501    0  0.30116966736E+02  0.51737848842E+02  0.25196379489E+03  0.31144596742E+03  0.17300000000E+03 0. -1.
         -6    1    1    2    0  503 -0.30116966736E+02 -0.51737848842E+02  0.31315719893E+02  0.18572428759E+03  0.17300000000E+03 0.  1.
<mgrwt>
<rscale>  2 0.18306512E+03</rscale>
<asrwt>0</asrwt>
<pdfrwt beam="1">  1       21 0.60034597E-01 0.18306512E+03</pdfrwt>
<pdfrwt beam="2">  1       21 0.16453134E-01 0.18306512E+03</pdfrwt>
<totfact> 0.86066579E+04</totfact>
</mgrwt>
</event>
<event>
 4    1  0.3902417E-001  0.4462372E+03  0.7546771E-02  0.1028850E+00
         21   -1    0    0  501  502  0.00000000000E+00  0.00000000000E+00  0.15571197901E+04  0.15571197901E+04  0.00000000000E+00 0. -1.
         21   -1    0    0  502  503 -0.00000000000E+00 -0.00000000000E+00 -0.86463720844E+03  0.86463720844E+03  0.00000000000E+00 0.  1.
          6    1    1    2  501    0  0.24467370624E+03 -0.33065608680E+03  0.14639926332E+04  0.15304908038E+04  0.17300000000E+03 0. -1.
         -6    1    1    2    0  503 -0.24467370624E+03  0.33065608680E+03 -0.77151005157E+03  0.89126619477E+03  0.17300000000E+03 0.  1.
<mgrwt>
<rscale>  2 0.44623724E+03</rscale>
<asrwt>0</asrwt>
<pdfrwt beam="1">  1       21 0.23955689E+00 0.44623724E+03</pdfrwt>
<pdfrwt beam="2">  1       21 0.13302111E+00 0.44623724E+03</pdfrwt>
<totfact> 0.23853720E+01</totfact>
</mgrwt>
</event>
<event>
 4    1  0.3902417E-001  0.3132640E+03  0.7546771E-02  0.1078792E+00
         21   -1    0    0  501  502  0.00000000000E+00  0.00000000000E+00  0.20930780579E+03  0.20930780579E+03  0.00000000000E+00 0. -1.
         21   -1    0    0  502  503 -0.00000000000E+00 -0.00000000000E+00 -0.75416556012E+03  0.75416556012E+03  0.00000000000E+00 0.  1.
          6    1    1    2  501    0  0.91692158654E+02 -0.24453607462E+03  0.23875263459E+02  0.31417251941E+03  0.17300000000E+03 0.  1.
         -6    1    1    2    0  503 -0.91692158654E+02  0.24453607462E+03 -0.56873301779E+03  0.64930084650E+03  0.17300000000E+03 0. -1.
<mgrwt>
<rscale>  2 0.31326402E+03</rscale>
<asrwt>0</asrwt>
<pdfrwt beam="1">  1       21 0.32201202E-01 0.31326402E+03</pdfrwt>
<pdfrwt beam="2">  1       21 0.11602547E+00 0.31326402E+03</pdfrwt>
<totfact> 0.49281835E+03</totfact>
</mgrwt>
</event>
<event>
 4    1  0.3902417E-001  0.2264522E+03  0.7546771E-02  0.1129162E+00
         21   -1    0    0  501  502  0.00000000000E+00  0.00000000000E+00  0.60762504619E+02  0.60762504619E+02  0.00000000000E+00 0.  1.
         21   -1    0    0  502  503 -0.00000000000E+00 -0.00000000000E+00 -0.86853174596E+03  0.86853174596E+03  0.00000000000E+00 0.  1.
          6    1    1    2  501    0  0.13810385987E+03 -0.47738167435E+02 -0.48205158617E+03  0.53259209577E+03  0.17300000000E+03 0. -1.
         -6    1    1    2    0  503 -0.13810385987E+03  0.47738167435E+02 -0.32571765516E+03  0.39670215481E+03  0.17300000000E+03 0. -1.
<mgrwt>
<rscale>  2 0.22645222E+03</rscale>
<asrwt>0</asrwt>
<pdfrwt beam="1">  1       21 0.93480785E-02 0.22645222E+03</pdfrwt>
<pdfrwt beam="2">  1       21 0.13362026E+00 0.22645222E+03</pdfrwt>
<totfact> 0.36157987E+04</totfact>
</mgrwt>
</event>
<event>
 4    1  0.3902417E-001  0.3298829E+03  0.7546771E-02  0.1071189E+00
         21   -1    0    0  503  502  0.00000000000E+00  0.00000000000E+00  0.72014471071E+03  0.72014471071E+03  0.00000000000E+00 0. -1.
         21   -1    0    0  501  503 -0.00000000000E+00 -0.00000000000E+00 -0.16102470690E+03  0.16102470690E+03  0.00000000000E+00 0. -1.
          6    1    1    2  501    0  0.17044119490E+03  0.22325659188E+03  0.17024664425E+03  0.37122314935E+03  0.17300000000E+03 0. -1.
         -6    1    1    2    0  502 -0.17044119490E+03 -0.22325659188E+03  0.38887335956E+03  0.50994626826E+03  0.17300000000E+03 0. -1.
<mgrwt>
<rscale>  2 0.32988287E+03</rscale>
<asrwt>0</asrwt>
<pdfrwt beam="1">  1       21 0.11079149E+00 0.32988287E+03</pdfrwt>
<pdfrwt beam="2">  1       21 0.24773032E-01 0.32988287E+03</pdfrwt>
<totfact> 0.91611904E+03</totfact>
</mgrwt>
</event>
<event>
 4    1  0.3902417E-001  0.2060067E+03  0.7546771E-02  0.1144768E+00
         21   -1    0    0  503  502  0.00000000000E+00  0.00000000000E+00  0.54461720144E+03  0.54461720144E+03  0.00000000000E+00 0. -1.
         21   -1    0    0  501  503 -0.00000000000E+00 -0.00000000000E+00 -0.80005408246E+02  0.80005408246E+02  0.00000000000E+00 0. -1.
          6    1    1    2  501    0 -0.59161336298E+02 -0.94919377898E+02  0.18193189681E+03  0.27484171279E+03  0.17300000000E+03 0. -1.
         -6    1    1    2    0  502  0.59161336298E+02  0.94919377898E+02  0.28267989639E+03  0.34978089690E+03  0.17300000000E+03 0. -1.
<mgrwt>
<rscale>  2 0.20600668E+03</rscale>
<asrwt>0</asrwt>
<pdfrwt beam="1">  1       21 0.83787259E-01 0.20600668E+03</pdfrwt>
<pdfrwt beam="2">  1       21 0.12308525E-01 0.20600668E+03</pdfrwt>
<totfact> 0.69005827E+04</totfact>
</mgrwt>
</event>
<event>
 4    1  0.3902417E-001  0.2476116E+03  0.7546771E-02  0.1114824E+00
         21   -1    0    0  503  502  0.00000000000E+00  0.00000000000E+00  0.28116051902E+03  0.28116051902E+03  0.00000000000E+00 0.  1.
         21   -1    0    0  501  503 -0.00000000000E+00 -0.00000000000E+00 -0.21859458062E+03  0.21859458062E+03  0.00000000000E+00 0. -1.
          6    1    1    2  501    0 -0.17640589663E+03  0.16232268795E+02  0.43571402262E+02  0.25141597804E+03  0.17300000000E+03 0.  1.
         -6    1    1    2    0  502  0.17640589663E+03 -0.16232268795E+02  0.18994536135E+02  0.24833912161E+03  0.17300000000E+03 0. -1.
<mgrwt>
<rscale>  2 0.24761165E+03</rscale>
<asrwt>0</asrwt>
<pdfrwt beam="1">  1       21 0.43255464E-01 0.24761165E+03</pdfrwt>
<pdfrwt beam="2">  1       21 0.33629936E-01 0.24761165E+03</pdfrwt>
<totfact> 0.42661457E+04</totfact>
</mgrwt>
</event>
<event>
 4    1  0.3902417E-001  0.3003194E+03  0.7546771E-02  0.1085081E+00
         21   -1    0    0  501  502  0.00000000000E+00  0.00000000000E+00  0.78213281105E+03  0.78213281105E+03  0.00000000000E+00 0. -1.
         21   -1    0    0  502  503 -0.00000000000E+00 -0.00000000000E+00 -0.14381085410E+03  0.14381085410E+03  0.00000000000E+00 0.  1.
          6    1    1    2  501    0 -0.23174361673E+03  0.80979291652E+02  0.52524701067E+03  0.60504228926E+03  0.17300000000E+03 0. -1.
         -6    1    1    2    0  503  0.23174361673E+03 -0.80979291652E+02  0.11307494627E+03  0.32090137589E+03  0.17300000000E+03 0.  1.
<mgrwt>
<rscale>  2 0.30031941E+03</rscale>
<asrwt>0</asrwt>
<pdfrwt beam="1">  1       21 0.12032812E+00 0.30031941E+03</pdfrwt>
<pdfrwt beam="2">  1       21 0.22124747E-01 0.30031941E+03</pdfrwt>
<totfact> 0.93961398E+03</totfact>
</mgrwt>
</event>
<event>
 4    1  0.3902417E-001  0.2104982E+03  0.7546771E-02  0.1141172E+00
         21   -1    0    0  501  502  0.00000000000E+00  0.00000000000E+00  0.32290084861E+03  0.32290084861E+03  0.00000000000E+00 0.  1.
         21   -1    0    0  502  503 -0.00000000000E+00 -0.00000000000E+00 -0.14063960338E+03  0.14063960338E+03  0.00000000000E+00 0. -1.
          6    1    1    2  501    0  0.53377534041E+02  0.10738413340E+03  0.55007658789E+02  0.21756689953E+03  0.17300000000E+03 0.  1.
         -6    1    1    2    0  503 -0.53377534041E+02 -0.10738413340E+03  0.12725358644E+03  0.24597355245E+03  0.17300000000E+03 0.  1.
<mgrwt>
<rscale>  2 0.21049825E+03</rscale>
<asrwt>0</asrwt>
<pdfrwt beam="1">  1       21 0.49677053E-01 0.21049825E+03</pdfrwt>
<pdfrwt beam="2">  1       21 0.21636862E-01 0.21049825E+03</pdfrwt>
<totfact> 0.76334495E+04</totfact>
</mgrwt>
</event>
<event>
 4    1  0.3902417E-001  0.5360435E+03  0.7546771E-02  0.1004777E+00
         21   -1    0    0  503  502  0.00000000000E+00  0.00000000000E+00  0.80307367662E+03  0.80307367662E+03  0.00000000000E+00 0. -1.
         21   -1    0    0  501  503 -0.00000000000E+00 -0.00000000000E+00 -0.41513831951E+03  0.41513831951E+03  0.00000000000E+00 0. -1.
          6    1    1    2  501    0  0.37808294709E+03 -0.33832960604E+03 -0.32395291321E+02  0.53702150060E+03  0.17300000000E+03 0. -1.
         -6    1    1    2    0  502 -0.37808294709E+03  0.33832960604E+03  0.42033064843E+03  0.68119049554E+03  0.17300000000E+03 0. -1.
<mgrwt>
<rscale>  2 0.53604350E+03</rscale>
<asrwt>0</asrwt>
<pdfrwt beam="1">  1       21 0.12354980E+00 0.53604350E+03</pdfrwt>
<pdfrwt beam="2">  1       21 0.63867434E-01 0.53604350E+03</pdfrwt>
<totfact> 0.91169155E+02</totfact>
</mgrwt>
</event>
<event>
 4    1  0.3902417E-001  0.1926801E+03  0.7546771E-02  0.1156066E+00
         21   -1    0    0  501  502  0.00000000000E+00  0.00000000000E+00  0.94226503994E+03  0.94226503994E+03  0.00000000000E+00 0. -1.
         21   -1    0    0  502  503 -0.00000000000E+00 -0.00000000000E+00 -0.53885836212E+02  0.53885836212E+02  0.00000000000E+00 0.  1.
          6    1    1    2  501    0 -0.81454889123E+02 -0.23700710886E+02  0.70242962424E+03  0.72837696262E+03  0.17300000000E+03 0.  1.
         -6    1    1    2    0  503  0.81454889123E+02  0.23700710886E+02  0.18594957948E+03  0.26777391353E+03  0.17300000000E+03 0. -1.
<mgrwt>
<rscale>  2 0.19268010E+03</rscale>
<asrwt>0</asrwt>
<pdfrwt beam="1">  1       21 0.14496384E+00 0.19268010E+03</pdfrwt>
<pdfrwt beam="2">  1       21 0.82901294E-02 0.19268010E+03</pdfrwt>
<totfact> 0.36866269E+04</totfact>
</mgrwt>
</event>
<event>
 4    1  0.3902417E-001  0.1885200E+03  0.7546771E-02  0.1159803E+00
         21   -1    0    0  501  502  0.00000000000E+00  0.00000000000E+00  0.10891195701E+03  0.10891195701E+03  0.00000000000E+00 0.  1.
         21   -1    0    0  502  503 -0.00000000000E+00 -0.00000000000E+00 -0.33974600555E+03  0.33974600555E+03  0.00000000000E+00 0.  1.
          6    1    1    2  501    0  0.24283480416E+02 -0.70859747869E+02 -0.70817025110E+02  0.20138232875E+03  0.17300000000E+03 0.  1.
         -6    1    1    2    0  503 -0.24283480416E+02  0.70859747869E+02 -0.16001702343E+03  0.24727563381E+03  0.17300000000E+03 0.  1.
<mgrwt>
<rscale>  2 0.18852000E+03</rscale>
<asrwt>0</asrwt>
<pdfrwt beam="1">  1       21 0.16755686E-01 0.18852000E+03</pdfrwt>
<pdfrwt beam="2">  1       21 0.52268615E-01 0.18852000E+03</pdfrwt>
<totfact> 0.11142657E+05</totfact>
</mgrwt>
</event>
<event>
 4    1  0.3902417E-001  0.1770456E+03  0.7546771E-02  0.1170693E+00
         21   -1    0    0  501  502  0.00000000000E+00  0.00000000000E+00  0.28925876674E+03  0.28925876674E+03  0.00000000000E+00 0.  1.
         21   -1    0    0  502  503 -0.00000000000E+00 -0.00000000000E+00 -0.14775550707E+03  0.14775550707E+03  0.00000000000E+00 0.  1.
          6    1    1    2  501    0  0.13000984646E+02  0.35314815424E+02 -0.42071078223E+02  0.18197565060E+03  0.17300000000E+03 0.  1.
         -6    1    1    2    0  503 -0.13000984646E+02 -0.35314815424E+02  0.18357433790E+03  0.25503862320E+03  0.17300000000E+03 0.  1.
<mgrwt>
<rscale>  2 0.17704565E+03</rscale>
<asrwt>0</asrwt>
<pdfrwt beam="1">  1       21 0.44501349E-01 0.17704565E+03</pdfrwt>
<pdfrwt beam="2">  1       21 0.22731617E-01 0.17704565E+03</pdfrwt>
<totfact> 0.88526366E+04</totfact>
</mgrwt>
</event>
<event>
 4    1  0.3902417E-001  0.1744955E+03  0.7546771E-02  0.1173239E+00
         21   -1    0    0  501  502  0.00000000000E+00  0.00000000000E+00  0.48614536640E+03  0.48614536640E+03  0.00000000000E+00 0.  1.
         21   -1    0    0  502  503 -0.00000000000E+00 -0.00000000000E+00 -0.62632913368E+02  0.62632913368E+02  0.00000000000E+00 0.  1.
          6    1    1    2  501    0 -0.17202782139E+02 -0.14957788087E+02  0.21202621702E+03  0.27459750152E+03  0.17300000000E+03 0. -1.
         -6    1    1    2    0  503  0.17202782139E+02  0.14957788087E+02  0.21148623601E+03  0.27418077825E+03  0.17300000000E+03 0. -1.
<mgrwt>
<rscale>  2 0.17449548E+03</rscale>
<asrwt>0</asrwt>
<pdfrwt beam="1">  1       21 0.74791592E-01 0.17449548E+03</pdfrwt>
<pdfrwt beam="2">  1       21 0.96358332E-02 0.17449548E+03</pdfrwt>
<totfact> 0.13948757E+05</totfact>
</mgrwt>
</event>
<event>
 4    1  0.3902417E-001  0.2315726E+03  0.7546771E-02  0.1125538E+00
         21   -1    0    0  501  502  0.00000000000E+00  0.00000000000E+00  0.31278580600E+03  0.31278580600E+03  0.00000000000E+00 0. -1.
         21   -1    0    0  502  503 -0.00000000000E+00 -0.00000000000E+00 -0.21286595811E+03  0.21286595811E+03  0.00000000000E+00 0. -1.
          6    1    1    2  501    0  0.14888401994E+03  0.39120522311E+02  0.16589637342E+03  0.28486395591E+03  0.17300000000E+03 0. -1.
         -6    1    1    2    0  503 -0.14888401994E+03 -0.39120522311E+02 -0.65976525534E+02  0.24078780821E+03  0.17300000000E+03 0. -1.
<mgrwt>
<rscale>  2 0.23157259E+03</rscale>
<asrwt>0</asrwt>
<pdfrwt beam="1">  1       21 0.48120893E-01 0.23157259E+03</pdfrwt>
<pdfrwt beam="2">  1       21 0.32748609E-01 0.23157259E+03</pdfrwt>
<totfact> 0.36320316E+04</totfact>
</mgrwt>
</event>
<event>
 4    1  0.3902417E-001  0.2628720E+03  0.7546771E-02  0.1105430E+00
         21   -1    0    0  501  502  0.00000000000E+00  0.00000000000E+00  0.34014064773E+02  0.34014064773E+02  0.00000000000E+00 0. -1.
         21   -1    0    0  502  503 -0.00000000000E+00 -0.00000000000E+00 -0.21330389336E+04  0.21330389336E+04  0.00000000000E+00 0. -1.
          6    1    1    2  501    0 -0.27829658537E+02  0.19595458632E+03 -0.81318002140E+03  0.85461303348E+03  0.17300000000E+03 0. -1.
         -6    1    1    2    0  503  0.27829658537E+02 -0.19595458632E+03 -0.12858448474E+04  0.13124399649E+04  0.17300000000E+03 0. -1.
<mgrwt>
<rscale>  2 0.26287200E+03</rscale>
<asrwt>0</asrwt>
<pdfrwt beam="1">  1       21 0.52329330E-02 0.26287200E+03</pdfrwt>
<pdfrwt beam="2">  1       21 0.32815984E+00 0.26287200E+03</pdfrwt>
<totfact> 0.54329191E+03</totfact>
</mgrwt>
</event>
<event>
 4    1  0.3902417E-001  0.1773192E+03  0.7546771E-02  0.1170423E+00
         21   -1    0    0  503  502  0.00000000000E+00  0.00000000000E+00  0.97194026708E+02  0.97194026708E+02  0.00000000000E+00 0.  1.
         21   -1    0    0  501  503 -0.00000000000E+00 -0.00000000000E+00 -0.35241344892E+03  0.35241344892E+03  0.00000000000E+00 0.  1.
          6    1    1    2  501    0  0.36244531702E+02  0.14121512714E+02 -0.19200313119E+03  0.26135662530E+03  0.17300000000E+03 0.  1.
         -6    1    1    2    0  502 -0.36244531702E+02 -0.14121512714E+02 -0.63216291022E+02  0.18825085033E+03  0.17300000000E+03 0.  1.
<mgrwt>
<rscale>  2 0.17731916E+03</rscale>
<asrwt>0</asrwt>
<pdfrwt beam="1">  1       21 0.14952927E-01 0.17731916E+03</pdfrwt>
<pdfrwt beam="2">  1       21 0.54217453E-01 0.17731916E+03</pdfrwt>
<totfact> 0.12752906E+05</totfact>
</mgrwt>
</event>
<event>
 4    1  0.3902417E-001  0.1734037E+03  0.7546771E-02  0.1174344E+00
         21   -1    0    0  503  502  0.00000000000E+00  0.00000000000E+00  0.36687282881E+03  0.36687282881E+03  0.00000000000E+00 0.  1.
         21   -1    0    0  501  503 -0.00000000000E+00 -0.00000000000E+00 -0.82329151457E+02  0.82329151457E+02  0.00000000000E+00 0.  1.
          6    1    1    2  501    0  0.11822507825E+02 -0.28147128036E+00  0.12722964784E+03  0.21507262543E+03  0.17300000000E+03 0.  1.
         -6    1    1    2    0  502 -0.11822507825E+02  0.28147128036E+00  0.15731402951E+03  0.23412935484E+03  0.17300000000E+03 0.  1.
<mgrwt>
<rscale>  2 0.17340372E+03</rscale>
<asrwt>0</asrwt>
<pdfrwt beam="1">  1       21 0.56441973E-01 0.17340372E+03</pdfrwt>
<pdfrwt beam="2">  1       21 0.12666023E-01 0.17340372E+03</pdfrwt>
<totfact> 0.15826574E+05</totfact>
</mgrwt>
</event>
<event>
 4    1  0.3902417E-001  0.2124258E+03  0.7546771E-02  0.1139659E+00
         21   -1    0    0  503  502  0.00000000000E+00  0.00000000000E+00  0.12666450734E+03  0.12666450734E+03  0.00000000000E+00 0.  1.
         21   -1    0    0  501  503 -0.00000000000E+00 -0.00000000000E+00 -0.36334742781E+03  0.36334742781E+03  0.00000000000E+00 0.  1.
          6    1    1    2  501    0  0.11011050613E+03 -0.55420139299E+02 -0.15257477948E+03  0.26154116069E+03  0.17300000000E+03 0. -1.
         -6    1    1    2    0  502 -0.11011050613E+03  0.55420139299E+02 -0.84108140989E+02  0.22847077446E+03  0.17300000000E+03 0. -1.
<mgrwt>
<rscale>  2 0.21242579E+03</rscale>
<asrwt>0</asrwt>
<pdfrwt beam="1">  1       21 0.19486847E-01 0.21242579E+03</pdfrwt>
<pdfrwt beam="2">  1       21 0.55899604E-01 0.21242579E+03</pdfrwt>
<totfact> 0.72392424E+04</totfact>
</mgrwt>
</event>
<event>
 4    1  0.3902417E-001  0.2433941E+03  0.7546771E-02  0.1117552E+00
         21   -1    0    0  501  502  0.00000000000E+00  0.00000000000E+00  0.13227931089E+04  0.13227931089E+04  0.00000000000E+00 0. -1.
         21   -1    0    0  502  503 -0.00000000000E+00 -0.00000000000E+00 -0.76587207585E+02  0.76587207585E+02  0.00000000000E+00 0.  1.
          6    1    1    2  501    0 -0.32069824585E+02  0.16817619463E+03  0.10739812076E+04  0.11012158464E+04  0.17300000000E+03 0. -1.
         -6    1    1    2    0  503  0.32069824585E+02 -0.16817619463E+03  0.17222469369E+03  0.29816447006E+03  0.17300000000E+03 0. -1.
<mgrwt>
<rscale>  2 0.24339414E+03</rscale>
<asrwt>0</asrwt>
<pdfrwt beam="1">  1       21 0.20350661E+00 0.24339414E+03</pdfrwt>
<pdfrwt beam="2">  1       21 0.11782648E-01 0.24339414E+03</pdfrwt>
<totfact> 0.74218546E+03</totfact>
</mgrwt>
</event>
<event>
 4    1  0.3902417E-001  0.2524712E+03  0.7546771E-02  0.1111753E+00
         21   -1    0    0  503  502  0.00000000000E+00  0.00000000000E+00  0.97335499458E+03  0.97335499458E+03  0.00000000000E+00 0. -1.
         21   -1    0    0  501  503 -0.00000000000E+00 -0.00000000000E+00 -0.71357946011E+02  0.71357946011E+02  0.00000000000E+00 0.  1.
          6    1    1    2  501    0  0.10487602687E+03 -0.15104215198E+03  0.60083395232E+03  0.65172321651E+03  0.17300000000E+03 0. -1.
         -6    1    1    2    0  502 -0.10487602687E+03  0.15104215198E+03  0.30116309626E+03  0.39298972408E+03  0.17300000000E+03 0.  1.
<mgrwt>
<rscale>  2 0.25247121E+03</rscale>
<asrwt>0</asrwt>
<pdfrwt beam="1">  1       21 0.14974691E+00 0.25247121E+03</pdfrwt>
<pdfrwt beam="2">  1       21 0.10978146E-01 0.25247121E+03</pdfrwt>
<totfact> 0.19911204E+04</totfact>
</mgrwt>
</event>
<event>
 4    1  0.3902417E-001  0.1789876E+03  0.7546771E-02  0.1168786E+00
         21   -1    0    0  501  502  0.00000000000E+00  0.00000000000E+00  0.27917151206E+03  0.27917151206E+03  0.00000000000E+00 0.  1.
         21   -1    0    0  502  503 -0.00000000000E+00 -0.00000000000E+00 -0.14150303711E+03  0.14150303711E+03  0.00000000000E+00 0.  1.
          6    1    1    2  501    0  0.39641554965E+02 -0.23153719576E+02  0.16028196145E+03  0.24026413543E+03  0.17300000000E+03 0.  1.
         -6    1    1    2    0  503 -0.39641554965E+02  0.23153719576E+02 -0.22613486500E+02  0.18041041373E+03  0.17300000000E+03 0.  1.
<mgrwt>
<rscale>  2 0.17898756E+03</rscale>
<asrwt>0</asrwt>
<pdfrwt beam="1">  1       21 0.42949463E-01 0.17898756E+03</pdfrwt>
<pdfrwt beam="2">  1       21 0.21769698E-01 0.17898756E+03</pdfrwt>
<totfact> 0.10317355E+05</totfact>
</mgrwt>
</event>
<event>
 4    1  0.3902417E-001  0.3241053E+03  0.7546771E-02  0.1073775E+00
         21   -1    0    0  503  502  0.00000000000E+00  0.00000000000E+00  0.37716343914E+03  0.37716343914E+03  0.00000000000E+00 0. -1.
         21   -1    0    0  501  503 -0.00000000000E+00 -0.00000000000E+00 -0.30061562189E+03  0.30061562189E+03  0.00000000000E+00 0. -1.
          6    1    1    2  501    0 -0.24608102330E+03 -0.12066214906E+03 -0.53621205852E+02  0.32851097084E+03  0.17300000000E+03 0. -1.
         -6    1    1    2    0  502  0.24608102330E+03  0.12066214906E+03  0.13016902310E+03  0.34926809018E+03  0.17300000000E+03 0. -1.
<mgrwt>
<rscale>  2 0.32410527E+03</rscale>
<asrwt>0</asrwt>
<pdfrwt beam="1">  1       21 0.58025145E-01 0.32410527E+03</pdfrwt>
<pdfrwt beam="2">  1       21 0.46248557E-01 0.32410527E+03</pdfrwt>
<totfact> 0.11640244E+04</totfact>
</mgrwt>
</event>
<event>
 4    1  0.3902417E-001  0.1940367E+03  0.7546771E-02  0.1154870E+00
         21   -1    0    0  503  502  0.00000000000E+00  0.00000000000E+00  0.77210811306E+03  0.77210811306E+03  0.00000000000E+00 0.  1.
         21   -1    0    0  501  503 -0.00000000000E+00 -0.00000000000E+00 -0.71877549427E+02  0.71877549427E+02  0.00000000000E+00 0. -1.
          6    1    1    2  501    0 -0.65080872716E+02 -0.59039859700E+02  0.11081006465E+03  0.22344819412E+03  0.17300000000E+03 0. -1.
         -6    1    1    2    0  502  0.65080872716E+02  0.59039859700E+02  0.58942049898E+03  0.62053746837E+03  0.17300000000E+03 0.  1.
<mgrwt>
<rscale>  2 0.19403666E+03</rscale>
<asrwt>0</asrwt>
<pdfrwt beam="1">  1       21 0.11878586E+00 0.19403666E+03</pdfrwt>
<pdfrwt beam="2">  1       21 0.11058085E-01 0.19403666E+03</pdfrwt>
<totfact> 0.36742803E+04</totfact>
</mgrwt>
</event>
<event>
 4    1  0.3902417E-001  0.1838581E+03  0.7546771E-02  0.1164121E+00
         21   -1    0    0  501  502  0.00000000000E+00  0.00000000000E+00  0.79128038828E+03  0.79128038828E+03  0.00000000000E+00 0. -1.
         21   -1    0    0  502  503 -0.00000000000E+00 -0.00000000000E+00 -0.79357798946E+02  0.79357798946E+02  0.00000000000E+00 0. -1.
          6    1    1    2  501    0 -0.51650809276E+01 -0.62033201996E+02  0.65174576245E+03  0.67718264529E+03  0.17300000000E+03 0. -1.
         -6    1    1    2    0  503  0.51650809276E+01  0.62033201996E+02  0.60176826881E+02  0.19345554193E+03  0.17300000000E+03 0. -1.
<mgrwt>
<rscale>  2 0.18385809E+03</rscale>
<asrwt>0</asrwt>
<pdfrwt beam="1">  1       21 0.12173544E+00 0.18385809E+03</pdfrwt>
<pdfrwt beam="2">  1       21 0.12208893E-01 0.18385809E+03</pdfrwt>
<totfact> 0.29144304E+04</totfact>
</mgrwt>
</event>
<event>
 4    1  0.3902417E-001  0.1982347E+03  0.7546771E-02  0.1151237E+00
         21   -1    0    0  501  502  0.00000000000E+00  0.00000000000E+00  0.43641237043E+03  0.43641237043E+03  0.00000000000E+00 0.  1.
         21   -1    0    0  502  503 -0.00000000000E+00 -0.00000000000E+00 -0.13174372051E+03  0.13174372051E+03  0.00000000000E+00 0.  1.
          6    1    1    2  501    0  0.56203933032E+02  0.78797833275E+02  0.31215440528E+03  0.36978014191E+03  0.17300000000E+03 0.  1.
         -6    1    1    2    0  503 -0.56203933032E+02 -0.78797833275E+02 -0.74857553647E+01  0.19837594902E+03  0.17300000000E+03 0.  1.
<mgrwt>
<rscale>  2 0.19823466E+03</rscale>
<asrwt>0</asrwt>
<pdfrwt beam="1">  1       21 0.67140364E-01 0.19823466E+03</pdfrwt>
<pdfrwt beam="2">  1       21 0.20268265E-01 0.19823466E+03</pdfrwt>
<totfact> 0.45593564E+04</totfact>
</mgrwt>
</event>
<event>
 4    1  0.3902417E-001  0.1784732E+03  0.7546771E-02  0.1169289E+00
         21   -1    0    0  503  502  0.00000000000E+00  0.00000000000E+00  0.33497795144E+03  0.33497795144E+03  0.00000000000E+00 0. -1.
         21   -1    0    0  501  503 -0.00000000000E+00 -0.00000000000E+00 -0.10005524898E+03  0.10005524898E+03  0.00000000000E+00 0.  1.
          6    1    1    2  501    0 -0.85917837916E+01  0.43009894029E+02  0.69000273520E+02  0.19134708641E+03  0.17300000000E+03 0.  1.
         -6    1    1    2    0  502  0.85917837916E+01 -0.43009894029E+02  0.16592242894E+03  0.24368611401E+03  0.17300000000E+03 0.  1.
<mgrwt>
<rscale>  2 0.17847316E+03</rscale>
<asrwt>0</asrwt>
<pdfrwt beam="1">  1       21 0.51535069E-01 0.17847316E+03</pdfrwt>
<pdfrwt beam="2">  1       21 0.15393115E-01 0.17847316E+03</pdfrwt>
<totfact> 0.13450857E+05</totfact>
</mgrwt>
</event>
<event>
 4    1  0.3902417E-001  0.2201023E+03  0.7546771E-02  0.1133807E+00
         21   -1    0    0  503  502  0.00000000000E+00  0.00000000000E+00  0.14055585942E+03  0.14055585942E+03  0.00000000000E+00 0. -1.
         21   -1    0    0  501  503 -0.00000000000E+00 -0.00000000000E+00 -0.35994569534E+03  0.35994569534E+03  0.00000000000E+00 0. -1.
          6    1    1    2  501    0 -0.12504598688E+03  0.53661044649E+02 -0.16125291285E+03  0.27285070726E+03  0.17300000000E+03 0. -1.
         -6    1    1    2    0  502  0.12504598688E+03 -0.53661044649E+02 -0.58136923066E+02  0.22765084751E+03  0.17300000000E+03 0. -1.
<mgrwt>
<rscale>  2 0.22010226E+03</rscale>
<asrwt>0</asrwt>
<pdfrwt beam="1">  1       21 0.21623978E-01 0.22010226E+03</pdfrwt>
<pdfrwt beam="2">  1       21 0.55376261E-01 0.22010226E+03</pdfrwt>
<totfact> 0.60547344E+04</totfact>
</mgrwt>
</event>
<event>
 4    1  0.3902417E-001  0.1883701E+03  0.7546771E-02  0.1159940E+00
         21   -1    0    0  501  502  0.00000000000E+00  0.00000000000E+00  0.24993942249E+03  0.24993942249E+03  0.00000000000E+00 0. -1.
         21   -1    0    0  502  503 -0.00000000000E+00 -0.00000000000E+00 -0.14430640441E+03  0.14430640441E+03  0.00000000000E+00 0. -1.
          6    1    1    2  501    0 -0.71510251958E+02 -0.20989542784E+02  0.77912235424E+02  0.20384698543E+03  0.17300000000E+03 0.  1.
         -6    1    1    2    0  503  0.71510251958E+02  0.20989542784E+02  0.27720782650E+02  0.19039884147E+03  0.17300000000E+03 0.  1.
<mgrwt>
<rscale>  2 0.18837005E+03</rscale>
<asrwt>0</asrwt>
<pdfrwt beam="1">  1       21 0.38452219E-01 0.18837005E+03</pdfrwt>
<pdfrwt beam="2">  1       21 0.22200985E-01 0.18837005E+03</pdfrwt>
<totfact> 0.12393769E+05</totfact>
</mgrwt>
</event>
<event>
 4    1  0.3902417E-001  0.1754496E+03  0.7546771E-02  0.1172281E+00
         21   -1    0    0  503  502  0.00000000000E+00  0.00000000000E+00  0.49925602570E+03  0.49925602570E+03  0.00000000000E+00 0.  1.
         21   -1    0    0  501  503 -0.00000000000E+00 -0.00000000000E+00 -0.69285064552E+02  0.69285064552E+02  0.00000000000E+00 0.  1.
          6    1    1    2  501    0  0.29128819459E+02 -0.22520242580E+01  0.12066127292E+03  0.21293591177E+03  0.17300000000E+03 0.  1.
         -6    1    1    2    0  502 -0.29128819459E+02  0.22520242580E+01  0.30930968823E+03  0.35560517849E+03  0.17300000000E+03 0.  1.
<mgrwt>
<rscale>  2 0.17544959E+03</rscale>
<asrwt>0</asrwt>
<pdfrwt beam="1">  1       21 0.76808617E-01 0.17544959E+03</pdfrwt>
<pdfrwt beam="2">  1       21 0.10659241E-01 0.17544959E+03</pdfrwt>
<totfact> 0.10996567E+05</totfact>
</mgrwt>
</event>
<event>
 4    1  0.3902417E-001  0.1754345E+03  0.7546771E-02  0.1172296E+00
         21   -1    0    0  503  502  0.00000000000E+00  0.00000000000E+00  0.60709705210E+03  0.60709705210E+03  0.00000000000E+00 0.  1.
         21   -1    0    0  501  503 -0.00000000000E+00 -0.00000000000E+00 -0.50695945664E+02  0.50695945664E+02  0.00000000000E+00 0.  1.
          6    1    1    2  501    0 -0.15840509431E+01  0.29081844728E+02  0.27761891041E+03  0.32840451022E+03  0.17300000000E+03 0.  1.
         -6    1    1    2    0  502  0.15840509431E+01 -0.29081844728E+02  0.27878219602E+03  0.32938848754E+03  0.17300000000E+03 0.  1.
<mgrwt>
<rscale>  2 0.17543450E+03</rscale>
<asrwt>0</asrwt>
<pdfrwt beam="1">  1       21 0.93399541E-01 0.17543450E+03</pdfrwt>
<pdfrwt beam="2">  1       21 0.77993767E-02 0.17543450E+03</pdfrwt>
<totfact> 0.12169149E+05</totfact>
</mgrwt>
</event>
<event>
 4    1  0.3902417E-001  0.1794146E+03  0.7546771E-02  0.1168371E+00
         21   -1    0    0  503  502  0.00000000000E+00  0.00000000000E+00  0.40019184746E+02  0.40019184746E+02  0.00000000000E+00 0. -1.
         21   -1    0    0  501  503 -0.00000000000E+00 -0.00000000000E+00 -0.10018539687E+04  0.10018539687E+04  0.00000000000E+00 0. -1.
          6    1    1    2  501    0  0.22393866316E+02 -0.41941684343E+02 -0.71221236219E+03  0.73446309573E+03  0.17300000000E+03 0. -1.
         -6    1    1    2    0  502 -0.22393866316E+02  0.41941684343E+02 -0.24962242173E+03  0.30741005769E+03  0.17300000000E+03 0. -1.
<mgrwt>
<rscale>  2 0.17941458E+03</rscale>
<asrwt>0</asrwt>
<pdfrwt beam="1">  1       21 0.61567975E-02 0.17941458E+03</pdfrwt>
<pdfrwt beam="2">  1       21 0.15413138E+00 0.17941458E+03</pdfrwt>
<totfact> 0.52875633E+04</totfact>
</mgrwt>
</event>
<event>
 4    1  0.3902417E-001  0.1756845E+03  0.7546771E-02  0.1172046E+00
         21   -1    0    0  501  502  0.00000000000E+00  0.00000000000E+00  0.14976019575E+03  0.14976019575E+03  0.00000000000E+00 0. -1.
         21   -1    0    0  502  503 -0.00000000000E+00 -0.00000000000E+00 -0.22312279141E+03  0.22312279141E+03  0.00000000000E+00 0. -1.
          6    1    1    2  501    0 -0.16649177864E+01  0.30549296850E+02  0.14821687050E+02  0.17630857579E+03  0.17300000000E+03 0. -1.
         -6    1    1    2    0  503  0.16649177864E+01 -0.30549296850E+02 -0.88184282706E+02  0.19657441137E+03  0.17300000000E+03 0. -1.
<mgrwt>
<rscale>  2 0.17568447E+03</rscale>
<asrwt>0</asrwt>
<pdfrwt beam="1">  1       21 0.23040030E-01 0.17568447E+03</pdfrwt>
<pdfrwt beam="2">  1       21 0.34326583E-01 0.17568447E+03</pdfrwt>
<totfact> 0.14548378E+05</totfact>
</mgrwt>
</event>
<event>
 4    1  0.3902417E-001  0.1776746E+03  0.7546771E-02  0.1170073E+00
         21   -1    0    0  503  502  0.00000000000E+00  0.00000000000E+00  0.62588890189E+03  0.62588890189E+03  0.00000000000E+00 0. -1.
         21   -1    0    0  501  503 -0.00000000000E+00 -0.00000000000E+00 -0.53886501804E+02  0.53886501804E+02  0.00000000000E+00 0. -1.
          6    1    1    2  501    0  0.20831127378E+02  0.34717999064E+02  0.37198997861E+03  0.41224364096E+03  0.17300000000E+03 0. -1.
         -6    1    1    2    0  502 -0.20831127378E+02 -0.34717999064E+02  0.20001242148E+03  0.26753176273E+03  0.17300000000E+03 0. -1.
<mgrwt>
<rscale>  2 0.17767463E+03</rscale>
<asrwt>0</asrwt>
<pdfrwt beam="1">  1       21 0.96290595E-01 0.17767463E+03</pdfrwt>
<pdfrwt beam="2">  1       21 0.82902315E-02 0.17767463E+03</pdfrwt>
<totfact> 0.10183588E+05</totfact>
</mgrwt>
</event>
<event>
 4    1  0.3902417E-001  0.1746516E+03  0.7546771E-02  0.1173082E+00
         21   -1    0    0  501  502  0.00000000000E+00  0.00000000000E+00  0.27092795992E+03  0.27092795992E+03  0.00000000000E+00 0.  1.
         21   -1    0    0  502  503 -0.00000000000E+00 -0.00000000000E+00 -0.26757546886E+03  0.26757546886E+03  0.00000000000E+00 0.  1.
          6    1    1    2  501    0 -0.23915609072E+02 -0.14940228055E+01  0.20659602242E+03  0.27052745691E+03  0.17300000000E+03 0.  1.
         -6    1    1    2    0  503  0.23915609072E+02  0.14940228055E+01 -0.20324353136E+03  0.26797597187E+03  0.17300000000E+03 0.  1.
<mgrwt>
<rscale>  2 0.17465162E+03</rscale>
<asrwt>0</asrwt>
<pdfrwt beam="1">  1       21 0.41681225E-01 0.17465162E+03</pdfrwt>
<pdfrwt beam="2">  1       21 0.41165457E-01 0.17465162E+03</pdfrwt>
<totfact> 0.31799800E+04</totfact>
</mgrwt>
</event>
<event>
 4    1  0.3902417E-001  0.2404447E+03  0.7546771E-02  0.1119497E+00
         21   -1    0    0  503  502  0.00000000000E+00  0.00000000000E+00  0.73051356134E+03  0.73051356134E+03  0.00000000000E+00 0.  1.
         21   -1    0    0  501  503 -0.00000000000E+00 -0.00000000000E+00 -0.97067052001E+02  0.97067052001E+02  0.00000000000E+00 0. -1.
          6    1    1    2  501    0 -0.12484925102E+03 -0.11089324964E+03  0.49454525149E+03  0.54989876710E+03  0.17300000000E+03 0.  1.
         -6    1    1    2    0  502  0.12484925102E+03  0.11089324964E+03  0.13890125785E+03  0.27768184623E+03  0.17300000000E+03 0. -1.
<mgrwt>
<rscale>  2 0.24044469E+03</rscale>
<asrwt>0</asrwt>
<pdfrwt beam="1">  1       21 0.11238670E+00 0.24044469E+03</pdfrwt>
<pdfrwt beam="2">  1       21 0.14933393E-01 0.24044469E+03</pdfrwt>
<totfact> 0.23864043E+04</totfact>
</mgrwt>
</event>
<event>
 4    1  0.3902417E-001  0.2107625E+03  0.7546771E-02  0.1140964E+00
         21   -1    0    0  501  502  0.00000000000E+00  0.00000000000E+00  0.31260604168E+02  0.31260604168E+02  0.00000000000E+00 0. -1.
         21   -1    0    0  502  503 -0.00000000000E+00 -0.00000000000E+00 -0.15958484024E+04  0.15958484024E+04  0.00000000000E+00 0.  1.
          6    1    1    2  501    0  0.12220665372E+02  0.11976005856E+03 -0.51299063157E+03  0.55459913845E+03  0.17300000000E+03 0. -1.
         -6    1    1    2    0  503 -0.12220665372E+02 -0.11976005856E+03 -0.10515971667E+04  0.10725098681E+04  0.17300000000E+03 0.  1.
<mgrwt>
<rscale>  2 0.21076246E+03</rscale>
<asrwt>0</asrwt>
<pdfrwt beam="1">  1       21 0.48093239E-02 0.21076246E+03</pdfrwt>
<pdfrwt beam="2">  1       21 0.24551513E+00 0.21076246E+03</pdfrwt>
<totfact> 0.19995768E+04</totfact>
</mgrwt>
</event>
<event>
 4    1  0.3902417E-001  0.1757779E+03  0.7546771E-02  0.1171953E+00
         21   -1    0    0  501  502  0.00000000000E+00  0.00000000000E+00  0.35921774598E+02  0.35921774598E+02  0.00000000000E+00 0. -1.
         21   -1    0    0  502  503 -0.00000000000E+00 -0.00000000000E+00 -0.86376666065E+03  0.86376666065E+03  0.00000000000E+00 0. -1.
          6    1    1    2  501    0 -0.26741274389E+02 -0.15930314876E+02 -0.38478678678E+03  0.42303515453E+03  0.17300000000E+03 0. -1.
         -6    1    1    2    0  503  0.26741274389E+02  0.15930314876E+02 -0.44305809927E+03  0.47665328072E+03  0.17300000000E+03 0. -1.
<mgrwt>
<rscale>  2 0.17577790E+03</rscale>
<asrwt>0</asrwt>
<pdfrwt beam="1">  1       21 0.55264269E-02 0.17577790E+03</pdfrwt>
<pdfrwt beam="2">  1       21 0.13288718E+00 0.17577790E+03</pdfrwt>
<totfact> 0.93505661E+04</totfact>
</mgrwt>
</event>
<event>
 4    1  0.3902417E-001  0.2539238E+03  0.7546771E-02  0.1110850E+00
         21   -1    0    0  501  502  0.00000000000E+00  0.00000000000E+00  0.12609386043E+03  0.12609386043E+03  0.00000000000E+00 0. -1.
         21   -1    0    0  502  503 -0.00000000000E+00 -0.00000000000E+00 -0.52850469889E+03  0.52850469889E+03  0.00000000000E+00 0. -1.
          6    1    1    2  501    0  0.11923890764E+03  0.14258454944E+03 -0.26018408526E+03  0.36355608791E+03  0.17300000000E+03 0. -1.
         -6    1    1    2    0  503 -0.11923890764E+03 -0.14258454944E+03 -0.14222675320E+03  0.29104247140E+03  0.17300000000E+03 0. -1.
<mgrwt>
<rscale>  2 0.25392375E+03</rscale>
<asrwt>0</asrwt>
<pdfrwt beam="1">  1       21 0.19399056E-01 0.25392375E+03</pdfrwt>
<pdfrwt beam="2">  1       21 0.81308414E-01 0.25392375E+03</pdfrwt>
<totfact> 0.31415863E+04</totfact>
</mgrwt>
</event>
<event>
 4    1  0.3902417E-001  0.2902370E+03  0.7546771E-02  0.1090225E+00
         21   -1    0    0  501  502  0.00000000000E+00  0.00000000000E+00  0.23930611959E+02  0.23930611959E+02  0.00000000000E+00 0. -1.
         21   -1    0    0  502  503 -0.00000000000E+00 -0.00000000000E+00 -0.37330075293E+04  0.37330075293E+04  0.00000000000E+00 0.  1.
          6    1    1    2  501    0  0.22739113883E+03 -0.51007751225E+02 -0.14058996658E+04  0.14355456771E+04  0.17300000000E+03 0. -1.
         -6    1    1    2    0  503 -0.22739113883E+03  0.51007751225E+02 -0.23031772515E+04  0.23213924642E+04  0.17300000000E+03 0.  1.
<mgrwt>
<rscale>  2 0.29023701E+03</rscale>
<asrwt>0</asrwt>
<pdfrwt beam="1">  1       21 0.36816298E-02 0.29023701E+03</pdfrwt>
<pdfrwt beam="2">  1       21 0.57430929E+00 0.29023701E+03</pdfrwt>
<totfact> 0.21254942E+02</totfact>
</mgrwt>
</event>
<event>
 4    1  0.3902417E-001  0.1962478E+03  0.7546771E-02  0.1152944E+00
         21   -1    0    0  503  502  0.00000000000E+00  0.00000000000E+00  0.12874251524E+04  0.12874251524E+04  0.00000000000E+00 0.  1.
         21   -1    0    0  501  503 -0.00000000000E+00 -0.00000000000E+00 -0.34686098778E+02  0.34686098778E+02  0.00000000000E+00 0.  1.
          6    1    1    2  501    0  0.10329372738E+02  0.92073319994E+02  0.38119569161E+03  0.42874625071E+03  0.17300000000E+03 0.  1.
         -6    1    1    2    0  502 -0.10329372738E+02 -0.92073319994E+02  0.87154336202E+03  0.89336500048E+03  0.17300000000E+03 0.  1.
<mgrwt>
<rscale>  2 0.19624778E+03</rscale>
<asrwt>0</asrwt>
<pdfrwt beam="1">  1       21 0.19806537E+00 0.19624778E+03</pdfrwt>
<pdfrwt beam="2">  1       21 0.53363239E-02 0.19624778E+03</pdfrwt>
<totfact> 0.33194041E+04</totfact>
</mgrwt>
</event>
<event>
 4    1  0.3902417E-001  0.1754531E+03  0.7546771E-02  0.1172278E+00
         21   -1    0    0  503  502  0.00000000000E+00  0.00000000000E+00  0.27874438649E+03  0.27874438649E+03  0.00000000000E+00 0. -1.
         21   -1    0    0  501  503 -0.00000000000E+00 -0.00000000000E+00 -0.11521958033E+03  0.11521958033E+03  0.00000000000E+00 0. -1.
          6    1    1    2  501    0  0.25565642487E+02 -0.14183473202E+02  0.41631253446E+02  0.18032452482E+03  0.17300000000E+03 0. -1.
         -6    1    1    2    0  502 -0.25565642487E+02  0.14183473202E+02  0.12189355271E+03  0.21363944200E+03  0.17300000000E+03 0. -1.
<mgrwt>
<rscale>  2 0.17545305E+03</rscale>
<asrwt>0</asrwt>
<pdfrwt beam="1">  1       21 0.42883752E-01 0.17545305E+03</pdfrwt>
<pdfrwt beam="2">  1       21 0.17726089E-01 0.17545305E+03</pdfrwt>
<totfact> 0.15188949E+05</totfact>
</mgrwt>
</event>
<event>
 4    1  0.3902417E-001  0.1750788E+03  0.7546771E-02  0.1172653E+00
         21   -1    0    0  503  502  0.00000000000E+00  0.00000000000E+00  0.51784861473E+02  0.51784861473E+02  0.00000000000E+00 0. -1.
         21   -1    0    0  501  503 -0.00000000000E+00 -0.00000000000E+00 -0.76501205108E+03  0.76501205108E+03  0.00000000000E+00 0. -1.
          6    1    1    2  501    0  0.17677684253E+02 -0.20275310498E+02 -0.55087487646E+03  0.57802743728E+03  0.17300000000E+03 0. -1.
         -6    1    1    2    0  502 -0.17677684253E+02  0.20275310498E+02 -0.16235231314E+03  0.23876947527E+03  0.17300000000E+03 0. -1.
<mgrwt>
<rscale>  2 0.17507881E+03</rscale>
<asrwt>0</asrwt>
<pdfrwt beam="1">  1       21 0.79669015E-02 0.17507881E+03</pdfrwt>
<pdfrwt beam="2">  1       21 0.11769417E+00 0.17507881E+03</pdfrwt>
<totfact> 0.67535956E+04</totfact>
</mgrwt>
</event>
<event>
 4    1  0.3902417E-001  0.1782606E+03  0.7546771E-02  0.1169497E+00
         21   -1    0    0  503  502  0.00000000000E+00  0.00000000000E+00  0.54000551345E+03  0.54000551345E+03  0.00000000000E+00 0.  1.
         21   -1    0    0  501  503 -0.00000000000E+00 -0.00000000000E+00 -0.58913740117E+02  0.58913740117E+02  0.00000000000E+00 0. -1.
          6    1    1    2  501    0  0.37389916131E+02 -0.21209404198E+02  0.23034722828E+03  0.29126738614E+03  0.17300000000E+03 0. -1.
         -6    1    1    2    0  502 -0.37389916131E+02  0.21209404198E+02  0.25074454506E+03  0.30765186742E+03  0.17300000000E+03 0.  1.
<mgrwt>
<rscale>  2 0.17826061E+03</rscale>
<asrwt>0</asrwt>
<pdfrwt beam="1">  1       21 0.83077768E-01 0.17826061E+03</pdfrwt>
<pdfrwt beam="2">  1       21 0.90636527E-02 0.17826061E+03</pdfrwt>
<totfact> 0.12245942E+05</totfact>
</mgrwt>
</event>
<event>
 4    1  0.3902417E-001  0.1852269E+03  0.7546771E-02  0.1162838E+00
         21   -1    0    0  503  502  0.00000000000E+00  0.00000000000E+00  0.95459218616E+02  0.95459218616E+02  0.00000000000E+00 0. -1.
         21   -1    0    0  501  503 -0.00000000000E+00 -0.00000000000E+00 -0.41225540025E+03  0.41225540025E+03  0.00000000000E+00 0. -1.
          6    1    1    2  501    0 -0.17118380309E+02 -0.63929378232E+02 -0.24928677342E+03  0.31056867155E+03  0.17300000000E+03 0.  1.
         -6    1    1    2    0  502  0.17118380309E+02  0.63929378232E+02 -0.67509408212E+02  0.19714594731E+03  0.17300000000E+03 0.  1.
<mgrwt>
<rscale>  2 0.18522690E+03</rscale>
<asrwt>0</asrwt>
<pdfrwt beam="1">  1       21 0.14686034E-01 0.18522690E+03</pdfrwt>
<pdfrwt beam="2">  1       21 0.63423907E-01 0.18522690E+03</pdfrwt>
<totfact> 0.93989948E+04</totfact>
</mgrwt>
</event>
<event>
 4    1  0.3902417E-001  0.1803721E+03  0.7546771E-02  0.1167443E+00
         21   -1    0    0  501  502  0.00000000000E+00  0.00000000000E+00  0.57995044235E+02  0.57995044235E+02  0.00000000000E+00 0.  1.
         21   -1    0    0  502  503 -0.00000000000E+00 -0.00000000000E+00 -0.69850532660E+03  0.69850532660E+03  0.00000000000E+00 0. -1.
          6    1    1    2  501    0  0.90575804481E+01  0.50229959588E+02 -0.15241924578E+03  0.23614765526E+03  0.17300000000E+03 0.  1.
         -6    1    1    2    0  503 -0.90575804481E+01 -0.50229959588E+02 -0.48809103659E+03  0.52035271557E+03  0.17300000000E+03 0. -1.
<mgrwt>
<rscale>  2 0.18037208E+03</rscale>
<asrwt>0</asrwt>
<pdfrwt beam="1">  1       21 0.89223151E-02 0.18037208E+03</pdfrwt>
<pdfrwt beam="2">  1       21 0.10746235E+00 0.18037208E+03</pdfrwt>
<totfact> 0.68923882E+04</totfact>
</mgrwt>
</event>
<event>
 4    1  0.3902417E-001  0.2106765E+03  0.7546771E-02  0.1141031E+00
         21   -1    0    0  501  502  0.00000000000E+00  0.00000000000E+00  0.24823930970E+02  0.24823930970E+02  0.00000000000E+00 0. -1.
         21   -1    0    0  502  503 -0.00000000000E+00 -0.00000000000E+00 -0.17946404479E+04  0.17946404479E+04  0.00000000000E+00 0. -1.
          6    1    1    2  501    0 -0.85773874025E+02 -0.84252256466E+02 -0.94034494101E+03  0.96365616704E+03  0.17300000000E+03 0. -1.
         -6    1    1    2    0  503  0.85773874025E+02  0.84252256466E+02 -0.82947157595E+03  0.85580821186E+03  0.17300000000E+03 0. -1.
<mgrwt>
<rscale>  2 0.21067653E+03</rscale>
<asrwt>0</asrwt>
<pdfrwt beam="1">  1       21 0.38190654E-02 0.21067653E+03</pdfrwt>
<pdfrwt beam="2">  1       21 0.27609860E+00 0.21067653E+03</pdfrwt>
<totfact> 0.19522182E+04</totfact>
</mgrwt>
</event>
<event>
 4    1  0.3902417E-001  0.1794094E+03  0.7546771E-02  0.1168376E+00
         21   -1    0    0  503  502  0.00000000000E+00  0.00000000000E+00  0.49746829795E+03  0.49746829795E+03  0.00000000000E+00 0. -1.
         21   -1    0    0  501  503 -0.00000000000E+00 -0.00000000000E+00 -0.11636563264E+03  0.11636563264E+03  0.00000000000E+00 0. -1.
          6    1    1    2  501    0  0.46121060562E+02 -0.11471503331E+02 -0.13950082911E+02  0.17995097229E+03  0.17300000000E+03 0. -1.
         -6    1    1    2    0  502 -0.46121060562E+02  0.11471503331E+02  0.39505274822E+03  0.43388295829E+03  0.17300000000E+03 0. -1.
<mgrwt>
<rscale>  2 0.17940944E+03</rscale>
<asrwt>0</asrwt>
<pdfrwt beam="1">  1       21 0.76533583E-01 0.17940944E+03</pdfrwt>
<pdfrwt beam="2">  1       21 0.17902405E-01 0.17940944E+03</pdfrwt>
<totfact> 0.43380002E+04</totfact>
</mgrwt>
</event>
<event>
 4    1  0.3902417E-001  0.3782696E+03  0.7546771E-02  0.1051575E+00
         21   -1    0    0  503  502  0.00000000000E+00  0.00000000000E+00  0.76091040961E+03  0.76091040961E+03  0.00000000000E+00 0. -1.
         21   -1    0    0  501  503 -0.00000000000E+00 -0.00000000000E+00 -0.19639413042E+03  0.19639413042E+03  0.00000000000E+00 0. -1.
          6    1    1    2  501    0  0.83535475570E+02 -0.32585378032E+03  0.18358651899E+03  0.42046625522E+03  0.17300000000E+03 0. -1.
         -6    1    1    2    0  502 -0.83535475570E+02  0.32585378032E+03  0.38092976020E+03  0.53683828480E+03  0.17300000000E+03 0. -1.
<mgrwt>
<rscale>  2 0.37826956E+03</rscale>
<asrwt>0</asrwt>
<pdfrwt beam="1">  1       21 0.11706314E+00 0.37826956E+03</pdfrwt>
<pdfrwt beam="2">  1       21 0.30214482E-01 0.37826956E+03</pdfrwt>
<totfact> 0.53119904E+03</totfact>
</mgrwt>
</event>
<event>
 4    1  0.3902417E-001  0.3095197E+03  0.7546771E-02  0.1080576E+00
         21   -1    0    0  503  502  0.00000000000E+00  0.00000000000E+00  0.40071591872E+03  0.40071591872E+03  0.00000000000E+00 0.  1.
         21   -1    0    0  501  503 -0.00000000000E+00 -0.00000000000E+00 -0.26599458122E+03  0.26599458122E+03  0.00000000000E+00 0. -1.
          6    1    1    2  501    0 -0.15186061097E+03 -0.20691007931E+03 -0.38681727067E+02  0.31192739876E+03  0.17300000000E+03 0. -1.
         -6    1    1    2    0  502  0.15186061097E+03  0.20691007931E+03  0.17340306457E+03  0.35478310119E+03  0.17300000000E+03 0.  1.
<mgrwt>
<rscale>  2 0.30951967E+03</rscale>
<asrwt>0</asrwt>
<pdfrwt beam="1">  1       21 0.61648603E-01 0.30951967E+03</pdfrwt>
<pdfrwt beam="2">  1       21 0.40922244E-01 0.30951967E+03</pdfrwt>
<totfact> 0.13223033E+04</totfact>
</mgrwt>
</event>
<event>
 4    1  0.3902417E-001  0.1765774E+03  0.7546771E-02  0.1171157E+00
         21   -1    0    0  501  502  0.00000000000E+00  0.00000000000E+00  0.13210126831E+03  0.13210126831E+03  0.00000000000E+00 0.  1.
         21   -1    0    0  502  503 -0.00000000000E+00 -0.00000000000E+00 -0.33079851919E+03  0.33079851919E+03  0.00000000000E+00 0.  1.
          6    1    1    2  501    0  0.30296792900E+02 -0.18239176169E+02  0.24534582681E+02  0.17827369115E+03  0.17300000000E+03 0.  1.
         -6    1    1    2    0  503 -0.30296792900E+02  0.18239176169E+02 -0.22323183356E+03  0.28462609635E+03  0.17300000000E+03 0.  1.
<mgrwt>
<rscale>  2 0.17657736E+03</rscale>
<asrwt>0</asrwt>
<pdfrwt beam="1">  1       21 0.20323272E-01 0.17657736E+03</pdfrwt>
<pdfrwt beam="2">  1       21 0.50892079E-01 0.17657736E+03</pdfrwt>
<totfact> 0.82804741E+04</totfact>
</mgrwt>
</event>
<event>
 4    1  0.3902417E-001  0.1844626E+03  0.7546771E-02  0.1163553E+00
         21   -1    0    0  503  502  0.00000000000E+00  0.00000000000E+00  0.10927691111E+03  0.10927691111E+03  0.00000000000E+00 0.  1.
         21   -1    0    0  501  503 -0.00000000000E+00 -0.00000000000E+00 -0.31221487888E+03  0.31221487888E+03  0.00000000000E+00 0.  1.
          6    1    1    2  501    0 -0.16542372380E+02  0.61836839680E+02 -0.11237883920E+03  0.21599872297E+03  0.17300000000E+03 0.  1.
         -6    1    1    2    0  502  0.16542372380E+02 -0.61836839680E+02 -0.90559128562E+02  0.20549306702E+03  0.17300000000E+03 0.  1.
<mgrwt>
<rscale>  2 0.18446258E+03</rscale>
<asrwt>0</asrwt>
<pdfrwt beam="1">  1       21 0.16811833E-01 0.18446258E+03</pdfrwt>
<pdfrwt beam="2">  1       21 0.48033058E-01 0.18446258E+03</pdfrwt>
<totfact> 0.13225765E+05</totfact>
</mgrwt>
</event>
<event>
 4    1  0.3902417E-001  0.1762859E+03  0.7546771E-02  0.1171447E+00
         21   -1    0    0  501  502  0.00000000000E+00  0.00000000000E+00  0.31465658051E+03  0.31465658051E+03  0.00000000000E+00 0. -1.
         21   -1    0    0  502  503 -0.00000000000E+00 -0.00000000000E+00 -0.10425692601E+03  0.10425692601E+03  0.00000000000E+00 0. -1.
          6    1    1    2  501    0 -0.33797013666E+02  0.23383052045E+01  0.15327804905E+03  0.23360407985E+03  0.17300000000E+03 0. -1.
         -6    1    1    2    0  503  0.33797013666E+02 -0.23383052045E+01  0.57121605453E+02  0.18530942667E+03  0.17300000000E+03 0. -1.
<mgrwt>
<rscale>  2 0.17628586E+03</rscale>
<asrwt>0</asrwt>
<pdfrwt beam="1">  1       21 0.48408704E-01 0.17628586E+03</pdfrwt>
<pdfrwt beam="2">  1       21 0.16039527E-01 0.17628586E+03</pdfrwt>
<totfact> 0.14224445E+05</totfact>
</mgrwt>
</event>
<event>
 4    1  0.3902417E-001  0.4359537E+03  0.7546771E-02  0.1031996E+00
         21   -1    0    0  501  502  0.00000000000E+00  0.00000000000E+00  0.60881203749E+03  0.60881203749E+03  0.00000000000E+00 0.  1.
         21   -1    0    0  502  503 -0.00000000000E+00 -0.00000000000E+00 -0.55933671971E+03  0.55933671971E+03  0.00000000000E+00 0. -1.
          6    1    1    2  501    0 -0.40009816542E+03  0.69343651824E+01  0.41299751068E+03  0.60051858524E+03  0.17300000000E+03 0.  1.
         -6    1    1    2    0  503  0.40009816542E+03 -0.69343651824E+01 -0.36352219290E+03  0.56763017196E+03  0.17300000000E+03 0. -1.
<mgrwt>
<rscale>  2 0.43595370E+03</rscale>
<asrwt>0</asrwt>
<pdfrwt beam="1">  1       21 0.93663391E-01 0.43595370E+03</pdfrwt>
<pdfrwt beam="2">  1       21 0.86051803E-01 0.43595370E+03</pdfrwt>
<totfact> 0.95308351E+02</totfact>
</mgrwt>
</event>
<event>
 4    1  0.3902417E-001  0.1854155E+03  0.7546771E-02  0.1162662E+00
         21   -1    0    0  501  502  0.00000000000E+00  0.00000000000E+00  0.39221682139E+03  0.39221682139E+03  0.00000000000E+00 0. -1.
         21   -1    0    0  502  503 -0.00000000000E+00 -0.00000000000E+00 -0.96279521008E+02  0.96279521008E+02  0.00000000000E+00 0.  1.
          6    1    1    2  501    0  0.47757235128E+02 -0.46574249318E+02  0.22108028447E+03  0.28854012960E+03  0.17300000000E+03 0. -1.
         -6    1    1    2    0  503 -0.47757235128E+02  0.46574249318E+02  0.74857015912E+02  0.19995621280E+03  0.17300000000E+03 0. -1.
<mgrwt>
<rscale>  2 0.18541552E+03</rscale>
<asrwt>0</asrwt>
<pdfrwt beam="1">  1       21 0.60341048E-01 0.18541552E+03</pdfrwt>
<pdfrwt beam="2">  1       21 0.14812234E-01 0.18541552E+03</pdfrwt>
<totfact> 0.10302795E+05</totfact>
</mgrwt>
</event>
<event>
 4    1  0.3902417E-001  0.2023631E+03  0.7546771E-02  0.1147760E+00
         21   -1    0    0  503  502  0.00000000000E+00  0.00000000000E+00  0.14270680391E+03  0.14270680391E+03  0.00000000000E+00 0. -1.
         21   -1    0    0  501  503 -0.00000000000E+00 -0.00000000000E+00 -0.30466920565E+03  0.30466920565E+03  0.00000000000E+00 0.  1.
          6    1    1    2  501    0  0.34785244674E+02 -0.99054682760E+02 -0.27048295053E+02  0.20416281172E+03  0.17300000000E+03 0. -1.
         -6    1    1    2    0  502 -0.34785244674E+02  0.99054682760E+02 -0.13491410668E+03  0.24321319785E+03  0.17300000000E+03 0.  1.
<mgrwt>
<rscale>  2 0.20236315E+03</rscale>
<asrwt>0</asrwt>
<pdfrwt beam="1">  1       21 0.21954893E-01 0.20236315E+03</pdfrwt>
<pdfrwt beam="2">  1       21 0.46872185E-01 0.20236315E+03</pdfrwt>
<totfact> 0.84082833E+04</totfact>
</mgrwt>
</event>
<event>
 4    1  0.3902417E-001  0.1732257E+03  0.7546771E-02  0.1174525E+00
         21   -1    0    0  503  502  0.00000000000E+00  0.00000000000E+00  0.12246989663E+03  0.12246989663E+03  0.00000000000E+00 0. -1.
         21   -1    0    0  501  503 -0.00000000000E+00 -0.00000000000E+00 -0.26328315540E+03  0.26328315540E+03  0.00000000000E+00 0. -1.
          6    1    1    2  501    0 -0.30630430592E+01  0.82927499976E+01 -0.12121049099E+03  0.21142169960E+03  0.17300000000E+03 0. -1.
         -6    1    1    2    0  502  0.30630430592E+01 -0.82927499976E+01 -0.19602767768E+02  0.17433135243E+03  0.17300000000E+03 0. -1.
<mgrwt>
<rscale>  2 0.17322573E+03</rscale>
<asrwt>0</asrwt>
<pdfrwt beam="1">  1       21 0.18841523E-01 0.17322573E+03</pdfrwt>
<pdfrwt beam="2">  1       21 0.40505101E-01 0.17322573E+03</pdfrwt>
<totfact> 0.15245142E+05</totfact>
</mgrwt>
</event>
<event>
 4    1  0.3902417E-001  0.1966126E+03  0.7546771E-02  0.1152629E+00
         21   -1    0    0  503  502  0.00000000000E+00  0.00000000000E+00  0.13428150506E+04  0.13428150506E+04  0.00000000000E+00 0.  1.
         21   -1    0    0  501  503 -0.00000000000E+00 -0.00000000000E+00 -0.30545381778E+02  0.30545381778E+02  0.00000000000E+00 0.  1.
          6    1    1    2  501    0 -0.56530593991E+02 -0.74376217983E+02  0.82085787998E+03  0.84407593792E+03  0.17300000000E+03 0.  1.
         -6    1    1    2    0  502  0.56530593991E+02  0.74376217983E+02  0.49141178888E+03  0.52928449449E+03  0.17300000000E+03 0.  1.
<mgrwt>
<rscale>  2 0.19661264E+03</rscale>
<asrwt>0</asrwt>
<pdfrwt beam="1">  1       21 0.20658688E+00 0.19661264E+03</pdfrwt>
<pdfrwt beam="2">  1       21 0.46992906E-02 0.19661264E+03</pdfrwt>
<totfact> 0.36322875E+04</totfact>
</mgrwt>
</event>
<event>
 4    1  0.3902417E-001  0.3152055E+03  0.7546771E-02  0.1077877E+00
         21   -1    0    0  501  502  0.00000000000E+00  0.00000000000E+00  0.10047073720E+03  0.10047073720E+03  0.00000000000E+00 0.  1.
         21   -1    0    0  502  503 -0.00000000000E+00 -0.00000000000E+00 -0.13052888777E+04  0.13052888777E+04  0.00000000000E+00 0. -1.
          6    1    1    2  501    0  0.20084475879E+03  0.17054875106E+03 -0.25635392653E+03  0.40629032633E+03  0.17300000000E+03 0.  1.
         -6    1    1    2    0  503 -0.20084475879E+03 -0.17054875106E+03 -0.94846421401E+03  0.99946928861E+03  0.17300000000E+03 0. -1.
<mgrwt>
<rscale>  2 0.31520548E+03</rscale>
<asrwt>0</asrwt>
<pdfrwt beam="1">  1       21 0.15457035E-01 0.31520548E+03</pdfrwt>
<pdfrwt beam="2">  1       21 0.20081369E+00 0.31520548E+03</pdfrwt>
<totfact> 0.45019607E+03</totfact>
</mgrwt>
</event>
<event>
 4    1  0.3902417E-001  0.3327064E+03  0.7546771E-02  0.1069946E+00
         21   -1    0    0  501  502  0.00000000000E+00  0.00000000000E+00  0.12342690675E+04  0.12342690675E+04  0.00000000000E+00 0. -1.
         21   -1    0    0  502  503 -0.00000000000E+00 -0.00000000000E+00 -0.93138849480E+02  0.93138849480E+02  0.00000000000E+00 0.  1.
          6    1    1    2  501    0 -0.25625191620E+03 -0.12287992619E+03  0.69840237165E+03  0.77360157287E+03  0.17300000000E+03 0. -1.
         -6    1    1    2    0  503  0.25625191620E+03  0.12287992619E+03  0.44272784632E+03  0.55380634406E+03  0.17300000000E+03 0.  1.
<mgrwt>
<rscale>  2 0.33270636E+03</rscale>
<asrwt>0</asrwt>
<pdfrwt beam="1">  1       21 0.18988754E+00 0.33270636E+03</pdfrwt>
<pdfrwt beam="2">  1       21 0.14329055E-01 0.33270636E+03</pdfrwt>
<totfact> 0.60613715E+03</totfact>
</mgrwt>
</event>
<event>
 4    1  0.3902417E-001  0.1885293E+03  0.7546771E-02  0.1159794E+00
         21   -1    0    0  503  502  0.00000000000E+00  0.00000000000E+00  0.18654589678E+04  0.18654589678E+04  0.00000000000E+00 0. -1.
         21   -1    0    0  501  503 -0.00000000000E+00 -0.00000000000E+00 -0.23845340887E+02  0.23845340887E+02  0.00000000000E+00 0. -1.
          6    1    1    2  501    0  0.24156405815E+02  0.70927993860E+02  0.49733310520E+03  0.53186796273E+03  0.17300000000E+03 0.  1.
         -6    1    1    2    0  502 -0.24156405815E+02 -0.70927993860E+02  0.13442805217E+04  0.13574363460E+04  0.17300000000E+03 0.  1.
<mgrwt>
<rscale>  2 0.18852934E+03</rscale>
<asrwt>0</asrwt>
<pdfrwt beam="1">  1       21 0.28699357E+00 0.18852934E+03</pdfrwt>
<pdfrwt beam="2">  1       21 0.36685155E-02 0.18852934E+03</pdfrwt>
<totfact> 0.18442436E+04</totfact>
</mgrwt>
</event>
<event>
 4    1  0.3902417E-001  0.2180883E+03  0.7546771E-02  0.1135316E+00
         21   -1    0    0  503  502  0.00000000000E+00  0.00000000000E+00  0.12051547281E+03  0.12051547281E+03  0.00000000000E+00 0.  1.
         21   -1    0    0  501  503 -0.00000000000E+00 -0.00000000000E+00 -0.39507251063E+03  0.39507251063E+03  0.00000000000E+00 0.  1.
          6    1    1    2  501    0  0.20486061456E+02 -0.13120145983E+03 -0.12893710588E+03  0.25335208515E+03  0.17300000000E+03 0.  1.
         -6    1    1    2    0  502 -0.20486061456E+02  0.13120145983E+03 -0.14561993194E+03  0.26223589829E+03  0.17300000000E+03 0.  1.
<mgrwt>
<rscale>  2 0.21808829E+03</rscale>
<asrwt>0</asrwt>
<pdfrwt beam="1">  1       21 0.18540842E-01 0.21808829E+03</pdfrwt>
<pdfrwt beam="2">  1       21 0.60780386E-01 0.21808829E+03</pdfrwt>
<totfact> 0.66226534E+04</totfact>
</mgrwt>
</event>
<event>
 4    1  0.3902417E-001  0.2034199E+03  0.7546771E-02  0.1146885E+00
         21   -1    0    0  503  502  0.00000000000E+00  0.00000000000E+00  0.53276600448E+03  0.53276600448E+03  0.00000000000E+00 0.  1.
         21   -1    0    0  501  503 -0.00000000000E+00 -0.00000000000E+00 -0.19812598876E+03  0.19812598876E+03  0.00000000000E+00 0.  1.
          6    1    1    2  501    0  0.80526108888E+02 -0.70471374419E+02 -0.11762928673E+03  0.23498152677E+03  0.17300000000E+03 0. -1.
         -6    1    1    2    0  502 -0.80526108888E+02  0.70471374419E+02  0.45226930245E+03  0.49591046648E+03  0.17300000000E+03 0. -1.
<mgrwt>
<rscale>  2 0.20341993E+03</rscale>
<asrwt>0</asrwt>
<pdfrwt beam="1">  1       21 0.81964000E-01 0.20341993E+03</pdfrwt>
<pdfrwt beam="2">  1       21 0.30480922E-01 0.20341993E+03</pdfrwt>
<totfact> 0.13353636E+04</totfact>
</mgrwt>
</event>
<event>
 4    1  0.3902417E-001  0.2011238E+03  0.7546771E-02  0.1148794E+00
         21   -1    0    0  501  502  0.00000000000E+00  0.00000000000E+00  0.52621663779E+02  0.52621663779E+02  0.00000000000E+00 0.  1.
         21   -1    0    0  502  503 -0.00000000000E+00 -0.00000000000E+00 -0.78409106714E+03  0.78409106714E+03  0.00000000000E+00 0. -1.
          6    1    1    2  501    0 -0.38979478374E+02  0.94880951550E+02 -0.30714010633E+03  0.36713191038E+03  0.17300000000E+03 0.  1.
         -6    1    1    2    0  503  0.38979478374E+02 -0.94880951550E+02 -0.42432929703E+03  0.46958082054E+03  0.17300000000E+03 0.  1.
<mgrwt>
<rscale>  2 0.20112383E+03</rscale>
<asrwt>0</asrwt>
<pdfrwt beam="1">  1       21 0.80956411E-02 0.20112383E+03</pdfrwt>
<pdfrwt beam="2">  1       21 0.12062939E+00 0.20112383E+03</pdfrwt>
<totfact> 0.61010232E+04</totfact>
</mgrwt>
</event>
<event>
 4    1  0.3902417E-001  0.1990745E+03  0.7546771E-02  0.1150522E+00
         21   -1    0    0  501  502  0.00000000000E+00  0.00000000000E+00  0.57755951528E+02  0.57755951528E+02  0.00000000000E+00 0. -1.
         21   -1    0    0  502  503 -0.00000000000E+00 -0.00000000000E+00 -0.68618095422E+03  0.68618095422E+03  0.00000000000E+00 0.  1.
          6    1    1    2  501    0  0.75224852616E+02 -0.63583567935E+02 -0.31537241816E+03  0.37294826812E+03  0.17300000000E+03 0.  1.
         -6    1    1    2    0  503 -0.75224852616E+02  0.63583567935E+02 -0.31305258454E+03  0.37098863763E+03  0.17300000000E+03 0. -1.
<mgrwt>
<rscale>  2 0.19907448E+03</rscale>
<asrwt>0</asrwt>
<pdfrwt beam="1">  1       21 0.88855320E-02 0.19907448E+03</pdfrwt>
<pdfrwt beam="2">  1       21 0.10556629E+00 0.19907448E+03</pdfrwt>
<totfact> 0.71831186E+04</totfact>
</mgrwt>
</event>
<event>
 4    1  0.3902417E-001  0.1836116E+03  0.7546771E-02  0.1164353E+00
         21   -1    0    0  501  502  0.00000000000E+00  0.00000000000E+00  0.45066561144E+03  0.45066561144E+03  0.00000000000E+00 0. -1.
         21   -1    0    0  502  503 -0.00000000000E+00 -0.00000000000E+00 -0.74808729517E+02  0.74808729517E+02  0.00000000000E+00 0. -1.
          6    1    1    2  501    0 -0.43804108149E+02 -0.43190570331E+02  0.18893678732E+03  0.26345841201E+03  0.17300000000E+03 0. -1.
         -6    1    1    2    0  503  0.43804108149E+02  0.43190570331E+02  0.18692009461E+03  0.26201592895E+03  0.17300000000E+03 0. -1.
<mgrwt>
<rscale>  2 0.18361162E+03</rscale>
<asrwt>0</asrwt>
<pdfrwt beam="1">  1       21 0.69333169E-01 0.18361162E+03</pdfrwt>
<pdfrwt beam="2">  1       21 0.11509036E-01 0.18361162E+03</pdfrwt>
<totfact> 0.12004644E+05</totfact>
</mgrwt>
</event>
<event>
 4    1  0.3902417E-001  0.3844435E+03  0.7546771E-02  0.1049304E+00
         21   -1    0    0  503  502  0.00000000000E+00  0.00000000000E+00  0.20640363724E+03  0.20640363724E+03  0.00000000000E+00 0.  1.
         21   -1    0    0  501  503 -0.00000000000E+00 -0.00000000000E+00 -0.13635390559E+04  0.13635390559E+04  0.00000000000E+00 0. -1.
          6    1    1    2  501    0 -0.10513816794E+03 -0.32682378106E+03 -0.11194886594E+04  0.11836602877E+04  0.17300000000E+03 0. -1.
         -6    1    1    2    0  502  0.10513816794E+03  0.32682378106E+03 -0.37646759231E+02  0.38628240538E+03  0.17300000000E+03 0.  1.
<mgrwt>
<rscale>  2 0.38444352E+03</rscale>
<asrwt>0</asrwt>
<pdfrwt beam="1">  1       21 0.31754406E-01 0.38444352E+03</pdfrwt>
<pdfrwt beam="2">  1       21 0.20977524E+00 0.38444352E+03</pdfrwt>
<totfact> 0.95373576E+02</totfact>
</mgrwt>
</event>
<event>
 4    1  0.3902417E-001  0.1856373E+03  0.7546771E-02  0.1162456E+00
         21   -1    0    0  503  502  0.00000000000E+00  0.00000000000E+00  0.73294219575E+03  0.73294219575E+03  0.00000000000E+00 0.  1.
         21   -1    0    0  501  503 -0.00000000000E+00 -0.00000000000E+00 -0.49958921496E+02  0.49958921496E+02  0.00000000000E+00 0.  1.
          6    1    1    2  501    0  0.67047459447E+02 -0.60697246420E+01  0.43647325971E+03  0.47431014096E+03  0.17300000000E+03 0.  1.
         -6    1    1    2    0  502 -0.67047459447E+02  0.60697246420E+01  0.24651001455E+03  0.30859097629E+03  0.17300000000E+03 0.  1.
<mgrwt>
<rscale>  2 0.18563729E+03</rscale>
<asrwt>0</asrwt>
<pdfrwt beam="1">  1       21 0.11276033E+00 0.18563729E+03</pdfrwt>
<pdfrwt beam="2">  1       21 0.76859884E-02 0.18563729E+03</pdfrwt>
<totfact> 0.79374251E+04</totfact>
</mgrwt>
</event>
<event>
 4    1  0.3902417E-001  0.1779295E+03  0.7546771E-02  0.1169822E+00
         21   -1    0    0  503  502  0.00000000000E+00  0.00000000000E+00  0.97261249256E+02  0.97261249256E+02  0.00000000000E+00 0. -1.
         21   -1    0    0  501  503 -0.00000000000E+00 -0.00000000000E+00 -0.35114704820E+03  0.35114704820E+03  0.00000000000E+00 0. -1.
          6    1    1    2  501    0  0.41461506697E+02 -0.32928543356E+01 -0.18753084739E+03  0.25850864231E+03  0.17300000000E+03 0. -1.
         -6    1    1    2    0  502 -0.41461506697E+02  0.32928543356E+01 -0.66354951549E+02  0.18989965514E+03  0.17300000000E+03 0. -1.
<mgrwt>
<rscale>  2 0.17792948E+03</rscale>
<asrwt>0</asrwt>
<pdfrwt beam="1">  1       21 0.14963269E-01 0.17792948E+03</pdfrwt>
<pdfrwt beam="2">  1       21 0.54022622E-01 0.17792948E+03</pdfrwt>
<totfact> 0.12831009E+05</totfact>
</mgrwt>
</event>
<event>
 4    1  0.3902417E-001  0.2035295E+03  0.7546771E-02  0.1146795E+00
         21   -1    0    0  503  502  0.00000000000E+00  0.00000000000E+00  0.36868941851E+02  0.36868941851E+02  0.00000000000E+00 0.  1.
         21   -1    0    0  501  503 -0.00000000000E+00 -0.00000000000E+00 -0.11841558234E+04  0.11841558234E+04  0.00000000000E+00 0.  1.
          6    1    1    2  501    0 -0.15893603464E+02  0.10603141764E+03 -0.71175526069E+03  0.74028360732E+03  0.17300000000E+03 0.  1.
         -6    1    1    2    0  502  0.15893603464E+02 -0.10603141764E+03 -0.43553162090E+03  0.48074115796E+03  0.17300000000E+03 0.  1.
<mgrwt>
<rscale>  2 0.20352953E+03</rscale>
<asrwt>0</asrwt>
<pdfrwt beam="1">  1       21 0.56721464E-02 0.20352953E+03</pdfrwt>
<pdfrwt beam="2">  1       21 0.18217777E+00 0.20352953E+03</pdfrwt>
<totfact> 0.37905467E+04</totfact>
</mgrwt>
</event>
<event>
 4    1  0.3902417E-001  0.2834276E+03  0.7546771E-02  0.1093831E+00
         21   -1    0    0  501  502  0.00000000000E+00  0.00000000000E+00  0.55599933929E+03  0.55599933929E+03  0.00000000000E+00 0. -1.
         21   -1    0    0  502  503 -0.00000000000E+00 -0.00000000000E+00 -0.15931254131E+03  0.15931254131E+03  0.00000000000E+00 0.  1.
          6    1    1    2  501    0  0.21036389265E+03 -0.78417109242E+02  0.30747160882E+03  0.41817460538E+03  0.17300000000E+03 0.  1.
         -6    1    1    2    0  503 -0.21036389265E+03  0.78417109242E+02  0.89215189150E+02  0.29713727522E+03  0.17300000000E+03 0.  1.
<mgrwt>
<rscale>  2 0.28342761E+03</rscale>
<asrwt>0</asrwt>
<pdfrwt beam="1">  1       21 0.85538359E-01 0.28342761E+03</pdfrwt>
<pdfrwt beam="2">  1       21 0.24509622E-01 0.28342761E+03</pdfrwt>
<totfact> 0.17704018E+04</totfact>
</mgrwt>
</event>
<event>
 4    1  0.3902417E-001  0.2065098E+03  0.7546771E-02  0.1144360E+00
         21   -1    0    0  503  502  0.00000000000E+00  0.00000000000E+00  0.95187603326E+02  0.95187603326E+02  0.00000000000E+00 0. -1.
         21   -1    0    0  501  503 -0.00000000000E+00 -0.00000000000E+00 -0.49874873620E+03  0.49874873620E+03  0.00000000000E+00 0. -1.
          6    1    1    2  501    0 -0.10305009421E+03  0.45803771423E+02 -0.29648710180E+03  0.36131829309E+03  0.17300000000E+03 0. -1.
         -6    1    1    2    0  502  0.10305009421E+03 -0.45803771423E+02 -0.10707403108E+03  0.23261804643E+03  0.17300000000E+03 0. -1.
<mgrwt>
<rscale>  2 0.20650982E+03</rscale>
<asrwt>0</asrwt>
<pdfrwt beam="1">  1       21 0.14644247E-01 0.20650982E+03</pdfrwt>
<pdfrwt beam="2">  1       21 0.76730574E-01 0.20650982E+03</pdfrwt>
<totfact> 0.61508140E+04</totfact>
</mgrwt>
</event>
<event>
 4    1  0.3902417E-001  0.2172172E+03  0.7546771E-02  0.1135975E+00
         21   -1    0    0  503  502  0.00000000000E+00  0.00000000000E+00  0.57631448452E+02  0.57631448452E+02  0.00000000000E+00 0.  1.
         21   -1    0    0  501  503 -0.00000000000E+00 -0.00000000000E+00 -0.22190905095E+04  0.22190905095E+04  0.00000000000E+00 0.  1.
          6    1    1    2  501    0  0.12936534563E+03 -0.22779630383E+02 -0.19850365357E+04  0.19968859137E+04  0.17300000000E+03 0.  1.
         -6    1    1    2    0  502 -0.12936534563E+03  0.22779630383E+02 -0.17642252529E+03  0.27983604421E+03  0.17300000000E+03 0.  1.
<mgrwt>
<rscale>  2 0.21721718E+03</rscale>
<asrwt>0</asrwt>
<pdfrwt beam="1">  1       21 0.88663777E-02 0.21721718E+03</pdfrwt>
<pdfrwt beam="2">  1       21 0.34139850E+00 0.21721718E+03</pdfrwt>
<totfact> 0.19086146E+03</totfact>
</mgrwt>
</event>
<event>
 4    1  0.3902417E-001  0.5242507E+03  0.7546771E-02  0.1007636E+00
         21   -1    0    0  503  502  0.00000000000E+00  0.00000000000E+00  0.19286310988E+03  0.19286310988E+03  0.00000000000E+00 0. -1.
         21   -1    0    0  501  503 -0.00000000000E+00 -0.00000000000E+00 -0.14670982758E+04  0.14670982758E+04  0.00000000000E+00 0.  1.
          6    1    1    2  501    0  0.46902284398E+03 -0.15788399825E+03 -0.77763612212E+03  0.93784685504E+03  0.17300000000E+03 0. -1.
         -6    1    1    2    0  502 -0.46902284398E+03  0.15788399825E+03 -0.49659904383E+03  0.72211453067E+03  0.17300000000E+03 0.  1.
<mgrwt>
<rscale>  2 0.52425069E+03</rscale>
<asrwt>0</asrwt>
<pdfrwt beam="1">  1       21 0.29671247E-01 0.52425069E+03</pdfrwt>
<pdfrwt beam="2">  1       21 0.22570743E+00 0.52425069E+03</pdfrwt>
<totfact> 0.80675617E+02</totfact>
</mgrwt>
</event>
<event>
 4    1  0.3902417E-001  0.2202575E+03  0.7546771E-02  0.1133691E+00
         21   -1    0    0  501  502  0.00000000000E+00  0.00000000000E+00  0.22290869956E+03  0.22290869956E+03  0.00000000000E+00 0.  1.
         21   -1    0    0  502  503 -0.00000000000E+00 -0.00000000000E+00 -0.21765726779E+03  0.21765726779E+03  0.00000000000E+00 0. -1.
          6    1    1    2  501    0 -0.13622685248E+03 -0.51566602697E+01  0.47120165757E+01  0.22030785184E+03  0.17300000000E+03 0.  1.
         -6    1    1    2    0  503  0.13622685248E+03  0.51566602697E+01  0.53941518550E+00  0.22025811551E+03  0.17300000000E+03 0. -1.
<mgrwt>
<rscale>  2 0.22025745E+03</rscale>
<asrwt>0</asrwt>
<pdfrwt beam="1">  1       21 0.34293646E-01 0.22025745E+03</pdfrwt>
<pdfrwt beam="2">  1       21 0.33485734E-01 0.22025745E+03</pdfrwt>
<totfact> 0.69543491E+04</totfact>
</mgrwt>
</event>
<event>
 4    1  0.3902417E-001  0.2022928E+03  0.7546771E-02  0.1147819E+00
         21   -1    0    0  503  502  0.00000000000E+00  0.00000000000E+00  0.21085396736E+03  0.21085396736E+03  0.00000000000E+00 0.  1.
         21   -1    0    0  501  503 -0.00000000000E+00 -0.00000000000E+00 -0.19426907027E+03  0.19426907027E+03  0.00000000000E+00 0. -1.
          6    1    1    2  501    0  0.10325001173E+03  0.18242686463E+02  0.19591323893E+01  0.20230224598E+03  0.17300000000E+03 0. -1.
         -6    1    1    2    0  502 -0.10325001173E+03 -0.18242686463E+02  0.14625764708E+02  0.20282079165E+03  0.17300000000E+03 0. -1.
<mgrwt>
<rscale>  2 0.20229276E+03</rscale>
<asrwt>0</asrwt>
<pdfrwt beam="1">  1       21 0.32439072E-01 0.20229276E+03</pdfrwt>
<pdfrwt beam="2">  1       21 0.29887549E-01 0.20229276E+03</pdfrwt>
<totfact> 0.97774014E+04</totfact>
</mgrwt>
</event>
<event>
 4    1  0.3902417E-001  0.1783601E+03  0.7546771E-02  0.1169400E+00
         21   -1    0    0  503  502  0.00000000000E+00  0.00000000000E+00  0.40111791110E+03  0.40111791110E+03  0.00000000000E+00 0.  1.
         21   -1    0    0  501  503 -0.00000000000E+00 -0.00000000000E+00 -0.10016082422E+03  0.10016082422E+03  0.00000000000E+00 0.  1.
          6    1    1    2  501    0 -0.43113343042E+02 -0.49567162723E+01  0.36119483094E+02  0.18198062107E+03  0.17300000000E+03 0. -1.
         -6    1    1    2    0  502  0.43113343042E+02  0.49567162723E+01  0.26483760378E+03  0.31929811425E+03  0.17300000000E+03 0. -1.
<mgrwt>
<rscale>  2 0.17836011E+03</rscale>
<asrwt>0</asrwt>
<pdfrwt beam="1">  1       21 0.61710447E-01 0.17836011E+03</pdfrwt>
<pdfrwt beam="2">  1       21 0.15409358E-01 0.17836011E+03</pdfrwt>
<totfact> 0.91615972E+04</totfact>
</mgrwt>
</event>
<event>
 4    1  0.3902417E-001  0.1902058E+03  0.7546771E-02  0.1158276E+00
         21   -1    0    0  501  502  0.00000000000E+00  0.00000000000E+00  0.36355770008E+02  0.36355770008E+02  0.00000000000E+00 0. -1.
         21   -1    0    0  502  503 -0.00000000000E+00 -0.00000000000E+00 -0.10016692213E+04  0.10016692213E+04  0.00000000000E+00 0.  1.
          6    1    1    2  501    0  0.53324684735E+02  0.58358444721E+02 -0.52463487991E+03  0.55805016557E+03  0.17300000000E+03 0. -1.
         -6    1    1    2    0  503 -0.53324684735E+02 -0.58358444721E+02 -0.44067857142E+03  0.47997482578E+03  0.17300000000E+03 0.  1.
<mgrwt>
<rscale>  2 0.19020576E+03</rscale>
<asrwt>0</asrwt>
<pdfrwt beam="1">  1       21 0.55931957E-02 0.19020576E+03</pdfrwt>
<pdfrwt beam="2">  1       21 0.15410295E+00 0.19020576E+03</pdfrwt>
<totfact> 0.61957172E+04</totfact>
</mgrwt>
</event>
<event>
 4    1  0.3902417E-001  0.1973708E+03  0.7546771E-02  0.1151976E+00
         21   -1    0    0  501  502  0.00000000000E+00  0.00000000000E+00  0.15007272792E+03  0.15007272792E+03  0.00000000000E+00 0. -1.
         21   -1    0    0  502  503 -0.00000000000E+00 -0.00000000000E+00 -0.28153971911E+03  0.28153971911E+03  0.00000000000E+00 0. -1.
          6    1    1    2  501    0 -0.42958710924E+01  0.94909223895E+02 -0.54565512761E+01  0.19744616796E+03  0.17300000000E+03 0. -1.
         -6    1    1    2    0  503  0.42958710924E+01 -0.94909223895E+02 -0.12601043992E+03  0.23416627908E+03  0.17300000000E+03 0. -1.
<mgrwt>
<rscale>  2 0.19737076E+03</rscale>
<asrwt>0</asrwt>
<pdfrwt beam="1">  1       21 0.23088112E-01 0.19737076E+03</pdfrwt>
<pdfrwt beam="2">  1       21 0.43313803E-01 0.19737076E+03</pdfrwt>
<totfact> 0.90115155E+04</totfact>
</mgrwt>
</event>
<event>
 4    1  0.3902417E-001  0.2237088E+03  0.7546771E-02  0.1131148E+00
         21   -1    0    0  501  502  0.00000000000E+00  0.00000000000E+00  0.35820324969E+02  0.35820324969E+02  0.00000000000E+00 0.  1.
         21   -1    0    0  502  503 -0.00000000000E+00 -0.00000000000E+00 -0.14571942600E+04  0.14571942600E+04  0.00000000000E+00 0.  1.
          6    1    1    2  501    0  0.14077592237E+03 -0.17285502300E+02 -0.55912732676E+03  0.60222007309E+03  0.17300000000E+03 0.  1.
         -6    1    1    2    0  503 -0.14077592237E+03  0.17285502300E+02 -0.86224660822E+03  0.89079451183E+03  0.17300000000E+03 0.  1.
<mgrwt>
<rscale>  2 0.22370885E+03</rscale>
<asrwt>0</asrwt>
<pdfrwt beam="1">  1       21 0.55108185E-02 0.22370885E+03</pdfrwt>
<pdfrwt beam="2">  1       21 0.22418376E+00 0.22370885E+03</pdfrwt>
<totfact> 0.21113824E+04</totfact>
</mgrwt>
</event>
<event>
 4    1  0.3902417E-001  0.2152347E+03  0.7546771E-02  0.1137486E+00
         21   -1    0    0  501  502  0.00000000000E+00  0.00000000000E+00  0.22076345867E+03  0.22076345867E+03  0.00000000000E+00 0.  1.
         21   -1    0    0  502  503 -0.00000000000E+00 -0.00000000000E+00 -0.24544096013E+03  0.24544096013E+03  0.00000000000E+00 0.  1.
          6    1    1    2  501    0 -0.12454632324E+03  0.29752234525E+02  0.76433392236E+02  0.22840325204E+03  0.17300000000E+03 0.  1.
         -6    1    1    2    0  503  0.12454632324E+03 -0.29752234525E+02 -0.10111089370E+03  0.23780116677E+03  0.17300000000E+03 0.  1.
<mgrwt>
<rscale>  2 0.21523471E+03</rscale>
<asrwt>0</asrwt>
<pdfrwt beam="1">  1       21 0.33963609E-01 0.21523471E+03</pdfrwt>
<pdfrwt beam="2">  1       21 0.37760147E-01 0.21523471E+03</pdfrwt>
<totfact> 0.55904750E+04</totfact>
</mgrwt>
</event>
