<LesHouchesEvents version="3.0">
<header>
<!--
#*********************************************************************
#                                                                    *
#                        MadGraph5_aMC@NLO                           *
#                                                                    *
#                           Going Beyond                             *
#                                                                    *
#                   http://madgraph.hep.uiuc.edu                     *
#                   http://madgraph.phys.ucl.ac.be                   *
#                   http://amcatnlo.cern.ch                          *
#                                                                    *
#                     The MadGraph5_aMC@NLO team                     *
#                                                                    *
#....................................................................*
#                                                                    *
# This file contains all the information necessary to reproduce      *
# the events generated:                                              *
#                                                                    *
# 1. software version                                                *
# 2. proc_card          : code generation info including model       *
# 3. param_card         : model primary parameters in the LH format  *
# 4. run_card           : running parameters (collider and cuts)     *
# 5. pythia_card        : present only if pythia has been run        *
# 6. pgs_card           : present only if pgs has been run           *
# 7. delphes_cards      : present only if delphes has been run       *
#                                                                    *
#                                                                    *
#*********************************************************************
-->
<MGVersion>
2.6.7
</MGVersion>
<MG5ProcCard>
<![CDATA[
#************************************************************
#*                     MadGraph5_aMC@NLO                    *
#*                                                          *
#*                *                       *                 *
#*                  *        * *        *                   *
#*                    * * * * 5 * * * *                     *
#*                  *        * *        *                   *
#*                *                       *                 *
#*                                                          *
#*                                                          *
#*         VERSION 2.6.7                 2019-10-16         *
#*                                                          *
#*    The MadGraph5_aMC@NLO Development Team - Find us at   *
#*    https://server06.fynu.ucl.ac.be/projects/madgraph     *
#*                                                          *
#************************************************************
#*                                                          *
#*               Command File for MadGraph5_aMC@NLO         *
#*                                                          *
#*     run as ./bin/mg5_aMC  filename                       *
#*                                                          *
#************************************************************
set low_mem_multicore_nlo_generation False
set default_unset_couplings 99
set group_subprocesses Auto
set ignore_six_quark_processes False
set loop_optimized_output True
set loop_color_flows False
set gauge unitary
set complex_mass_scheme False
set max_npoint_for_channel 0
import model sm
define p = g u c d s u~ c~ d~ s~
define j = g u c d s u~ c~ d~ s~
define l+ = e+ mu+
define l- = e- mu-
define vl = ve vm vt
define vl~ = ve~ vm~ vt~
import model SM_HeavyN_Dirac_CKM_Masses_LO
define e = e+ e-
define nue = ve ve~
generate e+ e- > n1 ve~ , (n1 > z ve, z > e+ e-)
add process e+ e- > n1~ ve , (n1~ > z ve~, z > e+ e-)
add process e+ e- > n1 ve~ , (n1 > e+ e- ve)
add process e+ e- > n1~ ve , (n1~ > e+ e- ve~)
output HNL_Dirac_70GeV_1e-3Ve
]]>
</MG5ProcCard>
<MGProcCard>
#*********************************************************************
#                        MadGraph/MadEvent                           *
#                   http://madgraph.hep.uiuc.edu                     *
#                                                                    *
#                          proc_card.dat                             *
#*********************************************************************
#                                                                    *
#            This Files is generated by MADGRAPH 5                   *
#                                                                    *
# WARNING: This Files is generated for MADEVENT (compatibility issue)*
#          This files is NOT a valid MG4 proc_card.dat               *
#          Running this in MG4 will NEVER reproduce the result of MG5*
#                                                                    *
#*********************************************************************
#*********************************************************************
# Process(es) requested : mg2 input                                  *
#*********************************************************************
# Begin PROCESS # This is TAG. Do not modify this line
e+ e- > n1 ve~ , (n1 > z ve , z > e+ e-)           #Process
# Be carefull the coupling are here in MG5 convention
          
end_coup           # End the couplings input

done               # this tells MG there are no more procs
# End PROCESS  # This is TAG. Do not modify this line
#*********************************************************************
# Model information                                                  *
#*********************************************************************
# Begin MODEL  # This is TAG. Do not modify this line
SM_HeavyN_Dirac_CKM_Masses_LO
# End   MODEL  # This is TAG. Do not modify this line
#*********************************************************************
# Start multiparticle definitions                                    *
#*********************************************************************
# Begin MULTIPARTICLES # This is TAG. Do not modify this line

# End  MULTIPARTICLES # This is TAG. Do not modify this line
</MGProcCard>
<MGRunCard>
<![CDATA[
#*********************************************************************
#                       MadGraph5_aMC@NLO                            *
#                                                                    *
#                     run_card.dat MadEvent                          *
#                                                                    *
#  This file is used to set the parameters of the run.               *
#                                                                    *
#  Some notation/conventions:                                        *
#                                                                    *
#   Lines starting with a '# ' are info or comments                  *
#                                                                    *
#   mind the format:   value    = variable     ! comment             *
#                                                                    *
#   To display more options, you can type the command:               *
#      update full_run_card                                          *
#*********************************************************************
#
#*******************                                                 
# Running parameters
#*******************                                                 
#                                                                    
#*********************************************************************
# Tag name for the run (one word)                                    *
#*********************************************************************
  tag_1	= run_tag ! name of the run 
#*********************************************************************
# Number of events and rnd seed                                      *
# Warning: Do not generate more than 1M events in a single run       *
#*********************************************************************
  1000	= nevents ! Number of unweighted events requested 
 21 = iseed ! rnd seed (0=assigned automatically=default))
#*********************************************************************
# Collider type and energy                                           *
# lpp: 0=No PDF, 1=proton, -1=antiproton, 2=photon from proton,      *
#                                         3=photon from electron     *
#*********************************************************************
  0	= lpp1 ! beam 1 type 
  0	= lpp2 ! beam 2 type
  45.594	= ebeam1 ! beam 1 total energy in GeV
  45.594	= ebeam2 ! beam 2 total energy in GeV
#*********************************************************************
# Beam polarization from -100 (left-handed) to 100 (right-handed)    *
#*********************************************************************
  0.0	= polbeam1 ! beam polarization for beam 1
  0.0	= polbeam2 ! beam polarization for beam 2

#*********************************************************************
# PDF CHOICE: this automatically fixes also alpha_s and its evol.    *
#*********************************************************************
  nn23lo1	= pdlabel ! PDF set                                     
  230000	= lhaid ! if pdlabel=lhapdf, this is the lhapdf number
# To see heavy ion options: type "update ion_pdf"
#*********************************************************************
# Renormalization and factorization scales                           *
#*********************************************************************
  False	= fixed_ren_scale ! if .true. use fixed ren scale
  False	= fixed_fac_scale ! if .true. use fixed fac scale
  91.188	= scale ! fixed ren scale
  91.188	= dsqrt_q2fact1 ! fixed fact scale for pdf1
  91.188	= dsqrt_q2fact2 ! fixed fact scale for pdf2
  -1	= dynamical_scale_choice ! Choose one of the preselected dynamical choices
  1.0	= scalefact ! scale factor for event-by-event scales
#*********************************************************************
# Type and output format
#*********************************************************************
  False	= gridpack !True = setting up the grid pack
  0.0	= time_of_flight ! threshold (in mm) below which the invariant livetime is not written (-1 means not written)
  3.0	= lhe_version ! Change the way clustering information pass to shower.        
  True	= clusinfo ! include clustering tag in output
  average	= event_norm ! average/sum. Normalization of the weight in the LHEF

#*********************************************************************
# Matching parameter (MLM only)
#*********************************************************************
  0	= ickkw ! 0 no matching, 1 MLM
  1.0	= alpsfact ! scale factor for QCD emission vx
  False	= chcluster ! cluster only according to channel diag
  5	= asrwgtflavor ! highest quark flavor for a_s reweight
  True	= auto_ptj_mjj ! Automatic setting of ptj and mjj if xqcut >0
                                   ! (turn off for VBF and single top processes) 
  0.0	= xqcut ! minimum kt jet measure between partons
#*********************************************************************
#
#*********************************************************************
# handling of the helicities:
#  0: sum over all helicities
#  1: importance sampling over helicities
#*********************************************************************
  0	= nhel ! using helicities importance sampling or not.
#*********************************************************************
# Generation bias, check the wiki page below for more information:   *
#  'cp3.irmp.ucl.ac.be/projects/madgraph/wiki/LOEventGenerationBias' *
#*********************************************************************
  None	= bias_module ! Bias type of bias, [None, ptj_bias, -custom_folder-]
  {}	= bias_parameters ! Specifies the parameters of the module.
#
#*******************************                                                 
# Parton level cuts definition *
#*******************************                                     
#                                                                    
#
#*********************************************************************
# BW cutoff (M+/-bwcutoff*Gamma) ! Define on/off-shell for "$" and decay  
#*********************************************************************
  15.0	= bwcutoff ! (M+/-bwcutoff*Gamma)
#*********************************************************************
# Apply pt/E/eta/dr/mij/kt_durham cuts on decay products or not
# (note that etmiss/ptll/ptheavy/ht/sorted cuts always apply)
#*********************************************************************
  False	= cut_decays ! Cut decay products 
#*********************************************************************
# Standard Cuts                                                      *
#*********************************************************************
# Minimum and maximum pt's (for max, -1 means no cut)                *
#*********************************************************************
  0.0	= ptj ! minimum pt for the jets 
  0.0	= ptb ! minimum pt for the b 
  0.0	= pta ! minimum pt for the photons 
  0.0	= ptl ! minimum pt for the charged leptons 
  0.0	= misset ! minimum missing Et (sum of neutrino's momenta)
  -1.0	= ptjmax ! maximum pt for the jets
  -1.0	= ptbmax ! maximum pt for the b
  -1.0	= ptamax ! maximum pt for the photons
  -1.0	= ptlmax ! maximum pt for the charged leptons
  -1.0	= missetmax ! maximum missing Et (sum of neutrino's momenta)
  {}	= pt_min_pdg ! pt cut for other particles (use pdg code). Applied on particle and anti-particle
  {}	= pt_max_pdg ! pt cut for other particles (syntax e.g. {6: 100, 25: 50}) 
#*********************************************************************
# Minimum and maximum E's (in the center of mass frame)              *
#*********************************************************************
  0.0	= ej ! minimum E for the jets
  0.0	= eb ! minimum E for the b
  0.0	= ea ! minimum E for the photons
  0.0	= el ! minimum E for the charged leptons
  -1.0	= ejmax ! maximum E for the jets
  -1.0	= ebmax ! maximum E for the b
  -1.0	= eamax ! maximum E for the photons
  -1.0	= elmax ! maximum E for the charged leptons
  {}	= e_min_pdg ! E cut for other particles (use pdg code). Applied on particle and anti-particle
  {}	= e_max_pdg ! E cut for other particles (syntax e.g. {6: 100, 25: 50})

#*********************************************************************
# Maximum and minimum absolute rapidity (for max, -1 means no cut)   *
#*********************************************************************
  -1.0	= etaj ! max rap for the jets 
  -1.0	= etab ! max rap for the b
  -1.0	= etaa ! max rap for the photons 
  -1.0	= etal ! max rap for the charged leptons 
  0.0	= etajmin ! min rap for the jets
  0.0	= etabmin ! min rap for the b
  0.0	= etaamin ! min rap for the photons
  0.0	= etalmin ! main rap for the charged leptons
  {}	= eta_min_pdg ! rap cut for other particles (use pdg code). Applied on particle and anti-particle
  {}	= eta_max_pdg ! rap cut for other particles (syntax e.g. {6: 2.5, 23: 5})
#*********************************************************************
# Minimum and maximum DeltaR distance                                *
#*********************************************************************
  0.0	= drjj ! min distance between jets 
  0.0	= drbb ! min distance between b's 
  0.0	= drll ! min distance between leptons 
  0.0	= draa ! min distance between gammas 
  0.0	= drbj ! min distance between b and jet 
  0.0	= draj ! min distance between gamma and jet 
  0.0	= drjl ! min distance between jet and lepton 
  0.0	= drab ! min distance between gamma and b 
  0.0	= drbl ! min distance between b and lepton 
  0.0	= dral ! min distance between gamma and lepton 
  -1.0	= drjjmax ! max distance between jets
  -1.0	= drbbmax ! max distance between b's
  -1.0	= drllmax ! max distance between leptons
  -1.0	= draamax ! max distance between gammas
  -1.0	= drbjmax ! max distance between b and jet
  -1.0	= drajmax ! max distance between gamma and jet
  -1.0	= drjlmax ! max distance between jet and lepton
  -1.0	= drabmax ! max distance between gamma and b
  -1.0	= drblmax ! max distance between b and lepton
  -1.0	= dralmax ! maxdistance between gamma and lepton
#*********************************************************************
# Minimum and maximum invariant mass for pairs                       *
# WARNING: for four lepton final state mmll cut require to have      *
#          different lepton masses for each flavor!                  *           
#*********************************************************************
  0.0	= mmjj ! min invariant mass of a jet pair 
  0.0	= mmbb ! min invariant mass of a b pair 
  0.0	= mmaa ! min invariant mass of gamma gamma pair
  0.0	= mmll ! min invariant mass of l+l- (same flavour) lepton pair
  -1.0	= mmjjmax ! max invariant mass of a jet pair
  -1.0	= mmbbmax ! max invariant mass of a b pair
  -1.0	= mmaamax ! max invariant mass of gamma gamma pair
  -1.0	= mmllmax ! max invariant mass of l+l- (same flavour) lepton pair
  {}	= mxx_min_pdg ! min invariant mass of a pair of particles X/X~ (e.g. {6:250})
  {'default': False}	= mxx_only_part_antipart ! if True the invariant mass is applied only 
                       ! to pairs of particle/antiparticle and not to pairs of the same pdg codes.  
#*********************************************************************
# Minimum and maximum invariant mass for all letpons                 *
#*********************************************************************
  0.0	= mmnl ! min invariant mass for all letpons (l+- and vl) 
  -1.0	= mmnlmax ! max invariant mass for all letpons (l+- and vl) 
#*********************************************************************
# Minimum and maximum pt for 4-momenta sum of leptons                *
#*********************************************************************
  0.0	= ptllmin ! Minimum pt for 4-momenta sum of leptons(l and vl)
  -1.0	= ptllmax ! Maximum pt for 4-momenta sum of leptons(l and vl)
#*********************************************************************
# Inclusive cuts                                                     *
#*********************************************************************
  0.0	= ptheavy ! minimum pt for at least one heavy final state
  0.0	= xptj ! minimum pt for at least one jet  
  0.0	= xptb ! minimum pt for at least one b 
  0.0	= xpta ! minimum pt for at least one photon 
  0.0	= xptl ! minimum pt for at least one charged lepton 
#*********************************************************************
# Control the pt's of the jets sorted by pt                          *
#*********************************************************************
  0.0	= ptj1min ! minimum pt for the leading jet in pt
  0.0	= ptj2min ! minimum pt for the second jet in pt
  0.0	= ptj3min ! minimum pt for the third jet in pt
  0.0	= ptj4min ! minimum pt for the fourth jet in pt
  -1.0	= ptj1max ! maximum pt for the leading jet in pt 
  -1.0	= ptj2max ! maximum pt for the second jet in pt
  -1.0	= ptj3max ! maximum pt for the third jet in pt
  -1.0	= ptj4max ! maximum pt for the fourth jet in pt
  0	= cutuse ! reject event if fails any (0) / all (1) jet pt cuts
#*********************************************************************
# Control the pt's of leptons sorted by pt                           *
#*********************************************************************
  0.0	= ptl1min ! minimum pt for the leading lepton in pt
  0.0	= ptl2min ! minimum pt for the second lepton in pt
  0.0	= ptl3min ! minimum pt for the third lepton in pt
  0.0	= ptl4min ! minimum pt for the fourth lepton in pt
  -1.0	= ptl1max ! maximum pt for the leading lepton in pt 
  -1.0	= ptl2max ! maximum pt for the second lepton in pt
  -1.0	= ptl3max ! maximum pt for the third lepton in pt
  -1.0	= ptl4max ! maximum pt for the fourth lepton in pt
#*********************************************************************
# Control the Ht(k)=Sum of k leading jets                            *
#*********************************************************************
  0.0	= htjmin ! minimum jet HT=Sum(jet pt)
  -1.0	= htjmax ! maximum jet HT=Sum(jet pt)
  0.0	= ihtmin !inclusive Ht for all partons (including b)
  -1.0	= ihtmax !inclusive Ht for all partons (including b)
  0.0	= ht2min ! minimum Ht for the two leading jets
  0.0	= ht3min ! minimum Ht for the three leading jets
  0.0	= ht4min ! minimum Ht for the four leading jets
  -1.0	= ht2max ! maximum Ht for the two leading jets
  -1.0	= ht3max ! maximum Ht for the three leading jets
  -1.0	= ht4max ! maximum Ht for the four leading jets
#***********************************************************************
# Photon-isolation cuts, according to hep-ph/9801442                   *
# When ptgmin=0, all the other parameters are ignored                  *
# When ptgmin>0, pta and draj are not going to be used                 *
#***********************************************************************
  0.0	= ptgmin ! Min photon transverse momentum
  0.4	= r0gamma ! Radius of isolation code
  1.0	= xn ! n parameter of eq.(3.4) in hep-ph/9801442
  1.0	= epsgamma ! epsilon_gamma parameter of eq.(3.4) in hep-ph/9801442
  True	= isoem ! isolate photons from EM energy (photons and leptons)
#*********************************************************************
# WBF cuts                                                           *
#*********************************************************************
  0.0	= xetamin ! minimum rapidity for two jets in the WBF case  
  -1.0	= deltaeta ! minimum rapidity for two jets in the WBF case 
#***********************************************************************
# Turn on either the ktdurham or ptlund cut to activate                *
# CKKW(L) merging with Pythia8 [arXiv:1410.3012, arXiv:1109.4829]      *
#***********************************************************************
  0.0	= ktdurham 
  0.0	= dparameter 
  0.0	= ptlund 
  1, 2, 3, 4, 5, 6, 21	= pdgs_for_merging_cut ! PDGs for two cuts above   
#*********************************************************************
# maximal pdg code for quark to be considered as a light jet         *
# (otherwise b cuts are applied)                                     *
#*********************************************************************
  4	= maxjetflavor ! Maximum jet pdg code
#*********************************************************************
#
#*********************************************************************
# Store info for systematics studies                                 *
# WARNING: Do not use for interference type of computation           *
#*********************************************************************
  False	= use_syst ! Enable systematics studies
#
  systematics	= systematics_program ! none, systematics [python], SysCalc [depreceted, C++]
['--mur=0.5,1,2', '--muf=0.5,1,2', '--pdf=errorset'] = systematics_arguments ! see: https://cp3.irmp.ucl.ac.be/projects/madgraph/wiki/Systematics#Systematicspythonmodule
# Syscalc is deprecated but to see the associate options type'update syscalc'#********************************************************************* 
#  Additional hidden parameters
#*********************************************************************
  ['--mur=0.5,1,2', '--muf=0.5,1,2', '--pdf=errorset']	= systematics_arguments # Choose the argment to pass to the systematics command. like --mur=0.25,1,4. Look at the help of the systematics function for more details.
]]>
</MGRunCard>
<slha>
######################################################################
## PARAM_CARD AUTOMATICALY GENERATED BY MG5                       ####
######################################################################
###################################
## INFORMATION FOR CKMBLOCK
###################################
BLOCK CKMBLOCK # 
      1 2.275910e-01 # cabi
      2 3.508000e-03 # th13
      3 4.153900e-02 # th23
      4 1.200000e+00 # del13
###################################
## INFORMATION FOR MASS
###################################
BLOCK MASS # 
      1 5.040000e-03 # md
      2 2.550000e-03 # mu
      3 1.010000e-01 # ms
      4 1.270000e+00 # mc
      5 4.700000e+00 # mb
      6 1.733000e+02 # mt
      11 5.110000e-04 # me
      13 1.056600e-01 # mmu
      15 1.777000e+00 # mta
      23 9.118760e+01 # mz
      25 1.257000e+02 # mh
      9990012 7.000000e+01 # mn1
      9990014 1.000000e+04 # mn2
      9990016 1.000000e+04 # mn3
      12 0.000000e+00 # ve : 0.0
      14 0.000000e+00 # vm : 0.0
      16 0.000000e+00 # vt : 0.0
      21 0.000000e+00 # g : 0.0
      22 0.000000e+00 # a : 0.0
      24 7.995123e+01 # w+ : cmath.sqrt(mz__exp__2/2. + cmath.sqrt(mz__exp__4/4. - (aew*cmath.pi*mz__exp__2)/(gf*sqrt__2)))
###################################
## INFORMATION FOR NUMIXING
###################################
BLOCK NUMIXING # 
      1 1.000000e-03 # ven1
      2 0.000000e+00 # ven2
      3 0.000000e+00 # ven3
      4 0.000000e+00 # vmun1
      5 1.000000e+00 # vmun2
      6 0.000000e+00 # vmun3
      7 0.000000e+00 # vtan1
      8 0.000000e+00 # vtan2
      9 1.000000e+00 # vtan3
###################################
## INFORMATION FOR SMINPUTS
###################################
BLOCK SMINPUTS # 
      1 1.279400e+02 # aewm1
      2 1.174560e-05 # gf
      3 1.184000e-01 # as
###################################
## INFORMATION FOR YUKAWA
###################################
BLOCK YUKAWA # 
      1 5.040000e-03 # ymdo
      2 2.550000e-03 # ymup
      3 1.010000e-01 # yms
      4 1.270000e+00 # ymc
      5 4.700000e+00 # ymb
      6 1.733000e+02 # ymt
      11 5.110000e-04 # yme
      13 1.056600e-01 # ymm
      15 1.777000e+00 # ymtau
###################################
## INFORMATION FOR DECAY
###################################
BLOCK QNUMBERS 9990012 #   n1
      1 0 # 3 times electric charge
      2 2 # number of spin states (2s+1)
      3 1 # colour rep (1: singlet, 3: triplet, 8: octet)
      4 1 # particle/antiparticle distinction (0=own anti)
###################################
## INFORMATION FOR QNUMBERS 9990014
###################################
BLOCK QNUMBERS 9990014 #   n2
      1 0 # 3 times electric charge
      2 2 # number of spin states (2s+1)
      3 1 # colour rep (1: singlet, 3: triplet, 8: octet)
      4 1 # particle/antiparticle distinction (0=own anti)
###################################
## INFORMATION FOR QNUMBERS 9990016
###################################
BLOCK QNUMBERS 9990016 #   n3
      1 0 # 3 times electric charge
      2 2 # number of spin states (2s+1)
      3 1 # colour rep (1: singlet, 3: triplet, 8: octet)
      4 1 # particle/antiparticle distinction (0=own anti)
#
#*************************
#      Decay widths      *
#*************************
#
#      PDG        Width
DECAY  1   0.000000e+00
#
#      PDG        Width
DECAY  2   0.000000e+00
#
#      PDG        Width
DECAY  3   0.000000e+00
#
#      PDG        Width
DECAY  4   0.000000e+00
#
#      PDG        Width
DECAY  5   0.000000e+00
#
#      PDG        Width
DECAY  6   1.350000e+00
#
#      PDG        Width
DECAY  11   0.000000e+00
#
#      PDG        Width
DECAY  12   0.000000e+00
#
#      PDG        Width
DECAY  13   0.000000e+00
#
#      PDG        Width
DECAY  14   0.000000e+00
#
#      PDG        Width
DECAY  15   0.000000e+00
#
#      PDG        Width
DECAY  16   0.000000e+00
#
#      PDG        Width
DECAY  21   0.000000e+00
#
#      PDG        Width
DECAY  22   0.000000e+00
#
#      PDG        Width
DECAY  23   2.495200e+00
#
#      PDG        Width
DECAY  24   2.085000e+00
#
#      PDG        Width
DECAY  25   4.170000e-03
#
#      PDG        Width
DECAY  9990012   8.859989e-10
#  BR             NDA  ID1    ID2   ...
   2.519867e-01   3    -3  4  11 # 2.23259964213e-10
   2.519190e-01   3    -1  2  11 # 2.23199982081e-10
   8.799221e-02   3    -13  11  14 # 7.79610012078e-11
   8.799108e-02   3    -15  11  16 # 7.79600000289e-11
   5.711745e-02   3    -11  11  12 # 5.06060035826e-11
   3.904971e-02   3    -1  1  12 # 3.45980040103e-11
   3.865693e-02   3    -3  3  12 # 3.42500013231e-11
   3.668740e-02   3    -5  5  12 # 3.25049997126e-11
   3.033976e-02   3    -2  2  12 # 2.68809970202e-11
   3.001696e-02   3    -4  4  12 # 2.6594996543e-11
   1.749381e-02   3    -14  12  14 # 1.54994981662e-11
   1.749381e-02   3    -16  12  16 # 1.54994981662e-11
   1.344358e-02   3    -3  2  11 # 1.19109984364e-11
   1.343004e-02   3    -1  4  11 # 1.189900201e-11
   8.864571e-03   3    -13  12  13 # 7.85400015543e-12
   8.849785e-03   3    -12  12  12 # 7.84089977422e-12
   8.667167e-03   3    -15  12  15 # 7.67910040883e-12
#
#      PDG        Width
DECAY  9990014   1.500000e+00
#
#      PDG        Width
DECAY  9990016   1.230000e+01
</slha>
<MGGenerationInfo>
#  Number of Events        :       1000
#  Integrated weight (pb)  :       0.000100863560849
</MGGenerationInfo>
</header>
<init>
-11 11 4.559400e+01 4.559400e+01 0 0 247000 247000 -4 4
1.517672e-06 1.748232e-08 1.008636e-04 1
4.871176e-05 4.031079e-07 1.008636e-04 3
1.507753e-06 4.656312e-08 1.008636e-04 2
4.912637e-05 5.062276e-07 1.008636e-04 4
<generator name='MadGraph5_aMC@NLO' version='2.6.7'>please cite 1405.0301 </generator>
</init>
<event>
 8      4 +1.0086356e-04 9.11880000e+01 7.81616400e-03 1.18400000e-01
      -11 -1    0    0    0    0 +0.0000000000e+00 +0.0000000000e+00 +4.5593999997e+01 4.5594000000e+01 5.1100000000e-04 0.0000e+00 1.0000e+00
       11 -1    0    0    0    0 -0.0000000000e+00 -0.0000000000e+00 -4.5593999997e+01 4.5594000000e+01 5.1100000000e-04 0.0000e+00 -1.0000e+00
       23  2    1    2    0    0 -1.7763568394e-15 +0.0000000000e+00 +1.7763568394e-15 9.1188000000e+01 9.1188000000e+01 1.0911e-14 0.0000e+00
 -9990012  2    3    3    0    0 -1.5369581241e+01 +8.5728750418e+00 +6.3999693140e+00 7.2461606294e+01 7.0000046896e+01 2.3486e-04 0.0000e+00
      -11  1    4    4    0    0 +9.5015730450e+00 +2.8711818050e+01 +1.6471203333e+01 3.4437609173e+01 5.1100000000e-04 0.0000e+00 1.0000e+00
       11  1    4    4    0    0 -5.7901334849e+00 -7.3169936986e-01 -9.0747820205e+00 1.0789471661e+01 5.1100000000e-04 0.0000e+00 -1.0000e+00
      -12  1    4    4    0    0 -1.9081020801e+01 -1.9407243638e+01 -9.9645199877e-01 2.7234525460e+01 0.0000000000e+00 0.0000e+00 1.0000e+00
       12  1    3    3    0    0 +1.5369581241e+01 -8.5728750418e+00 -6.3999693140e+00 1.8726393706e+01 0.0000000000e+00 0.0000e+00 -1.0000e+00
</event>
<event>
 8      3 +1.0086356e-04 9.11880000e+01 7.81616400e-03 1.18400000e-01
      -11 -1    0    0    0    0 +0.0000000000e+00 +0.0000000000e+00 +4.5593999997e+01 4.5594000000e+01 5.1100000000e-04 0.0000e+00 1.0000e+00
       11 -1    0    0    0    0 -0.0000000000e+00 -0.0000000000e+00 -4.5593999997e+01 4.5594000000e+01 5.1100000000e-04 0.0000e+00 -1.0000e+00
       23  2    1    2    0    0 +0.0000000000e+00 +3.5527136788e-15 +0.0000000000e+00 9.1188000000e+01 9.1188000000e+01 1.0072e-13 0.0000e+00
  9990012  2    3    3    0    0 -4.6941669997e+00 -1.5728131365e+01 -9.0149332901e+00 7.2461592382e+01 7.0000028773e+01 6.8042e-04 0.0000e+00
      -11  1    4    4    0    0 -1.5918214388e+01 +1.9407725971e+01 -1.4659456834e+01 2.9068007355e+01 5.1100000000e-04 0.0000e+00 -1.0000e+00
       11  1    4    4    0    0 +3.9686391801e+00 -1.2102963990e+01 +1.2950041003e+01 1.8164123886e+01 5.1100000000e-04 0.0000e+00 1.0000e+00
       12  1    4    4    0    0 +7.2554082078e+00 -2.3032893346e+01 -7.3055174585e+00 2.5229461141e+01 0.0000000000e+00 0.0000e+00 -1.0000e+00
      -12  1    3    3    0    0 +4.6941669997e+00 +1.5728131365e+01 +9.0149332901e+00 1.8726407618e+01 0.0000000000e+00 0.0000e+00 1.0000e+00
</event>
<event>
 9      4 +1.0086356e-04 9.11880000e+01 7.81616400e-03 1.18400000e-01
      -11 -1    0    0    0    0 +0.0000000000e+00 +0.0000000000e+00 +4.5593999997e+01 4.5594000000e+01 5.1100000000e-04 0.0000e+00 1.0000e+00
       11 -1    0    0    0    0 -0.0000000000e+00 -0.0000000000e+00 -4.5593999997e+01 4.5594000000e+01 5.1100000000e-04 0.0000e+00 -1.0000e+00
       23  2    1    2    0    0 +0.0000000000e+00 -1.7763568394e-15 -2.2204460493e-16 9.1188000000e+01 9.1188000000e+01 1.7761e-13 0.0000e+00
 -9990012  2    3    3    0    0 -1.5325554150e+01 -1.0649473843e+01 +1.5477817925e+00 7.2461560626e+01 6.9999987405e+01 3.8261e-04 0.0000e+00
      -24  2    4    4    0    0 -1.0024771762e+01 -1.0496609671e+00 -1.0387452800e+01 5.6253398293e+01 5.4359431627e+01 9.6015e-14 0.0000e+00
      -11  1    4    4    0    0 -5.3007823880e+00 -9.5998128760e+00 +1.1935234593e+01 1.6208162333e+01 5.1100000000e-04 0.0000e+00 1.0000e+00
       11  1    5    5    0    0 -1.7754317938e+01 +2.1648834770e+01 +4.0113482356e+00 2.8283895900e+01 5.1100000000e-04 0.0000e+00 -1.0000e+00
      -12  1    5    5    0    0 +7.7295461759e+00 -2.2698495737e+01 -1.4398801036e+01 2.7969502393e+01 0.0000000000e+00 0.0000e+00 1.0000e+00
       12  1    3    3    0    0 +1.5325554150e+01 +1.0649473843e+01 -1.5477817925e+00 1.8726439374e+01 0.0000000000e+00 0.0000e+00 -1.0000e+00
</event>
<event>
 9      4 +1.0086356e-04 9.11880000e+01 7.81616400e-03 1.18400000e-01
      -11 -1    0    0    0    0 +0.0000000000e+00 +0.0000000000e+00 +4.5593999997e+01 4.5594000000e+01 5.1100000000e-04 0.0000e+00 1.0000e+00
       11 -1    0    0    0    0 -0.0000000000e+00 -0.0000000000e+00 -4.5593999997e+01 4.5594000000e+01 5.1100000000e-04 0.0000e+00 -1.0000e+00
       23  2    1    2    0    0 -1.3322676296e-15 +0.0000000000e+00 +2.4424906542e-15 9.1188000000e+01 9.1188000000e+01 1.3275e-13 0.0000e+00
 -9990012  2    3    3    0    0 -2.4467169354e+00 +1.8493823556e+01 -1.6340315511e+00 7.2461601719e+01 7.0000040936e+01 2.4024e-04 0.0000e+00
      -24  2    4    4    0    0 +6.4213036109e+00 +1.9635825390e+01 -9.3462207549e+00 6.0653815339e+01 5.6255974741e+01 1.0740e-13 0.0000e+00
      -11  1    4    4    0    0 -8.8680205463e+00 -1.1420018344e+00 +7.7121892038e+00 1.1807786379e+01 5.1100000000e-04 0.0000e+00 1.0000e+00
       11  1    5    5    0    0 +2.8381646644e+01 +1.0563466742e+01 +7.8962358690e+00 3.1296249568e+01 5.1100000000e-04 0.0000e+00 -1.0000e+00
      -12  1    5    5    0    0 -2.1960343034e+01 +9.0723586480e+00 -1.7242456624e+01 2.9357565771e+01 0.0000000000e+00 0.0000e+00 1.0000e+00
       12  1    3    3    0    0 +2.4467169354e+00 -1.8493823556e+01 +1.6340315511e+00 1.8726398281e+01 0.0000000000e+00 0.0000e+00 -1.0000e+00
</event>
<event>
 8      3 +1.0086356e-04 9.11880000e+01 7.81616400e-03 1.18400000e-01
      -11 -1    0    0    0    0 +0.0000000000e+00 +0.0000000000e+00 +4.5593999997e+01 4.5594000000e+01 5.1100000000e-04 0.0000e+00 1.0000e+00
       11 -1    0    0    0    0 -0.0000000000e+00 -0.0000000000e+00 -4.5593999997e+01 4.5594000000e+01 5.1100000000e-04 0.0000e+00 -1.0000e+00
       23  2    1    2    0    0 +2.6645352591e-15 +3.5527136788e-15 -8.8817841970e-16 9.1188000000e+01 9.1188000000e+01 1.0458e-14 0.0000e+00
  9990012  2    3    3    0    0 +4.9952710689e+00 +1.7667573739e+01 -3.6854743971e+00 7.2461585062e+01 7.0000019238e+01 6.3315e-04 0.0000e+00
      -11  1    4    4    0    0 +1.2361283699e+00 -1.1097262742e+01 +5.7764688982e+00 1.2571588878e+01 5.1100000000e-04 0.0000e+00 1.0000e+00
       11  1    4    4    0    0 +2.0073720372e+01 -1.9124273044e+00 -1.4423189539e+01 2.4791934666e+01 5.1100000000e-04 0.0000e+00 -1.0000e+00
       12  1    4    4    0    0 -1.6314577673e+01 +3.0677263786e+01 +4.9612462435e+00 3.5098061518e+01 0.0000000000e+00 0.0000e+00 -1.0000e+00
      -12  1    3    3    0    0 -4.9952710689e+00 -1.7667573739e+01 +3.6854743971e+00 1.8726414938e+01 0.0000000000e+00 0.0000e+00 1.0000e+00
</event>
<event>
 9      3 +1.0086356e-04 9.11880000e+01 7.81616400e-03 1.18400000e-01
      -11 -1    0    0    0    0 +0.0000000000e+00 +0.0000000000e+00 +4.5593999997e+01 4.5594000000e+01 5.1100000000e-04 0.0000e+00 1.0000e+00
       11 -1    0    0    0    0 -0.0000000000e+00 -0.0000000000e+00 -4.5593999997e+01 4.5594000000e+01 5.1100000000e-04 0.0000e+00 -1.0000e+00
       23  2    1    2    0    0 +0.0000000000e+00 +0.0000000000e+00 +1.1379786002e-15 9.1188000000e+01 9.1188000000e+01 1.4637e-13 0.0000e+00
  9990012  2    3    3    0    0 +8.6001899700e+00 +1.6633199377e+01 +2.3046500381e-01 7.2461556046e+01 6.9999981439e+01 3.4829e-05 0.0000e+00
       24  2    4    4    0    0 +1.5086963794e+01 +1.2948189424e+01 +1.2606055666e+00 6.4930372684e+01 6.1798803262e+01 5.1943e-14 0.0000e+00
      -11  1    5    5    0    0 +1.1376260356e+01 +2.4737855011e+01 +2.5764436712e+01 3.7485823581e+01 5.1100000000e-04 0.0000e+00 1.0000e+00
       11  1    4    4    0    0 -6.4867738239e+00 +3.6850099530e+00 -1.0301405628e+00 7.5311833623e+00 5.1100000000e-04 0.0000e+00 -1.0000e+00
       12  1    5    5    0    0 +3.7107034379e+00 -1.1789665587e+01 -2.4503831145e+01 2.7444549103e+01 0.0000000000e+00 0.0000e+00 -1.0000e+00
      -12  1    3    3    0    0 -8.6001899700e+00 -1.6633199377e+01 -2.3046500381e-01 1.8726443954e+01 0.0000000000e+00 0.0000e+00 1.0000e+00
</event>
<event>
 8      3 +1.0086356e-04 9.11880000e+01 7.81616400e-03 1.18400000e-01
      -11 -1    0    0    0    0 +0.0000000000e+00 +0.0000000000e+00 +4.5593999997e+01 4.5594000000e+01 5.1100000000e-04 0.0000e+00 -1.0000e+00
       11 -1    0    0    0    0 -0.0000000000e+00 -0.0000000000e+00 -4.5593999997e+01 4.5594000000e+01 5.1100000000e-04 0.0000e+00 1.0000e+00
       23  2    1    2    0    0 -2.6367796835e-16 -3.5527136788e-15 +0.0000000000e+00 9.1188000000e+01 9.1188000000e+01 3.2004e-14 0.0000e+00
  9990012  2    3    3    0    0 -1.0504903969e-01 +1.6731288556e+01 +8.4112266335e+00 7.2461126649e+01 6.9999422067e+01 7.7274e-06 0.0000e+00
      -11  1    4    4    0    0 +1.2235706882e+00 +2.0452441477e+01 -1.6601984737e+01 2.6370919307e+01 5.1100000000e-04 0.0000e+00 1.0000e+00
       11  1    4    4    0    0 -6.1875623874e+00 -1.9275244185e+01 +2.1283211120e+01 2.9373390041e+01 5.1100000000e-04 0.0000e+00 -1.0000e+00
       12  1    4    4    0    0 +4.8589426595e+00 +1.5554091263e+01 +3.7300002509e+00 1.6716817301e+01 0.0000000000e+00 0.0000e+00 -1.0000e+00
      -12  1    3    3    0    0 +1.0504903969e-01 -1.6731288556e+01 -8.4112266335e+00 1.8726873351e+01 0.0000000000e+00 0.0000e+00 1.0000e+00
</event>
<event>
 8      4 +1.0086356e-04 9.11880000e+01 7.81616400e-03 1.18400000e-01
      -11 -1    0    0    0    0 +0.0000000000e+00 +0.0000000000e+00 +4.5593999997e+01 4.5594000000e+01 5.1100000000e-04 0.0000e+00 -1.0000e+00
       11 -1    0    0    0    0 -0.0000000000e+00 -0.0000000000e+00 -4.5593999997e+01 4.5594000000e+01 5.1100000000e-04 0.0000e+00 1.0000e+00
       23  2    1    2    0    0 +0.0000000000e+00 +0.0000000000e+00 +0.0000000000e+00 9.1188000000e+01 9.1188000000e+01 8.1693e-14 0.0000e+00
 -9990012  2    3    3    0    0 -4.9074998770e+00 +1.7186693512e+01 -5.5870152811e+00 7.2461528665e+01 6.9999945770e+01 2.1165e-05 0.0000e+00
      -11  1    4    4    0    0 +1.0571777634e+01 +1.9094087986e+00 +8.6632372226e+00 1.3800724754e+01 5.1100000000e-04 0.0000e+00 1.0000e+00
       11  1    4    4    0    0 -1.0236808379e+01 -8.7916696439e+00 +1.5161102325e+01 2.0296421480e+01 5.1100000000e-04 0.0000e+00 -1.0000e+00
      -12  1    4    4    0    0 -5.2424691323e+00 +2.4068954357e+01 -2.9411354828e+01 3.8364382431e+01 0.0000000000e+00 0.0000e+00 1.0000e+00
       12  1    3    3    0    0 +4.9074998770e+00 -1.7186693512e+01 +5.5870152811e+00 1.8726471335e+01 0.0000000000e+00 0.0000e+00 -1.0000e+00
</event>
<event>
 9      4 +1.0086356e-04 9.11880000e+01 7.81616400e-03 1.18400000e-01
      -11 -1    0    0    0    0 +0.0000000000e+00 +0.0000000000e+00 +4.5593999997e+01 4.5594000000e+01 5.1100000000e-04 0.0000e+00 1.0000e+00
       11 -1    0    0    0    0 -0.0000000000e+00 -0.0000000000e+00 -4.5593999997e+01 4.5594000000e+01 5.1100000000e-04 0.0000e+00 -1.0000e+00
       23  2    1    2    0    0 -1.7763568394e-15 +1.7763568394e-15 +0.0000000000e+00 9.1188000000e+01 9.1188000000e+01 1.7067e-13 0.0000e+00
 -9990012  2    3    3    0    0 +1.0129487685e+01 -1.1002124455e+01 +1.1270949821e+01 7.2461345917e+01 6.9999707706e+01 1.1539e-04 0.0000e+00
      -24  2    4    4    0    0 +1.1874178305e+01 -1.7738101006e+01 +2.6268201891e+00 6.1364575990e+01 5.7472381754e+01 1.3345e-14 0.0000e+00
      -11  1    4    4    0    0 -1.7446906204e+00 +6.7359765510e+00 +8.6441296319e+00 1.1096769927e+01 5.1100000000e-04 0.0000e+00 1.0000e+00
       11  1    5    5    0    0 -1.9121855047e+00 -5.3638712450e-01 -2.5528634088e+01 2.5605767382e+01 5.1100000000e-04 0.0000e+00 -1.0000e+00
      -12  1    5    5    0    0 +1.3786363810e+01 -1.7201713881e+01 +2.8155454277e+01 3.5758808608e+01 0.0000000000e+00 0.0000e+00 1.0000e+00
       12  1    3    3    0    0 -1.0129487685e+01 +1.1002124455e+01 -1.1270949821e+01 1.8726654083e+01 0.0000000000e+00 0.0000e+00 -1.0000e+00
</event>
<event>
 8      4 +1.0086356e-04 9.11880000e+01 7.81616400e-03 1.18400000e-01
      -11 -1    0    0    0    0 +0.0000000000e+00 +0.0000000000e+00 +4.5593999997e+01 4.5594000000e+01 5.1100000000e-04 0.0000e+00 -1.0000e+00
       11 -1    0    0    0    0 -0.0000000000e+00 -0.0000000000e+00 -4.5593999997e+01 4.5594000000e+01 5.1100000000e-04 0.0000e+00 1.0000e+00
       23  2    1    2    0    0 -2.4424906542e-15 +0.0000000000e+00 -8.8817841970e-16 9.1188000000e+01 9.1188000000e+01 8.6402e-14 0.0000e+00
 -9990012  2    3    3    0    0 -1.0497966344e+00 -1.8158446589e+01 -4.4548984091e+00 7.2461618200e+01 7.0000062406e+01 6.1391e-05 0.0000e+00
      -11  1    4    4    0    0 -1.6628210117e+01 +7.1040317839e+00 +6.7769547959e+00 1.9310405378e+01 5.1100000000e-04 0.0000e+00 1.0000e+00
       11  1    4    4    0    0 -1.1518635125e+01 +8.6238507627e-01 +4.4457465249e+00 1.2376886749e+01 5.1100000000e-04 0.0000e+00 -1.0000e+00
      -12  1    4    4    0    0 +2.7097048607e+01 -2.6124863449e+01 -1.5677599730e+01 4.0774326074e+01 0.0000000000e+00 0.0000e+00 1.0000e+00
       12  1    3    3    0    0 +1.0497966344e+00 +1.8158446589e+01 +4.4548984091e+00 1.8726381800e+01 0.0000000000e+00 0.0000e+00 -1.0000e+00
</event>
<event>
 9      4 +1.0086356e-04 9.11880000e+01 7.81616400e-03 1.18400000e-01
      -11 -1    0    0    0    0 +0.0000000000e+00 +0.0000000000e+00 +4.5593999997e+01 4.5594000000e+01 5.1100000000e-04 0.0000e+00 -1.0000e+00
       11 -1    0    0    0    0 -0.0000000000e+00 -0.0000000000e+00 -4.5593999997e+01 4.5594000000e+01 5.1100000000e-04 0.0000e+00 1.0000e+00
       23  2    1    2    0    0 +0.0000000000e+00 +8.8817841970e-16 -2.7755575616e-16 9.1188000000e+01 9.1188000000e+01 3.4576e-14 0.0000e+00
 -9990012  2    3    3    0    0 +1.8272483326e+01 +4.0966943244e+00 -1.2871782343e-01 7.2461464828e+01 6.9999862610e+01 1.9968e-06 0.0000e+00
      -24  2    4    4    0    0 +2.6928185367e+01 -3.0162950715e+00 +8.2991057154e+00 5.8442049510e+01 5.1111376348e+01 4.4632e-14 0.0000e+00
      -11  1    4    4    0    0 -8.6557020412e+00 +7.1129893959e+00 -8.4278235389e+00 1.4019415317e+01 5.1100000000e-04 0.0000e+00 1.0000e+00
       11  1    5    5    0    0 -1.3324666328e+01 -1.0410489019e+01 +3.0145563298e+00 1.7175929800e+01 5.1100000000e-04 0.0000e+00 -1.0000e+00
      -12  1    5    5    0    0 +4.0252851695e+01 +7.3941939474e+00 +5.2845493857e+00 4.1266119710e+01 0.0000000000e+00 0.0000e+00 1.0000e+00
       12  1    3    3    0    0 -1.8272483326e+01 -4.0966943244e+00 +1.2871782343e-01 1.8726535172e+01 0.0000000000e+00 0.0000e+00 -1.0000e+00
</event>
<event>
 8      4 +1.0086356e-04 9.11880000e+01 7.81616400e-03 1.18400000e-01
      -11 -1    0    0    0    0 +0.0000000000e+00 +0.0000000000e+00 +4.5593999997e+01 4.5594000000e+01 5.1100000000e-04 0.0000e+00 -1.0000e+00
       11 -1    0    0    0    0 -0.0000000000e+00 -0.0000000000e+00 -4.5593999997e+01 4.5594000000e+01 5.1100000000e-04 0.0000e+00 1.0000e+00
       23  2    1    2    0    0 +4.4408920985e-16 +0.0000000000e+00 -1.7763568394e-15 9.1188000000e+01 9.1188000000e+01 3.9301e-14 0.0000e+00
 -9990012  2    3    3    0    0 +1.1935131855e+00 -1.2383520496e+01 -1.3996548247e+01 7.2461563702e+01 6.9999991412e+01 4.1287e-04 0.0000e+00
      -11  1    4    4    0    0 -1.0378285438e+01 -2.0318182451e+01 -6.7897323388e-01 2.2825388313e+01 5.1100000000e-04 0.0000e+00 1.0000e+00
       11  1    4    4    0    0 -1.3120437628e+01 -4.2704598401e+00 +6.9399914966e+00 1.5444940693e+01 5.1100000000e-04 0.0000e+00 -1.0000e+00
      -12  1    4    4    0    0 +2.4692236251e+01 +1.2205121795e+01 -2.0257566509e+01 3.4191234695e+01 0.0000000000e+00 0.0000e+00 1.0000e+00
       12  1    3    3    0    0 -1.1935131855e+00 +1.2383520496e+01 +1.3996548247e+01 1.8726436298e+01 0.0000000000e+00 0.0000e+00 -1.0000e+00
</event>
<event>
 9      3 +1.0086356e-04 9.11880000e+01 7.81616400e-03 1.18400000e-01
      -11 -1    0    0    0    0 +0.0000000000e+00 +0.0000000000e+00 +4.5593999997e+01 4.5594000000e+01 5.1100000000e-04 0.0000e+00 -1.0000e+00
       11 -1    0    0    0    0 -0.0000000000e+00 -0.0000000000e+00 -4.5593999997e+01 4.5594000000e+01 5.1100000000e-04 0.0000e+00 1.0000e+00
       23  2    1    2    0    0 +3.5527136788e-15 +8.8817841970e-16 -1.7763568394e-15 9.1188000000e+01 9.1188000000e+01 3.3272e-15 0.0000e+00
  9990012  2    3    3    0    0 -1.6098391918e+01 +3.7620555435e-01 +9.5592670974e+00 7.2461565731e+01 6.9999994056e+01 1.2714e-05 0.0000e+00
       24  2    4    4    0    0 -2.2898864474e+01 +9.1255731675e+00 +1.7012594711e+01 5.9106793049e+01 5.0956359033e+01 1.0917e-14 0.0000e+00
      -11  1    5    5    0    0 +8.1292846294e-01 -1.8763675829e+01 +9.9085539856e-02 1.8781538848e+01 5.1100000000e-04 0.0000e+00 1.0000e+00
       11  1    4    4    0    0 +6.8004725559e+00 -8.7493676131e+00 -7.4533276137e+00 1.3354772682e+01 5.1100000000e-04 0.0000e+00 -1.0000e+00
       12  1    5    5    0    0 -2.3711792937e+01 +2.7889248996e+01 +1.6913509171e+01 4.0325254201e+01 0.0000000000e+00 0.0000e+00 -1.0000e+00
      -12  1    3    3    0    0 +1.6098391918e+01 -3.7620555435e-01 -9.5592670974e+00 1.8726434269e+01 0.0000000000e+00 0.0000e+00 1.0000e+00
</event>
<event>
 9      3 +1.0086356e-04 9.11880000e+01 7.81616400e-03 1.18400000e-01
      -11 -1    0    0    0    0 +0.0000000000e+00 +0.0000000000e+00 +4.5593999997e+01 4.5594000000e+01 5.1100000000e-04 0.0000e+00 1.0000e+00
       11 -1    0    0    0    0 -0.0000000000e+00 -0.0000000000e+00 -4.5593999997e+01 4.5594000000e+01 5.1100000000e-04 0.0000e+00 -1.0000e+00
       23  2    1    2    0    0 -2.6645352591e-15 +1.7763568394e-15 +0.0000000000e+00 9.1188000000e+01 9.1188000000e+01 3.0028e-14 0.0000e+00
  9990012  2    3    3    0    0 +6.8443758671e+00 -1.4361036310e+01 -9.8790121981e+00 7.2461555412e+01 6.9999980613e+01 1.3282e-04 0.0000e+00
       24  2    4    4    0    0 -9.2085853770e+00 -1.1646943116e+01 -3.4289007592e+00 5.4949622212e+01 5.2794453234e+01 9.8898e-14 0.0000e+00
      -11  1    5    5    0    0 +1.0455896281e+00 -2.7854489824e+01 -1.5883095673e+01 3.2081748540e+01 5.1100000000e-04 0.0000e+00 1.0000e+00
       11  1    4    4    0    0 +1.6052961244e+01 -2.7140931937e+00 -6.4501114389e+00 1.7511933200e+01 5.1100000000e-04 0.0000e+00 -1.0000e+00
       12  1    5    5    0    0 -1.0254175005e+01 +1.6207546708e+01 +1.2454194914e+01 2.2867873672e+01 0.0000000000e+00 0.0000e+00 -1.0000e+00
      -12  1    3    3    0    0 -6.8443758671e+00 +1.4361036310e+01 +9.8790121981e+00 1.8726444588e+01 0.0000000000e+00 0.0000e+00 1.0000e+00
</event>
<event>
 8      3 +1.0086356e-04 9.11880000e+01 7.81616400e-03 1.18400000e-01
      -11 -1    0    0    0    0 +0.0000000000e+00 +0.0000000000e+00 +4.5593999997e+01 4.5594000000e+01 5.1100000000e-04 0.0000e+00 -1.0000e+00
       11 -1    0    0    0    0 -0.0000000000e+00 -0.0000000000e+00 -4.5593999997e+01 4.5594000000e+01 5.1100000000e-04 0.0000e+00 1.0000e+00
       23  2    1    2    0    0 +0.0000000000e+00 -8.8817841970e-16 +1.1102230246e-15 9.1188000000e+01 9.1188000000e+01 8.9020e-14 0.0000e+00
  9990012  2    3    3    0    0 +1.8163205817e+01 +4.2872224734e+00 -1.5481655208e+00 7.2461571121e+01 7.0000001076e+01 2.3566e-05 0.0000e+00
      -11  1    4    4    0    0 +2.7779028646e+01 -1.3590384600e+01 +1.0210096958e+01 3.2567147039e+01 5.1100000000e-04 0.0000e+00 -1.0000e+00
       11  1    4    4    0    0 +5.2051984172e+00 +2.1879739186e+01 -9.3425821881e+00 2.4353663371e+01 5.1100000000e-04 0.0000e+00 1.0000e+00
       12  1    4    4    0    0 -1.4821021246e+01 -4.0021321121e+00 -2.4156802909e+00 1.5540760711e+01 0.0000000000e+00 0.0000e+00 -1.0000e+00
      -12  1    3    3    0    0 -1.8163205817e+01 -4.2872224734e+00 +1.5481655208e+00 1.8726428879e+01 0.0000000000e+00 0.0000e+00 1.0000e+00
</event>
<event>
 8      4 +1.0086356e-04 9.11880000e+01 7.81616400e-03 1.18400000e-01
      -11 -1    0    0    0    0 +0.0000000000e+00 +0.0000000000e+00 +4.5593999997e+01 4.5594000000e+01 5.1100000000e-04 0.0000e+00 -1.0000e+00
       11 -1    0    0    0    0 -0.0000000000e+00 -0.0000000000e+00 -4.5593999997e+01 4.5594000000e+01 5.1100000000e-04 0.0000e+00 1.0000e+00
       23  2    1    2    0    0 +0.0000000000e+00 +0.0000000000e+00 +1.7763568394e-15 9.1188000000e+01 9.1188000000e+01 5.9361e-15 0.0000e+00
 -9990012  2    3    3    0    0 +1.7713287284e+01 +1.0509467581e+00 +5.9845525117e+00 7.2461550676e+01 6.9999974444e+01 2.1937e-04 0.0000e+00
      -11  1    4    4    0    0 +5.2299280541e+00 +7.9539556046e+00 +1.2715109659e+01 1.5883688838e+01 5.1100000000e-04 0.0000e+00 1.0000e+00
       11  1    4    4    0    0 -1.8032714656e+01 +7.6313247125e+00 -1.1080187299e+01 2.2498588080e+01 5.1100000000e-04 0.0000e+00 -1.0000e+00
      -12  1    4    4    0    0 +3.0516073886e+01 -1.4534333559e+01 +4.3496301515e+00 3.4079273758e+01 0.0000000000e+00 0.0000e+00 1.0000e+00
       12  1    3    3    0    0 -1.7713287284e+01 -1.0509467581e+00 -5.9845525117e+00 1.8726449324e+01 0.0000000000e+00 0.0000e+00 -1.0000e+00
</event>
<event>
 8      3 +1.0086356e-04 9.11880000e+01 7.81616400e-03 1.18400000e-01
      -11 -1    0    0    0    0 +0.0000000000e+00 +0.0000000000e+00 +4.5593999997e+01 4.5594000000e+01 5.1100000000e-04 0.0000e+00 -1.0000e+00
       11 -1    0    0    0    0 -0.0000000000e+00 -0.0000000000e+00 -4.5593999997e+01 4.5594000000e+01 5.1100000000e-04 0.0000e+00 1.0000e+00
       23  2    1    2    0    0 +0.0000000000e+00 +3.5527136788e-15 -1.7763568394e-15 9.1188000000e+01 9.1188000000e+01 2.5931e-13 0.0000e+00
  9990012  2    3    3    0    0 +1.1025677684e+01 -1.1796654545e+01 +9.4843049487e+00 7.2461583707e+01 7.0000017472e+01 1.1156e-04 0.0000e+00
      -11  1    4    4    0    0 +1.8126906594e+01 -3.0708748694e+00 +2.8970859448e+00 1.8612042401e+01 5.1100000000e-04 0.0000e+00 1.0000e+00
       11  1    4    4    0    0 -1.0106713483e+01 -2.7045642182e+01 +1.6027285352e+01 3.3022511934e+01 5.1100000000e-04 0.0000e+00 -1.0000e+00
       12  1    4    4    0    0 +3.0054845724e+00 +1.8319862506e+01 -9.4400663481e+00 2.0827029371e+01 0.0000000000e+00 0.0000e+00 -1.0000e+00
      -12  1    3    3    0    0 -1.1025677684e+01 +1.1796654545e+01 -9.4843049487e+00 1.8726416293e+01 0.0000000000e+00 0.0000e+00 1.0000e+00
</event>
<event>
 8      3 +1.0086356e-04 9.11880000e+01 7.81616400e-03 1.18400000e-01
      -11 -1    0    0    0    0 +0.0000000000e+00 +0.0000000000e+00 +4.5593999997e+01 4.5594000000e+01 5.1100000000e-04 0.0000e+00 1.0000e+00
       11 -1    0    0    0    0 -0.0000000000e+00 -0.0000000000e+00 -4.5593999997e+01 4.5594000000e+01 5.1100000000e-04 0.0000e+00 -1.0000e+00
       23  2    1    2    0    0 -4.4408920985e-16 +0.0000000000e+00 +3.5527136788e-15 9.1188000000e+01 9.1188000000e+01 3.3973e-14 0.0000e+00
  9990012  2    3    3    0    0 -2.1062211680e+00 +4.2799955235e+00 -1.8108426057e+01 7.2461825176e+01 7.0000332030e+01 1.6090e-04 0.0000e+00
      -11  1    4    4    0    0 +1.5369917891e+01 -2.3202173750e+01 -7.2486780265e+00 2.8759669262e+01 5.1100000000e-04 0.0000e+00 1.0000e+00
       11  1    4    4    0    0 -4.2453230518e+00 +1.8146774935e+01 -1.8086329569e+01 2.5970050556e+01 5.1100000000e-04 0.0000e+00 -1.0000e+00
       12  1    4    4    0    0 -1.3230816007e+01 +9.3353943385e+00 +7.2265815391e+00 1.7732105358e+01 0.0000000000e+00 0.0000e+00 -1.0000e+00
      -12  1    3    3    0    0 +2.1062211680e+00 -4.2799955235e+00 +1.8108426057e+01 1.8726174824e+01 0.0000000000e+00 0.0000e+00 1.0000e+00
</event>
<event>
 9      3 +1.0086356e-04 9.11880000e+01 7.81616400e-03 1.18400000e-01
      -11 -1    0    0    0    0 +0.0000000000e+00 +0.0000000000e+00 +4.5593999997e+01 4.5594000000e+01 5.1100000000e-04 0.0000e+00 1.0000e+00
       11 -1    0    0    0    0 -0.0000000000e+00 -0.0000000000e+00 -4.5593999997e+01 4.5594000000e+01 5.1100000000e-04 0.0000e+00 -1.0000e+00
       23  2    1    2    0    0 -1.3322676296e-15 +0.0000000000e+00 +0.0000000000e+00 9.1188000000e+01 9.1188000000e+01 2.2423e-14 0.0000e+00
  9990012  2    3    3    0    0 +3.3225625963e+00 +6.6421420611e+00 -1.7190732584e+01 7.2461581225e+01 7.0000014239e+01 4.1864e-04 0.0000e+00
       24  2    4    4    0    0 +1.0866361680e+01 +3.5080533889e+00 -1.6636421174e+01 6.4273866170e+01 6.1024381261e+01 1.5313e-13 0.0000e+00
      -11  1    5    5    0    0 -2.0461219693e+01 +8.4032944354e+00 +8.6167171635e+00 2.3738674850e+01 5.1100000000e-04 0.0000e+00 1.0000e+00
       11  1    4    4    0    0 -7.5437990832e+00 +3.1340886722e+00 -5.5431141005e-01 8.1877150545e+00 5.1100000000e-04 0.0000e+00 -1.0000e+00
       12  1    5    5    0    0 +3.1327581372e+01 -4.8952410465e+00 -2.5253138337e+01 4.0535191321e+01 0.0000000000e+00 0.0000e+00 -1.0000e+00
      -12  1    3    3    0    0 -3.3225625963e+00 -6.6421420611e+00 +1.7190732584e+01 1.8726418775e+01 0.0000000000e+00 0.0000e+00 1.0000e+00
</event>
<event>
 8      3 +1.0086356e-04 9.11880000e+01 7.81616400e-03 1.18400000e-01
      -11 -1    0    0    0    0 +0.0000000000e+00 +0.0000000000e+00 +4.5593999997e+01 4.5594000000e+01 5.1100000000e-04 0.0000e+00 -1.0000e+00
       11 -1    0    0    0    0 -0.0000000000e+00 -0.0000000000e+00 -4.5593999997e+01 4.5594000000e+01 5.1100000000e-04 0.0000e+00 1.0000e+00
       23  2    1    2    0    0 +7.1054273576e-15 -4.4408920985e-16 +0.0000000000e+00 9.1188000000e+01 9.1188000000e+01 1.5813e-13 0.0000e+00
  9990012  2    3    3    0    0 -1.6559178430e+01 -3.1205377130e+00 -8.1691955542e+00 7.2461550740e+01 6.9999974527e+01 3.1011e-06 0.0000e+00
      -11  1    4    4    0    0 -2.7111509459e+01 +1.0303026571e+01 -1.9928566267e+01 3.5189970949e+01 5.1100000000e-04 0.0000e+00 1.0000e+00
       11  1    4    4    0    0 -1.0830506115e+01 -3.0772307766e+00 +6.2847332409e+00 1.2894459436e+01 5.1100000000e-04 0.0000e+00 -1.0000e+00
       12  1    4    4    0    0 +2.1382837144e+01 -1.0346333507e+01 +5.4746374717e+00 2.4377120356e+01 0.0000000000e+00 0.0000e+00 -1.0000e+00
      -12  1    3    3    0    0 +1.6559178430e+01 +3.1205377130e+00 +8.1691955542e+00 1.8726449260e+01 0.0000000000e+00 0.0000e+00 1.0000e+00
</event>
<event>
 9      4 +1.0086356e-04 9.11880000e+01 7.81616400e-03 1.18400000e-01
      -11 -1    0    0    0    0 +0.0000000000e+00 +0.0000000000e+00 +4.5593999997e+01 4.5594000000e+01 5.1100000000e-04 0.0000e+00 -1.0000e+00
       11 -1    0    0    0    0 -0.0000000000e+00 -0.0000000000e+00 -4.5593999997e+01 4.5594000000e+01 5.1100000000e-04 0.0000e+00 1.0000e+00
       23  2    1    2    0    0 +0.0000000000e+00 +0.0000000000e+00 +0.0000000000e+00 9.1188000000e+01 9.1188000000e+01 1.6783e-13 0.0000e+00
 -9990012  2    3    3    0    0 +9.0087846610e+00 +1.0906671391e+01 -1.2270515356e+01 7.2461568706e+01 6.9999997931e+01 2.0171e-05 0.0000e+00
      -24  2    4    4    0    0 +3.4389003847e+00 +2.0335684206e+00 -1.2122856574e+01 6.1984099043e+01 6.0655613477e+01 5.3364e-15 0.0000e+00
      -11  1    4    4    0    0 +5.5698842763e+00 +8.8731029704e+00 -1.4765878139e-01 1.0477469664e+01 5.1100000000e-04 0.0000e+00 1.0000e+00
       11  1    5    5    0    0 -4.0750727709e+00 +2.2020545222e+01 +1.5378649897e+01 2.7166403937e+01 5.1100000000e-04 0.0000e+00 -1.0000e+00
      -12  1    5    5    0    0 +7.5139731557e+00 -1.9986976802e+01 -2.7501506471e+01 3.4817695105e+01 0.0000000000e+00 0.0000e+00 1.0000e+00
       12  1    3    3    0    0 -9.0087846610e+00 -1.0906671391e+01 +1.2270515356e+01 1.8726431294e+01 0.0000000000e+00 0.0000e+00 -1.0000e+00
</event>
<event>
 8      3 +1.0086356e-04 9.11880000e+01 7.81616400e-03 1.18400000e-01
      -11 -1    0    0    0    0 +0.0000000000e+00 +0.0000000000e+00 +4.5593999997e+01 4.5594000000e+01 5.1100000000e-04 0.0000e+00 1.0000e+00
       11 -1    0    0    0    0 -0.0000000000e+00 -0.0000000000e+00 -4.5593999997e+01 4.5594000000e+01 5.1100000000e-04 0.0000e+00 -1.0000e+00
       23  2    1    2    0    0 +1.7763568394e-15 +3.5527136788e-15 -1.7763568394e-15 9.1188000000e+01 9.1188000000e+01 2.3988e-14 0.0000e+00
  9990012  2    3    3    0    0 +1.4879876400e+01 +8.3411807087e+00 -7.7261600157e+00 7.2461559711e+01 6.9999986214e+01 1.2068e-03 0.0000e+00
      -11  1    4    4    0    0 +2.4016020992e+01 -4.0815230139e+00 +6.5130692386e+00 2.5216029933e+01 5.1100000000e-04 0.0000e+00 1.0000e+00
       11  1    4    4    0    0 +1.5111247360e+00 -1.3787489256e+01 -1.2871372984e+01 1.8922225047e+01 5.1100000000e-04 0.0000e+00 -1.0000e+00
       12  1    4    4    0    0 -1.0647269328e+01 +2.6210192979e+01 -1.3678562700e+00 2.8323304731e+01 0.0000000000e+00 0.0000e+00 -1.0000e+00
      -12  1    3    3    0    0 -1.4879876400e+01 -8.3411807087e+00 +7.7261600157e+00 1.8726440289e+01 0.0000000000e+00 0.0000e+00 1.0000e+00
</event>
<event>
 9      1 +1.0086356e-04 9.11880000e+01 7.81616400e-03 1.18400000e-01
      -11 -1    0    0    0    0 +0.0000000000e+00 +0.0000000000e+00 +4.5593999997e+01 4.5594000000e+01 5.1100000000e-04 0.0000e+00 -1.0000e+00
       11 -1    0    0    0    0 -0.0000000000e+00 -0.0000000000e+00 -4.5593999997e+01 4.5594000000e+01 5.1100000000e-04 0.0000e+00 1.0000e+00
       23  2    1    2    0    0 +0.0000000000e+00 -8.8817841970e-16 +0.0000000000e+00 9.1188000000e+01 9.1188000000e+01 2.5499e-13 0.0000e+00
  9990012  2    3    3    0    0 -1.4339901990e+01 -1.2459842044e+00 +1.1978884342e+01 7.2461576535e+01 7.0000008129e+01 1.9732e-04 0.0000e+00
       23  2    4    4    0    0 -1.6329333422e+01 -5.3575713631e+00 +2.4983472892e+00 6.1938099486e+01 5.9453643520e+01 2.3215e-13 0.0000e+00
      -11  1    5    5    0    0 -2.1173846620e+01 +2.0564092343e+01 +1.4592542634e+01 3.2926523888e+01 5.1100000000e-04 0.0000e+00 1.0000e+00
       11  1    5    5    0    0 +4.8445131972e+00 -2.5921663706e+01 -1.2094195344e+01 2.9011575598e+01 5.1100000000e-04 0.0000e+00 -1.0000e+00
       12  1    4    4    0    0 +1.9894314324e+00 +4.1115871587e+00 +9.4805370528e+00 1.0523477049e+01 0.0000000000e+00 0.0000e+00 -1.0000e+00
      -12  1    3    3    0    0 +1.4339901990e+01 +1.2459842044e+00 -1.1978884342e+01 1.8726423465e+01 0.0000000000e+00 0.0000e+00 1.0000e+00
</event>
<event>
 9      3 +1.0086356e-04 9.11880000e+01 7.81616400e-03 1.18400000e-01
      -11 -1    0    0    0    0 +0.0000000000e+00 +0.0000000000e+00 +4.5593999997e+01 4.5594000000e+01 5.1100000000e-04 0.0000e+00 1.0000e+00
       11 -1    0    0    0    0 -0.0000000000e+00 -0.0000000000e+00 -4.5593999997e+01 4.5594000000e+01 5.1100000000e-04 0.0000e+00 -1.0000e+00
       23  2    1    2    0    0 +0.0000000000e+00 -8.8817841970e-16 +0.0000000000e+00 9.1188000000e+01 9.1188000000e+01 2.6581e-13 0.0000e+00
  9990012  2    3    3    0    0 +1.8368704958e+01 +3.6250250741e+00 -3.6004582544e-01 7.2461554485e+01 6.9999979405e+01 2.0999e-04 0.0000e+00
       24  2    4    4    0    0 +1.7563080808e+01 +1.0620561227e+01 -4.9918911567e+00 6.4032998988e+01 6.0448720861e+01 8.4467e-14 0.0000e+00
      -11  1    5    5    0    0 -2.0317030075e+00 +3.3172676502e+01 +2.1877939256e+00 3.3306766969e+01 5.1100000000e-04 0.0000e+00 1.0000e+00
       11  1    4    4    0    0 +8.0562414973e-01 -6.9955361529e+00 +4.6318453312e+00 8.4285554973e+00 5.1100000000e-04 0.0000e+00 -1.0000e+00
       12  1    5    5    0    0 +1.9594783816e+01 -2.2552115275e+01 -7.1796850822e+00 3.0726232018e+01 0.0000000000e+00 0.0000e+00 -1.0000e+00
      -12  1    3    3    0    0 -1.8368704958e+01 -3.6250250741e+00 +3.6004582544e-01 1.8726445515e+01 0.0000000000e+00 0.0000e+00 1.0000e+00
</event>
<event>
 8      3 +1.0086356e-04 9.11880000e+01 7.81616400e-03 1.18400000e-01
      -11 -1    0    0    0    0 +0.0000000000e+00 +0.0000000000e+00 +4.5593999997e+01 4.5594000000e+01 5.1100000000e-04 0.0000e+00 1.0000e+00
       11 -1    0    0    0    0 -0.0000000000e+00 -0.0000000000e+00 -4.5593999997e+01 4.5594000000e+01 5.1100000000e-04 0.0000e+00 -1.0000e+00
       23  2    1    2    0    0 +0.0000000000e+00 +8.8817841970e-16 +0.0000000000e+00 9.1188000000e+01 9.1188000000e+01 2.0785e-13 0.0000e+00
  9990012  2    3    3    0    0 -6.2278853432e+00 -5.6994837259e+00 -1.6715432022e+01 7.2461645890e+01 7.0000098477e+01 4.1556e-05 0.0000e+00
      -11  1    4    4    0    0 +1.3352269003e+00 -1.7691363332e+01 -2.4681959265e-01 1.7743395605e+01 5.1100000000e-04 0.0000e+00 1.0000e+00
       11  1    4    4    0    0 +1.1218340996e+01 -1.3741710985e+01 -1.4301160834e+01 2.2786158012e+01 5.1100000000e-04 0.0000e+00 -1.0000e+00
       12  1    4    4    0    0 -1.8781453239e+01 +2.5733590591e+01 -2.1674515953e+00 3.1932092273e+01 0.0000000000e+00 0.0000e+00 -1.0000e+00
      -12  1    3    3    0    0 +6.2278853432e+00 +5.6994837259e+00 +1.6715432022e+01 1.8726354110e+01 0.0000000000e+00 0.0000e+00 1.0000e+00
</event>
<event>
 9      2 +1.0086356e-04 9.11880000e+01 7.81616400e-03 1.18400000e-01
      -11 -1    0    0    0    0 +0.0000000000e+00 +0.0000000000e+00 +4.5593999997e+01 4.5594000000e+01 5.1100000000e-04 0.0000e+00 1.0000e+00
       11 -1    0    0    0    0 -0.0000000000e+00 -0.0000000000e+00 -4.5593999997e+01 4.5594000000e+01 5.1100000000e-04 0.0000e+00 -1.0000e+00
       23  2    1    2    0    0 +1.7763568394e-15 -1.7763568394e-15 +0.0000000000e+00 9.1188000000e+01 9.1188000000e+01 3.2864e-15 0.0000e+00
 -9990012  2    3    3    0    0 -1.0060343877e+01 -7.3772734590e+00 +1.3965769378e+01 7.2461617623e+01 7.0000061655e+01 3.2618e-04 0.0000e+00
       23  2    4    4    0    0 -6.9937792843e+00 -1.5425689454e+01 +1.7816230300e+01 6.3027272509e+01 5.8035800796e+01 2.4261e-13 0.0000e+00
      -11  1    5    5    0    0 -3.4050307953e+00 -3.3538808396e+01 +2.6251202230e+01 4.2726707363e+01 5.1100000000e-04 0.0000e+00 1.0000e+00
       11  1    5    5    0    0 -3.5887484890e+00 +1.8113118942e+01 -8.4349719303e+00 2.0300565146e+01 5.1100000000e-04 0.0000e+00 -1.0000e+00
      -12  1    4    4    0    0 -3.0665645926e+00 +8.0484159946e+00 -3.8504609218e+00 9.4343451141e+00 0.0000000000e+00 0.0000e+00 1.0000e+00
       12  1    3    3    0    0 +1.0060343877e+01 +7.3772734590e+00 -1.3965769378e+01 1.8726382377e+01 0.0000000000e+00 0.0000e+00 -1.0000e+00
</event>
<event>
 9      3 +1.0086356e-04 9.11880000e+01 7.81616400e-03 1.18400000e-01
      -11 -1    0    0    0    0 +0.0000000000e+00 +0.0000000000e+00 +4.5593999997e+01 4.5594000000e+01 5.1100000000e-04 0.0000e+00 1.0000e+00
       11 -1    0    0    0    0 -0.0000000000e+00 -0.0000000000e+00 -4.5593999997e+01 4.5594000000e+01 5.1100000000e-04 0.0000e+00 -1.0000e+00
       23  2    1    2    0    0 +1.7763568394e-15 +0.0000000000e+00 +0.0000000000e+00 9.1188000000e+01 9.1188000000e+01 2.5102e-14 0.0000e+00
  9990012  2    3    3    0    0 -6.1617712131e+00 -1.7021468767e+01 -4.7939218247e+00 7.2461561206e+01 6.9999988160e+01 5.8865e-04 0.0000e+00
       24  2    4    4    0    0 -1.5541467498e+00 -2.1882433618e+01 -1.3287843308e+01 6.1644635353e+01 5.6055668892e+01 6.2213e-14 0.0000e+00
      -11  1    5    5    0    0 +1.3615664762e+01 +1.2124189229e+01 +6.6497837926e+00 1.9406233950e+01 5.1100000000e-04 0.0000e+00 1.0000e+00
       11  1    4    4    0    0 -4.6076244633e+00 +4.8609648512e+00 +8.4939214829e+00 1.0816925852e+01 5.1100000000e-04 0.0000e+00 -1.0000e+00
       12  1    5    5    0    0 -1.5169811512e+01 -3.4006622847e+01 -1.9937627100e+01 4.2238401403e+01 0.0000000000e+00 0.0000e+00 -1.0000e+00
      -12  1    3    3    0    0 +6.1617712131e+00 +1.7021468767e+01 +4.7939218247e+00 1.8726438794e+01 0.0000000000e+00 0.0000e+00 1.0000e+00
</event>
<event>
 9      4 +1.0086356e-04 9.11880000e+01 7.81616400e-03 1.18400000e-01
      -11 -1    0    0    0    0 +0.0000000000e+00 +0.0000000000e+00 +4.5593999997e+01 4.5594000000e+01 5.1100000000e-04 0.0000e+00 1.0000e+00
       11 -1    0    0    0    0 -0.0000000000e+00 -0.0000000000e+00 -4.5593999997e+01 4.5594000000e+01 5.1100000000e-04 0.0000e+00 -1.0000e+00
       23  2    1    2    0    0 +0.0000000000e+00 +0.0000000000e+00 -3.5527136788e-15 9.1188000000e+01 9.1188000000e+01 8.8041e-15 0.0000e+00
 -9990012  2    3    3    0    0 +1.4008987052e+01 -1.1144763372e+01 +5.4972589233e+00 7.2461619556e+01 7.0000064173e+01 9.8370e-05 0.0000e+00
      -24  2    4    4    0    0 +1.9444099825e+01 -1.4573946193e+01 +3.6574953663e+00 6.5776974773e+01 6.1014426264e+01 1.8793e-13 0.0000e+00
      -11  1    4    4    0    0 -5.4351127726e+00 +3.4291828208e+00 +1.8397635570e+00 6.6846447831e+00 5.1100000000e-04 0.0000e+00 1.0000e+00
       11  1    5    5    0    0 -4.8705350130e+00 +6.8730387363e+00 -2.2559910501e+01 2.4081327515e+01 5.1100000000e-04 0.0000e+00 -1.0000e+00
      -12  1    5    5    0    0 +2.4314634838e+01 -2.1446984930e+01 +2.6217405868e+01 4.1695647258e+01 0.0000000000e+00 0.0000e+00 1.0000e+00
       12  1    3    3    0    0 -1.4008987052e+01 +1.1144763372e+01 -5.4972589233e+00 1.8726380444e+01 0.0000000000e+00 0.0000e+00 -1.0000e+00
</event>
<event>
 8      3 +1.0086356e-04 9.11880000e+01 7.81616400e-03 1.18400000e-01
      -11 -1    0    0    0    0 +0.0000000000e+00 +0.0000000000e+00 +4.5593999997e+01 4.5594000000e+01 5.1100000000e-04 0.0000e+00 1.0000e+00
       11 -1    0    0    0    0 -0.0000000000e+00 -0.0000000000e+00 -4.5593999997e+01 4.5594000000e+01 5.1100000000e-04 0.0000e+00 -1.0000e+00
       23  2    1    2    0    0 -1.7763568394e-15 -4.4408920985e-16 +1.7763568394e-15 9.1188000000e+01 9.1188000000e+01 3.7287e-14 0.0000e+00
  9990012  2    3    3    0    0 +1.5995302001e+01 -1.8880063052e+00 -9.5533083832e+00 7.2461549323e+01 6.9999972681e+01 5.4551e-04 0.0000e+00
      -11  1    4    4    0    0 -8.9335354225e+00 +6.2852074249e+00 +1.1928648316e+00 1.0987939492e+01 5.1100000000e-04 0.0000e+00 1.0000e+00
       11  1    4    4    0    0 +6.8063995342e-01 -2.2435069139e+01 +1.1858632929e+01 2.5385483514e+01 5.1100000000e-04 0.0000e+00 -1.0000e+00
       12  1    4    4    0    0 +2.4248197470e+01 +1.4261855409e+01 -2.2604806144e+01 3.6088126317e+01 0.0000000000e+00 0.0000e+00 -1.0000e+00
      -12  1    3    3    0    0 -1.5995302001e+01 +1.8880063052e+00 +9.5533083832e+00 1.8726450677e+01 0.0000000000e+00 0.0000e+00 1.0000e+00
</event>
<event>
 9      3 +1.0086356e-04 9.11880000e+01 7.81616400e-03 1.18400000e-01
      -11 -1    0    0    0    0 +0.0000000000e+00 +0.0000000000e+00 +4.5593999997e+01 4.5594000000e+01 5.1100000000e-04 0.0000e+00 1.0000e+00
       11 -1    0    0    0    0 -0.0000000000e+00 -0.0000000000e+00 -4.5593999997e+01 4.5594000000e+01 5.1100000000e-04 0.0000e+00 -1.0000e+00
       23  2    1    2    0    0 +0.0000000000e+00 +1.7208456882e-15 +0.0000000000e+00 9.1188000000e+01 9.1188000000e+01 3.2839e-14 0.0000e+00
  9990012  2    3    3    0    0 -7.9491543911e+00 -1.8712899199e-01 -1.6954459862e+01 7.2461607342e+01 7.0000048261e+01 1.2514e-05 0.0000e+00
       24  2    4    4    0    0 -2.8224092593e+00 +1.0165384178e+01 -9.7066359121e+00 5.8823829045e+01 5.7050180134e+01 5.9307e-14 0.0000e+00
      -11  1    5    5    0    0 +2.6352251389e+01 +2.6728140529e+00 -1.0985723951e+01 2.8675271912e+01 5.1100000000e-04 0.0000e+00 1.0000e+00
       11  1    4    4    0    0 -5.1267451318e+00 -1.0352513170e+01 -7.2478239498e+00 1.3637778296e+01 5.1100000000e-04 0.0000e+00 -1.0000e+00
       12  1    5    5    0    0 -2.9174660648e+01 +7.4925701253e+00 +1.2790880386e+00 3.0148557134e+01 0.0000000000e+00 0.0000e+00 -1.0000e+00
      -12  1    3    3    0    0 +7.9491543911e+00 +1.8712899199e-01 +1.6954459862e+01 1.8726392658e+01 0.0000000000e+00 0.0000e+00 1.0000e+00
</event>
<event>
 8      3 +1.0086356e-04 9.11880000e+01 7.81616400e-03 1.18400000e-01
      -11 -1    0    0    0    0 +0.0000000000e+00 +0.0000000000e+00 +4.5593999997e+01 4.5594000000e+01 5.1100000000e-04 0.0000e+00 1.0000e+00
       11 -1    0    0    0    0 -0.0000000000e+00 -0.0000000000e+00 -4.5593999997e+01 4.5594000000e+01 5.1100000000e-04 0.0000e+00 -1.0000e+00
       23  2    1    2    0    0 -1.7763568394e-15 -8.8817841970e-16 +0.0000000000e+00 9.1188000000e+01 9.1188000000e+01 2.0298e-13 0.0000e+00
  9990012  2    3    3    0    0 -5.6558586106e+00 +3.8470374503e+00 -1.7432518329e+01 7.2461517974e+01 6.9999931843e+01 1.8787e-04 0.0000e+00
      -11  1    4    4    0    0 -2.3201740753e+01 -8.0854468230e+00 -1.9307288450e+00 2.4645951765e+01 5.1100000000e-04 0.0000e+00 1.0000e+00
       11  1    4    4    0    0 +7.7318389972e+00 -1.8188193309e+00 +1.2677384414e+01 1.4960130811e+01 5.1100000000e-04 0.0000e+00 -1.0000e+00
       12  1    4    4    0    0 +9.8140431450e+00 +1.3751303604e+01 -2.8179173898e+01 3.2855435398e+01 0.0000000000e+00 0.0000e+00 -1.0000e+00
      -12  1    3    3    0    0 +5.6558586106e+00 -3.8470374503e+00 +1.7432518329e+01 1.8726482026e+01 0.0000000000e+00 0.0000e+00 1.0000e+00
</event>
<event>
 9      4 +1.0086356e-04 9.11880000e+01 7.81616400e-03 1.18400000e-01
      -11 -1    0    0    0    0 +0.0000000000e+00 +0.0000000000e+00 +4.5593999997e+01 4.5594000000e+01 5.1100000000e-04 0.0000e+00 1.0000e+00
       11 -1    0    0    0    0 -0.0000000000e+00 -0.0000000000e+00 -4.5593999997e+01 4.5594000000e+01 5.1100000000e-04 0.0000e+00 -1.0000e+00
       23  2    1    2    0    0 +1.7763568394e-15 +0.0000000000e+00 +8.8817841970e-16 9.1188000000e+01 9.1188000000e+01 1.1535e-13 0.0000e+00
 -9990012  2    3    3    0    0 +1.4672577864e+01 +1.0887561739e+01 +4.1051541261e+00 7.2461659402e+01 7.0000116080e+01 2.4312e-05 0.0000e+00
      -24  2    4    4    0    0 +1.9485711948e+01 +4.5037612271e+00 +3.0209977583e+00 6.4393539176e+01 6.1134479837e+01 6.7181e-14 0.0000e+00
      -11  1    4    4    0    0 -4.8131340844e+00 +6.3838005118e+00 +1.0841563678e+00 8.0681202259e+00 5.1100000000e-04 0.0000e+00 1.0000e+00
       11  1    5    5    0    0 -6.8707880017e+00 +1.4380693400e+01 -2.1705638346e+01 2.6928550030e+01 5.1100000000e-04 0.0000e+00 -1.0000e+00
      -12  1    5    5    0    0 +2.6356499950e+01 -9.8769321732e+00 +2.4726636104e+01 3.7464989147e+01 0.0000000000e+00 0.0000e+00 1.0000e+00
       12  1    3    3    0    0 -1.4672577864e+01 -1.0887561739e+01 -4.1051541261e+00 1.8726340598e+01 0.0000000000e+00 0.0000e+00 -1.0000e+00
</event>
<event>
 9      3 +1.0086356e-04 9.11880000e+01 7.81616400e-03 1.18400000e-01
      -11 -1    0    0    0    0 +0.0000000000e+00 +0.0000000000e+00 +4.5593999997e+01 4.5594000000e+01 5.1100000000e-04 0.0000e+00 -1.0000e+00
       11 -1    0    0    0    0 -0.0000000000e+00 -0.0000000000e+00 -4.5593999997e+01 4.5594000000e+01 5.1100000000e-04 0.0000e+00 1.0000e+00
       23  2    1    2    0    0 +0.0000000000e+00 -1.7763568394e-15 -5.3290705182e-15 9.1188000000e+01 9.1188000000e+01 2.4876e-14 0.0000e+00
  9990012  2    3    3    0    0 +1.1261573301e+01 -9.9166750747e+00 +1.1203239532e+01 7.2461653486e+01 7.0000108372e+01 3.3342e-04 0.0000e+00
       24  2    4    4    0    0 +6.9758589348e+00 -4.4759629880e+00 +2.5759642022e+01 5.6341555801e+01 4.9417758959e+01 6.7588e-14 0.0000e+00
      -11  1    5    5    0    0 +1.1033433067e+01 +6.9914528033e+00 -1.1340547606e+01 1.7298123534e+01 5.1100000000e-04 0.0000e+00 1.0000e+00
       11  1    4    4    0    0 +4.2857143666e+00 -5.4407120867e+00 -1.4556402490e+01 1.6120097684e+01 5.1100000000e-04 0.0000e+00 -1.0000e+00
       12  1    5    5    0    0 -4.0575741321e+00 -1.1467415791e+01 +3.7100189628e+01 3.9043432267e+01 0.0000000000e+00 0.0000e+00 -1.0000e+00
      -12  1    3    3    0    0 -1.1261573301e+01 +9.9166750747e+00 -1.1203239532e+01 1.8726346514e+01 0.0000000000e+00 0.0000e+00 1.0000e+00
</event>
<event>
 9      4 +1.0086356e-04 9.11880000e+01 7.81616400e-03 1.18400000e-01
      -11 -1    0    0    0    0 +0.0000000000e+00 +0.0000000000e+00 +4.5593999997e+01 4.5594000000e+01 5.1100000000e-04 0.0000e+00 -1.0000e+00
       11 -1    0    0    0    0 -0.0000000000e+00 -0.0000000000e+00 -4.5593999997e+01 4.5594000000e+01 5.1100000000e-04 0.0000e+00 1.0000e+00
       23  2    1    2    0    0 +1.7763568394e-15 +1.7763568394e-15 +1.7763568394e-15 9.1188000000e+01 9.1188000000e+01 5.6870e-14 0.0000e+00
 -9990012  2    3    3    0    0 +7.6877788410e+00 +1.2593070609e+01 +1.1532116913e+01 7.2461625782e+01 7.0000072282e+01 3.2787e-04 0.0000e+00
      -24  2    4    4    0    0 +1.3759000345e+01 +1.2312982815e+01 +1.1439422595e+01 6.6383240123e+01 6.2729216029e+01 2.2554e-13 0.0000e+00
      -11  1    4    4    0    0 -6.0712215038e+00 +2.8008779412e-01 +9.2694318297e-02 6.0783856589e+00 5.1100000000e-04 0.0000e+00 1.0000e+00
       11  1    5    5    0    0 -2.2570346721e+01 +1.6645951805e+01 -1.6711518867e-02 2.8044759619e+01 5.1100000000e-04 0.0000e+00 -1.0000e+00
      -12  1    5    5    0    0 +3.6329347065e+01 -4.3329689899e+00 +1.1456134114e+01 3.8338480503e+01 0.0000000000e+00 0.0000e+00 1.0000e+00
       12  1    3    3    0    0 -7.6877788410e+00 -1.2593070609e+01 -1.1532116913e+01 1.8726374218e+01 0.0000000000e+00 0.0000e+00 -1.0000e+00
</event>
<event>
 8      3 +1.0086356e-04 9.11880000e+01 7.81616400e-03 1.18400000e-01
      -11 -1    0    0    0    0 +0.0000000000e+00 +0.0000000000e+00 +4.5593999997e+01 4.5594000000e+01 5.1100000000e-04 0.0000e+00 -1.0000e+00
       11 -1    0    0    0    0 -0.0000000000e+00 -0.0000000000e+00 -4.5593999997e+01 4.5594000000e+01 5.1100000000e-04 0.0000e+00 1.0000e+00
       23  2    1    2    0    0 +1.7763568394e-15 +0.0000000000e+00 +0.0000000000e+00 9.1188000000e+01 9.1188000000e+01 9.3204e-14 0.0000e+00
  9990012  2    3    3    0    0 -1.2454444695e+01 -1.0090433235e+01 +9.6822252079e+00 7.2461667724e+01 7.0000126920e+01 1.9115e-04 0.0000e+00
      -11  1    4    4    0    0 +1.1240357368e+01 -4.7933821724e+00 -9.1907821784e+00 1.5290278733e+01 5.1100000000e-04 0.0000e+00 1.0000e+00
       11  1    4    4    0    0 -3.4578510481e+01 -1.4247069381e+01 +5.6038636751e+00 3.7816076758e+01 5.1100000000e-04 0.0000e+00 -1.0000e+00
       12  1    4    4    0    0 +1.0883708418e+01 +8.9500183178e+00 +1.3269143711e+01 1.9355312233e+01 0.0000000000e+00 0.0000e+00 -1.0000e+00
      -12  1    3    3    0    0 +1.2454444695e+01 +1.0090433235e+01 -9.6822252079e+00 1.8726332276e+01 0.0000000000e+00 0.0000e+00 1.0000e+00
</event>
<event>
 9      4 +1.0086356e-04 9.11880000e+01 7.81616400e-03 1.18400000e-01
      -11 -1    0    0    0    0 +0.0000000000e+00 +0.0000000000e+00 +4.5593999997e+01 4.5594000000e+01 5.1100000000e-04 0.0000e+00 -1.0000e+00
       11 -1    0    0    0    0 -0.0000000000e+00 -0.0000000000e+00 -4.5593999997e+01 4.5594000000e+01 5.1100000000e-04 0.0000e+00 1.0000e+00
       23  2    1    2    0    0 -1.7763568394e-15 -3.5527136788e-15 -1.7763568394e-15 9.1188000000e+01 9.1188000000e+01 6.2470e-16 0.0000e+00
 -9990012  2    3    3    0    0 +1.3074083799e+01 +9.5622303331e+00 -9.3976218188e+00 7.2461462360e+01 6.9999859396e+01 3.3454e-04 0.0000e+00
       23  2    4    4    0    0 +9.5451374609e+00 +1.0269484108e+01 -1.0601018585e+01 6.8666487533e+01 6.6378708651e+01 1.4811e-13 0.0000e+00
      -11  1    5    5    0    0 +1.9129061823e+00 -2.7848130865e+01 +1.4953185573e+00 2.7953775784e+01 5.1100000000e-04 0.0000e+00 -1.0000e+00
       11  1    5    5    0    0 +7.6322312786e+00 +3.8117614973e+01 -1.2096337142e+01 4.0712711750e+01 5.1100000000e-04 0.0000e+00 1.0000e+00
      -12  1    4    4    0    0 +3.5289463382e+00 -7.0725377472e-01 +1.2033967660e+00 3.7949748268e+00 0.0000000000e+00 0.0000e+00 1.0000e+00
       12  1    3    3    0    0 -1.3074083799e+01 -9.5622303331e+00 +9.3976218188e+00 1.8726537640e+01 0.0000000000e+00 0.0000e+00 -1.0000e+00
</event>
<event>
 7      4 +1.0086356e-04 7.24615800e+01 7.81616400e-03 1.22670800e-01
      -11 -1    0    0    0    0 +0.0000000000e+00 +0.0000000000e+00 +4.5593999997e+01 4.5594000000e+01 5.1100000000e-04 0.0000e+00 1.0000e+00
       11 -1    0    0    0    0 -0.0000000000e+00 -0.0000000000e+00 -4.5593999997e+01 4.5594000000e+01 5.1100000000e-04 0.0000e+00 -1.0000e+00
 -9990012  2    1    2    0    0 -1.1541558754e+01 -1.3376996914e+01 -6.2070138549e+00 7.2461584275e+01 7.0000018212e+01 5.0849e-04 0.0000e+00
      -11  1    3    3    0    0 -4.6911480315e+00 -2.4330315791e+01 +1.0409971900e+01 2.6876358600e+01 5.1100000000e-04 0.0000e+00 1.0000e+00
       11  1    3    3    0    0 -2.3754212143e+01 +9.0933878201e+00 -1.0380325478e+01 2.7471866588e+01 5.1100000000e-04 0.0000e+00 -1.0000e+00
      -12  1    3    3    0    0 +1.6903801420e+01 +1.8599310567e+00 -6.2366602777e+00 1.8113359087e+01 0.0000000000e+00 0.0000e+00 1.0000e+00
       12  1    1    2    0    0 +1.1541558754e+01 +1.3376996914e+01 +6.2070138549e+00 1.8726415725e+01 0.0000000000e+00 0.0000e+00 -1.0000e+00
</event>
<event>
 8      4 +1.0086356e-04 9.11880000e+01 7.81616400e-03 1.18400000e-01
      -11 -1    0    0    0    0 +0.0000000000e+00 +0.0000000000e+00 +4.5593999997e+01 4.5594000000e+01 5.1100000000e-04 0.0000e+00 1.0000e+00
       11 -1    0    0    0    0 -0.0000000000e+00 -0.0000000000e+00 -4.5593999997e+01 4.5594000000e+01 5.1100000000e-04 0.0000e+00 -1.0000e+00
       23  2    1    2    0    0 +0.0000000000e+00 -1.7763568394e-15 -1.7763568394e-15 9.1188000000e+01 9.1188000000e+01 6.8360e-14 0.0000e+00
 -9990012  2    3    3    0    0 +4.1599894947e+00 +1.2289838178e+01 +1.3503027554e+01 7.2461617857e+01 7.0000061959e+01 2.1017e-05 0.0000e+00
      -11  1    4    4    0    0 +4.5939976358e+00 +3.1448531134e+01 +4.7414649890e+00 3.2134038266e+01 5.1100000000e-04 0.0000e+00 1.0000e+00
       11  1    4    4    0    0 -8.0875156801e+00 -1.6807254402e+01 +1.9466344508e+01 2.6959790044e+01 5.1100000000e-04 0.0000e+00 -1.0000e+00
      -12  1    4    4    0    0 +7.6535075390e+00 -2.3514385535e+00 -1.0704781944e+01 1.3367789547e+01 0.0000000000e+00 0.0000e+00 1.0000e+00
       12  1    3    3    0    0 -4.1599894947e+00 -1.2289838178e+01 -1.3503027554e+01 1.8726382143e+01 0.0000000000e+00 0.0000e+00 -1.0000e+00
</event>
<event>
 8      4 +1.0086356e-04 9.11880000e+01 7.81616400e-03 1.18400000e-01
      -11 -1    0    0    0    0 +0.0000000000e+00 +0.0000000000e+00 +4.5593999997e+01 4.5594000000e+01 5.1100000000e-04 0.0000e+00 -1.0000e+00
       11 -1    0    0    0    0 -0.0000000000e+00 -0.0000000000e+00 -4.5593999997e+01 4.5594000000e+01 5.1100000000e-04 0.0000e+00 1.0000e+00
       23  2    1    2    0    0 +0.0000000000e+00 -8.8817841970e-16 +0.0000000000e+00 9.1188000000e+01 9.1188000000e+01 2.2912e-14 0.0000e+00
 -9990012  2    3    3    0    0 -9.5710392994e+00 -6.5234619468e+00 -1.4714605956e+01 7.2461548722e+01 6.9999971898e+01 2.1072e-04 0.0000e+00
      -11  1    4    4    0    0 +1.9752697252e+01 +9.4995286331e+00 -1.0224494635e+01 2.4185747534e+01 5.1100000000e-04 0.0000e+00 1.0000e+00
       11  1    4    4    0    0 -1.1743348199e-01 -1.6985606541e+01 +4.7322869126e+00 1.7632899928e+01 5.1100000000e-04 0.0000e+00 -1.0000e+00
      -12  1    4    4    0    0 -2.9206303069e+01 +9.6261596083e-01 -9.2223982337e+00 3.0642901260e+01 0.0000000000e+00 0.0000e+00 1.0000e+00
       12  1    3    3    0    0 +9.5710392994e+00 +6.5234619468e+00 +1.4714605956e+01 1.8726451278e+01 0.0000000000e+00 0.0000e+00 -1.0000e+00
</event>
<event>
 9      3 +1.0086356e-04 9.11880000e+01 7.81616400e-03 1.18400000e-01
      -11 -1    0    0    0    0 +0.0000000000e+00 +0.0000000000e+00 +4.5593999997e+01 4.5594000000e+01 5.1100000000e-04 0.0000e+00 1.0000e+00
       11 -1    0    0    0    0 -0.0000000000e+00 -0.0000000000e+00 -4.5593999997e+01 4.5594000000e+01 5.1100000000e-04 0.0000e+00 -1.0000e+00
       23  2    1    2    0    0 -1.7763568394e-15 -1.7763568394e-15 +2.6645352591e-15 9.1188000000e+01 9.1188000000e+01 3.1559e-13 0.0000e+00
  9990012  2    3    3    0    0 +1.4661075159e+01 +8.6905699247e+00 -7.7592119546e+00 7.2461588155e+01 7.0000023267e+01 8.9224e-05 0.0000e+00
       24  2    4    4    0    0 +1.5056967462e+01 -9.8009078004e+00 -2.3031181535e+00 5.3177904923e+01 4.9998151525e+01 7.1122e-14 0.0000e+00
      -11  1    5    5    0    0 -8.0948319365e+00 +2.1284199615e+00 +1.8199337331e+01 2.0031783624e+01 5.1100000000e-04 0.0000e+00 1.0000e+00
       11  1    4    4    0    0 -3.9589230290e-01 +1.8491477725e+01 -5.4560938011e+00 1.9283683232e+01 5.1100000000e-04 0.0000e+00 -1.0000e+00
       12  1    5    5    0    0 +2.3151799398e+01 -1.1929327762e+01 -2.0502455485e+01 3.3146121298e+01 0.0000000000e+00 0.0000e+00 -1.0000e+00
      -12  1    3    3    0    0 -1.4661075159e+01 -8.6905699247e+00 +7.7592119546e+00 1.8726411845e+01 0.0000000000e+00 0.0000e+00 1.0000e+00
</event>
<event>
 8      4 +1.0086356e-04 9.11880000e+01 7.81616400e-03 1.18400000e-01
      -11 -1    0    0    0    0 +0.0000000000e+00 +0.0000000000e+00 +4.5593999997e+01 4.5594000000e+01 5.1100000000e-04 0.0000e+00 -1.0000e+00
       11 -1    0    0    0    0 -0.0000000000e+00 -0.0000000000e+00 -4.5593999997e+01 4.5594000000e+01 5.1100000000e-04 0.0000e+00 1.0000e+00
       23  2    1    2    0    0 -3.5527136788e-15 +3.5527136788e-15 +8.8817841970e-16 9.1188000000e+01 9.1188000000e+01 2.3286e-15 0.0000e+00
 -9990012  2    3    3    0    0 -1.7748858367e+01 -2.7427137185e+00 +5.3041965890e+00 7.2461576067e+01 7.0000007520e+01 5.5214e-05 0.0000e+00
      -11  1    4    4    0    0 -9.2681845248e+00 +3.0371371315e+00 -5.9184370642e+00 1.1408389189e+01 5.1100000000e-04 0.0000e+00 1.0000e+00
       11  1    4    4    0    0 -1.8793504305e-01 +1.3447485512e+01 -1.9612296555e+01 2.3780503834e+01 5.1100000000e-04 0.0000e+00 -1.0000e+00
      -12  1    4    4    0    0 -8.2927387989e+00 -1.9227336362e+01 +3.0834930208e+01 3.7272683044e+01 0.0000000000e+00 0.0000e+00 1.0000e+00
       12  1    3    3    0    0 +1.7748858367e+01 +2.7427137185e+00 -5.3041965890e+00 1.8726423933e+01 0.0000000000e+00 0.0000e+00 -1.0000e+00
</event>
<event>
 9      3 +1.0086356e-04 9.11880000e+01 7.81616400e-03 1.18400000e-01
      -11 -1    0    0    0    0 +0.0000000000e+00 +0.0000000000e+00 +4.5593999997e+01 4.5594000000e+01 5.1100000000e-04 0.0000e+00 1.0000e+00
       11 -1    0    0    0    0 -0.0000000000e+00 -0.0000000000e+00 -4.5593999997e+01 4.5594000000e+01 5.1100000000e-04 0.0000e+00 -1.0000e+00
       23  2    1    2    0    0 +0.0000000000e+00 +1.2143064332e-17 +4.4408920985e-16 9.1188000000e+01 9.1188000000e+01 2.4816e-14 0.0000e+00
  9990012  2    3    3    0    0 +1.8397030182e+01 -9.0797298679e-03 -3.4965622275e+00 7.2461634913e+01 7.0000084178e+01 3.6390e-04 0.0000e+00
       24  2    4    4    0    0 +1.6373525986e+01 -5.8100218596e-01 +2.5875083943e+00 6.6024432095e+01 6.3906967672e+01 5.2831e-14 0.0000e+00
      -11  1    5    5    0    0 -2.4554940375e+01 -1.9022665057e-01 -2.9062195342e+00 2.4727057957e+01 5.1100000000e-04 0.0000e+00 1.0000e+00
       11  1    4    4    0    0 +2.0235041962e+00 +5.7192245609e-01 -6.0840706218e+00 6.4372028180e+00 5.1100000000e-04 0.0000e+00 -1.0000e+00
       12  1    5    5    0    0 +4.0928466360e+01 -3.9077553539e-01 +5.4937279286e+00 4.1297374138e+01 0.0000000000e+00 0.0000e+00 -1.0000e+00
      -12  1    3    3    0    0 -1.8397030182e+01 +9.0797298679e-03 +3.4965622275e+00 1.8726365087e+01 0.0000000000e+00 0.0000e+00 1.0000e+00
</event>
<event>
 8      3 +1.0086356e-04 9.11880000e+01 7.81616400e-03 1.18400000e-01
      -11 -1    0    0    0    0 +0.0000000000e+00 +0.0000000000e+00 +4.5593999997e+01 4.5594000000e+01 5.1100000000e-04 0.0000e+00 -1.0000e+00
       11 -1    0    0    0    0 -0.0000000000e+00 -0.0000000000e+00 -4.5593999997e+01 4.5594000000e+01 5.1100000000e-04 0.0000e+00 1.0000e+00
       23  2    1    2    0    0 +1.7763568394e-15 +5.3290705182e-15 +0.0000000000e+00 9.1188000000e+01 9.1188000000e+01 6.0213e-14 0.0000e+00
  9990012  2    3    3    0    0 -1.1233362241e+01 -1.0712074114e+01 +1.0475823690e+01 7.2461552365e+01 6.9999976643e+01 2.4723e-04 0.0000e+00
      -11  1    4    4    0    0 -1.0120521259e+01 -1.9087829172e+01 -5.0433818924e+00 2.2185713291e+01 5.1100000000e-04 0.0000e+00 1.0000e+00
       11  1    4    4    0    0 +1.3761662873e+01 +2.0504223980e+01 -1.3393484153e+00 2.4730556413e+01 5.1100000000e-04 0.0000e+00 -1.0000e+00
       12  1    4    4    0    0 -1.4874503855e+01 -1.2128468922e+01 +1.6858553997e+01 2.5545282661e+01 0.0000000000e+00 0.0000e+00 -1.0000e+00
      -12  1    3    3    0    0 +1.1233362241e+01 +1.0712074114e+01 -1.0475823690e+01 1.8726447635e+01 0.0000000000e+00 0.0000e+00 1.0000e+00
</event>
<event>
 9      4 +1.0086356e-04 9.11880000e+01 7.81616400e-03 1.18400000e-01
      -11 -1    0    0    0    0 +0.0000000000e+00 +0.0000000000e+00 +4.5593999997e+01 4.5594000000e+01 5.1100000000e-04 0.0000e+00 -1.0000e+00
       11 -1    0    0    0    0 -0.0000000000e+00 -0.0000000000e+00 -4.5593999997e+01 4.5594000000e+01 5.1100000000e-04 0.0000e+00 1.0000e+00
       23  2    1    2    0    0 -1.7763568394e-15 +0.0000000000e+00 +0.0000000000e+00 9.1188000000e+01 9.1188000000e+01 2.5231e-14 0.0000e+00
 -9990012  2    3    3    0    0 -1.5310162733e+01 +5.3685699431e+00 -9.3518221004e+00 7.2461569407e+01 6.9999998845e+01 1.0110e-04 0.0000e+00
       23  2    4    4    0    0 -1.7423751947e+01 +3.6844915136e+00 -1.2638440760e+01 6.8206543939e+01 6.4616095840e+01 3.1916e-14 0.0000e+00
      -11  1    5    5    0    0 +1.0083304520e+01 -9.8212046219e+00 +1.9337333312e+01 2.3917808222e+01 5.1100000000e-04 0.0000e+00 -1.0000e+00
       11  1    5    5    0    0 -2.7507056467e+01 +1.3505696135e+01 -3.1975774072e+01 4.4288735717e+01 5.1100000000e-04 0.0000e+00 1.0000e+00
      -12  1    4    4    0    0 +2.1135892141e+00 +1.6840784295e+00 +3.2866186600e+00 4.2550254686e+00 0.0000000000e+00 0.0000e+00 1.0000e+00
       12  1    3    3    0    0 +1.5310162733e+01 -5.3685699431e+00 +9.3518221004e+00 1.8726430593e+01 0.0000000000e+00 0.0000e+00 -1.0000e+00
</event>
<event>
 9      4 +1.0086356e-04 9.11880000e+01 7.81616400e-03 1.18400000e-01
      -11 -1    0    0    0    0 +0.0000000000e+00 +0.0000000000e+00 +4.5593999997e+01 4.5594000000e+01 5.1100000000e-04 0.0000e+00 1.0000e+00
       11 -1    0    0    0    0 -0.0000000000e+00 -0.0000000000e+00 -4.5593999997e+01 4.5594000000e+01 5.1100000000e-04 0.0000e+00 -1.0000e+00
       23  2    1    2    0    0 -1.7763568394e-15 +1.7763568394e-15 -8.8817841970e-16 9.1188000000e+01 9.1188000000e+01 1.0049e-13 0.0000e+00
 -9990012  2    3    3    0    0 +1.5076690738e+01 +1.1060490420e+01 -1.0177611996e+00 7.2461631164e+01 7.0000079293e+01 2.6388e-05 0.0000e+00
      -24  2    4    4    0    0 +5.0999481836e+00 -1.9941599460e+00 -1.1425927774e+01 5.3011972558e+01 5.1475540440e+01 1.0487e-14 0.0000e+00
      -11  1    4    4    0    0 +9.9767425548e+00 +1.3054650365e+01 +1.0408166575e+01 1.9449658606e+01 5.1100000000e-04 0.0000e+00 1.0000e+00
       11  1    5    5    0    0 +1.8984962379e+01 -2.0487061235e+01 -1.0590636224e+01 2.9871559224e+01 5.1100000000e-04 0.0000e+00 -1.0000e+00
      -12  1    5    5    0    0 -1.3885014195e+01 +1.8492901289e+01 -8.3529155017e-01 2.3140413334e+01 0.0000000000e+00 0.0000e+00 1.0000e+00
       12  1    3    3    0    0 -1.5076690738e+01 -1.1060490420e+01 +1.0177611996e+00 1.8726368836e+01 0.0000000000e+00 0.0000e+00 -1.0000e+00
</event>
<event>
 8      4 +1.0086356e-04 9.11880000e+01 7.81616400e-03 1.18400000e-01
      -11 -1    0    0    0    0 +0.0000000000e+00 +0.0000000000e+00 +4.5593999997e+01 4.5594000000e+01 5.1100000000e-04 0.0000e+00 -1.0000e+00
       11 -1    0    0    0    0 -0.0000000000e+00 -0.0000000000e+00 -4.5593999997e+01 4.5594000000e+01 5.1100000000e-04 0.0000e+00 1.0000e+00
       23  2    1    2    0    0 +3.5527136788e-15 +0.0000000000e+00 -8.8817841970e-16 9.1188000000e+01 9.1188000000e+01 1.7754e-14 0.0000e+00
 -9990012  2    3    3    0    0 -1.2833794739e+01 -1.1517182685e+01 -7.3026382280e+00 7.2461539856e+01 6.9999960349e+01 8.2084e-05 0.0000e+00
      -11  1    4    4    0    0 +2.0929326833e+01 -2.7237176588e+00 -7.1229932916e+00 2.2275376389e+01 5.1100000000e-04 0.0000e+00 1.0000e+00
       11  1    4    4    0    0 -5.7720532820e+00 +2.8731247295e+00 -1.5078240821e+01 1.6398926529e+01 5.1100000000e-04 0.0000e+00 -1.0000e+00
      -12  1    4    4    0    0 -2.7991068291e+01 -1.1666589756e+01 +1.4898595884e+01 3.3787236938e+01 0.0000000000e+00 0.0000e+00 1.0000e+00
       12  1    3    3    0    0 +1.2833794739e+01 +1.1517182685e+01 +7.3026382280e+00 1.8726460144e+01 0.0000000000e+00 0.0000e+00 -1.0000e+00
</event>
<event>
 9      4 +1.0086356e-04 9.11880000e+01 7.81616400e-03 1.18400000e-01
      -11 -1    0    0    0    0 +0.0000000000e+00 +0.0000000000e+00 +4.5593999997e+01 4.5594000000e+01 5.1100000000e-04 0.0000e+00 -1.0000e+00
       11 -1    0    0    0    0 -0.0000000000e+00 -0.0000000000e+00 -4.5593999997e+01 4.5594000000e+01 5.1100000000e-04 0.0000e+00 1.0000e+00
       23  2    1    2    0    0 -1.7763568394e-15 +0.0000000000e+00 -8.8817841970e-16 9.1188000000e+01 9.1188000000e+01 1.6668e-13 0.0000e+00
 -9990012  2    3    3    0    0 -7.4882630810e+00 -1.5582826962e+01 +7.1957735766e+00 7.2461608530e+01 7.0000049809e+01 2.4535e-04 0.0000e+00
      -24  2    4    4    0    0 -4.2125068361e+00 -1.2850733262e+01 +1.3039780841e+01 6.5226462634e+01 6.2462540648e+01 6.0268e-14 0.0000e+00
      -11  1    4    4    0    0 -3.2757562449e+00 -2.7320937005e+00 -5.8440072646e+00 7.2351458959e+00 5.1100000000e-04 0.0000e+00 1.0000e+00
       11  1    5    5    0    0 -1.8757225394e+01 -2.6930144284e+01 +2.5407531442e+01 4.1504323026e+01 5.1100000000e-04 0.0000e+00 -1.0000e+00
      -12  1    5    5    0    0 +1.4544718558e+01 +1.4079411022e+01 -1.2367750601e+01 2.3722139608e+01 0.0000000000e+00 0.0000e+00 1.0000e+00
       12  1    3    3    0    0 +7.4882630810e+00 +1.5582826962e+01 -7.1957735766e+00 1.8726391470e+01 0.0000000000e+00 0.0000e+00 -1.0000e+00
</event>
<event>
 9      3 +1.0086356e-04 9.11880000e+01 7.81616400e-03 1.18400000e-01
      -11 -1    0    0    0    0 +0.0000000000e+00 +0.0000000000e+00 +4.5593999997e+01 4.5594000000e+01 5.1100000000e-04 0.0000e+00 -1.0000e+00
       11 -1    0    0    0    0 -0.0000000000e+00 -0.0000000000e+00 -4.5593999997e+01 4.5594000000e+01 5.1100000000e-04 0.0000e+00 1.0000e+00
       23  2    1    2    0    0 +1.7763568394e-15 +0.0000000000e+00 +3.5527136788e-15 9.1188000000e+01 9.1188000000e+01 1.4782e-13 0.0000e+00
  9990012  2    3    3    0    0 +1.0691178262e+01 +9.3060543319e+00 -1.2238185540e+01 7.2461624879e+01 7.0000071107e+01 7.1895e-04 0.0000e+00
       24  2    4    4    0    0 +2.2460385582e+01 +4.1447502961e+00 -1.8074694846e+01 5.8347159199e+01 5.0557378466e+01 1.0137e-14 0.0000e+00
      -11  1    5    5    0    0 +1.9108162459e+00 +1.9418658011e+01 -2.5104155160e+01 3.1795504466e+01 5.1100000000e-04 0.0000e+00 1.0000e+00
       11  1    4    4    0    0 -1.1769207320e+01 +5.1613040357e+00 +5.8365093057e+00 1.4114465680e+01 5.1100000000e-04 0.0000e+00 -1.0000e+00
       12  1    5    5    0    0 +2.0549569336e+01 -1.5273907715e+01 +7.0294603140e+00 2.6551654734e+01 0.0000000000e+00 0.0000e+00 -1.0000e+00
      -12  1    3    3    0    0 -1.0691178262e+01 -9.3060543319e+00 +1.2238185540e+01 1.8726375121e+01 0.0000000000e+00 0.0000e+00 1.0000e+00
</event>
<event>
 9      4 +1.0086356e-04 9.11880000e+01 7.81616400e-03 1.18400000e-01
      -11 -1    0    0    0    0 +0.0000000000e+00 +0.0000000000e+00 +4.5593999997e+01 4.5594000000e+01 5.1100000000e-04 0.0000e+00 1.0000e+00
       11 -1    0    0    0    0 -0.0000000000e+00 -0.0000000000e+00 -4.5593999997e+01 4.5594000000e+01 5.1100000000e-04 0.0000e+00 -1.0000e+00
       23  2    1    2    0    0 +2.6645352591e-15 +0.0000000000e+00 +2.6645352591e-15 9.1188000000e+01 9.1188000000e+01 8.4766e-14 0.0000e+00
 -9990012  2    3    3    0    0 -5.2921768354e+00 -1.6602090834e+01 -6.8587742111e+00 7.2461565758e+01 6.9999994091e+01 6.8077e-04 0.0000e+00
      -24  2    4    4    0    0 -8.9892500032e-01 -1.4028200889e+01 -3.9634748481e+00 6.6604234472e+01 6.4983201140e+01 2.5272e-13 0.0000e+00
      -11  1    4    4    0    0 -4.3932518351e+00 -2.5738899451e+00 -2.8952993630e+00 5.8573312864e+00 5.1100000000e-04 0.0000e+00 1.0000e+00
       11  1    5    5    0    0 +1.5873254323e+01 -6.7312135219e+00 -3.0108876750e+01 3.4696021352e+01 5.1100000000e-04 0.0000e+00 -1.0000e+00
      -12  1    5    5    0    0 -1.6772179323e+01 -7.2969873674e+00 +2.6145401902e+01 3.1908213120e+01 0.0000000000e+00 0.0000e+00 1.0000e+00
       12  1    3    3    0    0 +5.2921768354e+00 +1.6602090834e+01 +6.8587742111e+00 1.8726434242e+01 0.0000000000e+00 0.0000e+00 -1.0000e+00
</event>
<event>
 9      4 +1.0086356e-04 9.11880000e+01 7.81616400e-03 1.18400000e-01
      -11 -1    0    0    0    0 +0.0000000000e+00 +0.0000000000e+00 +4.5593999997e+01 4.5594000000e+01 5.1100000000e-04 0.0000e+00 -1.0000e+00
       11 -1    0    0    0    0 -0.0000000000e+00 -0.0000000000e+00 -4.5593999997e+01 4.5594000000e+01 5.1100000000e-04 0.0000e+00 1.0000e+00
       23  2    1    2    0    0 +0.0000000000e+00 -8.8817841970e-16 +3.5527136788e-15 9.1188000000e+01 9.1188000000e+01 1.9145e-13 0.0000e+00
 -9990012  2    3    3    0    0 -8.1266498309e+00 +3.4542793216e+00 -1.6513824990e+01 7.2461524119e+01 6.9999939849e+01 4.9445e-05 0.0000e+00
      -24  2    4    4    0    0 -4.3861025704e-01 -5.8752783834e+00 -2.0522111120e+01 5.9725239048e+01 5.5778453362e+01 7.4488e-14 0.0000e+00
      -11  1    4    4    0    0 -7.6880395738e+00 +9.3295577050e+00 +4.0082861302e+00 1.2736285071e+01 5.1100000000e-04 0.0000e+00 1.0000e+00
       11  1    5    5    0    0 -1.2116886295e+01 +1.7534489561e+01 -2.5353149550e+01 3.3121887779e+01 5.1100000000e-04 0.0000e+00 -1.0000e+00
      -12  1    5    5    0    0 +1.1678276038e+01 -2.3409767945e+01 +4.8310384298e+00 2.6603351269e+01 0.0000000000e+00 0.0000e+00 1.0000e+00
       12  1    3    3    0    0 +8.1266498309e+00 -3.4542793216e+00 +1.6513824990e+01 1.8726475881e+01 0.0000000000e+00 0.0000e+00 -1.0000e+00
</event>
<event>
 8      4 +1.0086356e-04 9.11880000e+01 7.81616400e-03 1.18400000e-01
      -11 -1    0    0    0    0 +0.0000000000e+00 +0.0000000000e+00 +4.5593999997e+01 4.5594000000e+01 5.1100000000e-04 0.0000e+00 1.0000e+00
       11 -1    0    0    0    0 -0.0000000000e+00 -0.0000000000e+00 -4.5593999997e+01 4.5594000000e+01 5.1100000000e-04 0.0000e+00 -1.0000e+00
       23  2    1    2    0    0 -8.8817841970e-16 +0.0000000000e+00 +1.7763568394e-15 9.1188000000e+01 9.1188000000e+01 1.8209e-14 0.0000e+00
 -9990012  2    3    3    0    0 +7.6896286992e+00 -1.6939849415e+01 +2.1421971751e+00 7.2461604285e+01 7.0000044279e+01 3.0548e-04 0.0000e+00
      -11  1    4    4    0    0 +8.2387542718e+00 -3.1775039857e+00 -1.6872041128e+01 1.9043092596e+01 5.1100000000e-04 0.0000e+00 1.0000e+00
       11  1    4    4    0    0 +1.0312768712e+01 -8.7240348699e+00 -1.3300436448e+01 1.8956887743e+01 5.1100000000e-04 0.0000e+00 -1.0000e+00
      -12  1    4    4    0    0 -1.0861894285e+01 -5.0383105592e+00 +3.2314674751e+01 3.4461623946e+01 0.0000000000e+00 0.0000e+00 1.0000e+00
       12  1    3    3    0    0 -7.6896286992e+00 +1.6939849415e+01 -2.1421971751e+00 1.8726395715e+01 0.0000000000e+00 0.0000e+00 -1.0000e+00
</event>
<event>
 8      4 +1.0086356e-04 9.11880000e+01 7.81616400e-03 1.18400000e-01
      -11 -1    0    0    0    0 +0.0000000000e+00 +0.0000000000e+00 +4.5593999997e+01 4.5594000000e+01 5.1100000000e-04 0.0000e+00 1.0000e+00
       11 -1    0    0    0    0 -0.0000000000e+00 -0.0000000000e+00 -4.5593999997e+01 4.5594000000e+01 5.1100000000e-04 0.0000e+00 -1.0000e+00
       23  2    1    2    0    0 -3.5527136788e-15 +0.0000000000e+00 +4.4408920985e-16 9.1188000000e+01 9.1188000000e+01 9.0413e-15 0.0000e+00
 -9990012  2    3    3    0    0 +1.7052101442e+01 -7.5335902376e+00 -1.7758750665e+00 7.2461471285e+01 6.9999871022e+01 4.4909e-05 0.0000e+00
      -11  1    4    4    0    0 +2.0223248153e+01 -3.6927442080e+00 -2.0312583052e+01 2.8900123808e+01 5.1100000000e-04 0.0000e+00 1.0000e+00
       11  1    4    4    0    0 -9.0352843150e+00 +1.0887912097e+01 -5.1519131580e+00 1.5057396918e+01 5.1100000000e-04 0.0000e+00 -1.0000e+00
      -12  1    4    4    0    0 +5.8641376042e+00 -1.4728758127e+01 +2.3688621143e+01 2.8503950559e+01 0.0000000000e+00 0.0000e+00 1.0000e+00
       12  1    3    3    0    0 -1.7052101442e+01 +7.5335902376e+00 +1.7758750665e+00 1.8726528715e+01 0.0000000000e+00 0.0000e+00 -1.0000e+00
</event>
<event>
 9      3 +1.0086356e-04 9.11880000e+01 7.81616400e-03 1.18400000e-01
      -11 -1    0    0    0    0 +0.0000000000e+00 +0.0000000000e+00 +4.5593999997e+01 4.5594000000e+01 5.1100000000e-04 0.0000e+00 -1.0000e+00
       11 -1    0    0    0    0 -0.0000000000e+00 -0.0000000000e+00 -4.5593999997e+01 4.5594000000e+01 5.1100000000e-04 0.0000e+00 1.0000e+00
       23  2    1    2    0    0 -8.6042284408e-16 +0.0000000000e+00 +4.4408920985e-16 9.1188000000e+01 9.1188000000e+01 6.7287e-14 0.0000e+00
  9990012  2    3    3    0    0 -1.5922725719e-01 +1.8318592080e+01 +3.8834595871e+00 7.2461616808e+01 7.0000060592e+01 1.9400e-04 0.0000e+00
       24  2    4    4    0    0 -4.3493786099e+00 +1.0657680179e+01 -1.0487751164e+01 5.5645593550e+01 5.3422241772e+01 3.7686e-16 0.0000e+00
      -11  1    5    5    0    0 -2.5442574951e+01 +1.8891309738e+01 -3.1608934811e+00 3.1846466862e+01 5.1100000000e-04 0.0000e+00 1.0000e+00
       11  1    4    4    0    0 +4.1901513528e+00 +7.6609119002e+00 +1.4371210751e+01 1.6816023258e+01 5.1100000000e-04 0.0000e+00 -1.0000e+00
       12  1    5    5    0    0 +2.1093196341e+01 -8.2336295581e+00 -7.3268576829e+00 2.3799126688e+01 0.0000000000e+00 0.0000e+00 -1.0000e+00
      -12  1    3    3    0    0 +1.5922725719e-01 -1.8318592080e+01 -3.8834595871e+00 1.8726383192e+01 0.0000000000e+00 0.0000e+00 1.0000e+00
</event>
<event>
 8      3 +1.0086356e-04 9.11880000e+01 7.81616400e-03 1.18400000e-01
      -11 -1    0    0    0    0 +0.0000000000e+00 +0.0000000000e+00 +4.5593999997e+01 4.5594000000e+01 5.1100000000e-04 0.0000e+00 1.0000e+00
       11 -1    0    0    0    0 -0.0000000000e+00 -0.0000000000e+00 -4.5593999997e+01 4.5594000000e+01 5.1100000000e-04 0.0000e+00 -1.0000e+00
       23  2    1    2    0    0 +0.0000000000e+00 +0.0000000000e+00 +1.3322676296e-15 9.1188000000e+01 9.1188000000e+01 1.4519e-14 0.0000e+00
  9990012  2    3    3    0    0 +1.7992734828e+01 +4.2776530521e+00 -2.9407297310e+00 7.2461422267e+01 6.9999807167e+01 1.5387e-04 0.0000e+00
      -11  1    4    4    0    0 -1.0064444576e+01 +6.9444125713e+00 -1.7785112160e+01 2.1583051809e+01 5.1100000000e-04 0.0000e+00 1.0000e+00
       11  1    4    4    0    0 -5.8755140280e+00 -1.1170163275e+01 +8.7798424389e+00 1.5374649466e+01 5.1100000000e-04 0.0000e+00 -1.0000e+00
       12  1    4    4    0    0 +3.3932693432e+01 +8.5034037560e+00 +6.0645399899e+00 3.5503720992e+01 0.0000000000e+00 0.0000e+00 -1.0000e+00
      -12  1    3    3    0    0 -1.7992734828e+01 -4.2776530521e+00 +2.9407297310e+00 1.8726577733e+01 0.0000000000e+00 0.0000e+00 1.0000e+00
</event>
<event>
 8      3 +1.0086356e-04 9.11880000e+01 7.81616400e-03 1.18400000e-01
      -11 -1    0    0    0    0 +0.0000000000e+00 +0.0000000000e+00 +4.5593999997e+01 4.5594000000e+01 5.1100000000e-04 0.0000e+00 1.0000e+00
       11 -1    0    0    0    0 -0.0000000000e+00 -0.0000000000e+00 -4.5593999997e+01 4.5594000000e+01 5.1100000000e-04 0.0000e+00 -1.0000e+00
       23  2    1    2    0    0 -5.3290705182e-15 -3.5527136788e-15 -8.3266726847e-17 9.1188000000e+01 9.1188000000e+01 9.4631e-14 0.0000e+00
  9990012  2    3    3    0    0 -1.3286944719e+01 -1.3193829570e+01 +2.4315415412e-01 7.2461570478e+01 7.0000000240e+01 1.6236e-04 0.0000e+00
      -11  1    4    4    0    0 +1.1394724941e+00 +2.0886483853e+00 +8.0231701077e+00 8.3685188941e+00 5.1100000000e-04 0.0000e+00 -1.0000e+00
       11  1    4    4    0    0 +6.2419100176e+00 +2.0407018339e+01 +2.7793702084e+00 2.1520518980e+01 5.1100000000e-04 0.0000e+00 1.0000e+00
       12  1    4    4    0    0 -2.0668327230e+01 -3.5689496294e+01 -1.0559386162e+01 4.2572532604e+01 0.0000000000e+00 0.0000e+00 -1.0000e+00
      -12  1    3    3    0    0 +1.3286944719e+01 +1.3193829570e+01 -2.4315415412e-01 1.8726429522e+01 0.0000000000e+00 0.0000e+00 1.0000e+00
</event>
<event>
 9      1 +1.0086356e-04 9.11880000e+01 7.81616400e-03 1.18400000e-01
      -11 -1    0    0    0    0 +0.0000000000e+00 +0.0000000000e+00 +4.5593999997e+01 4.5594000000e+01 5.1100000000e-04 0.0000e+00 1.0000e+00
       11 -1    0    0    0    0 -0.0000000000e+00 -0.0000000000e+00 -4.5593999997e+01 4.5594000000e+01 5.1100000000e-04 0.0000e+00 -1.0000e+00
       23  2    1    2    0    0 +0.0000000000e+00 +8.8817841970e-16 +0.0000000000e+00 9.1188000000e+01 9.1188000000e+01 3.3051e-14 0.0000e+00
  9990012  2    3    3    0    0 -1.5000977400e+01 -6.2002347121e+00 -9.3383303651e+00 7.2461637634e+01 7.0000087723e+01 3.4024e-05 0.0000e+00
       23  2    4    4    0    0 -5.8311654094e+00 -4.8371142177e+00 -1.1841565474e+01 6.2859047596e+01 6.1266932581e+01 2.0079e-13 0.0000e+00
      -11  1    5    5    0    0 +8.8596200247e+00 +2.5997660199e+01 -3.3973109220e+00 2.7675131879e+01 5.1100000000e-04 0.0000e+00 1.0000e+00
       11  1    5    5    0    0 -1.4690785434e+01 -3.0834774416e+01 -8.4442545515e+00 3.5183915717e+01 5.1100000000e-04 0.0000e+00 -1.0000e+00
       12  1    4    4    0    0 -9.1698119908e+00 -1.3631204944e+00 +2.5032351085e+00 9.6025900379e+00 0.0000000000e+00 0.0000e+00 -1.0000e+00
      -12  1    3    3    0    0 +1.5000977400e+01 +6.2002347121e+00 +9.3383303651e+00 1.8726362366e+01 0.0000000000e+00 0.0000e+00 1.0000e+00
</event>
<event>
 8      3 +1.0086356e-04 9.11880000e+01 7.81616400e-03 1.18400000e-01
      -11 -1    0    0    0    0 +0.0000000000e+00 +0.0000000000e+00 +4.5593999997e+01 4.5594000000e+01 5.1100000000e-04 0.0000e+00 -1.0000e+00
       11 -1    0    0    0    0 -0.0000000000e+00 -0.0000000000e+00 -4.5593999997e+01 4.5594000000e+01 5.1100000000e-04 0.0000e+00 1.0000e+00
       23  2    1    2    0    0 +0.0000000000e+00 +4.4408920985e-16 -1.7763568394e-15 9.1188000000e+01 9.1188000000e+01 1.8869e-15 0.0000e+00
  9990012  2    3    3    0    0 +1.7960577488e+01 -3.4236199352e+00 -4.0467287989e+00 7.2461560639e+01 6.9999987422e+01 1.1681e-04 0.0000e+00
      -11  1    4    4    0    0 -7.0767972849e+00 +2.0721309880e+01 -1.7740973487e+00 2.1968185283e+01 5.1100000000e-04 0.0000e+00 1.0000e+00
       11  1    4    4    0    0 +2.9089114710e+01 -8.6204794777e+00 -1.0947062160e+01 3.2254107199e+01 5.1100000000e-04 0.0000e+00 -1.0000e+00
       12  1    4    4    0    0 -4.0517399367e+00 -1.5524450337e+01 +8.6744307096e+00 1.8239268158e+01 0.0000000000e+00 0.0000e+00 -1.0000e+00
      -12  1    3    3    0    0 -1.7960577488e+01 +3.4236199352e+00 +4.0467287989e+00 1.8726439361e+01 0.0000000000e+00 0.0000e+00 1.0000e+00
</event>
<event>
 9      4 +1.0086356e-04 9.11880000e+01 7.81616400e-03 1.18400000e-01
      -11 -1    0    0    0    0 +0.0000000000e+00 +0.0000000000e+00 +4.5593999997e+01 4.5594000000e+01 5.1100000000e-04 0.0000e+00 -1.0000e+00
       11 -1    0    0    0    0 -0.0000000000e+00 -0.0000000000e+00 -4.5593999997e+01 4.5594000000e+01 5.1100000000e-04 0.0000e+00 1.0000e+00
       23  2    1    2    0    0 -1.7763568394e-15 +1.7763568394e-15 +0.0000000000e+00 9.1188000000e+01 9.1188000000e+01 1.1367e-14 0.0000e+00
 -9990012  2    3    3    0    0 +6.5093486955e+00 -6.7738151035e+00 -1.6199484886e+01 7.2461561415e+01 6.9999988433e+01 1.3289e-04 0.0000e+00
      -24  2    4    4    0    0 +1.3461316505e+01 -2.8636577993e+00 -2.0897937519e+01 6.3204421254e+01 5.8040223082e+01 3.8726e-14 0.0000e+00
      -11  1    4    4    0    0 -6.9519678091e+00 -3.9101573042e+00 +4.6984526332e+00 9.2571401615e+00 5.1100000000e-04 0.0000e+00 1.0000e+00
       11  1    5    5    0    0 -1.4845016549e+01 +1.7269348815e+01 -2.0870797877e-01 2.2773855276e+01 5.1100000000e-04 0.0000e+00 -1.0000e+00
      -12  1    5    5    0    0 +2.8306333053e+01 -2.0133006615e+01 -2.0689229541e+01 4.0430565978e+01 0.0000000000e+00 0.0000e+00 1.0000e+00
       12  1    3    3    0    0 -6.5093486955e+00 +6.7738151035e+00 +1.6199484886e+01 1.8726438585e+01 0.0000000000e+00 0.0000e+00 -1.0000e+00
</event>
<event>
 9      1 +1.0086356e-04 9.11880000e+01 7.81616400e-03 1.18400000e-01
      -11 -1    0    0    0    0 +0.0000000000e+00 +0.0000000000e+00 +4.5593999997e+01 4.5594000000e+01 5.1100000000e-04 0.0000e+00 1.0000e+00
       11 -1    0    0    0    0 -0.0000000000e+00 -0.0000000000e+00 -4.5593999997e+01 4.5594000000e+01 5.1100000000e-04 0.0000e+00 -1.0000e+00
       23  2    1    2    0    0 +2.2204460493e-15 -1.7763568394e-15 +0.0000000000e+00 9.1188000000e+01 9.1188000000e+01 1.9414e-15 0.0000e+00
  9990012  2    3    3    0    0 -2.3048705208e+00 +3.5291321660e+00 -1.8245866224e+01 7.2461579193e+01 7.0000011592e+01 1.7723e-04 0.0000e+00
       23  2    4    4    0    0 -4.9939197404e+00 -7.1151434650e+00 -4.9800102259e+00 5.5241982079e+01 5.4325975198e+01 1.1735e-13 0.0000e+00
      -11  1    5    5    0    0 -2.5933614137e+01 -1.2388908107e+01 -1.3842240253e+01 3.1900548613e+01 5.1100000000e-04 0.0000e+00 -1.0000e+00
       11  1    5    5    0    0 +2.0939694397e+01 +5.2737646421e+00 +8.8622300270e+00 2.3341433466e+01 5.1100000000e-04 0.0000e+00 1.0000e+00
       12  1    4    4    0    0 +2.6890492196e+00 +1.0644275631e+01 -1.3265855998e+01 1.7219597114e+01 0.0000000000e+00 0.0000e+00 -1.0000e+00
      -12  1    3    3    0    0 +2.3048705208e+00 -3.5291321660e+00 +1.8245866224e+01 1.8726420807e+01 0.0000000000e+00 0.0000e+00 1.0000e+00
</event>
<event>
 9      3 +1.0086356e-04 9.11880000e+01 7.81616400e-03 1.18400000e-01
      -11 -1    0    0    0    0 +0.0000000000e+00 +0.0000000000e+00 +4.5593999997e+01 4.5594000000e+01 5.1100000000e-04 0.0000e+00 1.0000e+00
       11 -1    0    0    0    0 -0.0000000000e+00 -0.0000000000e+00 -4.5593999997e+01 4.5594000000e+01 5.1100000000e-04 0.0000e+00 -1.0000e+00
       23  2    1    2    0    0 -1.7208456882e-15 +8.8817841970e-16 +0.0000000000e+00 9.1188000000e+01 9.1188000000e+01 1.5161e-13 0.0000e+00
  9990012  2    3    3    0    0 -1.2849769976e-01 -4.1598981481e+00 -1.8258212142e+01 7.2461452670e+01 6.9999846773e+01 1.5147e-04 0.0000e+00
       24  2    4    4    0    0 -1.3276395102e+01 -5.5433254274e+00 -1.3908803463e+00 5.1030448044e+01 4.8940585976e+01 9.6784e-14 0.0000e+00
      -11  1    5    5    0    0 +1.2397376251e+01 -8.8886441430e+00 -1.5329292783e+01 2.1626145059e+01 5.1100000000e-04 0.0000e+00 1.0000e+00
       11  1    4    4    0    0 +1.3147897402e+01 +1.3834272792e+00 -1.6867331796e+01 2.1431004627e+01 5.1100000000e-04 0.0000e+00 -1.0000e+00
       12  1    5    5    0    0 -2.5673771353e+01 +3.3453187157e+00 +1.3938412437e+01 2.9404302985e+01 0.0000000000e+00 0.0000e+00 -1.0000e+00
      -12  1    3    3    0    0 +1.2849769976e-01 +4.1598981481e+00 +1.8258212142e+01 1.8726547330e+01 0.0000000000e+00 0.0000e+00 1.0000e+00
</event>
<event>
 9      4 +1.0086356e-04 9.11880000e+01 7.81616400e-03 1.18400000e-01
      -11 -1    0    0    0    0 +0.0000000000e+00 +0.0000000000e+00 +4.5593999997e+01 4.5594000000e+01 5.1100000000e-04 0.0000e+00 -1.0000e+00
       11 -1    0    0    0    0 -0.0000000000e+00 -0.0000000000e+00 -4.5593999997e+01 4.5594000000e+01 5.1100000000e-04 0.0000e+00 1.0000e+00
       23  2    1    2    0    0 -4.4408920985e-16 +0.0000000000e+00 +3.1086244690e-15 9.1188000000e+01 9.1188000000e+01 8.2909e-14 0.0000e+00
 -9990012  2    3    3    0    0 +2.7959736350e+00 -1.8267724787e+01 -3.0262805410e+00 7.2461398296e+01 6.9999775940e+01 8.0331e-05 0.0000e+00
      -24  2    4    4    0    0 -2.9550746906e+00 -1.9517073652e+01 +1.3738223972e+01 5.4693898718e+01 4.9122653926e+01 3.8544e-14 0.0000e+00
      -11  1    4    4    0    0 +5.7510483256e+00 +1.2493488648e+00 -1.6764504513e+01 1.7767499578e+01 5.1100000000e-04 0.0000e+00 1.0000e+00
       11  1    5    5    0    0 -4.8688481074e+00 -3.2041639382e+01 -4.2548809205e+00 3.2687556472e+01 5.1100000000e-04 0.0000e+00 -1.0000e+00
      -12  1    5    5    0    0 +1.9137734168e+00 +1.2524565730e+01 +1.7993104892e+01 2.2006342247e+01 0.0000000000e+00 0.0000e+00 1.0000e+00
       12  1    3    3    0    0 -2.7959736350e+00 +1.8267724787e+01 +3.0262805410e+00 1.8726601704e+01 0.0000000000e+00 0.0000e+00 -1.0000e+00
</event>
<event>
 9      3 +1.0086356e-04 9.11880000e+01 7.81616400e-03 1.18400000e-01
      -11 -1    0    0    0    0 +0.0000000000e+00 +0.0000000000e+00 +4.5593999997e+01 4.5594000000e+01 5.1100000000e-04 0.0000e+00 -1.0000e+00
       11 -1    0    0    0    0 -0.0000000000e+00 -0.0000000000e+00 -4.5593999997e+01 4.5594000000e+01 5.1100000000e-04 0.0000e+00 1.0000e+00
       23  2    1    2    0    0 +8.8817841970e-16 -1.7763568394e-15 +0.0000000000e+00 9.1188000000e+01 9.1188000000e+01 1.8730e-13 0.0000e+00
  9990012  2    3    3    0    0 -5.8266132738e+00 -1.2862602276e+01 +1.2299642539e+01 7.2461623785e+01 7.0000069681e+01 1.0423e-04 0.0000e+00
       24  2    4    4    0    0 +1.0006203843e+01 -2.2318933653e+00 +4.5513501087e+00 5.1877015320e+01 5.0649821988e+01 1.1104e-13 0.0000e+00
      -11  1    5    5    0    0 +8.3885737750e+00 -1.1030697402e+01 -2.0799860020e+01 2.4993571819e+01 5.1100000000e-04 0.0000e+00 1.0000e+00
       11  1    4    4    0    0 -1.5832817117e+01 -1.0630708911e+01 +7.7482924307e+00 2.0584608465e+01 5.1100000000e-04 0.0000e+00 -1.0000e+00
       12  1    5    5    0    0 +1.6176300681e+00 +8.7988040366e+00 +2.5351210129e+01 2.6883443501e+01 0.0000000000e+00 0.0000e+00 -1.0000e+00
      -12  1    3    3    0    0 +5.8266132738e+00 +1.2862602276e+01 -1.2299642539e+01 1.8726376215e+01 0.0000000000e+00 0.0000e+00 1.0000e+00
</event>
<event>
 9      2 +1.0086356e-04 9.11880000e+01 7.81616400e-03 1.18400000e-01
      -11 -1    0    0    0    0 +0.0000000000e+00 +0.0000000000e+00 +4.5593999997e+01 4.5594000000e+01 5.1100000000e-04 0.0000e+00 -1.0000e+00
       11 -1    0    0    0    0 -0.0000000000e+00 -0.0000000000e+00 -4.5593999997e+01 4.5594000000e+01 5.1100000000e-04 0.0000e+00 1.0000e+00
       23  2    1    2    0    0 +3.5527136788e-15 -8.8817841970e-16 -1.7763568394e-15 9.1188000000e+01 9.1188000000e+01 4.6946e-14 0.0000e+00
 -9990012  2    3    3    0    0 +1.7669826432e+01 +2.7304462603e+00 -5.5679346083e+00 7.2461548155e+01 6.9999971159e+01 3.6098e-04 0.0000e+00
       23  2    4    4    0    0 +2.1626049880e+01 +1.7515739790e+00 -1.1055666236e+01 6.5625972587e+01 6.0940844081e+01 9.5736e-15 0.0000e+00
      -11  1    5    5    0    0 +1.4259808204e+01 +3.1201863933e+01 -6.7667445354e+00 3.4966945460e+01 5.1100000000e-04 0.0000e+00 -1.0000e+00
       11  1    5    5    0    0 +7.3662416760e+00 -2.9450289954e+01 -4.2889217011e+00 3.0659027128e+01 5.1100000000e-04 0.0000e+00 1.0000e+00
      -12  1    4    4    0    0 -3.9562234484e+00 +9.7887228123e-01 +5.4877316281e+00 6.8355755675e+00 0.0000000000e+00 0.0000e+00 1.0000e+00
       12  1    3    3    0    0 -1.7669826432e+01 -2.7304462603e+00 +5.5679346083e+00 1.8726451845e+01 0.0000000000e+00 0.0000e+00 -1.0000e+00
</event>
<event>
 8      3 +1.0086356e-04 9.11880000e+01 7.81616400e-03 1.18400000e-01
      -11 -1    0    0    0    0 +0.0000000000e+00 +0.0000000000e+00 +4.5593999997e+01 4.5594000000e+01 5.1100000000e-04 0.0000e+00 1.0000e+00
       11 -1    0    0    0    0 -0.0000000000e+00 -0.0000000000e+00 -4.5593999997e+01 4.5594000000e+01 5.1100000000e-04 0.0000e+00 -1.0000e+00
       23  2    1    2    0    0 -1.9984014443e-15 +0.0000000000e+00 -8.8817841970e-16 9.1188000000e+01 9.1188000000e+01 4.4150e-15 0.0000e+00
  9990012  2    3    3    0    0 +1.1077704804e+00 -1.7289476166e+01 -7.1067873210e+00 7.2462093679e+01 7.0000681802e+01 5.6595e-04 0.0000e+00
      -11  1    4    4    0    0 -1.9355874363e+01 +6.8129351661e-01 -5.9390473260e+00 2.0257993894e+01 5.1100000000e-04 0.0000e+00 1.0000e+00
       11  1    4    4    0    0 +1.1019719081e+01 +9.0187933493e+00 +1.3885885413e+01 1.9889460929e+01 5.1100000000e-04 0.0000e+00 -1.0000e+00
       12  1    4    4    0    0 +9.4439257630e+00 -2.6989563031e+01 -1.5053625408e+01 3.2314638856e+01 0.0000000000e+00 0.0000e+00 -1.0000e+00
      -12  1    3    3    0    0 -1.1077704804e+00 +1.7289476166e+01 +7.1067873210e+00 1.8725906321e+01 0.0000000000e+00 0.0000e+00 1.0000e+00
</event>
<event>
 8      3 +1.0086356e-04 9.11880000e+01 7.81616400e-03 1.18400000e-01
      -11 -1    0    0    0    0 +0.0000000000e+00 +0.0000000000e+00 +4.5593999997e+01 4.5594000000e+01 5.1100000000e-04 0.0000e+00 1.0000e+00
       11 -1    0    0    0    0 -0.0000000000e+00 -0.0000000000e+00 -4.5593999997e+01 4.5594000000e+01 5.1100000000e-04 0.0000e+00 -1.0000e+00
       23  2    1    2    0    0 +0.0000000000e+00 -2.2204460493e-15 -2.2204460493e-16 9.1188000000e+01 9.1188000000e+01 2.1293e-14 0.0000e+00
  9990012  2    3    3    0    0 -1.8596167634e+01 +1.1869291030e+00 +1.8585170110e+00 7.2461539127e+01 6.9999959398e+01 2.7894e-04 0.0000e+00
      -11  1    4    4    0    0 +1.4019545824e+01 +1.9717240849e+01 -1.6786189907e+01 2.9446450103e+01 5.1100000000e-04 0.0000e+00 -1.0000e+00
       11  1    4    4    0    0 -2.6850437786e+01 -1.1632569146e+01 +1.1161945134e+01 3.1318551909e+01 5.1100000000e-04 0.0000e+00 1.0000e+00
       12  1    4    4    0    0 -5.7652756720e+00 -6.8977426008e+00 +7.4827617835e+00 1.1696537114e+01 0.0000000000e+00 0.0000e+00 -1.0000e+00
      -12  1    3    3    0    0 +1.8596167634e+01 -1.1869291030e+00 -1.8585170110e+00 1.8726460873e+01 0.0000000000e+00 0.0000e+00 1.0000e+00
</event>
<event>
 9      3 +1.0086356e-04 9.11880000e+01 7.81616400e-03 1.18400000e-01
      -11 -1    0    0    0    0 +0.0000000000e+00 +0.0000000000e+00 +4.5593999997e+01 4.5594000000e+01 5.1100000000e-04 0.0000e+00 -1.0000e+00
       11 -1    0    0    0    0 -0.0000000000e+00 -0.0000000000e+00 -4.5593999997e+01 4.5594000000e+01 5.1100000000e-04 0.0000e+00 1.0000e+00
       23  2    1    2    0    0 -8.8817841970e-16 +0.0000000000e+00 +0.0000000000e+00 9.1188000000e+01 9.1188000000e+01 7.0379e-14 0.0000e+00
  9990012  2    3    3    0    0 -6.9181811197e+00 +2.3227826451e+00 +1.7245966128e+01 7.2461550873e+01 6.9999974700e+01 3.4284e-04 0.0000e+00
       24  2    4    4    0    0 -1.4612267679e+01 +9.4140491507e+00 +1.2151354218e+01 6.0823677381e+01 5.7006329759e+01 1.3844e-13 0.0000e+00
      -11  1    5    5    0    0 +1.1907525306e+00 +2.1027646203e+00 -2.2189465998e+01 2.2320661105e+01 5.1100000000e-04 0.0000e+00 1.0000e+00
       11  1    4    4    0    0 +7.6940865598e+00 -7.0912665056e+00 +5.0946119104e+00 1.1637873492e+01 5.1100000000e-04 0.0000e+00 -1.0000e+00
       12  1    5    5    0    0 -1.5803020210e+01 +7.3112845304e+00 +3.4340820215e+01 3.8503016276e+01 0.0000000000e+00 0.0000e+00 -1.0000e+00
      -12  1    3    3    0    0 +6.9181811197e+00 -2.3227826451e+00 -1.7245966128e+01 1.8726449127e+01 0.0000000000e+00 0.0000e+00 1.0000e+00
</event>
<event>
 8      3 +1.0086356e-04 9.11880000e+01 7.81616400e-03 1.18400000e-01
      -11 -1    0    0    0    0 +0.0000000000e+00 +0.0000000000e+00 +4.5593999997e+01 4.5594000000e+01 5.1100000000e-04 0.0000e+00 -1.0000e+00
       11 -1    0    0    0    0 -0.0000000000e+00 -0.0000000000e+00 -4.5593999997e+01 4.5594000000e+01 5.1100000000e-04 0.0000e+00 1.0000e+00
       23  2    1    2    0    0 +3.5527136788e-15 -1.7763568394e-15 -6.2172489379e-15 9.1188000000e+01 9.1188000000e+01 8.6451e-14 0.0000e+00
  9990012  2    3    3    0    0 -1.6070106421e+01 +9.0903452629e+00 +3.1297676988e+00 7.2461597697e+01 7.0000035697e+01 1.1520e-04 0.0000e+00
      -11  1    4    4    0    0 -2.5709814433e+01 +8.5495028733e+00 +9.8006629364e+00 2.8812177144e+01 5.1100000000e-04 0.0000e+00 -1.0000e+00
       11  1    4    4    0    0 +7.4530171308e+00 -9.1329347954e+00 -2.2250880323e+01 2.5180540855e+01 5.1100000000e-04 0.0000e+00 1.0000e+00
       12  1    4    4    0    0 +2.1866908813e+00 +9.6737771850e+00 +1.5579985085e+01 1.8468879698e+01 0.0000000000e+00 0.0000e+00 -1.0000e+00
      -12  1    3    3    0    0 +1.6070106421e+01 -9.0903452629e+00 -3.1297676988e+00 1.8726402303e+01 0.0000000000e+00 0.0000e+00 1.0000e+00
</event>
<event>
 9      2 +1.0086356e-04 9.11880000e+01 7.81616400e-03 1.18400000e-01
      -11 -1    0    0    0    0 +0.0000000000e+00 +0.0000000000e+00 +4.5593999997e+01 4.5594000000e+01 5.1100000000e-04 0.0000e+00 1.0000e+00
       11 -1    0    0    0    0 -0.0000000000e+00 -0.0000000000e+00 -4.5593999997e+01 4.5594000000e+01 5.1100000000e-04 0.0000e+00 -1.0000e+00
       23  2    1    2    0    0 +1.7763568394e-15 +2.2204460493e-15 +5.3290705182e-15 9.1188000000e+01 9.1188000000e+01 2.9901e-14 0.0000e+00
 -9990012  2    3    3    0    0 +1.2260068070e+01 -3.1136029995e+00 +1.3808539177e+01 7.2461560218e+01 6.9999986873e+01 5.6351e-04 0.0000e+00
       23  2    4    4    0    0 +7.2333382278e+00 -1.7736604123e+00 +2.2103863946e+01 6.2669937672e+01 5.8167630460e+01 1.0730e-13 0.0000e+00
      -11  1    5    5    0    0 -2.4312507457e+00 +2.7114125941e+01 +1.6083650054e+01 3.1619149341e+01 5.1100000000e-04 0.0000e+00 1.0000e+00
       11  1    5    5    0    0 +9.6645889735e+00 -2.8887786353e+01 +6.0202138929e+00 3.1050788331e+01 5.1100000000e-04 0.0000e+00 -1.0000e+00
      -12  1    4    4    0    0 +5.0267298423e+00 -1.3399425872e+00 -8.2953247696e+00 9.7916225457e+00 0.0000000000e+00 0.0000e+00 1.0000e+00
       12  1    3    3    0    0 -1.2260068070e+01 +3.1136029995e+00 -1.3808539177e+01 1.8726439782e+01 0.0000000000e+00 0.0000e+00 -1.0000e+00
</event>
<event>
 8      3 +1.0086356e-04 9.11880000e+01 7.81616400e-03 1.18400000e-01
      -11 -1    0    0    0    0 +0.0000000000e+00 +0.0000000000e+00 +4.5593999997e+01 4.5594000000e+01 5.1100000000e-04 0.0000e+00 1.0000e+00
       11 -1    0    0    0    0 -0.0000000000e+00 -0.0000000000e+00 -4.5593999997e+01 4.5594000000e+01 5.1100000000e-04 0.0000e+00 -1.0000e+00
       23  2    1    2    0    0 -1.7763568394e-15 +1.7763568394e-15 +0.0000000000e+00 9.1188000000e+01 9.1188000000e+01 1.4458e-13 0.0000e+00
  9990012  2    3    3    0    0 -5.0220159794e+00 +5.7977546540e+00 -1.7083459556e+01 7.2461569643e+01 6.9999999151e+01 4.7147e-05 0.0000e+00
      -11  1    4    4    0    0 -2.2518627211e+00 +2.1998001593e+01 -1.7529708702e+01 2.8218321127e+01 5.1100000000e-04 0.0000e+00 1.0000e+00
       11  1    4    4    0    0 -2.0963878357e+01 -2.5120735654e+00 +3.0262516474e+00 2.1329625141e+01 5.1100000000e-04 0.0000e+00 -1.0000e+00
       12  1    4    4    0    0 +1.8193725099e+01 -1.3688173373e+01 -2.5800025008e+00 2.2913623375e+01 0.0000000000e+00 0.0000e+00 -1.0000e+00
      -12  1    3    3    0    0 +5.0220159794e+00 -5.7977546540e+00 +1.7083459556e+01 1.8726430357e+01 0.0000000000e+00 0.0000e+00 1.0000e+00
</event>
<event>
 8      4 +1.0086356e-04 9.11880000e+01 7.81616400e-03 1.18400000e-01
      -11 -1    0    0    0    0 +0.0000000000e+00 +0.0000000000e+00 +4.5593999997e+01 4.5594000000e+01 5.1100000000e-04 0.0000e+00 -1.0000e+00
       11 -1    0    0    0    0 -0.0000000000e+00 -0.0000000000e+00 -4.5593999997e+01 4.5594000000e+01 5.1100000000e-04 0.0000e+00 1.0000e+00
       23  2    1    2    0    0 +0.0000000000e+00 +0.0000000000e+00 +1.7763568394e-15 9.1188000000e+01 9.1188000000e+01 1.4254e-13 0.0000e+00
 -9990012  2    3    3    0    0 +1.3033255561e+01 +8.1824117708e+00 +1.0670596561e+01 7.2461568309e+01 6.9999997414e+01 3.1699e-04 0.0000e+00
      -11  1    4    4    0    0 -1.2498241836e+01 -5.0376014805e+00 +1.2832247357e+01 1.8607795414e+01 5.1100000000e-04 0.0000e+00 1.0000e+00
       11  1    4    4    0    0 -6.1691433691e+00 +2.0212630769e+01 +1.4941008627e+00 2.1185870531e+01 5.1100000000e-04 0.0000e+00 -1.0000e+00
      -12  1    4    4    0    0 +3.1700640766e+01 -6.9926175174e+00 -3.6557516586e+00 3.2667902365e+01 0.0000000000e+00 0.0000e+00 1.0000e+00
       12  1    3    3    0    0 -1.3033255561e+01 -8.1824117708e+00 -1.0670596561e+01 1.8726431691e+01 0.0000000000e+00 0.0000e+00 -1.0000e+00
</event>
<event>
 9      4 +1.0086356e-04 9.11880000e+01 7.81616400e-03 1.18400000e-01
      -11 -1    0    0    0    0 +0.0000000000e+00 +0.0000000000e+00 +4.5593999997e+01 4.5594000000e+01 5.1100000000e-04 0.0000e+00 1.0000e+00
       11 -1    0    0    0    0 -0.0000000000e+00 -0.0000000000e+00 -4.5593999997e+01 4.5594000000e+01 5.1100000000e-04 0.0000e+00 -1.0000e+00
       23  2    1    2    0    0 -1.7763568394e-15 -8.8817841970e-16 +0.0000000000e+00 9.1188000000e+01 9.1188000000e+01 1.3315e-14 0.0000e+00
 -9990012  2    3    3    0    0 -1.2157146678e+01 -5.7059846543e+00 +1.3050856054e+01 7.2461566277e+01 6.9999994766e+01 2.3801e-04 0.0000e+00
      -24  2    4    4    0    0 -4.7914125469e+00 +4.3679081279e+00 -4.0537986965e+00 5.1288315003e+01 5.0715103435e+01 1.3944e-14 0.0000e+00
      -11  1    4    4    0    0 -7.3657341315e+00 -1.0073892782e+01 +1.7104654751e+01 2.1173251274e+01 5.1100000000e-04 0.0000e+00 1.0000e+00
       11  1    5    5    0    0 +1.1738147607e+01 +1.5194611033e+01 +1.4595121237e+01 2.4117999044e+01 5.1100000000e-04 0.0000e+00 -1.0000e+00
      -12  1    5    5    0    0 -1.6529560154e+01 -1.0826702905e+01 -1.8648919933e+01 2.7170315960e+01 0.0000000000e+00 0.0000e+00 1.0000e+00
       12  1    3    3    0    0 +1.2157146678e+01 +5.7059846543e+00 -1.3050856054e+01 1.8726433723e+01 0.0000000000e+00 0.0000e+00 -1.0000e+00
</event>
<event>
 9      3 +1.0086356e-04 9.11880000e+01 7.81616400e-03 1.18400000e-01
      -11 -1    0    0    0    0 +0.0000000000e+00 +0.0000000000e+00 +4.5593999997e+01 4.5594000000e+01 5.1100000000e-04 0.0000e+00 -1.0000e+00
       11 -1    0    0    0    0 -0.0000000000e+00 -0.0000000000e+00 -4.5593999997e+01 4.5594000000e+01 5.1100000000e-04 0.0000e+00 1.0000e+00
       23  2    1    2    0    0 +1.7763568394e-15 +1.7763568394e-15 +8.8817841970e-16 9.1188000000e+01 9.1188000000e+01 1.1332e-14 0.0000e+00
  9990012  2    3    3    0    0 +1.5451326209e+01 +1.0246809380e+01 +2.6335327335e+00 7.2461652819e+01 7.0000107503e+01 1.7331e-05 0.0000e+00
       24  2    4    4    0    0 +2.1464844014e+01 +8.6906415405e-01 +4.6968224426e+00 6.1131972038e+01 5.7040012825e+01 1.2891e-15 0.0000e+00
      -11  1    5    5    0    0 -9.7266706421e+00 +1.9957065087e+01 -6.0613132099e+00 2.3013736915e+01 5.1100000000e-04 0.0000e+00 1.0000e+00
       11  1    4    4    0    0 -6.0135178052e+00 +9.3777452259e+00 -2.0632897090e+00 1.1329680781e+01 5.1100000000e-04 0.0000e+00 -1.0000e+00
       12  1    5    5    0    0 +3.1191514656e+01 -1.9088000933e+01 +1.0758135652e+01 3.8118235123e+01 0.0000000000e+00 0.0000e+00 -1.0000e+00
      -12  1    3    3    0    0 -1.5451326209e+01 -1.0246809380e+01 -2.6335327335e+00 1.8726347181e+01 0.0000000000e+00 0.0000e+00 1.0000e+00
</event>
<event>
 8      4 +1.0086356e-04 9.11880000e+01 7.81616400e-03 1.18400000e-01
      -11 -1    0    0    0    0 +0.0000000000e+00 +0.0000000000e+00 +4.5593999997e+01 4.5594000000e+01 5.1100000000e-04 0.0000e+00 -1.0000e+00
       11 -1    0    0    0    0 -0.0000000000e+00 -0.0000000000e+00 -4.5593999997e+01 4.5594000000e+01 5.1100000000e-04 0.0000e+00 1.0000e+00
       23  2    1    2    0    0 +1.7763568394e-15 +1.7763568394e-15 +1.7763568394e-15 9.1188000000e+01 9.1188000000e+01 2.6798e-13 0.0000e+00
 -9990012  2    3    3    0    0 -1.1286436309e+01 -1.3323787703e+01 -6.7655010739e+00 7.2461575672e+01 7.0000007006e+01 8.4779e-05 0.0000e+00
      -11  1    4    4    0    0 +1.1368567476e+01 -6.2791917063e+00 -2.1996161865e+01 2.5544152208e+01 5.1100000000e-04 0.0000e+00 1.0000e+00
       11  1    4    4    0    0 +5.9041815073e+00 +4.2441820714e+00 +1.4475094097e+01 1.6198789773e+01 5.1100000000e-04 0.0000e+00 -1.0000e+00
      -12  1    4    4    0    0 -2.8559185292e+01 -1.1288778069e+01 +7.5556669387e-01 3.0718633691e+01 0.0000000000e+00 0.0000e+00 1.0000e+00
       12  1    3    3    0    0 +1.1286436309e+01 +1.3323787703e+01 +6.7655010739e+00 1.8726424328e+01 0.0000000000e+00 0.0000e+00 -1.0000e+00
</event>
<event>
 8      4 +1.0086356e-04 9.11880000e+01 7.81616400e-03 1.18400000e-01
      -11 -1    0    0    0    0 +0.0000000000e+00 +0.0000000000e+00 +4.5593999997e+01 4.5594000000e+01 5.1100000000e-04 0.0000e+00 -1.0000e+00
       11 -1    0    0    0    0 -0.0000000000e+00 -0.0000000000e+00 -4.5593999997e+01 4.5594000000e+01 5.1100000000e-04 0.0000e+00 1.0000e+00
       23  2    1    2    0    0 -4.4408920985e-15 -1.7763568394e-15 +1.7763568394e-15 9.1188000000e+01 9.1188000000e+01 1.0166e-13 0.0000e+00
 -9990012  2    3    3    0    0 -5.4637942126e+00 +1.5396532646e+01 -9.1527258675e+00 7.2461584018e+01 7.0000017878e+01 4.4897e-04 0.0000e+00
      -11  1    4    4    0    0 -6.9513995791e+00 +1.5277008322e+01 -5.8942797032e+00 1.7789082969e+01 5.1100000000e-04 0.0000e+00 1.0000e+00
       11  1    4    4    0    0 +2.2227963204e+01 -7.0118308187e+00 +1.3621951553e+01 2.6996401316e+01 5.1100000000e-04 0.0000e+00 -1.0000e+00
      -12  1    4    4    0    0 -2.0740357838e+01 +7.1313551424e+00 -1.6880397717e+01 2.7676099734e+01 0.0000000000e+00 0.0000e+00 1.0000e+00
       12  1    3    3    0    0 +5.4637942126e+00 -1.5396532646e+01 +9.1527258675e+00 1.8726415982e+01 0.0000000000e+00 0.0000e+00 -1.0000e+00
</event>
<event>
 9      3 +1.0086356e-04 9.11880000e+01 7.81616400e-03 1.18400000e-01
      -11 -1    0    0    0    0 +0.0000000000e+00 +0.0000000000e+00 +4.5593999997e+01 4.5594000000e+01 5.1100000000e-04 0.0000e+00 -1.0000e+00
       11 -1    0    0    0    0 -0.0000000000e+00 -0.0000000000e+00 -4.5593999997e+01 4.5594000000e+01 5.1100000000e-04 0.0000e+00 1.0000e+00
       23  2    1    2    0    0 -3.5527136788e-15 +8.8817841970e-16 -8.8817841970e-16 9.1188000000e+01 9.1188000000e+01 1.1702e-13 0.0000e+00
  9990012  2    3    3    0    0 +1.6957462377e+01 -2.8768410267e+00 +7.4057660750e+00 7.2461625132e+01 7.0000071436e+01 9.0017e-05 0.0000e+00
       24  2    4    4    0    0 +7.8567575738e+00 -1.5613473267e+01 -3.8179828960e+00 5.3199819142e+01 5.0101243262e+01 3.7525e-14 0.0000e+00
      -11  1    5    5    0    0 +2.4260271489e+01 +8.5950824007e-01 +9.8890634518e+00 2.6212460841e+01 5.1100000000e-04 0.0000e+00 -1.0000e+00
       11  1    4    4    0    0 +9.1007048031e+00 +1.2736632240e+01 +1.1223748971e+01 1.9261805989e+01 5.1100000000e-04 0.0000e+00 1.0000e+00
       12  1    5    5    0    0 -1.6403513915e+01 -1.6472981507e+01 -1.3707046348e+01 2.6987358301e+01 0.0000000000e+00 0.0000e+00 -1.0000e+00
      -12  1    3    3    0    0 -1.6957462377e+01 +2.8768410267e+00 -7.4057660750e+00 1.8726374868e+01 0.0000000000e+00 0.0000e+00 1.0000e+00
</event>
<event>
 9      4 +1.0086356e-04 9.11880000e+01 7.81616400e-03 1.18400000e-01
      -11 -1    0    0    0    0 +0.0000000000e+00 +0.0000000000e+00 +4.5593999997e+01 4.5594000000e+01 5.1100000000e-04 0.0000e+00 -1.0000e+00
       11 -1    0    0    0    0 -0.0000000000e+00 -0.0000000000e+00 -4.5593999997e+01 4.5594000000e+01 5.1100000000e-04 0.0000e+00 1.0000e+00
       23  2    1    2    0    0 +0.0000000000e+00 +8.8817841970e-16 +0.0000000000e+00 9.1188000000e+01 9.1188000000e+01 1.7015e-13 0.0000e+00
 -9990012  2    3    3    0    0 +1.7002998950e+01 -4.5709612093e+00 -6.3778330705e+00 7.2461750660e+01 7.0000234959e+01 3.0556e-05 0.0000e+00
      -24  2    4    4    0    0 +1.4458536911e+01 +7.9826512999e+00 -3.6267449840e+00 5.9360759857e+01 5.6901445678e+01 7.8860e-15 0.0000e+00
      -11  1    4    4    0    0 +2.5444620389e+00 -1.2553612509e+01 -2.7510880865e+00 1.3100990803e+01 5.1100000000e-04 0.0000e+00 1.0000e+00
       11  1    5    5    0    0 +8.0164225233e-01 +3.4758254193e+00 +2.6097561561e+01 2.6340210940e+01 5.1100000000e-04 0.0000e+00 -1.0000e+00
      -12  1    5    5    0    0 +1.3656894659e+01 +4.5068258806e+00 -2.9724306545e+01 3.3020548918e+01 0.0000000000e+00 0.0000e+00 1.0000e+00
       12  1    3    3    0    0 -1.7002998950e+01 +4.5709612093e+00 +6.3778330705e+00 1.8726249340e+01 0.0000000000e+00 0.0000e+00 -1.0000e+00
</event>
<event>
 8      3 +1.0086356e-04 9.11880000e+01 7.81616400e-03 1.18400000e-01
      -11 -1    0    0    0    0 +0.0000000000e+00 +0.0000000000e+00 +4.5593999997e+01 4.5594000000e+01 5.1100000000e-04 0.0000e+00 1.0000e+00
       11 -1    0    0    0    0 -0.0000000000e+00 -0.0000000000e+00 -4.5593999997e+01 4.5594000000e+01 5.1100000000e-04 0.0000e+00 -1.0000e+00
       23  2    1    2    0    0 +0.0000000000e+00 -1.7763568394e-15 +2.7755575616e-15 9.1188000000e+01 9.1188000000e+01 5.0197e-14 0.0000e+00
  9990012  2    3    3    0    0 -1.3626122167e+01 -1.2821358182e+01 +7.8763763472e-01 7.2461580054e+01 7.0000012714e+01 3.0694e-04 0.0000e+00
      -11  1    4    4    0    0 -1.1023776476e+01 +5.0437891957e+00 +1.8067100495e+01 2.1757379847e+01 5.1100000000e-04 0.0000e+00 1.0000e+00
       11  1    4    4    0    0 +1.9314295161e+01 -2.8003221269e+00 -1.0415824791e+00 1.9544019441e+01 5.1100000000e-04 0.0000e+00 -1.0000e+00
       12  1    4    4    0    0 -2.1916640852e+01 -1.5064825251e+01 -1.6237880382e+01 3.1160180766e+01 0.0000000000e+00 0.0000e+00 -1.0000e+00
      -12  1    3    3    0    0 +1.3626122167e+01 +1.2821358182e+01 -7.8763763472e-01 1.8726419946e+01 0.0000000000e+00 0.0000e+00 1.0000e+00
</event>
<event>
 8      4 +1.0086356e-04 9.11880000e+01 7.81616400e-03 1.18400000e-01
      -11 -1    0    0    0    0 +0.0000000000e+00 +0.0000000000e+00 +4.5593999997e+01 4.5594000000e+01 5.1100000000e-04 0.0000e+00 -1.0000e+00
       11 -1    0    0    0    0 -0.0000000000e+00 -0.0000000000e+00 -4.5593999997e+01 4.5594000000e+01 5.1100000000e-04 0.0000e+00 1.0000e+00
       23  2    1    2    0    0 +0.0000000000e+00 +0.0000000000e+00 +8.8817841970e-16 9.1188000000e+01 9.1188000000e+01 1.5336e-13 0.0000e+00
 -9990012  2    3    3    0    0 +1.6831938762e+01 +6.8444494953e+00 +4.5290683088e+00 7.2461732056e+01 7.0000210724e+01 3.5419e-04 0.0000e+00
      -11  1    4    4    0    0 +1.6728501127e+00 -1.0670230542e+01 +1.0423368615e+01 1.5009958723e+01 5.1100000000e-04 0.0000e+00 -1.0000e+00
       11  1    4    4    0    0 +1.6224101602e+01 +3.1116051457e+01 +1.0015872011e+01 3.6493120221e+01 5.1100000000e-04 0.0000e+00 1.0000e+00
      -12  1    4    4    0    0 -1.0650129526e+00 -1.3601371420e+01 -1.5910172317e+01 2.0958653112e+01 0.0000000000e+00 0.0000e+00 1.0000e+00
       12  1    3    3    0    0 -1.6831938762e+01 -6.8444494953e+00 -4.5290683088e+00 1.8726267944e+01 0.0000000000e+00 0.0000e+00 -1.0000e+00
</event>
<event>
 9      4 +1.0086356e-04 9.11880000e+01 7.81616400e-03 1.18400000e-01
      -11 -1    0    0    0    0 +0.0000000000e+00 +0.0000000000e+00 +4.5593999997e+01 4.5594000000e+01 5.1100000000e-04 0.0000e+00 -1.0000e+00
       11 -1    0    0    0    0 -0.0000000000e+00 -0.0000000000e+00 -4.5593999997e+01 4.5594000000e+01 5.1100000000e-04 0.0000e+00 1.0000e+00
       23  2    1    2    0    0 +0.0000000000e+00 +8.8817841970e-16 +0.0000000000e+00 9.1188000000e+01 9.1188000000e+01 1.0868e-15 0.0000e+00
 -9990012  2    3    3    0    0 -1.3145725975e+01 -4.2791071083e+00 -1.2631803213e+01 7.2461459437e+01 6.9999855587e+01 2.2771e-05 0.0000e+00
      -24  2    4    4    0    0 -1.2131381835e+01 +1.1121608798e+01 -2.0442629033e+00 5.3744970595e+01 5.1122228492e+01 2.5747e-14 0.0000e+00
      -11  1    4    4    0    0 -1.0143441405e+00 -1.5400715907e+01 -1.0587540310e+01 1.8716488841e+01 5.1100000000e-04 0.0000e+00 1.0000e+00
       11  1    5    5    0    0 -3.0664981911e+01 +1.3818132238e+01 -7.0356592769e+00 3.4362514399e+01 5.1100000000e-04 0.0000e+00 -1.0000e+00
      -12  1    5    5    0    0 +1.8533600076e+01 -2.6965234393e+00 +4.9913963736e+00 1.9382456196e+01 0.0000000000e+00 0.0000e+00 1.0000e+00
       12  1    3    3    0    0 +1.3145725975e+01 +4.2791071083e+00 +1.2631803213e+01 1.8726540563e+01 0.0000000000e+00 0.0000e+00 -1.0000e+00
</event>
<event>
 8      4 +1.0086356e-04 9.11880000e+01 7.81616400e-03 1.18400000e-01
      -11 -1    0    0    0    0 +0.0000000000e+00 +0.0000000000e+00 +4.5593999997e+01 4.5594000000e+01 5.1100000000e-04 0.0000e+00 1.0000e+00
       11 -1    0    0    0    0 -0.0000000000e+00 -0.0000000000e+00 -4.5593999997e+01 4.5594000000e+01 5.1100000000e-04 0.0000e+00 -1.0000e+00
       23  2    1    2    0    0 -4.4408920985e-16 +0.0000000000e+00 -3.5527136788e-15 9.1188000000e+01 9.1188000000e+01 2.4284e-14 0.0000e+00
 -9990012  2    3    3    0    0 -3.9357354898e+00 +1.2172991309e+01 +1.3674991830e+01 7.2461624675e+01 7.0000070841e+01 3.7630e-04 0.0000e+00
      -11  1    4    4    0    0 -2.8620502864e+00 +2.9532258643e+01 -3.1240233433e+00 2.9834630122e+01 5.1100000000e-04 0.0000e+00 1.0000e+00
       11  1    4    4    0    0 -2.4380977305e+00 +6.7734064194e+00 -6.0214320489e+00 9.3851478010e+00 5.1100000000e-04 0.0000e+00 -1.0000e+00
      -12  1    4    4    0    0 +1.3644125271e+00 -2.4132673754e+01 +2.2820447222e+01 3.3241846752e+01 0.0000000000e+00 0.0000e+00 1.0000e+00
       12  1    3    3    0    0 +3.9357354898e+00 -1.2172991309e+01 -1.3674991830e+01 1.8726375325e+01 0.0000000000e+00 0.0000e+00 -1.0000e+00
</event>
<event>
 8      4 +1.0086356e-04 9.11880000e+01 7.81616400e-03 1.18400000e-01
      -11 -1    0    0    0    0 +0.0000000000e+00 +0.0000000000e+00 +4.5593999997e+01 4.5594000000e+01 5.1100000000e-04 0.0000e+00 1.0000e+00
       11 -1    0    0    0    0 -0.0000000000e+00 -0.0000000000e+00 -4.5593999997e+01 4.5594000000e+01 5.1100000000e-04 0.0000e+00 -1.0000e+00
       23  2    1    2    0    0 -1.7763568394e-15 -3.5527136788e-15 +0.0000000000e+00 9.1188000000e+01 9.1188000000e+01 2.3042e-13 0.0000e+00
 -9990012  2    3    3    0    0 +1.2342654851e+01 -9.6354362878e+00 +1.0271144839e+01 7.2461570080e+01 6.9999999721e+01 9.7582e-05 0.0000e+00
      -11  1    4    4    0    0 -1.3813508027e+01 +8.7861328906e+00 -5.5436922797e+00 1.7284144744e+01 5.1100000000e-04 0.0000e+00 1.0000e+00
       11  1    4    4    0    0 -3.2398368883e+00 +7.7388084728e+00 -5.8775399489e+00 1.0243591936e+01 5.1100000000e-04 0.0000e+00 -1.0000e+00
      -12  1    4    4    0    0 +2.9395999767e+01 -2.6160377651e+01 +2.1692377068e+01 4.4933833400e+01 0.0000000000e+00 0.0000e+00 1.0000e+00
       12  1    3    3    0    0 -1.2342654851e+01 +9.6354362878e+00 -1.0271144839e+01 1.8726429920e+01 0.0000000000e+00 0.0000e+00 -1.0000e+00
</event>
<event>
 8      4 +1.0086356e-04 9.11880000e+01 7.81616400e-03 1.18400000e-01
      -11 -1    0    0    0    0 +0.0000000000e+00 +0.0000000000e+00 +4.5593999997e+01 4.5594000000e+01 5.1100000000e-04 0.0000e+00 1.0000e+00
       11 -1    0    0    0    0 -0.0000000000e+00 -0.0000000000e+00 -4.5593999997e+01 4.5594000000e+01 5.1100000000e-04 0.0000e+00 -1.0000e+00
       23  2    1    2    0    0 +8.8817841970e-15 -8.8817841970e-16 +0.0000000000e+00 9.1188000000e+01 9.1188000000e+01 6.1478e-14 0.0000e+00
 -9990012  2    3    3    0    0 +1.5939865087e+01 -5.2222744917e+00 +8.3263284483e+00 7.2461569607e+01 6.9999999104e+01 2.8992e-04 0.0000e+00
      -11  1    4    4    0    0 -1.8194085704e+01 +1.0138086270e+00 +6.8263404049e-01 1.8235091227e+01 5.1100000000e-04 0.0000e+00 1.0000e+00
       11  1    4    4    0    0 -9.2241071990e+00 +1.5391091867e+00 -7.5953602564e-01 9.3824253764e+00 5.1100000000e-04 0.0000e+00 -1.0000e+00
      -12  1    4    4    0    0 +4.3358057990e+01 -7.7751923055e+00 +8.4032304334e+00 4.4844053004e+01 0.0000000000e+00 0.0000e+00 1.0000e+00
       12  1    3    3    0    0 -1.5939865087e+01 +5.2222744917e+00 -8.3263284483e+00 1.8726430393e+01 0.0000000000e+00 0.0000e+00 -1.0000e+00
</event>
<event>
 9      4 +1.0086356e-04 9.11880000e+01 7.81616400e-03 1.18400000e-01
      -11 -1    0    0    0    0 +0.0000000000e+00 +0.0000000000e+00 +4.5593999997e+01 4.5594000000e+01 5.1100000000e-04 0.0000e+00 -1.0000e+00
       11 -1    0    0    0    0 -0.0000000000e+00 -0.0000000000e+00 -4.5593999997e+01 4.5594000000e+01 5.1100000000e-04 0.0000e+00 1.0000e+00
       23  2    1    2    0    0 +3.5527136788e-15 +2.6645352591e-15 -1.3322676296e-15 9.1188000000e+01 9.1188000000e+01 1.2727e-14 0.0000e+00
 -9990012  2    3    3    0    0 -1.7360810273e+01 +6.1624429470e+00 +3.3623536791e+00 7.2461578594e+01 7.0000010812e+01 7.7743e-04 0.0000e+00
      -24  2    4    4    0    0 -2.4271437525e+01 +3.2777043553e+00 +3.0001344608e+00 6.4964266490e+01 6.0095832538e+01 6.7032e-14 0.0000e+00
      -11  1    4    4    0    0 +6.9106272523e+00 +2.8847385917e+00 +3.6221921831e-01 7.4973121041e+00 5.1100000000e-04 0.0000e+00 1.0000e+00
       11  1    5    5    0    0 +1.1994809099e+01 -1.7821590610e+01 -5.4538201651e+00 2.2163679565e+01 5.1100000000e-04 0.0000e+00 -1.0000e+00
      -12  1    5    5    0    0 -3.6266246625e+01 +2.1099294966e+01 +8.4539546259e+00 4.2800586925e+01 0.0000000000e+00 0.0000e+00 1.0000e+00
       12  1    3    3    0    0 +1.7360810273e+01 -6.1624429470e+00 -3.3623536791e+00 1.8726421406e+01 0.0000000000e+00 0.0000e+00 -1.0000e+00
</event>
<event>
 9      3 +1.0086356e-04 9.11880000e+01 7.81616400e-03 1.18400000e-01
      -11 -1    0    0    0    0 +0.0000000000e+00 +0.0000000000e+00 +4.5593999997e+01 4.5594000000e+01 5.1100000000e-04 0.0000e+00 1.0000e+00
       11 -1    0    0    0    0 -0.0000000000e+00 -0.0000000000e+00 -4.5593999997e+01 4.5594000000e+01 5.1100000000e-04 0.0000e+00 -1.0000e+00
       23  2    1    2    0    0 +0.0000000000e+00 +1.7763568394e-15 +0.0000000000e+00 9.1188000000e+01 9.1188000000e+01 1.1456e-13 0.0000e+00
  9990012  2    3    3    0    0 +1.1751461473e+01 +1.3406388856e+01 -5.7316160359e+00 7.2461560635e+01 6.9999987417e+01 1.8397e-04 0.0000e+00
       24  2    4    4    0    0 +2.1706896430e+00 +5.1742600869e+00 -7.6984109484e+00 5.9677687380e+01 5.8912443328e+01 8.7047e-14 0.0000e+00
      -11  1    5    5    0    0 +2.3713963525e+01 +2.0833790799e+01 -9.5535743431e+00 3.2979837600e+01 5.1100000000e-04 0.0000e+00 1.0000e+00
       11  1    4    4    0    0 +9.5807718296e+00 +8.2321287690e+00 +1.9667949125e+00 1.2783873255e+01 5.1100000000e-04 0.0000e+00 -1.0000e+00
       12  1    5    5    0    0 -2.1543273882e+01 -1.5659530712e+01 +1.8551633946e+00 2.6697849780e+01 0.0000000000e+00 0.0000e+00 -1.0000e+00
      -12  1    3    3    0    0 -1.1751461473e+01 -1.3406388856e+01 +5.7316160359e+00 1.8726439365e+01 0.0000000000e+00 0.0000e+00 1.0000e+00
</event>
<event>
 8      3 +1.0086356e-04 7.24616100e+01 7.81616400e-03 1.22670800e-01
      -11 -1    0    0    0    0 +0.0000000000e+00 +0.0000000000e+00 +4.5593999997e+01 4.5594000000e+01 5.1100000000e-04 0.0000e+00 1.0000e+00
       11 -1    0    0    0    0 -0.0000000000e+00 -0.0000000000e+00 -4.5593999997e+01 4.5594000000e+01 5.1100000000e-04 0.0000e+00 -1.0000e+00
  9990012  2    1    2    0    0 -1.0518923886e+01 +3.5075325769e+00 -1.5090624960e+01 7.2461614706e+01 7.0000057855e+01 4.3861e-04 0.0000e+00
       24  2    3    3    0    0 -2.6506875496e+00 +8.5546016732e+00 -1.9935440635e+01 6.1932878377e+01 5.7948703838e+01 1.2341e-13 0.0000e+00
      -11  1    4    4    0    0 +1.9872264858e+01 -7.1188974008e+00 +8.1874969636e+00 2.2641128893e+01 5.1100000000e-04 0.0000e+00 1.0000e+00
       11  1    3    3    0    0 -7.8682363361e+00 -5.0470690963e+00 +4.8448156751e+00 1.0528736329e+01 5.1100000000e-04 0.0000e+00 -1.0000e+00
       12  1    4    4    0    0 -2.2522952407e+01 +1.5673499074e+01 -2.8122937598e+01 3.9291749484e+01 0.0000000000e+00 0.0000e+00 -1.0000e+00
      -12  1    1    2    0    0 +1.0518923886e+01 -3.5075325769e+00 +1.5090624960e+01 1.8726385294e+01 0.0000000000e+00 0.0000e+00 1.0000e+00
</event>
<event>
 8      3 +1.0086356e-04 9.11880000e+01 7.81616400e-03 1.18400000e-01
      -11 -1    0    0    0    0 +0.0000000000e+00 +0.0000000000e+00 +4.5593999997e+01 4.5594000000e+01 5.1100000000e-04 0.0000e+00 -1.0000e+00
       11 -1    0    0    0    0 -0.0000000000e+00 -0.0000000000e+00 -4.5593999997e+01 4.5594000000e+01 5.1100000000e-04 0.0000e+00 1.0000e+00
       23  2    1    2    0    0 +3.5527136788e-15 -8.8817841970e-16 +0.0000000000e+00 9.1188000000e+01 9.1188000000e+01 1.1075e-13 0.0000e+00
  9990012  2    3    3    0    0 +1.6727044963e+01 +5.3756590211e+00 +6.4790476075e+00 7.2461820437e+01 7.0000325857e+01 7.9586e-04 0.0000e+00
      -11  1    4    4    0    0 +2.2708666921e+01 -5.6002957820e-01 +3.8237243784e+00 2.3035148249e+01 5.1100000000e-04 0.0000e+00 1.0000e+00
       11  1    4    4    0    0 -1.2720201846e+01 +2.5335915946e+01 +4.8891892610e+00 2.8768321879e+01 5.1100000000e-04 0.0000e+00 -1.0000e+00
       12  1    4    4    0    0 +6.7385798883e+00 -1.9400227347e+01 -2.2338660319e+00 2.0658350309e+01 0.0000000000e+00 0.0000e+00 -1.0000e+00
      -12  1    3    3    0    0 -1.6727044963e+01 -5.3756590211e+00 -6.4790476075e+00 1.8726179563e+01 0.0000000000e+00 0.0000e+00 1.0000e+00
</event>
<event>
 8      4 +1.0086356e-04 9.11880000e+01 7.81616400e-03 1.18400000e-01
      -11 -1    0    0    0    0 +0.0000000000e+00 +0.0000000000e+00 +4.5593999997e+01 4.5594000000e+01 5.1100000000e-04 0.0000e+00 1.0000e+00
       11 -1    0    0    0    0 -0.0000000000e+00 -0.0000000000e+00 -4.5593999997e+01 4.5594000000e+01 5.1100000000e-04 0.0000e+00 -1.0000e+00
       23  2    1    2    0    0 +0.0000000000e+00 +0.0000000000e+00 -2.6645352591e-15 9.1188000000e+01 9.1188000000e+01 1.6144e-13 0.0000e+00
 -9990012  2    3    3    0    0 +1.2272930717e+01 -1.4057145950e+01 -1.5663655787e+00 7.2461503217e+01 6.9999912619e+01 1.2155e-03 0.0000e+00
      -11  1    4    4    0    0 +1.1841727083e+01 -2.1705087802e+01 +2.8902927874e+01 3.8035727636e+01 5.1100000000e-04 0.0000e+00 1.0000e+00
       11  1    4    4    0    0 -1.1851225861e+00 -4.0373196625e+00 -7.2819082080e+00 8.4101517830e+00 5.1100000000e-04 0.0000e+00 -1.0000e+00
      -12  1    4    4    0    0 +1.6163262202e+00 +1.1685261515e+01 -2.3187385245e+01 2.6015623798e+01 0.0000000000e+00 0.0000e+00 1.0000e+00
       12  1    3    3    0    0 -1.2272930717e+01 +1.4057145950e+01 +1.5663655787e+00 1.8726496783e+01 0.0000000000e+00 0.0000e+00 -1.0000e+00
</event>
<event>
 8      3 +1.0086356e-04 9.11880000e+01 7.81616400e-03 1.18400000e-01
      -11 -1    0    0    0    0 +0.0000000000e+00 +0.0000000000e+00 +4.5593999997e+01 4.5594000000e+01 5.1100000000e-04 0.0000e+00 1.0000e+00
       11 -1    0    0    0    0 -0.0000000000e+00 -0.0000000000e+00 -4.5593999997e+01 4.5594000000e+01 5.1100000000e-04 0.0000e+00 -1.0000e+00
       23  2    1    2    0    0 +1.1102230246e-15 -4.8572257327e-15 +0.0000000000e+00 9.1188000000e+01 9.1188000000e+01 1.3029e-13 0.0000e+00
  9990012  2    3    3    0    0 +9.3138813173e-01 +1.2694695255e-01 -1.8702858761e+01 7.2461534097e+01 6.9999952846e+01 1.6779e-04 0.0000e+00
      -11  1    4    4    0    0 -3.2440060079e+00 +1.3034034240e+01 +4.5242081172e+00 1.4173146542e+01 5.1100000000e-04 0.0000e+00 1.0000e+00
       11  1    4    4    0    0 +1.4812134346e+01 -2.9890827565e+01 -1.5856264768e+01 3.6936188610e+01 5.1100000000e-04 0.0000e+00 -1.0000e+00
       12  1    4    4    0    0 -1.0636740206e+01 +1.6983740277e+01 -7.3708021104e+00 2.1352198944e+01 0.0000000000e+00 0.0000e+00 -1.0000e+00
      -12  1    3    3    0    0 -9.3138813173e-01 -1.2694695255e-01 +1.8702858761e+01 1.8726465903e+01 0.0000000000e+00 0.0000e+00 1.0000e+00
</event>
<event>
 9      3 +1.0086356e-04 9.11880000e+01 7.81616400e-03 1.18400000e-01
      -11 -1    0    0    0    0 +0.0000000000e+00 +0.0000000000e+00 +4.5593999997e+01 4.5594000000e+01 5.1100000000e-04 0.0000e+00 -1.0000e+00
       11 -1    0    0    0    0 -0.0000000000e+00 -0.0000000000e+00 -4.5593999997e+01 4.5594000000e+01 5.1100000000e-04 0.0000e+00 1.0000e+00
       23  2    1    2    0    0 -1.1102230246e-15 +1.7763568394e-15 +1.7763568394e-15 9.1188000000e+01 9.1188000000e+01 1.4860e-13 0.0000e+00
  9990012  2    3    3    0    0 +1.9506241095e+00 -1.2470221083e+01 +1.3833629057e+01 7.2461531002e+01 6.9999948814e+01 3.5179e-04 0.0000e+00
       24  2    4    4    0    0 +7.5757294310e+00 -4.7345016161e-01 +1.2837789096e+01 5.9174092577e+01 5.7263850481e+01 1.2594e-13 0.0000e+00
      -11  1    5    5    0    0 -1.4895061554e+01 -1.7637356277e+01 -7.5786515067e+00 2.4297636800e+01 5.1100000000e-04 0.0000e+00 1.0000e+00
       11  1    4    4    0    0 -5.6251053214e+00 -1.1996770921e+01 +9.9583996077e-01 1.3287438425e+01 5.1100000000e-04 0.0000e+00 -1.0000e+00
       12  1    5    5    0    0 +2.2470790985e+01 +1.7163906116e+01 +2.0416440603e+01 3.4876455776e+01 0.0000000000e+00 0.0000e+00 -1.0000e+00
      -12  1    3    3    0    0 -1.9506241095e+00 +1.2470221083e+01 -1.3833629057e+01 1.8726468998e+01 0.0000000000e+00 0.0000e+00 1.0000e+00
</event>
<event>
 8      4 +1.0086356e-04 9.11880000e+01 7.81616400e-03 1.18400000e-01
      -11 -1    0    0    0    0 +0.0000000000e+00 +0.0000000000e+00 +4.5593999997e+01 4.5594000000e+01 5.1100000000e-04 0.0000e+00 1.0000e+00
       11 -1    0    0    0    0 -0.0000000000e+00 -0.0000000000e+00 -4.5593999997e+01 4.5594000000e+01 5.1100000000e-04 0.0000e+00 -1.0000e+00
       23  2    1    2    0    0 +0.0000000000e+00 +0.0000000000e+00 +2.2204460493e-15 9.1188000000e+01 9.1188000000e+01 3.2242e-14 0.0000e+00
 -9990012  2    3    3    0    0 +1.7353817047e+01 -6.6517578925e+00 -2.2975626442e+00 7.2461557646e+01 6.9999983523e+01 2.4931e-04 0.0000e+00
      -11  1    4    4    0    0 +1.6555433730e+01 +1.3586795639e+01 +1.9331576066e+01 2.8851225887e+01 5.1100000000e-04 0.0000e+00 1.0000e+00
       11  1    4    4    0    0 -1.5107311511e+01 -1.1077614465e+01 -6.5177154579e+00 1.9834944375e+01 5.1100000000e-04 0.0000e+00 -1.0000e+00
      -12  1    4    4    0    0 +1.5905694828e+01 -9.1609390670e+00 -1.5111423252e+01 2.3775387384e+01 0.0000000000e+00 0.0000e+00 1.0000e+00
       12  1    3    3    0    0 -1.7353817047e+01 +6.6517578925e+00 +2.2975626442e+00 1.8726442354e+01 0.0000000000e+00 0.0000e+00 -1.0000e+00
</event>
<event>
 9      3 +1.0086356e-04 9.11880000e+01 7.81616400e-03 1.18400000e-01
      -11 -1    0    0    0    0 +0.0000000000e+00 +0.0000000000e+00 +4.5593999997e+01 4.5594000000e+01 5.1100000000e-04 0.0000e+00 1.0000e+00
       11 -1    0    0    0    0 -0.0000000000e+00 -0.0000000000e+00 -4.5593999997e+01 4.5594000000e+01 5.1100000000e-04 0.0000e+00 -1.0000e+00
       23  2    1    2    0    0 +0.0000000000e+00 -2.6645352591e-15 -3.5527136788e-15 9.1188000000e+01 9.1188000000e+01 1.6983e-13 0.0000e+00
  9990012  2    3    3    0    0 -5.8231794737e+00 +4.2259380175e+00 -1.7289100184e+01 7.2461522582e+01 6.9999937846e+01 4.8470e-05 0.0000e+00
       24  2    4    4    0    0 +4.6660512411e+00 -9.8284924778e+00 -1.6354889685e+01 5.4899525912e+01 5.1265039063e+01 1.4636e-14 0.0000e+00
      -11  1    5    5    0    0 +5.6142607761e+00 +1.7228459825e+01 +6.7205685913e+00 1.9326298002e+01 5.1100000000e-04 0.0000e+00 1.0000e+00
       11  1    4    4    0    0 -1.0489230715e+01 +1.4054430495e+01 -9.3421049917e-01 1.7561996670e+01 5.1100000000e-04 0.0000e+00 -1.0000e+00
       12  1    5    5    0    0 -9.4820953499e-01 -2.7056952303e+01 -2.3075458276e+01 3.5573227910e+01 0.0000000000e+00 0.0000e+00 -1.0000e+00
      -12  1    3    3    0    0 +5.8231794737e+00 -4.2259380175e+00 +1.7289100184e+01 1.8726477418e+01 0.0000000000e+00 0.0000e+00 1.0000e+00
</event>
<event>
 8      4 +1.0086356e-04 9.11880000e+01 7.81616400e-03 1.18400000e-01
      -11 -1    0    0    0    0 +0.0000000000e+00 +0.0000000000e+00 +4.5593999997e+01 4.5594000000e+01 5.1100000000e-04 0.0000e+00 -1.0000e+00
       11 -1    0    0    0    0 -0.0000000000e+00 -0.0000000000e+00 -4.5593999997e+01 4.5594000000e+01 5.1100000000e-04 0.0000e+00 1.0000e+00
       23  2    1    2    0    0 -5.1902926401e-15 +1.7763568394e-15 +0.0000000000e+00 9.1188000000e+01 9.1188000000e+01 1.1202e-13 0.0000e+00
 -9990012  2    3    3    0    0 -1.1646583339e-01 +1.0523993449e+01 -1.5489105350e+01 7.2461537789e+01 6.9999957656e+01 8.5849e-05 0.0000e+00
      -11  1    4    4    0    0 -1.7875218482e+01 +1.3212405521e+01 +9.8103146228e+00 2.4296776919e+01 5.1100000000e-04 0.0000e+00 1.0000e+00
       11  1    4    4    0    0 +2.6544609962e+01 +3.0435594236e+00 -7.9250984869e+00 2.7869100421e+01 5.1100000000e-04 0.0000e+00 -1.0000e+00
      -12  1    4    4    0    0 -8.7858573139e+00 -5.7319714956e+00 -1.7374321485e+01 2.0295660449e+01 0.0000000000e+00 0.0000e+00 1.0000e+00
       12  1    3    3    0    0 +1.1646583339e-01 -1.0523993449e+01 +1.5489105350e+01 1.8726462211e+01 0.0000000000e+00 0.0000e+00 -1.0000e+00
</event>
<event>
 7      3 +1.0086356e-04 7.24615600e+01 7.81616400e-03 1.22670800e-01
      -11 -1    0    0    0    0 +0.0000000000e+00 +0.0000000000e+00 +4.5593999997e+01 4.5594000000e+01 5.1100000000e-04 0.0000e+00 1.0000e+00
       11 -1    0    0    0    0 -0.0000000000e+00 -0.0000000000e+00 -4.5593999997e+01 4.5594000000e+01 5.1100000000e-04 0.0000e+00 -1.0000e+00
  9990012  2    1    2    0    0 -2.5342837459e-01 -1.0574648089e+01 -1.5452899611e+01 7.2461561082e+01 6.9999987999e+01 4.3541e-05 0.0000e+00
      -11  1    3    3    0    0 +3.4010647163e+00 -1.7774379674e+01 +3.1218986860e+00 1.8364151645e+01 5.1100000000e-04 0.0000e+00 1.0000e+00
       11  1    3    3    0    0 -2.0670838497e+01 -1.2035919792e+01 -1.4829892526e+01 2.8143785140e+01 5.1100000000e-04 0.0000e+00 -1.0000e+00
       12  1    3    3    0    0 +1.7016345406e+01 +1.9235651377e+01 -3.7449057712e+00 2.5953624296e+01 0.0000000000e+00 0.0000e+00 -1.0000e+00
      -12  1    1    2    0    0 +2.5342837459e-01 +1.0574648089e+01 +1.5452899611e+01 1.8726438918e+01 0.0000000000e+00 0.0000e+00 1.0000e+00
</event>
<event>
 9      3 +1.0086356e-04 9.11880000e+01 7.81616400e-03 1.18400000e-01
      -11 -1    0    0    0    0 +0.0000000000e+00 +0.0000000000e+00 +4.5593999997e+01 4.5594000000e+01 5.1100000000e-04 0.0000e+00 -1.0000e+00
       11 -1    0    0    0    0 -0.0000000000e+00 -0.0000000000e+00 -4.5593999997e+01 4.5594000000e+01 5.1100000000e-04 0.0000e+00 1.0000e+00
       23  2    1    2    0    0 +8.8817841970e-16 -1.7763568394e-15 -1.7763568394e-15 9.1188000000e+01 9.1188000000e+01 5.6047e-14 0.0000e+00
  9990012  2    3    3    0    0 +1.1478760111e+00 -1.4922631226e+01 +1.1255050526e+01 7.2461582713e+01 7.0000016178e+01 1.3822e-04 0.0000e+00
       24  2    4    4    0    0 +5.5116608014e+00 -9.1479381341e+00 +7.5957170348e+00 6.4351069791e+01 6.3002397486e+01 6.8590e-14 0.0000e+00
      -11  1    5    5    0    0 +1.7204538645e+01 -2.4180550828e+01 -1.6249404397e+01 3.3833981909e+01 5.1100000000e-04 0.0000e+00 1.0000e+00
       11  1    4    4    0    0 -4.3637847903e+00 -5.7746930922e+00 +3.6593334913e+00 8.1105129225e+00 5.1100000000e-04 0.0000e+00 -1.0000e+00
       12  1    5    5    0    0 -1.1692877843e+01 +1.5032612694e+01 +2.3845121431e+01 3.0517087881e+01 0.0000000000e+00 0.0000e+00 -1.0000e+00
      -12  1    3    3    0    0 -1.1478760111e+00 +1.4922631226e+01 -1.1255050526e+01 1.8726417287e+01 0.0000000000e+00 0.0000e+00 1.0000e+00
</event>
<event>
 8      3 +1.0086356e-04 9.11880000e+01 7.81616400e-03 1.18400000e-01
      -11 -1    0    0    0    0 +0.0000000000e+00 +0.0000000000e+00 +4.5593999997e+01 4.5594000000e+01 5.1100000000e-04 0.0000e+00 -1.0000e+00
       11 -1    0    0    0    0 -0.0000000000e+00 -0.0000000000e+00 -4.5593999997e+01 4.5594000000e+01 5.1100000000e-04 0.0000e+00 1.0000e+00
       23  2    1    2    0    0 +7.2164496601e-16 +0.0000000000e+00 +0.0000000000e+00 9.1188000000e+01 9.1188000000e+01 3.7864e-14 0.0000e+00
  9990012  2    3    3    0    0 -4.9931146274e-01 +3.3635033243e+00 +1.8415930718e+01 7.2460774611e+01 6.9998963467e+01 3.7977e-05 0.0000e+00
      -11  1    4    4    0    0 +6.5224639225e+00 +8.3041640657e+00 -2.9906300490e+00 1.0974768553e+01 5.1100000000e-04 0.0000e+00 1.0000e+00
       11  1    4    4    0    0 -3.1285485346e+01 +3.1454273184e+00 +1.6256468669e+01 3.5397006656e+01 5.1100000000e-04 0.0000e+00 -1.0000e+00
       12  1    4    4    0    0 +2.4263709961e+01 -8.0860880598e+00 +5.1500920986e+00 2.6088999402e+01 0.0000000000e+00 0.0000e+00 -1.0000e+00
      -12  1    3    3    0    0 +4.9931146274e-01 -3.3635033243e+00 -1.8415930718e+01 1.8727225389e+01 0.0000000000e+00 0.0000e+00 1.0000e+00
</event>
<event>
 9      4 +1.0086356e-04 9.11880000e+01 7.81616400e-03 1.18400000e-01
      -11 -1    0    0    0    0 +0.0000000000e+00 +0.0000000000e+00 +4.5593999997e+01 4.5594000000e+01 5.1100000000e-04 0.0000e+00 -1.0000e+00
       11 -1    0    0    0    0 -0.0000000000e+00 -0.0000000000e+00 -4.5593999997e+01 4.5594000000e+01 5.1100000000e-04 0.0000e+00 1.0000e+00
       23  2    1    2    0    0 +1.7763568394e-15 +1.3322676296e-15 +0.0000000000e+00 9.1188000000e+01 9.1188000000e+01 1.5372e-13 0.0000e+00
 -9990012  2    3    3    0    0 +1.1298552596e+01 +1.2999470926e+00 -1.4877229240e+01 7.2461572069e+01 7.0000002312e+01 4.6296e-05 0.0000e+00
      -24  2    4    4    0    0 +2.1381520204e+01 +7.5591668796e+00 -1.2125467771e+01 6.0278950858e+01 5.4518020303e+01 7.1760e-14 0.0000e+00
      -11  1    4    4    0    0 -1.0082967608e+01 -6.2592197870e+00 -2.7517614686e+00 1.2182621211e+01 5.1100000000e-04 0.0000e+00 1.0000e+00
       11  1    5    5    0    0 -1.3110271756e+01 +1.8039168250e+01 -9.1613180727e+00 2.4108516457e+01 5.1100000000e-04 0.0000e+00 -1.0000e+00
      -12  1    5    5    0    0 +3.4491791960e+01 -1.0480001371e+01 -2.9641496986e+00 3.6170434401e+01 0.0000000000e+00 0.0000e+00 1.0000e+00
       12  1    3    3    0    0 -1.1298552596e+01 -1.2999470926e+00 +1.4877229240e+01 1.8726427931e+01 0.0000000000e+00 0.0000e+00 -1.0000e+00
</event>
<event>
 9      3 +1.0086356e-04 9.11880000e+01 7.81616400e-03 1.18400000e-01
      -11 -1    0    0    0    0 +0.0000000000e+00 +0.0000000000e+00 +4.5593999997e+01 4.5594000000e+01 5.1100000000e-04 0.0000e+00 1.0000e+00
       11 -1    0    0    0    0 -0.0000000000e+00 -0.0000000000e+00 -4.5593999997e+01 4.5594000000e+01 5.1100000000e-04 0.0000e+00 -1.0000e+00
       23  2    1    2    0    0 +1.7763568394e-15 +0.0000000000e+00 +3.5527136788e-15 9.1188000000e+01 9.1188000000e+01 1.5645e-13 0.0000e+00
  9990012  2    3    3    0    0 +2.7653498432e+00 +6.3204321300e+00 -1.7409266719e+01 7.2461612474e+01 7.0000054947e+01 3.0996e-04 0.0000e+00
       24  2    4    4    0    0 +7.3428960133e+00 -7.2158325971e-01 -2.2911679574e-01 5.3338290029e+01 5.2825011921e+01 1.8470e-14 0.0000e+00
      -11  1    5    5    0    0 -1.3918353195e+01 -1.4153739121e+01 -1.4351807173e+01 2.4495372138e+01 5.1100000000e-04 0.0000e+00 1.0000e+00
       11  1    4    4    0    0 -4.5775461701e+00 +7.0420153897e+00 -1.7180149924e+01 1.9123322445e+01 5.1100000000e-04 0.0000e+00 -1.0000e+00
       12  1    5    5    0    0 +2.1261249208e+01 +1.3432155861e+01 +1.4122690378e+01 2.8842917891e+01 0.0000000000e+00 0.0000e+00 -1.0000e+00
      -12  1    3    3    0    0 -2.7653498432e+00 -6.3204321300e+00 +1.7409266719e+01 1.8726387526e+01 0.0000000000e+00 0.0000e+00 1.0000e+00
</event>
<event>
 9      1 +1.0086356e-04 9.11880000e+01 7.81616400e-03 1.18400000e-01
      -11 -1    0    0    0    0 +0.0000000000e+00 +0.0000000000e+00 +4.5593999997e+01 4.5594000000e+01 5.1100000000e-04 0.0000e+00 1.0000e+00
       11 -1    0    0    0    0 -0.0000000000e+00 -0.0000000000e+00 -4.5593999997e+01 4.5594000000e+01 5.1100000000e-04 0.0000e+00 -1.0000e+00
       23  2    1    2    0    0 -3.5527136788e-15 -8.8817841970e-16 +0.0000000000e+00 9.1188000000e+01 9.1188000000e+01 6.0023e-15 0.0000e+00
  9990012  2    3    3    0    0 +6.5756540118e+00 +4.6004052848e+00 -1.6919697234e+01 7.2461571911e+01 7.0000002107e+01 4.0966e-04 0.0000e+00
       23  2    4    4    0    0 +9.9211764646e+00 +3.0704598121e+00 -1.5158743960e+01 6.8383066049e+01 6.5868040338e+01 1.2638e-13 0.0000e+00
      -11  1    5    5    0    0 +3.5729268597e+01 -8.7700452756e+00 -1.5659726597e+01 3.9984013880e+01 5.1100000000e-04 0.0000e+00 -1.0000e+00
       11  1    5    5    0    0 -2.5808092132e+01 +1.1840505088e+01 +5.0098263789e-01 2.8399052169e+01 5.1100000000e-04 0.0000e+00 1.0000e+00
       12  1    4    4    0    0 -3.3455224528e+00 +1.5299454727e+00 -1.7609532744e+00 4.0785058620e+00 0.0000000000e+00 0.0000e+00 -1.0000e+00
      -12  1    3    3    0    0 -6.5756540118e+00 -4.6004052848e+00 +1.6919697234e+01 1.8726428089e+01 0.0000000000e+00 0.0000e+00 1.0000e+00
</event>
<event>
 8      3 +1.0086356e-04 9.11880000e+01 7.81616400e-03 1.18400000e-01
      -11 -1    0    0    0    0 +0.0000000000e+00 +0.0000000000e+00 +4.5593999997e+01 4.5594000000e+01 5.1100000000e-04 0.0000e+00 1.0000e+00
       11 -1    0    0    0    0 -0.0000000000e+00 -0.0000000000e+00 -4.5593999997e+01 4.5594000000e+01 5.1100000000e-04 0.0000e+00 -1.0000e+00
       23  2    1    2    0    0 +0.0000000000e+00 -3.5527136788e-15 +1.7763568394e-15 9.1188000000e+01 9.1188000000e+01 4.4247e-14 0.0000e+00
  9990012  2    3    3    0    0 -1.1251926026e+00 -1.8030504053e+01 -4.9306628882e+00 7.2461639667e+01 7.0000090371e+01 2.2906e-04 0.0000e+00
      -11  1    4    4    0    0 -3.5316224136e+00 -1.8001853274e+00 +1.1518814982e+01 1.2181794734e+01 5.1100000000e-04 0.0000e+00 1.0000e+00
       11  1    4    4    0    0 +1.6075694239e+01 -2.2274243775e+01 -2.9592759049e+01 4.0376989356e+01 5.1100000000e-04 0.0000e+00 -1.0000e+00
       12  1    4    4    0    0 -1.3669264428e+01 +6.0439250495e+00 +1.3143281179e+01 1.9902855577e+01 0.0000000000e+00 0.0000e+00 -1.0000e+00
      -12  1    3    3    0    0 +1.1251926026e+00 +1.8030504053e+01 +4.9306628882e+00 1.8726360333e+01 0.0000000000e+00 0.0000e+00 1.0000e+00
</event>
<event>
 9      3 +1.0086356e-04 9.11880000e+01 7.81616400e-03 1.18400000e-01
      -11 -1    0    0    0    0 +0.0000000000e+00 +0.0000000000e+00 +4.5593999997e+01 4.5594000000e+01 5.1100000000e-04 0.0000e+00 -1.0000e+00
       11 -1    0    0    0    0 -0.0000000000e+00 -0.0000000000e+00 -4.5593999997e+01 4.5594000000e+01 5.1100000000e-04 0.0000e+00 1.0000e+00
       23  2    1    2    0    0 -1.5543122345e-15 -3.5527136788e-15 +0.0000000000e+00 9.1188000000e+01 9.1188000000e+01 2.1330e-13 0.0000e+00
  9990012  2    3    3    0    0 +1.1682759597e+00 +1.8455553304e+01 -2.9504145656e+00 7.2461621210e+01 7.0000066327e+01 5.1577e-04 0.0000e+00
       24  2    4    4    0    0 +2.3109506919e+00 +1.5051746625e+01 +1.2878988954e+00 6.6906901891e+01 6.5138155236e+01 6.0282e-14 0.0000e+00
      -11  1    5    5    0    0 +1.6968536290e+01 +2.5975936291e+01 -2.1458799796e+01 3.7724800582e+01 5.1100000000e-04 0.0000e+00 1.0000e+00
       11  1    4    4    0    0 -1.1426747321e+00 +3.4038066798e+00 -4.2383134611e+00 5.5547193189e+00 5.1100000000e-04 0.0000e+00 -1.0000e+00
       12  1    5    5    0    0 -1.4657585598e+01 -1.0924189666e+01 +2.2746698692e+01 2.9182101309e+01 0.0000000000e+00 0.0000e+00 -1.0000e+00
      -12  1    3    3    0    0 -1.1682759597e+00 -1.8455553304e+01 +2.9504145656e+00 1.8726378790e+01 0.0000000000e+00 0.0000e+00 1.0000e+00
</event>
<event>
 9      3 +1.0086356e-04 9.11880000e+01 7.81616400e-03 1.18400000e-01
      -11 -1    0    0    0    0 +0.0000000000e+00 +0.0000000000e+00 +4.5593999997e+01 4.5594000000e+01 5.1100000000e-04 0.0000e+00 1.0000e+00
       11 -1    0    0    0    0 -0.0000000000e+00 -0.0000000000e+00 -4.5593999997e+01 4.5594000000e+01 5.1100000000e-04 0.0000e+00 -1.0000e+00
       23  2    1    2    0    0 -3.5527136788e-15 +1.9984014443e-15 +0.0000000000e+00 9.1188000000e+01 9.1188000000e+01 1.0879e-13 0.0000e+00
  9990012  2    3    3    0    0 -1.4314077428e+01 +3.8468408518e-01 -1.2068046361e+01 7.2461587171e+01 7.0000021985e+01 4.8660e-04 0.0000e+00
       24  2    4    4    0    0 -1.7127219573e+01 -1.9301112462e+00 -1.2294228228e+01 6.8811490645e+01 6.5473706305e+01 1.6488e-15 0.0000e+00
      -11  1    5    5    0    0 -1.8311866974e+00 -2.7051577013e+01 +1.2953938316e+01 3.0049052927e+01 5.1100000000e-04 0.0000e+00 -1.0000e+00
       11  1    4    4    0    0 +2.8131421451e+00 +2.3147953314e+00 +2.2618186624e-01 3.6500965264e+00 5.1100000000e-04 0.0000e+00 1.0000e+00
       12  1    5    5    0    0 -1.5296032876e+01 +2.5121465767e+01 -2.5248166544e+01 3.8762437718e+01 0.0000000000e+00 0.0000e+00 -1.0000e+00
      -12  1    3    3    0    0 +1.4314077428e+01 -3.8468408518e-01 +1.2068046361e+01 1.8726412829e+01 0.0000000000e+00 0.0000e+00 1.0000e+00
</event>
<event>
 9      3 +1.0086356e-04 9.11880000e+01 7.81616400e-03 1.18400000e-01
      -11 -1    0    0    0    0 +0.0000000000e+00 +0.0000000000e+00 +4.5593999997e+01 4.5594000000e+01 5.1100000000e-04 0.0000e+00 -1.0000e+00
       11 -1    0    0    0    0 -0.0000000000e+00 -0.0000000000e+00 -4.5593999997e+01 4.5594000000e+01 5.1100000000e-04 0.0000e+00 1.0000e+00
       23  2    1    2    0    0 -2.6645352591e-15 -1.7763568394e-15 +0.0000000000e+00 9.1188000000e+01 9.1188000000e+01 1.5514e-13 0.0000e+00
  9990012  2    3    3    0    0 -5.4511681396e+00 -9.6495267248e+00 +1.5094889701e+01 7.2461433439e+01 6.9999821720e+01 3.9510e-04 0.0000e+00
       24  2    4    4    0    0 -1.6493578777e+01 -8.5434180294e+00 +1.1893372169e+01 6.0911194311e+01 5.6777576193e+01 1.4503e-13 0.0000e+00
      -11  1    5    5    0    0 -2.3640612088e+01 -1.7343549477e+01 +2.8443967826e+01 4.0850172023e+01 5.1100000000e-04 0.0000e+00 1.0000e+00
       11  1    4    4    0    0 +1.1042410638e+01 -1.1061086953e+00 +3.2015175312e+00 1.1550239128e+01 5.1100000000e-04 0.0000e+00 -1.0000e+00
       12  1    5    5    0    0 +7.1470333110e+00 +8.8001314479e+00 -1.6550595657e+01 2.0061022288e+01 0.0000000000e+00 0.0000e+00 -1.0000e+00
      -12  1    3    3    0    0 +5.4511681396e+00 +9.6495267248e+00 -1.5094889701e+01 1.8726566561e+01 0.0000000000e+00 0.0000e+00 1.0000e+00
</event>
<event>
 9      4 +1.0086356e-04 9.11880000e+01 7.81616400e-03 1.18400000e-01
      -11 -1    0    0    0    0 +0.0000000000e+00 +0.0000000000e+00 +4.5593999997e+01 4.5594000000e+01 5.1100000000e-04 0.0000e+00 -1.0000e+00
       11 -1    0    0    0    0 -0.0000000000e+00 -0.0000000000e+00 -4.5593999997e+01 4.5594000000e+01 5.1100000000e-04 0.0000e+00 1.0000e+00
       23  2    1    2    0    0 +0.0000000000e+00 -3.5527136788e-15 -8.8817841970e-16 9.1188000000e+01 9.1188000000e+01 1.6538e-13 0.0000e+00
 -9990012  2    3    3    0    0 +1.2330572444e+01 +1.1705301103e+01 -7.8499942620e+00 7.2461561454e+01 6.9999988484e+01 7.4723e-05 0.0000e+00
      -24  2    4    4    0    0 +8.1081271019e+00 +7.5668933743e+00 -9.0685468816e+00 6.6424978485e+01 6.4861696122e+01 7.6689e-14 0.0000e+00
      -11  1    4    4    0    0 +4.2224453418e+00 +4.1384077284e+00 +1.2185526196e+00 6.0365829688e+00 5.1100000000e-04 0.0000e+00 1.0000e+00
       11  1    5    5    0    0 +5.8241580132e+00 -2.7858275728e+01 -1.1825017736e+01 3.0819399537e+01 5.1100000000e-04 0.0000e+00 -1.0000e+00
      -12  1    5    5    0    0 +2.2839690887e+00 +3.5425169102e+01 +2.7564708539e+00 3.5605578949e+01 0.0000000000e+00 0.0000e+00 1.0000e+00
       12  1    3    3    0    0 -1.2330572444e+01 -1.1705301103e+01 +7.8499942620e+00 1.8726438546e+01 0.0000000000e+00 0.0000e+00 -1.0000e+00
</event>
<event>
 9      3 +1.0086356e-04 9.11880000e+01 7.81616400e-03 1.18400000e-01
      -11 -1    0    0    0    0 +0.0000000000e+00 +0.0000000000e+00 +4.5593999997e+01 4.5594000000e+01 5.1100000000e-04 0.0000e+00 -1.0000e+00
       11 -1    0    0    0    0 -0.0000000000e+00 -0.0000000000e+00 -4.5593999997e+01 4.5594000000e+01 5.1100000000e-04 0.0000e+00 1.0000e+00
       23  2    1    2    0    0 +0.0000000000e+00 +8.8817841970e-16 +8.8817841970e-16 9.1188000000e+01 9.1188000000e+01 1.0746e-13 0.0000e+00
  9990012  2    3    3    0    0 -1.7302022834e+01 +2.7109345283e+00 +6.6308409822e+00 7.2461622553e+01 7.0000068077e+01 2.3373e-04 0.0000e+00
       24  2    4    4    0    0 -1.8395572649e+01 +9.5655722109e+00 +3.8949037318e+00 6.5000572905e+01 6.1481761019e+01 6.3032e-14 0.0000e+00
      -11  1    5    5    0    0 +1.9670462472e+01 -7.9323242148e+00 -5.8203659270e+00 2.1993760959e+01 5.1100000000e-04 0.0000e+00 1.0000e+00
       11  1    4    4    0    0 +1.0935498159e+00 -6.8546376826e+00 +2.7359372504e+00 7.4610496486e+00 5.1100000000e-04 0.0000e+00 -1.0000e+00
       12  1    5    5    0    0 -3.8066035122e+01 +1.7497896426e+01 +9.7152696588e+00 4.3006811946e+01 0.0000000000e+00 0.0000e+00 -1.0000e+00
      -12  1    3    3    0    0 +1.7302022834e+01 -2.7109345283e+00 -6.6308409822e+00 1.8726377447e+01 0.0000000000e+00 0.0000e+00 1.0000e+00
</event>
<event>
 8      3 +1.0086356e-04 9.11880000e+01 7.81616400e-03 1.18400000e-01
      -11 -1    0    0    0    0 +0.0000000000e+00 +0.0000000000e+00 +4.5593999997e+01 4.5594000000e+01 5.1100000000e-04 0.0000e+00 1.0000e+00
       11 -1    0    0    0    0 -0.0000000000e+00 -0.0000000000e+00 -4.5593999997e+01 4.5594000000e+01 5.1100000000e-04 0.0000e+00 -1.0000e+00
       23  2    1    2    0    0 +0.0000000000e+00 -3.5527136788e-15 +0.0000000000e+00 9.1188000000e+01 9.1188000000e+01 2.2927e-13 0.0000e+00
  9990012  2    3    3    0    0 -1.0229190716e+01 -8.6193509530e+00 -1.3105373572e+01 7.2461538241e+01 6.9999958245e+01 2.6594e-04 0.0000e+00
      -11  1    4    4    0    0 +1.5094127008e+01 -2.1372033661e+01 -3.2639768083e+00 2.6367594464e+01 5.1100000000e-04 0.0000e+00 1.0000e+00
       11  1    4    4    0    0 -9.6195643660e+00 +2.3174288318e+00 -2.1679567231e+01 2.3830865082e+01 5.1100000000e-04 0.0000e+00 -1.0000e+00
       12  1    4    4    0    0 -1.5703753358e+01 +1.0435253876e+01 +1.1838170468e+01 2.2263078695e+01 0.0000000000e+00 0.0000e+00 -1.0000e+00
      -12  1    3    3    0    0 +1.0229190716e+01 +8.6193509530e+00 +1.3105373572e+01 1.8726461759e+01 0.0000000000e+00 0.0000e+00 1.0000e+00
</event>
<event>
 9      3 +1.0086356e-04 9.11880000e+01 7.81616400e-03 1.18400000e-01
      -11 -1    0    0    0    0 +0.0000000000e+00 +0.0000000000e+00 +4.5593999997e+01 4.5594000000e+01 5.1100000000e-04 0.0000e+00 -1.0000e+00
       11 -1    0    0    0    0 -0.0000000000e+00 -0.0000000000e+00 -4.5593999997e+01 4.5594000000e+01 5.1100000000e-04 0.0000e+00 1.0000e+00
       23  2    1    2    0    0 +1.7763568394e-15 +1.7763568394e-15 -1.7763568394e-15 9.1188000000e+01 9.1188000000e+01 7.9144e-14 0.0000e+00
  9990012  2    3    3    0    0 +1.4111305114e+01 -8.1663551020e+00 -9.2120311520e+00 7.2461553311e+01 6.9999977875e+01 3.9948e-04 0.0000e+00
       24  2    4    4    0    0 +5.5074166107e+00 -9.6991263806e+00 -1.5489490767e+01 6.1701312391e+01 5.8674721442e+01 7.7835e-14 0.0000e+00
      -11  1    5    5    0    0 -1.5911054566e+01 +1.7279446201e+01 -1.3734015585e+01 2.7209632536e+01 5.1100000000e-04 0.0000e+00 1.0000e+00
       11  1    4    4    0    0 +8.6038885030e+00 +1.5327712786e+00 +6.2774596148e+00 1.0760240919e+01 5.1100000000e-04 0.0000e+00 -1.0000e+00
       12  1    5    5    0    0 +2.1418471177e+01 -2.6978572581e+01 -1.7554751819e+00 3.4491679855e+01 0.0000000000e+00 0.0000e+00 -1.0000e+00
      -12  1    3    3    0    0 -1.4111305114e+01 +8.1663551020e+00 +9.2120311520e+00 1.8726446689e+01 0.0000000000e+00 0.0000e+00 1.0000e+00
</event>
<event>
 8      3 +1.0086356e-04 9.11880000e+01 7.81616400e-03 1.18400000e-01
      -11 -1    0    0    0    0 +0.0000000000e+00 +0.0000000000e+00 +4.5593999997e+01 4.5594000000e+01 5.1100000000e-04 0.0000e+00 1.0000e+00
       11 -1    0    0    0    0 -0.0000000000e+00 -0.0000000000e+00 -4.5593999997e+01 4.5594000000e+01 5.1100000000e-04 0.0000e+00 -1.0000e+00
       23  2    1    2    0    0 +0.0000000000e+00 +2.2204460493e-15 -1.7763568394e-15 9.1188000000e+01 9.1188000000e+01 1.5516e-13 0.0000e+00
  9990012  2    3    3    0    0 +1.0312983465e+01 +1.7546658583e+00 -1.5532004268e+01 7.2461557818e+01 6.9999983747e+01 4.0684e-04 0.0000e+00
      -11  1    4    4    0    0 -7.0647511468e+00 +1.1325161224e+01 -2.5634506138e+00 1.3591955887e+01 5.1100000000e-04 0.0000e+00 1.0000e+00
       11  1    4    4    0    0 +3.2168394720e+00 -2.6226044870e+01 -2.2799167163e+01 3.4899219322e+01 5.1100000000e-04 0.0000e+00 -1.0000e+00
       12  1    4    4    0    0 +1.4160895139e+01 +1.6655549505e+01 +9.8306135084e+00 2.3970382609e+01 0.0000000000e+00 0.0000e+00 -1.0000e+00
      -12  1    3    3    0    0 -1.0312983465e+01 -1.7546658583e+00 +1.5532004268e+01 1.8726442182e+01 0.0000000000e+00 0.0000e+00 1.0000e+00
</event>
<event>
 8      3 +1.0086356e-04 9.11880000e+01 7.81616400e-03 1.18400000e-01
      -11 -1    0    0    0    0 +0.0000000000e+00 +0.0000000000e+00 +4.5593999997e+01 4.5594000000e+01 5.1100000000e-04 0.0000e+00 -1.0000e+00
       11 -1    0    0    0    0 -0.0000000000e+00 -0.0000000000e+00 -4.5593999997e+01 4.5594000000e+01 5.1100000000e-04 0.0000e+00 1.0000e+00
       23  2    1    2    0    0 +0.0000000000e+00 -8.8817841970e-16 +0.0000000000e+00 9.1188000000e+01 9.1188000000e+01 3.6735e-14 0.0000e+00
  9990012  2    3    3    0    0 -1.1502997504e+01 +3.9075140768e+00 +1.4251036658e+01 7.2461557101e+01 6.9999982813e+01 6.0540e-06 0.0000e+00
      -11  1    4    4    0    0 +1.1826442169e+01 -3.2517559976e+00 +4.9981441465e+00 1.3244625197e+01 5.1100000000e-04 0.0000e+00 1.0000e+00
       11  1    4    4    0    0 +9.7741316746e+00 -1.4568317737e+01 +8.7780694192e+00 1.9616932346e+01 5.1100000000e-04 0.0000e+00 -1.0000e+00
       12  1    4    4    0    0 -3.3103571347e+01 +2.1727587811e+01 +4.7482309228e-01 3.9599999558e+01 0.0000000000e+00 0.0000e+00 -1.0000e+00
      -12  1    3    3    0    0 +1.1502997504e+01 -3.9075140768e+00 -1.4251036658e+01 1.8726442899e+01 0.0000000000e+00 0.0000e+00 1.0000e+00
</event>
<event>
 8      4 +1.0086356e-04 9.11880000e+01 7.81616400e-03 1.18400000e-01
      -11 -1    0    0    0    0 +0.0000000000e+00 +0.0000000000e+00 +4.5593999997e+01 4.5594000000e+01 5.1100000000e-04 0.0000e+00 -1.0000e+00
       11 -1    0    0    0    0 -0.0000000000e+00 -0.0000000000e+00 -4.5593999997e+01 4.5594000000e+01 5.1100000000e-04 0.0000e+00 1.0000e+00
       23  2    1    2    0    0 +0.0000000000e+00 -4.4408920985e-16 +0.0000000000e+00 9.1188000000e+01 9.1188000000e+01 1.1833e-14 0.0000e+00
 -9990012  2    3    3    0    0 +1.4291898212e+01 -1.7575921279e+00 +1.1971865193e+01 7.2461733934e+01 7.0000213171e+01 2.4535e-05 0.0000e+00
      -11  1    4    4    0    0 -1.4002731647e+01 +7.5061047688e+00 +1.4222100788e+01 2.1323373407e+01 5.1100000000e-04 0.0000e+00 1.0000e+00
       11  1    4    4    0    0 +3.8381516181e+00 -2.2774609613e+01 +1.3729841753e-01 2.3096170722e+01 5.1100000000e-04 0.0000e+00 -1.0000e+00
      -12  1    4    4    0    0 +2.4456478241e+01 +1.3510912717e+01 -2.3875340125e+00 2.8042189805e+01 0.0000000000e+00 0.0000e+00 1.0000e+00
       12  1    3    3    0    0 -1.4291898212e+01 +1.7575921279e+00 -1.1971865193e+01 1.8726266066e+01 0.0000000000e+00 0.0000e+00 -1.0000e+00
</event>
<event>
 9      3 +1.0086356e-04 9.11880000e+01 7.81616400e-03 1.18400000e-01
      -11 -1    0    0    0    0 +0.0000000000e+00 +0.0000000000e+00 +4.5593999997e+01 4.5594000000e+01 5.1100000000e-04 0.0000e+00 1.0000e+00
       11 -1    0    0    0    0 -0.0000000000e+00 -0.0000000000e+00 -4.5593999997e+01 4.5594000000e+01 5.1100000000e-04 0.0000e+00 -1.0000e+00
       23  2    1    2    0    0 -1.7763568394e-15 -8.8817841970e-16 -1.7763568394e-15 9.1188000000e+01 9.1188000000e+01 1.6202e-14 0.0000e+00
  9990012  2    3    3    0    0 -1.5497655745e+01 +5.8151190039e+00 -8.7570759766e+00 7.2461566215e+01 6.9999994686e+01 5.1006e-05 0.0000e+00
       24  2    4    4    0    0 -4.4692604094e+00 +2.5343169054e+00 -1.5137640633e+01 5.9304789570e+01 5.7109656375e+01 5.1700e-14 0.0000e+00
      -11  1    5    5    0    0 +1.6525113956e+01 -6.9850358562e+00 +1.3564760463e+01 2.2491617191e+01 5.1100000000e-04 0.0000e+00 1.0000e+00
       11  1    4    4    0    0 -1.1028395336e+01 +3.2808020985e+00 +6.3805646560e+00 1.3156776645e+01 5.1100000000e-04 0.0000e+00 -1.0000e+00
       12  1    5    5    0    0 -2.0994374365e+01 +9.5193527616e+00 -2.8702401096e+01 3.6813172380e+01 0.0000000000e+00 0.0000e+00 -1.0000e+00
      -12  1    3    3    0    0 +1.5497655745e+01 -5.8151190039e+00 +8.7570759766e+00 1.8726433785e+01 0.0000000000e+00 0.0000e+00 1.0000e+00
</event>
<event>
 8      4 +1.0086356e-04 9.11880000e+01 7.81616400e-03 1.18400000e-01
      -11 -1    0    0    0    0 +0.0000000000e+00 +0.0000000000e+00 +4.5593999997e+01 4.5594000000e+01 5.1100000000e-04 0.0000e+00 -1.0000e+00
       11 -1    0    0    0    0 -0.0000000000e+00 -0.0000000000e+00 -4.5593999997e+01 4.5594000000e+01 5.1100000000e-04 0.0000e+00 1.0000e+00
       23  2    1    2    0    0 +6.6613381478e-16 +0.0000000000e+00 +8.8817841970e-16 9.1188000000e+01 9.1188000000e+01 1.6832e-14 0.0000e+00
 -9990012  2    3    3    0    0 -1.9448558446e+00 -1.8028603729e+01 -4.6761142484e+00 7.2461573188e+01 7.0000003769e+01 5.5909e-05 0.0000e+00
      -11  1    4    4    0    0 -5.3792879467e+00 +1.2538961640e+01 +1.1168505990e+01 1.7632294920e+01 5.1100000000e-04 0.0000e+00 1.0000e+00
       11  1    4    4    0    0 +1.0055134256e+01 -1.0880745614e+01 +1.2709573634e+01 1.9519979822e+01 5.1100000000e-04 0.0000e+00 -1.0000e+00
      -12  1    4    4    0    0 -6.6207021542e+00 -1.9686819755e+01 -2.8554193872e+01 3.5309298447e+01 0.0000000000e+00 0.0000e+00 1.0000e+00
       12  1    3    3    0    0 +1.9448558446e+00 +1.8028603729e+01 +4.6761142484e+00 1.8726426812e+01 0.0000000000e+00 0.0000e+00 -1.0000e+00
</event>
<event>
 8      4 +1.0086356e-04 9.11880000e+01 7.81616400e-03 1.18400000e-01
      -11 -1    0    0    0    0 +0.0000000000e+00 +0.0000000000e+00 +4.5593999997e+01 4.5594000000e+01 5.1100000000e-04 0.0000e+00 -1.0000e+00
       11 -1    0    0    0    0 -0.0000000000e+00 -0.0000000000e+00 -4.5593999997e+01 4.5594000000e+01 5.1100000000e-04 0.0000e+00 1.0000e+00
       23  2    1    2    0    0 +0.0000000000e+00 +1.7763568394e-15 +0.0000000000e+00 9.1188000000e+01 9.1188000000e+01 7.9424e-15 0.0000e+00
 -9990012  2    3    3    0    0 +1.5287097684e+01 +5.4707333447e+00 -9.3303118450e+00 7.2461574872e+01 7.0000005964e+01 1.8419e-04 0.0000e+00
      -11  1    4    4    0    0 +1.0277710038e+01 -8.2126456419e+00 -1.6996661978e+01 2.1493380161e+01 5.1100000000e-04 0.0000e+00 1.0000e+00
       11  1    4    4    0    0 -1.7753129819e+01 +1.9453682400e+01 +7.8612124282e+00 2.7484869263e+01 5.1100000000e-04 0.0000e+00 -1.0000e+00
      -12  1    4    4    0    0 +2.2762517465e+01 -5.7703034136e+00 -1.9486229481e-01 2.3483325449e+01 0.0000000000e+00 0.0000e+00 1.0000e+00
       12  1    3    3    0    0 -1.5287097684e+01 -5.4707333447e+00 +9.3303118450e+00 1.8726425128e+01 0.0000000000e+00 0.0000e+00 -1.0000e+00
</event>
<event>
 8      4 +1.0086356e-04 9.11880000e+01 7.81616400e-03 1.18400000e-01
      -11 -1    0    0    0    0 +0.0000000000e+00 +0.0000000000e+00 +4.5593999997e+01 4.5594000000e+01 5.1100000000e-04 0.0000e+00 1.0000e+00
       11 -1    0    0    0    0 -0.0000000000e+00 -0.0000000000e+00 -4.5593999997e+01 4.5594000000e+01 5.1100000000e-04 0.0000e+00 -1.0000e+00
       23  2    1    2    0    0 -8.8817841970e-16 +4.4408920985e-16 +3.5527136788e-15 9.1188000000e+01 9.1188000000e+01 2.7077e-14 0.0000e+00
 -9990012  2    3    3    0    0 +7.9120447366e+00 +3.5613593520e+00 +1.6595035079e+01 7.2461576913e+01 7.0000008622e+01 3.9672e-04 0.0000e+00
      -11  1    4    4    0    0 +2.6924587689e+01 +7.7788643909e+00 +3.2167015243e+00 2.8209773526e+01 5.1100000000e-04 0.0000e+00 1.0000e+00
       11  1    4    4    0    0 +6.0747968935e+00 -2.4225694769e+00 +1.7575195530e+01 1.8752586445e+01 5.1100000000e-04 0.0000e+00 -1.0000e+00
      -12  1    4    4    0    0 -2.5087339846e+01 -1.7949355619e+00 -4.1968619756e+00 2.5499216942e+01 0.0000000000e+00 0.0000e+00 1.0000e+00
       12  1    3    3    0    0 -7.9120447366e+00 -3.5613593520e+00 -1.6595035079e+01 1.8726423087e+01 0.0000000000e+00 0.0000e+00 -1.0000e+00
</event>
<event>
 9      3 +1.0086356e-04 9.11880000e+01 7.81616400e-03 1.18400000e-01
      -11 -1    0    0    0    0 +0.0000000000e+00 +0.0000000000e+00 +4.5593999997e+01 4.5594000000e+01 5.1100000000e-04 0.0000e+00 1.0000e+00
       11 -1    0    0    0    0 -0.0000000000e+00 -0.0000000000e+00 -4.5593999997e+01 4.5594000000e+01 5.1100000000e-04 0.0000e+00 -1.0000e+00
       23  2    1    2    0    0 +0.0000000000e+00 +1.4068607390e-15 +0.0000000000e+00 9.1188000000e+01 9.1188000000e+01 2.2626e-15 0.0000e+00
  9990012  2    3    3    0    0 +1.6522405907e+01 +1.3818971387e-02 -8.8143402946e+00 7.2461476490e+01 6.9999877803e+01 3.0169e-08 0.0000e+00
       24  2    4    4    0    0 +1.0262626084e+01 +7.4195527856e+00 -1.6908989812e+01 5.9830043957e+01 5.5976325047e+01 3.3154e-14 0.0000e+00
      -11  1    5    5    0    0 +6.0453933335e+00 +2.5942929016e+01 +8.6292054734e+00 2.8000813092e+01 5.1100000000e-04 0.0000e+00 1.0000e+00
       11  1    4    4    0    0 +6.2597798238e+00 -7.4057338142e+00 +8.0946495172e+00 1.2631432533e+01 5.1100000000e-04 0.0000e+00 -1.0000e+00
       12  1    5    5    0    0 +4.2172327502e+00 -1.8523376230e+01 -2.5538195285e+01 3.1829230865e+01 0.0000000000e+00 0.0000e+00 -1.0000e+00
      -12  1    3    3    0    0 -1.6522405907e+01 -1.3818971387e-02 +8.8143402946e+00 1.8726523510e+01 0.0000000000e+00 0.0000e+00 1.0000e+00
</event>
<event>
 8      4 +1.0086356e-04 9.11880000e+01 7.81616400e-03 1.18400000e-01
      -11 -1    0    0    0    0 +0.0000000000e+00 +0.0000000000e+00 +4.5593999997e+01 4.5594000000e+01 5.1100000000e-04 0.0000e+00 1.0000e+00
       11 -1    0    0    0    0 -0.0000000000e+00 -0.0000000000e+00 -4.5593999997e+01 4.5594000000e+01 5.1100000000e-04 0.0000e+00 -1.0000e+00
       23  2    1    2    0    0 +0.0000000000e+00 -2.2204460493e-16 +0.0000000000e+00 9.1188000000e+01 9.1188000000e+01 2.0513e-13 0.0000e+00
 -9990012  2    3    3    0    0 -4.2536612708e+00 -3.2946117802e-01 +1.8233961117e+01 7.2461561019e+01 6.9999987917e+01 1.9933e-04 0.0000e+00
      -11  1    4    4    0    0 -4.3442472680e+00 -9.1484883074e+00 -1.6524898714e+01 1.9381424106e+01 5.1100000000e-04 0.0000e+00 1.0000e+00
       11  1    4    4    0    0 +9.3426268170e+00 +7.7291962811e+00 -4.3461454210e+00 1.2880765943e+01 5.1100000000e-04 0.0000e+00 -1.0000e+00
      -12  1    4    4    0    0 -9.2520408199e+00 +1.0898308483e+00 +3.9105005252e+01 4.0199370970e+01 0.0000000000e+00 0.0000e+00 1.0000e+00
       12  1    3    3    0    0 +4.2536612708e+00 +3.2946117802e-01 -1.8233961117e+01 1.8726438981e+01 0.0000000000e+00 0.0000e+00 -1.0000e+00
</event>
<event>
 9      4 +1.0086356e-04 9.11880000e+01 7.81616400e-03 1.18400000e-01
      -11 -1    0    0    0    0 +0.0000000000e+00 +0.0000000000e+00 +4.5593999997e+01 4.5594000000e+01 5.1100000000e-04 0.0000e+00 1.0000e+00
       11 -1    0    0    0    0 -0.0000000000e+00 -0.0000000000e+00 -4.5593999997e+01 4.5594000000e+01 5.1100000000e-04 0.0000e+00 -1.0000e+00
       23  2    1    2    0    0 -1.7763568394e-15 -8.8817841970e-16 +0.0000000000e+00 9.1188000000e+01 9.1188000000e+01 1.6767e-13 0.0000e+00
 -9990012  2    3    3    0    0 +1.4267672518e+01 +6.9555104175e+00 +9.9368519688e+00 7.2461371065e+01 6.9999740466e+01 3.5166e-04 0.0000e+00
      -24  2    4    4    0    0 -2.0569336842e+00 +1.2924903528e+00 +9.6684474154e+00 5.5180323493e+01 5.4272347636e+01 3.2888e-14 0.0000e+00
      -11  1    4    4    0    0 +1.6324606202e+01 +5.6630200647e+00 +2.6840455338e-01 1.7281047571e+01 5.1100000000e-04 0.0000e+00 1.0000e+00
       11  1    5    5    0    0 +2.4170846111e+01 +1.0730788305e+01 +5.1363752221e+00 2.6939969749e+01 5.1100000000e-04 0.0000e+00 -1.0000e+00
      -12  1    5    5    0    0 -2.6227779796e+01 -9.4382979525e+00 +4.5320721933e+00 2.8240353744e+01 0.0000000000e+00 0.0000e+00 1.0000e+00
       12  1    3    3    0    0 -1.4267672518e+01 -6.9555104175e+00 -9.9368519688e+00 1.8726628935e+01 0.0000000000e+00 0.0000e+00 -1.0000e+00
</event>
<event>
 9      4 +1.0086356e-04 9.11880000e+01 7.81616400e-03 1.18400000e-01
      -11 -1    0    0    0    0 +0.0000000000e+00 +0.0000000000e+00 +4.5593999997e+01 4.5594000000e+01 5.1100000000e-04 0.0000e+00 1.0000e+00
       11 -1    0    0    0    0 -0.0000000000e+00 -0.0000000000e+00 -4.5593999997e+01 4.5594000000e+01 5.1100000000e-04 0.0000e+00 -1.0000e+00
       23  2    1    2    0    0 +4.4408920985e-16 +3.5527136788e-15 +1.7763568394e-15 9.1188000000e+01 9.1188000000e+01 9.8204e-15 0.0000e+00
 -9990012  2    3    3    0    0 -3.0443246381e+00 +1.3021406202e+01 +1.3109294906e+01 7.2461586972e+01 7.0000021726e+01 8.9599e-05 0.0000e+00
      -24  2    4    4    0    0 -7.2456434292e+00 +2.3428209390e+01 +6.5894229560e+00 5.9482320326e+01 5.3789827965e+01 1.2091e-13 0.0000e+00
      -11  1    4    4    0    0 +4.2013187911e+00 -1.0406803188e+01 +6.5198719496e+00 1.2979266647e+01 5.1100000000e-04 0.0000e+00 1.0000e+00
       11  1    5    5    0    0 +2.3107099165e+01 +5.5908415903e+00 +4.6400374401e+00 2.4222417080e+01 5.1100000000e-04 0.0000e+00 -1.0000e+00
      -12  1    5    5    0    0 -3.0352742594e+01 +1.7837367799e+01 +1.9493855159e+00 3.5259903245e+01 0.0000000000e+00 0.0000e+00 1.0000e+00
       12  1    3    3    0    0 +3.0443246381e+00 -1.3021406202e+01 -1.3109294906e+01 1.8726413028e+01 0.0000000000e+00 0.0000e+00 -1.0000e+00
</event>
<event>
 9      3 +1.0086356e-04 9.11880000e+01 7.81616400e-03 1.18400000e-01
      -11 -1    0    0    0    0 +0.0000000000e+00 +0.0000000000e+00 +4.5593999997e+01 4.5594000000e+01 5.1100000000e-04 0.0000e+00 1.0000e+00
       11 -1    0    0    0    0 -0.0000000000e+00 -0.0000000000e+00 -4.5593999997e+01 4.5594000000e+01 5.1100000000e-04 0.0000e+00 -1.0000e+00
       23  2    1    2    0    0 +0.0000000000e+00 +4.4408920985e-16 +0.0000000000e+00 9.1188000000e+01 9.1188000000e+01 4.2613e-14 0.0000e+00
  9990012  2    3    3    0    0 +1.1937190337e+01 +1.2893628166e+00 -1.4370872679e+01 7.2461522724e+01 6.9999938031e+01 8.7824e-05 0.0000e+00
       24  2    4    4    0    0 +2.2317057010e+00 +5.3167341558e+00 -1.3725340749e+01 6.1933803900e+01 6.0117908433e+01 1.3466e-13 0.0000e+00
      -11  1    5    5    0    0 -5.6610272160e+00 +2.2335863173e+00 +2.3232840075e+01 2.4016681602e+01 5.1100000000e-04 0.0000e+00 1.0000e+00
       11  1    4    4    0    0 +9.7054846355e+00 -4.0273713392e+00 -6.4553193048e-01 1.0527718825e+01 5.1100000000e-04 0.0000e+00 -1.0000e+00
       12  1    5    5    0    0 +7.8927329170e+00 +3.0831478385e+00 -3.6958180824e+01 3.7917122297e+01 0.0000000000e+00 0.0000e+00 -1.0000e+00
      -12  1    3    3    0    0 -1.1937190337e+01 -1.2893628166e+00 +1.4370872679e+01 1.8726477276e+01 0.0000000000e+00 0.0000e+00 1.0000e+00
</event>
<event>
 8      3 +1.0086356e-04 9.11880000e+01 7.81616400e-03 1.18400000e-01
      -11 -1    0    0    0    0 +0.0000000000e+00 +0.0000000000e+00 +4.5593999997e+01 4.5594000000e+01 5.1100000000e-04 0.0000e+00 1.0000e+00
       11 -1    0    0    0    0 -0.0000000000e+00 -0.0000000000e+00 -4.5593999997e+01 4.5594000000e+01 5.1100000000e-04 0.0000e+00 -1.0000e+00
       23  2    1    2    0    0 -7.2164496601e-16 +0.0000000000e+00 -8.8817841970e-16 9.1188000000e+01 9.1188000000e+01 6.8300e-14 0.0000e+00
  9990012  2    3    3    0    0 -4.3760750735e-01 +1.7376580511e+01 -6.9671489411e+00 7.2461595781e+01 7.0000033201e+01 6.5908e-05 0.0000e+00
      -11  1    4    4    0    0 -1.0773525164e+01 +4.0052889405e-01 -3.5557302942e+01 3.7155767529e+01 5.1100000000e-04 0.0000e+00 -1.0000e+00
       11  1    4    4    0    0 +5.3494359603e+00 +1.1227759089e+01 +1.3194131355e+01 1.8131854338e+01 5.1100000000e-04 0.0000e+00 1.0000e+00
       12  1    4    4    0    0 +4.9864816963e+00 +5.7482925279e+00 +1.5396022646e+01 1.7173973915e+01 0.0000000000e+00 0.0000e+00 -1.0000e+00
      -12  1    3    3    0    0 +4.3760750735e-01 -1.7376580511e+01 +6.9671489411e+00 1.8726404219e+01 0.0000000000e+00 0.0000e+00 1.0000e+00
</event>
<event>
 8      3 +1.0086356e-04 9.11880000e+01 7.81616400e-03 1.18400000e-01
      -11 -1    0    0    0    0 +0.0000000000e+00 +0.0000000000e+00 +4.5593999997e+01 4.5594000000e+01 5.1100000000e-04 0.0000e+00 1.0000e+00
       11 -1    0    0    0    0 -0.0000000000e+00 -0.0000000000e+00 -4.5593999997e+01 4.5594000000e+01 5.1100000000e-04 0.0000e+00 -1.0000e+00
       23  2    1    2    0    0 +3.5527136788e-15 -1.0547118734e-15 +0.0000000000e+00 9.1188000000e+01 9.1188000000e+01 1.3259e-13 0.0000e+00
  9990012  2    3    3    0    0 +3.0308337946e+00 +4.5130080519e-01 -1.8474023562e+01 7.2461570215e+01 6.9999999897e+01 2.1855e-04 0.0000e+00
      -11  1    4    4    0    0 -3.4331403602e+00 -1.6419016881e+01 +6.8356047009e-01 1.6788026186e+01 5.1100000000e-04 0.0000e+00 1.0000e+00
       11  1    4    4    0    0 +2.5839204155e+01 +5.0210939758e+00 -5.7508158827e-01 2.6328816441e+01 5.1100000000e-04 0.0000e+00 -1.0000e+00
       12  1    4    4    0    0 -1.9375230000e+01 +1.1849223710e+01 -1.8582502444e+01 2.9344727588e+01 0.0000000000e+00 0.0000e+00 -1.0000e+00
      -12  1    3    3    0    0 -3.0308337946e+00 -4.5130080519e-01 +1.8474023562e+01 1.8726429785e+01 0.0000000000e+00 0.0000e+00 1.0000e+00
</event>
<event>
 9      3 +1.0086356e-04 9.11880000e+01 7.81616400e-03 1.18400000e-01
      -11 -1    0    0    0    0 +0.0000000000e+00 +0.0000000000e+00 +4.5593999997e+01 4.5594000000e+01 5.1100000000e-04 0.0000e+00 1.0000e+00
       11 -1    0    0    0    0 -0.0000000000e+00 -0.0000000000e+00 -4.5593999997e+01 4.5594000000e+01 5.1100000000e-04 0.0000e+00 -1.0000e+00
       23  2    1    2    0    0 -1.7763568394e-15 -7.1054273576e-15 +8.8817841970e-16 9.1188000000e+01 9.1188000000e+01 1.4217e-13 0.0000e+00
  9990012  2    3    3    0    0 -1.0102683458e+01 -1.4190420827e+01 +6.8736640026e+00 7.2461561120e+01 6.9999988049e+01 6.6593e-06 0.0000e+00
       24  2    4    4    0    0 -1.3228692997e+01 -1.5813443756e+01 +8.1372489454e+00 6.8719531425e+01 6.5046874307e+01 3.5627e-14 0.0000e+00
      -11  1    5    5    0    0 +2.6132869039e+01 -1.1774559655e+01 +3.8219497347e+00 2.8916680296e+01 5.1100000000e-04 0.0000e+00 1.0000e+00
       11  1    4    4    0    0 +3.1260095394e+00 +1.6230229287e+00 -1.2635849428e+00 3.7420296948e+00 5.1100000000e-04 0.0000e+00 -1.0000e+00
       12  1    5    5    0    0 -3.9361562037e+01 -4.0388841006e+00 +4.3152992107e+00 3.9802851129e+01 0.0000000000e+00 0.0000e+00 -1.0000e+00
      -12  1    3    3    0    0 +1.0102683458e+01 +1.4190420827e+01 -6.8736640026e+00 1.8726438880e+01 0.0000000000e+00 0.0000e+00 1.0000e+00
</event>
<event>
 8      4 +1.0086356e-04 9.11880000e+01 7.81616400e-03 1.18400000e-01
      -11 -1    0    0    0    0 +0.0000000000e+00 +0.0000000000e+00 +4.5593999997e+01 4.5594000000e+01 5.1100000000e-04 0.0000e+00 1.0000e+00
       11 -1    0    0    0    0 -0.0000000000e+00 -0.0000000000e+00 -4.5593999997e+01 4.5594000000e+01 5.1100000000e-04 0.0000e+00 -1.0000e+00
       23  2    1    2    0    0 +0.0000000000e+00 +0.0000000000e+00 -8.8817841970e-16 9.1188000000e+01 9.1188000000e+01 1.0067e-14 0.0000e+00
 -9990012  2    3    3    0    0 +1.5910209742e+01 -7.5241756545e+00 +6.3977094834e+00 7.2461583366e+01 7.0000017028e+01 2.8163e-04 0.0000e+00
      -11  1    4    4    0    0 +1.2703323705e+01 +1.2724548150e+01 +1.7849061737e+01 2.5335302721e+01 5.1100000000e-04 0.0000e+00 1.0000e+00
       11  1    4    4    0    0 +1.6000006874e+01 +4.5187315569e+00 -9.5771500090e+00 1.9186999698e+01 5.1100000000e-04 0.0000e+00 -1.0000e+00
      -12  1    4    4    0    0 -1.2793120836e+01 -2.4767455361e+01 -1.8742022450e+00 2.7939280947e+01 0.0000000000e+00 0.0000e+00 1.0000e+00
       12  1    3    3    0    0 -1.5910209742e+01 +7.5241756545e+00 -6.3977094834e+00 1.8726416634e+01 0.0000000000e+00 0.0000e+00 -1.0000e+00
</event>
<event>
 9      3 +1.0086356e-04 9.11880000e+01 7.81616400e-03 1.18400000e-01
      -11 -1    0    0    0    0 +0.0000000000e+00 +0.0000000000e+00 +4.5593999997e+01 4.5594000000e+01 5.1100000000e-04 0.0000e+00 1.0000e+00
       11 -1    0    0    0    0 -0.0000000000e+00 -0.0000000000e+00 -4.5593999997e+01 4.5594000000e+01 5.1100000000e-04 0.0000e+00 -1.0000e+00
       23  2    1    2    0    0 +3.5527136788e-15 +0.0000000000e+00 +0.0000000000e+00 9.1188000000e+01 9.1188000000e+01 8.1562e-15 0.0000e+00
  9990012  2    3    3    0    0 +1.0316585184e+01 -4.2268392060e+00 -1.5045952122e+01 7.2461580833e+01 7.0000013729e+01 1.1949e-04 0.0000e+00
       24  2    4    4    0    0 +2.1781589384e+01 -8.8369830492e+00 -5.3250306155e+00 5.6739110839e+01 5.1365755540e+01 2.3286e-13 0.0000e+00
      -11  1    5    5    0    0 -1.3787833170e+01 -1.3653690383e+01 +3.6391297342e+00 1.9742615584e+01 5.1100000000e-04 0.0000e+00 1.0000e+00
       11  1    4    4    0    0 -1.1465004199e+01 +4.6101438431e+00 -9.7209215065e+00 1.5722469995e+01 5.1100000000e-04 0.0000e+00 -1.0000e+00
       12  1    5    5    0    0 +3.5569422554e+01 +4.8167073335e+00 -8.9641603497e+00 3.6996495255e+01 0.0000000000e+00 0.0000e+00 -1.0000e+00
      -12  1    3    3    0    0 -1.0316585184e+01 +4.2268392060e+00 +1.5045952122e+01 1.8726419167e+01 0.0000000000e+00 0.0000e+00 1.0000e+00
</event>
<event>
 8      3 +1.0086356e-04 9.11880000e+01 7.81616400e-03 1.18400000e-01
      -11 -1    0    0    0    0 +0.0000000000e+00 +0.0000000000e+00 +4.5593999997e+01 4.5594000000e+01 5.1100000000e-04 0.0000e+00 1.0000e+00
       11 -1    0    0    0    0 -0.0000000000e+00 -0.0000000000e+00 -4.5593999997e+01 4.5594000000e+01 5.1100000000e-04 0.0000e+00 -1.0000e+00
       23  2    1    2    0    0 +0.0000000000e+00 -8.8817841970e-16 +0.0000000000e+00 9.1188000000e+01 9.1188000000e+01 1.2314e-13 0.0000e+00
  9990012  2    3    3    0    0 +1.7889864401e+01 +4.2792614889e+00 -3.5097838143e+00 7.2461603935e+01 7.0000043823e+01 7.0884e-04 0.0000e+00
      -11  1    4    4    0    0 -1.2216125216e+01 -1.5260318555e+01 -1.9247397884e+01 2.7433070613e+01 5.1100000000e-04 0.0000e+00 1.0000e+00
       11  1    4    4    0    0 +2.8662107048e+01 +8.6163857968e+00 +6.4459836876e+00 3.0615505722e+01 5.1100000000e-04 0.0000e+00 -1.0000e+00
       12  1    4    4    0    0 +1.4438825681e+00 +1.0923194247e+01 +9.2916303824e+00 1.4413027600e+01 0.0000000000e+00 0.0000e+00 -1.0000e+00
      -12  1    3    3    0    0 -1.7889864401e+01 -4.2792614889e+00 +3.5097838143e+00 1.8726396065e+01 0.0000000000e+00 0.0000e+00 1.0000e+00
</event>
<event>
 9      4 +1.0086356e-04 9.11880000e+01 7.81616400e-03 1.18400000e-01
      -11 -1    0    0    0    0 +0.0000000000e+00 +0.0000000000e+00 +4.5593999997e+01 4.5594000000e+01 5.1100000000e-04 0.0000e+00 1.0000e+00
       11 -1    0    0    0    0 -0.0000000000e+00 -0.0000000000e+00 -4.5593999997e+01 4.5594000000e+01 5.1100000000e-04 0.0000e+00 -1.0000e+00
       23  2    1    2    0    0 -1.1102230246e-15 +0.0000000000e+00 +0.0000000000e+00 9.1188000000e+01 9.1188000000e+01 3.5257e-14 0.0000e+00
 -9990012  2    3    3    0    0 +1.3938329013e+00 -6.1732282270e+00 +1.7624642065e+01 7.2461560808e+01 6.9999987642e+01 2.0903e-04 0.0000e+00
      -24  2    4    4    0    0 +1.0325229901e+01 +8.5957548214e+00 +1.9506733609e+01 5.5099677803e+01 4.9749014708e+01 6.5905e-14 0.0000e+00
      -11  1    4    4    0    0 -8.9313969994e+00 -1.4768983048e+01 -1.8820915441e+00 1.7361883005e+01 5.1100000000e-04 0.0000e+00 1.0000e+00
       11  1    5    5    0    0 +1.0663576144e+01 -2.2247351671e+00 -1.5224568031e+01 1.8720277101e+01 5.1100000000e-04 0.0000e+00 -1.0000e+00
      -12  1    5    5    0    0 -3.3834624331e-01 +1.0820489988e+01 +3.4731301640e+01 3.6379400702e+01 0.0000000000e+00 0.0000e+00 1.0000e+00
       12  1    3    3    0    0 -1.3938329013e+00 +6.1732282270e+00 -1.7624642065e+01 1.8726439192e+01 0.0000000000e+00 0.0000e+00 -1.0000e+00
</event>
<event>
 8      4 +1.0086356e-04 9.11880000e+01 7.81616400e-03 1.18400000e-01
      -11 -1    0    0    0    0 +0.0000000000e+00 +0.0000000000e+00 +4.5593999997e+01 4.5594000000e+01 5.1100000000e-04 0.0000e+00 -1.0000e+00
       11 -1    0    0    0    0 -0.0000000000e+00 -0.0000000000e+00 -4.5593999997e+01 4.5594000000e+01 5.1100000000e-04 0.0000e+00 1.0000e+00
       23  2    1    2    0    0 -1.5543122345e-15 +0.0000000000e+00 +0.0000000000e+00 9.1188000000e+01 9.1188000000e+01 8.2214e-14 0.0000e+00
 -9990012  2    3    3    0    0 -1.1351746092e+00 -6.6119177366e+00 -1.7483488854e+01 7.2461589238e+01 7.0000024677e+01 6.3215e-04 0.0000e+00
      -11  1    4    4    0    0 -6.2961442010e+00 +1.3766987330e+01 +1.4319680207e+01 2.0838056853e+01 5.1100000000e-04 0.0000e+00 1.0000e+00
       11  1    4    4    0    0 -1.2221429457e+01 -1.3707658541e+01 -5.0808820095e+00 1.9054621563e+01 5.1100000000e-04 0.0000e+00 -1.0000e+00
      -12  1    4    4    0    0 +1.7382399049e+01 -6.6712465260e+00 -2.6722287051e+01 3.2568910822e+01 0.0000000000e+00 0.0000e+00 1.0000e+00
       12  1    3    3    0    0 +1.1351746092e+00 +6.6119177366e+00 +1.7483488854e+01 1.8726410762e+01 0.0000000000e+00 0.0000e+00 -1.0000e+00
</event>
<event>
 8      3 +1.0086356e-04 9.11880000e+01 7.81616400e-03 1.18400000e-01
      -11 -1    0    0    0    0 +0.0000000000e+00 +0.0000000000e+00 +4.5593999997e+01 4.5594000000e+01 5.1100000000e-04 0.0000e+00 -1.0000e+00
       11 -1    0    0    0    0 -0.0000000000e+00 -0.0000000000e+00 -4.5593999997e+01 4.5594000000e+01 5.1100000000e-04 0.0000e+00 1.0000e+00
       23  2    1    2    0    0 +1.7763568394e-15 +0.0000000000e+00 +0.0000000000e+00 9.1188000000e+01 9.1188000000e+01 1.8471e-14 0.0000e+00
  9990012  2    3    3    0    0 +1.5893570412e+01 -8.1295281824e+00 +5.6555157584e+00 7.2461557001e+01 6.9999982683e+01 7.9126e-04 0.0000e+00
      -11  1    4    4    0    0 -2.4605836742e+01 -1.8007904102e-01 +7.7078540793e+00 2.5785473527e+01 5.1100000000e-04 0.0000e+00 -1.0000e+00
       11  1    4    4    0    0 +4.0371131773e+01 -4.6315872735e+00 -6.4720433448e+00 4.1148113282e+01 5.1100000000e-04 0.0000e+00 1.0000e+00
       12  1    4    4    0    0 +1.2827538062e-01 -3.3178618678e+00 +4.4197050239e+00 5.5279701922e+00 0.0000000000e+00 0.0000e+00 -1.0000e+00
      -12  1    3    3    0    0 -1.5893570412e+01 +8.1295281824e+00 -5.6555157584e+00 1.8726442999e+01 0.0000000000e+00 0.0000e+00 1.0000e+00
</event>
<event>
 9      3 +1.0086356e-04 9.11880000e+01 7.81616400e-03 1.18400000e-01
      -11 -1    0    0    0    0 +0.0000000000e+00 +0.0000000000e+00 +4.5593999997e+01 4.5594000000e+01 5.1100000000e-04 0.0000e+00 1.0000e+00
       11 -1    0    0    0    0 -0.0000000000e+00 -0.0000000000e+00 -4.5593999997e+01 4.5594000000e+01 5.1100000000e-04 0.0000e+00 -1.0000e+00
       23  2    1    2    0    0 +8.8817841970e-16 -8.8817841970e-16 +0.0000000000e+00 9.1188000000e+01 9.1188000000e+01 3.7219e-15 0.0000e+00
  9990012  2    3    3    0    0 -2.5253660519e+00 -7.9322239789e+00 -1.6774459704e+01 7.2461544134e+01 6.9999965922e+01 3.0705e-04 0.0000e+00
       24  2    4    4    0    0 -7.7930573330e+00 +1.2303847125e+00 -8.4128391397e+00 5.8984947079e+01 5.7846370071e+01 1.5238e-13 0.0000e+00
      -11  1    5    5    0    0 +1.6352187601e+01 +2.0963135487e+01 +3.6857937431e-01 2.6589150791e+01 5.1100000000e-04 0.0000e+00 1.0000e+00
       11  1    4    4    0    0 +5.2676912811e+00 -9.1626086914e+00 -8.3616205638e+00 1.3476597055e+01 5.1100000000e-04 0.0000e+00 -1.0000e+00
       12  1    5    5    0    0 -2.4145244934e+01 -1.9732750774e+01 -8.7814185140e+00 3.2395796288e+01 0.0000000000e+00 0.0000e+00 -1.0000e+00
      -12  1    3    3    0    0 +2.5253660519e+00 +7.9322239789e+00 +1.6774459704e+01 1.8726455866e+01 0.0000000000e+00 0.0000e+00 1.0000e+00
</event>
<event>
 8      4 +1.0086356e-04 9.11880000e+01 7.81616400e-03 1.18400000e-01
      -11 -1    0    0    0    0 +0.0000000000e+00 +0.0000000000e+00 +4.5593999997e+01 4.5594000000e+01 5.1100000000e-04 0.0000e+00 1.0000e+00
       11 -1    0    0    0    0 -0.0000000000e+00 -0.0000000000e+00 -4.5593999997e+01 4.5594000000e+01 5.1100000000e-04 0.0000e+00 -1.0000e+00
       23  2    1    2    0    0 -1.7763568394e-15 +0.0000000000e+00 +1.7763568394e-15 9.1188000000e+01 9.1188000000e+01 6.1929e-14 0.0000e+00
 -9990012  2    3    3    0    0 +1.0720871285e+01 +8.8505307461e+00 +1.2546289847e+01 7.2461591788e+01 7.0000027999e+01 3.6996e-06 0.0000e+00
      -11  1    4    4    0    0 +2.5956024420e+01 +1.0708361199e+01 +5.7784999823e-01 2.8084125661e+01 5.1100000000e-04 0.0000e+00 1.0000e+00
       11  1    4    4    0    0 -2.0553662697e+00 -3.9642457714e+00 -1.4262987399e+01 1.4945654380e+01 5.1100000000e-04 0.0000e+00 -1.0000e+00
      -12  1    4    4    0    0 -1.3179786865e+01 +2.1064153188e+00 +2.6231427248e+01 2.9431811748e+01 0.0000000000e+00 0.0000e+00 1.0000e+00
       12  1    3    3    0    0 -1.0720871285e+01 -8.8505307461e+00 -1.2546289847e+01 1.8726408212e+01 0.0000000000e+00 0.0000e+00 -1.0000e+00
</event>
<event>
 9      3 +1.0086356e-04 9.11880000e+01 7.81616400e-03 1.18400000e-01
      -11 -1    0    0    0    0 +0.0000000000e+00 +0.0000000000e+00 +4.5593999997e+01 4.5594000000e+01 5.1100000000e-04 0.0000e+00 1.0000e+00
       11 -1    0    0    0    0 -0.0000000000e+00 -0.0000000000e+00 -4.5593999997e+01 4.5594000000e+01 5.1100000000e-04 0.0000e+00 -1.0000e+00
       23  2    1    2    0    0 +1.3322676296e-15 +0.0000000000e+00 +3.5527136788e-15 9.1188000000e+01 9.1188000000e+01 3.3103e-14 0.0000e+00
  9990012  2    3    3    0    0 -3.8647943158e+00 +6.6292817356e+00 -1.7082044547e+01 7.2461541249e+01 6.9999962163e+01 6.7406e-06 0.0000e+00
       24  2    4    4    0    0 +5.0052255741e-01 +6.6961930949e+00 -1.9372346865e+01 6.7531434404e+01 6.4343743168e+01 7.2211e-14 0.0000e+00
      -11  1    5    5    0    0 +9.4128491952e+00 +8.0903825446e+00 +2.1960660185e+01 2.5225515172e+01 5.1100000000e-04 0.0000e+00 1.0000e+00
       11  1    4    4    0    0 -4.3653168732e+00 -6.6911359295e-02 +2.2903023177e+00 4.9301068448e+00 5.1100000000e-04 0.0000e+00 -1.0000e+00
       12  1    5    5    0    0 -8.9123266377e+00 -1.3941894496e+00 -4.1333007050e+01 4.2305919232e+01 0.0000000000e+00 0.0000e+00 -1.0000e+00
      -12  1    3    3    0    0 +3.8647943158e+00 -6.6292817356e+00 +1.7082044547e+01 1.8726458751e+01 0.0000000000e+00 0.0000e+00 1.0000e+00
</event>
<event>
 9      3 +1.0086356e-04 9.11880000e+01 7.81616400e-03 1.18400000e-01
      -11 -1    0    0    0    0 +0.0000000000e+00 +0.0000000000e+00 +4.5593999997e+01 4.5594000000e+01 5.1100000000e-04 0.0000e+00 -1.0000e+00
       11 -1    0    0    0    0 -0.0000000000e+00 -0.0000000000e+00 -4.5593999997e+01 4.5594000000e+01 5.1100000000e-04 0.0000e+00 1.0000e+00
       23  2    1    2    0    0 +1.7763568394e-15 +0.0000000000e+00 -3.5527136788e-15 9.1188000000e+01 9.1188000000e+01 1.3014e-13 0.0000e+00
  9990012  2    3    3    0    0 +1.0317881889e+01 -1.0934687119e+01 -1.1164846686e+01 7.2461551576e+01 6.9999975616e+01 5.6513e-04 0.0000e+00
       24  2    4    4    0    0 +6.4138105630e+00 -1.4197700511e+01 -9.1108800455e+00 6.6974493300e+01 6.4496999557e+01 3.2516e-14 0.0000e+00
      -11  1    5    5    0    0 +1.3249722268e+01 +2.1766072700e+00 -3.3915453177e+01 3.6476714817e+01 5.1100000000e-04 0.0000e+00 1.0000e+00
       11  1    4    4    0    0 +3.9040713257e+00 +3.2630133919e+00 -2.0539666400e+00 5.4870582767e+00 5.1100000000e-04 0.0000e+00 -1.0000e+00
       12  1    5    5    0    0 -6.8359117053e+00 -1.6374307781e+01 +2.4804573131e+01 3.0497778482e+01 0.0000000000e+00 0.0000e+00 -1.0000e+00
      -12  1    3    3    0    0 -1.0317881889e+01 +1.0934687119e+01 +1.1164846686e+01 1.8726448424e+01 0.0000000000e+00 0.0000e+00 1.0000e+00
</event>
<event>
 7      3 +1.0086356e-04 7.24615200e+01 7.81616400e-03 1.22670800e-01
      -11 -1    0    0    0    0 +0.0000000000e+00 +0.0000000000e+00 +4.5593999997e+01 4.5594000000e+01 5.1100000000e-04 0.0000e+00 1.0000e+00
       11 -1    0    0    0    0 -0.0000000000e+00 -0.0000000000e+00 -4.5593999997e+01 4.5594000000e+01 5.1100000000e-04 0.0000e+00 -1.0000e+00
  9990012  2    1    2    0    0 -1.4932636082e+00 -1.1901337831e+01 -1.4380866409e+01 7.2461521499e+01 6.9999936435e+01 1.9452e-04 0.0000e+00
      -11  1    3    3    0    0 +3.5887630441e+00 -6.6148235301e+00 +9.7784257962e+00 1.2339072973e+01 5.1100000000e-04 0.0000e+00 1.0000e+00
       11  1    3    3    0    0 -1.9702381125e+01 -2.2503100472e+01 -2.2588883109e+01 3.7481075135e+01 5.1100000000e-04 0.0000e+00 -1.0000e+00
       12  1    3    3    0    0 +1.4620354473e+01 +1.7216586171e+01 -1.5704090958e+00 2.2641373391e+01 0.0000000000e+00 0.0000e+00 -1.0000e+00
      -12  1    1    2    0    0 +1.4932636082e+00 +1.1901337831e+01 +1.4380866409e+01 1.8726478501e+01 0.0000000000e+00 0.0000e+00 1.0000e+00
</event>
<event>
 9      4 +1.0086356e-04 9.11880000e+01 7.81616400e-03 1.18400000e-01
      -11 -1    0    0    0    0 +0.0000000000e+00 +0.0000000000e+00 +4.5593999997e+01 4.5594000000e+01 5.1100000000e-04 0.0000e+00 -1.0000e+00
       11 -1    0    0    0    0 -0.0000000000e+00 -0.0000000000e+00 -4.5593999997e+01 4.5594000000e+01 5.1100000000e-04 0.0000e+00 1.0000e+00
       23  2    1    2    0    0 +0.0000000000e+00 -8.8817841970e-16 -1.7763568394e-15 9.1188000000e+01 9.1188000000e+01 1.1601e-13 0.0000e+00
 -9990012  2    3    3    0    0 -1.6522033519e+01 +2.4083254091e+00 -8.4795249350e+00 7.2461549028e+01 6.9999972297e+01 1.2917e-04 0.0000e+00
      -24  2    4    4    0    0 +4.2813470930e+00 +4.0284355011e-01 -7.8062064772e+00 5.1550882842e+01 5.0774643734e+01 1.7849e-13 0.0000e+00
      -11  1    4    4    0    0 -2.0803380612e+01 +2.0054818590e+00 -6.7331845775e-01 2.0910666187e+01 5.1100000000e-04 0.0000e+00 1.0000e+00
       11  1    5    5    0    0 +1.6570965523e+01 +1.9331083853e+01 -1.2708097902e+01 2.8456694359e+01 5.1100000000e-04 0.0000e+00 -1.0000e+00
      -12  1    5    5    0    0 -1.2289618430e+01 -1.8928240303e+01 +4.9018914251e+00 2.3094188483e+01 0.0000000000e+00 0.0000e+00 1.0000e+00
       12  1    3    3    0    0 +1.6522033519e+01 -2.4083254091e+00 +8.4795249350e+00 1.8726450972e+01 0.0000000000e+00 0.0000e+00 -1.0000e+00
</event>
<event>
 9      4 +1.0086356e-04 9.11880000e+01 7.81616400e-03 1.18400000e-01
      -11 -1    0    0    0    0 +0.0000000000e+00 +0.0000000000e+00 +4.5593999997e+01 4.5594000000e+01 5.1100000000e-04 0.0000e+00 1.0000e+00
       11 -1    0    0    0    0 -0.0000000000e+00 -0.0000000000e+00 -4.5593999997e+01 4.5594000000e+01 5.1100000000e-04 0.0000e+00 -1.0000e+00
       23  2    1    2    0    0 -1.1102230246e-16 -3.5527136788e-15 +3.5527136788e-15 9.1188000000e+01 9.1188000000e+01 4.2410e-13 0.0000e+00
 -9990012  2    3    3    0    0 -2.5471640956e-01 -1.0515739216e+01 +1.5493003029e+01 7.2461580305e+01 7.0000013041e+01 2.4330e-05 0.0000e+00
      -24  2    4    4    0    0 +6.2248022118e-01 -8.6328017605e+00 +1.1556965048e+01 6.8011038468e+01 6.6460703913e+01 5.6378e-14 0.0000e+00
      -11  1    4    4    0    0 -8.7719663074e-01 -1.8829374558e+00 +3.9360379810e+00 4.4505418368e+00 5.1100000000e-04 0.0000e+00 1.0000e+00
       11  1    5    5    0    0 -4.7103467614e+00 +2.6061720741e+01 -8.2083503169e+00 2.7726840242e+01 5.1100000000e-04 0.0000e+00 -1.0000e+00
      -12  1    5    5    0    0 +5.3328269826e+00 -3.4694522502e+01 +1.9765315365e+01 4.0284198227e+01 0.0000000000e+00 0.0000e+00 1.0000e+00
       12  1    3    3    0    0 +2.5471640956e-01 +1.0515739216e+01 -1.5493003029e+01 1.8726419695e+01 0.0000000000e+00 0.0000e+00 -1.0000e+00
</event>
<event>
 9      3 +1.0086356e-04 9.11880000e+01 7.81616400e-03 1.18400000e-01
      -11 -1    0    0    0    0 +0.0000000000e+00 +0.0000000000e+00 +4.5593999997e+01 4.5594000000e+01 5.1100000000e-04 0.0000e+00 1.0000e+00
       11 -1    0    0    0    0 -0.0000000000e+00 -0.0000000000e+00 -4.5593999997e+01 4.5594000000e+01 5.1100000000e-04 0.0000e+00 -1.0000e+00
       23  2    1    2    0    0 +3.5527136788e-15 -8.8817841970e-16 +1.1102230246e-15 9.1188000000e+01 9.1188000000e+01 1.3387e-13 0.0000e+00
  9990012  2    3    3    0    0 +1.8099476712e+01 +4.7417718148e+00 -7.7587585868e-01 7.2461616459e+01 7.0000060137e+01 1.1801e-04 0.0000e+00
       24  2    4    4    0    0 +1.7895845112e+01 +6.5567304642e+00 -1.1131287448e+01 6.1946385117e+01 5.7880887019e+01 8.9384e-15 0.0000e+00
      -11  1    5    5    0    0 +2.3895804022e+01 +1.1020408470e+00 +1.9122308917e+01 3.0624934979e+01 5.1100000000e-04 0.0000e+00 1.0000e+00
       11  1    4    4    0    0 +2.0363159956e-01 -1.8149586493e+00 +1.0355411589e+01 1.0515231342e+01 5.1100000000e-04 0.0000e+00 -1.0000e+00
       12  1    5    5    0    0 -5.9999589095e+00 +5.4546896171e+00 -3.0253596365e+01 3.1321450138e+01 0.0000000000e+00 0.0000e+00 -1.0000e+00
      -12  1    3    3    0    0 -1.8099476712e+01 -4.7417718148e+00 +7.7587585868e-01 1.8726383541e+01 0.0000000000e+00 0.0000e+00 1.0000e+00
</event>
<event>
 8      3 +1.0086356e-04 9.11880000e+01 7.81616400e-03 1.18400000e-01
      -11 -1    0    0    0    0 +0.0000000000e+00 +0.0000000000e+00 +4.5593999997e+01 4.5594000000e+01 5.1100000000e-04 0.0000e+00 -1.0000e+00
       11 -1    0    0    0    0 -0.0000000000e+00 -0.0000000000e+00 -4.5593999997e+01 4.5594000000e+01 5.1100000000e-04 0.0000e+00 1.0000e+00
       23  2    1    2    0    0 -3.5527136788e-15 +0.0000000000e+00 -4.4408920985e-16 9.1188000000e+01 9.1188000000e+01 2.7596e-13 0.0000e+00
  9990012  2    3    3    0    0 +1.8251670908e+01 +3.1650320337e+00 +2.7454534294e+00 7.2461589953e+01 7.0000025609e+01 1.8286e-04 0.0000e+00
      -11  1    4    4    0    0 -1.6550661547e+01 +1.4747398623e+01 -5.9379310355e+00 2.2949274260e+01 5.1100000000e-04 0.0000e+00 1.0000e+00
       11  1    4    4    0    0 +1.6974711659e+01 -1.8537385928e+01 +1.5108190764e+01 2.9326318237e+01 5.1100000000e-04 0.0000e+00 -1.0000e+00
       12  1    4    4    0    0 +1.7827620797e+01 +6.9550193381e+00 -6.4248062994e+00 2.0185997455e+01 0.0000000000e+00 0.0000e+00 -1.0000e+00
      -12  1    3    3    0    0 -1.8251670908e+01 -3.1650320337e+00 -2.7454534294e+00 1.8726410047e+01 0.0000000000e+00 0.0000e+00 1.0000e+00
</event>
<event>
 8      3 +1.0086356e-04 9.11880000e+01 7.81616400e-03 1.18400000e-01
      -11 -1    0    0    0    0 +0.0000000000e+00 +0.0000000000e+00 +4.5593999997e+01 4.5594000000e+01 5.1100000000e-04 0.0000e+00 1.0000e+00
       11 -1    0    0    0    0 -0.0000000000e+00 -0.0000000000e+00 -4.5593999997e+01 4.5594000000e+01 5.1100000000e-04 0.0000e+00 -1.0000e+00
       23  2    1    2    0    0 +0.0000000000e+00 +0.0000000000e+00 -1.7763568394e-15 9.1188000000e+01 9.1188000000e+01 3.7566e-14 0.0000e+00
  9990012  2    3    3    0    0 +5.3235726311e+00 +1.3663132231e+01 -1.1647249951e+01 7.2461547070e+01 6.9999969746e+01 1.1604e-04 0.0000e+00
      -11  1    4    4    0    0 +1.5787620571e+00 -5.6939735002e+00 -4.7630582550e-01 5.9279584474e+00 5.1100000000e-04 0.0000e+00 1.0000e+00
       11  1    4    4    0    0 +1.3924812166e+01 +1.1216159368e+01 +2.3479483736e+01 2.9512519066e+01 5.1100000000e-04 0.0000e+00 -1.0000e+00
       12  1    4    4    0    0 -1.0180001592e+01 +8.1409463633e+00 -3.4650427862e+01 3.7021069557e+01 0.0000000000e+00 0.0000e+00 -1.0000e+00
      -12  1    3    3    0    0 -5.3235726311e+00 -1.3663132231e+01 +1.1647249951e+01 1.8726452930e+01 0.0000000000e+00 0.0000e+00 1.0000e+00
</event>
<event>
 9      4 +1.0086356e-04 9.11880000e+01 7.81616400e-03 1.18400000e-01
      -11 -1    0    0    0    0 +0.0000000000e+00 +0.0000000000e+00 +4.5593999997e+01 4.5594000000e+01 5.1100000000e-04 0.0000e+00 1.0000e+00
       11 -1    0    0    0    0 -0.0000000000e+00 -0.0000000000e+00 -4.5593999997e+01 4.5594000000e+01 5.1100000000e-04 0.0000e+00 -1.0000e+00
       23  2    1    2    0    0 +0.0000000000e+00 +0.0000000000e+00 -2.6645352591e-15 9.1188000000e+01 9.1188000000e+01 8.7244e-14 0.0000e+00
 -9990012  2    3    3    0    0 -5.0602981282e+00 -1.7475573181e+01 +4.4356780767e+00 7.2461614466e+01 7.0000057542e+01 7.9229e-06 0.0000e+00
      -24  2    4    4    0    0 +1.1766898926e+00 -2.2646301505e+01 +1.6383842622e+01 5.8025718677e+01 5.0836150110e+01 2.0549e-13 0.0000e+00
      -11  1    4    4    0    0 -6.2369880208e+00 +5.1707283235e+00 -1.1948164545e+01 1.4435895789e+01 5.1100000000e-04 0.0000e+00 1.0000e+00
       11  1    5    5    0    0 +1.3484439259e+01 -3.1122350228e+01 -2.4230136975e+00 3.4004437674e+01 5.1100000000e-04 0.0000e+00 -1.0000e+00
      -12  1    5    5    0    0 -1.2307749367e+01 +8.4760487231e+00 +1.8806856320e+01 2.4021281004e+01 0.0000000000e+00 0.0000e+00 1.0000e+00
       12  1    3    3    0    0 +5.0602981282e+00 +1.7475573181e+01 -4.4356780767e+00 1.8726385534e+01 0.0000000000e+00 0.0000e+00 -1.0000e+00
</event>
<event>
 9      4 +1.0086356e-04 9.11880000e+01 7.81616400e-03 1.18400000e-01
      -11 -1    0    0    0    0 +0.0000000000e+00 +0.0000000000e+00 +4.5593999997e+01 4.5594000000e+01 5.1100000000e-04 0.0000e+00 1.0000e+00
       11 -1    0    0    0    0 -0.0000000000e+00 -0.0000000000e+00 -4.5593999997e+01 4.5594000000e+01 5.1100000000e-04 0.0000e+00 -1.0000e+00
       23  2    1    2    0    0 +0.0000000000e+00 +3.5527136788e-15 -1.7763568394e-15 9.1188000000e+01 9.1188000000e+01 1.9207e-13 0.0000e+00
 -9990012  2    3    3    0    0 +1.9417239436e+00 -1.6659921834e+01 -8.3297456544e+00 7.2460801863e+01 6.9998998968e+01 4.1613e-05 0.0000e+00
      -24  2    4    4    0    0 +3.1084193009e+00 -1.4052020557e+01 -2.6497570990e+00 6.6102767782e+01 6.4462649212e+01 4.8066e-14 0.0000e+00
      -11  1    4    4    0    0 -1.1666953573e+00 -2.6079012771e+00 -5.6799885554e+00 6.3580340813e+00 5.1100000000e-04 0.0000e+00 1.0000e+00
       11  1    5    5    0    0 -2.5355129834e+00 -3.2915312849e+00 -3.3078119226e+01 3.3338040975e+01 5.1100000000e-04 0.0000e+00 -1.0000e+00
      -12  1    5    5    0    0 +5.6439322843e+00 -1.0760489272e+01 +3.0428362126e+01 3.2764726807e+01 0.0000000000e+00 0.0000e+00 1.0000e+00
       12  1    3    3    0    0 -1.9417239436e+00 +1.6659921834e+01 +8.3297456544e+00 1.8727198137e+01 0.0000000000e+00 0.0000e+00 -1.0000e+00
</event>
<event>
 8      3 +1.0086356e-04 9.11880000e+01 7.81616400e-03 1.18400000e-01
      -11 -1    0    0    0    0 +0.0000000000e+00 +0.0000000000e+00 +4.5593999997e+01 4.5594000000e+01 5.1100000000e-04 0.0000e+00 -1.0000e+00
       11 -1    0    0    0    0 -0.0000000000e+00 -0.0000000000e+00 -4.5593999997e+01 4.5594000000e+01 5.1100000000e-04 0.0000e+00 1.0000e+00
       23  2    1    2    0    0 +3.5527136788e-15 +1.7763568394e-15 -1.7763568394e-15 9.1188000000e+01 9.1188000000e+01 2.9744e-14 0.0000e+00
  9990012  2    3    3    0    0 -1.1520865939e+01 +1.1703753237e+01 +8.9984000939e+00 7.2461564245e+01 6.9999992120e+01 6.5893e-04 0.0000e+00
      -11  1    4    4    0    0 +6.3860395404e+00 +8.4087645319e+00 +7.9988250781e+00 1.3246509912e+01 5.1100000000e-04 0.0000e+00 1.0000e+00
       11  1    4    4    0    0 +1.3900124246e+01 -3.9646735124e+00 +1.7464927418e+01 2.2670592848e+01 5.1100000000e-04 0.0000e+00 -1.0000e+00
       12  1    4    4    0    0 -3.1807029725e+01 +7.2596622180e+00 -1.6465352402e+01 3.6544461485e+01 0.0000000000e+00 0.0000e+00 -1.0000e+00
      -12  1    3    3    0    0 +1.1520865939e+01 -1.1703753237e+01 -8.9984000939e+00 1.8726435755e+01 0.0000000000e+00 0.0000e+00 1.0000e+00
</event>
<event>
 9      4 +1.0086356e-04 9.11880000e+01 7.81616400e-03 1.18400000e-01
      -11 -1    0    0    0    0 +0.0000000000e+00 +0.0000000000e+00 +4.5593999997e+01 4.5594000000e+01 5.1100000000e-04 0.0000e+00 1.0000e+00
       11 -1    0    0    0    0 -0.0000000000e+00 -0.0000000000e+00 -4.5593999997e+01 4.5594000000e+01 5.1100000000e-04 0.0000e+00 -1.0000e+00
       23  2    1    2    0    0 +8.8817841970e-16 +0.0000000000e+00 +1.7763568394e-15 9.1188000000e+01 9.1188000000e+01 3.5307e-14 0.0000e+00
 -9990012  2    3    3    0    0 -5.6802214744e+00 +8.6321786177e+00 +1.5617257738e+01 7.2461597170e+01 7.0000035011e+01 1.1317e-03 0.0000e+00
      -24  2    4    4    0    0 +8.3599329343e-01 +7.0677775459e+00 +1.1992138063e+01 6.4842548769e+01 6.3325290298e+01 7.9964e-14 0.0000e+00
      -11  1    4    4    0    0 -6.5162147678e+00 +1.5644010718e+00 +3.6251196754e+00 7.6190484009e+00 5.1100000000e-04 0.0000e+00 1.0000e+00
       11  1    5    5    0    0 -2.6039393779e+01 +1.6555725826e+01 -5.5837424477e+00 3.1357937847e+01 5.1100000000e-04 0.0000e+00 -1.0000e+00
      -12  1    5    5    0    0 +2.6875387073e+01 -9.4879482802e+00 +1.7575880511e+01 3.3484610922e+01 0.0000000000e+00 0.0000e+00 1.0000e+00
       12  1    3    3    0    0 +5.6802214744e+00 -8.6321786177e+00 -1.5617257738e+01 1.8726402830e+01 0.0000000000e+00 0.0000e+00 -1.0000e+00
</event>
<event>
 9      4 +1.0086356e-04 9.11880000e+01 7.81616400e-03 1.18400000e-01
      -11 -1    0    0    0    0 +0.0000000000e+00 +0.0000000000e+00 +4.5593999997e+01 4.5594000000e+01 5.1100000000e-04 0.0000e+00 1.0000e+00
       11 -1    0    0    0    0 -0.0000000000e+00 -0.0000000000e+00 -4.5593999997e+01 4.5594000000e+01 5.1100000000e-04 0.0000e+00 -1.0000e+00
       23  2    1    2    0    0 -8.8817841970e-16 +3.5527136788e-15 -2.6645352591e-15 9.1188000000e+01 9.1188000000e+01 2.2312e-13 0.0000e+00
 -9990012  2    3    3    0    0 +7.0866532172e+00 -1.7106158862e+01 +2.8022852915e+00 7.2461170912e+01 6.9999479729e+01 2.4022e-04 0.0000e+00
      -24  2    4    4    0    0 +9.6243624572e+00 -2.2413723319e+01 +6.6355208722e+00 6.5439497043e+01 6.0359707506e+01 6.0977e-15 0.0000e+00
      -11  1    4    4    0    0 -2.5377092400e+00 +5.3075644573e+00 -3.8332355807e+00 7.0216738698e+00 5.1100000000e-04 0.0000e+00 1.0000e+00
       11  1    5    5    0    0 +1.1525366290e+01 -1.4423705245e+01 -2.5942781112e+01 3.1841878607e+01 5.1100000000e-04 0.0000e+00 -1.0000e+00
      -12  1    5    5    0    0 -1.9010038330e+00 -7.9900180740e+00 +3.2578301984e+01 3.3597618436e+01 0.0000000000e+00 0.0000e+00 1.0000e+00
       12  1    3    3    0    0 -7.0866532172e+00 +1.7106158862e+01 -2.8022852915e+00 1.8726829088e+01 0.0000000000e+00 0.0000e+00 -1.0000e+00
</event>
<event>
 9      4 +1.0086356e-04 9.11880000e+01 7.81616400e-03 1.18400000e-01
      -11 -1    0    0    0    0 +0.0000000000e+00 +0.0000000000e+00 +4.5593999997e+01 4.5594000000e+01 5.1100000000e-04 0.0000e+00 1.0000e+00
       11 -1    0    0    0    0 -0.0000000000e+00 -0.0000000000e+00 -4.5593999997e+01 4.5594000000e+01 5.1100000000e-04 0.0000e+00 -1.0000e+00
       23  2    1    2    0    0 -1.7763568394e-15 +0.0000000000e+00 +0.0000000000e+00 9.1188000000e+01 9.1188000000e+01 3.1675e-14 0.0000e+00
 -9990012  2    3    3    0    0 -4.0766704919e+00 -8.8124118783e+00 +1.6012511197e+01 7.2461591902e+01 7.0000028148e+01 7.4217e-05 0.0000e+00
      -24  2    4    4    0    0 -6.2878073034e+00 -1.0046980732e+00 +6.3311827146e-01 5.5072651512e+01 5.4699635894e+01 4.8619e-14 0.0000e+00
      -11  1    4    4    0    0 +2.2111368114e+00 -7.8077138051e+00 +1.5379392925e+01 1.7388940390e+01 5.1100000000e-04 0.0000e+00 1.0000e+00
       11  1    5    5    0    0 +1.1745337865e+01 -1.8474861149e+01 -1.4024780733e+01 2.5999383279e+01 5.1100000000e-04 0.0000e+00 -1.0000e+00
      -12  1    5    5    0    0 -1.8033145168e+01 +1.7470163076e+01 +1.4657899004e+01 2.9073268233e+01 0.0000000000e+00 0.0000e+00 1.0000e+00
       12  1    3    3    0    0 +4.0766704919e+00 +8.8124118783e+00 -1.6012511197e+01 1.8726408098e+01 0.0000000000e+00 0.0000e+00 -1.0000e+00
</event>
<event>
 9      4 +1.0086356e-04 9.11880000e+01 7.81616400e-03 1.18400000e-01
      -11 -1    0    0    0    0 +0.0000000000e+00 +0.0000000000e+00 +4.5593999997e+01 4.5594000000e+01 5.1100000000e-04 0.0000e+00 1.0000e+00
       11 -1    0    0    0    0 -0.0000000000e+00 -0.0000000000e+00 -4.5593999997e+01 4.5594000000e+01 5.1100000000e-04 0.0000e+00 -1.0000e+00
       23  2    1    2    0    0 +3.5527136788e-15 -1.7763568394e-15 +0.0000000000e+00 9.1188000000e+01 9.1188000000e+01 9.5437e-15 0.0000e+00
 -9990012  2    3    3    0    0 -1.7381988285e+01 -5.5496662593e+00 +4.2129845688e+00 7.2461506700e+01 6.9999917157e+01 1.8422e-04 0.0000e+00
      -24  2    4    4    0    0 -9.4517735648e+00 +1.0349276254e+01 +1.8762539455e+00 5.4541546075e+01 5.2676525862e+01 2.3540e-14 0.0000e+00
      -11  1    4    4    0    0 -7.9302147204e+00 -1.5898942513e+01 +2.3367306232e+00 1.7919960625e+01 5.1100000000e-04 0.0000e+00 1.0000e+00
       11  1    5    5    0    0 -4.0799371445e+00 -1.1123998265e+01 -2.0111246678e+01 2.3342053631e+01 5.1100000000e-04 0.0000e+00 -1.0000e+00
      -12  1    5    5    0    0 -5.3718364203e+00 +2.1473274519e+01 +2.1987500623e+01 3.1199492444e+01 0.0000000000e+00 0.0000e+00 1.0000e+00
       12  1    3    3    0    0 +1.7381988285e+01 +5.5496662593e+00 -4.2129845688e+00 1.8726493300e+01 0.0000000000e+00 0.0000e+00 -1.0000e+00
</event>
<event>
 8      3 +1.0086356e-04 9.11880000e+01 7.81616400e-03 1.18400000e-01
      -11 -1    0    0    0    0 +0.0000000000e+00 +0.0000000000e+00 +4.5593999997e+01 4.5594000000e+01 5.1100000000e-04 0.0000e+00 -1.0000e+00
       11 -1    0    0    0    0 -0.0000000000e+00 -0.0000000000e+00 -4.5593999997e+01 4.5594000000e+01 5.1100000000e-04 0.0000e+00 1.0000e+00
       23  2    1    2    0    0 +1.7763568394e-15 +0.0000000000e+00 -1.3322676296e-15 9.1188000000e+01 9.1188000000e+01 7.1609e-14 0.0000e+00
  9990012  2    3    3    0    0 +1.2605471644e+01 -1.3751686279e+01 -1.6266015108e+00 7.2462279096e+01 7.0000923340e+01 6.0897e-05 0.0000e+00
      -11  1    4    4    0    0 -1.1464292330e+01 -1.0912302744e+01 -2.0628336318e+00 1.5961316758e+01 5.1100000000e-04 0.0000e+00 1.0000e+00
       11  1    4    4    0    0 +9.0593206840e+00 -1.8223581127e+01 -1.8763140429e+01 2.7680781047e+01 5.1100000000e-04 0.0000e+00 -1.0000e+00
       12  1    4    4    0    0 +1.5010443290e+01 +1.5384197592e+01 +1.9199372550e+01 2.8820181291e+01 0.0000000000e+00 0.0000e+00 -1.0000e+00
      -12  1    3    3    0    0 -1.2605471644e+01 +1.3751686279e+01 +1.6266015108e+00 1.8725720904e+01 0.0000000000e+00 0.0000e+00 1.0000e+00
</event>
<event>
 9      3 +1.0086356e-04 9.11880000e+01 7.81616400e-03 1.18400000e-01
      -11 -1    0    0    0    0 +0.0000000000e+00 +0.0000000000e+00 +4.5593999997e+01 4.5594000000e+01 5.1100000000e-04 0.0000e+00 1.0000e+00
       11 -1    0    0    0    0 -0.0000000000e+00 -0.0000000000e+00 -4.5593999997e+01 4.5594000000e+01 5.1100000000e-04 0.0000e+00 -1.0000e+00
       23  2    1    2    0    0 +1.7763568394e-15 +0.0000000000e+00 +8.8817841970e-16 9.1188000000e+01 9.1188000000e+01 1.8201e-14 0.0000e+00
  9990012  2    3    3    0    0 -1.1077166985e+01 -1.4707694981e+01 -3.4145380857e+00 7.2461575077e+01 7.0000006230e+01 5.0811e-06 0.0000e+00
       24  2    4    4    0    0 -2.8443676528e+00 -2.2814434958e+01 -9.6205161326e+00 5.9346225990e+01 5.3859366305e+01 2.3052e-13 0.0000e+00
      -11  1    5    5    0    0 +1.9619924963e+01 +7.2265163033e+00 -5.4260907644e+00 2.1601075313e+01 5.1100000000e-04 0.0000e+00 1.0000e+00
       11  1    4    4    0    0 -8.2327993318e+00 +8.1067399767e+00 +6.2059780469e+00 1.3115349087e+01 5.1100000000e-04 0.0000e+00 -1.0000e+00
       12  1    5    5    0    0 -2.2464292616e+01 -3.0040951261e+01 -4.1944253682e+00 3.7745150677e+01 0.0000000000e+00 0.0000e+00 -1.0000e+00
      -12  1    3    3    0    0 +1.1077166985e+01 +1.4707694981e+01 +3.4145380857e+00 1.8726424923e+01 0.0000000000e+00 0.0000e+00 1.0000e+00
</event>
<event>
 9      4 +1.0086356e-04 9.11880000e+01 7.81616400e-03 1.18400000e-01
      -11 -1    0    0    0    0 +0.0000000000e+00 +0.0000000000e+00 +4.5593999997e+01 4.5594000000e+01 5.1100000000e-04 0.0000e+00 1.0000e+00
       11 -1    0    0    0    0 -0.0000000000e+00 -0.0000000000e+00 -4.5593999997e+01 4.5594000000e+01 5.1100000000e-04 0.0000e+00 -1.0000e+00
       23  2    1    2    0    0 -1.7763568394e-15 -1.4432899320e-15 +0.0000000000e+00 9.1188000000e+01 9.1188000000e+01 1.9207e-13 0.0000e+00
 -9990012  2    3    3    0    0 -9.5810677013e+00 +7.4225103721e-01 -1.6072646853e+01 7.2461607615e+01 7.0000048617e+01 1.1658e-04 0.0000e+00
      -24  2    4    4    0    0 -1.5257137317e+01 -4.4515928195e+00 -1.7339964317e+01 6.4664180212e+01 6.0234416426e+01 6.0160e-14 0.0000e+00
      -11  1    4    4    0    0 +5.6760696158e+00 +5.1938438567e+00 +1.2673174640e+00 7.7974274031e+00 5.1100000000e-04 0.0000e+00 1.0000e+00
       11  1    5    5    0    0 +1.4496244234e+01 +1.8540627805e+01 -7.0131200135e-01 2.3545441492e+01 5.1100000000e-04 0.0000e+00 -1.0000e+00
      -12  1    5    5    0    0 -2.9753381551e+01 -2.2992220624e+01 -1.6638652316e+01 4.1118738719e+01 0.0000000000e+00 0.0000e+00 1.0000e+00
       12  1    3    3    0    0 +9.5810677013e+00 -7.4225103721e-01 +1.6072646853e+01 1.8726392385e+01 0.0000000000e+00 0.0000e+00 -1.0000e+00
</event>
<event>
 8      3 +1.0086356e-04 9.11880000e+01 7.81616400e-03 1.18400000e-01
      -11 -1    0    0    0    0 +0.0000000000e+00 +0.0000000000e+00 +4.5593999997e+01 4.5594000000e+01 5.1100000000e-04 0.0000e+00 1.0000e+00
       11 -1    0    0    0    0 -0.0000000000e+00 -0.0000000000e+00 -4.5593999997e+01 4.5594000000e+01 5.1100000000e-04 0.0000e+00 -1.0000e+00
       23  2    1    2    0    0 -1.7763568394e-15 +0.0000000000e+00 +1.7763568394e-15 9.1188000000e+01 9.1188000000e+01 1.4480e-13 0.0000e+00
  9990012  2    3    3    0    0 -9.8203116135e+00 -1.5430185283e+01 -4.0188315481e+00 7.2461544247e+01 6.9999966068e+01 2.7936e-04 0.0000e+00
      -11  1    4    4    0    0 -2.4180327275e+00 -1.9379976557e+01 +1.1076817646e+01 2.2452756246e+01 5.1100000000e-04 0.0000e+00 1.0000e+00
       11  1    4    4    0    0 -4.1811254484e-01 -1.9833246709e+01 -1.5568003174e+01 2.5216962867e+01 5.1100000000e-04 0.0000e+00 -1.0000e+00
       12  1    4    4    0    0 -6.9841663411e+00 +2.3783037983e+01 +4.7235398000e-01 2.4791825134e+01 0.0000000000e+00 0.0000e+00 -1.0000e+00
      -12  1    3    3    0    0 +9.8203116135e+00 +1.5430185283e+01 +4.0188315481e+00 1.8726455753e+01 0.0000000000e+00 0.0000e+00 1.0000e+00
</event>
<event>
 8      3 +1.0086356e-04 9.11880000e+01 7.81616400e-03 1.18400000e-01
      -11 -1    0    0    0    0 +0.0000000000e+00 +0.0000000000e+00 +4.5593999997e+01 4.5594000000e+01 5.1100000000e-04 0.0000e+00 -1.0000e+00
       11 -1    0    0    0    0 -0.0000000000e+00 -0.0000000000e+00 -4.5593999997e+01 4.5594000000e+01 5.1100000000e-04 0.0000e+00 1.0000e+00
       23  2    1    2    0    0 +2.6645352591e-15 -3.5527136788e-15 +8.8817841970e-16 9.1188000000e+01 9.1188000000e+01 1.3438e-13 0.0000e+00
  9990012  2    3    3    0    0 +2.5555917134e+00 -1.7016450741e+01 +7.3884658440e+00 7.2461546188e+01 6.9999968597e+01 2.9851e-05 0.0000e+00
      -11  1    4    4    0    0 +2.4488190070e+01 +4.6378797590e-02 -3.4546859897e+00 2.4730718944e+01 5.1100000000e-04 0.0000e+00 1.0000e+00
       11  1    4    4    0    0 -1.3544683969e+01 -4.3256302043e+00 -1.3106334898e+01 1.9337671918e+01 5.1100000000e-04 0.0000e+00 -1.0000e+00
       12  1    4    4    0    0 -8.3879143882e+00 -1.2737199335e+01 +2.3949486732e+01 2.8393155327e+01 0.0000000000e+00 0.0000e+00 -1.0000e+00
      -12  1    3    3    0    0 -2.5555917134e+00 +1.7016450741e+01 -7.3884658440e+00 1.8726453812e+01 0.0000000000e+00 0.0000e+00 1.0000e+00
</event>
<event>
 9      3 +1.0086356e-04 9.11880000e+01 7.81616400e-03 1.18400000e-01
      -11 -1    0    0    0    0 +0.0000000000e+00 +0.0000000000e+00 +4.5593999997e+01 4.5594000000e+01 5.1100000000e-04 0.0000e+00 -1.0000e+00
       11 -1    0    0    0    0 -0.0000000000e+00 -0.0000000000e+00 -4.5593999997e+01 4.5594000000e+01 5.1100000000e-04 0.0000e+00 1.0000e+00
       23  2    1    2    0    0 +2.2204460493e-16 +0.0000000000e+00 -7.1054273576e-15 9.1188000000e+01 9.1188000000e+01 2.0389e-14 0.0000e+00
  9990012  2    3    3    0    0 -1.2221682152e+00 +5.9221768128e+00 +1.7723093457e+01 7.2461710591e+01 7.0000182762e+01 2.1329e-04 0.0000e+00
       24  2    4    4    0    0 -1.9192577745e+00 +9.1743947654e+00 +2.7364905610e+01 6.2262328388e+01 5.5135346263e+01 1.0940e-13 0.0000e+00
      -11  1    5    5    0    0 +2.0108947015e+01 +1.0946524264e-01 -6.2544767269e+00 2.1059444724e+01 5.1100000000e-04 0.0000e+00 1.0000e+00
       11  1    4    4    0    0 +6.9708955931e-01 -3.2522179526e+00 -9.6418121529e+00 1.0199382203e+01 5.1100000000e-04 0.0000e+00 -1.0000e+00
       12  1    5    5    0    0 -2.2028204790e+01 +9.0649295228e+00 +3.3619382337e+01 4.1202883664e+01 0.0000000000e+00 0.0000e+00 -1.0000e+00
      -12  1    3    3    0    0 +1.2221682152e+00 -5.9221768128e+00 -1.7723093457e+01 1.8726289409e+01 0.0000000000e+00 0.0000e+00 1.0000e+00
</event>
<event>
 9      4 +1.0086356e-04 9.11880000e+01 7.81616400e-03 1.18400000e-01
      -11 -1    0    0    0    0 +0.0000000000e+00 +0.0000000000e+00 +4.5593999997e+01 4.5594000000e+01 5.1100000000e-04 0.0000e+00 -1.0000e+00
       11 -1    0    0    0    0 -0.0000000000e+00 -0.0000000000e+00 -4.5593999997e+01 4.5594000000e+01 5.1100000000e-04 0.0000e+00 1.0000e+00
       23  2    1    2    0    0 +3.5527136788e-15 +0.0000000000e+00 +4.4408920985e-16 9.1188000000e+01 9.1188000000e+01 2.8598e-13 0.0000e+00
 -9990012  2    3    3    0    0 +1.8240647793e+01 +2.8863617146e+00 -3.1030699095e+00 7.2461511843e+01 6.9999923856e+01 6.6399e-05 0.0000e+00
      -24  2    4    4    0    0 +2.6205073664e+01 +1.0927835417e+01 -4.3960329451e+00 6.1069886303e+01 5.3889539195e+01 5.3629e-14 0.0000e+00
      -11  1    4    4    0    0 -7.9644258715e+00 -8.0414737027e+00 +1.2929630356e+00 1.1391625540e+01 5.1100000000e-04 0.0000e+00 1.0000e+00
       11  1    5    5    0    0 -1.4084672120e+01 +8.6361102521e+00 -1.1452462982e+01 2.0102718663e+01 5.1100000000e-04 0.0000e+00 -1.0000e+00
      -12  1    5    5    0    0 +4.0289745784e+01 +2.2917251652e+00 +7.0564300367e+00 4.0967167640e+01 0.0000000000e+00 0.0000e+00 1.0000e+00
       12  1    3    3    0    0 -1.8240647793e+01 -2.8863617146e+00 +3.1030699095e+00 1.8726488157e+01 0.0000000000e+00 0.0000e+00 -1.0000e+00
</event>
<event>
 8      4 +1.0086356e-04 9.11880000e+01 7.81616400e-03 1.18400000e-01
      -11 -1    0    0    0    0 +0.0000000000e+00 +0.0000000000e+00 +4.5593999997e+01 4.5594000000e+01 5.1100000000e-04 0.0000e+00 1.0000e+00
       11 -1    0    0    0    0 -0.0000000000e+00 -0.0000000000e+00 -4.5593999997e+01 4.5594000000e+01 5.1100000000e-04 0.0000e+00 -1.0000e+00
       23  2    1    2    0    0 +0.0000000000e+00 +2.2204460493e-15 +4.4408920985e-16 9.1188000000e+01 9.1188000000e+01 5.4097e-14 0.0000e+00
 -9990012  2    3    3    0    0 -1.8287655232e+01 +1.0567166245e+00 -3.8890778631e+00 7.2461550509e+01 6.9999974226e+01 1.8420e-04 0.0000e+00
      -11  1    4    4    0    0 -1.0329580194e+01 +2.6197809451e+01 -2.2281885808e+01 3.5909718495e+01 5.1100000000e-04 0.0000e+00 1.0000e+00
       11  1    4    4    0    0 +2.9336475578e+00 -1.1338327926e+01 +8.9443882455e-01 1.1745807304e+01 5.1100000000e-04 0.0000e+00 -1.0000e+00
      -12  1    4    4    0    0 -1.0891722596e+01 -1.3802764900e+01 +1.7498369121e+01 2.4806024709e+01 0.0000000000e+00 0.0000e+00 1.0000e+00
       12  1    3    3    0    0 +1.8287655232e+01 -1.0567166245e+00 +3.8890778631e+00 1.8726449491e+01 0.0000000000e+00 0.0000e+00 -1.0000e+00
</event>
<event>
 9      1 +1.0086356e-04 9.11880000e+01 7.81616400e-03 1.18400000e-01
      -11 -1    0    0    0    0 +0.0000000000e+00 +0.0000000000e+00 +4.5593999997e+01 4.5594000000e+01 5.1100000000e-04 0.0000e+00 1.0000e+00
       11 -1    0    0    0    0 -0.0000000000e+00 -0.0000000000e+00 -4.5593999997e+01 4.5594000000e+01 5.1100000000e-04 0.0000e+00 -1.0000e+00
       23  2    1    2    0    0 -2.6645352591e-15 -3.5527136788e-15 -1.7763568394e-15 9.1188000000e+01 9.1188000000e+01 5.4221e-15 0.0000e+00
  9990012  2    3    3    0    0 +7.3160848700e+00 +7.9944457335e+00 -1.5272267847e+01 7.2461590157e+01 7.0000025875e+01 2.4044e-04 0.0000e+00
       23  2    4    4    0    0 +1.0720049995e+01 +1.4690758284e+01 -1.9531580338e+01 6.3826237053e+01 5.7979031166e+01 3.6697e-14 0.0000e+00
      -11  1    5    5    0    0 +1.9046323335e-01 +3.6031183273e+01 -6.2366224933e+00 3.6567443234e+01 5.1100000000e-04 0.0000e+00 -1.0000e+00
       11  1    5    5    0    0 +1.0529586761e+01 -2.1340424989e+01 -1.3294957845e+01 2.7258793818e+01 5.1100000000e-04 0.0000e+00 1.0000e+00
       12  1    4    4    0    0 -3.4039651248e+00 -6.6963125505e+00 +4.2593124913e+00 8.6353531047e+00 0.0000000000e+00 0.0000e+00 -1.0000e+00
      -12  1    3    3    0    0 -7.3160848700e+00 -7.9944457335e+00 +1.5272267847e+01 1.8726409843e+01 0.0000000000e+00 0.0000e+00 1.0000e+00
</event>
<event>
 8      4 +1.0086356e-04 9.11880000e+01 7.81616400e-03 1.18400000e-01
      -11 -1    0    0    0    0 +0.0000000000e+00 +0.0000000000e+00 +4.5593999997e+01 4.5594000000e+01 5.1100000000e-04 0.0000e+00 -1.0000e+00
       11 -1    0    0    0    0 -0.0000000000e+00 -0.0000000000e+00 -4.5593999997e+01 4.5594000000e+01 5.1100000000e-04 0.0000e+00 1.0000e+00
       23  2    1    2    0    0 +3.5527136788e-15 +1.7763568394e-15 -3.5527136788e-15 9.1188000000e+01 9.1188000000e+01 3.0015e-14 0.0000e+00
 -9990012  2    3    3    0    0 +8.5507498624e+00 +3.4834256220e+00 -1.6292094770e+01 7.2461496609e+01 6.9999904011e+01 3.2455e-04 0.0000e+00
      -11  1    4    4    0    0 -6.1549260407e+00 -7.3983467835e+00 -2.5454593104e+01 2.7213139474e+01 5.1100000000e-04 0.0000e+00 1.0000e+00
       11  1    4    4    0    0 -7.8043857288e+00 -7.2624850029e+00 -6.3792319716e+00 1.2423635773e+01 5.1100000000e-04 0.0000e+00 -1.0000e+00
      -12  1    4    4    0    0 +2.2510061632e+01 +1.8144257408e+01 +1.5541730306e+01 3.2824721362e+01 0.0000000000e+00 0.0000e+00 1.0000e+00
       12  1    3    3    0    0 -8.5507498624e+00 -3.4834256220e+00 +1.6292094770e+01 1.8726503391e+01 0.0000000000e+00 0.0000e+00 -1.0000e+00
</event>
<event>
 8      4 +1.0086356e-04 9.11880000e+01 7.81616400e-03 1.18400000e-01
      -11 -1    0    0    0    0 +0.0000000000e+00 +0.0000000000e+00 +4.5593999997e+01 4.5594000000e+01 5.1100000000e-04 0.0000e+00 1.0000e+00
       11 -1    0    0    0    0 -0.0000000000e+00 -0.0000000000e+00 -4.5593999997e+01 4.5594000000e+01 5.1100000000e-04 0.0000e+00 -1.0000e+00
       23  2    1    2    0    0 +1.7763568394e-15 +0.0000000000e+00 +0.0000000000e+00 9.1188000000e+01 9.1188000000e+01 6.4207e-14 0.0000e+00
 -9990012  2    3    3    0    0 -1.0126180431e+01 +7.2066134208e+00 +1.4007278643e+01 7.2461583843e+01 7.0000017649e+01 4.4487e-04 0.0000e+00
      -11  1    4    4    0    0 -1.3724909112e+01 +2.0175130209e+01 +8.7476917682e+00 2.5921634219e+01 5.1100000000e-04 0.0000e+00 1.0000e+00
       11  1    4    4    0    0 -1.8915329216e+01 +2.2686247597e+00 +1.8180359915e+00 1.9137439556e+01 5.1100000000e-04 0.0000e+00 -1.0000e+00
      -12  1    4    4    0    0 +2.2514057896e+01 -1.5237141548e+01 +3.4415508829e+00 2.7402510067e+01 0.0000000000e+00 0.0000e+00 1.0000e+00
       12  1    3    3    0    0 +1.0126180431e+01 -7.2066134208e+00 -1.4007278643e+01 1.8726416157e+01 0.0000000000e+00 0.0000e+00 -1.0000e+00
</event>
<event>
 8      3 +1.0086356e-04 9.11880000e+01 7.81616400e-03 1.18400000e-01
      -11 -1    0    0    0    0 +0.0000000000e+00 +0.0000000000e+00 +4.5593999997e+01 4.5594000000e+01 5.1100000000e-04 0.0000e+00 1.0000e+00
       11 -1    0    0    0    0 -0.0000000000e+00 -0.0000000000e+00 -4.5593999997e+01 4.5594000000e+01 5.1100000000e-04 0.0000e+00 -1.0000e+00
       23  2    1    2    0    0 +8.8817841970e-16 +2.8865798640e-15 +0.0000000000e+00 9.1188000000e+01 9.1188000000e+01 1.6221e-13 0.0000e+00
  9990012  2    3    3    0    0 +4.9436945388e+00 -1.1330460104e+00 -1.8026493807e+01 7.2461591163e+01 7.0000027185e+01 1.1537e-04 0.0000e+00
      -11  1    4    4    0    0 +2.1943872719e+00 +1.8953422555e+01 -1.4337205658e+01 2.3866357669e+01 5.1100000000e-04 0.0000e+00 1.0000e+00
       11  1    4    4    0    0 +1.9281473335e+01 -2.0416981672e+01 +6.9537337283e+00 2.8930654462e+01 5.1100000000e-04 0.0000e+00 -1.0000e+00
       12  1    4    4    0    0 -1.6532166068e+01 +3.3051310666e-01 -1.0643021877e+01 1.9664579032e+01 0.0000000000e+00 0.0000e+00 -1.0000e+00
      -12  1    3    3    0    0 -4.9436945388e+00 +1.1330460104e+00 +1.8026493807e+01 1.8726408837e+01 0.0000000000e+00 0.0000e+00 1.0000e+00
</event>
<event>
 9      4 +1.0086356e-04 9.11880000e+01 7.81616400e-03 1.18400000e-01
      -11 -1    0    0    0    0 +0.0000000000e+00 +0.0000000000e+00 +4.5593999997e+01 4.5594000000e+01 5.1100000000e-04 0.0000e+00 -1.0000e+00
       11 -1    0    0    0    0 -0.0000000000e+00 -0.0000000000e+00 -4.5593999997e+01 4.5594000000e+01 5.1100000000e-04 0.0000e+00 1.0000e+00
       23  2    1    2    0    0 +9.9920072216e-16 +0.0000000000e+00 +1.7763568394e-15 9.1188000000e+01 9.1188000000e+01 2.4589e-13 0.0000e+00
 -9990012  2    3    3    0    0 -3.0604351366e-01 +1.4879049418e+01 -1.1366579480e+01 7.2461577403e+01 7.0000009260e+01 1.1570e-05 0.0000e+00
      -24  2    4    4    0    0 -1.0896343278e+01 +1.3701228876e+01 -2.9793718368e+00 5.8901084689e+01 5.6160547998e+01 1.8232e-14 0.0000e+00
      -11  1    4    4    0    0 +1.0590299765e+01 +1.1778205416e+00 -8.3872076428e+00 1.3560492714e+01 5.1100000000e-04 0.0000e+00 1.0000e+00
       11  1    5    5    0    0 +8.1158777810e+00 +3.1584499269e+00 +2.3253552608e+01 2.4830847494e+01 5.1100000000e-04 0.0000e+00 -1.0000e+00
      -12  1    5    5    0    0 -1.9012221059e+01 +1.0542778950e+01 -2.6232924445e+01 3.4070237195e+01 0.0000000000e+00 0.0000e+00 1.0000e+00
       12  1    3    3    0    0 +3.0604351366e-01 -1.4879049418e+01 +1.1366579480e+01 1.8726422597e+01 0.0000000000e+00 0.0000e+00 -1.0000e+00
</event>
<event>
 9      3 +1.0086356e-04 9.11880000e+01 7.81616400e-03 1.18400000e-01
      -11 -1    0    0    0    0 +0.0000000000e+00 +0.0000000000e+00 +4.5593999997e+01 4.5594000000e+01 5.1100000000e-04 0.0000e+00 1.0000e+00
       11 -1    0    0    0    0 -0.0000000000e+00 -0.0000000000e+00 -4.5593999997e+01 4.5594000000e+01 5.1100000000e-04 0.0000e+00 -1.0000e+00
       23  2    1    2    0    0 +1.7763568394e-15 -1.7763568394e-15 +0.0000000000e+00 9.1188000000e+01 9.1188000000e+01 1.2832e-13 0.0000e+00
  9990012  2    3    3    0    0 +6.7877344302e+00 -1.1962782348e+01 -1.2708161028e+01 7.2461578641e+01 7.0000010873e+01 9.3706e-05 0.0000e+00
       24  2    4    4    0    0 +5.4358692742e+00 -1.4134121297e+00 -1.3598921814e+01 6.1788706185e+01 6.0011391660e+01 9.1805e-14 0.0000e+00
      -11  1    5    5    0    0 +2.2258544170e+01 -2.1205218943e+01 +3.1160503526e+00 3.0900062606e+01 5.1100000000e-04 0.0000e+00 1.0000e+00
       11  1    4    4    0    0 +1.3518651559e+00 -1.0549370219e+01 +8.9076078586e-01 1.0672872455e+01 5.1100000000e-04 0.0000e+00 -1.0000e+00
       12  1    5    5    0    0 -1.6822674896e+01 +1.9791806814e+01 -1.6714972166e+01 3.0888643579e+01 0.0000000000e+00 0.0000e+00 -1.0000e+00
      -12  1    3    3    0    0 -6.7877344302e+00 +1.1962782348e+01 +1.2708161028e+01 1.8726421359e+01 0.0000000000e+00 0.0000e+00 1.0000e+00
</event>
<event>
 9      4 +1.0086356e-04 9.11880000e+01 7.81616400e-03 1.18400000e-01
      -11 -1    0    0    0    0 +0.0000000000e+00 +0.0000000000e+00 +4.5593999997e+01 4.5594000000e+01 5.1100000000e-04 0.0000e+00 -1.0000e+00
       11 -1    0    0    0    0 -0.0000000000e+00 -0.0000000000e+00 -4.5593999997e+01 4.5594000000e+01 5.1100000000e-04 0.0000e+00 1.0000e+00
       23  2    1    2    0    0 -1.7763568394e-15 +3.5527136788e-15 -8.8817841970e-16 9.1188000000e+01 9.1188000000e+01 2.1778e-14 0.0000e+00
 -9990012  2    3    3    0    0 +9.2440667877e+00 -1.6193031055e+01 +1.7354387601e+00 7.2461580875e+01 7.0000013784e+01 1.2313e-04 0.0000e+00
      -24  2    4    4    0    0 +8.2417492015e+00 -1.7730075470e+01 +9.9417232795e-03 6.9942754490e+01 6.7154350572e+01 1.1381e-13 0.0000e+00
      -11  1    4    4    0    0 +1.0023175863e+00 +1.5370444143e+00 +1.7254970368e+00 2.5188263855e+00 5.1100000000e-04 0.0000e+00 1.0000e+00
       11  1    5    5    0    0 +5.7736325388e+00 +1.1473087711e+01 +2.7127423784e+01 3.0014391477e+01 5.1100000000e-04 0.0000e+00 -1.0000e+00
      -12  1    5    5    0    0 +2.4681166627e+00 -2.9203163180e+01 -2.7117482061e+01 3.9928363013e+01 0.0000000000e+00 0.0000e+00 1.0000e+00
       12  1    3    3    0    0 -9.2440667877e+00 +1.6193031055e+01 -1.7354387601e+00 1.8726419125e+01 0.0000000000e+00 0.0000e+00 -1.0000e+00
</event>
<event>
 8      4 +1.0086356e-04 9.11880000e+01 7.81616400e-03 1.18400000e-01
      -11 -1    0    0    0    0 +0.0000000000e+00 +0.0000000000e+00 +4.5593999997e+01 4.5594000000e+01 5.1100000000e-04 0.0000e+00 1.0000e+00
       11 -1    0    0    0    0 -0.0000000000e+00 -0.0000000000e+00 -4.5593999997e+01 4.5594000000e+01 5.1100000000e-04 0.0000e+00 -1.0000e+00
       23  2    1    2    0    0 -8.8817841970e-16 +3.5527136788e-15 +0.0000000000e+00 9.1188000000e+01 9.1188000000e+01 9.0298e-14 0.0000e+00
 -9990012  2    3    3    0    0 +2.9367856934e+00 -1.5295867143e+01 +1.0396711915e+01 7.2461551311e+01 6.9999975270e+01 1.0912e-04 0.0000e+00
      -11  1    4    4    0    0 +1.6116522241e+01 -1.1035792964e+01 +2.8978665505e+01 3.4947018045e+01 5.1100000000e-04 0.0000e+00 1.0000e+00
       11  1    4    4    0    0 -6.8017625769e+00 +1.0363105269e+01 +7.8750318027e-01 1.2420873017e+01 5.1100000000e-04 0.0000e+00 -1.0000e+00
      -12  1    4    4    0    0 -6.3779739710e+00 -1.4623179448e+01 -1.9369456770e+01 2.5093660249e+01 0.0000000000e+00 0.0000e+00 1.0000e+00
       12  1    3    3    0    0 -2.9367856934e+00 +1.5295867143e+01 -1.0396711915e+01 1.8726448689e+01 0.0000000000e+00 0.0000e+00 -1.0000e+00
</event>
<event>
 9      2 +1.0086356e-04 9.11880000e+01 7.81616400e-03 1.18400000e-01
      -11 -1    0    0    0    0 +0.0000000000e+00 +0.0000000000e+00 +4.5593999997e+01 4.5594000000e+01 5.1100000000e-04 0.0000e+00 1.0000e+00
       11 -1    0    0    0    0 -0.0000000000e+00 -0.0000000000e+00 -4.5593999997e+01 4.5594000000e+01 5.1100000000e-04 0.0000e+00 -1.0000e+00
       23  2    1    2    0    0 +0.0000000000e+00 -2.4424906542e-15 -1.7763568394e-15 9.1188000000e+01 9.1188000000e+01 8.9515e-14 0.0000e+00
 -9990012  2    3    3    0    0 -9.8032504572e+00 +1.2222138198e+00 +1.5908427029e+01 7.2461666225e+01 7.0000124967e+01 2.1409e-04 0.0000e+00
       23  2    4    4    0    0 -2.6640189805e+00 +1.0128234811e+01 +8.5905375416e+00 5.8903003218e+01 5.7324412909e+01 6.9916e-15 0.0000e+00
      -11  1    5    5    0    0 +1.7794521132e+01 +5.6762415941e-01 -1.7108827486e+01 2.4691681954e+01 5.1100000000e-04 0.0000e+00 -1.0000e+00
       11  1    5    5    0    0 -2.0458540113e+01 +9.5606106513e+00 +2.5699365028e+01 3.4211321264e+01 5.1100000000e-04 0.0000e+00 1.0000e+00
      -12  1    4    4    0    0 -7.1392314767e+00 -8.9060209910e+00 +7.3178894869e+00 1.3558663006e+01 0.0000000000e+00 0.0000e+00 1.0000e+00
       12  1    3    3    0    0 +9.8032504572e+00 -1.2222138198e+00 -1.5908427029e+01 1.8726333775e+01 0.0000000000e+00 0.0000e+00 -1.0000e+00
</event>
<event>
 8      4 +1.0086356e-04 9.11880000e+01 7.81616400e-03 1.18400000e-01
      -11 -1    0    0    0    0 +0.0000000000e+00 +0.0000000000e+00 +4.5593999997e+01 4.5594000000e+01 5.1100000000e-04 0.0000e+00 1.0000e+00
       11 -1    0    0    0    0 -0.0000000000e+00 -0.0000000000e+00 -4.5593999997e+01 4.5594000000e+01 5.1100000000e-04 0.0000e+00 -1.0000e+00
       23  2    1    2    0    0 -3.5527136788e-15 -4.4408920985e-16 +0.0000000000e+00 9.1188000000e+01 9.1188000000e+01 2.9648e-14 0.0000e+00
 -9990012  2    3    3    0    0 -1.8414523191e+01 -1.6805095522e+00 -2.9597961701e+00 7.2461570279e+01 6.9999999980e+01 4.6588e-06 0.0000e+00
      -11  1    4    4    0    0 -5.8715555991e+00 +8.9326312067e+00 +1.5231576122e+01 1.8608277106e+01 5.1100000000e-04 0.0000e+00 1.0000e+00
       11  1    4    4    0    0 -2.1994012870e+01 +6.9988613510e+00 -2.3739251050e+01 3.3110009106e+01 5.1100000000e-04 0.0000e+00 -1.0000e+00
      -12  1    4    4    0    0 +9.4510452774e+00 -1.7612002110e+01 +5.5478787579e+00 2.0743284066e+01 0.0000000000e+00 0.0000e+00 1.0000e+00
       12  1    3    3    0    0 +1.8414523191e+01 +1.6805095522e+00 +2.9597961701e+00 1.8726429721e+01 0.0000000000e+00 0.0000e+00 -1.0000e+00
</event>
<event>
 9      3 +1.0086356e-04 9.11880000e+01 7.81616400e-03 1.18400000e-01
      -11 -1    0    0    0    0 +0.0000000000e+00 +0.0000000000e+00 +4.5593999997e+01 4.5594000000e+01 5.1100000000e-04 0.0000e+00 1.0000e+00
       11 -1    0    0    0    0 -0.0000000000e+00 -0.0000000000e+00 -4.5593999997e+01 4.5594000000e+01 5.1100000000e-04 0.0000e+00 -1.0000e+00
       23  2    1    2    0    0 +1.7763568394e-15 +1.7763568394e-15 -1.7763568394e-15 9.1188000000e+01 9.1188000000e+01 9.5415e-14 0.0000e+00
  9990012  2    3    3    0    0 -1.1604497583e+01 +5.2043039360e+00 +1.3745079378e+01 7.2461645557e+01 7.0000098043e+01 7.6369e-05 0.0000e+00
       24  2    4    4    0    0 -1.7693931436e+01 +1.7597882797e+01 +4.1689378992e+00 5.5657345883e+01 4.9574180971e+01 1.9590e-13 0.0000e+00
      -11  1    5    5    0    0 +9.0595364622e+00 -1.1388663001e+01 +6.9234061790e+00 1.6115532856e+01 5.1100000000e-04 0.0000e+00 1.0000e+00
       11  1    4    4    0    0 +6.0894338527e+00 -1.2393578861e+01 +9.5761414792e+00 1.6804299674e+01 5.1100000000e-04 0.0000e+00 -1.0000e+00
       12  1    5    5    0    0 -2.6753467898e+01 +2.8986545799e+01 -2.7544682798e+00 3.9541813026e+01 0.0000000000e+00 0.0000e+00 -1.0000e+00
      -12  1    3    3    0    0 +1.1604497583e+01 -5.2043039360e+00 -1.3745079378e+01 1.8726354443e+01 0.0000000000e+00 0.0000e+00 1.0000e+00
</event>
<event>
 9      4 +1.0086356e-04 9.11880000e+01 7.81616400e-03 1.18400000e-01
      -11 -1    0    0    0    0 +0.0000000000e+00 +0.0000000000e+00 +4.5593999997e+01 4.5594000000e+01 5.1100000000e-04 0.0000e+00 -1.0000e+00
       11 -1    0    0    0    0 -0.0000000000e+00 -0.0000000000e+00 -4.5593999997e+01 4.5594000000e+01 5.1100000000e-04 0.0000e+00 1.0000e+00
       23  2    1    2    0    0 +0.0000000000e+00 +0.0000000000e+00 -1.7763568394e-15 9.1188000000e+01 9.1188000000e+01 1.5741e-13 0.0000e+00
 -9990012  2    3    3    0    0 +1.4744919469e+01 +1.1157153805e+01 +2.9641176975e+00 7.2461528765e+01 6.9999945901e+01 3.4743e-04 0.0000e+00
      -24  2    4    4    0    0 +1.9037410232e+01 +1.1887273258e+01 +3.2289492719e+00 6.8099340394e+01 6.4213423790e+01 1.7040e-13 0.0000e+00
      -11  1    4    4    0    0 -4.2924907633e+00 -7.3011945260e-01 -2.6483157441e-01 4.3621883719e+00 5.1100000000e-04 0.0000e+00 1.0000e+00
       11  1    5    5    0    0 -1.6765648868e+01 +9.7232227113e+00 +2.0567217579e+01 2.8260192516e+01 5.1100000000e-04 0.0000e+00 -1.0000e+00
      -12  1    5    5    0    0 +3.5803059100e+01 +2.1640505462e+00 -1.7338268307e+01 3.9839147877e+01 0.0000000000e+00 0.0000e+00 1.0000e+00
       12  1    3    3    0    0 -1.4744919469e+01 -1.1157153805e+01 -2.9641176975e+00 1.8726471235e+01 0.0000000000e+00 0.0000e+00 -1.0000e+00
</event>
<event>
 9      3 +1.0086356e-04 9.11880000e+01 7.81616400e-03 1.18400000e-01
      -11 -1    0    0    0    0 +0.0000000000e+00 +0.0000000000e+00 +4.5593999997e+01 4.5594000000e+01 5.1100000000e-04 0.0000e+00 1.0000e+00
       11 -1    0    0    0    0 -0.0000000000e+00 -0.0000000000e+00 -4.5593999997e+01 4.5594000000e+01 5.1100000000e-04 0.0000e+00 -1.0000e+00
       23  2    1    2    0    0 -1.7763568394e-15 +3.5527136788e-15 +0.0000000000e+00 9.1188000000e+01 9.1188000000e+01 1.3199e-13 0.0000e+00
  9990012  2    3    3    0    0 -1.2503656653e+01 +7.5729786080e+00 -1.1704008453e+01 7.2461674985e+01 7.0000136379e+01 1.7211e-04 0.0000e+00
       24  2    4    4    0    0 -1.4359956086e+01 +1.7482447199e+01 -8.1740416019e-01 5.7623832533e+01 5.2990505068e+01 4.7465e-14 0.0000e+00
      -11  1    5    5    0    0 -2.7956719980e+01 -6.5986707049e+00 -6.3570406287e+00 2.9419935637e+01 5.1100000000e-04 0.0000e+00 1.0000e+00
       11  1    4    4    0    0 +1.8562994335e+00 -9.9094685913e+00 -1.0886604293e+01 1.4837842452e+01 5.1100000000e-04 0.0000e+00 -1.0000e+00
       12  1    5    5    0    0 +1.3596763893e+01 +2.4081117904e+01 +5.5396364685e+00 2.8203896895e+01 0.0000000000e+00 0.0000e+00 -1.0000e+00
      -12  1    3    3    0    0 +1.2503656653e+01 -7.5729786080e+00 +1.1704008453e+01 1.8726325015e+01 0.0000000000e+00 0.0000e+00 1.0000e+00
</event>
<event>
 8      4 +1.0086356e-04 9.11880000e+01 7.81616400e-03 1.18400000e-01
      -11 -1    0    0    0    0 +0.0000000000e+00 +0.0000000000e+00 +4.5593999997e+01 4.5594000000e+01 5.1100000000e-04 0.0000e+00 -1.0000e+00
       11 -1    0    0    0    0 -0.0000000000e+00 -0.0000000000e+00 -4.5593999997e+01 4.5594000000e+01 5.1100000000e-04 0.0000e+00 1.0000e+00
       23  2    1    2    0    0 +0.0000000000e+00 -2.6645352591e-15 +0.0000000000e+00 9.1188000000e+01 9.1188000000e+01 1.9354e-14 0.0000e+00
 -9990012  2    3    3    0    0 +9.4506887271e+00 +4.8789788180e+00 -1.5412940735e+01 7.2461582996e+01 7.0000016546e+01 2.7397e-04 0.0000e+00
      -11  1    4    4    0    0 +1.0618726233e+01 +2.6199677432e+01 -1.9123712065e+01 3.4130584638e+01 5.1100000000e-04 0.0000e+00 1.0000e+00
       11  1    4    4    0    0 -1.1845214437e+01 +1.0035572764e+00 +6.2927483881e+00 1.3450461509e+01 5.1100000000e-04 0.0000e+00 -1.0000e+00
      -12  1    4    4    0    0 +1.0677176932e+01 -2.2324255891e+01 -2.5819770585e+00 2.4880536848e+01 0.0000000000e+00 0.0000e+00 1.0000e+00
       12  1    3    3    0    0 -9.4506887271e+00 -4.8789788180e+00 +1.5412940735e+01 1.8726417004e+01 0.0000000000e+00 0.0000e+00 -1.0000e+00
</event>
<event>
 8      3 +1.0086356e-04 9.11880000e+01 7.81616400e-03 1.18400000e-01
      -11 -1    0    0    0    0 +0.0000000000e+00 +0.0000000000e+00 +4.5593999997e+01 4.5594000000e+01 5.1100000000e-04 0.0000e+00 1.0000e+00
       11 -1    0    0    0    0 -0.0000000000e+00 -0.0000000000e+00 -4.5593999997e+01 4.5594000000e+01 5.1100000000e-04 0.0000e+00 -1.0000e+00
       23  2    1    2    0    0 +0.0000000000e+00 +0.0000000000e+00 -1.7763568394e-15 9.1188000000e+01 9.1188000000e+01 4.6845e-14 0.0000e+00
  9990012  2    3    3    0    0 +1.0191802146e+01 -1.4998632064e+01 -4.6740933822e+00 7.2461576323e+01 7.0000007853e+01 2.2358e-04 0.0000e+00
      -11  1    4    4    0    0 -1.0528833827e+01 -8.3351456863e+00 -1.1295397523e+01 1.7547563957e+01 5.1100000000e-04 0.0000e+00 1.0000e+00
       11  1    4    4    0    0 +1.0016892809e+01 +2.7028218005e-01 +2.8156135663e+01 2.9886103288e+01 5.1100000000e-04 0.0000e+00 -1.0000e+00
       12  1    4    4    0    0 +1.0703743163e+01 -6.9337685583e+00 -2.1534831522e+01 2.5027909078e+01 0.0000000000e+00 0.0000e+00 -1.0000e+00
      -12  1    3    3    0    0 -1.0191802146e+01 +1.4998632064e+01 +4.6740933822e+00 1.8726423677e+01 0.0000000000e+00 0.0000e+00 1.0000e+00
</event>
<event>
 9      3 +1.0086356e-04 9.11880000e+01 7.81616400e-03 1.18400000e-01
      -11 -1    0    0    0    0 +0.0000000000e+00 +0.0000000000e+00 +4.5593999997e+01 4.5594000000e+01 5.1100000000e-04 0.0000e+00 -1.0000e+00
       11 -1    0    0    0    0 -0.0000000000e+00 -0.0000000000e+00 -4.5593999997e+01 4.5594000000e+01 5.1100000000e-04 0.0000e+00 1.0000e+00
       23  2    1    2    0    0 +0.0000000000e+00 +1.7763568394e-15 -5.3290705182e-15 9.1188000000e+01 9.1188000000e+01 4.4970e-14 0.0000e+00
  9990012  2    3    3    0    0 -3.2850374492e+00 +1.2033022852e+01 +1.3967597717e+01 7.2461577598e+01 7.0000009514e+01 9.5108e-04 0.0000e+00
       24  2    4    4    0    0 +4.8464042851e+00 +9.9839018468e+00 +1.4483386272e+01 6.4060072991e+01 6.1406502449e+01 9.3139e-14 0.0000e+00
      -11  1    5    5    0    0 +4.3235070631e+00 +1.6851676033e+01 -2.1367052800e+01 2.7553995066e+01 5.1100000000e-04 0.0000e+00 1.0000e+00
       11  1    4    4    0    0 -8.1314417344e+00 +2.0491210049e+00 -5.1578855497e-01 8.4015046073e+00 5.1100000000e-04 0.0000e+00 -1.0000e+00
       12  1    5    5    0    0 +5.2289722204e-01 -6.8677741861e+00 +3.5850439072e+01 3.6506077925e+01 0.0000000000e+00 0.0000e+00 -1.0000e+00
      -12  1    3    3    0    0 +3.2850374492e+00 -1.2033022852e+01 -1.3967597717e+01 1.8726422402e+01 0.0000000000e+00 0.0000e+00 1.0000e+00
</event>
<event>
 8      4 +1.0086356e-04 9.11880000e+01 7.81616400e-03 1.18400000e-01
      -11 -1    0    0    0    0 +0.0000000000e+00 +0.0000000000e+00 +4.5593999997e+01 4.5594000000e+01 5.1100000000e-04 0.0000e+00 1.0000e+00
       11 -1    0    0    0    0 -0.0000000000e+00 -0.0000000000e+00 -4.5593999997e+01 4.5594000000e+01 5.1100000000e-04 0.0000e+00 -1.0000e+00
       23  2    1    2    0    0 +0.0000000000e+00 +8.8817841970e-16 +3.5527136788e-15 9.1188000000e+01 9.1188000000e+01 6.9435e-14 0.0000e+00
 -9990012  2    3    3    0    0 -7.8294533665e+00 +5.5663702946e+00 +1.6074626760e+01 7.2461589673e+01 7.0000025244e+01 8.7009e-05 0.0000e+00
      -11  1    4    4    0    0 -1.1695629828e+01 +1.1458684589e+01 +3.9288518095e+01 4.2563797574e+01 5.1100000000e-04 0.0000e+00 1.0000e+00
       11  1    4    4    0    0 +7.5420712163e+00 -2.6193678251e-01 -2.1742024927e+01 2.3014497546e+01 5.1100000000e-04 0.0000e+00 -1.0000e+00
      -12  1    4    4    0    0 -3.6758947544e+00 -5.6303775122e+00 -1.4718664081e+00 6.8832945526e+00 0.0000000000e+00 0.0000e+00 1.0000e+00
       12  1    3    3    0    0 +7.8294533665e+00 -5.5663702946e+00 -1.6074626760e+01 1.8726410327e+01 0.0000000000e+00 0.0000e+00 -1.0000e+00
</event>
<event>
 8      3 +1.0086356e-04 9.11880000e+01 7.81616400e-03 1.18400000e-01
      -11 -1    0    0    0    0 +0.0000000000e+00 +0.0000000000e+00 +4.5593999997e+01 4.5594000000e+01 5.1100000000e-04 0.0000e+00 1.0000e+00
       11 -1    0    0    0    0 -0.0000000000e+00 -0.0000000000e+00 -4.5593999997e+01 4.5594000000e+01 5.1100000000e-04 0.0000e+00 -1.0000e+00
       23  2    1    2    0    0 -1.2316536679e-15 +0.0000000000e+00 +0.0000000000e+00 9.1188000000e+01 9.1188000000e+01 1.4924e-13 0.0000e+00
  9990012  2    3    3    0    0 -1.9636718037e-02 +5.9362420495e+00 -1.7760564012e+01 7.2461628507e+01 7.0000075833e+01 2.9279e-04 0.0000e+00
      -11  1    4    4    0    0 +1.9242622534e+01 -1.3205711450e+01 -8.5130187470e+00 2.4842319243e+01 5.1100000000e-04 0.0000e+00 1.0000e+00
       11  1    4    4    0    0 -1.2727225907e+00 +1.7117686879e+01 -2.0163170067e+01 2.6479963261e+01 5.1100000000e-04 0.0000e+00 -1.0000e+00
       12  1    4    4    0    0 -1.7989536662e+01 +2.0242666204e+00 +1.0915624802e+01 2.1139346004e+01 0.0000000000e+00 0.0000e+00 -1.0000e+00
      -12  1    3    3    0    0 +1.9636718037e-02 -5.9362420495e+00 +1.7760564012e+01 1.8726371493e+01 0.0000000000e+00 0.0000e+00 1.0000e+00
</event>
<event>
 9      4 +1.0086356e-04 9.11880000e+01 7.81616400e-03 1.18400000e-01
      -11 -1    0    0    0    0 +0.0000000000e+00 +0.0000000000e+00 +4.5593999997e+01 4.5594000000e+01 5.1100000000e-04 0.0000e+00 1.0000e+00
       11 -1    0    0    0    0 -0.0000000000e+00 -0.0000000000e+00 -4.5593999997e+01 4.5594000000e+01 5.1100000000e-04 0.0000e+00 -1.0000e+00
       23  2    1    2    0    0 -1.7763568394e-15 +0.0000000000e+00 -8.8817841970e-16 9.1188000000e+01 9.1188000000e+01 5.2158e-14 0.0000e+00
 -9990012  2    3    3    0    0 -4.2880642589e+00 -1.7552299661e+01 -4.9202205274e+00 7.2461567117e+01 6.9999995861e+01 2.6373e-04 0.0000e+00
      -24  2    4    4    0    0 +4.1899217176e+00 +4.2904154093e-01 +6.4837491389e+00 4.9543115990e+01 4.8936099338e+01 1.2554e-13 0.0000e+00
      -11  1    4    4    0    0 -8.4779859765e+00 -1.7981341202e+01 -1.1403969666e+01 2.2918451127e+01 5.1100000000e-04 0.0000e+00 1.0000e+00
       11  1    5    5    0    0 +3.3305073728e+00 -1.7898185752e+01 -1.3311415154e+01 2.2552851399e+01 5.1100000000e-04 0.0000e+00 -1.0000e+00
      -12  1    5    5    0    0 +8.5941434480e-01 +1.8327227293e+01 +1.9795164293e+01 2.6990264590e+01 0.0000000000e+00 0.0000e+00 1.0000e+00
       12  1    3    3    0    0 +4.2880642589e+00 +1.7552299661e+01 +4.9202205274e+00 1.8726432883e+01 0.0000000000e+00 0.0000e+00 -1.0000e+00
</event>
<event>
 8      3 +1.0086356e-04 9.11880000e+01 7.81616400e-03 1.18400000e-01
      -11 -1    0    0    0    0 +0.0000000000e+00 +0.0000000000e+00 +4.5593999997e+01 4.5594000000e+01 5.1100000000e-04 0.0000e+00 1.0000e+00
       11 -1    0    0    0    0 -0.0000000000e+00 -0.0000000000e+00 -4.5593999997e+01 4.5594000000e+01 5.1100000000e-04 0.0000e+00 -1.0000e+00
       23  2    1    2    0    0 +1.7763568394e-15 +0.0000000000e+00 -2.6645352591e-15 9.1188000000e+01 9.1188000000e+01 9.0445e-14 0.0000e+00
  9990012  2    3    3    0    0 -1.0010117772e+01 -1.4465129984e+01 -6.4206658747e+00 7.2461884719e+01 7.0000409595e+01 2.4822e-05 0.0000e+00
      -11  1    4    4    0    0 +1.6509062208e+00 +8.6754747550e-01 -2.2332716308e+01 2.2410451757e+01 5.1100000000e-04 0.0000e+00 -1.0000e+00
       11  1    4    4    0    0 -2.6612063661e+01 -1.7443192823e+01 +1.4238363534e+01 3.4859688819e+01 5.1100000000e-04 0.0000e+00 1.0000e+00
       12  1    4    4    0    0 +1.4951039669e+01 +2.1105153641e+00 +1.6736868999e+00 1.5191744143e+01 0.0000000000e+00 0.0000e+00 -1.0000e+00
      -12  1    3    3    0    0 +1.0010117772e+01 +1.4465129984e+01 +6.4206658747e+00 1.8726115281e+01 0.0000000000e+00 0.0000e+00 1.0000e+00
</event>
<event>
 9      4 +1.0086356e-04 9.11880000e+01 7.81616400e-03 1.18400000e-01
      -11 -1    0    0    0    0 +0.0000000000e+00 +0.0000000000e+00 +4.5593999997e+01 4.5594000000e+01 5.1100000000e-04 0.0000e+00 -1.0000e+00
       11 -1    0    0    0    0 -0.0000000000e+00 -0.0000000000e+00 -4.5593999997e+01 4.5594000000e+01 5.1100000000e-04 0.0000e+00 1.0000e+00
       23  2    1    2    0    0 +0.0000000000e+00 +8.8817841970e-16 +0.0000000000e+00 9.1188000000e+01 9.1188000000e+01 2.6274e-14 0.0000e+00
 -9990012  2    3    3    0    0 +9.1577644055e+00 +5.7080011977e+00 -1.5304689874e+01 7.2461562573e+01 6.9999989941e+01 7.1441e-04 0.0000e+00
      -24  2    4    4    0    0 +4.6205780809e+00 +1.5697630720e+00 -2.4806827077e+01 6.1147779553e+01 5.5676371800e+01 8.0145e-14 0.0000e+00
      -11  1    4    4    0    0 +4.5371863245e+00 +4.1382381257e+00 +9.5021372029e+00 1.1313783020e+01 5.1100000000e-04 0.0000e+00 1.0000e+00
       11  1    5    5    0    0 +6.9648138943e+00 +1.6001836190e+01 +1.2242491119e+01 2.1317738695e+01 5.1100000000e-04 0.0000e+00 -1.0000e+00
      -12  1    5    5    0    0 -2.3442358133e+00 -1.4432073118e+01 -3.7049318195e+01 3.9830040858e+01 0.0000000000e+00 0.0000e+00 1.0000e+00
       12  1    3    3    0    0 -9.1577644055e+00 -5.7080011977e+00 +1.5304689874e+01 1.8726437427e+01 0.0000000000e+00 0.0000e+00 -1.0000e+00
</event>
<event>
 8      4 +1.0086356e-04 9.11880000e+01 7.81616400e-03 1.18400000e-01
      -11 -1    0    0    0    0 +0.0000000000e+00 +0.0000000000e+00 +4.5593999997e+01 4.5594000000e+01 5.1100000000e-04 0.0000e+00 1.0000e+00
       11 -1    0    0    0    0 -0.0000000000e+00 -0.0000000000e+00 -4.5593999997e+01 4.5594000000e+01 5.1100000000e-04 0.0000e+00 -1.0000e+00
       23  2    1    2    0    0 -1.7763568394e-15 +8.8817841970e-16 +1.7763568394e-15 9.1188000000e+01 9.1188000000e+01 3.7746e-14 0.0000e+00
 -9990012  2    3    3    0    0 -1.1919715499e+01 +2.1228562507e+00 +1.4286126765e+01 7.2461560023e+01 6.9999986620e+01 1.7173e-05 0.0000e+00
      -11  1    4    4    0    0 -2.6179635720e+01 +4.3900266033e+00 +8.9009810136e+00 2.7997734252e+01 5.1100000000e-04 0.0000e+00 1.0000e+00
       11  1    4    4    0    0 +7.8024802337e+00 -2.1966841550e+01 +1.4011892387e+00 2.3353461350e+01 5.1100000000e-04 0.0000e+00 -1.0000e+00
      -12  1    4    4    0    0 +6.4574399865e+00 +1.9699671198e+01 +3.9839565129e+00 2.1110364421e+01 0.0000000000e+00 0.0000e+00 1.0000e+00
       12  1    3    3    0    0 +1.1919715499e+01 -2.1228562507e+00 -1.4286126765e+01 1.8726439977e+01 0.0000000000e+00 0.0000e+00 -1.0000e+00
</event>
<event>
 9      3 +1.0086356e-04 9.11880000e+01 7.81616400e-03 1.18400000e-01
      -11 -1    0    0    0    0 +0.0000000000e+00 +0.0000000000e+00 +4.5593999997e+01 4.5594000000e+01 5.1100000000e-04 0.0000e+00 -1.0000e+00
       11 -1    0    0    0    0 -0.0000000000e+00 -0.0000000000e+00 -4.5593999997e+01 4.5594000000e+01 5.1100000000e-04 0.0000e+00 1.0000e+00
       23  2    1    2    0    0 +0.0000000000e+00 +1.7763568394e-15 +1.7763568394e-15 9.1188000000e+01 9.1188000000e+01 1.4853e-14 0.0000e+00
  9990012  2    3    3    0    0 +9.7980849400e+00 -1.4123546446e+01 +7.4303110888e+00 7.2461373086e+01 6.9999743099e+01 5.4962e-05 0.0000e+00
       24  2    4    4    0    0 +1.4735292736e+01 -3.6564241292e+00 +1.7054153898e+01 5.7409628300e+01 5.2673740772e+01 1.4639e-13 0.0000e+00
      -11  1    5    5    0    0 +9.1368871029e+00 +2.2675071394e+01 -1.8475201781e+00 2.4516421022e+01 5.1100000000e-04 0.0000e+00 1.0000e+00
       11  1    4    4    0    0 -4.9372077965e+00 -1.0467122317e+01 -9.6238428095e+00 1.5051744786e+01 5.1100000000e-04 0.0000e+00 -1.0000e+00
       12  1    5    5    0    0 +5.5984056336e+00 -2.6331495523e+01 +1.8901674076e+01 3.2893207278e+01 0.0000000000e+00 0.0000e+00 -1.0000e+00
      -12  1    3    3    0    0 -9.7980849400e+00 +1.4123546446e+01 -7.4303110888e+00 1.8726626914e+01 0.0000000000e+00 0.0000e+00 1.0000e+00
</event>
<event>
 8      4 +1.0086356e-04 9.11880000e+01 7.81616400e-03 1.18400000e-01
      -11 -1    0    0    0    0 +0.0000000000e+00 +0.0000000000e+00 +4.5593999997e+01 4.5594000000e+01 5.1100000000e-04 0.0000e+00 1.0000e+00
       11 -1    0    0    0    0 -0.0000000000e+00 -0.0000000000e+00 -4.5593999997e+01 4.5594000000e+01 5.1100000000e-04 0.0000e+00 -1.0000e+00
       23  2    1    2    0    0 -3.0531133177e-16 -1.1102230246e-15 +0.0000000000e+00 9.1188000000e+01 9.1188000000e+01 9.8563e-15 0.0000e+00
 -9990012  2    3    3    0    0 -2.1094517429e-01 +6.0284358807e-01 +1.8715256414e+01 7.2461848743e+01 7.0000362730e+01 6.0663e-04 0.0000e+00
      -11  1    4    4    0    0 +2.0342176725e+00 +1.8263570098e+01 -4.3168647582e+00 1.8876741135e+01 5.1100000000e-04 0.0000e+00 1.0000e+00
       11  1    4    4    0    0 +8.4516663995e+00 -2.0407273112e+01 -5.6930936041e+00 2.2810058655e+01 5.1100000000e-04 0.0000e+00 -1.0000e+00
      -12  1    4    4    0    0 -1.0696829246e+01 +2.7465466013e+00 +2.8725214776e+01 3.0775048953e+01 0.0000000000e+00 0.0000e+00 1.0000e+00
       12  1    3    3    0    0 +2.1094517429e-01 -6.0284358807e-01 -1.8715256414e+01 1.8726151257e+01 0.0000000000e+00 0.0000e+00 -1.0000e+00
</event>
<event>
 9      4 +1.0086356e-04 9.11880000e+01 7.81616400e-03 1.18400000e-01
      -11 -1    0    0    0    0 +0.0000000000e+00 +0.0000000000e+00 +4.5593999997e+01 4.5594000000e+01 5.1100000000e-04 0.0000e+00 1.0000e+00
       11 -1    0    0    0    0 -0.0000000000e+00 -0.0000000000e+00 -4.5593999997e+01 4.5594000000e+01 5.1100000000e-04 0.0000e+00 -1.0000e+00
       23  2    1    2    0    0 -2.2204460493e-16 -1.3322676296e-15 +3.5527136788e-15 9.1188000000e+01 9.1188000000e+01 3.1112e-14 0.0000e+00
 -9990012  2    3    3    0    0 +4.7871218870e-01 +2.1508401168e+00 +1.8596337821e+01 7.2461573247e+01 7.0000003847e+01 6.2356e-04 0.0000e+00
      -24  2    4    4    0    0 -2.4938682687e-01 +2.9835680871e+00 +2.5262689776e+01 6.5704072770e+01 6.0579351363e+01 1.9343e-13 0.0000e+00
      -11  1    4    4    0    0 +7.2809901557e-01 -8.3272797032e-01 -6.6663519548e+00 6.7575004769e+00 5.1100000000e-04 0.0000e+00 1.0000e+00
       11  1    5    5    0    0 +5.5801964132e+00 -1.1504601490e+01 -1.6640255323e+01 2.0985531800e+01 5.1100000000e-04 0.0000e+00 -1.0000e+00
      -12  1    5    5    0    0 -5.8295832401e+00 +1.4488169577e+01 +4.1902945100e+01 4.4718540970e+01 0.0000000000e+00 0.0000e+00 1.0000e+00
       12  1    3    3    0    0 -4.7871218870e-01 -2.1508401168e+00 -1.8596337821e+01 1.8726426753e+01 0.0000000000e+00 0.0000e+00 -1.0000e+00
</event>
<event>
 9      3 +1.0086356e-04 9.11880000e+01 7.81616400e-03 1.18400000e-01
      -11 -1    0    0    0    0 +0.0000000000e+00 +0.0000000000e+00 +4.5593999997e+01 4.5594000000e+01 5.1100000000e-04 0.0000e+00 1.0000e+00
       11 -1    0    0    0    0 -0.0000000000e+00 -0.0000000000e+00 -4.5593999997e+01 4.5594000000e+01 5.1100000000e-04 0.0000e+00 -1.0000e+00
       23  2    1    2    0    0 +1.7763568394e-15 +0.0000000000e+00 +0.0000000000e+00 9.1188000000e+01 9.1188000000e+01 1.2118e-14 0.0000e+00
  9990012  2    3    3    0    0 +1.4389186359e+01 -3.3903637764e+00 +1.1495039637e+01 7.2461569831e+01 6.9999999397e+01 1.5472e-03 0.0000e+00
       24  2    4    4    0    0 +1.8138965763e+01 -5.0159418095e+00 +1.3217673267e+01 6.8026390421e+01 6.4021099303e+01 6.5161e-14 0.0000e+00
      -11  1    5    5    0    0 +2.4897778917e+01 +2.2246019359e+01 -6.0949280421e+00 3.3940137307e+01 5.1100000000e-04 0.0000e+00 1.0000e+00
       11  1    4    4    0    0 -3.7497794039e+00 +1.6255780331e+00 -1.7226336300e+00 4.4351794105e+00 5.1100000000e-04 0.0000e+00 -1.0000e+00
       12  1    5    5    0    0 -6.7588131537e+00 -2.7261961169e+01 +1.9312601309e+01 3.4086253114e+01 0.0000000000e+00 0.0000e+00 -1.0000e+00
      -12  1    3    3    0    0 -1.4389186359e+01 +3.3903637764e+00 -1.1495039637e+01 1.8726430169e+01 0.0000000000e+00 0.0000e+00 1.0000e+00
</event>
<event>
 8      3 +1.0086356e-04 9.11880000e+01 7.81616400e-03 1.18400000e-01
      -11 -1    0    0    0    0 +0.0000000000e+00 +0.0000000000e+00 +4.5593999997e+01 4.5594000000e+01 5.1100000000e-04 0.0000e+00 1.0000e+00
       11 -1    0    0    0    0 -0.0000000000e+00 -0.0000000000e+00 -4.5593999997e+01 4.5594000000e+01 5.1100000000e-04 0.0000e+00 -1.0000e+00
       23  2    1    2    0    0 -3.6082248300e-16 +0.0000000000e+00 +0.0000000000e+00 9.1188000000e+01 9.1188000000e+01 1.3950e-14 0.0000e+00
  9990012  2    3    3    0    0 -2.3118748803e-01 -1.7118625679e+01 -7.5881591517e+00 7.2461522699e+01 6.9999937999e+01 1.4267e-04 0.0000e+00
      -11  1    4    4    0    0 +3.8931299870e+00 -4.7642825435e+00 +1.4700222184e+01 1.5935852088e+01 5.1100000000e-04 0.0000e+00 1.0000e+00
       11  1    4    4    0    0 +9.7195201409e+00 +1.6880706768e+01 -6.5308658935e+00 2.0544574523e+01 5.1100000000e-04 0.0000e+00 -1.0000e+00
       12  1    4    4    0    0 -1.3843837616e+01 -2.9235049903e+01 -1.5757515442e+01 3.5981096088e+01 0.0000000000e+00 0.0000e+00 -1.0000e+00
      -12  1    3    3    0    0 +2.3118748803e-01 +1.7118625679e+01 +7.5881591517e+00 1.8726477301e+01 0.0000000000e+00 0.0000e+00 1.0000e+00
</event>
<event>
 8      3 +1.0086356e-04 9.11880000e+01 7.81616400e-03 1.18400000e-01
      -11 -1    0    0    0    0 +0.0000000000e+00 +0.0000000000e+00 +4.5593999997e+01 4.5594000000e+01 5.1100000000e-04 0.0000e+00 -1.0000e+00
       11 -1    0    0    0    0 -0.0000000000e+00 -0.0000000000e+00 -4.5593999997e+01 4.5594000000e+01 5.1100000000e-04 0.0000e+00 1.0000e+00
       23  2    1    2    0    0 -3.5527136788e-15 -1.7763568394e-15 +0.0000000000e+00 9.1188000000e+01 9.1188000000e+01 5.1717e-14 0.0000e+00
  9990012  2    3    3    0    0 -1.7012490327e+01 +5.8412942365e+00 +5.2089768031e+00 7.2461575226e+01 7.0000006425e+01 2.7395e-04 0.0000e+00
      -11  1    4    4    0    0 +1.0334937935e+01 -1.2366324290e+00 -6.0540845999e+00 1.2041268309e+01 5.1100000000e-04 0.0000e+00 1.0000e+00
       11  1    4    4    0    0 -4.2522824855e+01 +7.8755425295e-01 +4.9321847233e+00 4.2815152945e+01 5.1100000000e-04 0.0000e+00 -1.0000e+00
       12  1    4    4    0    0 +1.5175396593e+01 +6.2903724126e+00 +6.3308766797e+00 1.7605153972e+01 0.0000000000e+00 0.0000e+00 -1.0000e+00
      -12  1    3    3    0    0 +1.7012490327e+01 -5.8412942365e+00 -5.2089768031e+00 1.8726424774e+01 0.0000000000e+00 0.0000e+00 1.0000e+00
</event>
<event>
 8      4 +1.0086356e-04 9.11880000e+01 7.81616400e-03 1.18400000e-01
      -11 -1    0    0    0    0 +0.0000000000e+00 +0.0000000000e+00 +4.5593999997e+01 4.5594000000e+01 5.1100000000e-04 0.0000e+00 1.0000e+00
       11 -1    0    0    0    0 -0.0000000000e+00 -0.0000000000e+00 -4.5593999997e+01 4.5594000000e+01 5.1100000000e-04 0.0000e+00 -1.0000e+00
       23  2    1    2    0    0 +0.0000000000e+00 +0.0000000000e+00 -2.2204460493e-16 9.1188000000e+01 9.1188000000e+01 4.7778e-14 0.0000e+00
 -9990012  2    3    3    0    0 +1.5080293907e+01 +1.0987988310e+01 +1.5898741034e+00 7.2461578797e+01 7.0000011076e+01 2.8162e-04 0.0000e+00
      -11  1    4    4    0    0 +2.8411949999e+01 +1.2856992232e+01 +1.8826342246e+01 3.6427631197e+01 5.1100000000e-04 0.0000e+00 1.0000e+00
       11  1    4    4    0    0 +6.7298987754e+00 -8.1811079520e+00 -5.1805765828e+00 1.1792389022e+01 5.1100000000e-04 0.0000e+00 -1.0000e+00
      -12  1    4    4    0    0 -2.0061554868e+01 +6.3121040297e+00 -1.2055891560e+01 2.4241558578e+01 0.0000000000e+00 0.0000e+00 1.0000e+00
       12  1    3    3    0    0 -1.5080293907e+01 -1.0987988310e+01 -1.5898741034e+00 1.8726421203e+01 0.0000000000e+00 0.0000e+00 -1.0000e+00
</event>
<event>
 9      4 +1.0086356e-04 9.11880000e+01 7.81616400e-03 1.18400000e-01
      -11 -1    0    0    0    0 +0.0000000000e+00 +0.0000000000e+00 +4.5593999997e+01 4.5594000000e+01 5.1100000000e-04 0.0000e+00 -1.0000e+00
       11 -1    0    0    0    0 -0.0000000000e+00 -0.0000000000e+00 -4.5593999997e+01 4.5594000000e+01 5.1100000000e-04 0.0000e+00 1.0000e+00
       23  2    1    2    0    0 -1.7763568394e-15 -4.4408920985e-16 +3.5527136788e-15 9.1188000000e+01 9.1188000000e+01 2.1114e-14 0.0000e+00
 -9990012  2    3    3    0    0 -1.4463636561e+01 +3.6158357552e+00 -1.1331666165e+01 7.2461609295e+01 7.0000050805e+01 2.2369e-04 0.0000e+00
      -24  2    4    4    0    0 -2.6187234931e+01 +3.3130590986e+00 -1.0238448734e+01 6.0683258092e+01 5.3673870237e+01 4.1368e-14 0.0000e+00
      -11  1    4    4    0    0 +1.1723598370e+01 +3.0277665662e-01 -1.0932174308e+00 1.1778351203e+01 5.1100000000e-04 0.0000e+00 1.0000e+00
       11  1    5    5    0    0 +2.5388603221e+00 -4.1860666443e+00 +1.8636254346e+01 1.9268599897e+01 5.1100000000e-04 0.0000e+00 -1.0000e+00
      -12  1    5    5    0    0 -2.8726095253e+01 +7.4991257429e+00 -2.8874703080e+01 4.1414658195e+01 0.0000000000e+00 0.0000e+00 1.0000e+00
       12  1    3    3    0    0 +1.4463636561e+01 -3.6158357552e+00 +1.1331666165e+01 1.8726390705e+01 0.0000000000e+00 0.0000e+00 -1.0000e+00
</event>
<event>
 9      4 +1.0086356e-04 9.11880000e+01 7.81616400e-03 1.18400000e-01
      -11 -1    0    0    0    0 +0.0000000000e+00 +0.0000000000e+00 +4.5593999997e+01 4.5594000000e+01 5.1100000000e-04 0.0000e+00 -1.0000e+00
       11 -1    0    0    0    0 -0.0000000000e+00 -0.0000000000e+00 -4.5593999997e+01 4.5594000000e+01 5.1100000000e-04 0.0000e+00 1.0000e+00
       23  2    1    2    0    0 +1.3322676296e-15 +8.8817841970e-16 +0.0000000000e+00 9.1188000000e+01 9.1188000000e+01 4.2933e-14 0.0000e+00
 -9990012  2    3    3    0    0 +4.7136414674e-01 +7.2810915236e+00 -1.7246493686e+01 7.2461600923e+01 7.0000039899e+01 1.8891e-04 0.0000e+00
      -24  2    4    4    0    0 -7.0253429844e+00 +8.1704356176e+00 -7.1048863623e+00 5.9818668110e+01 5.8409606933e+01 1.5763e-13 0.0000e+00
      -11  1    4    4    0    0 +7.4967071311e+00 -8.8934409404e-01 -1.0141607324e+01 1.2642932812e+01 5.1100000000e-04 0.0000e+00 1.0000e+00
       11  1    5    5    0    0 +2.1534926779e+01 -1.0145107647e+01 -9.8863519042e+00 2.5776272710e+01 5.1100000000e-04 0.0000e+00 -1.0000e+00
      -12  1    5    5    0    0 -2.8560269764e+01 +1.8315543265e+01 +2.7814655419e+00 3.4042395401e+01 0.0000000000e+00 0.0000e+00 1.0000e+00
       12  1    3    3    0    0 -4.7136414674e-01 -7.2810915236e+00 +1.7246493686e+01 1.8726399077e+01 0.0000000000e+00 0.0000e+00 -1.0000e+00
</event>
<event>
 9      3 +1.0086356e-04 9.11880000e+01 7.81616400e-03 1.18400000e-01
      -11 -1    0    0    0    0 +0.0000000000e+00 +0.0000000000e+00 +4.5593999997e+01 4.5594000000e+01 5.1100000000e-04 0.0000e+00 1.0000e+00
       11 -1    0    0    0    0 -0.0000000000e+00 -0.0000000000e+00 -4.5593999997e+01 4.5594000000e+01 5.1100000000e-04 0.0000e+00 -1.0000e+00
       23  2    1    2    0    0 -4.4408920985e-16 +7.7715611724e-16 +0.0000000000e+00 9.1188000000e+01 9.1188000000e+01 2.6406e-14 0.0000e+00
  9990012  2    3    3    0    0 +2.3088690144e+00 +1.9178244155e-01 -1.8582607006e+01 7.2461523028e+01 6.9999938427e+01 1.0084e-04 0.0000e+00
       24  2    4    4    0    0 -5.5565777521e-01 +1.5090731541e+00 -2.5724400205e+01 6.4654732465e+01 5.9295055501e+01 9.4833e-14 0.0000e+00
      -11  1    5    5    0    0 +1.0282993062e+01 -2.5824629498e+01 -3.9716299066e+00 2.8078911649e+01 5.1100000000e-04 0.0000e+00 1.0000e+00
       11  1    4    4    0    0 +2.8645267896e+00 -1.3172907125e+00 +7.1417931991e+00 7.8067905639e+00 5.1100000000e-04 0.0000e+00 -1.0000e+00
       12  1    5    5    0    0 -1.0838650837e+01 +2.7333702652e+01 -2.1752770298e+01 3.6575820815e+01 0.0000000000e+00 0.0000e+00 -1.0000e+00
      -12  1    3    3    0    0 -2.3088690144e+00 -1.9178244155e-01 +1.8582607006e+01 1.8726476972e+01 0.0000000000e+00 0.0000e+00 1.0000e+00
</event>
<event>
 8      4 +1.0086356e-04 9.11880000e+01 7.81616400e-03 1.18400000e-01
      -11 -1    0    0    0    0 +0.0000000000e+00 +0.0000000000e+00 +4.5593999997e+01 4.5594000000e+01 5.1100000000e-04 0.0000e+00 1.0000e+00
       11 -1    0    0    0    0 -0.0000000000e+00 -0.0000000000e+00 -4.5593999997e+01 4.5594000000e+01 5.1100000000e-04 0.0000e+00 -1.0000e+00
       23  2    1    2    0    0 +4.4408920985e-15 +1.7763568394e-15 +3.5527136788e-15 9.1188000000e+01 9.1188000000e+01 9.5633e-14 0.0000e+00
 -9990012  2    3    3    0    0 -7.8204581836e+00 -1.2292703875e+01 +1.1764725850e+01 7.2461577248e+01 7.0000009058e+01 1.1021e-03 0.0000e+00
      -11  1    4    4    0    0 +1.0055198682e+01 +5.5743550946e+00 +3.1323252460e+01 3.3366549121e+01 5.1100000000e-04 0.0000e+00 1.0000e+00
       11  1    4    4    0    0 -7.1933455975e+00 +2.9091434718e+00 -1.2460530090e+01 1.4678969549e+01 5.1100000000e-04 0.0000e+00 -1.0000e+00
      -12  1    4    4    0    0 -1.0682311268e+01 -2.0776202442e+01 -7.0979965203e+00 2.4416058579e+01 0.0000000000e+00 0.0000e+00 1.0000e+00
       12  1    3    3    0    0 +7.8204581836e+00 +1.2292703875e+01 -1.1764725850e+01 1.8726422752e+01 0.0000000000e+00 0.0000e+00 -1.0000e+00
</event>
<event>
 9      3 +1.0086356e-04 9.11880000e+01 7.81616400e-03 1.18400000e-01
      -11 -1    0    0    0    0 +0.0000000000e+00 +0.0000000000e+00 +4.5593999997e+01 4.5594000000e+01 5.1100000000e-04 0.0000e+00 1.0000e+00
       11 -1    0    0    0    0 -0.0000000000e+00 -0.0000000000e+00 -4.5593999997e+01 4.5594000000e+01 5.1100000000e-04 0.0000e+00 -1.0000e+00
       23  2    1    2    0    0 +0.0000000000e+00 -4.4408920985e-16 -1.7763568394e-15 9.1188000000e+01 9.1188000000e+01 4.9280e-14 0.0000e+00
  9990012  2    3    3    0    0 -1.7576902144e+01 -2.0496302591e+00 -6.1261418384e+00 7.2461599198e+01 7.0000037652e+01 2.6290e-05 0.0000e+00
       24  2    4    4    0    0 -9.1353133690e+00 +5.8179291724e+00 -1.4158577048e+01 5.8401765340e+01 5.5614734025e+01 6.8609e-14 0.0000e+00
      -11  1    5    5    0    0 -1.5661566950e+01 +2.3231906306e+01 +8.3205022039e+00 2.9227331509e+01 5.1100000000e-04 0.0000e+00 1.0000e+00
       11  1    4    4    0    0 -8.4415887750e+00 -7.8675594315e+00 +8.0324352091e+00 1.4059833858e+01 5.1100000000e-04 0.0000e+00 -1.0000e+00
       12  1    5    5    0    0 +6.5262535810e+00 -1.7413977133e+01 -2.2479079251e+01 2.9174433832e+01 0.0000000000e+00 0.0000e+00 -1.0000e+00
      -12  1    3    3    0    0 +1.7576902144e+01 +2.0496302591e+00 +6.1261418384e+00 1.8726400802e+01 0.0000000000e+00 0.0000e+00 1.0000e+00
</event>
<event>
 8      3 +1.0086356e-04 9.11880000e+01 7.81616400e-03 1.18400000e-01
      -11 -1    0    0    0    0 +0.0000000000e+00 +0.0000000000e+00 +4.5593999997e+01 4.5594000000e+01 5.1100000000e-04 0.0000e+00 1.0000e+00
       11 -1    0    0    0    0 -0.0000000000e+00 -0.0000000000e+00 -4.5593999997e+01 4.5594000000e+01 5.1100000000e-04 0.0000e+00 -1.0000e+00
       23  2    1    2    0    0 +0.0000000000e+00 +0.0000000000e+00 +1.7763568394e-15 9.1188000000e+01 9.1188000000e+01 1.9843e-13 0.0000e+00
  9990012  2    3    3    0    0 +1.2357667673e+01 -9.7336351731e+00 -1.0160075071e+01 7.2461475244e+01 6.9999876179e+01 3.4559e-04 0.0000e+00
      -11  1    4    4    0    0 +1.0673894753e+01 +1.2117319058e+01 +6.6981526768e+00 1.7482182355e+01 5.1100000000e-04 0.0000e+00 1.0000e+00
       11  1    4    4    0    0 -9.5958328029e+00 -1.3965619627e+01 +1.3488434174e+01 2.1657709839e+01 5.1100000000e-04 0.0000e+00 -1.0000e+00
       12  1    4    4    0    0 +1.1279605723e+01 -7.8853346048e+00 -3.0346661922e+01 3.3321583050e+01 0.0000000000e+00 0.0000e+00 -1.0000e+00
      -12  1    3    3    0    0 -1.2357667673e+01 +9.7336351731e+00 +1.0160075071e+01 1.8726524756e+01 0.0000000000e+00 0.0000e+00 1.0000e+00
</event>
<event>
 8      3 +1.0086356e-04 9.11880000e+01 7.81616400e-03 1.18400000e-01
      -11 -1    0    0    0    0 +0.0000000000e+00 +0.0000000000e+00 +4.5593999997e+01 4.5594000000e+01 5.1100000000e-04 0.0000e+00 1.0000e+00
       11 -1    0    0    0    0 -0.0000000000e+00 -0.0000000000e+00 -4.5593999997e+01 4.5594000000e+01 5.1100000000e-04 0.0000e+00 -1.0000e+00
       23  2    1    2    0    0 +1.3322676296e-15 -8.8817841970e-16 +0.0000000000e+00 9.1188000000e+01 9.1188000000e+01 2.6598e-14 0.0000e+00
  9990012  2    3    3    0    0 +1.3777515434e+00 +6.1443807238e+00 -1.7635986371e+01 7.2461558024e+01 6.9999984016e+01 3.4782e-04 0.0000e+00
      -11  1    4    4    0    0 -1.6294172599e+01 +1.5049310289e+01 -5.4411229120e+00 2.2838292836e+01 5.1100000000e-04 0.0000e+00 1.0000e+00
       11  1    4    4    0    0 +6.2702990407e+00 -1.2681546503e+01 -2.7046349616e+01 3.0522832431e+01 5.1100000000e-04 0.0000e+00 -1.0000e+00
       12  1    4    4    0    0 +1.1401625101e+01 +3.7766169379e+00 +1.4851486157e+01 1.9100432758e+01 0.0000000000e+00 0.0000e+00 -1.0000e+00
      -12  1    3    3    0    0 -1.3777515434e+00 -6.1443807238e+00 +1.7635986371e+01 1.8726441976e+01 0.0000000000e+00 0.0000e+00 1.0000e+00
</event>
<event>
 9      3 +1.0086356e-04 9.11880000e+01 7.81616400e-03 1.18400000e-01
      -11 -1    0    0    0    0 +0.0000000000e+00 +0.0000000000e+00 +4.5593999997e+01 4.5594000000e+01 5.1100000000e-04 0.0000e+00 -1.0000e+00
       11 -1    0    0    0    0 -0.0000000000e+00 -0.0000000000e+00 -4.5593999997e+01 4.5594000000e+01 5.1100000000e-04 0.0000e+00 1.0000e+00
       23  2    1    2    0    0 -1.7763568394e-15 -1.7763568394e-15 +0.0000000000e+00 9.1188000000e+01 9.1188000000e+01 3.8457e-14 0.0000e+00
  9990012  2    3    3    0    0 -5.5799286867e+00 -1.2972090530e+01 +1.2299108700e+01 7.2461579848e+01 7.0000012446e+01 6.2757e-04 0.0000e+00
       23  2    4    4    0    0 -8.0663310246e-01 -1.3474505374e+01 +1.7306806448e+01 6.5525168085e+01 6.1739850592e+01 1.9770e-13 0.0000e+00
      -11  1    5    5    0    0 +1.7780949837e+01 -1.2483711717e+01 -1.6264197281e+01 2.7139074207e+01 5.1100000000e-04 0.0000e+00 1.0000e+00
       11  1    5    5    0    0 -1.8587582940e+01 -9.9079365700e-01 +3.3571003729e+01 3.8386093879e+01 5.1100000000e-04 0.0000e+00 -1.0000e+00
       12  1    4    4    0    0 -4.7732955842e+00 +5.0241484348e-01 -5.0076977481e+00 6.9364117630e+00 0.0000000000e+00 0.0000e+00 -1.0000e+00
      -12  1    3    3    0    0 +5.5799286867e+00 +1.2972090530e+01 -1.2299108700e+01 1.8726420152e+01 0.0000000000e+00 0.0000e+00 1.0000e+00
</event>
<event>
 9      4 +1.0086356e-04 9.11880000e+01 7.81616400e-03 1.18400000e-01
      -11 -1    0    0    0    0 +0.0000000000e+00 +0.0000000000e+00 +4.5593999997e+01 4.5594000000e+01 5.1100000000e-04 0.0000e+00 1.0000e+00
       11 -1    0    0    0    0 -0.0000000000e+00 -0.0000000000e+00 -4.5593999997e+01 4.5594000000e+01 5.1100000000e-04 0.0000e+00 -1.0000e+00
       23  2    1    2    0    0 +1.7763568394e-15 +1.7763568394e-15 +3.3306690739e-16 9.1188000000e+01 9.1188000000e+01 1.7486e-14 0.0000e+00
 -9990012  2    3    3    0    0 -1.0208437405e+01 +1.5679453931e+01 +7.9103610850e-01 7.2461462468e+01 6.9999859536e+01 9.9578e-05 0.0000e+00
      -24  2    4    4    0    0 -1.1783559505e+01 +1.1640995886e+01 -5.2610440551e+00 6.5017147350e+01 6.2651303300e+01 1.1889e-14 0.0000e+00
      -11  1    4    4    0    0 +1.5751221004e+00 +4.0384580449e+00 +6.0520801636e+00 7.4443151182e+00 5.1100000000e-04 0.0000e+00 1.0000e+00
       11  1    5    5    0    0 +2.4264969560e+01 +1.4456234578e+01 -5.8942484975e+00 2.8853312314e+01 5.1100000000e-04 0.0000e+00 -1.0000e+00
      -12  1    5    5    0    0 -3.6048529065e+01 -2.8152386922e+00 +6.3320444235e-01 3.6163835036e+01 0.0000000000e+00 0.0000e+00 1.0000e+00
       12  1    3    3    0    0 +1.0208437405e+01 -1.5679453931e+01 -7.9103610850e-01 1.8726537532e+01 0.0000000000e+00 0.0000e+00 -1.0000e+00
</event>
<event>
 8      4 +1.0086356e-04 9.11880000e+01 7.81616400e-03 1.18400000e-01
      -11 -1    0    0    0    0 +0.0000000000e+00 +0.0000000000e+00 +4.5593999997e+01 4.5594000000e+01 5.1100000000e-04 0.0000e+00 -1.0000e+00
       11 -1    0    0    0    0 -0.0000000000e+00 -0.0000000000e+00 -4.5593999997e+01 4.5594000000e+01 5.1100000000e-04 0.0000e+00 1.0000e+00
       23  2    1    2    0    0 -3.5527136788e-15 +0.0000000000e+00 +1.7763568394e-15 9.1188000000e+01 9.1188000000e+01 3.7802e-14 0.0000e+00
 -9990012  2    3    3    0    0 -1.3271869968e+00 -1.2417349867e+01 -1.3954445925e+01 7.2461586458e+01 7.0000021057e+01 2.2031e-06 0.0000e+00
      -11  1    4    4    0    0 -2.8001032931e+01 +3.7973461033e+00 -1.6251649796e+01 3.2597450882e+01 5.1100000000e-04 0.0000e+00 -1.0000e+00
       11  1    4    4    0    0 +2.9853898206e+01 -1.8265195768e+01 -7.4946927552e-01 3.5006204007e+01 5.1100000000e-04 0.0000e+00 1.0000e+00
      -12  1    4    4    0    0 -3.1800522712e+00 +2.0504997977e+00 +3.0466731465e+00 4.8579315690e+00 0.0000000000e+00 0.0000e+00 1.0000e+00
       12  1    3    3    0    0 +1.3271869968e+00 +1.2417349867e+01 +1.3954445925e+01 1.8726413542e+01 0.0000000000e+00 0.0000e+00 -1.0000e+00
</event>
<event>
 8      4 +1.0086356e-04 9.11880000e+01 7.81616400e-03 1.18400000e-01
      -11 -1    0    0    0    0 +0.0000000000e+00 +0.0000000000e+00 +4.5593999997e+01 4.5594000000e+01 5.1100000000e-04 0.0000e+00 1.0000e+00
       11 -1    0    0    0    0 -0.0000000000e+00 -0.0000000000e+00 -4.5593999997e+01 4.5594000000e+01 5.1100000000e-04 0.0000e+00 -1.0000e+00
       23  2    1    2    0    0 +0.0000000000e+00 +0.0000000000e+00 +2.2204460493e-15 9.1188000000e+01 9.1188000000e+01 2.6252e-13 0.0000e+00
 -9990012  2    3    3    0    0 -3.6173212665e+00 +1.8345092629e+01 -1.0249839967e+00 7.2461600749e+01 7.0000039673e+01 5.9765e-04 0.0000e+00
      -11  1    4    4    0    0 -6.1707511241e+00 +2.1295698117e+01 -8.6914418829e+00 2.3814409293e+01 5.1100000000e-04 0.0000e+00 1.0000e+00
       11  1    4    4    0    0 +9.8677301809e+00 -9.7278908857e-01 -1.8725700202e+01 2.1188918468e+01 5.1100000000e-04 0.0000e+00 -1.0000e+00
      -12  1    4    4    0    0 -7.3143003234e+00 -1.9778163992e+00 +2.6392158088e+01 2.7458272988e+01 0.0000000000e+00 0.0000e+00 1.0000e+00
       12  1    3    3    0    0 +3.6173212665e+00 -1.8345092629e+01 +1.0249839967e+00 1.8726399251e+01 0.0000000000e+00 0.0000e+00 -1.0000e+00
</event>
<event>
 8      3 +1.0086356e-04 9.11880000e+01 7.81616400e-03 1.18400000e-01
      -11 -1    0    0    0    0 +0.0000000000e+00 +0.0000000000e+00 +4.5593999997e+01 4.5594000000e+01 5.1100000000e-04 0.0000e+00 1.0000e+00
       11 -1    0    0    0    0 -0.0000000000e+00 -0.0000000000e+00 -4.5593999997e+01 4.5594000000e+01 5.1100000000e-04 0.0000e+00 -1.0000e+00
       23  2    1    2    0    0 +3.5527136788e-15 +0.0000000000e+00 +1.7763568394e-15 9.1188000000e+01 9.1188000000e+01 4.8881e-14 0.0000e+00
  9990012  2    3    3    0    0 +8.9100822722e+00 -1.4062505598e+01 -8.5753095789e+00 7.2461559757e+01 6.9999986274e+01 1.9700e-05 0.0000e+00
      -11  1    4    4    0    0 +4.8356420893e-01 -7.9460147403e+00 +8.8456049371e+00 1.1900324011e+01 5.1100000000e-04 0.0000e+00 1.0000e+00
       11  1    4    4    0    0 -9.3849501520e+00 -1.3172012508e+01 +1.5545038683e+01 2.2432731238e+01 5.1100000000e-04 0.0000e+00 -1.0000e+00
       12  1    4    4    0    0 +1.7811468215e+01 +7.0555216503e+00 -3.2965953199e+01 3.8128504509e+01 0.0000000000e+00 0.0000e+00 -1.0000e+00
      -12  1    3    3    0    0 -8.9100822722e+00 +1.4062505598e+01 +8.5753095789e+00 1.8726440243e+01 0.0000000000e+00 0.0000e+00 1.0000e+00
</event>
<event>
 8      3 +1.0086356e-04 9.11880000e+01 7.81616400e-03 1.18400000e-01
      -11 -1    0    0    0    0 +0.0000000000e+00 +0.0000000000e+00 +4.5593999997e+01 4.5594000000e+01 5.1100000000e-04 0.0000e+00 1.0000e+00
       11 -1    0    0    0    0 -0.0000000000e+00 -0.0000000000e+00 -4.5593999997e+01 4.5594000000e+01 5.1100000000e-04 0.0000e+00 -1.0000e+00
       23  2    1    2    0    0 -8.8817841970e-16 -2.6645352591e-15 +3.5527136788e-15 9.1188000000e+01 9.1188000000e+01 8.0805e-14 0.0000e+00
  9990012  2    3    3    0    0 +3.1584530331e+00 +2.3445198128e+00 -1.8308584021e+01 7.2461632291e+01 7.0000080762e+01 1.9572e-04 0.0000e+00
      -11  1    4    4    0    0 +7.8620702900e+00 -2.1633971119e+01 -1.5454899076e+01 2.7725345108e+01 5.1100000000e-04 0.0000e+00 -1.0000e+00
       11  1    4    4    0    0 -1.7586804301e+01 +1.7312471155e+01 +8.7259668811e+00 2.6175558089e+01 5.1100000000e-04 0.0000e+00 1.0000e+00
       12  1    4    4    0    0 +1.2883187044e+01 +6.6660197767e+00 -1.1579651826e+01 1.8560729094e+01 0.0000000000e+00 0.0000e+00 -1.0000e+00
      -12  1    3    3    0    0 -3.1584530331e+00 -2.3445198128e+00 +1.8308584021e+01 1.8726367709e+01 0.0000000000e+00 0.0000e+00 1.0000e+00
</event>
<event>
 8      3 +1.0086356e-04 9.11880000e+01 7.81616400e-03 1.18400000e-01
      -11 -1    0    0    0    0 +0.0000000000e+00 +0.0000000000e+00 +4.5593999997e+01 4.5594000000e+01 5.1100000000e-04 0.0000e+00 -1.0000e+00
       11 -1    0    0    0    0 -0.0000000000e+00 -0.0000000000e+00 -4.5593999997e+01 4.5594000000e+01 5.1100000000e-04 0.0000e+00 1.0000e+00
       23  2    1    2    0    0 +0.0000000000e+00 -1.6514567491e-15 -8.8817841970e-16 9.1188000000e+01 9.1188000000e+01 3.4445e-14 0.0000e+00
  9990012  2    3    3    0    0 -1.7951814747e+01 -9.2934609078e-02 +5.3294021389e+00 7.2461579714e+01 7.0000012271e+01 2.3926e-05 0.0000e+00
      -11  1    4    4    0    0 -9.5405286907e+00 +2.7540328159e+01 -7.8732651705e+00 3.0190721547e+01 5.1100000000e-04 0.0000e+00 1.0000e+00
       11  1    4    4    0    0 -1.8679609858e+01 -1.6228584973e+01 +6.9718807314e+00 2.5708012678e+01 5.1100000000e-04 0.0000e+00 -1.0000e+00
       12  1    4    4    0    0 +1.0268323801e+01 -1.1404677795e+01 +6.2307865780e+00 1.6562845489e+01 0.0000000000e+00 0.0000e+00 -1.0000e+00
      -12  1    3    3    0    0 +1.7951814747e+01 +9.2934609078e-02 -5.3294021389e+00 1.8726420286e+01 0.0000000000e+00 0.0000e+00 1.0000e+00
</event>
<event>
 8      3 +1.0086356e-04 9.11880000e+01 7.81616400e-03 1.18400000e-01
      -11 -1    0    0    0    0 +0.0000000000e+00 +0.0000000000e+00 +4.5593999997e+01 4.5594000000e+01 5.1100000000e-04 0.0000e+00 -1.0000e+00
       11 -1    0    0    0    0 -0.0000000000e+00 -0.0000000000e+00 -4.5593999997e+01 4.5594000000e+01 5.1100000000e-04 0.0000e+00 1.0000e+00
       23  2    1    2    0    0 -4.4408920985e-16 -3.5527136788e-15 -8.8817841970e-16 9.1188000000e+01 9.1188000000e+01 3.1113e-14 0.0000e+00
  9990012  2    3    3    0    0 +1.0564097689e+00 -1.7917973472e+01 -5.3395017276e+00 7.2461546688e+01 6.9999969249e+01 5.0176e-05 0.0000e+00
      -11  1    4    4    0    0 +1.6278591336e+01 +9.9858719893e+00 -1.0620191909e+01 2.1851742532e+01 5.1100000000e-04 0.0000e+00 1.0000e+00
       11  1    4    4    0    0 -1.9254002595e+01 -1.3763351473e+01 -1.3116080876e+01 2.7058788545e+01 5.1100000000e-04 0.0000e+00 -1.0000e+00
       12  1    4    4    0    0 +4.0318210282e+00 -1.4140493988e+01 +1.8396771057e+01 2.3551015612e+01 0.0000000000e+00 0.0000e+00 -1.0000e+00
      -12  1    3    3    0    0 -1.0564097689e+00 +1.7917973472e+01 +5.3395017276e+00 1.8726453312e+01 0.0000000000e+00 0.0000e+00 1.0000e+00
</event>
<event>
 8      4 +1.0086356e-04 9.11880000e+01 7.81616400e-03 1.18400000e-01
      -11 -1    0    0    0    0 +0.0000000000e+00 +0.0000000000e+00 +4.5593999997e+01 4.5594000000e+01 5.1100000000e-04 0.0000e+00 1.0000e+00
       11 -1    0    0    0    0 -0.0000000000e+00 -0.0000000000e+00 -4.5593999997e+01 4.5594000000e+01 5.1100000000e-04 0.0000e+00 -1.0000e+00
       23  2    1    2    0    0 +1.7763568394e-15 +0.0000000000e+00 +0.0000000000e+00 9.1188000000e+01 9.1188000000e+01 9.1430e-14 0.0000e+00
 -9990012  2    3    3    0    0 +7.9909459266e+00 +1.1744232694e+01 +1.2202468076e+01 7.2461482825e+01 6.9999886055e+01 3.7292e-04 0.0000e+00
      -11  1    4    4    0    0 +2.2618817588e+00 +1.0129488013e+01 +2.3805567069e+01 2.5969745093e+01 5.1100000000e-04 0.0000e+00 1.0000e+00
       11  1    4    4    0    0 +1.1837635496e+01 +2.0728677441e+01 -1.1331279575e+01 2.6423579993e+01 5.1100000000e-04 0.0000e+00 -1.0000e+00
      -12  1    4    4    0    0 -6.1085713279e+00 -1.9113932760e+01 -2.7181941853e-01 2.0068157739e+01 0.0000000000e+00 0.0000e+00 1.0000e+00
       12  1    3    3    0    0 -7.9909459266e+00 -1.1744232694e+01 -1.2202468076e+01 1.8726517175e+01 0.0000000000e+00 0.0000e+00 -1.0000e+00
</event>
<event>
 8      3 +1.0086356e-04 9.11880000e+01 7.81616400e-03 1.18400000e-01
      -11 -1    0    0    0    0 +0.0000000000e+00 +0.0000000000e+00 +4.5593999997e+01 4.5594000000e+01 5.1100000000e-04 0.0000e+00 1.0000e+00
       11 -1    0    0    0    0 -0.0000000000e+00 -0.0000000000e+00 -4.5593999997e+01 4.5594000000e+01 5.1100000000e-04 0.0000e+00 -1.0000e+00
       23  2    1    2    0    0 +1.7763568394e-15 +8.8817841970e-16 +0.0000000000e+00 9.1188000000e+01 9.1188000000e+01 1.1960e-13 0.0000e+00
  9990012  2    3    3    0    0 +1.1760333739e+01 -7.1888758957e+00 -1.2676479246e+01 7.2461587840e+01 7.0000022857e+01 2.3217e-04 0.0000e+00
      -11  1    4    4    0    0 -2.3163138089e+01 -2.7783947062e+00 -4.6172385830e+00 2.3781701698e+01 5.1100000000e-04 0.0000e+00 1.0000e+00
       11  1    4    4    0    0 +3.8404382000e+01 +3.8716281009e+00 -3.9493787661e+00 3.8800562545e+01 5.1100000000e-04 0.0000e+00 -1.0000e+00
       12  1    4    4    0    0 -3.4809101719e+00 -8.2821092903e+00 -4.1098618966e+00 9.8793235968e+00 0.0000000000e+00 0.0000e+00 -1.0000e+00
      -12  1    3    3    0    0 -1.1760333739e+01 +7.1888758957e+00 +1.2676479246e+01 1.8726412160e+01 0.0000000000e+00 0.0000e+00 1.0000e+00
</event>
<event>
 8      4 +1.0086356e-04 9.11880000e+01 7.81616400e-03 1.18400000e-01
      -11 -1    0    0    0    0 +0.0000000000e+00 +0.0000000000e+00 +4.5593999997e+01 4.5594000000e+01 5.1100000000e-04 0.0000e+00 -1.0000e+00
       11 -1    0    0    0    0 -0.0000000000e+00 -0.0000000000e+00 -4.5593999997e+01 4.5594000000e+01 5.1100000000e-04 0.0000e+00 1.0000e+00
       23  2    1    2    0    0 -2.2204460493e-16 +3.5527136788e-15 +0.0000000000e+00 9.1188000000e+01 9.1188000000e+01 1.3394e-14 0.0000e+00
 -9990012  2    3    3    0    0 +1.6837690519e+00 +1.7155196114e+01 -7.3174099286e+00 7.2461539576e+01 6.9999959984e+01 5.8799e-05 0.0000e+00
      -11  1    4    4    0    0 +1.9914580338e+01 -1.9870986171e+01 -1.0450126415e+01 3.0010860431e+01 5.1100000000e-04 0.0000e+00 1.0000e+00
       11  1    4    4    0    0 -3.6973897866e+00 +1.8070704031e+01 +1.6568599950e+00 1.8519347200e+01 5.1100000000e-04 0.0000e+00 -1.0000e+00
      -12  1    4    4    0    0 -1.4533421500e+01 +1.8955478254e+01 +1.4758564919e+00 2.3931331946e+01 0.0000000000e+00 0.0000e+00 1.0000e+00
       12  1    3    3    0    0 -1.6837690519e+00 -1.7155196114e+01 +7.3174099286e+00 1.8726460424e+01 0.0000000000e+00 0.0000e+00 -1.0000e+00
</event>
<event>
 9      4 +1.0086356e-04 9.11880000e+01 7.81616400e-03 1.18400000e-01
      -11 -1    0    0    0    0 +0.0000000000e+00 +0.0000000000e+00 +4.5593999997e+01 4.5594000000e+01 5.1100000000e-04 0.0000e+00 1.0000e+00
       11 -1    0    0    0    0 -0.0000000000e+00 -0.0000000000e+00 -4.5593999997e+01 4.5594000000e+01 5.1100000000e-04 0.0000e+00 -1.0000e+00
       23  2    1    2    0    0 +0.0000000000e+00 +1.3322676296e-15 +0.0000000000e+00 9.1188000000e+01 9.1188000000e+01 1.9397e-14 0.0000e+00
 -9990012  2    3    3    0    0 +5.6654119143e+00 -2.4156111376e+00 +1.7684688715e+01 7.2461540530e+01 6.9999961227e+01 4.1420e-05 0.0000e+00
      -24  2    4    4    0    0 -2.3430999852e+00 +9.3998129011e+00 +2.3991883275e+01 5.6856374349e+01 5.0627959083e+01 1.7841e-14 0.0000e+00
      -11  1    4    4    0    0 +8.0085118995e+00 -1.1815424039e+01 -6.3071945603e+00 1.5605166181e+01 5.1100000000e-04 0.0000e+00 1.0000e+00
       11  1    5    5    0    0 -2.7596837711e+00 -4.3439814205e+00 -1.4816100404e+01 1.5684478332e+01 5.1100000000e-04 0.0000e+00 -1.0000e+00
      -12  1    5    5    0    0 +4.1658378584e-01 +1.3743794322e+01 +3.8807983679e+01 4.1171896017e+01 0.0000000000e+00 0.0000e+00 1.0000e+00
       12  1    3    3    0    0 -5.6654119143e+00 +2.4156111376e+00 -1.7684688715e+01 1.8726459470e+01 0.0000000000e+00 0.0000e+00 -1.0000e+00
</event>
<event>
 9      3 +1.0086356e-04 9.11880000e+01 7.81616400e-03 1.18400000e-01
      -11 -1    0    0    0    0 +0.0000000000e+00 +0.0000000000e+00 +4.5593999997e+01 4.5594000000e+01 5.1100000000e-04 0.0000e+00 1.0000e+00
       11 -1    0    0    0    0 -0.0000000000e+00 -0.0000000000e+00 -4.5593999997e+01 4.5594000000e+01 5.1100000000e-04 0.0000e+00 -1.0000e+00
       23  2    1    2    0    0 +0.0000000000e+00 -3.5527136788e-15 +1.3322676296e-15 9.1188000000e+01 9.1188000000e+01 1.6683e-14 0.0000e+00
  9990012  2    3    3    0    0 -4.6054560271e+00 -1.8070330105e+01 +1.7125864770e+00 7.2461547913e+01 6.9999970844e+01 9.9473e-05 0.0000e+00
       24  2    4    4    0    0 +5.2488629458e-01 -1.4020013281e+01 +7.9960052027e+00 6.3394749699e+01 6.1303522836e+01 1.9465e-13 0.0000e+00
      -11  1    5    5    0    0 -2.6779525267e+01 +3.8221111943e+00 -6.3118410126e+00 2.7777524093e+01 5.1100000000e-04 0.0000e+00 1.0000e+00
       11  1    4    4    0    0 -5.1303423217e+00 -4.0503168239e+00 -6.2834187256e+00 9.0667982141e+00 5.1100000000e-04 0.0000e+00 -1.0000e+00
       12  1    5    5    0    0 +2.7304411562e+01 -1.7842124476e+01 +1.4307846215e+01 3.5617225606e+01 0.0000000000e+00 0.0000e+00 -1.0000e+00
      -12  1    3    3    0    0 +4.6054560271e+00 +1.8070330105e+01 -1.7125864770e+00 1.8726452087e+01 0.0000000000e+00 0.0000e+00 1.0000e+00
</event>
<event>
 8      3 +1.0086356e-04 9.11880000e+01 7.81616400e-03 1.18400000e-01
      -11 -1    0    0    0    0 +0.0000000000e+00 +0.0000000000e+00 +4.5593999997e+01 4.5594000000e+01 5.1100000000e-04 0.0000e+00 -1.0000e+00
       11 -1    0    0    0    0 -0.0000000000e+00 -0.0000000000e+00 -4.5593999997e+01 4.5594000000e+01 5.1100000000e-04 0.0000e+00 1.0000e+00
       23  2    1    2    0    0 -4.4408920985e-16 +0.0000000000e+00 -1.7763568394e-15 9.1188000000e+01 9.1188000000e+01 3.2197e-14 0.0000e+00
  9990012  2    3    3    0    0 +2.1400469563e+00 +1.4442306421e+01 +1.1726880265e+01 7.2461555156e+01 6.9999980280e+01 1.1216e-04 0.0000e+00
      -11  1    4    4    0    0 -5.4273307894e-01 -1.0838301817e+00 -2.4678892451e+01 2.4708641806e+01 5.1100000000e-04 0.0000e+00 1.0000e+00
       11  1    4    4    0    0 +9.8641746853e+00 -9.4035206244e-02 +2.5630461106e+01 2.7463272231e+01 5.1100000000e-04 0.0000e+00 -1.0000e+00
       12  1    4    4    0    0 -7.1813946501e+00 +1.5620171809e+01 +1.0775311609e+01 2.0289641119e+01 0.0000000000e+00 0.0000e+00 -1.0000e+00
      -12  1    3    3    0    0 -2.1400469563e+00 -1.4442306421e+01 -1.1726880265e+01 1.8726444844e+01 0.0000000000e+00 0.0000e+00 1.0000e+00
</event>
<event>
 9      3 +1.0086356e-04 9.11880000e+01 7.81616400e-03 1.18400000e-01
      -11 -1    0    0    0    0 +0.0000000000e+00 +0.0000000000e+00 +4.5593999997e+01 4.5594000000e+01 5.1100000000e-04 0.0000e+00 -1.0000e+00
       11 -1    0    0    0    0 -0.0000000000e+00 -0.0000000000e+00 -4.5593999997e+01 4.5594000000e+01 5.1100000000e-04 0.0000e+00 1.0000e+00
       23  2    1    2    0    0 -1.7763568394e-15 +2.6645352591e-15 +0.0000000000e+00 9.1188000000e+01 9.1188000000e+01 9.0464e-14 0.0000e+00
  9990012  2    3    3    0    0 -8.3963135124e+00 +7.4192695047e+00 +1.5004508453e+01 7.2461577104e+01 7.0000008871e+01 1.0152e-04 0.0000e+00
       23  2    4    4    0    0 -1.6832614446e+01 -1.4716057130e+00 +7.0130849348e+00 5.7830046582e+01 5.4860080158e+01 4.2225e-14 0.0000e+00
      -11  1    5    5    0    0 -7.5663925024e+00 +1.9938115014e+01 -1.4747133623e+01 2.5927913070e+01 5.1100000000e-04 0.0000e+00 1.0000e+00
       11  1    5    5    0    0 -9.2662219433e+00 -2.1409720727e+01 +2.1760218558e+01 3.1902133512e+01 5.1100000000e-04 0.0000e+00 -1.0000e+00
       12  1    4    4    0    0 +8.4363009333e+00 +8.8908752177e+00 +7.9914235178e+00 1.4631530522e+01 0.0000000000e+00 0.0000e+00 -1.0000e+00
      -12  1    3    3    0    0 +8.3963135124e+00 -7.4192695047e+00 -1.5004508453e+01 1.8726422896e+01 0.0000000000e+00 0.0000e+00 1.0000e+00
</event>
<event>
 9      4 +1.0086356e-04 9.11880000e+01 7.81616400e-03 1.18400000e-01
      -11 -1    0    0    0    0 +0.0000000000e+00 +0.0000000000e+00 +4.5593999997e+01 4.5594000000e+01 5.1100000000e-04 0.0000e+00 1.0000e+00
       11 -1    0    0    0    0 -0.0000000000e+00 -0.0000000000e+00 -4.5593999997e+01 4.5594000000e+01 5.1100000000e-04 0.0000e+00 -1.0000e+00
       23  2    1    2    0    0 -8.8817841970e-16 -3.5527136788e-15 +5.2735593670e-16 9.1188000000e+01 9.1188000000e+01 1.3399e-14 0.0000e+00
 -9990012  2    3    3    0    0 +2.3275445745e+00 -1.8580384437e+01 -1.7933150103e-01 7.2461539861e+01 6.9999960355e+01 1.8060e-04 0.0000e+00
      -24  2    4    4    0    0 +4.6556822447e+00 -2.7806897646e+01 +1.5211763459e+00 6.2795077311e+01 5.6089293303e+01 1.0762e-13 0.0000e+00
      -11  1    4    4    0    0 -2.3281376702e+00 +9.2265132098e+00 -1.7005078470e+00 9.6664625494e+00 5.1100000000e-04 0.0000e+00 1.0000e+00
       11  1    5    5    0    0 -9.6893854132e-01 +6.3980446124e+00 -2.0654492896e+01 2.1644442562e+01 5.1100000000e-04 0.0000e+00 -1.0000e+00
      -12  1    5    5    0    0 +5.6246207860e+00 -3.4204942259e+01 +2.2175669242e+01 4.1150634749e+01 0.0000000000e+00 0.0000e+00 1.0000e+00
       12  1    3    3    0    0 -2.3275445745e+00 +1.8580384437e+01 +1.7933150103e-01 1.8726460139e+01 0.0000000000e+00 0.0000e+00 -1.0000e+00
</event>
<event>
 8      3 +1.0086356e-04 9.11880000e+01 7.81616400e-03 1.18400000e-01
      -11 -1    0    0    0    0 +0.0000000000e+00 +0.0000000000e+00 +4.5593999997e+01 4.5594000000e+01 5.1100000000e-04 0.0000e+00 -1.0000e+00
       11 -1    0    0    0    0 -0.0000000000e+00 -0.0000000000e+00 -4.5593999997e+01 4.5594000000e+01 5.1100000000e-04 0.0000e+00 1.0000e+00
       23  2    1    2    0    0 +0.0000000000e+00 +1.7763568394e-15 +1.7763568394e-15 9.1188000000e+01 9.1188000000e+01 7.8258e-14 0.0000e+00
  9990012  2    3    3    0    0 +3.6975538241e+00 +1.0669262586e+01 +1.4939027276e+01 7.2461558684e+01 6.9999984875e+01 2.5144e-04 0.0000e+00
      -11  1    4    4    0    0 +3.7503486290e+00 +2.3314802394e+01 -1.2755697664e+01 2.6839391734e+01 5.1100000000e-04 0.0000e+00 1.0000e+00
       11  1    4    4    0    0 +1.3958746562e+01 -1.3815543897e+01 +7.5175103600e+00 2.1029237290e+01 5.1100000000e-04 0.0000e+00 -1.0000e+00
       12  1    4    4    0    0 -1.4011541367e+01 +1.1700040891e+00 +2.0177214580e+01 2.4592929660e+01 0.0000000000e+00 0.0000e+00 -1.0000e+00
      -12  1    3    3    0    0 -3.6975538241e+00 -1.0669262586e+01 -1.4939027276e+01 1.8726441316e+01 0.0000000000e+00 0.0000e+00 1.0000e+00
</event>
<event>
 8      3 +1.0086356e-04 9.11880000e+01 7.81616400e-03 1.18400000e-01
      -11 -1    0    0    0    0 +0.0000000000e+00 +0.0000000000e+00 +4.5593999997e+01 4.5594000000e+01 5.1100000000e-04 0.0000e+00 1.0000e+00
       11 -1    0    0    0    0 -0.0000000000e+00 -0.0000000000e+00 -4.5593999997e+01 4.5594000000e+01 5.1100000000e-04 0.0000e+00 -1.0000e+00
       23  2    1    2    0    0 +0.0000000000e+00 +2.2204460493e-15 -1.7763568394e-15 9.1188000000e+01 9.1188000000e+01 4.2251e-14 0.0000e+00
  9990012  2    3    3    0    0 -1.0790190106e+01 +2.2217519450e+00 -1.5143145730e+01 7.2461568230e+01 6.9999997311e+01 1.9824e-04 0.0000e+00
      -11  1    4    4    0    0 -3.7750782654e+00 +3.6790274912e+00 +1.3135175161e+01 1.4153419585e+01 5.1100000000e-04 0.0000e+00 1.0000e+00
       11  1    4    4    0    0 -2.2150272994e+01 +1.5066983619e+01 -7.6725715342e+00 2.7866053601e+01 5.1100000000e-04 0.0000e+00 -1.0000e+00
       12  1    4    4    0    0 +1.5135161153e+01 -1.6524259165e+01 -2.0605749357e+01 3.0442095044e+01 0.0000000000e+00 0.0000e+00 -1.0000e+00
      -12  1    3    3    0    0 +1.0790190106e+01 -2.2217519450e+00 +1.5143145730e+01 1.8726431770e+01 0.0000000000e+00 0.0000e+00 1.0000e+00
</event>
<event>
 9      3 +1.0086356e-04 9.11880000e+01 7.81616400e-03 1.18400000e-01
      -11 -1    0    0    0    0 +0.0000000000e+00 +0.0000000000e+00 +4.5593999997e+01 4.5594000000e+01 5.1100000000e-04 0.0000e+00 -1.0000e+00
       11 -1    0    0    0    0 -0.0000000000e+00 -0.0000000000e+00 -4.5593999997e+01 4.5594000000e+01 5.1100000000e-04 0.0000e+00 1.0000e+00
       23  2    1    2    0    0 +0.0000000000e+00 -1.7763568394e-15 +8.8817841970e-16 9.1188000000e+01 9.1188000000e+01 1.3555e-14 0.0000e+00
  9990012  2    3    3    0    0 -1.1046380600e+01 -1.5075324533e+01 +1.1796428962e+00 7.2461561697e+01 6.9999988801e+01 1.5848e-04 0.0000e+00
       24  2    4    4    0    0 -9.8827352508e+00 -5.7284445163e+00 +5.2869731001e-02 6.2975368858e+01 6.1930693158e+01 1.9931e-14 0.0000e+00
      -11  1    5    5    0    0 -1.2336773699e+01 +1.2494180342e+01 -2.5825969089e+01 3.1229492589e+01 5.1100000000e-04 0.0000e+00 1.0000e+00
       11  1    4    4    0    0 -1.1636453490e+00 -9.3468800170e+00 +1.1267731652e+00 9.4861928389e+00 5.1100000000e-04 0.0000e+00 -1.0000e+00
       12  1    5    5    0    0 +2.4540384482e+00 -1.8222624859e+01 +2.5878838820e+01 3.1745876269e+01 0.0000000000e+00 0.0000e+00 -1.0000e+00
      -12  1    3    3    0    0 +1.1046380600e+01 +1.5075324533e+01 -1.1796428962e+00 1.8726438303e+01 0.0000000000e+00 0.0000e+00 1.0000e+00
</event>
<event>
 9      4 +1.0086356e-04 9.11880000e+01 7.81616400e-03 1.18400000e-01
      -11 -1    0    0    0    0 +0.0000000000e+00 +0.0000000000e+00 +4.5593999997e+01 4.5594000000e+01 5.1100000000e-04 0.0000e+00 1.0000e+00
       11 -1    0    0    0    0 -0.0000000000e+00 -0.0000000000e+00 -4.5593999997e+01 4.5594000000e+01 5.1100000000e-04 0.0000e+00 -1.0000e+00
       23  2    1    2    0    0 +1.7763568394e-15 -1.6098233857e-15 +0.0000000000e+00 9.1188000000e+01 9.1188000000e+01 3.0420e-14 0.0000e+00
 -9990012  2    3    3    0    0 +6.8569525435e+00 -1.3394317013e-01 +1.7425344488e+01 7.2461591656e+01 7.0000027827e+01 1.1130e-04 0.0000e+00
      -24  2    4    4    0    0 +1.1124048126e+01 -1.2688441134e+01 +9.3436245340e+00 5.6932981882e+01 5.3566035148e+01 1.0269e-13 0.0000e+00
      -11  1    4    4    0    0 -4.2670955823e+00 +1.2554497964e+01 +8.0817199537e+00 1.5528609774e+01 5.1100000000e-04 0.0000e+00 1.0000e+00
       11  1    5    5    0    0 +7.9796543337e-01 -3.2927666333e+01 +1.7780690346e+00 3.2985292006e+01 5.1100000000e-04 0.0000e+00 -1.0000e+00
      -12  1    5    5    0    0 +1.0326082692e+01 +2.0239225199e+01 +7.5655554994e+00 2.3947689877e+01 0.0000000000e+00 0.0000e+00 1.0000e+00
       12  1    3    3    0    0 -6.8569525435e+00 +1.3394317013e-01 -1.7425344488e+01 1.8726408344e+01 0.0000000000e+00 0.0000e+00 -1.0000e+00
</event>
<event>
 9      3 +1.0086356e-04 9.11880000e+01 7.81616400e-03 1.18400000e-01
      -11 -1    0    0    0    0 +0.0000000000e+00 +0.0000000000e+00 +4.5593999997e+01 4.5594000000e+01 5.1100000000e-04 0.0000e+00 1.0000e+00
       11 -1    0    0    0    0 -0.0000000000e+00 -0.0000000000e+00 -4.5593999997e+01 4.5594000000e+01 5.1100000000e-04 0.0000e+00 -1.0000e+00
       23  2    1    2    0    0 +3.5527136788e-15 +0.0000000000e+00 +0.0000000000e+00 9.1188000000e+01 9.1188000000e+01 1.7823e-14 0.0000e+00
  9990012  2    3    3    0    0 -9.3882863984e+00 -1.5415142245e+01 -4.9912023637e+00 7.2461584621e+01 7.0000018663e+01 3.3025e-04 0.0000e+00
       24  2    4    4    0    0 -2.7966424850e+00 -2.3056944482e+01 +8.1394102492e+00 5.5900790595e+01 5.0191677516e+01 6.1340e-14 0.0000e+00
      -11  1    5    5    0    0 +2.2020867024e+01 -5.2103531755e+00 -4.0564126854e+00 2.2989581310e+01 5.1100000000e-04 0.0000e+00 1.0000e+00
       11  1    4    4    0    0 -6.5916439134e+00 +7.6418022379e+00 -1.3130612613e+01 1.6560794026e+01 5.1100000000e-04 0.0000e+00 -1.0000e+00
       12  1    5    5    0    0 -2.4817509509e+01 -1.7846591307e+01 +1.2195822935e+01 3.2911209284e+01 0.0000000000e+00 0.0000e+00 -1.0000e+00
      -12  1    3    3    0    0 +9.3882863984e+00 +1.5415142245e+01 +4.9912023637e+00 1.8726415379e+01 0.0000000000e+00 0.0000e+00 1.0000e+00
</event>
<event>
 8      4 +1.0086356e-04 9.11880000e+01 7.81616400e-03 1.18400000e-01
      -11 -1    0    0    0    0 +0.0000000000e+00 +0.0000000000e+00 +4.5593999997e+01 4.5594000000e+01 5.1100000000e-04 0.0000e+00 -1.0000e+00
       11 -1    0    0    0    0 -0.0000000000e+00 -0.0000000000e+00 -4.5593999997e+01 4.5594000000e+01 5.1100000000e-04 0.0000e+00 1.0000e+00
       23  2    1    2    0    0 -8.8817841970e-16 +0.0000000000e+00 -4.4408920985e-15 9.1188000000e+01 9.1188000000e+01 1.8336e-14 0.0000e+00
 -9990012  2    3    3    0    0 +9.0293058297e-01 -1.7366451349e+01 -6.9477322247e+00 7.2461550813e+01 6.9999974622e+01 2.8464e-06 0.0000e+00
      -11  1    4    4    0    0 +2.3245108617e+00 -1.3606429282e+00 +1.0314834890e+01 1.0660699742e+01 5.1100000000e-04 0.0000e+00 1.0000e+00
       11  1    4    4    0    0 +1.1246565157e+01 -1.3360981941e+01 +1.7490307139e+01 2.4716632261e+01 5.1100000000e-04 0.0000e+00 -1.0000e+00
      -12  1    4    4    0    0 -1.2668145435e+01 -2.6448264791e+00 -3.4752874253e+01 3.7084218810e+01 0.0000000000e+00 0.0000e+00 1.0000e+00
       12  1    3    3    0    0 -9.0293058297e-01 +1.7366451349e+01 +6.9477322247e+00 1.8726449187e+01 0.0000000000e+00 0.0000e+00 -1.0000e+00
</event>
<event>
 8      3 +1.0086356e-04 9.11880000e+01 7.81616400e-03 1.18400000e-01
      -11 -1    0    0    0    0 +0.0000000000e+00 +0.0000000000e+00 +4.5593999997e+01 4.5594000000e+01 5.1100000000e-04 0.0000e+00 -1.0000e+00
       11 -1    0    0    0    0 -0.0000000000e+00 -0.0000000000e+00 -4.5593999997e+01 4.5594000000e+01 5.1100000000e-04 0.0000e+00 1.0000e+00
       23  2    1    2    0    0 +0.0000000000e+00 +8.8817841970e-16 +3.5527136788e-15 9.1188000000e+01 9.1188000000e+01 2.8848e-15 0.0000e+00
  9990012  2    3    3    0    0 +6.3956202066e+00 +4.1161878887e+00 +1.7112166182e+01 7.2461729896e+01 7.0000207911e+01 4.9431e-04 0.0000e+00
      -11  1    4    4    0    0 -1.4867645095e+01 -1.0224271253e+01 +1.9837747768e+01 2.6816391071e+01 5.1100000000e-04 0.0000e+00 1.0000e+00
       11  1    4    4    0    0 -3.1873660018e+00 -6.2272716150e+00 +9.1857775377e+00 1.1546286114e+01 5.1100000000e-04 0.0000e+00 -1.0000e+00
       12  1    4    4    0    0 +2.4450631303e+01 +2.0567730757e+01 -1.1911359124e+01 3.4099052711e+01 0.0000000000e+00 0.0000e+00 -1.0000e+00
      -12  1    3    3    0    0 -6.3956202066e+00 -4.1161878887e+00 -1.7112166182e+01 1.8726270104e+01 0.0000000000e+00 0.0000e+00 1.0000e+00
</event>
<event>
 8      3 +1.0086356e-04 9.11880000e+01 7.81616400e-03 1.18400000e-01
      -11 -1    0    0    0    0 +0.0000000000e+00 +0.0000000000e+00 +4.5593999997e+01 4.5594000000e+01 5.1100000000e-04 0.0000e+00 1.0000e+00
       11 -1    0    0    0    0 -0.0000000000e+00 -0.0000000000e+00 -4.5593999997e+01 4.5594000000e+01 5.1100000000e-04 0.0000e+00 -1.0000e+00
       23  2    1    2    0    0 +1.3322676296e-15 +0.0000000000e+00 +0.0000000000e+00 9.1188000000e+01 9.1188000000e+01 1.4379e-14 0.0000e+00
  9990012  2    3    3    0    0 +3.4935350683e+00 +2.5624378507e+00 -1.8218314006e+01 7.2461605786e+01 7.0000046235e+01 2.9727e-04 0.0000e+00
      -11  1    4    4    0    0 +1.5290603890e+01 -1.1603848007e+00 +1.8819635358e+01 2.4276073312e+01 5.1100000000e-04 0.0000e+00 1.0000e+00
       11  1    4    4    0    0 -1.7793032796e+01 -4.7707927523e+00 -1.4775377586e+01 2.3614916104e+01 5.1100000000e-04 0.0000e+00 -1.0000e+00
       12  1    4    4    0    0 +5.9959639740e+00 +8.4936154037e+00 -2.2262571778e+01 2.4570616370e+01 0.0000000000e+00 0.0000e+00 -1.0000e+00
      -12  1    3    3    0    0 -3.4935350683e+00 -2.5624378507e+00 +1.8218314006e+01 1.8726394214e+01 0.0000000000e+00 0.0000e+00 1.0000e+00
</event>
<event>
 9      4 +1.0086356e-04 9.11880000e+01 7.81616400e-03 1.18400000e-01
      -11 -1    0    0    0    0 +0.0000000000e+00 +0.0000000000e+00 +4.5593999997e+01 4.5594000000e+01 5.1100000000e-04 0.0000e+00 -1.0000e+00
       11 -1    0    0    0    0 -0.0000000000e+00 -0.0000000000e+00 -4.5593999997e+01 4.5594000000e+01 5.1100000000e-04 0.0000e+00 1.0000e+00
       23  2    1    2    0    0 +0.0000000000e+00 +4.4408920985e-16 +1.7763568394e-15 9.1188000000e+01 9.1188000000e+01 2.7363e-14 0.0000e+00
 -9990012  2    3    3    0    0 +1.5604468462e+01 +3.6581001835e+00 -9.6849851654e+00 7.2461546236e+01 6.9999968659e+01 3.1195e-04 0.0000e+00
      -24  2    4    4    0    0 +1.9972325174e+01 +4.6569099188e+00 -1.9789923709e+01 6.1407787763e+01 5.4393885086e+01 4.2426e-14 0.0000e+00
      -11  1    4    4    0    0 -4.3678567120e+00 -9.9880973536e-01 +1.0104938543e+01 1.1053758472e+01 5.1100000000e-04 0.0000e+00 1.0000e+00
       11  1    5    5    0    0 +3.6859524627e-01 +7.3452223703e+00 +1.7616623455e+01 1.9090143434e+01 5.1100000000e-04 0.0000e+00 -1.0000e+00
      -12  1    5    5    0    0 +1.9603729928e+01 -2.6883124515e+00 -3.7406547163e+01 4.2317644329e+01 0.0000000000e+00 0.0000e+00 1.0000e+00
       12  1    3    3    0    0 -1.5604468462e+01 -3.6581001835e+00 +9.6849851654e+00 1.8726453764e+01 0.0000000000e+00 0.0000e+00 -1.0000e+00
</event>
<event>
 9      3 +1.0086356e-04 9.11880000e+01 7.81616400e-03 1.18400000e-01
      -11 -1    0    0    0    0 +0.0000000000e+00 +0.0000000000e+00 +4.5593999997e+01 4.5594000000e+01 5.1100000000e-04 0.0000e+00 1.0000e+00
       11 -1    0    0    0    0 -0.0000000000e+00 -0.0000000000e+00 -4.5593999997e+01 4.5594000000e+01 5.1100000000e-04 0.0000e+00 -1.0000e+00
       23  2    1    2    0    0 +0.0000000000e+00 -1.7763568394e-15 -1.7763568394e-15 9.1188000000e+01 9.1188000000e+01 6.6827e-14 0.0000e+00
  9990012  2    3    3    0    0 +7.0410510405e+00 +1.4467313556e+01 -9.5812944666e+00 7.2461527697e+01 6.9999944509e+01 2.8931e-05 0.0000e+00
       24  2    4    4    0    0 -5.3648029474e+00 +2.5302512917e+01 -9.2448390068e+00 5.5986699597e+01 4.8785707056e+01 9.6693e-14 0.0000e+00
      -11  1    5    5    0    0 +1.9977106961e+01 +1.5586328547e+00 -6.8524161438e+00 2.1177104291e+01 5.1100000000e-04 0.0000e+00 1.0000e+00
       11  1    4    4    0    0 +1.2405853988e+01 -1.0835199362e+01 -3.3645545973e-01 1.6474828100e+01 5.1100000000e-04 0.0000e+00 -1.0000e+00
       12  1    5    5    0    0 -2.5341909908e+01 +2.3743880062e+01 -2.3924228631e+00 3.4809595306e+01 0.0000000000e+00 0.0000e+00 -1.0000e+00
      -12  1    3    3    0    0 -7.0410510405e+00 -1.4467313556e+01 +9.5812944666e+00 1.8726472303e+01 0.0000000000e+00 0.0000e+00 1.0000e+00
</event>
<event>
 9      4 +1.0086356e-04 9.11880000e+01 7.81616400e-03 1.18400000e-01
      -11 -1    0    0    0    0 +0.0000000000e+00 +0.0000000000e+00 +4.5593999997e+01 4.5594000000e+01 5.1100000000e-04 0.0000e+00 -1.0000e+00
       11 -1    0    0    0    0 -0.0000000000e+00 -0.0000000000e+00 -4.5593999997e+01 4.5594000000e+01 5.1100000000e-04 0.0000e+00 1.0000e+00
       23  2    1    2    0    0 -2.2204460493e-15 -3.5527136788e-15 +0.0000000000e+00 9.1188000000e+01 9.1188000000e+01 2.0298e-13 0.0000e+00
 -9990012  2    3    3    0    0 -2.5577486437e+00 -1.4561938016e+01 +1.1492849089e+01 7.2461609609e+01 7.0000051215e+01 1.9906e-04 0.0000e+00
      -24  2    4    4    0    0 -9.6677987987e+00 -2.4233864991e+01 +1.3487587393e+01 6.0292880596e+01 5.2655198137e+01 1.7388e-13 0.0000e+00
      -11  1    4    4    0    0 +7.1100501551e+00 +9.6719269754e+00 -1.9947383043e+00 1.2168729013e+01 5.1100000000e-04 0.0000e+00 1.0000e+00
       11  1    5    5    0    0 -3.5937661623e+00 -2.6790578022e+00 +3.1336652144e+01 3.1655619940e+01 5.1100000000e-04 0.0000e+00 -1.0000e+00
      -12  1    5    5    0    0 -6.0740326364e+00 -2.1554807189e+01 -1.7849064751e+01 2.8637260656e+01 0.0000000000e+00 0.0000e+00 1.0000e+00
       12  1    3    3    0    0 +2.5577486437e+00 +1.4561938016e+01 -1.1492849089e+01 1.8726390391e+01 0.0000000000e+00 0.0000e+00 -1.0000e+00
</event>
<event>
 8      3 +1.0086356e-04 9.11880000e+01 7.81616400e-03 1.18400000e-01
      -11 -1    0    0    0    0 +0.0000000000e+00 +0.0000000000e+00 +4.5593999997e+01 4.5594000000e+01 5.1100000000e-04 0.0000e+00 1.0000e+00
       11 -1    0    0    0    0 -0.0000000000e+00 -0.0000000000e+00 -4.5593999997e+01 4.5594000000e+01 5.1100000000e-04 0.0000e+00 -1.0000e+00
       23  2    1    2    0    0 +2.0539125956e-15 +0.0000000000e+00 +0.0000000000e+00 9.1188000000e+01 9.1188000000e+01 1.4404e-14 0.0000e+00
  9990012  2    3    3    0    0 -1.9265660377e-01 -8.9029606423e+00 -1.6473603297e+01 7.2461563330e+01 6.9999990927e+01 5.3945e-05 0.0000e+00
      -11  1    4    4    0    0 +1.2181402893e+01 -2.6596177129e+01 -1.5495440074e+01 3.3103653539e+01 5.1100000000e-04 0.0000e+00 1.0000e+00
       11  1    4    4    0    0 +5.5537121246e+00 +9.1956522177e+00 +1.1644659124e+01 1.5843037097e+01 5.1100000000e-04 0.0000e+00 -1.0000e+00
       12  1    4    4    0    0 -1.7927771621e+01 +8.4975642688e+00 -1.2622822348e+01 2.3514872694e+01 0.0000000000e+00 0.0000e+00 -1.0000e+00
      -12  1    3    3    0    0 +1.9265660377e-01 +8.9029606423e+00 +1.6473603297e+01 1.8726436670e+01 0.0000000000e+00 0.0000e+00 1.0000e+00
</event>
<event>
 8      4 +1.0086356e-04 9.11880000e+01 7.81616400e-03 1.18400000e-01
      -11 -1    0    0    0    0 +0.0000000000e+00 +0.0000000000e+00 +4.5593999997e+01 4.5594000000e+01 5.1100000000e-04 0.0000e+00 -1.0000e+00
       11 -1    0    0    0    0 -0.0000000000e+00 -0.0000000000e+00 -4.5593999997e+01 4.5594000000e+01 5.1100000000e-04 0.0000e+00 1.0000e+00
       23  2    1    2    0    0 -1.7763568394e-15 +1.7763568394e-15 +1.7763568394e-15 9.1188000000e+01 9.1188000000e+01 1.4180e-14 0.0000e+00
 -9990012  2    3    3    0    0 +1.3907510071e+01 +1.1502403694e+01 -4.9955312298e+00 7.2461562555e+01 6.9999989919e+01 1.2705e-04 0.0000e+00
      -11  1    4    4    0    0 +1.9819735542e+01 +2.4144601815e+01 -2.6315089182e+01 4.0844432089e+01 5.1100000000e-04 0.0000e+00 1.0000e+00
       11  1    4    4    0    0 -1.0848518138e+01 -1.4680490048e+00 +1.2065609426e+01 1.6291852097e+01 5.1100000000e-04 0.0000e+00 -1.0000e+00
      -12  1    4    4    0    0 +4.9362926668e+00 -1.1174149117e+01 +9.2539485256e+00 1.5325278369e+01 0.0000000000e+00 0.0000e+00 1.0000e+00
       12  1    3    3    0    0 -1.3907510071e+01 -1.1502403694e+01 +4.9955312298e+00 1.8726437445e+01 0.0000000000e+00 0.0000e+00 -1.0000e+00
</event>
<event>
 9      4 +1.0086356e-04 9.11880000e+01 7.81616400e-03 1.18400000e-01
      -11 -1    0    0    0    0 +0.0000000000e+00 +0.0000000000e+00 +4.5593999997e+01 4.5594000000e+01 5.1100000000e-04 0.0000e+00 1.0000e+00
       11 -1    0    0    0    0 -0.0000000000e+00 -0.0000000000e+00 -4.5593999997e+01 4.5594000000e+01 5.1100000000e-04 0.0000e+00 -1.0000e+00
       23  2    1    2    0    0 -1.7763568394e-15 +0.0000000000e+00 +0.0000000000e+00 9.1188000000e+01 9.1188000000e+01 2.4733e-13 0.0000e+00
 -9990012  2    3    3    0    0 -4.5136950878e+00 +1.7320544223e+01 +5.5043311790e+00 7.2461752184e+01 7.0000236945e+01 2.6998e-04 0.0000e+00
      -24  2    4    4    0    0 -1.2446047985e+01 +1.0539107287e+01 -2.6663160089e-01 6.0536395960e+01 5.8297574998e+01 8.5929e-14 0.0000e+00
      -11  1    4    4    0    0 +7.9323528967e+00 +6.7814369362e+00 +5.7709627798e+00 1.1925356224e+01 5.1100000000e-04 0.0000e+00 1.0000e+00
       11  1    5    5    0    0 +1.7594006725e+01 +6.8247564492e-01 -1.7248886840e+01 2.4648305076e+01 5.1100000000e-04 0.0000e+00 -1.0000e+00
      -12  1    5    5    0    0 -3.0040054710e+01 +9.8566316422e+00 +1.6982255239e+01 3.5888090884e+01 0.0000000000e+00 0.0000e+00 1.0000e+00
       12  1    3    3    0    0 +4.5136950878e+00 -1.7320544223e+01 -5.5043311790e+00 1.8726247816e+01 0.0000000000e+00 0.0000e+00 -1.0000e+00
</event>
<event>
 8      3 +1.0086356e-04 9.11880000e+01 7.81616400e-03 1.18400000e-01
      -11 -1    0    0    0    0 +0.0000000000e+00 +0.0000000000e+00 +4.5593999997e+01 4.5594000000e+01 5.1100000000e-04 0.0000e+00 -1.0000e+00
       11 -1    0    0    0    0 -0.0000000000e+00 -0.0000000000e+00 -4.5593999997e+01 4.5594000000e+01 5.1100000000e-04 0.0000e+00 1.0000e+00
       23  2    1    2    0    0 +0.0000000000e+00 +0.0000000000e+00 +0.0000000000e+00 9.1188000000e+01 9.1188000000e+01 5.3678e-14 0.0000e+00
  9990012  2    3    3    0    0 +1.6660052166e+01 +8.4556537554e+00 +1.2742707755e+00 7.2461569891e+01 6.9999999475e+01 2.2700e-04 0.0000e+00
      -11  1    4    4    0    0 -4.5172826960e+00 -2.2851323812e+01 -3.8817858602e+00 2.3614764548e+01 5.1100000000e-04 0.0000e+00 -1.0000e+00
       11  1    4    4    0    0 +6.2216068572e+00 +2.0248042871e+01 -1.1303430390e+01 2.4009564153e+01 5.1100000000e-04 0.0000e+00 1.0000e+00
       12  1    4    4    0    0 +1.4955728005e+01 +1.1058934697e+01 +1.6459487025e+01 2.4837241190e+01 0.0000000000e+00 0.0000e+00 -1.0000e+00
      -12  1    3    3    0    0 -1.6660052166e+01 -8.4556537554e+00 -1.2742707755e+00 1.8726430109e+01 0.0000000000e+00 0.0000e+00 1.0000e+00
</event>
<event>
 9      3 +1.0086356e-04 9.11880000e+01 7.81616400e-03 1.18400000e-01
      -11 -1    0    0    0    0 +0.0000000000e+00 +0.0000000000e+00 +4.5593999997e+01 4.5594000000e+01 5.1100000000e-04 0.0000e+00 -1.0000e+00
       11 -1    0    0    0    0 -0.0000000000e+00 -0.0000000000e+00 -4.5593999997e+01 4.5594000000e+01 5.1100000000e-04 0.0000e+00 1.0000e+00
       23  2    1    2    0    0 -1.7763568394e-15 -1.7763568394e-15 -4.4408920985e-16 9.1188000000e+01 9.1188000000e+01 2.1843e-14 0.0000e+00
  9990012  2    3    3    0    0 +1.4610595928e+01 +1.1158886434e+01 -3.5620854289e+00 7.2461582499e+01 7.0000015899e+01 4.9409e-05 0.0000e+00
       24  2    4    4    0    0 +1.6073772558e+01 -6.7354976669e+00 -4.4839799344e+00 5.4483825188e+01 5.1426141582e+01 2.8453e-14 0.0000e+00
      -11  1    5    5    0    0 -1.3577170966e+01 -1.7323999353e+01 -6.4546662099e+00 2.2937376510e+01 5.1100000000e-04 0.0000e+00 1.0000e+00
       11  1    4    4    0    0 -1.4631766293e+00 +1.7894384100e+01 +9.2189450555e-01 1.7977757311e+01 5.1100000000e-04 0.0000e+00 -1.0000e+00
       12  1    5    5    0    0 +2.9650943524e+01 +1.0588501686e+01 +1.9706862755e+00 3.1546448678e+01 0.0000000000e+00 0.0000e+00 -1.0000e+00
      -12  1    3    3    0    0 -1.4610595928e+01 -1.1158886434e+01 +3.5620854289e+00 1.8726417501e+01 0.0000000000e+00 0.0000e+00 1.0000e+00
</event>
<event>
 8      3 +1.0086356e-04 9.11880000e+01 7.81616400e-03 1.18400000e-01
      -11 -1    0    0    0    0 +0.0000000000e+00 +0.0000000000e+00 +4.5593999997e+01 4.5594000000e+01 5.1100000000e-04 0.0000e+00 1.0000e+00
       11 -1    0    0    0    0 -0.0000000000e+00 -0.0000000000e+00 -4.5593999997e+01 4.5594000000e+01 5.1100000000e-04 0.0000e+00 -1.0000e+00
       23  2    1    2    0    0 -1.7763568394e-15 +0.0000000000e+00 -1.7763568394e-15 9.1188000000e+01 9.1188000000e+01 2.0579e-13 0.0000e+00
  9990012  2    3    3    0    0 +4.3861825670e+00 +1.6236232837e+01 -8.2355498461e+00 7.2461597903e+01 7.0000035965e+01 2.9548e-04 0.0000e+00
      -11  1    4    4    0    0 -2.2565002391e+01 +1.2236775160e+01 +6.9941059723e+00 2.6605178403e+01 5.1100000000e-04 0.0000e+00 1.0000e+00
       11  1    4    4    0    0 +1.9292638255e+01 +1.6910120467e+01 -1.8051847716e+00 2.5718023979e+01 5.1100000000e-04 0.0000e+00 -1.0000e+00
       12  1    4    4    0    0 +7.6585467034e+00 -1.2910662790e+01 -1.3424471047e+01 2.0138395521e+01 0.0000000000e+00 0.0000e+00 -1.0000e+00
      -12  1    3    3    0    0 -4.3861825670e+00 -1.6236232837e+01 +8.2355498461e+00 1.8726402097e+01 0.0000000000e+00 0.0000e+00 1.0000e+00
</event>
<event>
 9      3 +1.0086356e-04 9.11880000e+01 7.81616400e-03 1.18400000e-01
      -11 -1    0    0    0    0 +0.0000000000e+00 +0.0000000000e+00 +4.5593999997e+01 4.5594000000e+01 5.1100000000e-04 0.0000e+00 1.0000e+00
       11 -1    0    0    0    0 -0.0000000000e+00 -0.0000000000e+00 -4.5593999997e+01 4.5594000000e+01 5.1100000000e-04 0.0000e+00 -1.0000e+00
       23  2    1    2    0    0 +0.0000000000e+00 +0.0000000000e+00 +3.5527136788e-15 9.1188000000e+01 9.1188000000e+01 1.8710e-15 0.0000e+00
  9990012  2    3    3    0    0 +8.0912357534e+00 +5.2453463768e+00 -1.6053046727e+01 7.2461493015e+01 6.9999899330e+01 1.8200e-04 0.0000e+00
       24  2    4    4    0    0 +7.3523228685e+00 +1.1780557651e+01 -1.6326858222e+01 6.5878943992e+01 6.2294709020e+01 4.0517e-13 0.0000e+00
      -11  1    5    5    0    0 -1.6302546908e+01 +2.1223759539e+01 +1.0626739010e+01 2.8794940300e+01 5.1100000000e-04 0.0000e+00 1.0000e+00
       11  1    4    4    0    0 +7.3891288484e-01 -6.5352112743e+00 +2.7381149543e-01 6.5825490235e+00 5.1100000000e-04 0.0000e+00 -1.0000e+00
       12  1    5    5    0    0 +2.3654869777e+01 -9.4432018877e+00 -2.6953597232e+01 3.7084003692e+01 0.0000000000e+00 0.0000e+00 -1.0000e+00
      -12  1    3    3    0    0 -8.0912357534e+00 -5.2453463768e+00 +1.6053046727e+01 1.8726506985e+01 0.0000000000e+00 0.0000e+00 1.0000e+00
</event>
<event>
 9      4 +1.0086356e-04 9.11880000e+01 7.81616400e-03 1.18400000e-01
      -11 -1    0    0    0    0 +0.0000000000e+00 +0.0000000000e+00 +4.5593999997e+01 4.5594000000e+01 5.1100000000e-04 0.0000e+00 1.0000e+00
       11 -1    0    0    0    0 -0.0000000000e+00 -0.0000000000e+00 -4.5593999997e+01 4.5594000000e+01 5.1100000000e-04 0.0000e+00 -1.0000e+00
       23  2    1    2    0    0 -1.7763568394e-15 -8.8817841970e-16 +1.7763568394e-15 9.1188000000e+01 9.1188000000e+01 8.0655e-14 0.0000e+00
 -9990012  2    3    3    0    0 -1.5729494622e+01 +6.0977448838e+00 +8.1289373593e+00 7.2461571714e+01 7.0000001850e+01 3.2907e-04 0.0000e+00
      -24  2    4    4    0    0 -9.7297381850e+00 +1.2338096849e+01 +1.6170576633e+01 6.0646029728e+01 5.6298818230e+01 6.1847e-14 0.0000e+00
      -11  1    4    4    0    0 -5.9997564373e+00 -6.2403519653e+00 -8.0416392739e+00 1.1815541986e+01 5.1100000000e-04 0.0000e+00 1.0000e+00
       11  1    5    5    0    0 +8.9155459476e+00 -1.8657133702e+01 +1.2798051198e+01 2.4318012095e+01 5.1100000000e-04 0.0000e+00 -1.0000e+00
      -12  1    5    5    0    0 -1.8645284133e+01 +3.0995230552e+01 +3.3725254355e+00 3.6328017633e+01 0.0000000000e+00 0.0000e+00 1.0000e+00
       12  1    3    3    0    0 +1.5729494622e+01 -6.0977448838e+00 -8.1289373593e+00 1.8726428286e+01 0.0000000000e+00 0.0000e+00 -1.0000e+00
</event>
<event>
 8      4 +1.0086356e-04 9.11880000e+01 7.81616400e-03 1.18400000e-01
      -11 -1    0    0    0    0 +0.0000000000e+00 +0.0000000000e+00 +4.5593999997e+01 4.5594000000e+01 5.1100000000e-04 0.0000e+00 -1.0000e+00
       11 -1    0    0    0    0 -0.0000000000e+00 -0.0000000000e+00 -4.5593999997e+01 4.5594000000e+01 5.1100000000e-04 0.0000e+00 1.0000e+00
       23  2    1    2    0    0 +8.8817841970e-16 +3.5527136788e-15 +1.7763568394e-15 9.1188000000e+01 9.1188000000e+01 1.0778e-13 0.0000e+00
 -9990012  2    3    3    0    0 -7.6460948959e+00 -1.0876497204e+01 -1.3187808078e+01 7.2461568399e+01 6.9999997531e+01 2.7530e-05 0.0000e+00
      -11  1    4    4    0    0 -1.6306151700e+01 -1.7022532460e+01 -7.9139879645e+00 2.4865405695e+01 5.1100000000e-04 0.0000e+00 -1.0000e+00
       11  1    4    4    0    0 -1.5361439015e+01 +1.4103264793e+01 +2.7849092253e+00 2.1038811898e+01 5.1100000000e-04 0.0000e+00 1.0000e+00
      -12  1    4    4    0    0 +2.4021495819e+01 -7.9572295368e+00 -8.0587293393e+00 2.6557350806e+01 0.0000000000e+00 0.0000e+00 1.0000e+00
       12  1    3    3    0    0 +7.6460948959e+00 +1.0876497204e+01 +1.3187808078e+01 1.8726431601e+01 0.0000000000e+00 0.0000e+00 -1.0000e+00
</event>
<event>
 8      4 +1.0086356e-04 9.11880000e+01 7.81616400e-03 1.18400000e-01
      -11 -1    0    0    0    0 +0.0000000000e+00 +0.0000000000e+00 +4.5593999997e+01 4.5594000000e+01 5.1100000000e-04 0.0000e+00 1.0000e+00
       11 -1    0    0    0    0 -0.0000000000e+00 -0.0000000000e+00 -4.5593999997e+01 4.5594000000e+01 5.1100000000e-04 0.0000e+00 -1.0000e+00
       23  2    1    2    0    0 +0.0000000000e+00 +4.4408920985e-16 +1.7763568394e-15 9.1188000000e+01 9.1188000000e+01 4.6566e-14 0.0000e+00
 -9990012  2    3    3    0    0 +1.5234067897e+01 -2.2616511300e+00 +1.0653068094e+01 7.2461554786e+01 6.9999979798e+01 4.1525e-04 0.0000e+00
      -11  1    4    4    0    0 -6.0281646852e+00 +7.9147880881e+00 +3.3781896707e+01 3.5216461852e+01 5.1100000000e-04 0.0000e+00 1.0000e+00
       11  1    4    4    0    0 +3.1913724724e+00 -7.7661748224e+00 -1.5199578610e+01 1.7364490197e+01 5.1100000000e-04 0.0000e+00 -1.0000e+00
      -12  1    4    4    0    0 +1.8070860110e+01 -2.4102643957e+00 -7.9292500037e+00 1.9880602737e+01 0.0000000000e+00 0.0000e+00 1.0000e+00
       12  1    3    3    0    0 -1.5234067897e+01 +2.2616511300e+00 -1.0653068094e+01 1.8726445214e+01 0.0000000000e+00 0.0000e+00 -1.0000e+00
</event>
<event>
 9      3 +1.0086356e-04 9.11880000e+01 7.81616400e-03 1.18400000e-01
      -11 -1    0    0    0    0 +0.0000000000e+00 +0.0000000000e+00 +4.5593999997e+01 4.5594000000e+01 5.1100000000e-04 0.0000e+00 1.0000e+00
       11 -1    0    0    0    0 -0.0000000000e+00 -0.0000000000e+00 -4.5593999997e+01 4.5594000000e+01 5.1100000000e-04 0.0000e+00 -1.0000e+00
       23  2    1    2    0    0 -8.8817841970e-16 +0.0000000000e+00 +1.7763568394e-15 9.1188000000e+01 9.1188000000e+01 3.6315e-14 0.0000e+00
  9990012  2    3    3    0    0 +2.7804399844e+00 +9.8448584442e+00 +1.5685247903e+01 7.2461572523e+01 7.0000002903e+01 1.3705e-04 0.0000e+00
       24  2    4    4    0    0 +8.7567980952e+00 +3.1147813476e-01 +1.9981070663e+01 6.0417640862e+01 5.6340656821e+01 1.2169e-14 0.0000e+00
      -11  1    5    5    0    0 -6.8091366669e+00 +1.8247173308e+01 +2.9068419564e+01 3.4989951301e+01 5.1100000000e-04 0.0000e+00 1.0000e+00
       11  1    4    4    0    0 -5.9763581109e+00 +9.5333803094e+00 -4.2958227603e+00 1.2043931660e+01 5.1100000000e-04 0.0000e+00 -1.0000e+00
       12  1    5    5    0    0 +1.5565934762e+01 -1.7935695173e+01 -9.0873489010e+00 2.5427689561e+01 0.0000000000e+00 0.0000e+00 -1.0000e+00
      -12  1    3    3    0    0 -2.7804399844e+00 -9.8448584442e+00 -1.5685247903e+01 1.8726427477e+01 0.0000000000e+00 0.0000e+00 1.0000e+00
</event>
<event>
 9      4 +1.0086356e-04 9.11880000e+01 7.81616400e-03 1.18400000e-01
      -11 -1    0    0    0    0 +0.0000000000e+00 +0.0000000000e+00 +4.5593999997e+01 4.5594000000e+01 5.1100000000e-04 0.0000e+00 1.0000e+00
       11 -1    0    0    0    0 -0.0000000000e+00 -0.0000000000e+00 -4.5593999997e+01 4.5594000000e+01 5.1100000000e-04 0.0000e+00 -1.0000e+00
       23  2    1    2    0    0 +2.2204460493e-16 +1.7763568394e-15 +0.0000000000e+00 9.1188000000e+01 9.1188000000e+01 1.4425e-13 0.0000e+00
 -9990012  2    3    3    0    0 -1.4665203449e+00 -1.5352980980e+01 +1.0621286734e+01 7.2461643206e+01 7.0000094981e+01 7.0285e-06 0.0000e+00
      -24  2    4    4    0    0 -1.1008891962e+01 -7.3594078323e+00 +2.2116593912e+01 5.5517731169e+01 4.9170297559e+01 2.6222e-14 0.0000e+00
      -11  1    4    4    0    0 +9.5423716173e+00 -7.9935731473e+00 -1.1495307178e+01 1.6943912037e+01 5.1100000000e-04 0.0000e+00 -1.0000e+00
       11  1    5    5    0    0 +1.2646013744e+01 -2.1843809157e+00 +2.7823010691e+01 3.0640057242e+01 5.1100000000e-04 0.0000e+00 1.0000e+00
      -12  1    5    5    0    0 -2.3654905706e+01 -5.1750269166e+00 -5.7064167793e+00 2.4877673927e+01 0.0000000000e+00 0.0000e+00 1.0000e+00
       12  1    3    3    0    0 +1.4665203449e+00 +1.5352980980e+01 -1.0621286734e+01 1.8726356794e+01 0.0000000000e+00 0.0000e+00 -1.0000e+00
</event>
<event>
 9      4 +1.0086356e-04 9.11880000e+01 7.81616400e-03 1.18400000e-01
      -11 -1    0    0    0    0 +0.0000000000e+00 +0.0000000000e+00 +4.5593999997e+01 4.5594000000e+01 5.1100000000e-04 0.0000e+00 1.0000e+00
       11 -1    0    0    0    0 -0.0000000000e+00 -0.0000000000e+00 -4.5593999997e+01 4.5594000000e+01 5.1100000000e-04 0.0000e+00 -1.0000e+00
       23  2    1    2    0    0 +1.7763568394e-15 +1.7763568394e-15 +0.0000000000e+00 9.1188000000e+01 9.1188000000e+01 4.6414e-14 0.0000e+00
 -9990012  2    3    3    0    0 -1.5830626409e+01 -8.3323001302e+00 -5.5357132423e+00 7.2461546009e+01 6.9999968364e+01 1.3664e-04 0.0000e+00
      -24  2    4    4    0    0 -1.5757646835e+01 +6.0656502509e+00 -1.4151953214e+01 5.5682216681e+01 5.1138399740e+01 1.1613e-13 0.0000e+00
      -11  1    4    4    0    0 -7.2979574389e-02 -1.4397950381e+01 +8.6162399721e+00 1.6779329328e+01 5.1100000000e-04 0.0000e+00 1.0000e+00
       11  1    5    5    0    0 +1.4927986767e+01 -7.5548172390e+00 -1.4451716891e+01 2.2108192459e+01 5.1100000000e-04 0.0000e+00 -1.0000e+00
      -12  1    5    5    0    0 -3.0685633602e+01 +1.3620467490e+01 +2.9976367680e-01 3.3574024222e+01 0.0000000000e+00 0.0000e+00 1.0000e+00
       12  1    3    3    0    0 +1.5830626409e+01 +8.3323001302e+00 +5.5357132423e+00 1.8726453991e+01 0.0000000000e+00 0.0000e+00 -1.0000e+00
</event>
<event>
 8      3 +1.0086356e-04 9.11880000e+01 7.81616400e-03 1.18400000e-01
      -11 -1    0    0    0    0 +0.0000000000e+00 +0.0000000000e+00 +4.5593999997e+01 4.5594000000e+01 5.1100000000e-04 0.0000e+00 1.0000e+00
       11 -1    0    0    0    0 -0.0000000000e+00 -0.0000000000e+00 -4.5593999997e+01 4.5594000000e+01 5.1100000000e-04 0.0000e+00 -1.0000e+00
       23  2    1    2    0    0 -1.7763568394e-15 +3.5527136788e-15 -1.7763568394e-15 9.1188000000e+01 9.1188000000e+01 1.2281e-14 0.0000e+00
  9990012  2    3    3    0    0 +1.3563324100e+01 -1.0795635201e+01 +7.0830752968e+00 7.2461562654e+01 6.9999990047e+01 1.3513e-04 0.0000e+00
      -11  1    4    4    0    0 +1.1386209560e+01 +1.8545374861e+01 +1.3262475263e+01 2.5484700258e+01 5.1100000000e-04 0.0000e+00 1.0000e+00
       11  1    4    4    0    0 +1.1052086818e+01 -3.4053664341e+01 -1.3492337944e+00 3.5827658453e+01 5.1100000000e-04 0.0000e+00 -1.0000e+00
       12  1    4    4    0    0 -8.8749722785e+00 +4.7126542792e+00 -4.8301661721e+00 1.1149203942e+01 0.0000000000e+00 0.0000e+00 -1.0000e+00
      -12  1    3    3    0    0 -1.3563324100e+01 +1.0795635201e+01 -7.0830752968e+00 1.8726437346e+01 0.0000000000e+00 0.0000e+00 1.0000e+00
</event>
<event>
 9      3 +1.0086356e-04 9.11880000e+01 7.81616400e-03 1.18400000e-01
      -11 -1    0    0    0    0 +0.0000000000e+00 +0.0000000000e+00 +4.5593999997e+01 4.5594000000e+01 5.1100000000e-04 0.0000e+00 1.0000e+00
       11 -1    0    0    0    0 -0.0000000000e+00 -0.0000000000e+00 -4.5593999997e+01 4.5594000000e+01 5.1100000000e-04 0.0000e+00 -1.0000e+00
       23  2    1    2    0    0 -3.5527136788e-15 -2.6645352591e-15 +0.0000000000e+00 9.1188000000e+01 9.1188000000e+01 2.1749e-14 0.0000e+00
  9990012  2    3    3    0    0 -1.3858136607e+01 -1.9237819631e+00 -1.2447090871e+01 7.2461575931e+01 7.0000007343e+01 2.6693e-04 0.0000e+00
       24  2    4    4    0    0 -2.1128540635e+01 -9.0310734755e-01 -1.5034603456e+01 6.4677247248e+01 5.9244207972e+01 2.1821e-14 0.0000e+00
      -11  1    5    5    0    0 +6.9360381302e-01 -1.7314892922e+01 -2.9171158124e+01 3.3929973028e+01 5.1100000000e-04 0.0000e+00 1.0000e+00
       11  1    4    4    0    0 +7.2704040285e+00 -1.0206746155e+00 +2.5875125850e+00 7.7843286831e+00 5.1100000000e-04 0.0000e+00 -1.0000e+00
       12  1    5    5    0    0 -2.1822144448e+01 +1.6411785575e+01 +1.4136554667e+01 3.0747274220e+01 0.0000000000e+00 0.0000e+00 -1.0000e+00
      -12  1    3    3    0    0 +1.3858136607e+01 +1.9237819631e+00 +1.2447090871e+01 1.8726424069e+01 0.0000000000e+00 0.0000e+00 1.0000e+00
</event>
<event>
 9      4 +1.0086356e-04 9.11880000e+01 7.81616400e-03 1.18400000e-01
      -11 -1    0    0    0    0 +0.0000000000e+00 +0.0000000000e+00 +4.5593999997e+01 4.5594000000e+01 5.1100000000e-04 0.0000e+00 1.0000e+00
       11 -1    0    0    0    0 -0.0000000000e+00 -0.0000000000e+00 -4.5593999997e+01 4.5594000000e+01 5.1100000000e-04 0.0000e+00 -1.0000e+00
       23  2    1    2    0    0 -3.5527136788e-15 +0.0000000000e+00 +0.0000000000e+00 9.1188000000e+01 9.1188000000e+01 1.4550e-15 0.0000e+00
 -9990012  2    3    3    0    0 -1.0929591779e+01 -1.4897414813e+01 -3.0481194695e+00 7.2461548738e+01 6.9999971918e+01 3.4402e-04 0.0000e+00
      -24  2    4    4    0    0 +5.0965657509e+00 -1.8302062616e+01 +4.1629392409e+00 5.4561025845e+01 5.0976808449e+01 1.3818e-13 0.0000e+00
      -11  1    4    4    0    0 -1.6026157530e+01 +3.4046478025e+00 -7.2110587103e+00 1.7900522893e+01 5.1100000000e-04 0.0000e+00 1.0000e+00
       11  1    5    5    0    0 -2.3012156941e+01 -9.8949920324e+00 +2.5251527365e+00 2.5176310910e+01 5.1100000000e-04 0.0000e+00 -1.0000e+00
      -12  1    5    5    0    0 +2.8108722692e+01 -8.4070705835e+00 +1.6377865043e+00 2.9384714935e+01 0.0000000000e+00 0.0000e+00 1.0000e+00
       12  1    3    3    0    0 +1.0929591779e+01 +1.4897414813e+01 +3.0481194695e+00 1.8726451262e+01 0.0000000000e+00 0.0000e+00 -1.0000e+00
</event>
<event>
 8      4 +1.0086356e-04 9.11880000e+01 7.81616400e-03 1.18400000e-01
      -11 -1    0    0    0    0 +0.0000000000e+00 +0.0000000000e+00 +4.5593999997e+01 4.5594000000e+01 5.1100000000e-04 0.0000e+00 1.0000e+00
       11 -1    0    0    0    0 -0.0000000000e+00 -0.0000000000e+00 -4.5593999997e+01 4.5594000000e+01 5.1100000000e-04 0.0000e+00 -1.0000e+00
       23  2    1    2    0    0 +0.0000000000e+00 +2.3869795029e-15 -8.8817841970e-16 9.1188000000e+01 9.1188000000e+01 8.7665e-14 0.0000e+00
 -9990012  2    3    3    0    0 -1.8060630863e+01 +3.1245262102e-02 -4.9489164229e+00 7.2461571158e+01 7.0000001125e+01 2.1465e-04 0.0000e+00
      -11  1    4    4    0    0 +2.4664933834e+00 +1.0609096413e+00 +1.7315546602e+01 1.7522479084e+01 5.1100000000e-04 0.0000e+00 1.0000e+00
       11  1    4    4    0    0 -1.3514317228e+01 +1.7928989316e+01 -2.6032306070e+01 3.4376829226e+01 5.1100000000e-04 0.0000e+00 -1.0000e+00
      -12  1    4    4    0    0 -7.0128070179e+00 -1.8958653695e+01 +3.7678430458e+00 2.0562262848e+01 0.0000000000e+00 0.0000e+00 1.0000e+00
       12  1    3    3    0    0 +1.8060630863e+01 -3.1245262102e-02 +4.9489164229e+00 1.8726428842e+01 0.0000000000e+00 0.0000e+00 -1.0000e+00
</event>
<event>
 8      3 +1.0086356e-04 9.11880000e+01 7.81616400e-03 1.18400000e-01
      -11 -1    0    0    0    0 +0.0000000000e+00 +0.0000000000e+00 +4.5593999997e+01 4.5594000000e+01 5.1100000000e-04 0.0000e+00 1.0000e+00
       11 -1    0    0    0    0 -0.0000000000e+00 -0.0000000000e+00 -4.5593999997e+01 4.5594000000e+01 5.1100000000e-04 0.0000e+00 -1.0000e+00
       23  2    1    2    0    0 +1.7763568394e-15 -1.7763568394e-15 -8.8817841970e-16 9.1188000000e+01 9.1188000000e+01 1.2247e-14 0.0000e+00
  9990012  2    3    3    0    0 -1.3048937455e+01 +1.1631140354e+01 +6.7172796228e+00 7.2461547048e+01 6.9999969717e+01 4.2880e-05 0.0000e+00
      -11  1    4    4    0    0 +8.7334314677e+00 -4.1103980443e+00 -2.7028840810e+00 1.0023661003e+01 5.1100000000e-04 0.0000e+00 1.0000e+00
       11  1    4    4    0    0 +9.7040394162e+00 +2.5791285161e+01 +1.0182970644e+01 2.9377740938e+01 5.1100000000e-04 0.0000e+00 -1.0000e+00
       12  1    4    4    0    0 -3.1486408339e+01 -1.0049746762e+01 -7.6280694064e-01 3.3060145107e+01 0.0000000000e+00 0.0000e+00 -1.0000e+00
      -12  1    3    3    0    0 +1.3048937455e+01 -1.1631140354e+01 -6.7172796228e+00 1.8726452952e+01 0.0000000000e+00 0.0000e+00 1.0000e+00
</event>
<event>
 9      3 +1.0086356e-04 9.11880000e+01 7.81616400e-03 1.18400000e-01
      -11 -1    0    0    0    0 +0.0000000000e+00 +0.0000000000e+00 +4.5593999997e+01 4.5594000000e+01 5.1100000000e-04 0.0000e+00 1.0000e+00
       11 -1    0    0    0    0 -0.0000000000e+00 -0.0000000000e+00 -4.5593999997e+01 4.5594000000e+01 5.1100000000e-04 0.0000e+00 -1.0000e+00
       23  2    1    2    0    0 +1.4988010832e-15 -3.5527136788e-15 -1.5543122345e-15 9.1188000000e+01 9.1188000000e+01 1.0183e-13 0.0000e+00
  9990012  2    3    3    0    0 +1.8426879976e-01 -1.8703504771e+01 -9.0844203493e-01 7.2461539773e+01 6.9999960240e+01 2.0020e-04 0.0000e+00
       24  2    4    4    0    0 +5.5789653907e+00 -1.5037889856e+01 +3.5108527201e-01 6.5818807405e+01 6.3833605265e+01 1.9181e-13 0.0000e+00
      -11  1    5    5    0    0 +1.0675373662e+00 -2.7299751401e+01 +2.5567804826e+01 3.7418293740e+01 5.1100000000e-04 0.0000e+00 1.0000e+00
       11  1    4    4    0    0 -5.3946965909e+00 -3.6656149148e+00 -1.2595273069e+00 6.6427323678e+00 5.1100000000e-04 0.0000e+00 -1.0000e+00
       12  1    5    5    0    0 +4.5114280245e+00 +1.2261861545e+01 -2.5216719554e+01 2.8400513664e+01 0.0000000000e+00 0.0000e+00 -1.0000e+00
      -12  1    3    3    0    0 -1.8426879976e-01 +1.8703504771e+01 +9.0844203493e-01 1.8726460227e+01 0.0000000000e+00 0.0000e+00 1.0000e+00
</event>
<event>
 8      4 +1.0086356e-04 9.11880000e+01 7.81616400e-03 1.18400000e-01
      -11 -1    0    0    0    0 +0.0000000000e+00 +0.0000000000e+00 +4.5593999997e+01 4.5594000000e+01 5.1100000000e-04 0.0000e+00 1.0000e+00
       11 -1    0    0    0    0 -0.0000000000e+00 -0.0000000000e+00 -4.5593999997e+01 4.5594000000e+01 5.1100000000e-04 0.0000e+00 -1.0000e+00
       23  2    1    2    0    0 +0.0000000000e+00 +1.5543122345e-15 +2.2204460493e-16 9.1188000000e+01 9.1188000000e+01 1.2149e-15 0.0000e+00
 -9990012  2    3    3    0    0 -1.8669972904e+01 -1.0526449963e+00 -1.0015845323e+00 7.2461571582e+01 7.0000001677e+01 4.6594e-04 0.0000e+00
      -11  1    4    4    0    0 -2.0179641825e+01 -1.0397087517e+01 +1.2292057451e+01 2.5814957867e+01 5.1100000000e-04 0.0000e+00 1.0000e+00
       11  1    4    4    0    0 -1.4894389611e+01 +1.5425004278e+01 -1.8578171982e+01 2.8371148607e+01 5.1100000000e-04 0.0000e+00 -1.0000e+00
      -12  1    4    4    0    0 +1.6404058532e+01 -6.0805617569e+00 +5.2845299985e+00 1.8275465108e+01 0.0000000000e+00 0.0000e+00 1.0000e+00
       12  1    3    3    0    0 +1.8669972904e+01 +1.0526449963e+00 +1.0015845323e+00 1.8726428418e+01 0.0000000000e+00 0.0000e+00 -1.0000e+00
</event>
<event>
 9      4 +1.0086356e-04 9.11880000e+01 7.81616400e-03 1.18400000e-01
      -11 -1    0    0    0    0 +0.0000000000e+00 +0.0000000000e+00 +4.5593999997e+01 4.5594000000e+01 5.1100000000e-04 0.0000e+00 1.0000e+00
       11 -1    0    0    0    0 -0.0000000000e+00 -0.0000000000e+00 -4.5593999997e+01 4.5594000000e+01 5.1100000000e-04 0.0000e+00 -1.0000e+00
       23  2    1    2    0    0 +0.0000000000e+00 -8.8817841970e-16 -8.8817841970e-16 9.1188000000e+01 9.1188000000e+01 5.1117e-14 0.0000e+00
 -9990012  2    3    3    0    0 -1.8045546850e+01 +4.7419002284e+00 +1.5981959963e+00 7.2461505150e+01 6.9999915138e+01 2.7017e-04 0.0000e+00
      -24  2    4    4    0    0 -7.8019356458e-01 +8.2510524476e+00 +7.8048327369e+00 5.3781866148e+01 5.2563153861e+01 8.4357e-14 0.0000e+00
      -11  1    4    4    0    0 -1.7265353286e+01 -3.5091522192e+00 -6.2066367406e+00 1.8679639003e+01 5.1100000000e-04 0.0000e+00 1.0000e+00
       11  1    5    5    0    0 +2.3792060982e+01 +6.5430784570e+00 -6.2066690652e+00 2.5443993055e+01 5.1100000000e-04 0.0000e+00 -1.0000e+00
      -12  1    5    5    0    0 -2.4572254546e+01 +1.7079739906e+00 +1.4011501802e+01 2.8337873092e+01 0.0000000000e+00 0.0000e+00 1.0000e+00
       12  1    3    3    0    0 +1.8045546850e+01 -4.7419002284e+00 -1.5981959963e+00 1.8726494850e+01 0.0000000000e+00 0.0000e+00 -1.0000e+00
</event>
<event>
 8      3 +1.0086356e-04 9.11880000e+01 7.81616400e-03 1.18400000e-01
      -11 -1    0    0    0    0 +0.0000000000e+00 +0.0000000000e+00 +4.5593999997e+01 4.5594000000e+01 5.1100000000e-04 0.0000e+00 1.0000e+00
       11 -1    0    0    0    0 -0.0000000000e+00 -0.0000000000e+00 -4.5593999997e+01 4.5594000000e+01 5.1100000000e-04 0.0000e+00 -1.0000e+00
       23  2    1    2    0    0 -3.5527136788e-15 +8.8817841970e-16 -8.8817841970e-16 9.1188000000e+01 9.1188000000e+01 9.1472e-14 0.0000e+00
  9990012  2    3    3    0    0 +1.7421839934e+01 +4.6411849589e+00 +5.0614325905e+00 7.2461569364e+01 6.9999998788e+01 1.3787e-04 0.0000e+00
      -11  1    4    4    0    0 -1.6830673120e+00 +1.0402693438e+01 +1.1039131506e+01 1.5261427555e+01 5.1100000000e-04 0.0000e+00 1.0000e+00
       11  1    4    4    0    0 -1.5230532405e+01 +1.0742400025e+01 +1.5457979008e-03 1.8637818496e+01 5.1100000000e-04 0.0000e+00 -1.0000e+00
       12  1    4    4    0    0 +3.4335439651e+01 -1.6503908505e+01 -5.9792447135e+00 3.8562323313e+01 0.0000000000e+00 0.0000e+00 -1.0000e+00
      -12  1    3    3    0    0 -1.7421839934e+01 -4.6411849589e+00 -5.0614325905e+00 1.8726430636e+01 0.0000000000e+00 0.0000e+00 1.0000e+00
</event>
<event>
 8      3 +1.0086356e-04 9.11880000e+01 7.81616400e-03 1.18400000e-01
      -11 -1    0    0    0    0 +0.0000000000e+00 +0.0000000000e+00 +4.5593999997e+01 4.5594000000e+01 5.1100000000e-04 0.0000e+00 -1.0000e+00
       11 -1    0    0    0    0 -0.0000000000e+00 -0.0000000000e+00 -4.5593999997e+01 4.5594000000e+01 5.1100000000e-04 0.0000e+00 1.0000e+00
       23  2    1    2    0    0 -2.6645352591e-15 +4.4408920985e-16 +0.0000000000e+00 9.1188000000e+01 9.1188000000e+01 6.6980e-16 0.0000e+00
  9990012  2    3    3    0    0 +5.5046153328e+00 -3.0066091381e+00 +1.7644740159e+01 7.2461619043e+01 7.0000063504e+01 2.6761e-04 0.0000e+00
      -11  1    4    4    0    0 +8.1627583766e+00 +1.6363395294e+00 -1.1779746778e+01 1.4424654789e+01 5.1100000000e-04 0.0000e+00 1.0000e+00
       11  1    4    4    0    0 -1.0154940185e+01 -2.2558478268e+01 +2.9649591159e+01 3.8614841811e+01 5.1100000000e-04 0.0000e+00 -1.0000e+00
       12  1    4    4    0    0 +7.4967971413e+00 +1.7915529601e+01 -2.2510422148e-01 1.9422122442e+01 0.0000000000e+00 0.0000e+00 -1.0000e+00
      -12  1    3    3    0    0 -5.5046153328e+00 +3.0066091381e+00 -1.7644740159e+01 1.8726380957e+01 0.0000000000e+00 0.0000e+00 1.0000e+00
</event>
<event>
 8      3 +1.0086356e-04 9.11880000e+01 7.81616400e-03 1.18400000e-01
      -11 -1    0    0    0    0 +0.0000000000e+00 +0.0000000000e+00 +4.5593999997e+01 4.5594000000e+01 5.1100000000e-04 0.0000e+00 -1.0000e+00
       11 -1    0    0    0    0 -0.0000000000e+00 -0.0000000000e+00 -4.5593999997e+01 4.5594000000e+01 5.1100000000e-04 0.0000e+00 1.0000e+00
       23  2    1    2    0    0 +0.0000000000e+00 +0.0000000000e+00 +0.0000000000e+00 9.1188000000e+01 9.1188000000e+01 2.3078e-13 0.0000e+00
  9990012  2    3    3    0    0 -8.2456827398e+00 -1.4530923741e+01 -8.4581888878e+00 7.2461548444e+01 6.9999971536e+01 1.1398e-03 0.0000e+00
      -11  1    4    4    0    0 +1.9846519838e+00 +4.3813830910e+00 +5.6723393050e+00 7.4371227460e+00 5.1100000000e-04 0.0000e+00 1.0000e+00
       11  1    4    4    0    0 +1.2462800163e+01 +1.3184218745e+01 +8.0963221046e+00 1.9866943492e+01 5.1100000000e-04 0.0000e+00 -1.0000e+00
       12  1    4    4    0    0 -2.2693134886e+01 -3.2096525577e+01 -2.2226850297e+01 4.5157482207e+01 0.0000000000e+00 0.0000e+00 -1.0000e+00
      -12  1    3    3    0    0 +8.2456827398e+00 +1.4530923741e+01 +8.4581888878e+00 1.8726451556e+01 0.0000000000e+00 0.0000e+00 1.0000e+00
</event>
<event>
 9      4 +1.0086356e-04 9.11880000e+01 7.81616400e-03 1.18400000e-01
      -11 -1    0    0    0    0 +0.0000000000e+00 +0.0000000000e+00 +4.5593999997e+01 4.5594000000e+01 5.1100000000e-04 0.0000e+00 1.0000e+00
       11 -1    0    0    0    0 -0.0000000000e+00 -0.0000000000e+00 -4.5593999997e+01 4.5594000000e+01 5.1100000000e-04 0.0000e+00 -1.0000e+00
       23  2    1    2    0    0 -4.4408920985e-16 +3.5527136788e-15 -1.7763568394e-15 9.1188000000e+01 9.1188000000e+01 3.2097e-14 0.0000e+00
 -9990012  2    3    3    0    0 -2.6655429077e+00 +1.8116476232e+01 +3.9193491526e+00 7.2461731609e+01 7.0000210142e+01 3.6501e-04 0.0000e+00
      -24  2    4    4    0    0 -3.6093264886e+00 +4.4875426220e+00 +1.3687586681e+01 5.5667178222e+01 5.3649971348e+01 3.2566e-14 0.0000e+00
      -11  1    4    4    0    0 +9.4378358091e-01 +1.3628933610e+01 -9.7682375283e+00 1.6794553387e+01 5.1100000000e-04 0.0000e+00 1.0000e+00
       11  1    5    5    0    0 +4.7878680674e+00 -1.4013034057e+01 -1.4629067073e+01 2.0815821094e+01 5.1100000000e-04 0.0000e+00 -1.0000e+00
      -12  1    5    5    0    0 -8.3971945561e+00 +1.8500576679e+01 +2.8316653754e+01 3.4851357128e+01 0.0000000000e+00 0.0000e+00 1.0000e+00
       12  1    3    3    0    0 +2.6655429077e+00 -1.8116476232e+01 -3.9193491526e+00 1.8726268391e+01 0.0000000000e+00 0.0000e+00 -1.0000e+00
</event>
<event>
 9      4 +1.0086356e-04 9.11880000e+01 7.81616400e-03 1.18400000e-01
      -11 -1    0    0    0    0 +0.0000000000e+00 +0.0000000000e+00 +4.5593999997e+01 4.5594000000e+01 5.1100000000e-04 0.0000e+00 1.0000e+00
       11 -1    0    0    0    0 -0.0000000000e+00 -0.0000000000e+00 -4.5593999997e+01 4.5594000000e+01 5.1100000000e-04 0.0000e+00 -1.0000e+00
       23  2    1    2    0    0 -1.5543122345e-15 +2.2204460493e-15 +3.5527136788e-15 9.1188000000e+01 9.1188000000e+01 2.9146e-13 0.0000e+00
 -9990012  2    3    3    0    0 +1.6902554930e+00 -2.9595983493e+00 +1.8413572948e+01 7.2461658800e+01 7.0000115295e+01 2.9936e-04 0.0000e+00
      -24  2    4    4    0    0 -1.3611489026e+01 -6.8754249400e+00 +8.6122247850e+00 5.3872858159e+01 5.0946740120e+01 1.3852e-14 0.0000e+00
      -11  1    4    4    0    0 +1.5301744519e+01 +3.9158265906e+00 +9.8013481628e+00 1.8588800642e+01 5.1100000000e-04 0.0000e+00 1.0000e+00
       11  1    5    5    0    0 +1.8926560145e+00 -2.2135702274e+01 -1.0812791162e+01 2.4708053645e+01 5.1100000000e-04 0.0000e+00 -1.0000e+00
      -12  1    5    5    0    0 -1.5504145041e+01 +1.5260277334e+01 +1.9425015947e+01 2.9164804514e+01 0.0000000000e+00 0.0000e+00 1.0000e+00
       12  1    3    3    0    0 -1.6902554930e+00 +2.9595983493e+00 -1.8413572948e+01 1.8726341200e+01 0.0000000000e+00 0.0000e+00 -1.0000e+00
</event>
<event>
 9      3 +1.0086356e-04 9.11880000e+01 7.81616400e-03 1.18400000e-01
      -11 -1    0    0    0    0 +0.0000000000e+00 +0.0000000000e+00 +4.5593999997e+01 4.5594000000e+01 5.1100000000e-04 0.0000e+00 -1.0000e+00
       11 -1    0    0    0    0 -0.0000000000e+00 -0.0000000000e+00 -4.5593999997e+01 4.5594000000e+01 5.1100000000e-04 0.0000e+00 1.0000e+00
       23  2    1    2    0    0 +2.2204460493e-15 +1.7763568394e-15 +0.0000000000e+00 9.1188000000e+01 9.1188000000e+01 3.3846e-14 0.0000e+00
  9990012  2    3    3    0    0 +2.0762641584e+00 -1.5303569906e+01 +1.0591408251e+01 7.2461333093e+01 6.9999691001e+01 6.4495e-04 0.0000e+00
       24  2    4    4    0    0 +1.1456335882e+01 -6.2682619680e+00 +1.4086909419e+01 5.8976487386e+01 5.5760616096e+01 2.9541e-14 0.0000e+00
      -11  1    5    5    0    0 -8.9988972240e+00 +1.1711312820e+01 -1.3645364148e+01 2.0107982549e+01 5.1100000000e-04 0.0000e+00 1.0000e+00
       11  1    4    4    0    0 -9.3800717238e+00 -9.0353079377e+00 -3.4955011685e+00 1.3484845707e+01 5.1100000000e-04 0.0000e+00 -1.0000e+00
       12  1    5    5    0    0 +2.0455233106e+01 -1.7979574788e+01 +2.7732273567e+01 3.8868504836e+01 0.0000000000e+00 0.0000e+00 -1.0000e+00
      -12  1    3    3    0    0 -2.0762641584e+00 +1.5303569906e+01 -1.0591408251e+01 1.8726666907e+01 0.0000000000e+00 0.0000e+00 1.0000e+00
</event>
<event>
 8      3 +1.0086356e-04 9.11880000e+01 7.81616400e-03 1.18400000e-01
      -11 -1    0    0    0    0 +0.0000000000e+00 +0.0000000000e+00 +4.5593999997e+01 4.5594000000e+01 5.1100000000e-04 0.0000e+00 -1.0000e+00
       11 -1    0    0    0    0 -0.0000000000e+00 -0.0000000000e+00 -4.5593999997e+01 4.5594000000e+01 5.1100000000e-04 0.0000e+00 1.0000e+00
       23  2    1    2    0    0 +1.5543122345e-15 +1.7763568394e-15 -1.7763568394e-15 9.1188000000e+01 9.1188000000e+01 1.3967e-14 0.0000e+00
  9990012  2    3    3    0    0 +1.8721493931e+00 -1.3296897859e+01 -1.3052475579e+01 7.2461560008e+01 6.9999986600e+01 9.8142e-05 0.0000e+00
      -11  1    4    4    0    0 +5.7757913280e+00 +1.7526845611e+00 -2.8700021902e+01 2.9327852395e+01 5.1100000000e-04 0.0000e+00 1.0000e+00
       11  1    4    4    0    0 -1.9816769208e+01 -2.6784992876e+00 +8.7816261277e+00 2.1840230264e+01 5.1100000000e-04 0.0000e+00 -1.0000e+00
       12  1    4    4    0    0 +1.5913127273e+01 -1.2371083133e+01 +6.8659201956e+00 2.1293477349e+01 0.0000000000e+00 0.0000e+00 -1.0000e+00
      -12  1    3    3    0    0 -1.8721493931e+00 +1.3296897859e+01 +1.3052475579e+01 1.8726439992e+01 0.0000000000e+00 0.0000e+00 1.0000e+00
</event>
<event>
 9      4 +1.0086356e-04 9.11880000e+01 7.81616400e-03 1.18400000e-01
      -11 -1    0    0    0    0 +0.0000000000e+00 +0.0000000000e+00 +4.5593999997e+01 4.5594000000e+01 5.1100000000e-04 0.0000e+00 -1.0000e+00
       11 -1    0    0    0    0 -0.0000000000e+00 -0.0000000000e+00 -4.5593999997e+01 4.5594000000e+01 5.1100000000e-04 0.0000e+00 1.0000e+00
       23  2    1    2    0    0 +0.0000000000e+00 -8.8817841970e-16 +8.8817841970e-16 9.1188000000e+01 9.1188000000e+01 1.4009e-14 0.0000e+00
 -9990012  2    3    3    0    0 -1.6905077042e+01 +5.9004482083e+00 -5.4845023323e+00 7.2461636640e+01 7.0000086428e+01 8.3819e-05 0.0000e+00
      -24  2    4    4    0    0 -5.4170183016e+00 +1.2668100479e+01 +1.5313780699e+00 5.7395144383e+01 5.5695894130e+01 2.4719e-13 0.0000e+00
      -11  1    4    4    0    0 -1.1488058740e+01 -6.7676522704e+00 -7.0158804022e+00 1.5066492258e+01 5.1100000000e-04 0.0000e+00 1.0000e+00
       11  1    5    5    0    0 +5.8431183182e+00 -1.5052255366e+01 +1.7224562115e+01 2.3609277066e+01 5.1100000000e-04 0.0000e+00 -1.0000e+00
      -12  1    5    5    0    0 -1.1260136620e+01 +2.7720355844e+01 -1.5693184045e+01 3.3785867316e+01 0.0000000000e+00 0.0000e+00 1.0000e+00
       12  1    3    3    0    0 +1.6905077042e+01 -5.9004482083e+00 +5.4845023323e+00 1.8726363360e+01 0.0000000000e+00 0.0000e+00 -1.0000e+00
</event>
<event>
 9      2 +1.0086356e-04 9.11880000e+01 7.81616400e-03 1.18400000e-01
      -11 -1    0    0    0    0 +0.0000000000e+00 +0.0000000000e+00 +4.5593999997e+01 4.5594000000e+01 5.1100000000e-04 0.0000e+00 -1.0000e+00
       11 -1    0    0    0    0 -0.0000000000e+00 -0.0000000000e+00 -4.5593999997e+01 4.5594000000e+01 5.1100000000e-04 0.0000e+00 1.0000e+00
       23  2    1    2    0    0 -1.7763568394e-15 +0.0000000000e+00 +0.0000000000e+00 9.1188000000e+01 9.1188000000e+01 3.4161e-14 0.0000e+00
 -9990012  2    3    3    0    0 -8.5886483270e+00 -1.2991285957e+01 -1.0399170633e+01 7.2461517662e+01 6.9999931436e+01 1.1511e-04 0.0000e+00
       23  2    4    4    0    0 -1.3285728983e+01 -2.0954474383e+01 -7.4909241145e+00 6.2769622366e+01 5.7169143396e+01 6.4421e-14 0.0000e+00
      -11  1    5    5    0    0 -2.1829465409e+01 -3.7625352028e+01 -6.7704807548e+00 4.4023085821e+01 5.1100000000e-04 0.0000e+00 1.0000e+00
       11  1    5    5    0    0 +8.5437364255e+00 +1.6670877645e+01 -7.2044335969e-01 1.8746536546e+01 5.1100000000e-04 0.0000e+00 -1.0000e+00
      -12  1    4    4    0    0 +4.6970806564e+00 +7.9631884261e+00 -2.9082465190e+00 9.6918952954e+00 0.0000000000e+00 0.0000e+00 1.0000e+00
       12  1    3    3    0    0 +8.5886483270e+00 +1.2991285957e+01 +1.0399170633e+01 1.8726482338e+01 0.0000000000e+00 0.0000e+00 -1.0000e+00
</event>
<event>
 9      4 +1.0086356e-04 9.11880000e+01 7.81616400e-03 1.18400000e-01
      -11 -1    0    0    0    0 +0.0000000000e+00 +0.0000000000e+00 +4.5593999997e+01 4.5594000000e+01 5.1100000000e-04 0.0000e+00 -1.0000e+00
       11 -1    0    0    0    0 -0.0000000000e+00 -0.0000000000e+00 -4.5593999997e+01 4.5594000000e+01 5.1100000000e-04 0.0000e+00 1.0000e+00
       23  2    1    2    0    0 +8.8817841970e-16 +0.0000000000e+00 +7.1054273576e-15 9.1188000000e+01 9.1188000000e+01 8.6881e-14 0.0000e+00
 -9990012  2    3    3    0    0 -2.1042069222e+00 -7.5259751434e+00 -1.7017929328e+01 7.2461603997e+01 7.0000043904e+01 1.0862e-04 0.0000e+00
      -24  2    4    4    0    0 -4.2637715384e+00 -5.2976930893e-01 -1.3773692657e+01 6.4453128034e+01 6.2817439463e+01 1.1766e-13 0.0000e+00
      -11  1    4    4    0    0 +2.1595646162e+00 -6.9962058345e+00 -3.2442366718e+00 8.0084759633e+00 5.1100000000e-04 0.0000e+00 1.0000e+00
       11  1    5    5    0    0 -6.5655464068e-01 -1.4363618418e+01 +2.1799627993e+01 2.6114524291e+01 5.1100000000e-04 0.0000e+00 -1.0000e+00
      -12  1    5    5    0    0 -3.6072168977e+00 +1.3833849109e+01 -3.5573320649e+01 3.8338603743e+01 0.0000000000e+00 0.0000e+00 1.0000e+00
       12  1    3    3    0    0 +2.1042069222e+00 +7.5259751434e+00 +1.7017929328e+01 1.8726396003e+01 0.0000000000e+00 0.0000e+00 -1.0000e+00
</event>
<event>
 8      3 +1.0086356e-04 9.11880000e+01 7.81616400e-03 1.18400000e-01
      -11 -1    0    0    0    0 +0.0000000000e+00 +0.0000000000e+00 +4.5593999997e+01 4.5594000000e+01 5.1100000000e-04 0.0000e+00 -1.0000e+00
       11 -1    0    0    0    0 -0.0000000000e+00 -0.0000000000e+00 -4.5593999997e+01 4.5594000000e+01 5.1100000000e-04 0.0000e+00 1.0000e+00
       23  2    1    2    0    0 -1.7763568394e-15 +0.0000000000e+00 +0.0000000000e+00 9.1188000000e+01 9.1188000000e+01 4.7808e-14 0.0000e+00
  9990012  2    3    3    0    0 +8.9291447445e+00 +1.6460136003e+01 -1.3733137810e-01 7.2461426287e+01 6.9999812404e+01 5.3766e-04 0.0000e+00
      -11  1    4    4    0    0 -1.4144588048e+01 -1.9062393047e+00 -4.2282764396e-01 1.4278722030e+01 5.1100000000e-04 0.0000e+00 1.0000e+00
       11  1    4    4    0    0 +3.6069413235e+01 +3.3129807560e+00 +7.5695003846e+00 3.7003726149e+01 5.1100000000e-04 0.0000e+00 -1.0000e+00
       12  1    4    4    0    0 -1.2995680443e+01 +1.5053394552e+01 -7.2840041187e+00 2.1178978108e+01 0.0000000000e+00 0.0000e+00 -1.0000e+00
      -12  1    3    3    0    0 -8.9291447445e+00 -1.6460136003e+01 +1.3733137810e-01 1.8726573713e+01 0.0000000000e+00 0.0000e+00 1.0000e+00
</event>
<event>
 8      4 +1.0086356e-04 9.11880000e+01 7.81616400e-03 1.18400000e-01
      -11 -1    0    0    0    0 +0.0000000000e+00 +0.0000000000e+00 +4.5593999997e+01 4.5594000000e+01 5.1100000000e-04 0.0000e+00 -1.0000e+00
       11 -1    0    0    0    0 -0.0000000000e+00 -0.0000000000e+00 -4.5593999997e+01 4.5594000000e+01 5.1100000000e-04 0.0000e+00 1.0000e+00
       23  2    1    2    0    0 +0.0000000000e+00 -1.7763568394e-15 -1.7763568394e-15 9.1188000000e+01 9.1188000000e+01 1.7769e-13 0.0000e+00
 -9990012  2    3    3    0    0 +5.1160063892e+00 +1.5705496549e+01 -8.8229037749e+00 7.2461554148e+01 6.9999978967e+01 9.3454e-05 0.0000e+00
      -11  1    4    4    0    0 +3.9330144487e+00 +1.2815160999e+01 -3.8138670519e+01 4.0425921675e+01 5.1100000000e-04 0.0000e+00 1.0000e+00
       11  1    4    4    0    0 -4.4321464543e+00 +2.5151264869e+00 +5.2342354349e+00 7.3052723622e+00 5.1100000000e-04 0.0000e+00 -1.0000e+00
      -12  1    4    4    0    0 +5.6151383948e+00 +3.7520906294e-01 +2.4081531309e+01 2.4730360111e+01 0.0000000000e+00 0.0000e+00 1.0000e+00
       12  1    3    3    0    0 -5.1160063892e+00 -1.5705496549e+01 +8.8229037749e+00 1.8726445852e+01 0.0000000000e+00 0.0000e+00 -1.0000e+00
</event>
<event>
 8      3 +1.0086356e-04 9.11880000e+01 7.81616400e-03 1.18400000e-01
      -11 -1    0    0    0    0 +0.0000000000e+00 +0.0000000000e+00 +4.5593999997e+01 4.5594000000e+01 5.1100000000e-04 0.0000e+00 1.0000e+00
       11 -1    0    0    0    0 -0.0000000000e+00 -0.0000000000e+00 -4.5593999997e+01 4.5594000000e+01 5.1100000000e-04 0.0000e+00 -1.0000e+00
       23  2    1    2    0    0 +0.0000000000e+00 -8.8817841970e-16 +0.0000000000e+00 9.1188000000e+01 9.1188000000e+01 2.2544e-14 0.0000e+00
  9990012  2    3    3    0    0 +3.4270012288e+00 -3.6470735010e+00 -1.8045283166e+01 7.2461608808e+01 7.0000050171e+01 7.1054e-05 0.0000e+00
      -11  1    4    4    0    0 +2.3556411916e+01 -2.1022241920e+01 -1.0757757555e+01 3.3355187686e+01 5.1100000000e-04 0.0000e+00 1.0000e+00
       11  1    4    4    0    0 -1.9045609643e+01 -8.2220427110e-01 -8.4234545449e+00 2.0841445566e+01 5.1100000000e-04 0.0000e+00 -1.0000e+00
       12  1    4    4    0    0 -1.0838010437e+00 +1.8197372690e+01 +1.1359289342e+00 1.8264975556e+01 0.0000000000e+00 0.0000e+00 -1.0000e+00
      -12  1    3    3    0    0 -3.4270012288e+00 +3.6470735010e+00 +1.8045283166e+01 1.8726391192e+01 0.0000000000e+00 0.0000e+00 1.0000e+00
</event>
<event>
 8      4 +1.0086356e-04 9.11880000e+01 7.81616400e-03 1.18400000e-01
      -11 -1    0    0    0    0 +0.0000000000e+00 +0.0000000000e+00 +4.5593999997e+01 4.5594000000e+01 5.1100000000e-04 0.0000e+00 1.0000e+00
       11 -1    0    0    0    0 -0.0000000000e+00 -0.0000000000e+00 -4.5593999997e+01 4.5594000000e+01 5.1100000000e-04 0.0000e+00 -1.0000e+00
       23  2    1    2    0    0 +0.0000000000e+00 +0.0000000000e+00 -1.3322676296e-15 9.1188000000e+01 9.1188000000e+01 9.4161e-15 0.0000e+00
 -9990012  2    3    3    0    0 +1.1659896485e+01 -1.4469916630e+01 -2.3130166642e+00 7.2461502212e+01 6.9999911310e+01 1.3883e-04 0.0000e+00
      -11  1    4    4    0    0 +9.1585244468e+00 -5.7836353392e+00 +2.4060328026e+01 2.6386140164e+01 5.1100000000e-04 0.0000e+00 1.0000e+00
       11  1    4    4    0    0 -1.5634653622e+01 -2.2819962131e+00 -3.4874012335e+00 1.6180601603e+01 5.1100000000e-04 0.0000e+00 -1.0000e+00
      -12  1    4    4    0    0 +1.8136025661e+01 -6.4042850775e+00 -2.2885943457e+01 2.9894760445e+01 0.0000000000e+00 0.0000e+00 1.0000e+00
       12  1    3    3    0    0 -1.1659896485e+01 +1.4469916630e+01 +2.3130166642e+00 1.8726497788e+01 0.0000000000e+00 0.0000e+00 -1.0000e+00
</event>
<event>
 8      4 +1.0086356e-04 9.11880000e+01 7.81616400e-03 1.18400000e-01
      -11 -1    0    0    0    0 +0.0000000000e+00 +0.0000000000e+00 +4.5593999997e+01 4.5594000000e+01 5.1100000000e-04 0.0000e+00 1.0000e+00
       11 -1    0    0    0    0 -0.0000000000e+00 -0.0000000000e+00 -4.5593999997e+01 4.5594000000e+01 5.1100000000e-04 0.0000e+00 -1.0000e+00
       23  2    1    2    0    0 -1.7763568394e-15 +1.7763568394e-15 +0.0000000000e+00 9.1188000000e+01 9.1188000000e+01 1.7108e-13 0.0000e+00
 -9990012  2    3    3    0    0 +8.2288512685e+00 +1.2195879773e+01 -1.1585541664e+01 7.2461594784e+01 7.0000031903e+01 1.5681e-04 0.0000e+00
      -11  1    4    4    0    0 -1.0020619365e+01 -1.2087353555e+01 -1.5986226930e+01 2.2407060944e+01 5.1100000000e-04 0.0000e+00 1.0000e+00
       11  1    4    4    0    0 -5.3736672994e+00 +6.1977179390e-01 -1.1739753889e+01 1.2926029512e+01 5.1100000000e-04 0.0000e+00 -1.0000e+00
      -12  1    4    4    0    0 +2.3623137933e+01 +2.3663461534e+01 +1.6140439154e+01 3.7128504328e+01 0.0000000000e+00 0.0000e+00 1.0000e+00
       12  1    3    3    0    0 -8.2288512685e+00 -1.2195879773e+01 +1.1585541664e+01 1.8726405216e+01 0.0000000000e+00 0.0000e+00 -1.0000e+00
</event>
<event>
 8      3 +1.0086356e-04 9.11880000e+01 7.81616400e-03 1.18400000e-01
      -11 -1    0    0    0    0 +0.0000000000e+00 +0.0000000000e+00 +4.5593999997e+01 4.5594000000e+01 5.1100000000e-04 0.0000e+00 -1.0000e+00
       11 -1    0    0    0    0 -0.0000000000e+00 -0.0000000000e+00 -4.5593999997e+01 4.5594000000e+01 5.1100000000e-04 0.0000e+00 1.0000e+00
       23  2    1    2    0    0 -3.5527136788e-15 -1.7763568394e-15 -3.5527136788e-15 9.1188000000e+01 9.1188000000e+01 1.3779e-13 0.0000e+00
  9990012  2    3    3    0    0 +5.6907025158e+00 -1.4069962030e+01 +1.0969924795e+01 7.2461356503e+01 6.9999721497e+01 2.7407e-04 0.0000e+00
      -11  1    4    4    0    0 +4.9222865361e+00 -1.7083673254e+01 +6.0771955286e+00 1.8788642909e+01 5.1100000000e-04 0.0000e+00 1.0000e+00
       11  1    4    4    0    0 -1.9289200360e+01 -2.1575980692e+00 -1.5323172649e+01 2.4729094206e+01 5.1100000000e-04 0.0000e+00 -1.0000e+00
       12  1    4    4    0    0 +2.0057616340e+01 +5.1713092931e+00 +2.0215901915e+01 2.8943619388e+01 0.0000000000e+00 0.0000e+00 -1.0000e+00
      -12  1    3    3    0    0 -5.6907025158e+00 +1.4069962030e+01 -1.0969924795e+01 1.8726643497e+01 0.0000000000e+00 0.0000e+00 1.0000e+00
</event>
<event>
 8      3 +1.0086356e-04 9.11880000e+01 7.81616400e-03 1.18400000e-01
      -11 -1    0    0    0    0 +0.0000000000e+00 +0.0000000000e+00 +4.5593999997e+01 4.5594000000e+01 5.1100000000e-04 0.0000e+00 -1.0000e+00
       11 -1    0    0    0    0 -0.0000000000e+00 -0.0000000000e+00 -4.5593999997e+01 4.5594000000e+01 5.1100000000e-04 0.0000e+00 1.0000e+00
       23  2    1    2    0    0 +1.7763568394e-15 -1.7763568394e-15 +0.0000000000e+00 9.1188000000e+01 9.1188000000e+01 1.7393e-14 0.0000e+00
  9990012  2    3    3    0    0 +1.2660448183e+01 +1.2364375602e+01 +6.1249282407e+00 7.2461562053e+01 6.9999989265e+01 1.1783e-04 0.0000e+00
      -11  1    4    4    0    0 +6.7394156474e+00 +1.0266982410e+01 -2.1060532126e+01 2.4379841361e+01 5.1100000000e-04 0.0000e+00 1.0000e+00
       11  1    4    4    0    0 +9.4245521586e+00 -1.6577082073e+01 +6.8774663270e+00 2.0271195741e+01 5.1100000000e-04 0.0000e+00 -1.0000e+00
       12  1    4    4    0    0 -3.5035196229e+00 +1.8674475264e+01 +2.0307994040e+01 2.7810524952e+01 0.0000000000e+00 0.0000e+00 -1.0000e+00
      -12  1    3    3    0    0 -1.2660448183e+01 -1.2364375602e+01 -6.1249282407e+00 1.8726437947e+01 0.0000000000e+00 0.0000e+00 1.0000e+00
</event>
<event>
 9      3 +1.0086356e-04 9.11880000e+01 7.81616400e-03 1.18400000e-01
      -11 -1    0    0    0    0 +0.0000000000e+00 +0.0000000000e+00 +4.5593999997e+01 4.5594000000e+01 5.1100000000e-04 0.0000e+00 -1.0000e+00
       11 -1    0    0    0    0 -0.0000000000e+00 -0.0000000000e+00 -4.5593999997e+01 4.5594000000e+01 5.1100000000e-04 0.0000e+00 1.0000e+00
       23  2    1    2    0    0 -8.8817841970e-16 +3.5527136788e-15 -3.5527136788e-15 9.1188000000e+01 9.1188000000e+01 1.8407e-14 0.0000e+00
  9990012  2    3    3    0    0 +2.7817295440e+00 -9.7274824428e+00 +1.5757808596e+01 7.2461802690e+01 7.0000302738e+01 9.9135e-06 0.0000e+00
       24  2    4    4    0    0 +5.3881982268e+00 -9.1879398462e+00 +2.5407606011e+01 6.2451639075e+01 5.6046497314e+01 4.4974e-14 0.0000e+00
      -11  1    5    5    0    0 -6.0390895297e+00 +2.2523135520e+01 +1.1276877638e+01 2.5902320466e+01 5.1100000000e-04 0.0000e+00 1.0000e+00
       11  1    4    4    0    0 -2.6064686828e+00 -5.3954259657e-01 -9.6497974147e+00 1.0010163616e+01 5.1100000000e-04 0.0000e+00 -1.0000e+00
       12  1    5    5    0    0 +1.1427287757e+01 -3.1711075367e+01 +1.4130728373e+01 3.6549318608e+01 0.0000000000e+00 0.0000e+00 -1.0000e+00
      -12  1    3    3    0    0 -2.7817295440e+00 +9.7274824428e+00 -1.5757808596e+01 1.8726197310e+01 0.0000000000e+00 0.0000e+00 1.0000e+00
</event>
<event>
 9      3 +1.0086356e-04 9.11880000e+01 7.81616400e-03 1.18400000e-01
      -11 -1    0    0    0    0 +0.0000000000e+00 +0.0000000000e+00 +4.5593999997e+01 4.5594000000e+01 5.1100000000e-04 0.0000e+00 1.0000e+00
       11 -1    0    0    0    0 -0.0000000000e+00 -0.0000000000e+00 -4.5593999997e+01 4.5594000000e+01 5.1100000000e-04 0.0000e+00 -1.0000e+00
       23  2    1    2    0    0 +1.6653345369e-15 -4.4408920985e-16 +0.0000000000e+00 9.1188000000e+01 9.1188000000e+01 4.6768e-14 0.0000e+00
  9990012  2    3    3    0    0 +5.6895400368e-01 -2.3277455410e+00 -1.8572430879e+01 7.2461620298e+01 7.0000065139e+01 6.3514e-05 0.0000e+00
       24  2    4    4    0    0 -8.3235402239e+00 -1.5631359073e+01 -8.4262912118e+00 5.3514147195e+01 4.9790971653e+01 7.3536e-15 0.0000e+00
      -11  1    5    5    0    0 -1.4499640278e+01 -2.3988171932e+00 -2.6485345303e+01 3.0289724465e+01 5.1100000000e-04 0.0000e+00 1.0000e+00
       11  1    4    4    0    0 +8.8924942276e+00 +1.3303613532e+01 -1.0146139668e+01 1.8947473103e+01 5.1100000000e-04 0.0000e+00 -1.0000e+00
       12  1    5    5    0    0 +6.1761000540e+00 -1.3232541879e+01 +1.8059054091e+01 2.3224422730e+01 0.0000000000e+00 0.0000e+00 -1.0000e+00
      -12  1    3    3    0    0 -5.6895400368e-01 +2.3277455410e+00 +1.8572430879e+01 1.8726379702e+01 0.0000000000e+00 0.0000e+00 1.0000e+00
</event>
<event>
 9      4 +1.0086356e-04 9.11880000e+01 7.81616400e-03 1.18400000e-01
      -11 -1    0    0    0    0 +0.0000000000e+00 +0.0000000000e+00 +4.5593999997e+01 4.5594000000e+01 5.1100000000e-04 0.0000e+00 1.0000e+00
       11 -1    0    0    0    0 -0.0000000000e+00 -0.0000000000e+00 -4.5593999997e+01 4.5594000000e+01 5.1100000000e-04 0.0000e+00 -1.0000e+00
       23  2    1    2    0    0 +0.0000000000e+00 +6.6613381478e-16 -8.8817841970e-16 9.1188000000e+01 9.1188000000e+01 8.1494e-14 0.0000e+00
 -9990012  2    3    3    0    0 -1.8510950695e+01 +1.8003722932e+00 +2.1877381309e+00 7.2461472448e+01 6.9999872537e+01 7.2456e-05 0.0000e+00
      -24  2    4    4    0    0 -2.6550394952e+00 -5.1280174933e+00 -7.6503049460e+00 5.2556709279e+01 5.1675281579e+01 3.9504e-14 0.0000e+00
      -11  1    4    4    0    0 -1.5855911199e+01 +6.9283897865e+00 +9.8380430769e+00 1.9904763170e+01 5.1100000000e-04 0.0000e+00 1.0000e+00
       11  1    5    5    0    0 +1.5015869609e+01 -2.0931879274e+01 +4.1205860520e+00 2.6088295072e+01 5.1100000000e-04 0.0000e+00 -1.0000e+00
      -12  1    5    5    0    0 -1.7670909104e+01 +1.5803861781e+01 -1.1770890998e+01 2.6468414207e+01 0.0000000000e+00 0.0000e+00 1.0000e+00
       12  1    3    3    0    0 +1.8510950695e+01 -1.8003722932e+00 -2.1877381309e+00 1.8726527552e+01 0.0000000000e+00 0.0000e+00 -1.0000e+00
</event>
<event>
 8      4 +1.0086356e-04 9.11880000e+01 7.81616400e-03 1.18400000e-01
      -11 -1    0    0    0    0 +0.0000000000e+00 +0.0000000000e+00 +4.5593999997e+01 4.5594000000e+01 5.1100000000e-04 0.0000e+00 1.0000e+00
       11 -1    0    0    0    0 -0.0000000000e+00 -0.0000000000e+00 -4.5593999997e+01 4.5594000000e+01 5.1100000000e-04 0.0000e+00 -1.0000e+00
       23  2    1    2    0    0 +1.7763568394e-15 +0.0000000000e+00 -3.1086244690e-15 9.1188000000e+01 9.1188000000e+01 2.5220e-13 0.0000e+00
 -9990012  2    3    3    0    0 -8.1517857082e+00 +1.6628449654e+01 +2.7789537807e+00 7.2461560609e+01 6.9999987383e+01 4.3816e-04 0.0000e+00
      -11  1    4    4    0    0 -4.4956046378e+00 +2.3913728212e+01 -1.1278903021e+01 2.6819591937e+01 5.1100000000e-04 0.0000e+00 1.0000e+00
       11  1    4    4    0    0 -1.3920276867e+01 +1.2580715528e+01 -8.2494665373e-01 1.8781082197e+01 5.1100000000e-04 0.0000e+00 -1.0000e+00
      -12  1    4    4    0    0 +1.0264095796e+01 -1.9865994086e+01 +1.4882803455e+01 2.6860886475e+01 0.0000000000e+00 0.0000e+00 1.0000e+00
       12  1    3    3    0    0 +8.1517857082e+00 -1.6628449654e+01 -2.7789537807e+00 1.8726439391e+01 0.0000000000e+00 0.0000e+00 -1.0000e+00
</event>
<event>
 9      3 +1.0086356e-04 9.11880000e+01 7.81616400e-03 1.18400000e-01
      -11 -1    0    0    0    0 +0.0000000000e+00 +0.0000000000e+00 +4.5593999997e+01 4.5594000000e+01 5.1100000000e-04 0.0000e+00 1.0000e+00
       11 -1    0    0    0    0 -0.0000000000e+00 -0.0000000000e+00 -4.5593999997e+01 4.5594000000e+01 5.1100000000e-04 0.0000e+00 -1.0000e+00
       23  2    1    2    0    0 +3.5527136788e-15 +4.4408920985e-16 -2.2204460493e-16 9.1188000000e+01 9.1188000000e+01 2.7147e-13 0.0000e+00
  9990012  2    3    3    0    0 +1.8462294016e+01 +2.4943414489e+00 -1.8969284922e+00 7.2461644847e+01 7.0000097119e+01 2.3504e-04 0.0000e+00
       24  2    4    4    0    0 +2.0463223875e+01 -5.0751610472e+00 -7.2166237087e+00 6.2995904211e+01 5.8922860577e+01 6.2520e-15 0.0000e+00
      -11  1    5    5    0    0 -1.8395312803e+01 -1.0708108166e+01 +5.0194099985e+00 2.1868826915e+01 5.1100000000e-04 0.0000e+00 -1.0000e+00
       11  1    4    4    0    0 -2.0009298581e+00 +7.5695024961e+00 +5.3196952165e+00 9.4657406363e+00 5.1100000000e-04 0.0000e+00 1.0000e+00
       12  1    5    5    0    0 +3.8858536678e+01 +5.6329471193e+00 -1.2236033707e+01 4.1127077296e+01 0.0000000000e+00 0.0000e+00 -1.0000e+00
      -12  1    3    3    0    0 -1.8462294016e+01 -2.4943414489e+00 +1.8969284922e+00 1.8726355153e+01 0.0000000000e+00 0.0000e+00 1.0000e+00
</event>
<event>
 9      2 +1.0086356e-04 9.11880000e+01 7.81616400e-03 1.18400000e-01
      -11 -1    0    0    0    0 +0.0000000000e+00 +0.0000000000e+00 +4.5593999997e+01 4.5594000000e+01 5.1100000000e-04 0.0000e+00 -1.0000e+00
       11 -1    0    0    0    0 -0.0000000000e+00 -0.0000000000e+00 -4.5593999997e+01 4.5594000000e+01 5.1100000000e-04 0.0000e+00 1.0000e+00
       23  2    1    2    0    0 +1.7763568394e-15 +1.7763568394e-15 -1.7763568394e-15 9.1188000000e+01 9.1188000000e+01 1.3609e-13 0.0000e+00
 -9990012  2    3    3    0    0 -1.4199937869e+01 -6.7264076194e+00 -1.0187802540e+01 7.2461705237e+01 7.0000175788e+01 5.7426e-05 0.0000e+00
       23  2    4    4    0    0 -1.9975399155e+01 -9.7136053731e+00 -6.9986779023e+00 6.5219480480e+01 6.0919852602e+01 1.3669e-15 0.0000e+00
      -11  1    5    5    0    0 -3.6672562439e+01 -1.6024586962e+01 -1.8390580025e+01 4.4044042242e+01 5.1100000000e-04 0.0000e+00 1.0000e+00
       11  1    5    5    0    0 +1.6697163284e+01 +6.3109815886e+00 +1.1391902122e+01 2.1175438238e+01 5.1100000000e-04 0.0000e+00 -1.0000e+00
      -12  1    4    4    0    0 +5.7754612855e+00 +2.9871977536e+00 -3.1891246375e+00 7.2422247571e+00 0.0000000000e+00 0.0000e+00 1.0000e+00
       12  1    3    3    0    0 +1.4199937869e+01 +6.7264076194e+00 +1.0187802540e+01 1.8726294763e+01 0.0000000000e+00 0.0000e+00 -1.0000e+00
</event>
<event>
 8      3 +1.0086356e-04 9.11880000e+01 7.81616400e-03 1.18400000e-01
      -11 -1    0    0    0    0 +0.0000000000e+00 +0.0000000000e+00 +4.5593999997e+01 4.5594000000e+01 5.1100000000e-04 0.0000e+00 1.0000e+00
       11 -1    0    0    0    0 -0.0000000000e+00 -0.0000000000e+00 -4.5593999997e+01 4.5594000000e+01 5.1100000000e-04 0.0000e+00 -1.0000e+00
       23  2    1    2    0    0 -1.3322676296e-15 +3.5527136788e-15 -8.8817841970e-16 9.1188000000e+01 9.1188000000e+01 1.6006e-13 0.0000e+00
  9990012  2    3    3    0    0 -2.9645990995e+00 -1.8317508406e+01 -2.5214203984e+00 7.2461614261e+01 7.0000057275e+01 2.3879e-05 0.0000e+00
      -11  1    4    4    0    0 +4.9263907721e+00 +9.9524052276e-01 +6.1320469562e+00 7.9285452557e+00 5.1100000000e-04 0.0000e+00 1.0000e+00
       11  1    4    4    0    0 -2.2671965777e+01 -2.3747735733e+00 +1.8445050840e+01 2.9323667616e+01 5.1100000000e-04 0.0000e+00 -1.0000e+00
       12  1    4    4    0    0 +1.4780975905e+01 -1.6937975355e+01 -2.7098518194e+01 3.5209401389e+01 0.0000000000e+00 0.0000e+00 -1.0000e+00
      -12  1    3    3    0    0 +2.9645990995e+00 +1.8317508406e+01 +2.5214203984e+00 1.8726385739e+01 0.0000000000e+00 0.0000e+00 1.0000e+00
</event>
<event>
 9      3 +1.0086356e-04 9.11880000e+01 7.81616400e-03 1.18400000e-01
      -11 -1    0    0    0    0 +0.0000000000e+00 +0.0000000000e+00 +4.5593999997e+01 4.5594000000e+01 5.1100000000e-04 0.0000e+00 1.0000e+00
       11 -1    0    0    0    0 -0.0000000000e+00 -0.0000000000e+00 -4.5593999997e+01 4.5594000000e+01 5.1100000000e-04 0.0000e+00 -1.0000e+00
       23  2    1    2    0    0 -1.7763568394e-15 +1.7763568394e-15 +0.0000000000e+00 9.1188000000e+01 9.1188000000e+01 1.2522e-13 0.0000e+00
  9990012  2    3    3    0    0 -1.4562344016e+01 +1.1701743868e+01 -1.2991562239e+00 7.2461535312e+01 6.9999954429e+01 1.1349e-04 0.0000e+00
       24  2    4    4    0    0 -1.4863737720e+01 +3.9954992994e+00 -4.0654806619e+00 6.4268270110e+01 6.2265461504e+01 9.4549e-15 0.0000e+00
      -11  1    5    5    0    0 +2.2299918400e+00 +2.9168425944e+01 +9.7706105246e+00 3.0842094059e+01 5.1100000000e-04 0.0000e+00 1.0000e+00
       11  1    4    4    0    0 +3.0139370325e-01 +7.7062445688e+00 +2.7663244379e+00 8.1932652024e+00 5.1100000000e-04 0.0000e+00 -1.0000e+00
       12  1    5    5    0    0 -1.7093729560e+01 -2.5172926644e+01 -1.3836091186e+01 3.3426176051e+01 0.0000000000e+00 0.0000e+00 -1.0000e+00
      -12  1    3    3    0    0 +1.4562344016e+01 -1.1701743868e+01 +1.2991562239e+00 1.8726464688e+01 0.0000000000e+00 0.0000e+00 1.0000e+00
</event>
<event>
 8      3 +1.0086356e-04 9.11880000e+01 7.81616400e-03 1.18400000e-01
      -11 -1    0    0    0    0 +0.0000000000e+00 +0.0000000000e+00 +4.5593999997e+01 4.5594000000e+01 5.1100000000e-04 0.0000e+00 -1.0000e+00
       11 -1    0    0    0    0 -0.0000000000e+00 -0.0000000000e+00 -4.5593999997e+01 4.5594000000e+01 5.1100000000e-04 0.0000e+00 1.0000e+00
       23  2    1    2    0    0 +2.6645352591e-15 +0.0000000000e+00 -3.5527136788e-15 9.1188000000e+01 9.1188000000e+01 1.4752e-14 0.0000e+00
  9990012  2    3    3    0    0 +7.3913145391e+00 -1.1978694890e+01 +1.2351377545e+01 7.2461623171e+01 7.0000068881e+01 1.5871e-05 0.0000e+00
      -11  1    4    4    0    0 -9.2653199183e+00 -1.1673517514e+01 -8.3141735895e+00 1.7065832739e+01 5.1100000000e-04 0.0000e+00 1.0000e+00
       11  1    4    4    0    0 -7.8857065038e+00 +2.5927654410e+00 -1.1903584042e+01 1.4512136748e+01 5.1100000000e-04 0.0000e+00 -1.0000e+00
       12  1    4    4    0    0 +2.4542340961e+01 -2.8979428174e+00 +3.2569135176e+01 4.0883653684e+01 0.0000000000e+00 0.0000e+00 -1.0000e+00
      -12  1    3    3    0    0 -7.3913145391e+00 +1.1978694890e+01 -1.2351377545e+01 1.8726376829e+01 0.0000000000e+00 0.0000e+00 1.0000e+00
</event>
<event>
 9      3 +1.0086356e-04 9.11880000e+01 7.81616400e-03 1.18400000e-01
      -11 -1    0    0    0    0 +0.0000000000e+00 +0.0000000000e+00 +4.5593999997e+01 4.5594000000e+01 5.1100000000e-04 0.0000e+00 1.0000e+00
       11 -1    0    0    0    0 -0.0000000000e+00 -0.0000000000e+00 -4.5593999997e+01 4.5594000000e+01 5.1100000000e-04 0.0000e+00 -1.0000e+00
       23  2    1    2    0    0 +0.0000000000e+00 -2.2204460493e-16 -8.8817841970e-16 9.1188000000e+01 9.1188000000e+01 1.2928e-13 0.0000e+00
  9990012  2    3    3    0    0 +1.7045393986e+01 -5.3784701502e-01 +7.7359171498e+00 7.2461570823e+01 7.0000000689e+01 1.0887e-04 0.0000e+00
       24  2    4    4    0    0 +5.8247430164e+00 -7.8869879453e+00 -6.4742042613e+00 5.2920833084e+01 5.1600068251e+01 5.4579e-15 0.0000e+00
      -11  1    5    5    0    0 +4.7735127645e+00 +4.6412796740e+00 +2.1362882537e+01 2.2376341338e+01 5.1100000000e-04 0.0000e+00 1.0000e+00
       11  1    4    4    0    0 +1.1220650970e+01 +7.3491409303e+00 +1.4210121411e+01 1.9540737739e+01 5.1100000000e-04 0.0000e+00 -1.0000e+00
       12  1    5    5    0    0 +1.0512302519e+00 -1.2528267619e+01 -2.7837086799e+01 3.0544491746e+01 0.0000000000e+00 0.0000e+00 -1.0000e+00
      -12  1    3    3    0    0 -1.7045393986e+01 +5.3784701502e-01 -7.7359171498e+00 1.8726429177e+01 0.0000000000e+00 0.0000e+00 1.0000e+00
</event>
<event>
 8      4 +1.0086356e-04 9.11880000e+01 7.81616400e-03 1.18400000e-01
      -11 -1    0    0    0    0 +0.0000000000e+00 +0.0000000000e+00 +4.5593999997e+01 4.5594000000e+01 5.1100000000e-04 0.0000e+00 1.0000e+00
       11 -1    0    0    0    0 -0.0000000000e+00 -0.0000000000e+00 -4.5593999997e+01 4.5594000000e+01 5.1100000000e-04 0.0000e+00 -1.0000e+00
       23  2    1    2    0    0 +3.5527136788e-15 +4.4408920985e-15 +0.0000000000e+00 9.1188000000e+01 9.1188000000e+01 3.6925e-14 0.0000e+00
 -9990012  2    3    3    0    0 -1.5671541191e+01 +1.4515502563e+00 +1.0147781849e+01 7.2461503320e+01 6.9999912754e+01 2.9444e-04 0.0000e+00
      -11  1    4    4    0    0 +8.0062455041e+00 +2.9027863961e+01 +1.0745483237e+01 3.1971585251e+01 5.1100000000e-04 0.0000e+00 1.0000e+00
       11  1    4    4    0    0 -9.5456585153e-01 -1.3891480407e+01 -1.0107654582e+00 1.3960876438e+01 5.1100000000e-04 0.0000e+00 -1.0000e+00
      -12  1    4    4    0    0 -2.2723220844e+01 -1.3684833298e+01 +4.1306406949e-01 2.6529041630e+01 0.0000000000e+00 0.0000e+00 1.0000e+00
       12  1    3    3    0    0 +1.5671541191e+01 -1.4515502563e+00 -1.0147781849e+01 1.8726496680e+01 0.0000000000e+00 0.0000e+00 -1.0000e+00
</event>
<event>
 9      3 +1.0086356e-04 9.11880000e+01 7.81616400e-03 1.18400000e-01
      -11 -1    0    0    0    0 +0.0000000000e+00 +0.0000000000e+00 +4.5593999997e+01 4.5594000000e+01 5.1100000000e-04 0.0000e+00 1.0000e+00
       11 -1    0    0    0    0 -0.0000000000e+00 -0.0000000000e+00 -4.5593999997e+01 4.5594000000e+01 5.1100000000e-04 0.0000e+00 -1.0000e+00
       23  2    1    2    0    0 +1.1102230246e-16 +0.0000000000e+00 -3.5527136788e-15 9.1188000000e+01 9.1188000000e+01 4.7037e-14 0.0000e+00
  9990012  2    3    3    0    0 -8.8434758843e-01 -1.1333196863e+01 -1.4881070287e+01 7.2461823810e+01 7.0000330251e+01 3.4614e-04 0.0000e+00
       24  2    4    4    0    0 +7.7063104423e-01 +4.5367373855e+00 -7.3197538639e+00 5.4804891074e+01 5.4118586740e+01 6.7520e-14 0.0000e+00
      -11  1    5    5    0    0 -7.9953435060e-01 +1.8386996569e+00 -3.0927110483e+01 3.0992035020e+01 5.1100000000e-04 0.0000e+00 1.0000e+00
       11  1    4    4    0    0 -1.6549786327e+00 -1.5869934248e+01 -7.5613164236e+00 1.7656932736e+01 5.1100000000e-04 0.0000e+00 -1.0000e+00
       12  1    5    5    0    0 +1.5701653948e+00 +2.6980377286e+00 +2.3607356619e+01 2.3812856055e+01 0.0000000000e+00 0.0000e+00 -1.0000e+00
      -12  1    3    3    0    0 +8.8434758843e-01 +1.1333196863e+01 +1.4881070287e+01 1.8726176190e+01 0.0000000000e+00 0.0000e+00 1.0000e+00
</event>
<event>
 8      3 +1.0086356e-04 9.11880000e+01 7.81616400e-03 1.18400000e-01
      -11 -1    0    0    0    0 +0.0000000000e+00 +0.0000000000e+00 +4.5593999997e+01 4.5594000000e+01 5.1100000000e-04 0.0000e+00 -1.0000e+00
       11 -1    0    0    0    0 -0.0000000000e+00 -0.0000000000e+00 -4.5593999997e+01 4.5594000000e+01 5.1100000000e-04 0.0000e+00 1.0000e+00
       23  2    1    2    0    0 +1.7763568394e-15 +1.7763568394e-15 -2.3037127761e-15 9.1188000000e+01 9.1188000000e+01 5.3052e-14 0.0000e+00
  9990012  2    3    3    0    0 +1.2165423186e+01 +1.4236638745e+01 -7.6068022243e-03 7.2461562487e+01 6.9999989830e+01 1.7519e-04 0.0000e+00
      -11  1    4    4    0    0 -1.6466443211e+01 -4.7260213152e+00 -9.2798158888e+00 1.9483172552e+01 5.1100000000e-04 0.0000e+00 1.0000e+00
       11  1    4    4    0    0 +5.2019236978e+00 +3.6930726715e+00 +2.1521380032e+01 2.2447017501e+01 5.1100000000e-04 0.0000e+00 -1.0000e+00
       12  1    4    4    0    0 +2.3429942699e+01 +1.5269587389e+01 -1.2249170946e+01 3.0531372435e+01 0.0000000000e+00 0.0000e+00 -1.0000e+00
      -12  1    3    3    0    0 -1.2165423186e+01 -1.4236638745e+01 +7.6068022243e-03 1.8726437513e+01 0.0000000000e+00 0.0000e+00 1.0000e+00
</event>
<event>
 8      4 +1.0086356e-04 9.11880000e+01 7.81616400e-03 1.18400000e-01
      -11 -1    0    0    0    0 +0.0000000000e+00 +0.0000000000e+00 +4.5593999997e+01 4.5594000000e+01 5.1100000000e-04 0.0000e+00 -1.0000e+00
       11 -1    0    0    0    0 -0.0000000000e+00 -0.0000000000e+00 -4.5593999997e+01 4.5594000000e+01 5.1100000000e-04 0.0000e+00 1.0000e+00
       23  2    1    2    0    0 +0.0000000000e+00 -1.7763568394e-15 +2.2204460493e-15 9.1188000000e+01 9.1188000000e+01 3.0762e-14 0.0000e+00
 -9990012  2    3    3    0    0 -1.1295301878e+01 -1.4647902021e+01 +2.9214320146e+00 7.2461557648e+01 6.9999983526e+01 6.9452e-04 0.0000e+00
      -11  1    4    4    0    0 +1.2486776389e+00 -2.4374026789e+01 +1.6851137519e+01 2.9658273950e+01 5.1100000000e-04 0.0000e+00 1.0000e+00
       11  1    4    4    0    0 -2.4251852896e+01 +3.0808514535e+00 -1.5201625880e+00 2.4493976997e+01 5.1100000000e-04 0.0000e+00 -1.0000e+00
      -12  1    4    4    0    0 +1.1707873379e+01 +6.6452733144e+00 -1.2409542916e+01 1.8309306701e+01 0.0000000000e+00 0.0000e+00 1.0000e+00
       12  1    3    3    0    0 +1.1295301878e+01 +1.4647902021e+01 -2.9214320146e+00 1.8726442352e+01 0.0000000000e+00 0.0000e+00 -1.0000e+00
</event>
<event>
 9      1 +1.0086356e-04 9.11880000e+01 7.81616400e-03 1.18400000e-01
      -11 -1    0    0    0    0 +0.0000000000e+00 +0.0000000000e+00 +4.5593999997e+01 4.5594000000e+01 5.1100000000e-04 0.0000e+00 1.0000e+00
       11 -1    0    0    0    0 -0.0000000000e+00 -0.0000000000e+00 -4.5593999997e+01 4.5594000000e+01 5.1100000000e-04 0.0000e+00 -1.0000e+00
       23  2    1    2    0    0 -3.5527136788e-15 +2.2204460493e-16 +1.7763568394e-15 9.1188000000e+01 9.1188000000e+01 5.0242e-14 0.0000e+00
  9990012  2    3    3    0    0 -1.5722453200e+01 -1.5812144126e+00 -1.0048944577e+01 7.2461626599e+01 7.0000073347e+01 2.6302e-04 0.0000e+00
       23  2    4    4    0    0 -5.9741530265e+00 +2.2624728567e-01 -1.1815149845e+01 6.2391087630e+01 6.0969733127e+01 1.0281e-14 0.0000e+00
      -11  1    5    5    0    0 +2.3851820782e+01 -1.2812088824e+01 -1.2525634441e+01 2.9832038031e+01 5.1100000000e-04 0.0000e+00 -1.0000e+00
       11  1    5    5    0    0 -2.9825973809e+01 +1.3038336110e+01 +7.1048459687e-01 3.2559049599e+01 5.1100000000e-04 0.0000e+00 1.0000e+00
       12  1    4    4    0    0 -9.7483001738e+00 -1.8074616982e+00 +1.7662052675e+00 1.0070538968e+01 0.0000000000e+00 0.0000e+00 -1.0000e+00
      -12  1    3    3    0    0 +1.5722453200e+01 +1.5812144126e+00 +1.0048944577e+01 1.8726373401e+01 0.0000000000e+00 0.0000e+00 1.0000e+00
</event>
<event>
 8      4 +1.0086356e-04 9.11880000e+01 7.81616400e-03 1.18400000e-01
      -11 -1    0    0    0    0 +0.0000000000e+00 +0.0000000000e+00 +4.5593999997e+01 4.5594000000e+01 5.1100000000e-04 0.0000e+00 1.0000e+00
       11 -1    0    0    0    0 -0.0000000000e+00 -0.0000000000e+00 -4.5593999997e+01 4.5594000000e+01 5.1100000000e-04 0.0000e+00 -1.0000e+00
       23  2    1    2    0    0 +0.0000000000e+00 +0.0000000000e+00 +2.6645352591e-15 9.1188000000e+01 9.1188000000e+01 9.4540e-14 0.0000e+00
 -9990012  2    3    3    0    0 +1.1077829384e+01 +1.4960835677e+01 -2.0332393692e+00 7.2461575612e+01 7.0000006927e+01 5.4057e-05 0.0000e+00
      -11  1    4    4    0    0 -1.2133981966e+01 +1.9382997933e+01 -2.1035225378e+01 3.1071125409e+01 5.1100000000e-04 0.0000e+00 -1.0000e+00
       11  1    4    4    0    0 +2.8236619579e+01 -9.3360273759e+00 +1.5172449295e+01 3.3386693611e+01 5.1100000000e-04 0.0000e+00 1.0000e+00
      -12  1    4    4    0    0 -5.0248082278e+00 +4.9138651200e+00 +3.8295367140e+00 8.0037565922e+00 0.0000000000e+00 0.0000e+00 1.0000e+00
       12  1    3    3    0    0 -1.1077829384e+01 -1.4960835677e+01 +2.0332393692e+00 1.8726424388e+01 0.0000000000e+00 0.0000e+00 -1.0000e+00
</event>
<event>
 9      4 +1.0086356e-04 9.11880000e+01 7.81616400e-03 1.18400000e-01
      -11 -1    0    0    0    0 +0.0000000000e+00 +0.0000000000e+00 +4.5593999997e+01 4.5594000000e+01 5.1100000000e-04 0.0000e+00 -1.0000e+00
       11 -1    0    0    0    0 -0.0000000000e+00 -0.0000000000e+00 -4.5593999997e+01 4.5594000000e+01 5.1100000000e-04 0.0000e+00 1.0000e+00
       23  2    1    2    0    0 +2.6645352591e-15 +3.5527136788e-15 +1.7763568394e-15 9.1188000000e+01 9.1188000000e+01 3.3374e-13 0.0000e+00
 -9990012  2    3    3    0    0 -7.2174095100e+00 -1.1220274141e+01 -1.3141268372e+01 7.2461588538e+01 7.0000023765e+01 4.5882e-05 0.0000e+00
      -24  2    4    4    0    0 -7.8991556325e+00 -1.3050691168e+01 -1.2424189744e+01 7.0380865998e+01 6.7575059069e+01 1.3781e-13 0.0000e+00
      -11  1    4    4    0    0 +6.8174612246e-01 +1.8304170273e+00 -7.1707862760e-01 2.0807225400e+00 5.1100000000e-04 0.0000e+00 1.0000e+00
       11  1    5    5    0    0 -2.2969438878e+01 +2.0970202165e+01 -1.1499754969e+01 3.3160049243e+01 5.1100000000e-04 0.0000e+00 -1.0000e+00
      -12  1    5    5    0    0 +1.5070283245e+01 -3.4020893333e+01 -9.2443477567e-01 3.7220816755e+01 0.0000000000e+00 0.0000e+00 1.0000e+00
       12  1    3    3    0    0 +7.2174095100e+00 +1.1220274141e+01 +1.3141268372e+01 1.8726411462e+01 0.0000000000e+00 0.0000e+00 -1.0000e+00
</event>
<event>
 9      4 +1.0086356e-04 9.11880000e+01 7.81616400e-03 1.18400000e-01
      -11 -1    0    0    0    0 +0.0000000000e+00 +0.0000000000e+00 +4.5593999997e+01 4.5594000000e+01 5.1100000000e-04 0.0000e+00 1.0000e+00
       11 -1    0    0    0    0 -0.0000000000e+00 -0.0000000000e+00 -4.5593999997e+01 4.5594000000e+01 5.1100000000e-04 0.0000e+00 -1.0000e+00
       23  2    1    2    0    0 +3.5527136788e-15 +1.1102230246e-15 -4.4408920985e-16 9.1188000000e+01 9.1188000000e+01 2.5784e-14 0.0000e+00
 -9990012  2    3    3    0    0 -1.8425136262e+01 -1.6870321130e+00 -2.8899169344e+00 7.2461458848e+01 6.9999854820e+01 7.6473e-04 0.0000e+00
      -24  2    4    4    0    0 -2.2654861016e+01 +7.1160064255e+00 -9.6744116211e+00 6.0569721068e+01 5.4874553256e+01 3.4743e-15 0.0000e+00
      -11  1    4    4    0    0 +4.2297247536e+00 -8.8030385385e+00 +6.7844946866e+00 1.1891737779e+01 5.1100000000e-04 0.0000e+00 1.0000e+00
       11  1    5    5    0    0 +3.3843134949e+00 -1.3430851473e+01 -2.1312515047e+01 2.5417801774e+01 5.1100000000e-04 0.0000e+00 -1.0000e+00
      -12  1    5    5    0    0 -2.6039174511e+01 +2.0546857899e+01 +1.1638103426e+01 3.5151919294e+01 0.0000000000e+00 0.0000e+00 1.0000e+00
       12  1    3    3    0    0 +1.8425136262e+01 +1.6870321130e+00 +2.8899169344e+00 1.8726541152e+01 0.0000000000e+00 0.0000e+00 -1.0000e+00
</event>
<event>
 9      4 +1.0086356e-04 9.11880000e+01 7.81616400e-03 1.18400000e-01
      -11 -1    0    0    0    0 +0.0000000000e+00 +0.0000000000e+00 +4.5593999997e+01 4.5594000000e+01 5.1100000000e-04 0.0000e+00 1.0000e+00
       11 -1    0    0    0    0 -0.0000000000e+00 -0.0000000000e+00 -4.5593999997e+01 4.5594000000e+01 5.1100000000e-04 0.0000e+00 -1.0000e+00
       23  2    1    2    0    0 -3.5527136788e-15 +0.0000000000e+00 +2.6645352591e-15 9.1188000000e+01 9.1188000000e+01 3.5879e-14 0.0000e+00
 -9990012  2    3    3    0    0 +1.6602022478e+01 +6.2548642307e+00 -5.9938019457e+00 7.2461651219e+01 7.0000105419e+01 4.0077e-04 0.0000e+00
      -24  2    4    4    0    0 +2.6881037521e+01 +2.0448232383e+00 -9.3337544305e-01 6.0255484251e+01 5.3880244175e+01 7.0549e-14 0.0000e+00
      -11  1    4    4    0    0 -1.0279015043e+01 +4.2100409924e+00 -5.0604265026e+00 1.2206166968e+01 5.1100000000e-04 0.0000e+00 1.0000e+00
       11  1    5    5    0    0 -1.2974119734e+01 -5.7833020040e+00 +1.0950872764e+01 1.7935885244e+01 5.1100000000e-04 0.0000e+00 -1.0000e+00
      -12  1    5    5    0    0 +3.9855157255e+01 +7.8281252424e+00 -1.1884248207e+01 4.2319599006e+01 0.0000000000e+00 0.0000e+00 1.0000e+00
       12  1    3    3    0    0 -1.6602022478e+01 -6.2548642307e+00 +5.9938019457e+00 1.8726348781e+01 0.0000000000e+00 0.0000e+00 -1.0000e+00
</event>
<event>
 9      4 +1.0086356e-04 9.11880000e+01 7.81616400e-03 1.18400000e-01
      -11 -1    0    0    0    0 +0.0000000000e+00 +0.0000000000e+00 +4.5593999997e+01 4.5594000000e+01 5.1100000000e-04 0.0000e+00 -1.0000e+00
       11 -1    0    0    0    0 -0.0000000000e+00 -0.0000000000e+00 -4.5593999997e+01 4.5594000000e+01 5.1100000000e-04 0.0000e+00 1.0000e+00
       23  2    1    2    0    0 +1.7763568394e-15 +2.6645352591e-15 +0.0000000000e+00 9.1188000000e+01 9.1188000000e+01 5.0524e-15 0.0000e+00
 -9990012  2    3    3    0    0 -1.4080922627e+01 -5.0759823724e+00 -1.1253466165e+01 7.2461588710e+01 7.0000023990e+01 1.6482e-04 0.0000e+00
      -24  2    4    4    0    0 -1.3544300294e+01 -4.9257063950e+00 -1.2081261584e+01 7.1463694971e+01 6.8944848709e+01 4.3621e-13 0.0000e+00
      -11  1    4    4    0    0 -5.3662233263e-01 -1.5027597741e-01 +8.2779541926e-01 9.9789373910e-01 5.1100000000e-04 0.0000e+00 1.0000e+00
       11  1    5    5    0    0 -4.9902265393e-01 -3.6371273060e+01 -5.4729520381e+00 3.6784123367e+01 5.1100000000e-04 0.0000e+00 -1.0000e+00
      -12  1    5    5    0    0 -1.3045277640e+01 +3.1445566665e+01 -6.6083095463e+00 3.4679571604e+01 0.0000000000e+00 0.0000e+00 1.0000e+00
       12  1    3    3    0    0 +1.4080922627e+01 +5.0759823724e+00 +1.1253466165e+01 1.8726411290e+01 0.0000000000e+00 0.0000e+00 -1.0000e+00
</event>
<event>
 8      3 +1.0086356e-04 9.11880000e+01 7.81616400e-03 1.18400000e-01
      -11 -1    0    0    0    0 +0.0000000000e+00 +0.0000000000e+00 +4.5593999997e+01 4.5594000000e+01 5.1100000000e-04 0.0000e+00 -1.0000e+00
       11 -1    0    0    0    0 -0.0000000000e+00 -0.0000000000e+00 -4.5593999997e+01 4.5594000000e+01 5.1100000000e-04 0.0000e+00 1.0000e+00
       23  2    1    2    0    0 +1.7763568394e-15 -1.1102230246e-16 +1.7763568394e-15 9.1188000000e+01 9.1188000000e+01 1.0314e-15 0.0000e+00
  9990012  2    3    3    0    0 +1.3035000516e+01 +4.8083515127e-01 +1.3436679482e+01 7.2461366656e+01 6.9999734723e+01 6.8323e-05 0.0000e+00
      -11  1    4    4    0    0 -9.4913180418e+00 +3.2412591432e+00 -4.2535026259e+00 1.0894180275e+01 5.1100000000e-04 0.0000e+00 1.0000e+00
       11  1    4    4    0    0 -1.6626225998e+01 -4.0205409093e+00 -2.8414643376e+00 1.7339840253e+01 5.1100000000e-04 0.0000e+00 -1.0000e+00
       12  1    4    4    0    0 +3.9152544556e+01 +1.2601169174e+00 +2.0531646445e+01 4.4227346129e+01 0.0000000000e+00 0.0000e+00 -1.0000e+00
      -12  1    3    3    0    0 -1.3035000516e+01 -4.8083515127e-01 -1.3436679482e+01 1.8726633344e+01 0.0000000000e+00 0.0000e+00 1.0000e+00
</event>
<event>
 8      3 +1.0086356e-04 9.11880000e+01 7.81616400e-03 1.18400000e-01
      -11 -1    0    0    0    0 +0.0000000000e+00 +0.0000000000e+00 +4.5593999997e+01 4.5594000000e+01 5.1100000000e-04 0.0000e+00 1.0000e+00
       11 -1    0    0    0    0 -0.0000000000e+00 -0.0000000000e+00 -4.5593999997e+01 4.5594000000e+01 5.1100000000e-04 0.0000e+00 -1.0000e+00
       23  2    1    2    0    0 +0.0000000000e+00 +0.0000000000e+00 +0.0000000000e+00 9.1188000000e+01 9.1188000000e+01 5.5673e-14 0.0000e+00
  9990012  2    3    3    0    0 -6.6645588318e+00 -1.6623691098e+01 -5.4694903666e+00 7.2461580828e+01 7.0000013721e+01 1.7661e-05 0.0000e+00
      -11  1    4    4    0    0 -2.5633274800e+00 -1.9168575335e+01 +1.5298720853e+01 2.4658787240e+01 5.1100000000e-04 0.0000e+00 1.0000e+00
       11  1    4    4    0    0 -1.7723107622e+01 +2.2716844691e+00 +5.0863983181e+00 1.8577958505e+01 5.1100000000e-04 0.0000e+00 -1.0000e+00
       12  1    4    4    0    0 +1.3621876270e+01 +2.7319976810e-01 -2.5854609537e+01 2.9224835082e+01 0.0000000000e+00 0.0000e+00 -1.0000e+00
      -12  1    3    3    0    0 +6.6645588318e+00 +1.6623691098e+01 +5.4694903666e+00 1.8726419172e+01 0.0000000000e+00 0.0000e+00 1.0000e+00
</event>
<event>
 8      4 +1.0086356e-04 9.11880000e+01 7.81616400e-03 1.18400000e-01
      -11 -1    0    0    0    0 +0.0000000000e+00 +0.0000000000e+00 +4.5593999997e+01 4.5594000000e+01 5.1100000000e-04 0.0000e+00 -1.0000e+00
       11 -1    0    0    0    0 -0.0000000000e+00 -0.0000000000e+00 -4.5593999997e+01 4.5594000000e+01 5.1100000000e-04 0.0000e+00 1.0000e+00
       23  2    1    2    0    0 +3.5527136788e-15 +2.2204460493e-16 +0.0000000000e+00 9.1188000000e+01 9.1188000000e+01 4.5657e-14 0.0000e+00
 -9990012  2    3    3    0    0 -5.1609659327e+00 +3.7980541016e-01 -1.7997190187e+01 7.2461583468e+01 7.0000017161e+01 2.5133e-04 0.0000e+00
      -11  1    4    4    0    0 +2.5683999015e+01 -1.9472579929e-01 -4.4784037457e+00 2.6072242403e+01 5.1100000000e-04 0.0000e+00 -1.0000e+00
       11  1    4    4    0    0 -3.1316586420e+01 -2.7585247936e+00 +1.0314712360e+00 3.1454760803e+01 5.1100000000e-04 0.0000e+00 1.0000e+00
      -12  1    4    4    0    0 +4.7162147188e-01 +3.3330560031e+00 -1.4550257677e+01 1.4934580262e+01 0.0000000000e+00 0.0000e+00 1.0000e+00
       12  1    3    3    0    0 +5.1609659327e+00 -3.7980541016e-01 +1.7997190187e+01 1.8726416532e+01 0.0000000000e+00 0.0000e+00 -1.0000e+00
</event>
<event>
 8      3 +1.0086356e-04 9.11880000e+01 7.81616400e-03 1.18400000e-01
      -11 -1    0    0    0    0 +0.0000000000e+00 +0.0000000000e+00 +4.5593999997e+01 4.5594000000e+01 5.1100000000e-04 0.0000e+00 -1.0000e+00
       11 -1    0    0    0    0 -0.0000000000e+00 -0.0000000000e+00 -4.5593999997e+01 4.5594000000e+01 5.1100000000e-04 0.0000e+00 1.0000e+00
       23  2    1    2    0    0 +0.0000000000e+00 +4.4408920985e-16 +1.7763568394e-15 9.1188000000e+01 9.1188000000e+01 5.4570e-14 0.0000e+00
  9990012  2    3    3    0    0 -9.8349460879e+00 -3.9060387076e+00 +1.5449768445e+01 7.2461584221e+01 7.0000018141e+01 1.4116e-04 0.0000e+00
      -11  1    4    4    0    0 +1.3893628089e+01 -1.5205531966e+01 +4.9525169623e+00 2.1184157486e+01 5.1100000000e-04 0.0000e+00 1.0000e+00
       11  1    4    4    0    0 -1.2857945943e+01 -1.4335634773e+01 -4.3199182656e+00 1.9735726293e+01 5.1100000000e-04 0.0000e+00 -1.0000e+00
       12  1    4    4    0    0 -1.0870628234e+01 +2.5635128032e+01 +1.4817169748e+01 3.1541700442e+01 0.0000000000e+00 0.0000e+00 -1.0000e+00
      -12  1    3    3    0    0 +9.8349460879e+00 +3.9060387076e+00 -1.5449768445e+01 1.8726415779e+01 0.0000000000e+00 0.0000e+00 1.0000e+00
</event>
<event>
 8      4 +1.0086356e-04 9.11880000e+01 7.81616400e-03 1.18400000e-01
      -11 -1    0    0    0    0 +0.0000000000e+00 +0.0000000000e+00 +4.5593999997e+01 4.5594000000e+01 5.1100000000e-04 0.0000e+00 1.0000e+00
       11 -1    0    0    0    0 -0.0000000000e+00 -0.0000000000e+00 -4.5593999997e+01 4.5594000000e+01 5.1100000000e-04 0.0000e+00 -1.0000e+00
       23  2    1    2    0    0 -1.0214051827e-14 +0.0000000000e+00 +0.0000000000e+00 9.1188000000e+01 9.1188000000e+01 7.4657e-14 0.0000e+00
 -9990012  2    3    3    0    0 +3.6692123129e+00 -1.9182891682e+00 +1.8262974678e+01 7.2461569576e+01 6.9999999064e+01 1.0485e-04 0.0000e+00
      -11  1    4    4    0    0 -2.9760542794e+01 +1.0266455165e+01 +1.5870140057e+01 3.5255515238e+01 5.1100000000e-04 0.0000e+00 1.0000e+00
       11  1    4    4    0    0 +7.8812980271e+00 -2.9290192809e+00 -3.9693269770e+00 9.2978260605e+00 5.1100000000e-04 0.0000e+00 -1.0000e+00
      -12  1    4    4    0    0 +2.5548457079e+01 -9.2557250526e+00 +6.3621615984e+00 2.7908228278e+01 0.0000000000e+00 0.0000e+00 1.0000e+00
       12  1    3    3    0    0 -3.6692123129e+00 +1.9182891682e+00 -1.8262974678e+01 1.8726430424e+01 0.0000000000e+00 0.0000e+00 -1.0000e+00
</event>
<event>
 8      3 +1.0086356e-04 9.11880000e+01 7.81616400e-03 1.18400000e-01
      -11 -1    0    0    0    0 +0.0000000000e+00 +0.0000000000e+00 +4.5593999997e+01 4.5594000000e+01 5.1100000000e-04 0.0000e+00 -1.0000e+00
       11 -1    0    0    0    0 -0.0000000000e+00 -0.0000000000e+00 -4.5593999997e+01 4.5594000000e+01 5.1100000000e-04 0.0000e+00 1.0000e+00
       23  2    1    2    0    0 -5.3290705182e-15 +3.5527136788e-15 +8.8817841970e-16 9.1188000000e+01 9.1188000000e+01 6.3303e-14 0.0000e+00
  9990012  2    3    3    0    0 +1.2168452372e+01 -1.3732803562e+01 +3.7443026751e+00 7.2461523307e+01 6.9999938790e+01 3.3261e-04 0.0000e+00
      -11  1    4    4    0    0 -4.1917672271e-01 +5.3268131146e+00 +5.7972710057e+00 7.8840978214e+00 5.1100000000e-04 0.0000e+00 1.0000e+00
       11  1    4    4    0    0 -1.1343083682e+01 -2.9166466529e+01 +1.3737850681e+01 3.4177139418e+01 5.1100000000e-04 0.0000e+00 -1.0000e+00
       12  1    4    4    0    0 +2.3930712777e+01 +1.0106849852e+01 -1.5790819011e+01 3.0400286068e+01 0.0000000000e+00 0.0000e+00 -1.0000e+00
      -12  1    3    3    0    0 -1.2168452372e+01 +1.3732803562e+01 -3.7443026751e+00 1.8726476693e+01 0.0000000000e+00 0.0000e+00 1.0000e+00
</event>
<event>
 9      4 +1.0086356e-04 9.11880000e+01 7.81616400e-03 1.18400000e-01
      -11 -1    0    0    0    0 +0.0000000000e+00 +0.0000000000e+00 +4.5593999997e+01 4.5594000000e+01 5.1100000000e-04 0.0000e+00 -1.0000e+00
       11 -1    0    0    0    0 -0.0000000000e+00 -0.0000000000e+00 -4.5593999997e+01 4.5594000000e+01 5.1100000000e-04 0.0000e+00 1.0000e+00
       23  2    1    2    0    0 -3.5527136788e-15 -8.8817841970e-16 +0.0000000000e+00 9.1188000000e+01 9.1188000000e+01 6.9974e-14 0.0000e+00
 -9990012  2    3    3    0    0 -1.6653005609e+01 -5.7229626214e+00 -6.3721952300e+00 7.2461554287e+01 6.9999979148e+01 2.7719e-04 0.0000e+00
      -24  2    4    4    0    0 -2.9867051195e+01 -6.9922328577e+00 -3.7322260234e+00 5.8926729377e+01 5.0174673457e+01 1.7923e-13 0.0000e+00
      -11  1    4    4    0    0 +1.3214045586e+01 +1.2692702362e+00 -2.6399692066e+00 1.3534824910e+01 5.1100000000e-04 0.0000e+00 1.0000e+00
       11  1    5    5    0    0 +9.6186725069e+00 -1.3791578548e+01 +5.7186408983e+00 1.7760330899e+01 5.1100000000e-04 0.0000e+00 -1.0000e+00
      -12  1    5    5    0    0 -3.9485723702e+01 +6.7993456906e+00 -9.4508669218e+00 4.1166398478e+01 0.0000000000e+00 0.0000e+00 1.0000e+00
       12  1    3    3    0    0 +1.6653005609e+01 +5.7229626214e+00 +6.3721952300e+00 1.8726445713e+01 0.0000000000e+00 0.0000e+00 -1.0000e+00
</event>
<event>
 8      3 +1.0086356e-04 9.11880000e+01 7.81616400e-03 1.18400000e-01
      -11 -1    0    0    0    0 +0.0000000000e+00 +0.0000000000e+00 +4.5593999997e+01 4.5594000000e+01 5.1100000000e-04 0.0000e+00 1.0000e+00
       11 -1    0    0    0    0 -0.0000000000e+00 -0.0000000000e+00 -4.5593999997e+01 4.5594000000e+01 5.1100000000e-04 0.0000e+00 -1.0000e+00
       23  2    1    2    0    0 +0.0000000000e+00 +8.8817841970e-16 +3.5527136788e-15 9.1188000000e+01 9.1188000000e+01 4.5157e-14 0.0000e+00
  9990012  2    3    3    0    0 +4.8421143337e+00 +4.1352527326e+00 -1.7610611786e+01 7.2461547216e+01 6.9999969936e+01 3.4912e-06 0.0000e+00
      -11  1    4    4    0    0 -1.5028020808e+01 -5.8832294151e+00 -1.0447847834e+01 1.9225278213e+01 5.1100000000e-04 0.0000e+00 1.0000e+00
       11  1    4    4    0    0 +7.1214263404e+00 +2.4836519382e+01 -1.7419813071e+01 3.1161150425e+01 5.1100000000e-04 0.0000e+00 -1.0000e+00
       12  1    4    4    0    0 +1.2748708801e+01 -1.4818037234e+01 +1.0257049119e+01 2.2075118577e+01 0.0000000000e+00 0.0000e+00 -1.0000e+00
      -12  1    3    3    0    0 -4.8421143337e+00 -4.1352527326e+00 +1.7610611786e+01 1.8726452784e+01 0.0000000000e+00 0.0000e+00 1.0000e+00
</event>
<event>
 8      3 +1.0086356e-04 9.11880000e+01 7.81616400e-03 1.18400000e-01
      -11 -1    0    0    0    0 +0.0000000000e+00 +0.0000000000e+00 +4.5593999997e+01 4.5594000000e+01 5.1100000000e-04 0.0000e+00 1.0000e+00
       11 -1    0    0    0    0 -0.0000000000e+00 -0.0000000000e+00 -4.5593999997e+01 4.5594000000e+01 5.1100000000e-04 0.0000e+00 -1.0000e+00
       23  2    1    2    0    0 +8.8817841970e-16 +0.0000000000e+00 +0.0000000000e+00 9.1188000000e+01 9.1188000000e+01 9.8884e-14 0.0000e+00
  9990012  2    3    3    0    0 +7.6846017917e+00 -1.0525699752e+01 -1.3447513492e+01 7.2461572709e+01 7.0000003145e+01 1.4940e-04 0.0000e+00
      -11  1    4    4    0    0 -6.8388443834e+00 +1.0855098830e+01 -1.8624706731e+01 2.2615982495e+01 5.1100000000e-04 0.0000e+00 1.0000e+00
       11  1    4    4    0    0 -1.0785333119e+01 -1.2636106674e+01 +1.3923717328e+01 2.1676358247e+01 5.1100000000e-04 0.0000e+00 -1.0000e+00
       12  1    4    4    0    0 +2.5308779295e+01 -8.7446919088e+00 -8.7465240896e+00 2.8169231967e+01 0.0000000000e+00 0.0000e+00 -1.0000e+00
      -12  1    3    3    0    0 -7.6846017917e+00 +1.0525699752e+01 +1.3447513492e+01 1.8726427291e+01 0.0000000000e+00 0.0000e+00 1.0000e+00
</event>
<event>
 9      4 +1.0086356e-04 9.11880000e+01 7.81616400e-03 1.18400000e-01
      -11 -1    0    0    0    0 +0.0000000000e+00 +0.0000000000e+00 +4.5593999997e+01 4.5594000000e+01 5.1100000000e-04 0.0000e+00 -1.0000e+00
       11 -1    0    0    0    0 -0.0000000000e+00 -0.0000000000e+00 -4.5593999997e+01 4.5594000000e+01 5.1100000000e-04 0.0000e+00 1.0000e+00
       23  2    1    2    0    0 +0.0000000000e+00 -1.4432899320e-15 +0.0000000000e+00 9.1188000000e+01 9.1188000000e+01 2.2970e-15 0.0000e+00
 -9990012  2    3    3    0    0 +1.6934438374e+01 -9.9139462873e-01 -7.9322523639e+00 7.2461582993e+01 7.0000016542e+01 2.4584e-04 0.0000e+00
      -24  2    4    4    0    0 +2.2906758431e+01 +9.2823561692e+00 +2.5406576881e+00 5.6621746897e+01 5.0879126981e+01 2.7598e-14 0.0000e+00
      -11  1    4    4    0    0 -5.9723200570e+00 -1.0273750798e+01 -1.0472910052e+01 1.5839836096e+01 5.1100000000e-04 0.0000e+00 1.0000e+00
       11  1    5    5    0    0 +4.7438551493e+00 +2.6223445541e+01 +1.3025545875e+01 2.9662065055e+01 5.1100000000e-04 0.0000e+00 -1.0000e+00
      -12  1    5    5    0    0 +1.8162903282e+01 -1.6941089372e+01 -1.0484888187e+01 2.6959681842e+01 0.0000000000e+00 0.0000e+00 1.0000e+00
       12  1    3    3    0    0 -1.6934438374e+01 +9.9139462873e-01 +7.9322523639e+00 1.8726417007e+01 0.0000000000e+00 0.0000e+00 -1.0000e+00
</event>
<event>
 9      3 +1.0086356e-04 9.11880000e+01 7.81616400e-03 1.18400000e-01
      -11 -1    0    0    0    0 +0.0000000000e+00 +0.0000000000e+00 +4.5593999997e+01 4.5594000000e+01 5.1100000000e-04 0.0000e+00 1.0000e+00
       11 -1    0    0    0    0 -0.0000000000e+00 -0.0000000000e+00 -4.5593999997e+01 4.5594000000e+01 5.1100000000e-04 0.0000e+00 -1.0000e+00
       23  2    1    2    0    0 +4.4408920985e-16 +1.7763568394e-15 +1.7763568394e-15 9.1188000000e+01 9.1188000000e+01 8.3797e-14 0.0000e+00
  9990012  2    3    3    0    0 -3.1784867645e+00 -1.3868974347e+01 -1.2174842945e+01 7.2461600765e+01 7.0000039694e+01 3.9692e-05 0.0000e+00
       24  2    4    4    0    0 +1.7491333570e+00 -2.1058896364e+01 -1.0052279840e+01 6.3490441806e+01 5.9020769965e+01 4.8308e-14 0.0000e+00
      -11  1    5    5    0    0 -2.5704384540e+01 +2.0666190602e+00 +1.3636726603e+00 2.5823359625e+01 5.1100000000e-04 0.0000e+00 1.0000e+00
       11  1    4    4    0    0 -4.9276201215e+00 +7.1899220169e+00 -2.1225631057e+00 8.9711589591e+00 5.1100000000e-04 0.0000e+00 -1.0000e+00
       12  1    5    5    0    0 +2.7453517897e+01 -2.3125515424e+01 -1.1415952500e+01 3.7667082181e+01 0.0000000000e+00 0.0000e+00 -1.0000e+00
      -12  1    3    3    0    0 +3.1784867645e+00 +1.3868974347e+01 +1.2174842945e+01 1.8726399235e+01 0.0000000000e+00 0.0000e+00 1.0000e+00
</event>
<event>
 8      3 +1.0086356e-04 9.11880000e+01 7.81616400e-03 1.18400000e-01
      -11 -1    0    0    0    0 +0.0000000000e+00 +0.0000000000e+00 +4.5593999997e+01 4.5594000000e+01 5.1100000000e-04 0.0000e+00 -1.0000e+00
       11 -1    0    0    0    0 -0.0000000000e+00 -0.0000000000e+00 -4.5593999997e+01 4.5594000000e+01 5.1100000000e-04 0.0000e+00 1.0000e+00
       23  2    1    2    0    0 -3.5527136788e-15 +0.0000000000e+00 +2.7755575616e-16 9.1188000000e+01 9.1188000000e+01 2.3838e-15 0.0000e+00
  9990012  2    3    3    0    0 +1.8026727553e+01 -5.0523503927e+00 -4.3588753289e-01 7.2461570851e+01 7.0000000725e+01 1.1151e-04 0.0000e+00
      -11  1    4    4    0    0 -2.4580201892e+00 -1.8686892257e+01 -1.5721730018e+01 2.4544135766e+01 5.1100000000e-04 0.0000e+00 1.0000e+00
       11  1    4    4    0    0 +2.8594252500e+01 -1.0299008548e+00 +8.6214269277e+00 2.9883456532e+01 5.1100000000e-04 0.0000e+00 -1.0000e+00
       12  1    4    4    0    0 -8.1095047577e+00 +1.4664442720e+01 +6.6644155576e+00 1.8033978552e+01 0.0000000000e+00 0.0000e+00 -1.0000e+00
      -12  1    3    3    0    0 -1.8026727553e+01 +5.0523503927e+00 +4.3588753289e-01 1.8726429149e+01 0.0000000000e+00 0.0000e+00 1.0000e+00
</event>
<event>
 9      4 +1.0086356e-04 9.11880000e+01 7.81616400e-03 1.18400000e-01
      -11 -1    0    0    0    0 +0.0000000000e+00 +0.0000000000e+00 +4.5593999997e+01 4.5594000000e+01 5.1100000000e-04 0.0000e+00 1.0000e+00
       11 -1    0    0    0    0 -0.0000000000e+00 -0.0000000000e+00 -4.5593999997e+01 4.5594000000e+01 5.1100000000e-04 0.0000e+00 -1.0000e+00
       23  2    1    2    0    0 +1.7763568394e-15 -3.5527136788e-15 +0.0000000000e+00 9.1188000000e+01 9.1188000000e+01 2.6229e-14 0.0000e+00
 -9990012  2    3    3    0    0 +1.2389823344e+01 -1.1770705221e+01 +7.6567800639e+00 7.2461454541e+01 6.9999849209e+01 1.3338e-04 0.0000e+00
      -24  2    4    4    0    0 +7.6470242789e+00 -1.5918052787e+01 +3.6569863246e+00 6.4998681260e+01 6.2446726349e+01 1.0893e-13 0.0000e+00
      -11  1    4    4    0    0 +4.7427990655e+00 +4.1473475669e+00 +3.9997937393e+00 7.4627732804e+00 5.1100000000e-04 0.0000e+00 1.0000e+00
       11  1    5    5    0    0 -8.3363912416e-01 +2.4011571988e+01 +2.5801686947e+00 2.4164184536e+01 5.1100000000e-04 0.0000e+00 -1.0000e+00
      -12  1    5    5    0    0 +8.4806634031e+00 -3.9929624776e+01 +1.0768176299e+00 4.0834496724e+01 0.0000000000e+00 0.0000e+00 1.0000e+00
       12  1    3    3    0    0 -1.2389823344e+01 +1.1770705221e+01 -7.6567800639e+00 1.8726545459e+01 0.0000000000e+00 0.0000e+00 -1.0000e+00
</event>
<event>
 8      4 +1.0086356e-04 9.11880000e+01 7.81616400e-03 1.18400000e-01
      -11 -1    0    0    0    0 +0.0000000000e+00 +0.0000000000e+00 +4.5593999997e+01 4.5594000000e+01 5.1100000000e-04 0.0000e+00 1.0000e+00
       11 -1    0    0    0    0 -0.0000000000e+00 -0.0000000000e+00 -4.5593999997e+01 4.5594000000e+01 5.1100000000e-04 0.0000e+00 -1.0000e+00
       23  2    1    2    0    0 +3.5527136788e-15 +0.0000000000e+00 +0.0000000000e+00 9.1188000000e+01 9.1188000000e+01 9.9915e-14 0.0000e+00
 -9990012  2    3    3    0    0 -1.3973434277e+01 +8.2335997009e+00 -9.3611062315e+00 7.2461565759e+01 6.9999994091e+01 1.3436e-04 0.0000e+00
      -11  1    4    4    0    0 +1.8031460239e+01 +4.4926369618e+00 +7.6219356823e-01 1.8598340908e+01 5.1100000000e-04 0.0000e+00 1.0000e+00
       11  1    4    4    0    0 -3.1497247409e+00 +1.4882407520e+01 -1.6327440360e+01 2.2315737238e+01 5.1100000000e-04 0.0000e+00 -1.0000e+00
      -12  1    4    4    0    0 -2.8855169775e+01 -1.1141444780e+01 +6.2041405604e+00 3.1547487612e+01 0.0000000000e+00 0.0000e+00 1.0000e+00
       12  1    3    3    0    0 +1.3973434277e+01 -8.2335997009e+00 +9.3611062315e+00 1.8726434241e+01 0.0000000000e+00 0.0000e+00 -1.0000e+00
</event>
<event>
 8      3 +1.0086356e-04 9.11880000e+01 7.81616400e-03 1.18400000e-01
      -11 -1    0    0    0    0 +0.0000000000e+00 +0.0000000000e+00 +4.5593999997e+01 4.5594000000e+01 5.1100000000e-04 0.0000e+00 1.0000e+00
       11 -1    0    0    0    0 -0.0000000000e+00 -0.0000000000e+00 -4.5593999997e+01 4.5594000000e+01 5.1100000000e-04 0.0000e+00 -1.0000e+00
       23  2    1    2    0    0 +0.0000000000e+00 +0.0000000000e+00 +2.3314683517e-15 9.1188000000e+01 9.1188000000e+01 1.6615e-13 0.0000e+00
  9990012  2    3    3    0    0 +1.5129030788e+01 -1.1034656987e+01 -1.7445848634e-01 7.2461503714e+01 6.9999913266e+01 1.0250e-04 0.0000e+00
      -11  1    4    4    0    0 +3.3319044820e+00 -4.7275324266e+00 +2.1647592382e+00 6.1755431455e+00 5.1100000000e-04 0.0000e+00 1.0000e+00
       11  1    4    4    0    0 -4.7448421640e-01 +2.2585418743e+01 +1.7997692022e+01 2.8883268400e+01 5.1100000000e-04 0.0000e+00 -1.0000e+00
       12  1    4    4    0    0 +1.2271610522e+01 -2.8892543304e+01 -2.0336909747e+01 3.7402692168e+01 0.0000000000e+00 0.0000e+00 -1.0000e+00
      -12  1    3    3    0    0 -1.5129030788e+01 +1.1034656987e+01 +1.7445848634e-01 1.8726496286e+01 0.0000000000e+00 0.0000e+00 1.0000e+00
</event>
<event>
 9      4 +1.0086356e-04 9.11880000e+01 7.81616400e-03 1.18400000e-01
      -11 -1    0    0    0    0 +0.0000000000e+00 +0.0000000000e+00 +4.5593999997e+01 4.5594000000e+01 5.1100000000e-04 0.0000e+00 -1.0000e+00
       11 -1    0    0    0    0 -0.0000000000e+00 -0.0000000000e+00 -4.5593999997e+01 4.5594000000e+01 5.1100000000e-04 0.0000e+00 1.0000e+00
       23  2    1    2    0    0 +8.8817841970e-16 -1.7763568394e-15 +0.0000000000e+00 9.1188000000e+01 9.1188000000e+01 2.8771e-14 0.0000e+00
 -9990012  2    3    3    0    0 +4.6861607711e+00 -1.4294765404e+01 -1.1152550389e+01 7.2461553436e+01 6.9999978039e+01 8.5577e-04 0.0000e+00
      -24  2    4    4    0    0 +9.2805350622e+00 -9.2010667452e+00 -1.1578201542e+01 6.5588765041e+01 6.3222174816e+01 9.6764e-14 0.0000e+00
      -11  1    4    4    0    0 -4.5943742911e+00 -5.0936986590e+00 +4.2565115338e-01 6.8727883949e+00 5.1100000000e-04 0.0000e+00 1.0000e+00
       11  1    5    5    0    0 +3.1342370366e+01 -2.2008432599e+01 -1.1811743232e+01 4.0077831330e+01 5.1100000000e-04 0.0000e+00 -1.0000e+00
      -12  1    5    5    0    0 -2.2061835304e+01 +1.2807365854e+01 +2.3354168982e-01 2.5510933712e+01 0.0000000000e+00 0.0000e+00 1.0000e+00
       12  1    3    3    0    0 -4.6861607711e+00 +1.4294765404e+01 +1.1152550389e+01 1.8726446564e+01 0.0000000000e+00 0.0000e+00 -1.0000e+00
</event>
<event>
 8      4 +1.0086356e-04 9.11880000e+01 7.81616400e-03 1.18400000e-01
      -11 -1    0    0    0    0 +0.0000000000e+00 +0.0000000000e+00 +4.5593999997e+01 4.5594000000e+01 5.1100000000e-04 0.0000e+00 1.0000e+00
       11 -1    0    0    0    0 -0.0000000000e+00 -0.0000000000e+00 -4.5593999997e+01 4.5594000000e+01 5.1100000000e-04 0.0000e+00 -1.0000e+00
       23  2    1    2    0    0 +0.0000000000e+00 -1.7763568394e-15 +0.0000000000e+00 9.1188000000e+01 9.1188000000e+01 2.2436e-14 0.0000e+00
 -9990012  2    3    3    0    0 -7.0648646157e+00 +4.1693246058e+00 +1.6834013458e+01 7.2461559099e+01 6.9999985416e+01 1.3598e-04 0.0000e+00
      -11  1    4    4    0    0 +9.0126150143e+00 -6.9378588424e+00 -1.3918633286e+00 1.1458551326e+01 5.1100000000e-04 0.0000e+00 1.0000e+00
       11  1    4    4    0    0 -2.2488344498e+00 +2.7635259811e+00 -1.9574884189e+01 1.9896492744e+01 5.1100000000e-04 0.0000e+00 -1.0000e+00
      -12  1    4    4    0    0 -1.3828645180e+01 +8.3436574671e+00 +3.7800760976e+01 4.1106515029e+01 0.0000000000e+00 0.0000e+00 1.0000e+00
       12  1    3    3    0    0 +7.0648646157e+00 -4.1693246058e+00 -1.6834013458e+01 1.8726440901e+01 0.0000000000e+00 0.0000e+00 -1.0000e+00
</event>
<event>
 9      1 +1.0086356e-04 9.11880000e+01 7.81616400e-03 1.18400000e-01
      -11 -1    0    0    0    0 +0.0000000000e+00 +0.0000000000e+00 +4.5593999997e+01 4.5594000000e+01 5.1100000000e-04 0.0000e+00 1.0000e+00
       11 -1    0    0    0    0 -0.0000000000e+00 -0.0000000000e+00 -4.5593999997e+01 4.5594000000e+01 5.1100000000e-04 0.0000e+00 -1.0000e+00
       23  2    1    2    0    0 +0.0000000000e+00 +0.0000000000e+00 +0.0000000000e+00 9.1188000000e+01 9.1188000000e+01 5.5448e-14 0.0000e+00
  9990012  2    3    3    0    0 -5.1500521667e+00 -1.2487400814e+01 -1.2970008357e+01 7.2461565924e+01 6.9999994307e+01 7.8026e-05 0.0000e+00
       23  2    4    4    0    0 -9.2376608592e-01 -1.0452234480e+01 -1.7290752606e+01 6.6084087825e+01 6.2912907965e+01 7.8197e-14 0.0000e+00
      -11  1    5    5    0    0 -1.5171644774e-01 +1.6056314465e+01 +1.6570372885e+01 2.3073914056e+01 5.1100000000e-04 0.0000e+00 1.0000e+00
       11  1    5    5    0    0 -7.7204963818e-01 -2.6508548946e+01 -3.3861125490e+01 4.3010173768e+01 5.1100000000e-04 0.0000e+00 -1.0000e+00
       12  1    4    4    0    0 -4.2262860807e+00 -2.0351663339e+00 +4.3207442491e+00 6.3774780995e+00 0.0000000000e+00 0.0000e+00 -1.0000e+00
      -12  1    3    3    0    0 +5.1500521667e+00 +1.2487400814e+01 +1.2970008357e+01 1.8726434076e+01 0.0000000000e+00 0.0000e+00 1.0000e+00
</event>
<event>
 9      3 +1.0086356e-04 9.11880000e+01 7.81616400e-03 1.18400000e-01
      -11 -1    0    0    0    0 +0.0000000000e+00 +0.0000000000e+00 +4.5593999997e+01 4.5594000000e+01 5.1100000000e-04 0.0000e+00 1.0000e+00
       11 -1    0    0    0    0 -0.0000000000e+00 -0.0000000000e+00 -4.5593999997e+01 4.5594000000e+01 5.1100000000e-04 0.0000e+00 -1.0000e+00
       23  2    1    2    0    0 -6.6613381478e-16 +3.5527136788e-15 +8.8817841970e-16 9.1188000000e+01 9.1188000000e+01 7.5837e-14 0.0000e+00
  9990012  2    3    3    0    0 +6.4248627922e-01 -1.7033283144e+01 -7.7545383985e+00 7.2461591133e+01 7.0000027146e+01 2.3299e-04 0.0000e+00
       24  2    4    4    0    0 +4.5972602492e+00 -1.7959907320e+01 -2.1331224998e+01 5.8290307182e+01 5.0980836386e+01 4.0007e-14 0.0000e+00
      -11  1    5    5    0    0 -1.3604013997e+01 +1.0094555042e+01 +2.6401101786e+00 1.7144661570e+01 5.1100000000e-04 0.0000e+00 1.0000e+00
       11  1    4    4    0    0 -3.9547739700e+00 +9.2662417597e-01 +1.3576686600e+01 1.4171283951e+01 5.1100000000e-04 0.0000e+00 -1.0000e+00
       12  1    5    5    0    0 +1.8201274246e+01 -2.8054462363e+01 -2.3971335177e+01 4.1145645612e+01 0.0000000000e+00 0.0000e+00 -1.0000e+00
      -12  1    3    3    0    0 -6.4248627922e-01 +1.7033283144e+01 +7.7545383985e+00 1.8726408867e+01 0.0000000000e+00 0.0000e+00 1.0000e+00
</event>
<event>
 9      4 +1.0086356e-04 9.11880000e+01 7.81616400e-03 1.18400000e-01
      -11 -1    0    0    0    0 +0.0000000000e+00 +0.0000000000e+00 +4.5593999997e+01 4.5594000000e+01 5.1100000000e-04 0.0000e+00 -1.0000e+00
       11 -1    0    0    0    0 -0.0000000000e+00 -0.0000000000e+00 -4.5593999997e+01 4.5594000000e+01 5.1100000000e-04 0.0000e+00 1.0000e+00
       23  2    1    2    0    0 +3.5527136788e-15 -4.4408920985e-16 -1.4210854715e-14 9.1188000000e+01 9.1188000000e+01 2.4370e-14 0.0000e+00
 -9990012  2    3    3    0    0 +7.6564138920e+00 -2.6011158432e+00 -1.6890585980e+01 7.2461591586e+01 7.0000027737e+01 4.9807e-05 0.0000e+00
      -24  2    4    4    0    0 +1.0313037905e+01 +6.7019921933e+00 -2.3618028748e+01 6.0677536396e+01 5.4522258674e+01 8.0117e-15 0.0000e+00
      -11  1    4    4    0    0 -2.6566240130e+00 -9.3031080365e+00 +6.7274427676e+00 1.1784055191e+01 5.1100000000e-04 0.0000e+00 1.0000e+00
       11  1    5    5    0    0 +1.6294930717e+01 -1.0315973564e+01 +1.0591953114e+01 2.2003034988e+01 5.1100000000e-04 0.0000e+00 -1.0000e+00
      -12  1    5    5    0    0 -5.9818928119e+00 +1.7017965757e+01 -3.4209981862e+01 3.8674501408e+01 0.0000000000e+00 0.0000e+00 1.0000e+00
       12  1    3    3    0    0 -7.6564138920e+00 +2.6011158432e+00 +1.6890585980e+01 1.8726408414e+01 0.0000000000e+00 0.0000e+00 -1.0000e+00
</event>
<event>
 8      4 +1.0086356e-04 9.11880000e+01 7.81616400e-03 1.18400000e-01
      -11 -1    0    0    0    0 +0.0000000000e+00 +0.0000000000e+00 +4.5593999997e+01 4.5594000000e+01 5.1100000000e-04 0.0000e+00 -1.0000e+00
       11 -1    0    0    0    0 -0.0000000000e+00 -0.0000000000e+00 -4.5593999997e+01 4.5594000000e+01 5.1100000000e-04 0.0000e+00 1.0000e+00
       23  2    1    2    0    0 +0.0000000000e+00 +1.7763568394e-15 -1.7763568394e-15 9.1188000000e+01 9.1188000000e+01 2.8125e-14 0.0000e+00
 -9990012  2    3    3    0    0 -5.5172429929e+00 +1.3568498633e+01 -1.1667705954e+01 7.2461561801e+01 6.9999988935e+01 3.6187e-04 0.0000e+00
      -11  1    4    4    0    0 -1.8216153594e+00 +2.1848871678e+01 -3.2524517515e+01 3.9224172597e+01 5.1100000000e-04 0.0000e+00 1.0000e+00
       11  1    4    4    0    0 -1.0450262844e+01 +1.0806179185e+00 +1.8765026503e+01 2.1505858469e+01 5.1100000000e-04 0.0000e+00 -1.0000e+00
      -12  1    4    4    0    0 +6.7546352100e+00 -9.3609909633e+00 +2.0917850578e+00 1.1731530734e+01 0.0000000000e+00 0.0000e+00 1.0000e+00
       12  1    3    3    0    0 +5.5172429929e+00 -1.3568498633e+01 +1.1667705954e+01 1.8726438199e+01 0.0000000000e+00 0.0000e+00 -1.0000e+00
</event>
<event>
 9      3 +1.0086356e-04 9.11880000e+01 7.81616400e-03 1.18400000e-01
      -11 -1    0    0    0    0 +0.0000000000e+00 +0.0000000000e+00 +4.5593999997e+01 4.5594000000e+01 5.1100000000e-04 0.0000e+00 -1.0000e+00
       11 -1    0    0    0    0 -0.0000000000e+00 -0.0000000000e+00 -4.5593999997e+01 4.5594000000e+01 5.1100000000e-04 0.0000e+00 1.0000e+00
       23  2    1    2    0    0 +0.0000000000e+00 -8.8817841970e-16 -1.7763568394e-15 9.1188000000e+01 9.1188000000e+01 1.4709e-14 0.0000e+00
  9990012  2    3    3    0    0 +1.7086207019e+01 -2.9160324435e+00 -7.0876483720e+00 7.2461642240e+01 7.0000093722e+01 2.6018e-04 0.0000e+00
       24  2    4    4    0    0 +3.9435152756e+00 +1.0778277938e+00 -1.3939880454e+01 5.7111256230e+01 5.5232800904e+01 3.7071e-16 0.0000e+00
      -11  1    5    5    0    0 -1.7892664970e+01 -1.4343018659e+01 +6.0674119853e+00 2.3720942908e+01 5.1100000000e-04 0.0000e+00 1.0000e+00
       11  1    4    4    0    0 +1.3142691744e+01 -3.9938602373e+00 +6.8522320818e+00 1.5350386009e+01 5.1100000000e-04 0.0000e+00 -1.0000e+00
       12  1    5    5    0    0 +2.1836180245e+01 +1.5420846453e+01 -2.0007292439e+01 3.3390313323e+01 0.0000000000e+00 0.0000e+00 -1.0000e+00
      -12  1    3    3    0    0 -1.7086207019e+01 +2.9160324435e+00 +7.0876483720e+00 1.8726357760e+01 0.0000000000e+00 0.0000e+00 1.0000e+00
</event>
<event>
 9      4 +1.0086356e-04 9.11880000e+01 7.81616400e-03 1.18400000e-01
      -11 -1    0    0    0    0 +0.0000000000e+00 +0.0000000000e+00 +4.5593999997e+01 4.5594000000e+01 5.1100000000e-04 0.0000e+00 -1.0000e+00
       11 -1    0    0    0    0 -0.0000000000e+00 -0.0000000000e+00 -4.5593999997e+01 4.5594000000e+01 5.1100000000e-04 0.0000e+00 1.0000e+00
       23  2    1    2    0    0 +0.0000000000e+00 -1.7763568394e-15 -8.8817841970e-16 9.1188000000e+01 9.1188000000e+01 6.2456e-14 0.0000e+00
 -9990012  2    3    3    0    0 -1.3072549156e+01 -1.2627959151e+01 +4.5088323527e+00 7.2461375559e+01 6.9999746321e+01 9.5031e-05 0.0000e+00
      -24  2    4    4    0    0 -6.8760470656e-01 -9.3883185224e+00 +9.9193856415e+00 5.8563310673e+01 5.6944304549e+01 1.1489e-13 0.0000e+00
      -11  1    4    4    0    0 -1.2384944450e+01 -3.2396406286e+00 -5.4105532888e+00 1.3898064886e+01 5.1100000000e-04 0.0000e+00 1.0000e+00
       11  1    5    5    0    0 -3.6054767600e+00 -4.1743837645e-01 +3.3224067049e+01 3.3421734680e+01 5.1100000000e-04 0.0000e+00 -1.0000e+00
      -12  1    5    5    0    0 +2.9178720534e+00 -8.9708801460e+00 -2.3304681407e+01 2.5141575993e+01 0.0000000000e+00 0.0000e+00 1.0000e+00
       12  1    3    3    0    0 +1.3072549156e+01 +1.2627959151e+01 -4.5088323527e+00 1.8726624441e+01 0.0000000000e+00 0.0000e+00 -1.0000e+00
</event>
<event>
 9      3 +1.0086356e-04 9.11880000e+01 7.81616400e-03 1.18400000e-01
      -11 -1    0    0    0    0 +0.0000000000e+00 +0.0000000000e+00 +4.5593999997e+01 4.5594000000e+01 5.1100000000e-04 0.0000e+00 -1.0000e+00
       11 -1    0    0    0    0 -0.0000000000e+00 -0.0000000000e+00 -4.5593999997e+01 4.5594000000e+01 5.1100000000e-04 0.0000e+00 1.0000e+00
       23  2    1    2    0    0 +0.0000000000e+00 -1.7763568394e-15 +6.6613381478e-16 9.1188000000e+01 9.1188000000e+01 6.9591e-15 0.0000e+00
  9990012  2    3    3    0    0 +1.6642484542e+01 +8.4494412285e+00 +1.5209086949e+00 7.2461587849e+01 7.0000022868e+01 9.2514e-05 0.0000e+00
       24  2    4    4    0    0 +1.8756829127e+01 +1.6198105468e+00 -6.3531202455e-01 6.4994085165e+01 6.2204381357e+01 5.1445e-14 0.0000e+00
      -11  1    5    5    0    0 +1.4417541851e+01 -2.3820214870e+01 +1.8005770669e+01 3.3158346266e+01 5.1100000000e-04 0.0000e+00 -1.0000e+00
       11  1    4    4    0    0 -2.1143445849e+00 +6.8296306817e+00 +2.1562207194e+00 7.4675026832e+00 5.1100000000e-04 0.0000e+00 1.0000e+00
       12  1    5    5    0    0 +4.3392872760e+00 +2.5440025417e+01 -1.8641082693e+01 3.1835738899e+01 0.0000000000e+00 0.0000e+00 -1.0000e+00
      -12  1    3    3    0    0 -1.6642484542e+01 -8.4494412285e+00 -1.5209086949e+00 1.8726412151e+01 0.0000000000e+00 0.0000e+00 1.0000e+00
</event>
<event>
 9      3 +1.0086356e-04 9.11880000e+01 7.81616400e-03 1.18400000e-01
      -11 -1    0    0    0    0 +0.0000000000e+00 +0.0000000000e+00 +4.5593999997e+01 4.5594000000e+01 5.1100000000e-04 0.0000e+00 1.0000e+00
       11 -1    0    0    0    0 -0.0000000000e+00 -0.0000000000e+00 -4.5593999997e+01 4.5594000000e+01 5.1100000000e-04 0.0000e+00 -1.0000e+00
       23  2    1    2    0    0 +0.0000000000e+00 +1.7763568394e-15 -1.7763568394e-15 9.1188000000e+01 9.1188000000e+01 4.8067e-14 0.0000e+00
  9990012  2    3    3    0    0 -1.8494707646e+01 -2.0737603526e+00 +2.0794834937e+00 7.2461576302e+01 7.0000007826e+01 5.5530e-05 0.0000e+00
       24  2    4    4    0    0 -2.4309124064e+01 -1.1862807290e+00 -4.1494244912e+00 6.3894525858e+01 5.8931756603e+01 1.7204e-13 0.0000e+00
      -11  1    5    5    0    0 -2.3364261525e+01 +2.1446782640e+01 +1.4193584574e+01 3.4746381762e+01 5.1100000000e-04 0.0000e+00 1.0000e+00
       11  1    4    4    0    0 +5.8144164176e+00 -8.8747962360e-01 +6.2289079850e+00 8.5670504438e+00 5.1100000000e-04 0.0000e+00 -1.0000e+00
       12  1    5    5    0    0 -9.4486253920e-01 -2.2633063369e+01 -1.8343009065e+01 2.9148144096e+01 0.0000000000e+00 0.0000e+00 -1.0000e+00
      -12  1    3    3    0    0 +1.8494707646e+01 +2.0737603526e+00 -2.0794834937e+00 1.8726423698e+01 0.0000000000e+00 0.0000e+00 1.0000e+00
</event>
<event>
 8      3 +1.0086356e-04 9.11880000e+01 7.81616400e-03 1.18400000e-01
      -11 -1    0    0    0    0 +0.0000000000e+00 +0.0000000000e+00 +4.5593999997e+01 4.5594000000e+01 5.1100000000e-04 0.0000e+00 1.0000e+00
       11 -1    0    0    0    0 -0.0000000000e+00 -0.0000000000e+00 -4.5593999997e+01 4.5594000000e+01 5.1100000000e-04 0.0000e+00 -1.0000e+00
       23  2    1    2    0    0 +4.4408920985e-16 -1.7763568394e-15 -3.5527136788e-15 9.1188000000e+01 9.1188000000e+01 3.3320e-14 0.0000e+00
  9990012  2    3    3    0    0 -2.3894240425e+00 -1.3554834192e+01 -1.2697889218e+01 7.2461567670e+01 6.9999996581e+01 5.3282e-05 0.0000e+00
      -11  1    4    4    0    0 -1.1420707910e+01 +7.4526955871e+00 -1.7763375687e+01 2.2394480498e+01 5.1100000000e-04 0.0000e+00 -1.0000e+00
       11  1    4    4    0    0 +1.0173527406e+01 +1.1979807814e+01 +6.5490833291e+00 1.7026654042e+01 5.1100000000e-04 0.0000e+00 1.0000e+00
       12  1    4    4    0    0 -1.1422435379e+00 -3.2987337594e+01 -1.4835968597e+00 3.3040433131e+01 0.0000000000e+00 0.0000e+00 -1.0000e+00
      -12  1    3    3    0    0 +2.3894240425e+00 +1.3554834192e+01 +1.2697889218e+01 1.8726432330e+01 0.0000000000e+00 0.0000e+00 1.0000e+00
</event>
<event>
 9      3 +1.0086356e-04 9.11880000e+01 7.81616400e-03 1.18400000e-01
      -11 -1    0    0    0    0 +0.0000000000e+00 +0.0000000000e+00 +4.5593999997e+01 4.5594000000e+01 5.1100000000e-04 0.0000e+00 -1.0000e+00
       11 -1    0    0    0    0 -0.0000000000e+00 -0.0000000000e+00 -4.5593999997e+01 4.5594000000e+01 5.1100000000e-04 0.0000e+00 1.0000e+00
       23  2    1    2    0    0 -1.7763568394e-15 +2.4424906542e-15 +0.0000000000e+00 9.1188000000e+01 9.1188000000e+01 1.0301e-13 0.0000e+00
  9990012  2    3    3    0    0 +8.7871656505e+00 -1.6481159745e+00 +1.6454415935e+01 7.2461591637e+01 7.0000027802e+01 3.8470e-05 0.0000e+00
       24  2    4    4    0    0 -4.9006047248e-03 +1.4413850788e+01 +7.8535204050e+00 5.2231351661e+01 4.9585050116e+01 1.5163e-14 0.0000e+00
      -11  1    5    5    0    0 -1.3228110473e+01 -1.0280347057e+01 -9.5201940511e+00 1.9269212161e+01 5.1100000000e-04 0.0000e+00 1.0000e+00
       11  1    4    4    0    0 +8.7920662552e+00 -1.6061966762e+01 +8.6008955299e+00 2.0230239976e+01 5.1100000000e-04 0.0000e+00 -1.0000e+00
       12  1    5    5    0    0 +1.3223209868e+01 +2.4694197844e+01 +1.7373714456e+01 3.2962139499e+01 0.0000000000e+00 0.0000e+00 -1.0000e+00
      -12  1    3    3    0    0 -8.7871656505e+00 +1.6481159745e+00 -1.6454415935e+01 1.8726408363e+01 0.0000000000e+00 0.0000e+00 1.0000e+00
</event>
<event>
 8      4 +1.0086356e-04 9.11880000e+01 7.81616400e-03 1.18400000e-01
      -11 -1    0    0    0    0 +0.0000000000e+00 +0.0000000000e+00 +4.5593999997e+01 4.5594000000e+01 5.1100000000e-04 0.0000e+00 -1.0000e+00
       11 -1    0    0    0    0 -0.0000000000e+00 -0.0000000000e+00 -4.5593999997e+01 4.5594000000e+01 5.1100000000e-04 0.0000e+00 1.0000e+00
       23  2    1    2    0    0 +0.0000000000e+00 -4.4408920985e-16 +1.7763568394e-15 9.1188000000e+01 9.1188000000e+01 9.9348e-14 0.0000e+00
 -9990012  2    3    3    0    0 -1.6298084051e+01 -3.8272242538e+00 -8.3907819994e+00 7.2461537126e+01 6.9999956792e+01 9.2232e-04 0.0000e+00
      -11  1    4    4    0    0 -2.3033330551e+01 -3.4869108763e+00 -1.2997456023e+01 2.6676332714e+01 5.1100000000e-04 0.0000e+00 1.0000e+00
       11  1    4    4    0    0 -1.3376032328e+01 +1.5083323101e+01 +9.9527965043e-01 2.0184535131e+01 5.1100000000e-04 0.0000e+00 -1.0000e+00
      -12  1    4    4    0    0 +2.0111278828e+01 -1.5423636478e+01 +3.6113943733e+00 2.5600669281e+01 0.0000000000e+00 0.0000e+00 1.0000e+00
       12  1    3    3    0    0 +1.6298084051e+01 +3.8272242538e+00 +8.3907819994e+00 1.8726462874e+01 0.0000000000e+00 0.0000e+00 -1.0000e+00
</event>
<event>
 7      4 +1.0086356e-04 7.24615800e+01 7.81616400e-03 1.22670800e-01
      -11 -1    0    0    0    0 +0.0000000000e+00 +0.0000000000e+00 +4.5593999997e+01 4.5594000000e+01 5.1100000000e-04 0.0000e+00 -1.0000e+00
       11 -1    0    0    0    0 -0.0000000000e+00 -0.0000000000e+00 -4.5593999997e+01 4.5594000000e+01 5.1100000000e-04 0.0000e+00 1.0000e+00
 -9990012  2    1    2    0    0 +1.0494695267e+01 -1.5488625951e+01 +8.0167389505e-01 7.2461578996e+01 7.0000011335e+01 5.4085e-05 0.0000e+00
      -11  1    3    3    0    0 +3.9938163782e+00 +9.2202342512e+00 +1.3468491040e+01 1.6803676386e+01 5.1100000000e-04 0.0000e+00 1.0000e+00
       11  1    3    3    0    0 -1.7035545641e+01 -2.0225830928e+01 -1.6821226608e+01 3.1340831464e+01 5.1100000000e-04 0.0000e+00 -1.0000e+00
      -12  1    3    3    0    0 +2.3536424530e+01 -4.4830292740e+00 +4.1544094626e+00 2.4317071146e+01 0.0000000000e+00 0.0000e+00 1.0000e+00
       12  1    1    2    0    0 -1.0494695267e+01 +1.5488625951e+01 -8.0167389505e-01 1.8726421004e+01 0.0000000000e+00 0.0000e+00 -1.0000e+00
</event>
<event>
 8      3 +1.0086356e-04 9.11880000e+01 7.81616400e-03 1.18400000e-01
      -11 -1    0    0    0    0 +0.0000000000e+00 +0.0000000000e+00 +4.5593999997e+01 4.5594000000e+01 5.1100000000e-04 0.0000e+00 1.0000e+00
       11 -1    0    0    0    0 -0.0000000000e+00 -0.0000000000e+00 -4.5593999997e+01 4.5594000000e+01 5.1100000000e-04 0.0000e+00 -1.0000e+00
       23  2    1    2    0    0 +0.0000000000e+00 -1.7763568394e-15 +2.6645352591e-15 9.1188000000e+01 9.1188000000e+01 6.0932e-15 0.0000e+00
  9990012  2    3    3    0    0 -1.3777660477e+01 +1.1520006261e+01 -5.3054635062e+00 7.2461483626e+01 6.9999887099e+01 3.2788e-04 0.0000e+00
      -11  1    4    4    0    0 -4.4619262646e+00 -1.7621781019e+01 +6.2698969067e+00 1.9228821070e+01 5.1100000000e-04 0.0000e+00 1.0000e+00
       11  1    4    4    0    0 -1.4409233360e+01 +2.8086114764e+01 -2.4071220982e+01 3.9697349136e+01 5.1100000000e-04 0.0000e+00 -1.0000e+00
       12  1    4    4    0    0 +5.0934991478e+00 +1.0556725158e+00 +1.2495860569e+01 1.3535313420e+01 0.0000000000e+00 0.0000e+00 -1.0000e+00
      -12  1    3    3    0    0 +1.3777660477e+01 -1.1520006261e+01 +5.3054635062e+00 1.8726516374e+01 0.0000000000e+00 0.0000e+00 1.0000e+00
</event>
<event>
 9      4 +1.0086356e-04 9.11880000e+01 7.81616400e-03 1.18400000e-01
      -11 -1    0    0    0    0 +0.0000000000e+00 +0.0000000000e+00 +4.5593999997e+01 4.5594000000e+01 5.1100000000e-04 0.0000e+00 1.0000e+00
       11 -1    0    0    0    0 -0.0000000000e+00 -0.0000000000e+00 -4.5593999997e+01 4.5594000000e+01 5.1100000000e-04 0.0000e+00 -1.0000e+00
       23  2    1    2    0    0 +0.0000000000e+00 +0.0000000000e+00 -8.8817841970e-16 9.1188000000e+01 9.1188000000e+01 8.3504e-14 0.0000e+00
 -9990012  2    3    3    0    0 -9.8281520477e+00 -1.4570275393e+01 +6.4648385714e+00 7.2461557854e+01 6.9999983794e+01 4.7691e-05 0.0000e+00
      -24  2    4    4    0    0 -4.0818404375e+00 +4.6157031379e+00 +6.0056575788e+00 5.2428267641e+01 5.1717397344e+01 1.7881e-13 0.0000e+00
      -11  1    4    4    0    0 -5.7463116102e+00 -1.9185978531e+01 +4.5918099251e-01 2.0033290213e+01 5.1100000000e-04 0.0000e+00 1.0000e+00
       11  1    5    5    0    0 +8.0213641579e+00 -2.1690103832e+01 +2.5240569813e+00 2.3263141471e+01 5.1100000000e-04 0.0000e+00 -1.0000e+00
      -12  1    5    5    0    0 -1.2103204595e+01 +2.6305806970e+01 +3.4816005975e+00 2.9165126170e+01 0.0000000000e+00 0.0000e+00 1.0000e+00
       12  1    3    3    0    0 +9.8281520477e+00 +1.4570275393e+01 -6.4648385714e+00 1.8726442146e+01 0.0000000000e+00 0.0000e+00 -1.0000e+00
</event>
<event>
 8      4 +1.0086356e-04 9.11880000e+01 7.81616400e-03 1.18400000e-01
      -11 -1    0    0    0    0 +0.0000000000e+00 +0.0000000000e+00 +4.5593999997e+01 4.5594000000e+01 5.1100000000e-04 0.0000e+00 1.0000e+00
       11 -1    0    0    0    0 -0.0000000000e+00 -0.0000000000e+00 -4.5593999997e+01 4.5594000000e+01 5.1100000000e-04 0.0000e+00 -1.0000e+00
       23  2    1    2    0    0 +0.0000000000e+00 +0.0000000000e+00 -8.8817841970e-16 9.1188000000e+01 9.1188000000e+01 1.0360e-13 0.0000e+00
 -9990012  2    3    3    0    0 +1.6066368610e+01 +6.2797776938e+00 +7.2879298047e+00 7.2461608756e+01 7.0000050103e+01 6.5852e-04 0.0000e+00
      -11  1    4    4    0    0 -1.2457140712e+01 +4.1357445801e-01 -4.9681578697e+00 1.3417674591e+01 5.1100000000e-04 0.0000e+00 -1.0000e+00
       11  1    4    4    0    0 +3.2383637921e+01 +1.5491389154e+01 +2.4148750090e+01 4.3264827216e+01 5.1100000000e-04 0.0000e+00 1.0000e+00
      -12  1    4    4    0    0 -3.8601285989e+00 -9.6251859187e+00 -1.1892662415e+01 1.5779106948e+01 0.0000000000e+00 0.0000e+00 1.0000e+00
       12  1    3    3    0    0 -1.6066368610e+01 -6.2797776938e+00 -7.2879298047e+00 1.8726391244e+01 0.0000000000e+00 0.0000e+00 -1.0000e+00
</event>
<event>
 9      3 +1.0086356e-04 9.11880000e+01 7.81616400e-03 1.18400000e-01
      -11 -1    0    0    0    0 +0.0000000000e+00 +0.0000000000e+00 +4.5593999997e+01 4.5594000000e+01 5.1100000000e-04 0.0000e+00 -1.0000e+00
       11 -1    0    0    0    0 -0.0000000000e+00 -0.0000000000e+00 -4.5593999997e+01 4.5594000000e+01 5.1100000000e-04 0.0000e+00 1.0000e+00
       23  2    1    2    0    0 +0.0000000000e+00 -5.5511151231e-16 +3.5527136788e-15 9.1188000000e+01 9.1188000000e+01 7.9308e-14 0.0000e+00
  9990012  2    3    3    0    0 -2.7500723896e+00 +6.4944946024e-01 +1.8512040923e+01 7.2461538992e+01 6.9999959223e+01 7.2127e-04 0.0000e+00
       24  2    4    4    0    0 -2.2772519069e+00 +5.9937138242e+00 +2.7132596869e+01 6.2307785701e+01 5.5722274402e+01 1.3451e-13 0.0000e+00
      -11  1    5    5    0    0 +1.6821783833e+01 +1.1607493075e+01 -7.9833481338e+00 2.1941744564e+01 5.1100000000e-04 0.0000e+00 1.0000e+00
       11  1    4    4    0    0 -4.7282048266e-01 -5.3442643639e+00 -8.6205559464e+00 1.0153753291e+01 5.1100000000e-04 0.0000e+00 -1.0000e+00
       12  1    5    5    0    0 -1.9099035740e+01 -5.6137792507e+00 +3.5115945003e+01 4.0366041138e+01 0.0000000000e+00 0.0000e+00 -1.0000e+00
      -12  1    3    3    0    0 +2.7500723896e+00 -6.4944946024e-01 -1.8512040923e+01 1.8726461008e+01 0.0000000000e+00 0.0000e+00 1.0000e+00
</event>
<event>
 9      3 +1.0086356e-04 9.11880000e+01 7.81616400e-03 1.18400000e-01
      -11 -1    0    0    0    0 +0.0000000000e+00 +0.0000000000e+00 +4.5593999997e+01 4.5594000000e+01 5.1100000000e-04 0.0000e+00 1.0000e+00
       11 -1    0    0    0    0 -0.0000000000e+00 -0.0000000000e+00 -4.5593999997e+01 4.5594000000e+01 5.1100000000e-04 0.0000e+00 -1.0000e+00
       23  2    1    2    0    0 +0.0000000000e+00 +8.8817841970e-16 +0.0000000000e+00 9.1188000000e+01 9.1188000000e+01 2.9206e-13 0.0000e+00
  9990012  2    3    3    0    0 +9.3131776613e+00 -4.6816806997e+00 -1.5557155907e+01 7.2461587844e+01 7.0000022861e+01 8.7643e-05 0.0000e+00
       24  2    4    4    0    0 +6.4846639371e+00 -8.2604375536e+00 -2.9298564031e+01 5.7982834859e+01 4.8921545245e+01 5.8150e-14 0.0000e+00
      -11  1    5    5    0    0 +1.3891362963e+01 -3.3388941767e+00 +1.0162176705e+01 1.7532484563e+01 5.1100000000e-04 0.0000e+00 1.0000e+00
       11  1    4    4    0    0 +2.8285137242e+00 +3.5787568540e+00 +1.3741408123e+01 1.4478752984e+01 5.1100000000e-04 0.0000e+00 -1.0000e+00
       12  1    5    5    0    0 -7.4066990260e+00 -4.9215433769e+00 -3.9460740736e+01 4.0450350296e+01 0.0000000000e+00 0.0000e+00 -1.0000e+00
      -12  1    3    3    0    0 -9.3131776613e+00 +4.6816806997e+00 +1.5557155907e+01 1.8726412156e+01 0.0000000000e+00 0.0000e+00 1.0000e+00
</event>
<event>
 9      4 +1.0086356e-04 9.11880000e+01 7.81616400e-03 1.18400000e-01
      -11 -1    0    0    0    0 +0.0000000000e+00 +0.0000000000e+00 +4.5593999997e+01 4.5594000000e+01 5.1100000000e-04 0.0000e+00 -1.0000e+00
       11 -1    0    0    0    0 -0.0000000000e+00 -0.0000000000e+00 -4.5593999997e+01 4.5594000000e+01 5.1100000000e-04 0.0000e+00 1.0000e+00
       23  2    1    2    0    0 +4.4408920985e-16 -8.8817841970e-16 +0.0000000000e+00 9.1188000000e+01 9.1188000000e+01 3.0258e-14 0.0000e+00
 -9990012  2    3    3    0    0 +2.3327782884e+00 -2.7597569064e+00 -1.8374645024e+01 7.2461396131e+01 6.9999773119e+01 5.0806e-04 0.0000e+00
      -24  2    4    4    0    0 -2.9960227909e+00 +6.6770203123e+00 -5.9141406415e+00 5.5947370124e+01 5.5150452505e+01 8.0518e-16 0.0000e+00
      -11  1    4    4    0    0 +5.3288010793e+00 -9.4367772187e+00 -1.2460504382e+01 1.6514026006e+01 5.1100000000e-04 0.0000e+00 1.0000e+00
       11  1    5    5    0    0 -2.1992040110e+01 +1.1222899869e+01 -2.0075224009e+01 3.1821658174e+01 5.1100000000e-04 0.0000e+00 -1.0000e+00
      -12  1    5    5    0    0 +1.8996017319e+01 -4.5458795565e+00 +1.4161083368e+01 2.4125711950e+01 0.0000000000e+00 0.0000e+00 1.0000e+00
       12  1    3    3    0    0 -2.3327782884e+00 +2.7597569064e+00 +1.8374645024e+01 1.8726603869e+01 0.0000000000e+00 0.0000e+00 -1.0000e+00
</event>
<event>
 9      3 +1.0086356e-04 9.11880000e+01 7.81616400e-03 1.18400000e-01
      -11 -1    0    0    0    0 +0.0000000000e+00 +0.0000000000e+00 +4.5593999997e+01 4.5594000000e+01 5.1100000000e-04 0.0000e+00 -1.0000e+00
       11 -1    0    0    0    0 -0.0000000000e+00 -0.0000000000e+00 -4.5593999997e+01 4.5594000000e+01 5.1100000000e-04 0.0000e+00 1.0000e+00
       23  2    1    2    0    0 +1.7763568394e-15 +0.0000000000e+00 +1.7763568394e-15 9.1188000000e+01 9.1188000000e+01 3.6210e-14 0.0000e+00
  9990012  2    3    3    0    0 +6.9068618256e+00 -1.2595375579e+01 +1.2013767815e+01 7.2461579003e+01 7.0000011345e+01 1.5414e-04 0.0000e+00
       24  2    4    4    0    0 +2.7734659649e+00 -1.6371245254e+01 +1.1908951438e+01 6.6862191547e+01 6.3663331279e+01 1.2500e-14 0.0000e+00
      -11  1    5    5    0    0 +2.0819896849e+01 -3.6287180883e+00 -1.9303442475e+01 2.8622693643e+01 5.1100000000e-04 0.0000e+00 1.0000e+00
       11  1    4    4    0    0 +4.1333958607e+00 +3.7758696759e+00 +1.0481637728e-01 5.5993874562e+00 5.1100000000e-04 0.0000e+00 -1.0000e+00
       12  1    5    5    0    0 -1.8046430884e+01 -1.2742527166e+01 +3.1212393912e+01 3.8239497904e+01 0.0000000000e+00 0.0000e+00 -1.0000e+00
      -12  1    3    3    0    0 -6.9068618256e+00 +1.2595375579e+01 -1.2013767815e+01 1.8726420997e+01 0.0000000000e+00 0.0000e+00 1.0000e+00
</event>
<event>
 8      3 +1.0086356e-04 9.11880000e+01 7.81616400e-03 1.18400000e-01
      -11 -1    0    0    0    0 +0.0000000000e+00 +0.0000000000e+00 +4.5593999997e+01 4.5594000000e+01 5.1100000000e-04 0.0000e+00 1.0000e+00
       11 -1    0    0    0    0 -0.0000000000e+00 -0.0000000000e+00 -4.5593999997e+01 4.5594000000e+01 5.1100000000e-04 0.0000e+00 -1.0000e+00
       23  2    1    2    0    0 +0.0000000000e+00 +4.4408920985e-15 -5.5511151231e-16 9.1188000000e+01 9.1188000000e+01 3.6185e-15 0.0000e+00
  9990012  2    3    3    0    0 +1.7002130599e+01 -7.8095139631e+00 +7.8681287271e-01 7.2461547379e+01 6.9999970149e+01 4.9770e-05 0.0000e+00
      -11  1    4    4    0    0 -1.1972242680e+01 -3.1128186640e+00 +1.9923470636e+00 1.2529711965e+01 5.1100000000e-04 0.0000e+00 1.0000e+00
       11  1    4    4    0    0 +3.1602085643e+00 -2.4057458369e+01 +9.3173698957e+00 2.5991567929e+01 5.1100000000e-04 0.0000e+00 -1.0000e+00
       12  1    4    4    0    0 +2.5814164715e+01 +1.9360763070e+01 -1.0522904087e+01 3.3940267486e+01 0.0000000000e+00 0.0000e+00 -1.0000e+00
      -12  1    3    3    0    0 -1.7002130599e+01 +7.8095139631e+00 -7.8681287271e-01 1.8726452621e+01 0.0000000000e+00 0.0000e+00 1.0000e+00
</event>
<event>
 8      4 +1.0086356e-04 9.11880000e+01 7.81616400e-03 1.18400000e-01
      -11 -1    0    0    0    0 +0.0000000000e+00 +0.0000000000e+00 +4.5593999997e+01 4.5594000000e+01 5.1100000000e-04 0.0000e+00 1.0000e+00
       11 -1    0    0    0    0 -0.0000000000e+00 -0.0000000000e+00 -4.5593999997e+01 4.5594000000e+01 5.1100000000e-04 0.0000e+00 -1.0000e+00
       23  2    1    2    0    0 +0.0000000000e+00 -8.8817841970e-16 +0.0000000000e+00 9.1188000000e+01 9.1188000000e+01 1.6750e-13 0.0000e+00
 -9990012  2    3    3    0    0 -5.3355036566e+00 -7.0279825714e+00 +1.6516992097e+01 7.2461783985e+01 7.0000278371e+01 4.8482e-04 0.0000e+00
      -11  1    4    4    0    0 -8.2262333927e+00 -1.1920158092e+01 +3.8625347730e+01 4.1251406913e+01 5.1100000000e-04 0.0000e+00 1.0000e+00
       11  1    4    4    0    0 +6.2595826497e+00 +1.1107006001e+00 -2.4711442113e+01 2.5516100845e+01 5.1100000000e-04 0.0000e+00 -1.0000e+00
      -12  1    4    4    0    0 -3.3688529137e+00 +3.7814749208e+00 +2.6030864797e+00 5.6942762272e+00 0.0000000000e+00 0.0000e+00 1.0000e+00
       12  1    3    3    0    0 +5.3355036566e+00 +7.0279825714e+00 -1.6516992097e+01 1.8726216015e+01 0.0000000000e+00 0.0000e+00 -1.0000e+00
</event>
<event>
 9      4 +1.0086356e-04 9.11880000e+01 7.81616400e-03 1.18400000e-01
      -11 -1    0    0    0    0 +0.0000000000e+00 +0.0000000000e+00 +4.5593999997e+01 4.5594000000e+01 5.1100000000e-04 0.0000e+00 1.0000e+00
       11 -1    0    0    0    0 -0.0000000000e+00 -0.0000000000e+00 -4.5593999997e+01 4.5594000000e+01 5.1100000000e-04 0.0000e+00 -1.0000e+00
       23  2    1    2    0    0 -8.8817841970e-16 -8.8817841970e-16 +0.0000000000e+00 9.1188000000e+01 9.1188000000e+01 9.7428e-14 0.0000e+00
 -9990012  2    3    3    0    0 -5.4999175933e+00 -4.5605206371e+00 +1.7309742825e+01 7.2461691269e+01 7.0000157592e+01 2.0694e-05 0.0000e+00
      -24  2    4    4    0    0 -9.0638340543e+00 -9.0189803306e+00 +1.2739999952e+01 6.5149925849e+01 6.2599601799e+01 2.1589e-13 0.0000e+00
      -11  1    4    4    0    0 +3.5639164610e+00 +4.4584596935e+00 +4.5697428724e+00 7.3117654202e+00 5.1100000000e-04 0.0000e+00 1.0000e+00
       11  1    5    5    0    0 +8.2431956885e+00 +1.7106945669e+01 -1.4289492778e+01 2.3765257612e+01 5.1100000000e-04 0.0000e+00 -1.0000e+00
      -12  1    5    5    0    0 -1.7307029743e+01 -2.6125925999e+01 +2.7029492730e+01 4.1384668237e+01 0.0000000000e+00 0.0000e+00 1.0000e+00
       12  1    3    3    0    0 +5.4999175933e+00 +4.5605206371e+00 -1.7309742825e+01 1.8726308731e+01 0.0000000000e+00 0.0000e+00 -1.0000e+00
</event>
<event>
 9      4 +1.0086356e-04 9.11880000e+01 7.81616400e-03 1.18400000e-01
      -11 -1    0    0    0    0 +0.0000000000e+00 +0.0000000000e+00 +4.5593999997e+01 4.5594000000e+01 5.1100000000e-04 0.0000e+00 -1.0000e+00
       11 -1    0    0    0    0 -0.0000000000e+00 -0.0000000000e+00 -4.5593999997e+01 4.5594000000e+01 5.1100000000e-04 0.0000e+00 1.0000e+00
       23  2    1    2    0    0 -4.4408920985e-16 +2.2239154962e-15 +0.0000000000e+00 9.1188000000e+01 9.1188000000e+01 1.3845e-13 0.0000e+00
 -9990012  2    3    3    0    0 +3.3712606609e+00 +1.0881381167e-02 -1.8420476623e+01 7.2461562115e+01 6.9999989344e+01 6.9202e-05 0.0000e+00
      -24  2    4    4    0    0 -9.9236607163e+00 +1.0936831355e+00 -2.1551695687e+00 5.1426172698e+01 5.0401699353e+01 4.8654e-14 0.0000e+00
      -11  1    4    4    0    0 +1.3294921377e+01 -1.0828017543e+00 -1.6265307055e+01 2.1035389417e+01 5.1100000000e-04 0.0000e+00 1.0000e+00
       11  1    5    5    0    0 +7.2571893593e+00 +1.8305077349e+01 +1.2221387373e+01 2.3175525102e+01 5.1100000000e-04 0.0000e+00 -1.0000e+00
      -12  1    5    5    0    0 -1.7180850076e+01 -1.7211394214e+01 -1.4376556942e+01 2.8250647596e+01 0.0000000000e+00 0.0000e+00 1.0000e+00
       12  1    3    3    0    0 -3.3712606609e+00 -1.0881381167e-02 +1.8420476623e+01 1.8726437885e+01 0.0000000000e+00 0.0000e+00 -1.0000e+00
</event>
<event>
 8      3 +1.0086356e-04 9.11880000e+01 7.81616400e-03 1.18400000e-01
      -11 -1    0    0    0    0 +0.0000000000e+00 +0.0000000000e+00 +4.5593999997e+01 4.5594000000e+01 5.1100000000e-04 0.0000e+00 -1.0000e+00
       11 -1    0    0    0    0 -0.0000000000e+00 -0.0000000000e+00 -4.5593999997e+01 4.5594000000e+01 5.1100000000e-04 0.0000e+00 1.0000e+00
       23  2    1    2    0    0 +3.5527136788e-15 -1.7763568394e-15 -1.7763568394e-15 9.1188000000e+01 9.1188000000e+01 7.2245e-15 0.0000e+00
  9990012  2    3    3    0    0 -1.3527042878e+01 +3.0250167383e+00 +1.2591559636e+01 7.2461575105e+01 7.0000006266e+01 6.3858e-05 0.0000e+00
      -11  1    4    4    0    0 -9.3439588280e+00 +1.8483739736e+01 +1.4655800059e-01 2.0711824659e+01 5.1100000000e-04 0.0000e+00 1.0000e+00
       11  1    4    4    0    0 +1.0961709244e+01 -2.5787023719e+01 +1.7113930660e+01 3.2833158312e+01 5.1100000000e-04 0.0000e+00 -1.0000e+00
       12  1    4    4    0    0 -1.5144793295e+01 +1.0328300721e+01 -4.6689290247e+00 1.8916592134e+01 0.0000000000e+00 0.0000e+00 -1.0000e+00
      -12  1    3    3    0    0 +1.3527042878e+01 -3.0250167383e+00 -1.2591559636e+01 1.8726424895e+01 0.0000000000e+00 0.0000e+00 1.0000e+00
</event>
<event>
 9      3 +1.0086356e-04 9.11880000e+01 7.81616400e-03 1.18400000e-01
      -11 -1    0    0    0    0 +0.0000000000e+00 +0.0000000000e+00 +4.5593999997e+01 4.5594000000e+01 5.1100000000e-04 0.0000e+00 -1.0000e+00
       11 -1    0    0    0    0 -0.0000000000e+00 -0.0000000000e+00 -4.5593999997e+01 4.5594000000e+01 5.1100000000e-04 0.0000e+00 1.0000e+00
       23  2    1    2    0    0 +0.0000000000e+00 -2.6645352591e-15 -1.7763568394e-15 9.1188000000e+01 9.1188000000e+01 9.3678e-14 0.0000e+00
  9990012  2    3    3    0    0 +1.3848043424e+01 +6.0197717627e+00 +1.1075651766e+01 7.2461654367e+01 7.0000109520e+01 1.2651e-04 0.0000e+00
       24  2    4    4    0    0 +2.3111994300e+01 +1.6425934423e+01 +1.1847383069e+01 5.8507996186e+01 4.9788046055e+01 2.5291e-13 0.0000e+00
      -11  1    5    5    0    0 +1.5589333677e+01 +1.7665426625e+01 -1.6752605451e+01 2.8909244404e+01 5.1100000000e-04 0.0000e+00 -1.0000e+00
       11  1    4    4    0    0 -9.2639508766e+00 -1.0406162660e+01 -7.7173130360e-01 1.3953658180e+01 5.1100000000e-04 0.0000e+00 1.0000e+00
       12  1    5    5    0    0 +7.5226606229e+00 -1.2394922018e+00 +2.8599988520e+01 2.9598751783e+01 0.0000000000e+00 0.0000e+00 -1.0000e+00
      -12  1    3    3    0    0 -1.3848043424e+01 -6.0197717627e+00 -1.1075651766e+01 1.8726345633e+01 0.0000000000e+00 0.0000e+00 1.0000e+00
</event>
<event>
 9      4 +1.0086356e-04 9.11880000e+01 7.81616400e-03 1.18400000e-01
      -11 -1    0    0    0    0 +0.0000000000e+00 +0.0000000000e+00 +4.5593999997e+01 4.5594000000e+01 5.1100000000e-04 0.0000e+00 -1.0000e+00
       11 -1    0    0    0    0 -0.0000000000e+00 -0.0000000000e+00 -4.5593999997e+01 4.5594000000e+01 5.1100000000e-04 0.0000e+00 1.0000e+00
       23  2    1    2    0    0 +1.7763568394e-15 +0.0000000000e+00 +0.0000000000e+00 9.1188000000e+01 9.1188000000e+01 2.7086e-14 0.0000e+00
 -9990012  2    3    3    0    0 +5.8684099651e+00 -1.7062985989e+01 +5.0092896387e+00 7.2461635989e+01 7.0000085580e+01 1.0972e-04 0.0000e+00
      -24  2    4    4    0    0 +8.6917170885e+00 -8.4830823361e+00 +7.2194079665e+00 6.3162688033e+01 6.1562136710e+01 1.9809e-13 0.0000e+00
      -11  1    4    4    0    0 -2.8233071234e+00 -8.5799036530e+00 -2.2101183278e+00 9.2989479562e+00 5.1100000000e-04 0.0000e+00 1.0000e+00
       11  1    5    5    0    0 -2.3709501975e+01 -8.5957637734e+00 -9.1914646259e+00 2.6842329649e+01 5.1100000000e-04 0.0000e+00 -1.0000e+00
      -12  1    5    5    0    0 +3.2401219063e+01 +1.1268143722e-01 +1.6410872592e+01 3.6320358384e+01 0.0000000000e+00 0.0000e+00 1.0000e+00
       12  1    3    3    0    0 -5.8684099651e+00 +1.7062985989e+01 -5.0092896387e+00 1.8726364011e+01 0.0000000000e+00 0.0000e+00 -1.0000e+00
</event>
<event>
 8      3 +1.0086356e-04 9.11880000e+01 7.81616400e-03 1.18400000e-01
      -11 -1    0    0    0    0 +0.0000000000e+00 +0.0000000000e+00 +4.5593999997e+01 4.5594000000e+01 5.1100000000e-04 0.0000e+00 -1.0000e+00
       11 -1    0    0    0    0 -0.0000000000e+00 -0.0000000000e+00 -4.5593999997e+01 4.5594000000e+01 5.1100000000e-04 0.0000e+00 1.0000e+00
       23  2    1    2    0    0 -1.7763568394e-15 +0.0000000000e+00 +0.0000000000e+00 9.1188000000e+01 9.1188000000e+01 2.8696e-15 0.0000e+00
  9990012  2    3    3    0    0 -8.4452480397e+00 +1.7345447529e+00 -1.6623791006e+01 7.2461513748e+01 6.9999926338e+01 1.5797e-04 0.0000e+00
      -11  1    4    4    0    0 -1.4707550758e+01 +3.4710291216e-01 -1.2722168869e+01 1.9449578677e+01 5.1100000000e-04 0.0000e+00 1.0000e+00
       11  1    4    4    0    0 +7.7843315913e+00 +2.6696160506e+00 +2.3828998677e+01 2.5209994970e+01 5.1100000000e-04 0.0000e+00 -1.0000e+00
       12  1    4    4    0    0 -1.5220288730e+00 -1.2821742099e+00 -2.7730620814e+01 2.7801940100e+01 0.0000000000e+00 0.0000e+00 -1.0000e+00
      -12  1    3    3    0    0 +8.4452480397e+00 -1.7345447529e+00 +1.6623791006e+01 1.8726486252e+01 0.0000000000e+00 0.0000e+00 1.0000e+00
</event>
<event>
 9      4 +1.0086356e-04 9.11880000e+01 7.81616400e-03 1.18400000e-01
      -11 -1    0    0    0    0 +0.0000000000e+00 +0.0000000000e+00 +4.5593999997e+01 4.5594000000e+01 5.1100000000e-04 0.0000e+00 -1.0000e+00
       11 -1    0    0    0    0 -0.0000000000e+00 -0.0000000000e+00 -4.5593999997e+01 4.5594000000e+01 5.1100000000e-04 0.0000e+00 1.0000e+00
       23  2    1    2    0    0 -1.9984014443e-15 -8.8817841970e-16 +0.0000000000e+00 9.1188000000e+01 9.1188000000e+01 1.4531e-13 0.0000e+00
 -9990012  2    3    3    0    0 +1.1143538096e+00 -4.4082381405e+00 -1.8166005049e+01 7.2461599188e+01 7.0000037639e+01 5.8412e-05 0.0000e+00
      -24  2    4    4    0    0 -1.1161933833e+01 -1.3622827443e+01 -2.1739215969e+01 5.6701404683e+01 4.9318207465e+01 1.8540e-13 0.0000e+00
      -11  1    4    4    0    0 +1.2276287643e+01 +9.2145893030e+00 +3.5732109197e+00 1.5760194506e+01 5.1100000000e-04 0.0000e+00 1.0000e+00
       11  1    5    5    0    0 -9.1532093157e+00 +7.8091483320e+00 +1.1797542796e+01 1.6850698939e+01 5.1100000000e-04 0.0000e+00 -1.0000e+00
      -12  1    5    5    0    0 -2.0087245176e+00 -2.1431975775e+01 -3.3536758765e+01 3.9850705744e+01 0.0000000000e+00 0.0000e+00 1.0000e+00
       12  1    3    3    0    0 -1.1143538096e+00 +4.4082381405e+00 +1.8166005049e+01 1.8726400812e+01 0.0000000000e+00 0.0000e+00 -1.0000e+00
</event>
<event>
 8      3 +1.0086356e-04 9.11880000e+01 7.81616400e-03 1.18400000e-01
      -11 -1    0    0    0    0 +0.0000000000e+00 +0.0000000000e+00 +4.5593999997e+01 4.5594000000e+01 5.1100000000e-04 0.0000e+00 1.0000e+00
       11 -1    0    0    0    0 -0.0000000000e+00 -0.0000000000e+00 -4.5593999997e+01 4.5594000000e+01 5.1100000000e-04 0.0000e+00 -1.0000e+00
       23  2    1    2    0    0 +3.5527136788e-15 +0.0000000000e+00 -3.0964814046e-16 9.1188000000e+01 9.1188000000e+01 2.7172e-14 0.0000e+00
  9990012  2    3    3    0    0 +1.0205944588e+01 +1.5701010017e+01 +6.0987103754e-03 7.2461466480e+01 6.9999864762e+01 4.4714e-04 0.0000e+00
      -11  1    4    4    0    0 -4.4360312427e+00 -2.6076735721e+00 +1.5987921037e+01 1.6795593290e+01 5.1100000000e-04 0.0000e+00 1.0000e+00
       11  1    4    4    0    0 -1.6096015381e+01 +1.2372826196e+01 +4.5558003281e-01 2.0307045395e+01 5.1100000000e-04 0.0000e+00 -1.0000e+00
       12  1    4    4    0    0 +3.0737991212e+01 +5.9358573930e+00 -1.6437402359e+01 3.5358827795e+01 0.0000000000e+00 0.0000e+00 -1.0000e+00
      -12  1    3    3    0    0 -1.0205944588e+01 -1.5701010017e+01 -6.0987103754e-03 1.8726533520e+01 0.0000000000e+00 0.0000e+00 1.0000e+00
</event>
<event>
 8      3 +1.0086356e-04 9.11880000e+01 7.81616400e-03 1.18400000e-01
      -11 -1    0    0    0    0 +0.0000000000e+00 +0.0000000000e+00 +4.5593999997e+01 4.5594000000e+01 5.1100000000e-04 0.0000e+00 1.0000e+00
       11 -1    0    0    0    0 -0.0000000000e+00 -0.0000000000e+00 -4.5593999997e+01 4.5594000000e+01 5.1100000000e-04 0.0000e+00 -1.0000e+00
       23  2    1    2    0    0 +0.0000000000e+00 -8.8817841970e-16 +0.0000000000e+00 9.1188000000e+01 9.1188000000e+01 3.4548e-13 0.0000e+00
  9990012  2    3    3    0    0 +1.5683898608e+01 -3.0751706275e+00 -9.7588288726e+00 7.2461652494e+01 7.0000107081e+01 8.0980e-05 0.0000e+00
      -11  1    4    4    0    0 -2.2022184057e+01 +8.0047357475e+00 -6.6090688631e+00 2.4346091607e+01 5.1100000000e-04 0.0000e+00 1.0000e+00
       11  1    4    4    0    0 +1.2465261283e+01 -1.1421988369e+01 +1.0010100560e+01 1.9648070405e+01 5.1100000000e-04 0.0000e+00 -1.0000e+00
       12  1    4    4    0    0 +2.5240821382e+01 +3.4208199433e-01 -1.3159860569e+01 2.8467490482e+01 0.0000000000e+00 0.0000e+00 -1.0000e+00
      -12  1    3    3    0    0 -1.5683898608e+01 +3.0751706275e+00 +9.7588288726e+00 1.8726347506e+01 0.0000000000e+00 0.0000e+00 1.0000e+00
</event>
<event>
 8      3 +1.0086356e-04 9.11880000e+01 7.81616400e-03 1.18400000e-01
      -11 -1    0    0    0    0 +0.0000000000e+00 +0.0000000000e+00 +4.5593999997e+01 4.5594000000e+01 5.1100000000e-04 0.0000e+00 -1.0000e+00
       11 -1    0    0    0    0 -0.0000000000e+00 -0.0000000000e+00 -4.5593999997e+01 4.5594000000e+01 5.1100000000e-04 0.0000e+00 1.0000e+00
       23  2    1    2    0    0 -3.5527136788e-15 +1.7763568394e-15 -8.8817841970e-16 9.1188000000e+01 9.1188000000e+01 5.8598e-15 0.0000e+00
  9990012  2    3    3    0    0 -1.2622114500e+01 -1.1890948058e+01 +7.0687494801e+00 7.2461557749e+01 6.9999983657e+01 2.3369e-05 0.0000e+00
      -11  1    4    4    0    0 -1.1075779480e+01 -6.3517111439e+00 -4.8767682289e+00 1.3667479437e+01 5.1100000000e-04 0.0000e+00 1.0000e+00
       11  1    4    4    0    0 -2.5095313887e+01 +2.3539024817e-01 -9.0924273373e+00 2.6692741014e+01 5.1100000000e-04 0.0000e+00 -1.0000e+00
       12  1    4    4    0    0 +2.3548978867e+01 -5.7746271627e+00 +2.1037945046e+01 3.2101337298e+01 0.0000000000e+00 0.0000e+00 -1.0000e+00
      -12  1    3    3    0    0 +1.2622114500e+01 +1.1890948058e+01 -7.0687494801e+00 1.8726442251e+01 0.0000000000e+00 0.0000e+00 1.0000e+00
</event>
<event>
 9      3 +1.0086356e-04 9.11880000e+01 7.81616400e-03 1.18400000e-01
      -11 -1    0    0    0    0 +0.0000000000e+00 +0.0000000000e+00 +4.5593999997e+01 4.5594000000e+01 5.1100000000e-04 0.0000e+00 -1.0000e+00
       11 -1    0    0    0    0 -0.0000000000e+00 -0.0000000000e+00 -4.5593999997e+01 4.5594000000e+01 5.1100000000e-04 0.0000e+00 1.0000e+00
       23  2    1    2    0    0 +0.0000000000e+00 +8.8817841970e-16 +0.0000000000e+00 9.1188000000e+01 9.1188000000e+01 1.7723e-14 0.0000e+00
  9990012  2    3    3    0    0 -1.6197046008e+01 +3.1871603939e+00 -8.8417829178e+00 7.2461563715e+01 6.9999991429e+01 6.9495e-05 0.0000e+00
       24  2    4    4    0    0 -1.0032440588e+01 +1.7075027670e+01 -5.3459885915e+00 5.6870034101e+01 5.3041632239e+01 1.2087e-13 0.0000e+00
      -11  1    5    5    0    0 +1.8443739375e+01 +4.8798139807e-01 -1.3571614163e+01 2.2904112278e+01 5.1100000000e-04 0.0000e+00 1.0000e+00
       11  1    4    4    0    0 -6.1646054204e+00 -1.3887867276e+01 -3.4957943262e+00 1.5591529614e+01 5.1100000000e-04 0.0000e+00 -1.0000e+00
       12  1    5    5    0    0 -2.8476179963e+01 +1.6587046272e+01 +8.2256255714e+00 3.3965921824e+01 0.0000000000e+00 0.0000e+00 -1.0000e+00
      -12  1    3    3    0    0 +1.6197046008e+01 -3.1871603939e+00 +8.8417829178e+00 1.8726436285e+01 0.0000000000e+00 0.0000e+00 1.0000e+00
</event>
<event>
 9      3 +1.0086356e-04 9.11880000e+01 7.81616400e-03 1.18400000e-01
      -11 -1    0    0    0    0 +0.0000000000e+00 +0.0000000000e+00 +4.5593999997e+01 4.5594000000e+01 5.1100000000e-04 0.0000e+00 1.0000e+00
       11 -1    0    0    0    0 -0.0000000000e+00 -0.0000000000e+00 -4.5593999997e+01 4.5594000000e+01 5.1100000000e-04 0.0000e+00 -1.0000e+00
       23  2    1    2    0    0 -1.7763568394e-15 +0.0000000000e+00 -1.3322676296e-15 9.1188000000e+01 9.1188000000e+01 1.0911e-13 0.0000e+00
  9990012  2    3    3    0    0 +1.1747456809e+01 -1.4184438634e+01 +3.3878962432e+00 7.2461577977e+01 7.0000010008e+01 8.5377e-05 0.0000e+00
       24  2    4    4    0    0 +1.3555166599e+01 -4.0327824563e+00 -3.8709690196e+00 5.9851460491e+01 5.8027640361e+01 3.7737e-14 0.0000e+00
      -11  1    5    5    0    0 +9.7076498857e+00 -1.2731960419e+01 +2.4869630291e+01 2.9577690807e+01 5.1100000000e-04 0.0000e+00 1.0000e+00
       11  1    4    4    0    0 -1.8077097906e+00 -1.0151656178e+01 +7.2588652629e+00 1.2610117486e+01 5.1100000000e-04 0.0000e+00 -1.0000e+00
       12  1    5    5    0    0 +3.8475167137e+00 +8.6991779628e+00 -2.8740599311e+01 3.0273769683e+01 0.0000000000e+00 0.0000e+00 -1.0000e+00
      -12  1    3    3    0    0 -1.1747456809e+01 +1.4184438634e+01 -3.3878962432e+00 1.8726422023e+01 0.0000000000e+00 0.0000e+00 1.0000e+00
</event>
<event>
 9      3 +1.0086356e-04 9.11880000e+01 7.81616400e-03 1.18400000e-01
      -11 -1    0    0    0    0 +0.0000000000e+00 +0.0000000000e+00 +4.5593999997e+01 4.5594000000e+01 5.1100000000e-04 0.0000e+00 -1.0000e+00
       11 -1    0    0    0    0 -0.0000000000e+00 -0.0000000000e+00 -4.5593999997e+01 4.5594000000e+01 5.1100000000e-04 0.0000e+00 1.0000e+00
       23  2    1    2    0    0 +0.0000000000e+00 +0.0000000000e+00 -1.7763568394e-15 9.1188000000e+01 9.1188000000e+01 7.7790e-14 0.0000e+00
  9990012  2    3    3    0    0 -1.5260905947e+01 +1.6603874365e+00 +1.0725113907e+01 7.2461542645e+01 6.9999963981e+01 5.6627e-05 0.0000e+00
       24  2    4    4    0    0 -1.4426829782e+01 +2.7720211911e+00 +1.0970639765e+00 6.2733708437e+01 6.0979481023e+01 3.6495e-14 0.0000e+00
      -11  1    5    5    0    0 +1.0564697671e+01 -3.6898028756e+00 -2.4155952707e+01 2.6622124889e+01 5.1100000000e-04 0.0000e+00 1.0000e+00
       11  1    4    4    0    0 -8.3407616535e-01 -1.1116337546e+00 +9.6280499300e+00 9.7278342076e+00 5.1100000000e-04 0.0000e+00 -1.0000e+00
       12  1    5    5    0    0 -2.4991527453e+01 +6.4618240667e+00 +2.5253016684e+01 3.6111583548e+01 0.0000000000e+00 0.0000e+00 -1.0000e+00
      -12  1    3    3    0    0 +1.5260905947e+01 -1.6603874365e+00 -1.0725113907e+01 1.8726457355e+01 0.0000000000e+00 0.0000e+00 1.0000e+00
</event>
<event>
 9      3 +1.0086356e-04 9.11880000e+01 7.81616400e-03 1.18400000e-01
      -11 -1    0    0    0    0 +0.0000000000e+00 +0.0000000000e+00 +4.5593999997e+01 4.5594000000e+01 5.1100000000e-04 0.0000e+00 1.0000e+00
       11 -1    0    0    0    0 -0.0000000000e+00 -0.0000000000e+00 -4.5593999997e+01 4.5594000000e+01 5.1100000000e-04 0.0000e+00 -1.0000e+00
       23  2    1    2    0    0 +1.7763568394e-15 +8.8817841970e-16 +0.0000000000e+00 9.1188000000e+01 9.1188000000e+01 2.5764e-14 0.0000e+00
  9990012  2    3    3    0    0 +6.7808269858e+00 +5.1914293033e+00 -1.6665759960e+01 7.2461598640e+01 7.0000036926e+01 2.2574e-04 0.0000e+00
       24  2    4    4    0    0 +1.0602755456e+01 +4.8295119455e-01 -1.8963501667e+01 6.5976498753e+01 6.2294721503e+01 3.6177e-14 0.0000e+00
      -11  1    5    5    0    0 -1.0365264166e+01 +3.5036291402e-01 +1.9546741631e+01 2.2127732917e+01 5.1100000000e-04 0.0000e+00 1.0000e+00
       11  1    4    4    0    0 -3.8219284704e+00 +4.7084781088e+00 +2.2977417068e+00 6.4850998871e+00 5.1100000000e-04 0.0000e+00 -1.0000e+00
       12  1    5    5    0    0 +2.0968019622e+01 +1.3258828053e-01 -3.8510243298e+01 4.3848765837e+01 0.0000000000e+00 0.0000e+00 -1.0000e+00
      -12  1    3    3    0    0 -6.7808269858e+00 -5.1914293033e+00 +1.6665759960e+01 1.8726401360e+01 0.0000000000e+00 0.0000e+00 1.0000e+00
</event>
<event>
 9      4 +1.0086356e-04 9.11880000e+01 7.81616400e-03 1.18400000e-01
      -11 -1    0    0    0    0 +0.0000000000e+00 +0.0000000000e+00 +4.5593999997e+01 4.5594000000e+01 5.1100000000e-04 0.0000e+00 1.0000e+00
       11 -1    0    0    0    0 -0.0000000000e+00 -0.0000000000e+00 -4.5593999997e+01 4.5594000000e+01 5.1100000000e-04 0.0000e+00 -1.0000e+00
       23  2    1    2    0    0 +1.7763568394e-15 +0.0000000000e+00 -5.3290705182e-15 9.1188000000e+01 9.1188000000e+01 2.4798e-13 0.0000e+00
 -9990012  2    3    3    0    0 -5.2671839002e+00 -1.2494972700e+01 +1.2915407603e+01 7.2461673009e+01 7.0000133805e+01 2.7608e-06 0.0000e+00
       23  2    4    4    0    0 -7.9574661285e-01 -1.7254397266e+01 +1.8415837705e+01 6.3923487902e+01 5.8725818764e+01 1.7526e-13 0.0000e+00
      -11  1    5    5    0    0 -1.6686152194e+01 -2.5501550184e+01 +2.9867540739e+01 4.2671146304e+01 5.1100000000e-04 0.0000e+00 1.0000e+00
       11  1    5    5    0    0 +1.5890405581e+01 +8.2471529184e+00 -1.1451703034e+01 2.1252341598e+01 5.1100000000e-04 0.0000e+00 -1.0000e+00
      -12  1    4    4    0    0 -4.4714372874e+00 +4.7594245657e+00 -5.5004301027e+00 8.5381851073e+00 0.0000000000e+00 0.0000e+00 1.0000e+00
       12  1    3    3    0    0 +5.2671839002e+00 +1.2494972700e+01 -1.2915407603e+01 1.8726326991e+01 0.0000000000e+00 0.0000e+00 -1.0000e+00
</event>
<event>
 9      3 +1.0086356e-04 9.11880000e+01 7.81616400e-03 1.18400000e-01
      -11 -1    0    0    0    0 +0.0000000000e+00 +0.0000000000e+00 +4.5593999997e+01 4.5594000000e+01 5.1100000000e-04 0.0000e+00 -1.0000e+00
       11 -1    0    0    0    0 -0.0000000000e+00 -0.0000000000e+00 -4.5593999997e+01 4.5594000000e+01 5.1100000000e-04 0.0000e+00 1.0000e+00
       23  2    1    2    0    0 -1.7763568394e-15 +8.8817841970e-16 +0.0000000000e+00 9.1188000000e+01 9.1188000000e+01 6.0611e-14 0.0000e+00
  9990012  2    3    3    0    0 +1.2739907724e+01 +7.4676482381e+00 +1.1515495566e+01 7.2461610674e+01 7.0000052603e+01 8.4306e-05 0.0000e+00
       24  2    4    4    0    0 +8.8193259088e+00 +2.0966875236e+00 +3.0846952575e+00 6.1723986408e+01 6.0976704939e+01 3.8682e-14 0.0000e+00
      -11  1    5    5    0    0 +2.3571508143e+01 +1.6837580355e+01 -1.6310869552e+01 3.3244015614e+01 5.1100000000e-04 0.0000e+00 1.0000e+00
       11  1    4    4    0    0 +3.9205818157e+00 +5.3709607145e+00 +8.4308003088e+00 1.0737624266e+01 5.1100000000e-04 0.0000e+00 -1.0000e+00
       12  1    5    5    0    0 -1.4752182234e+01 -1.4740892832e+01 +1.9395564810e+01 2.8479970794e+01 0.0000000000e+00 0.0000e+00 -1.0000e+00
      -12  1    3    3    0    0 -1.2739907724e+01 -7.4676482381e+00 -1.1515495566e+01 1.8726389326e+01 0.0000000000e+00 0.0000e+00 1.0000e+00
</event>
<event>
 9      4 +1.0086356e-04 9.11880000e+01 7.81616400e-03 1.18400000e-01
      -11 -1    0    0    0    0 +0.0000000000e+00 +0.0000000000e+00 +4.5593999997e+01 4.5594000000e+01 5.1100000000e-04 0.0000e+00 1.0000e+00
       11 -1    0    0    0    0 -0.0000000000e+00 -0.0000000000e+00 -4.5593999997e+01 4.5594000000e+01 5.1100000000e-04 0.0000e+00 -1.0000e+00
       23  2    1    2    0    0 -8.8817841970e-16 +0.0000000000e+00 -1.7763568394e-15 9.1188000000e+01 9.1188000000e+01 5.1873e-15 0.0000e+00
 -9990012  2    3    3    0    0 -6.2992434197e+00 -1.7264401521e+01 +3.5983902700e+00 7.2461322770e+01 6.9999677553e+01 3.2804e-04 0.0000e+00
      -24  2    4    4    0    0 +2.0521226837e+00 -4.6145495067e+00 +1.6196181563e+01 5.2751720605e+01 4.9949198742e+01 9.6690e-14 0.0000e+00
      -11  1    4    4    0    0 -8.3513661034e+00 -1.2649852014e+01 -1.2597791293e+01 1.9709602165e+01 5.1100000000e-04 0.0000e+00 1.0000e+00
       11  1    5    5    0    0 -1.1779621745e+00 +1.1093173005e+01 -1.4395294111e+01 1.8211825142e+01 5.1100000000e-04 0.0000e+00 -1.0000e+00
      -12  1    5    5    0    0 +3.2300848582e+00 -1.5707722511e+01 +3.0591475674e+01 3.4539895463e+01 0.0000000000e+00 0.0000e+00 1.0000e+00
       12  1    3    3    0    0 +6.2992434197e+00 +1.7264401521e+01 -3.5983902700e+00 1.8726677230e+01 0.0000000000e+00 0.0000e+00 -1.0000e+00
</event>
<event>
 8      4 +1.0086356e-04 9.11880000e+01 7.81616400e-03 1.18400000e-01
      -11 -1    0    0    0    0 +0.0000000000e+00 +0.0000000000e+00 +4.5593999997e+01 4.5594000000e+01 5.1100000000e-04 0.0000e+00 1.0000e+00
       11 -1    0    0    0    0 -0.0000000000e+00 -0.0000000000e+00 -4.5593999997e+01 4.5594000000e+01 5.1100000000e-04 0.0000e+00 -1.0000e+00
       23  2    1    2    0    0 -1.7763568394e-15 +1.7763568394e-15 +8.8817841970e-16 9.1188000000e+01 9.1188000000e+01 4.0852e-14 0.0000e+00
 -9990012  2    3    3    0    0 -1.3183156137e+01 +1.1922462218e+01 +5.8938544720e+00 7.2461595337e+01 7.0000032622e+01 3.0303e-04 0.0000e+00
      -11  1    4    4    0    0 -4.2057753521e-01 +2.2716724650e+01 -6.3957218780e+00 2.3603637917e+01 5.1100000000e-04 0.0000e+00 1.0000e+00
       11  1    4    4    0    0 +1.3975709582e+01 -7.0522658917e+00 -5.4236220526e+00 1.6567153918e+01 5.1100000000e-04 0.0000e+00 -1.0000e+00
      -12  1    4    4    0    0 -2.6738288184e+01 -3.7419965411e+00 +1.7713198403e+01 3.2290803502e+01 0.0000000000e+00 0.0000e+00 1.0000e+00
       12  1    3    3    0    0 +1.3183156137e+01 -1.1922462218e+01 -5.8938544720e+00 1.8726404663e+01 0.0000000000e+00 0.0000e+00 -1.0000e+00
</event>
<event>
 8      4 +1.0086356e-04 9.11880000e+01 7.81616400e-03 1.18400000e-01
      -11 -1    0    0    0    0 +0.0000000000e+00 +0.0000000000e+00 +4.5593999997e+01 4.5594000000e+01 5.1100000000e-04 0.0000e+00 1.0000e+00
       11 -1    0    0    0    0 -0.0000000000e+00 -0.0000000000e+00 -4.5593999997e+01 4.5594000000e+01 5.1100000000e-04 0.0000e+00 -1.0000e+00
       23  2    1    2    0    0 +1.7763568394e-15 -1.7763568394e-15 +1.7763568394e-15 9.1188000000e+01 9.1188000000e+01 4.6293e-14 0.0000e+00
 -9990012  2    3    3    0    0 +6.3685582439e+00 +1.4974627704e+01 +9.2669662786e+00 7.2461690353e+01 7.0000156399e+01 5.3952e-05 0.0000e+00
      -11  1    4    4    0    0 -1.4319664968e+01 -8.9484376449e+00 -4.8112992925e+00 1.7557788648e+01 5.1100000000e-04 0.0000e+00 1.0000e+00
       11  1    4    4    0    0 +2.3171517370e+01 +1.8418868169e+00 -7.0007613851e+00 2.4275963925e+01 5.1100000000e-04 0.0000e+00 -1.0000e+00
      -12  1    4    4    0    0 -2.4832941585e+00 +2.2081178532e+01 +2.1079026956e+01 3.0627937780e+01 0.0000000000e+00 0.0000e+00 1.0000e+00
       12  1    3    3    0    0 -6.3685582439e+00 -1.4974627704e+01 -9.2669662786e+00 1.8726309647e+01 0.0000000000e+00 0.0000e+00 -1.0000e+00
</event>
<event>
 8      3 +1.0086356e-04 7.24615900e+01 7.81616400e-03 1.22670800e-01
      -11 -1    0    0    0    0 +0.0000000000e+00 +0.0000000000e+00 +4.5593999997e+01 4.5594000000e+01 5.1100000000e-04 0.0000e+00 1.0000e+00
       11 -1    0    0    0    0 -0.0000000000e+00 -0.0000000000e+00 -4.5593999997e+01 4.5594000000e+01 5.1100000000e-04 0.0000e+00 -1.0000e+00
  9990012  2    1    2    0    0 +1.0268553534e+01 +1.5629635815e+01 -9.7453064653e-01 7.2461590377e+01 7.0000026162e+01 3.7515e-06 0.0000e+00
       24  2    3    3    0    0 +1.1026386450e+01 +1.5096418967e+01 +4.1428229348e+00 6.7261019363e+01 6.4477892957e+01 3.4194e-14 0.0000e+00
      -11  1    4    4    0    0 +2.9121678001e+01 -1.4418243976e+01 +2.7767354348e+00 3.2613925690e+01 5.1100000000e-04 0.0000e+00 1.0000e+00
       11  1    3    3    0    0 -7.5783291646e-01 +5.3321684745e-01 -5.1173535813e+00 5.2005710141e+00 5.1100000000e-04 0.0000e+00 -1.0000e+00
       12  1    4    4    0    0 -1.8095291551e+01 +2.9514662943e+01 +1.3660875000e+00 3.4647093673e+01 0.0000000000e+00 0.0000e+00 -1.0000e+00
      -12  1    1    2    0    0 -1.0268553534e+01 -1.5629635815e+01 +9.7453064653e-01 1.8726409623e+01 0.0000000000e+00 0.0000e+00 1.0000e+00
</event>
<event>
 9      3 +1.0086356e-04 9.11880000e+01 7.81616400e-03 1.18400000e-01
      -11 -1    0    0    0    0 +0.0000000000e+00 +0.0000000000e+00 +4.5593999997e+01 4.5594000000e+01 5.1100000000e-04 0.0000e+00 -1.0000e+00
       11 -1    0    0    0    0 -0.0000000000e+00 -0.0000000000e+00 -4.5593999997e+01 4.5594000000e+01 5.1100000000e-04 0.0000e+00 1.0000e+00
       23  2    1    2    0    0 -1.7763568394e-15 -1.7763568394e-15 +1.3322676296e-15 9.1188000000e+01 9.1188000000e+01 3.6546e-14 0.0000e+00
  9990012  2    3    3    0    0 -1.3680201048e+01 -1.2765663183e+01 +7.5467546587e-01 7.2461559006e+01 6.9999985295e+01 3.6412e-04 0.0000e+00
       24  2    4    4    0    0 +7.2032943661e+00 -1.3164447870e+01 +2.8892074118e+00 5.1465472780e+01 4.9144249222e+01 4.3921e-14 0.0000e+00
      -11  1    5    5    0    0 -8.9823422834e+00 +1.0753025928e+01 +1.4660625113e+01 2.0279151078e+01 5.1100000000e-04 0.0000e+00 1.0000e+00
       11  1    4    4    0    0 -2.0883495414e+01 +3.9878468621e-01 -2.1345319459e+00 2.0996086226e+01 5.1100000000e-04 0.0000e+00 -1.0000e+00
       12  1    5    5    0    0 +1.6185636649e+01 -2.3917473797e+01 -1.1771417701e+01 3.1186321702e+01 0.0000000000e+00 0.0000e+00 -1.0000e+00
      -12  1    3    3    0    0 +1.3680201048e+01 +1.2765663183e+01 -7.5467546587e-01 1.8726440994e+01 0.0000000000e+00 0.0000e+00 1.0000e+00
</event>
<event>
 8      4 +1.0086356e-04 9.11880000e+01 7.81616400e-03 1.18400000e-01
      -11 -1    0    0    0    0 +0.0000000000e+00 +0.0000000000e+00 +4.5593999997e+01 4.5594000000e+01 5.1100000000e-04 0.0000e+00 -1.0000e+00
       11 -1    0    0    0    0 -0.0000000000e+00 -0.0000000000e+00 -4.5593999997e+01 4.5594000000e+01 5.1100000000e-04 0.0000e+00 1.0000e+00
       23  2    1    2    0    0 +0.0000000000e+00 -1.3322676296e-15 +0.0000000000e+00 9.1188000000e+01 9.1188000000e+01 3.5251e-14 0.0000e+00
 -9990012  2    3    3    0    0 +1.2134266355e+01 -2.8767628207e+00 -1.3970091829e+01 7.2461557465e+01 6.9999983288e+01 3.4860e-04 0.0000e+00
      -11  1    4    4    0    0 -1.4927823737e+01 -1.2679170160e+01 -1.5689781982e+00 1.9648485191e+01 5.1100000000e-04 0.0000e+00 1.0000e+00
       11  1    4    4    0    0 +7.4789752594e+00 -1.6592822760e+01 -7.0281102164e+00 1.9510283739e+01 5.1100000000e-04 0.0000e+00 -1.0000e+00
      -12  1    4    4    0    0 +1.9583114832e+01 +2.6395230100e+01 -5.3730034147e+00 3.3302788535e+01 0.0000000000e+00 0.0000e+00 1.0000e+00
       12  1    3    3    0    0 -1.2134266355e+01 +2.8767628207e+00 +1.3970091829e+01 1.8726442535e+01 0.0000000000e+00 0.0000e+00 -1.0000e+00
</event>
<event>
 8      4 +1.0086356e-04 9.11880000e+01 7.81616400e-03 1.18400000e-01
      -11 -1    0    0    0    0 +0.0000000000e+00 +0.0000000000e+00 +4.5593999997e+01 4.5594000000e+01 5.1100000000e-04 0.0000e+00 -1.0000e+00
       11 -1    0    0    0    0 -0.0000000000e+00 -0.0000000000e+00 -4.5593999997e+01 4.5594000000e+01 5.1100000000e-04 0.0000e+00 1.0000e+00
       23  2    1    2    0    0 -1.7763568394e-15 -1.7763568394e-15 +1.7763568394e-15 9.1188000000e+01 9.1188000000e+01 6.5858e-14 0.0000e+00
 -9990012  2    3    3    0    0 -5.9678176780e+00 -1.2402667160e+01 -1.2697848993e+01 7.2461645054e+01 7.0000097388e+01 1.3793e-04 0.0000e+00
      -11  1    4    4    0    0 +6.5594624786e+00 +7.1451359891e+00 +1.5644796825e+01 1.8407584966e+01 5.1100000000e-04 0.0000e+00 1.0000e+00
       11  1    4    4    0    0 +1.2143940236e+01 +2.4113530534e+00 -3.9541632516e+00 1.2997127193e+01 5.1100000000e-04 0.0000e+00 -1.0000e+00
      -12  1    4    4    0    0 -2.4671220392e+01 -2.1959156203e+01 -2.4388482567e+01 4.1056932894e+01 0.0000000000e+00 0.0000e+00 1.0000e+00
       12  1    3    3    0    0 +5.9678176780e+00 +1.2402667160e+01 +1.2697848993e+01 1.8726354946e+01 0.0000000000e+00 0.0000e+00 -1.0000e+00
</event>
<event>
 8      4 +1.0086356e-04 9.11880000e+01 7.81616400e-03 1.18400000e-01
      -11 -1    0    0    0    0 +0.0000000000e+00 +0.0000000000e+00 +4.5593999997e+01 4.5594000000e+01 5.1100000000e-04 0.0000e+00 1.0000e+00
       11 -1    0    0    0    0 -0.0000000000e+00 -0.0000000000e+00 -4.5593999997e+01 4.5594000000e+01 5.1100000000e-04 0.0000e+00 -1.0000e+00
       23  2    1    2    0    0 -1.7763568394e-15 +8.8817841970e-16 +0.0000000000e+00 9.1188000000e+01 9.1188000000e+01 4.5296e-14 0.0000e+00
 -9990012  2    3    3    0    0 -1.1372745427e+01 -5.1015793172e+00 +1.3975436429e+01 7.2461594219e+01 7.0000031166e+01 7.3144e-04 0.0000e+00
      -11  1    4    4    0    0 +1.2782641080e+01 -4.9535406209e-01 -8.2661629546e+00 1.5230585638e+01 5.1100000000e-04 0.0000e+00 1.0000e+00
       11  1    4    4    0    0 +2.0621737695e+00 +1.8322923232e+00 -1.2744725038e+01 1.3039857068e+01 5.1100000000e-04 0.0000e+00 -1.0000e+00
      -12  1    4    4    0    0 -2.6217560277e+01 -6.4385175783e+00 +3.4986324422e+01 4.4191151513e+01 0.0000000000e+00 0.0000e+00 1.0000e+00
       12  1    3    3    0    0 +1.1372745427e+01 +5.1015793172e+00 -1.3975436429e+01 1.8726405781e+01 0.0000000000e+00 0.0000e+00 -1.0000e+00
</event>
<event>
 8      4 +1.0086356e-04 9.11880000e+01 7.81616400e-03 1.18400000e-01
      -11 -1    0    0    0    0 +0.0000000000e+00 +0.0000000000e+00 +4.5593999997e+01 4.5594000000e+01 5.1100000000e-04 0.0000e+00 1.0000e+00
       11 -1    0    0    0    0 -0.0000000000e+00 -0.0000000000e+00 -4.5593999997e+01 4.5594000000e+01 5.1100000000e-04 0.0000e+00 -1.0000e+00
       23  2    1    2    0    0 +4.4408920985e-16 +0.0000000000e+00 -3.5527136788e-15 9.1188000000e+01 9.1188000000e+01 2.1246e-14 0.0000e+00
 -9990012  2    3    3    0    0 +3.1540539350e+00 -1.6307033658e+01 +8.6493778362e+00 7.2461571086e+01 7.0000001031e+01 7.1820e-05 0.0000e+00
      -11  1    4    4    0    0 -3.3931405176e+00 -5.8317103255e+00 +3.8936612419e+01 3.9516857603e+01 5.1100000000e-04 0.0000e+00 1.0000e+00
       11  1    4    4    0    0 +2.6203811936e+00 -7.1285935617e+00 -1.5053030912e+01 1.6860515522e+01 5.1100000000e-04 0.0000e+00 -1.0000e+00
      -12  1    4    4    0    0 +3.9268132591e+00 -3.3467297704e+00 -1.5234203671e+01 1.6084197960e+01 0.0000000000e+00 0.0000e+00 1.0000e+00
       12  1    3    3    0    0 -3.1540539350e+00 +1.6307033658e+01 -8.6493778362e+00 1.8726428914e+01 0.0000000000e+00 0.0000e+00 -1.0000e+00
</event>
<event>
 9      4 +1.0086356e-04 9.11880000e+01 7.81616400e-03 1.18400000e-01
      -11 -1    0    0    0    0 +0.0000000000e+00 +0.0000000000e+00 +4.5593999997e+01 4.5594000000e+01 5.1100000000e-04 0.0000e+00 -1.0000e+00
       11 -1    0    0    0    0 -0.0000000000e+00 -0.0000000000e+00 -4.5593999997e+01 4.5594000000e+01 5.1100000000e-04 0.0000e+00 1.0000e+00
       23  2    1    2    0    0 +0.0000000000e+00 +0.0000000000e+00 -8.8817841970e-16 9.1188000000e+01 9.1188000000e+01 1.1301e-13 0.0000e+00
 -9990012  2    3    3    0    0 -8.3346429975e+00 +1.6610979255e+01 -2.2997461751e+00 7.2461555111e+01 6.9999980221e+01 4.1320e-04 0.0000e+00
      -24  2    4    4    0    0 -1.3051016847e+00 +1.4553899657e+01 -2.0066812274e+00 6.5131349461e+01 6.3439314525e+01 1.4674e-13 0.0000e+00
      -11  1    4    4    0    0 -7.0295413128e+00 +2.0570795981e+00 -2.9306494765e-01 7.3302056496e+00 5.1100000000e-04 0.0000e+00 1.0000e+00
       11  1    5    5    0    0 +7.6448403088e+00 +1.2486441921e+01 +2.9165448188e+01 3.2634003485e+01 5.1100000000e-04 0.0000e+00 -1.0000e+00
      -12  1    5    5    0    0 -8.9499419935e+00 +2.0674577361e+00 -3.1172129416e+01 3.2497345976e+01 0.0000000000e+00 0.0000e+00 1.0000e+00
       12  1    3    3    0    0 +8.3346429975e+00 -1.6610979255e+01 +2.2997461751e+00 1.8726444889e+01 0.0000000000e+00 0.0000e+00 -1.0000e+00
</event>
<event>
 8      4 +1.0086356e-04 9.11880000e+01 7.81616400e-03 1.18400000e-01
      -11 -1    0    0    0    0 +0.0000000000e+00 +0.0000000000e+00 +4.5593999997e+01 4.5594000000e+01 5.1100000000e-04 0.0000e+00 -1.0000e+00
       11 -1    0    0    0    0 -0.0000000000e+00 -0.0000000000e+00 -4.5593999997e+01 4.5594000000e+01 5.1100000000e-04 0.0000e+00 1.0000e+00
       23  2    1    2    0    0 +1.3322676296e-15 +3.5527136788e-15 +0.0000000000e+00 9.1188000000e+01 9.1188000000e+01 2.4480e-14 0.0000e+00
 -9990012  2    3    3    0    0 +1.7438067230e+00 -1.6569477151e+01 -8.5491940356e+00 7.2461624120e+01 7.0000070117e+01 2.6910e-04 0.0000e+00
      -11  1    4    4    0    0 +8.0223588979e+00 +2.2673744573e+01 -8.4646990237e+00 2.5497216810e+01 5.1100000000e-04 0.0000e+00 1.0000e+00
       11  1    4    4    0    0 +2.6660776327e+00 -5.5621830680e+00 +9.0375139072e+00 1.0941778115e+01 5.1100000000e-04 0.0000e+00 -1.0000e+00
      -12  1    4    4    0    0 -8.9446298077e+00 -3.3681038656e+01 -9.1220089192e+00 3.6022629195e+01 0.0000000000e+00 0.0000e+00 1.0000e+00
       12  1    3    3    0    0 -1.7438067230e+00 +1.6569477151e+01 +8.5491940356e+00 1.8726375880e+01 0.0000000000e+00 0.0000e+00 -1.0000e+00
</event>
<event>
 8      3 +1.0086356e-04 9.11880000e+01 7.81616400e-03 1.18400000e-01
      -11 -1    0    0    0    0 +0.0000000000e+00 +0.0000000000e+00 +4.5593999997e+01 4.5594000000e+01 5.1100000000e-04 0.0000e+00 1.0000e+00
       11 -1    0    0    0    0 -0.0000000000e+00 -0.0000000000e+00 -4.5593999997e+01 4.5594000000e+01 5.1100000000e-04 0.0000e+00 -1.0000e+00
       23  2    1    2    0    0 -8.8817841970e-16 +1.7763568394e-15 -1.7763568394e-15 9.1188000000e+01 9.1188000000e+01 3.4847e-13 0.0000e+00
  9990012  2    3    3    0    0 +3.0350258135e+00 -1.2352275024e+01 +1.3743667507e+01 7.2461588799e+01 7.0000024105e+01 4.2526e-05 0.0000e+00
      -11  1    4    4    0    0 +1.5754284346e+01 -2.5063643898e-01 -8.0448659302e+00 1.7691245348e+01 5.1100000000e-04 0.0000e+00 1.0000e+00
       11  1    4    4    0    0 -6.9980721434e+00 -3.0260719647e+01 +1.1429247279e+01 3.3095496082e+01 5.1100000000e-04 0.0000e+00 -1.0000e+00
       12  1    4    4    0    0 -5.7211863886e+00 +1.8159081063e+01 +1.0359286158e+01 2.1674847368e+01 0.0000000000e+00 0.0000e+00 -1.0000e+00
      -12  1    3    3    0    0 -3.0350258135e+00 +1.2352275024e+01 -1.3743667507e+01 1.8726411201e+01 0.0000000000e+00 0.0000e+00 1.0000e+00
</event>
<event>
 8      3 +1.0086356e-04 9.11880000e+01 7.81616400e-03 1.18400000e-01
      -11 -1    0    0    0    0 +0.0000000000e+00 +0.0000000000e+00 +4.5593999997e+01 4.5594000000e+01 5.1100000000e-04 0.0000e+00 -1.0000e+00
       11 -1    0    0    0    0 -0.0000000000e+00 -0.0000000000e+00 -4.5593999997e+01 4.5594000000e+01 5.1100000000e-04 0.0000e+00 1.0000e+00
       23  2    1    2    0    0 -1.7763568394e-15 +3.5527136788e-15 +0.0000000000e+00 9.1188000000e+01 9.1188000000e+01 1.3306e-14 0.0000e+00
  9990012  2    3    3    0    0 +1.0664465679e+01 -1.4798497059e+01 -4.2369743369e+00 7.2461593645e+01 7.0000030419e+01 2.8962e-04 0.0000e+00
      -11  1    4    4    0    0 +6.6041949855e+00 -3.0054854348e+01 +7.1556727002e+00 3.1592931382e+01 5.1100000000e-04 0.0000e+00 1.0000e+00
       11  1    4    4    0    0 -9.1905788734e+00 +1.0074934291e+01 +8.7536169486e+00 1.6204840355e+01 5.1100000000e-04 0.0000e+00 -1.0000e+00
       12  1    4    4    0    0 +1.3250849567e+01 +5.1814229973e+00 -2.0146263986e+01 2.4663821908e+01 0.0000000000e+00 0.0000e+00 -1.0000e+00
      -12  1    3    3    0    0 -1.0664465679e+01 +1.4798497059e+01 +4.2369743369e+00 1.8726406355e+01 0.0000000000e+00 0.0000e+00 1.0000e+00
</event>
<event>
 8      3 +1.0086356e-04 9.11880000e+01 7.81616400e-03 1.18400000e-01
      -11 -1    0    0    0    0 +0.0000000000e+00 +0.0000000000e+00 +4.5593999997e+01 4.5594000000e+01 5.1100000000e-04 0.0000e+00 1.0000e+00
       11 -1    0    0    0    0 -0.0000000000e+00 -0.0000000000e+00 -4.5593999997e+01 4.5594000000e+01 5.1100000000e-04 0.0000e+00 -1.0000e+00
       23  2    1    2    0    0 +0.0000000000e+00 +0.0000000000e+00 +0.0000000000e+00 9.1188000000e+01 9.1188000000e+01 4.0279e-13 0.0000e+00
  9990012  2    3    3    0    0 -1.7045927450e+01 +4.4480962258e+00 -6.3505413029e+00 7.2461586101e+01 7.0000020591e+01 2.7738e-04 0.0000e+00
      -11  1    4    4    0    0 +1.5887531821e+01 -1.0351330933e+00 +7.2925178347e-01 1.5937910036e+01 5.1100000000e-04 0.0000e+00 1.0000e+00
       11  1    4    4    0    0 -2.7787763567e+01 -1.6363927276e+01 -1.0290695009e+01 3.3850204194e+01 5.1100000000e-04 0.0000e+00 -1.0000e+00
       12  1    4    4    0    0 -5.1456957039e+00 +2.1847156595e+01 +3.2109019227e+00 2.2673471872e+01 0.0000000000e+00 0.0000e+00 -1.0000e+00
      -12  1    3    3    0    0 +1.7045927450e+01 -4.4480962258e+00 +6.3505413029e+00 1.8726413899e+01 0.0000000000e+00 0.0000e+00 1.0000e+00
</event>
<event>
 8      3 +1.0086356e-04 9.11880000e+01 7.81616400e-03 1.18400000e-01
      -11 -1    0    0    0    0 +0.0000000000e+00 +0.0000000000e+00 +4.5593999997e+01 4.5594000000e+01 5.1100000000e-04 0.0000e+00 -1.0000e+00
       11 -1    0    0    0    0 -0.0000000000e+00 -0.0000000000e+00 -4.5593999997e+01 4.5594000000e+01 5.1100000000e-04 0.0000e+00 1.0000e+00
       23  2    1    2    0    0 +1.7763568394e-15 +1.7763568394e-15 -1.7763568394e-15 9.1188000000e+01 9.1188000000e+01 3.0295e-14 0.0000e+00
  9990012  2    3    3    0    0 +1.3387891953e+01 -5.6749118748e+00 +1.1800044047e+01 7.2461513003e+01 6.9999925368e+01 4.0617e-05 0.0000e+00
      -11  1    4    4    0    0 +3.4280659320e+00 +1.4299066771e+01 +1.6635309450e+01 2.2202442823e+01 5.1100000000e-04 0.0000e+00 1.0000e+00
       11  1    4    4    0    0 -5.4431739926e+00 -2.6330606893e+01 -1.4952190587e+01 3.0765191468e+01 5.1100000000e-04 0.0000e+00 -1.0000e+00
       12  1    4    4    0    0 +1.5403000013e+01 +6.3566282473e+00 +1.0116925183e+01 1.9493878712e+01 0.0000000000e+00 0.0000e+00 -1.0000e+00
      -12  1    3    3    0    0 -1.3387891953e+01 +5.6749118748e+00 -1.1800044047e+01 1.8726486997e+01 0.0000000000e+00 0.0000e+00 1.0000e+00
</event>
<event>
 8      4 +1.0086356e-04 9.11880000e+01 7.81616400e-03 1.18400000e-01
      -11 -1    0    0    0    0 +0.0000000000e+00 +0.0000000000e+00 +4.5593999997e+01 4.5594000000e+01 5.1100000000e-04 0.0000e+00 1.0000e+00
       11 -1    0    0    0    0 -0.0000000000e+00 -0.0000000000e+00 -4.5593999997e+01 4.5594000000e+01 5.1100000000e-04 0.0000e+00 -1.0000e+00
       23  2    1    2    0    0 +0.0000000000e+00 +1.7763568394e-15 -3.5527136788e-15 9.1188000000e+01 9.1188000000e+01 1.6294e-13 0.0000e+00
 -9990012  2    3    3    0    0 +9.0708435932e+00 +1.5032296239e+01 -6.5135471587e+00 7.2461643432e+01 7.0000095276e+01 1.1444e-06 0.0000e+00
      -11  1    4    4    0    0 +1.1871579430e+01 +1.9735612303e+01 +2.3701299260e+01 3.3048152414e+01 5.1100000000e-04 0.0000e+00 1.0000e+00
       11  1    4    4    0    0 -4.6852439002e+00 +1.9932848683e+00 -3.1860501762e+01 3.2264783708e+01 5.1100000000e-04 0.0000e+00 -1.0000e+00
      -12  1    4    4    0    0 +1.8845080636e+00 -6.6966009324e+00 +1.6456553436e+00 7.1487073096e+00 0.0000000000e+00 0.0000e+00 1.0000e+00
       12  1    3    3    0    0 -9.0708435932e+00 -1.5032296239e+01 +6.5135471587e+00 1.8726356568e+01 0.0000000000e+00 0.0000e+00 -1.0000e+00
</event>
<event>
 9      3 +1.0086356e-04 9.11880000e+01 7.81616400e-03 1.18400000e-01
      -11 -1    0    0    0    0 +0.0000000000e+00 +0.0000000000e+00 +4.5593999997e+01 4.5594000000e+01 5.1100000000e-04 0.0000e+00 -1.0000e+00
       11 -1    0    0    0    0 -0.0000000000e+00 -0.0000000000e+00 -4.5593999997e+01 4.5594000000e+01 5.1100000000e-04 0.0000e+00 1.0000e+00
       23  2    1    2    0    0 +8.8817841970e-16 +1.7763568394e-15 -1.7763568394e-15 9.1188000000e+01 9.1188000000e+01 2.0796e-14 0.0000e+00
  9990012  2    3    3    0    0 -2.9510545984e+00 -9.9911500942e+00 +1.5561111666e+01 7.2461548128e+01 6.9999971124e+01 1.7549e-04 0.0000e+00
       24  2    4    4    0    0 -4.2257710926e+00 -8.5052208747e+00 +9.8984790479e-01 5.7759350481e+01 5.6964610467e+01 1.3658e-14 0.0000e+00
      -11  1    5    5    0    0 +2.6192647681e+01 -3.2435989152e+00 +4.1921069199e+00 2.6723575493e+01 5.1100000000e-04 0.0000e+00 1.0000e+00
       11  1    4    4    0    0 +1.2747164942e+00 -1.4859292196e+00 +1.4571263761e+01 1.4702197647e+01 5.1100000000e-04 0.0000e+00 -1.0000e+00
       12  1    5    5    0    0 -3.0418418773e+01 -5.2616219595e+00 -3.2022590151e+00 3.1035774988e+01 0.0000000000e+00 0.0000e+00 -1.0000e+00
      -12  1    3    3    0    0 +2.9510545984e+00 +9.9911500942e+00 -1.5561111666e+01 1.8726451872e+01 0.0000000000e+00 0.0000e+00 1.0000e+00
</event>
<event>
 8      3 +1.0086356e-04 9.11880000e+01 7.81616400e-03 1.18400000e-01
      -11 -1    0    0    0    0 +0.0000000000e+00 +0.0000000000e+00 +4.5593999997e+01 4.5594000000e+01 5.1100000000e-04 0.0000e+00 -1.0000e+00
       11 -1    0    0    0    0 -0.0000000000e+00 -0.0000000000e+00 -4.5593999997e+01 4.5594000000e+01 5.1100000000e-04 0.0000e+00 1.0000e+00
       23  2    1    2    0    0 +0.0000000000e+00 +1.7763568394e-15 +1.8873791419e-15 9.1188000000e+01 9.1188000000e+01 1.0242e-13 0.0000e+00
  9990012  2    3    3    0    0 -1.0498504956e+01 -1.5496659011e+01 -5.6152266141e-01 7.2461538655e+01 6.9999958783e+01 2.1049e-04 0.0000e+00
      -11  1    4    4    0    0 -3.7223213625e-01 +4.1493893722e-02 -8.9236650423e+00 8.9315215140e+00 5.1100000000e-04 0.0000e+00 1.0000e+00
       11  1    4    4    0    0 -8.4985669854e+00 +5.2189788320e-01 -2.5031199204e+01 2.6439722995e+01 5.1100000000e-04 0.0000e+00 -1.0000e+00
       12  1    4    4    0    0 -1.6277058342e+00 -1.6060050788e+01 +3.3393341585e+01 3.7090294146e+01 0.0000000000e+00 0.0000e+00 -1.0000e+00
      -12  1    3    3    0    0 +1.0498504956e+01 +1.5496659011e+01 +5.6152266141e-01 1.8726461345e+01 0.0000000000e+00 0.0000e+00 1.0000e+00
</event>
<event>
 9      4 +1.0086356e-04 9.11880000e+01 7.81616400e-03 1.18400000e-01
      -11 -1    0    0    0    0 +0.0000000000e+00 +0.0000000000e+00 +4.5593999997e+01 4.5594000000e+01 5.1100000000e-04 0.0000e+00 -1.0000e+00
       11 -1    0    0    0    0 -0.0000000000e+00 -0.0000000000e+00 -4.5593999997e+01 4.5594000000e+01 5.1100000000e-04 0.0000e+00 1.0000e+00
       23  2    1    2    0    0 +1.7763568394e-15 +0.0000000000e+00 -1.7763568394e-15 9.1188000000e+01 9.1188000000e+01 1.0306e-13 0.0000e+00
 -9990012  2    3    3    0    0 -1.0839858454e+01 -5.7523228729e+00 -1.4145318797e+01 7.2461500231e+01 6.9999908729e+01 6.8982e-05 0.0000e+00
      -24  2    4    4    0    0 -8.9200470157e+00 +9.4434933252e+00 -1.7032600513e+01 5.6875131127e+01 5.2687040679e+01 5.5353e-14 0.0000e+00
      -11  1    4    4    0    0 -1.9198114378e+00 -1.5195816198e+01 +2.8872817156e+00 1.5586369104e+01 5.1100000000e-04 0.0000e+00 1.0000e+00
       11  1    5    5    0    0 +1.0704385466e+01 -1.5946698690e+01 -1.5616160495e+01 2.4753697424e+01 5.1100000000e-04 0.0000e+00 -1.0000e+00
      -12  1    5    5    0    0 -1.9624432482e+01 +2.5390192015e+01 -1.4164400181e+00 3.2121433703e+01 0.0000000000e+00 0.0000e+00 1.0000e+00
       12  1    3    3    0    0 +1.0839858454e+01 +5.7523228729e+00 +1.4145318797e+01 1.8726499769e+01 0.0000000000e+00 0.0000e+00 -1.0000e+00
</event>
<event>
 8      4 +1.0086356e-04 9.11880000e+01 7.81616400e-03 1.18400000e-01
      -11 -1    0    0    0    0 +0.0000000000e+00 +0.0000000000e+00 +4.5593999997e+01 4.5594000000e+01 5.1100000000e-04 0.0000e+00 1.0000e+00
       11 -1    0    0    0    0 -0.0000000000e+00 -0.0000000000e+00 -4.5593999997e+01 4.5594000000e+01 5.1100000000e-04 0.0000e+00 -1.0000e+00
       23  2    1    2    0    0 +1.7763568394e-15 -1.7763568394e-15 -1.7763568394e-15 9.1188000000e+01 9.1188000000e+01 3.1919e-13 0.0000e+00
 -9990012  2    3    3    0    0 -1.4253488302e+01 -8.0288622478e+00 +9.1131894725e+00 7.2461687493e+01 7.0000152673e+01 3.2320e-05 0.0000e+00
      -11  1    4    4    0    0 +4.8743121406e-01 -2.6322173107e+01 -7.4791324027e+00 2.7368445481e+01 5.1100000000e-04 0.0000e+00 1.0000e+00
       11  1    4    4    0    0 -2.4663210013e+01 +1.6329012671e+01 +1.8376124114e+01 3.4822299187e+01 5.1100000000e-04 0.0000e+00 -1.0000e+00
      -12  1    4    4    0    0 +9.9222904973e+00 +1.9642981888e+00 -1.7838022386e+00 1.0270942825e+01 0.0000000000e+00 0.0000e+00 1.0000e+00
       12  1    3    3    0    0 +1.4253488302e+01 +8.0288622478e+00 -9.1131894725e+00 1.8726312507e+01 0.0000000000e+00 0.0000e+00 -1.0000e+00
</event>
<event>
 9      4 +1.0086356e-04 9.11880000e+01 7.81616400e-03 1.18400000e-01
      -11 -1    0    0    0    0 +0.0000000000e+00 +0.0000000000e+00 +4.5593999997e+01 4.5594000000e+01 5.1100000000e-04 0.0000e+00 1.0000e+00
       11 -1    0    0    0    0 -0.0000000000e+00 -0.0000000000e+00 -4.5593999997e+01 4.5594000000e+01 5.1100000000e-04 0.0000e+00 -1.0000e+00
       23  2    1    2    0    0 +0.0000000000e+00 +4.4408920985e-16 -8.8817841970e-16 9.1188000000e+01 9.1188000000e+01 6.7395e-14 0.0000e+00
 -9990012  2    3    3    0    0 -1.7231899213e+01 +1.3763912426e+00 +7.2004113974e+00 7.2461582093e+01 7.0000015369e+01 2.2963e-04 0.0000e+00
      -24  2    4    4    0    0 -1.9246444432e+01 -3.5006926874e+00 +1.3565754364e+01 6.4193454648e+01 5.9616184510e+01 2.0090e-14 0.0000e+00
      -11  1    4    4    0    0 +2.0145452184e+00 +4.8770839300e+00 -6.3653429668e+00 8.2681274448e+00 5.1100000000e-04 0.0000e+00 1.0000e+00
       11  1    5    5    0    0 -6.1705879996e-01 -1.2723395079e+01 -2.0588539860e+01 2.4210607546e+01 5.1100000000e-04 0.0000e+00 -1.0000e+00
      -12  1    5    5    0    0 -1.8629385632e+01 +9.2227023914e+00 +3.4154294224e+01 3.9982847102e+01 0.0000000000e+00 0.0000e+00 1.0000e+00
       12  1    3    3    0    0 +1.7231899213e+01 -1.3763912426e+00 -7.2004113974e+00 1.8726417907e+01 0.0000000000e+00 0.0000e+00 -1.0000e+00
</event>
<event>
 8      4 +1.0086356e-04 9.11880000e+01 7.81616400e-03 1.18400000e-01
      -11 -1    0    0    0    0 +0.0000000000e+00 +0.0000000000e+00 +4.5593999997e+01 4.5594000000e+01 5.1100000000e-04 0.0000e+00 -1.0000e+00
       11 -1    0    0    0    0 -0.0000000000e+00 -0.0000000000e+00 -4.5593999997e+01 4.5594000000e+01 5.1100000000e-04 0.0000e+00 1.0000e+00
       23  2    1    2    0    0 +0.0000000000e+00 +2.2204460493e-16 +5.3290705182e-15 9.1188000000e+01 9.1188000000e+01 1.0987e-13 0.0000e+00
 -9990012  2    3    3    0    0 -1.2405854346e+01 -1.7901968809e+00 -1.3912954367e+01 7.2461539412e+01 6.9999959770e+01 2.2674e-04 0.0000e+00
      -11  1    4    4    0    0 -9.2690691451e+00 -9.4391600007e+00 -3.2213451546e+01 3.4824127342e+01 5.1100000000e-04 0.0000e+00 1.0000e+00
       11  1    4    4    0    0 +4.6140700090e+00 +1.8086988000e+01 +5.6629764491e+00 1.9506359975e+01 5.1100000000e-04 0.0000e+00 -1.0000e+00
      -12  1    4    4    0    0 -7.7508552100e+00 -1.0438024880e+01 +1.2637520730e+01 1.8131052095e+01 0.0000000000e+00 0.0000e+00 1.0000e+00
       12  1    3    3    0    0 +1.2405854346e+01 +1.7901968809e+00 +1.3912954367e+01 1.8726460588e+01 0.0000000000e+00 0.0000e+00 -1.0000e+00
</event>
<event>
 9      4 +1.0086356e-04 9.11880000e+01 7.81616400e-03 1.18400000e-01
      -11 -1    0    0    0    0 +0.0000000000e+00 +0.0000000000e+00 +4.5593999997e+01 4.5594000000e+01 5.1100000000e-04 0.0000e+00 -1.0000e+00
       11 -1    0    0    0    0 -0.0000000000e+00 -0.0000000000e+00 -4.5593999997e+01 4.5594000000e+01 5.1100000000e-04 0.0000e+00 1.0000e+00
       23  2    1    2    0    0 +3.5527136788e-15 -8.8817841970e-16 +8.8817841970e-16 9.1188000000e+01 9.1188000000e+01 1.7555e-13 0.0000e+00
 -9990012  2    3    3    0    0 -1.6784210210e+01 +4.7513163844e+00 -6.8112456748e+00 7.2461607197e+01 7.0000048073e+01 4.0672e-05 0.0000e+00
      -24  2    4    4    0    0 -2.1118561271e+01 +3.9960461538e+00 -1.0193538667e+01 6.6912108266e+01 6.2540866536e+01 3.7052e-14 0.0000e+00
      -11  1    4    4    0    0 +4.3343510605e+00 +7.5527023059e-01 +3.3822929919e+00 5.5494989306e+00 5.1100000000e-04 0.0000e+00 1.0000e+00
       11  1    5    5    0    0 -8.9019814826e-01 +5.3307609359e+00 +2.5390089359e+01 2.5958931080e+01 5.1100000000e-04 0.0000e+00 -1.0000e+00
      -12  1    5    5    0    0 -2.0228363122e+01 -1.3347147821e+00 -3.5583628026e+01 4.0953177186e+01 0.0000000000e+00 0.0000e+00 1.0000e+00
       12  1    3    3    0    0 +1.6784210210e+01 -4.7513163844e+00 +6.8112456748e+00 1.8726392803e+01 0.0000000000e+00 0.0000e+00 -1.0000e+00
</event>
<event>
 8      3 +1.0086356e-04 9.11880000e+01 7.81616400e-03 1.18400000e-01
      -11 -1    0    0    0    0 +0.0000000000e+00 +0.0000000000e+00 +4.5593999997e+01 4.5594000000e+01 5.1100000000e-04 0.0000e+00 1.0000e+00
       11 -1    0    0    0    0 -0.0000000000e+00 -0.0000000000e+00 -4.5593999997e+01 4.5594000000e+01 5.1100000000e-04 0.0000e+00 -1.0000e+00
       23  2    1    2    0    0 -1.7763568394e-15 +0.0000000000e+00 +3.5527136788e-15 9.1188000000e+01 9.1188000000e+01 1.5731e-13 0.0000e+00
  9990012  2    3    3    0    0 +1.5059707470e+01 -8.7617950511e+00 -6.8637684704e+00 7.2461677371e+01 7.0000139487e+01 4.3795e-06 0.0000e+00
      -11  1    4    4    0    0 +6.5973923260e+00 +1.2780893713e+01 +2.6307374034e+01 2.9982574246e+01 5.1100000000e-04 0.0000e+00 1.0000e+00
       11  1    4    4    0    0 -3.1222256769e+00 -8.6140261934e+00 -1.2119009466e+01 1.5192765750e+01 5.1100000000e-04 0.0000e+00 -1.0000e+00
       12  1    4    4    0    0 +1.1584540821e+01 -1.2928662571e+01 -2.1052133038e+01 2.7286337375e+01 0.0000000000e+00 0.0000e+00 -1.0000e+00
      -12  1    3    3    0    0 -1.5059707470e+01 +8.7617950511e+00 +6.8637684704e+00 1.8726322629e+01 0.0000000000e+00 0.0000e+00 1.0000e+00
</event>
<event>
 9      4 +1.0086356e-04 9.11880000e+01 7.81616400e-03 1.18400000e-01
      -11 -1    0    0    0    0 +0.0000000000e+00 +0.0000000000e+00 +4.5593999997e+01 4.5594000000e+01 5.1100000000e-04 0.0000e+00 1.0000e+00
       11 -1    0    0    0    0 -0.0000000000e+00 -0.0000000000e+00 -4.5593999997e+01 4.5594000000e+01 5.1100000000e-04 0.0000e+00 -1.0000e+00
       23  2    1    2    0    0 -5.3290705182e-15 -8.8817841970e-16 -1.7763568394e-15 9.1188000000e+01 9.1188000000e+01 9.4617e-14 0.0000e+00
 -9990012  2    3    3    0    0 +1.3775416373e+01 +2.9480531741e+00 +1.2337987347e+01 7.2461573604e+01 7.0000004312e+01 2.7932e-04 0.0000e+00
      -24  2    4    4    0    0 +1.4322111373e+01 -5.9984628849e+00 +1.3018298285e+01 6.3472588776e+01 6.0151384061e+01 1.8688e-15 0.0000e+00
      -11  1    4    4    0    0 -5.4669499973e-01 +8.9465160590e+00 -6.8031093739e-01 8.9889848286e+00 5.1100000000e-04 0.0000e+00 1.0000e+00
       11  1    5    5    0    0 +3.6982965767e+01 -8.5511544892e+00 +1.4467778981e+01 4.0622390734e+01 5.1100000000e-04 0.0000e+00 -1.0000e+00
      -12  1    5    5    0    0 -2.2660854394e+01 +2.5526916043e+00 -1.4494806970e+00 2.2850198042e+01 0.0000000000e+00 0.0000e+00 1.0000e+00
       12  1    3    3    0    0 -1.3775416373e+01 -2.9480531741e+00 -1.2337987347e+01 1.8726426396e+01 0.0000000000e+00 0.0000e+00 -1.0000e+00
</event>
<event>
 8      3 +1.0086356e-04 9.11880000e+01 7.81616400e-03 1.18400000e-01
      -11 -1    0    0    0    0 +0.0000000000e+00 +0.0000000000e+00 +4.5593999997e+01 4.5594000000e+01 5.1100000000e-04 0.0000e+00 -1.0000e+00
       11 -1    0    0    0    0 -0.0000000000e+00 -0.0000000000e+00 -4.5593999997e+01 4.5594000000e+01 5.1100000000e-04 0.0000e+00 1.0000e+00
       23  2    1    2    0    0 +0.0000000000e+00 +1.7763568394e-15 +0.0000000000e+00 9.1188000000e+01 9.1188000000e+01 3.5096e-14 0.0000e+00
  9990012  2    3    3    0    0 -8.5703156058e+00 -9.0933553495e+00 +1.3947770011e+01 7.2461555880e+01 6.9999981223e+01 6.7994e-05 0.0000e+00
      -11  1    4    4    0    0 +1.7639928648e+00 -1.9561964838e+01 -5.0115516084e+00 2.0270613926e+01 5.1100000000e-04 0.0000e+00 1.0000e+00
       11  1    4    4    0    0 -2.0653271599e+01 +4.0142833103e+00 -8.0804858147e+00 2.2538108827e+01 5.1100000000e-04 0.0000e+00 -1.0000e+00
       12  1    4    4    0    0 +1.0318963128e+01 +6.4543261783e+00 +2.7039807434e+01 2.9652833128e+01 0.0000000000e+00 0.0000e+00 -1.0000e+00
      -12  1    3    3    0    0 +8.5703156058e+00 +9.0933553495e+00 -1.3947770011e+01 1.8726444120e+01 0.0000000000e+00 0.0000e+00 1.0000e+00
</event>
<event>
 9      4 +1.0086356e-04 9.11880000e+01 7.81616400e-03 1.18400000e-01
      -11 -1    0    0    0    0 +0.0000000000e+00 +0.0000000000e+00 +4.5593999997e+01 4.5594000000e+01 5.1100000000e-04 0.0000e+00 -1.0000e+00
       11 -1    0    0    0    0 -0.0000000000e+00 -0.0000000000e+00 -4.5593999997e+01 4.5594000000e+01 5.1100000000e-04 0.0000e+00 1.0000e+00
       23  2    1    2    0    0 -2.2204460493e-15 +0.0000000000e+00 +3.5527136788e-15 9.1188000000e+01 9.1188000000e+01 1.1587e-14 0.0000e+00
 -9990012  2    3    3    0    0 +2.8421912661e+00 +1.1420520524e+01 -1.4566125756e+01 7.2461591915e+01 7.0000028165e+01 2.0551e-05 0.0000e+00
      -24  2    4    4    0    0 +2.1946682011e+00 +2.0130091265e+01 +2.3254551202e+00 5.3445771834e+01 4.9406534411e+01 3.9208e-14 0.0000e+00
      -11  1    4    4    0    0 +6.4752306497e-01 -8.7095707411e+00 -1.6891580876e+01 1.9015820081e+01 5.1100000000e-04 0.0000e+00 1.0000e+00
       11  1    5    5    0    0 +1.4964338665e+01 -7.8928051896e+00 -1.0690455392e+01 2.0012836935e+01 5.1100000000e-04 0.0000e+00 -1.0000e+00
      -12  1    5    5    0    0 -1.2769670464e+01 +2.8022896455e+01 +1.3015910512e+01 3.3432934899e+01 0.0000000000e+00 0.0000e+00 1.0000e+00
       12  1    3    3    0    0 -2.8421912661e+00 -1.1420520524e+01 +1.4566125756e+01 1.8726408085e+01 0.0000000000e+00 0.0000e+00 -1.0000e+00
</event>
<event>
 8      4 +1.0086356e-04 9.11880000e+01 7.81616400e-03 1.18400000e-01
      -11 -1    0    0    0    0 +0.0000000000e+00 +0.0000000000e+00 +4.5593999997e+01 4.5594000000e+01 5.1100000000e-04 0.0000e+00 1.0000e+00
       11 -1    0    0    0    0 -0.0000000000e+00 -0.0000000000e+00 -4.5593999997e+01 4.5594000000e+01 5.1100000000e-04 0.0000e+00 -1.0000e+00
       23  2    1    2    0    0 +0.0000000000e+00 -4.4408920985e-15 -1.7763568394e-15 9.1188000000e+01 9.1188000000e+01 4.8020e-14 0.0000e+00
 -9990012  2    3    3    0    0 +1.1460164995e+01 -3.8013619576e+00 +1.4314024230e+01 7.2461627578e+01 7.0000074622e+01 2.3816e-04 0.0000e+00
      -11  1    4    4    0    0 -1.7603536477e+00 +6.0239295443e+00 +4.4658175054e+00 7.7026033503e+00 5.1100000000e-04 0.0000e+00 1.0000e+00
       11  1    4    4    0    0 +3.0933807159e+00 +1.6141152745e+01 -1.8676653144e+01 2.4878166916e+01 5.1100000000e-04 0.0000e+00 -1.0000e+00
      -12  1    4    4    0    0 +1.0127137927e+01 -2.5966444247e+01 +2.8524859868e+01 3.9880857312e+01 0.0000000000e+00 0.0000e+00 1.0000e+00
       12  1    3    3    0    0 -1.1460164995e+01 +3.8013619576e+00 -1.4314024230e+01 1.8726372422e+01 0.0000000000e+00 0.0000e+00 -1.0000e+00
</event>
<event>
 9      3 +1.0086356e-04 9.11880000e+01 7.81616400e-03 1.18400000e-01
      -11 -1    0    0    0    0 +0.0000000000e+00 +0.0000000000e+00 +4.5593999997e+01 4.5594000000e+01 5.1100000000e-04 0.0000e+00 -1.0000e+00
       11 -1    0    0    0    0 -0.0000000000e+00 -0.0000000000e+00 -4.5593999997e+01 4.5594000000e+01 5.1100000000e-04 0.0000e+00 1.0000e+00
       23  2    1    2    0    0 -1.7763568394e-15 -4.8849813084e-15 +0.0000000000e+00 9.1188000000e+01 9.1188000000e+01 1.7226e-13 0.0000e+00
  9990012  2    3    3    0    0 -9.2134407277e+00 +5.6937607260e-01 +1.6293195247e+01 7.2461551043e+01 6.9999974922e+01 1.5508e-04 0.0000e+00
       24  2    4    4    0    0 -1.4885786754e+01 -1.2316867077e+01 +1.4362888656e+01 5.8250398530e+01 5.3042666755e+01 2.2520e-14 0.0000e+00
      -11  1    5    5    0    0 -2.1168055198e+01 +1.6514576145e+01 +8.5386746468e+00 2.8173156570e+01 5.1100000000e-04 0.0000e+00 1.0000e+00
       11  1    4    4    0    0 +5.6723460260e+00 +1.2886243150e+01 +1.9303065911e+00 1.4211152513e+01 5.1100000000e-04 0.0000e+00 -1.0000e+00
       12  1    5    5    0    0 +6.2822684440e+00 -2.8831443223e+01 +5.8242140096e+00 3.0077241960e+01 0.0000000000e+00 0.0000e+00 -1.0000e+00
      -12  1    3    3    0    0 +9.2134407277e+00 -5.6937607260e-01 -1.6293195247e+01 1.8726448957e+01 0.0000000000e+00 0.0000e+00 1.0000e+00
</event>
<event>
 9      4 +1.0086356e-04 9.11880000e+01 7.81616400e-03 1.18400000e-01
      -11 -1    0    0    0    0 +0.0000000000e+00 +0.0000000000e+00 +4.5593999997e+01 4.5594000000e+01 5.1100000000e-04 0.0000e+00 -1.0000e+00
       11 -1    0    0    0    0 -0.0000000000e+00 -0.0000000000e+00 -4.5593999997e+01 4.5594000000e+01 5.1100000000e-04 0.0000e+00 1.0000e+00
       23  2    1    2    0    0 +3.5527136788e-15 +3.1086244690e-15 -1.7763568394e-15 9.1188000000e+01 9.1188000000e+01 1.4190e-13 0.0000e+00
 -9990012  2    3    3    0    0 +1.5705128404e+01 -3.9012009545e+00 -9.4237004069e+00 7.2461640064e+01 7.0000090888e+01 9.2810e-05 0.0000e+00
      -24  2    4    4    0    0 +1.3692828028e+01 +1.6414953392e+00 -9.8288268656e+00 6.6551059491e+01 6.4360311027e+01 8.3252e-14 0.0000e+00
      -11  1    4    4    0    0 +2.0123003766e+00 -5.5426962937e+00 +4.0512645863e-01 5.9105805737e+00 5.1100000000e-04 0.0000e+00 1.0000e+00
       11  1    5    5    0    0 +2.6557942073e+01 +2.2010655881e+01 +9.3718969880e+00 3.5743890567e+01 5.1100000000e-04 0.0000e+00 -1.0000e+00
      -12  1    5    5    0    0 -1.2865114046e+01 -2.0369160541e+01 -1.9200723854e+01 3.0807168923e+01 0.0000000000e+00 0.0000e+00 1.0000e+00
       12  1    3    3    0    0 -1.5705128404e+01 +3.9012009545e+00 +9.4237004069e+00 1.8726359936e+01 0.0000000000e+00 0.0000e+00 -1.0000e+00
</event>
<event>
 8      4 +1.0086356e-04 9.11880000e+01 7.81616400e-03 1.18400000e-01
      -11 -1    0    0    0    0 +0.0000000000e+00 +0.0000000000e+00 +4.5593999997e+01 4.5594000000e+01 5.1100000000e-04 0.0000e+00 1.0000e+00
       11 -1    0    0    0    0 -0.0000000000e+00 -0.0000000000e+00 -4.5593999997e+01 4.5594000000e+01 5.1100000000e-04 0.0000e+00 -1.0000e+00
       23  2    1    2    0    0 +1.3877787808e-17 +1.7763568394e-15 +1.7763568394e-15 9.1188000000e+01 9.1188000000e+01 6.5687e-14 0.0000e+00
 -9990012  2    3    3    0    0 -1.0675721832e-01 -1.3738320185e+01 +1.2725010947e+01 7.2461581703e+01 7.0000014863e+01 2.1730e-04 0.0000e+00
      -11  1    4    4    0    0 -2.0157735445e+01 -7.6808082867e+00 +2.5152098883e+00 2.1717628675e+01 5.1100000000e-04 0.0000e+00 1.0000e+00
       11  1    4    4    0    0 +2.4561752621e+01 -2.2465635895e+00 -1.2237228714e+01 2.7533189184e+01 5.1100000000e-04 0.0000e+00 -1.0000e+00
      -12  1    4    4    0    0 -4.5107743938e+00 -3.8109483089e+00 +2.2447029773e+01 2.3210763845e+01 0.0000000000e+00 0.0000e+00 1.0000e+00
       12  1    3    3    0    0 +1.0675721832e-01 +1.3738320185e+01 -1.2725010947e+01 1.8726418297e+01 0.0000000000e+00 0.0000e+00 -1.0000e+00
</event>
<event>
 9      3 +1.0086356e-04 9.11880000e+01 7.81616400e-03 1.18400000e-01
      -11 -1    0    0    0    0 +0.0000000000e+00 +0.0000000000e+00 +4.5593999997e+01 4.5594000000e+01 5.1100000000e-04 0.0000e+00 1.0000e+00
       11 -1    0    0    0    0 -0.0000000000e+00 -0.0000000000e+00 -4.5593999997e+01 4.5594000000e+01 5.1100000000e-04 0.0000e+00 -1.0000e+00
       23  2    1    2    0    0 +4.4408920985e-16 +0.0000000000e+00 +1.1102230246e-15 9.1188000000e+01 9.1188000000e+01 1.9894e-14 0.0000e+00
  9990012  2    3    3    0    0 -3.2131666918e+00 -1.8340159394e+01 -1.9985411738e+00 7.2461546689e+01 6.9999969250e+01 4.4379e-04 0.0000e+00
       24  2    4    4    0    0 +5.4392979623e+00 -1.8165684321e+01 +5.9938720382e+00 6.0681298162e+01 5.7329882221e+01 1.0529e-13 0.0000e+00
      -11  1    5    5    0    0 +1.9894217277e+01 -3.4650283239e-02 -1.8347512731e+01 2.7063117067e+01 5.1100000000e-04 0.0000e+00 1.0000e+00
       11  1    4    4    0    0 -8.6524646541e+00 -1.7447507214e-01 -7.9924132120e+00 1.1780248527e+01 5.1100000000e-04 0.0000e+00 -1.0000e+00
       12  1    5    5    0    0 -1.4454919314e+01 -1.8131034038e+01 +2.4341384770e+01 3.3618181096e+01 0.0000000000e+00 0.0000e+00 -1.0000e+00
      -12  1    3    3    0    0 +3.2131666918e+00 +1.8340159394e+01 +1.9985411738e+00 1.8726453311e+01 0.0000000000e+00 0.0000e+00 1.0000e+00
</event>
<event>
 8      3 +1.0086356e-04 9.11880000e+01 7.81616400e-03 1.18400000e-01
      -11 -1    0    0    0    0 +0.0000000000e+00 +0.0000000000e+00 +4.5593999997e+01 4.5594000000e+01 5.1100000000e-04 0.0000e+00 1.0000e+00
       11 -1    0    0    0    0 -0.0000000000e+00 -0.0000000000e+00 -4.5593999997e+01 4.5594000000e+01 5.1100000000e-04 0.0000e+00 -1.0000e+00
       23  2    1    2    0    0 -1.7763568394e-15 +0.0000000000e+00 -4.4408920985e-16 9.1188000000e+01 9.1188000000e+01 1.2632e-13 0.0000e+00
  9990012  2    3    3    0    0 +1.0362935194e+01 -1.5583699597e+01 -6.8255377958e-01 7.2460800567e+01 6.9998997280e+01 4.5324e-04 0.0000e+00
      -11  1    4    4    0    0 +2.0438445137e+01 -1.4935661877e+01 +1.0052940920e+01 2.7237210883e+01 5.1100000000e-04 0.0000e+00 1.0000e+00
       11  1    4    4    0    0 -3.1832642813e+00 +1.9941606277e+01 -1.1971419918e+01 2.3475854138e+01 5.1100000000e-04 0.0000e+00 -1.0000e+00
       12  1    4    4    0    0 -6.8922456615e+00 -2.0589643997e+01 +1.2359252193e+00 2.1747735545e+01 0.0000000000e+00 0.0000e+00 -1.0000e+00
      -12  1    3    3    0    0 -1.0362935194e+01 +1.5583699597e+01 +6.8255377958e-01 1.8727199433e+01 0.0000000000e+00 0.0000e+00 1.0000e+00
</event>
<event>
 8      3 +1.0086356e-04 9.11880000e+01 7.81616400e-03 1.18400000e-01
      -11 -1    0    0    0    0 +0.0000000000e+00 +0.0000000000e+00 +4.5593999997e+01 4.5594000000e+01 5.1100000000e-04 0.0000e+00 1.0000e+00
       11 -1    0    0    0    0 -0.0000000000e+00 -0.0000000000e+00 -4.5593999997e+01 4.5594000000e+01 5.1100000000e-04 0.0000e+00 -1.0000e+00
       23  2    1    2    0    0 +8.8817841970e-16 +1.7763568394e-15 +0.0000000000e+00 9.1188000000e+01 9.1188000000e+01 1.0889e-13 0.0000e+00
  9990012  2    3    3    0    0 -6.7115231380e+00 +1.4842981957e+01 -9.2367584859e+00 7.2461645215e+01 7.0000097598e+01 1.4196e-04 0.0000e+00
      -11  1    4    4    0    0 -9.6852430088e+00 +2.0772432554e+01 +1.5331393545e+01 2.7574435890e+01 5.1100000000e-04 0.0000e+00 1.0000e+00
       11  1    4    4    0    0 -1.5998694794e+01 -8.5575828471e+00 -9.2728814606e+00 2.0375887469e+01 5.1100000000e-04 0.0000e+00 -1.0000e+00
       12  1    4    4    0    0 +1.8972414665e+01 +2.6281322504e+00 -1.5295270570e+01 2.4511321856e+01 0.0000000000e+00 0.0000e+00 -1.0000e+00
      -12  1    3    3    0    0 +6.7115231380e+00 -1.4842981957e+01 +9.2367584859e+00 1.8726354785e+01 0.0000000000e+00 0.0000e+00 1.0000e+00
</event>
<event>
 8      4 +1.0086356e-04 9.11880000e+01 7.81616400e-03 1.18400000e-01
      -11 -1    0    0    0    0 +0.0000000000e+00 +0.0000000000e+00 +4.5593999997e+01 4.5594000000e+01 5.1100000000e-04 0.0000e+00 1.0000e+00
       11 -1    0    0    0    0 -0.0000000000e+00 -0.0000000000e+00 -4.5593999997e+01 4.5594000000e+01 5.1100000000e-04 0.0000e+00 -1.0000e+00
       23  2    1    2    0    0 +3.5527136788e-15 -8.8817841970e-16 -8.8817841970e-16 9.1188000000e+01 9.1188000000e+01 9.0476e-14 0.0000e+00
 -9990012  2    3    3    0    0 -1.7427428878e+01 +5.8656646507e+00 +3.5447153180e+00 7.2461379755e+01 6.9999751787e+01 6.1253e-05 0.0000e+00
      -11  1    4    4    0    0 -2.5555705277e+01 -3.9421564600e+00 +2.5820182722e+01 3.6541982784e+01 5.1100000000e-04 0.0000e+00 1.0000e+00
       11  1    4    4    0    0 +1.3882939062e+01 +9.6188824575e+00 -4.8572144734e+00 1.7574169381e+01 5.1100000000e-04 0.0000e+00 -1.0000e+00
      -12  1    4    4    0    0 -5.7546626635e+00 +1.8893865321e-01 -1.7418252930e+01 1.8345227590e+01 0.0000000000e+00 0.0000e+00 1.0000e+00
       12  1    3    3    0    0 +1.7427428878e+01 -5.8656646507e+00 -3.5447153180e+00 1.8726620245e+01 0.0000000000e+00 0.0000e+00 -1.0000e+00
</event>
<event>
 9      4 +1.0086356e-04 9.11880000e+01 7.81616400e-03 1.18400000e-01
      -11 -1    0    0    0    0 +0.0000000000e+00 +0.0000000000e+00 +4.5593999997e+01 4.5594000000e+01 5.1100000000e-04 0.0000e+00 -1.0000e+00
       11 -1    0    0    0    0 -0.0000000000e+00 -0.0000000000e+00 -4.5593999997e+01 4.5594000000e+01 5.1100000000e-04 0.0000e+00 1.0000e+00
       23  2    1    2    0    0 +3.5527136788e-15 +5.3290705182e-15 +3.5527136788e-15 9.1188000000e+01 9.1188000000e+01 4.5887e-15 0.0000e+00
 -9990012  2    3    3    0    0 -9.7958725340e+00 -8.2673529543e+00 -1.3651713538e+01 7.2461614174e+01 7.0000057161e+01 2.5783e-04 0.0000e+00
      -24  2    4    4    0    0 -2.0385632752e+01 -1.3876542286e+01 -5.6678228679e+00 5.8062012202e+01 5.2258402161e+01 1.1043e-13 0.0000e+00
      -11  1    4    4    0    0 +1.0589760218e+01 +5.6091893318e+00 -7.9838906704e+00 1.4399601972e+01 5.1100000000e-04 0.0000e+00 1.0000e+00
       11  1    5    5    0    0 -1.9754680166e+00 +1.8887383813e+01 +3.6595634068e+00 1.9339807284e+01 5.1100000000e-04 0.0000e+00 -1.0000e+00
      -12  1    5    5    0    0 -1.8410164736e+01 -3.2763926099e+01 -9.3273862747e+00 3.8722204919e+01 0.0000000000e+00 0.0000e+00 1.0000e+00
       12  1    3    3    0    0 +9.7958725340e+00 +8.2673529543e+00 +1.3651713538e+01 1.8726385826e+01 0.0000000000e+00 0.0000e+00 -1.0000e+00
</event>
<event>
 9      4 +1.0086356e-04 9.11880000e+01 7.81616400e-03 1.18400000e-01
      -11 -1    0    0    0    0 +0.0000000000e+00 +0.0000000000e+00 +4.5593999997e+01 4.5594000000e+01 5.1100000000e-04 0.0000e+00 1.0000e+00
       11 -1    0    0    0    0 -0.0000000000e+00 -0.0000000000e+00 -4.5593999997e+01 4.5594000000e+01 5.1100000000e-04 0.0000e+00 -1.0000e+00
       23  2    1    2    0    0 +0.0000000000e+00 +0.0000000000e+00 +1.7763568394e-15 9.1188000000e+01 9.1188000000e+01 5.0159e-14 0.0000e+00
 -9990012  2    3    3    0    0 -9.9823853119e+00 +1.2582141863e+01 -9.6291630150e+00 7.2461572398e+01 7.0000002740e+01 1.5576e-04 0.0000e+00
      -24  2    4    4    0    0 -1.2547230344e+01 -1.4562944036e+00 +6.0322713666e+00 5.1273447186e+01 4.9325696202e+01 8.0272e-14 0.0000e+00
      -11  1    4    4    0    0 +2.5648450323e+00 +1.4038436266e+01 -1.5661434382e+01 2.1188125212e+01 5.1100000000e-04 0.0000e+00 1.0000e+00
       11  1    5    5    0    0 -7.0545730784e+00 -3.9169670775e+00 -2.1566212553e+01 2.3026314437e+01 5.1100000000e-04 0.0000e+00 -1.0000e+00
      -12  1    5    5    0    0 -5.4926572658e+00 +2.4606726739e+00 +2.7598483920e+01 2.8247132749e+01 0.0000000000e+00 0.0000e+00 1.0000e+00
       12  1    3    3    0    0 +9.9823853119e+00 -1.2582141863e+01 +9.6291630150e+00 1.8726427602e+01 0.0000000000e+00 0.0000e+00 -1.0000e+00
</event>
<event>
 8      4 +1.0086356e-04 9.11880000e+01 7.81616400e-03 1.18400000e-01
      -11 -1    0    0    0    0 +0.0000000000e+00 +0.0000000000e+00 +4.5593999997e+01 4.5594000000e+01 5.1100000000e-04 0.0000e+00 -1.0000e+00
       11 -1    0    0    0    0 -0.0000000000e+00 -0.0000000000e+00 -4.5593999997e+01 4.5594000000e+01 5.1100000000e-04 0.0000e+00 1.0000e+00
       23  2    1    2    0    0 +3.5527136788e-15 -8.8817841970e-16 +8.8817841970e-16 9.1188000000e+01 9.1188000000e+01 3.7065e-14 0.0000e+00
 -9990012  2    3    3    0    0 -1.7233425557e+01 +7.0429313310e+00 -2.0191773061e+00 7.2461790689e+01 7.0000287105e+01 1.8582e-04 0.0000e+00
      -11  1    4    4    0    0 +6.6976825280e+00 -2.1008864342e+01 +5.1906525850e+00 2.2653348687e+01 5.1100000000e-04 0.0000e+00 1.0000e+00
       11  1    4    4    0    0 +4.6464314192e+00 -1.2683838168e+00 +5.1392171401e+00 7.0434136265e+00 5.1100000000e-04 0.0000e+00 -1.0000e+00
      -12  1    4    4    0    0 -2.8577539504e+01 +2.9320179490e+01 -1.2349047031e+01 4.2765028376e+01 0.0000000000e+00 0.0000e+00 1.0000e+00
       12  1    3    3    0    0 +1.7233425557e+01 -7.0429313310e+00 +2.0191773061e+00 1.8726209311e+01 0.0000000000e+00 0.0000e+00 -1.0000e+00
</event>
<event>
 9      3 +1.0086356e-04 9.11880000e+01 7.81616400e-03 1.18400000e-01
      -11 -1    0    0    0    0 +0.0000000000e+00 +0.0000000000e+00 +4.5593999997e+01 4.5594000000e+01 5.1100000000e-04 0.0000e+00 1.0000e+00
       11 -1    0    0    0    0 -0.0000000000e+00 -0.0000000000e+00 -4.5593999997e+01 4.5594000000e+01 5.1100000000e-04 0.0000e+00 -1.0000e+00
       23  2    1    2    0    0 +1.7763568394e-15 +3.6082248300e-16 +0.0000000000e+00 9.1188000000e+01 9.1188000000e+01 9.8196e-15 0.0000e+00
  9990012  2    3    3    0    0 -1.2392895616e+01 +1.6193570163e-01 +1.4038203037e+01 7.2461515294e+01 6.9999928352e+01 4.4238e-04 0.0000e+00
       24  2    4    4    0    0 -2.3312748713e+01 -2.5725020042e+00 +1.3117202639e+01 6.1166888996e+01 5.4947477515e+01 1.2793e-13 0.0000e+00
      -11  1    5    5    0    0 +1.3041381583e+00 -2.4884884957e+01 +1.2635348827e+01 2.7939404358e+01 5.1100000000e-04 0.0000e+00 1.0000e+00
       11  1    4    4    0    0 +1.0919853097e+01 +2.7344377058e+00 +9.2100039835e-01 1.1294626298e+01 5.1100000000e-04 0.0000e+00 -1.0000e+00
       12  1    5    5    0    0 -2.4616886871e+01 +2.2312382953e+01 +4.8185381215e-01 3.3227484638e+01 0.0000000000e+00 0.0000e+00 -1.0000e+00
      -12  1    3    3    0    0 +1.2392895616e+01 -1.6193570163e-01 -1.4038203037e+01 1.8726484706e+01 0.0000000000e+00 0.0000e+00 1.0000e+00
</event>
<event>
 8      3 +1.0086356e-04 9.11880000e+01 7.81616400e-03 1.18400000e-01
      -11 -1    0    0    0    0 +0.0000000000e+00 +0.0000000000e+00 +4.5593999997e+01 4.5594000000e+01 5.1100000000e-04 0.0000e+00 1.0000e+00
       11 -1    0    0    0    0 -0.0000000000e+00 -0.0000000000e+00 -4.5593999997e+01 4.5594000000e+01 5.1100000000e-04 0.0000e+00 -1.0000e+00
       23  2    1    2    0    0 +0.0000000000e+00 +1.3322676296e-15 +3.5527136788e-15 9.1188000000e+01 9.1188000000e+01 4.1656e-14 0.0000e+00
  9990012  2    3    3    0    0 -3.6705024002e+00 -1.5647525628e+00 -1.8296374416e+01 7.2461592036e+01 7.0000028323e+01 9.7457e-05 0.0000e+00
      -11  1    4    4    0    0 +1.6209407804e+00 -8.2372708378e+00 +8.3663452064e-01 8.4368262665e+00 5.1100000000e-04 0.0000e+00 1.0000e+00
       11  1    4    4    0    0 -1.7343337906e+00 -1.5221227038e+01 -3.4020690927e+01 3.7310870770e+01 5.1100000000e-04 0.0000e+00 -1.0000e+00
       12  1    4    4    0    0 -3.5571093900e+00 +2.1893745313e+01 +1.4887681990e+01 2.6713895000e+01 0.0000000000e+00 0.0000e+00 -1.0000e+00
      -12  1    3    3    0    0 +3.6705024002e+00 +1.5647525628e+00 +1.8296374416e+01 1.8726407964e+01 0.0000000000e+00 0.0000e+00 1.0000e+00
</event>
<event>
 8      4 +1.0086356e-04 9.11880000e+01 7.81616400e-03 1.18400000e-01
      -11 -1    0    0    0    0 +0.0000000000e+00 +0.0000000000e+00 +4.5593999997e+01 4.5594000000e+01 5.1100000000e-04 0.0000e+00 1.0000e+00
       11 -1    0    0    0    0 -0.0000000000e+00 -0.0000000000e+00 -4.5593999997e+01 4.5594000000e+01 5.1100000000e-04 0.0000e+00 -1.0000e+00
       23  2    1    2    0    0 +0.0000000000e+00 -1.7763568394e-15 +1.7763568394e-15 9.1188000000e+01 9.1188000000e+01 2.7438e-14 0.0000e+00
 -9990012  2    3    3    0    0 -1.0683110051e+01 +8.3190883671e+00 +1.2936088245e+01 7.2461589487e+01 7.0000025002e+01 3.9740e-04 0.0000e+00
      -11  1    4    4    0    0 -1.8611624818e+01 +2.7038105377e+01 +6.9284925968e+00 3.3547812606e+01 5.1100000000e-04 0.0000e+00 1.0000e+00
       11  1    4    4    0    0 -1.7934390126e+00 -1.4573295822e+01 -1.1372561789e+01 1.8572359476e+01 5.1100000000e-04 0.0000e+00 -1.0000e+00
      -12  1    4    4    0    0 +9.7219537803e+00 -4.1457211879e+00 +1.7380157438e+01 2.0341417405e+01 0.0000000000e+00 0.0000e+00 1.0000e+00
       12  1    3    3    0    0 +1.0683110051e+01 -8.3190883671e+00 -1.2936088245e+01 1.8726410513e+01 0.0000000000e+00 0.0000e+00 -1.0000e+00
</event>
<event>
 9      4 +1.0086356e-04 9.11880000e+01 7.81616400e-03 1.18400000e-01
      -11 -1    0    0    0    0 +0.0000000000e+00 +0.0000000000e+00 +4.5593999997e+01 4.5594000000e+01 5.1100000000e-04 0.0000e+00 1.0000e+00
       11 -1    0    0    0    0 -0.0000000000e+00 -0.0000000000e+00 -4.5593999997e+01 4.5594000000e+01 5.1100000000e-04 0.0000e+00 -1.0000e+00
       23  2    1    2    0    0 -8.8817841970e-16 +0.0000000000e+00 -3.5527136788e-15 9.1188000000e+01 9.1188000000e+01 3.5321e-14 0.0000e+00
 -9990012  2    3    3    0    0 +4.7865705252e+00 -7.6308780611e+00 +1.6417639698e+01 7.2461536089e+01 6.9999955441e+01 9.8020e-05 0.0000e+00
      -24  2    4    4    0    0 +1.7609729855e+01 -3.6661175287e+00 +1.5958658119e+01 5.9031591724e+01 5.3912030654e+01 1.1728e-13 0.0000e+00
      -11  1    4    4    0    0 -1.2823159330e+01 -3.9647605325e+00 +4.5898157817e-01 1.3429944365e+01 5.1100000000e-04 0.0000e+00 1.0000e+00
       11  1    5    5    0    0 -7.4479938109e+00 +9.6721287730e+00 -1.3445855328e+01 1.8160774008e+01 5.1100000000e-04 0.0000e+00 -1.0000e+00
      -12  1    5    5    0    0 +2.5057723666e+01 -1.3338246302e+01 +2.9404513447e+01 4.0870817716e+01 0.0000000000e+00 0.0000e+00 1.0000e+00
       12  1    3    3    0    0 -4.7865705252e+00 +7.6308780611e+00 -1.6417639698e+01 1.8726463911e+01 0.0000000000e+00 0.0000e+00 -1.0000e+00
</event>
<event>
 9      3 +1.0086356e-04 9.11880000e+01 7.81616400e-03 1.18400000e-01
      -11 -1    0    0    0    0 +0.0000000000e+00 +0.0000000000e+00 +4.5593999997e+01 4.5594000000e+01 5.1100000000e-04 0.0000e+00 -1.0000e+00
       11 -1    0    0    0    0 -0.0000000000e+00 -0.0000000000e+00 -4.5593999997e+01 4.5594000000e+01 5.1100000000e-04 0.0000e+00 1.0000e+00
       23  2    1    2    0    0 -1.6653345369e-15 +7.1054273576e-15 -1.7763568394e-15 9.1188000000e+01 9.1188000000e+01 1.0143e-13 0.0000e+00
  9990012  2    3    3    0    0 -2.5793490575e-01 -1.7338047362e+01 +7.0713904047e+00 7.2461575382e+01 7.0000006627e+01 1.4649e-04 0.0000e+00
       24  2    4    4    0    0 +7.3597461637e+00 -2.8575279492e+01 +4.4751255769e+00 5.8639670949e+01 5.0476447958e+01 3.7017e-14 0.0000e+00
      -11  1    5    5    0    0 +2.1059646097e+01 +4.5265343627e+00 +7.1982319817e+00 2.2711511420e+01 5.1100000000e-04 0.0000e+00 1.0000e+00
       11  1    4    4    0    0 -7.6176810695e+00 +1.1237232130e+01 +2.5962648278e+00 1.3821904433e+01 5.1100000000e-04 0.0000e+00 -1.0000e+00
       12  1    5    5    0    0 -1.3699899933e+01 -3.3101813855e+01 -2.7231064048e+00 3.5928159529e+01 0.0000000000e+00 0.0000e+00 -1.0000e+00
      -12  1    3    3    0    0 +2.5793490575e-01 +1.7338047362e+01 -7.0713904047e+00 1.8726424618e+01 0.0000000000e+00 0.0000e+00 1.0000e+00
</event>
<event>
 8      3 +1.0086356e-04 9.11880000e+01 7.81616400e-03 1.18400000e-01
      -11 -1    0    0    0    0 +0.0000000000e+00 +0.0000000000e+00 +4.5593999997e+01 4.5594000000e+01 5.1100000000e-04 0.0000e+00 -1.0000e+00
       11 -1    0    0    0    0 -0.0000000000e+00 -0.0000000000e+00 -4.5593999997e+01 4.5594000000e+01 5.1100000000e-04 0.0000e+00 1.0000e+00
       23  2    1    2    0    0 +0.0000000000e+00 +0.0000000000e+00 +0.0000000000e+00 9.1188000000e+01 9.1188000000e+01 1.7849e-14 0.0000e+00
  9990012  2    3    3    0    0 +8.6482369924e+00 -1.1900273235e+01 +1.1587552004e+01 7.2461551655e+01 6.9999975719e+01 2.5652e-05 0.0000e+00
      -11  1    4    4    0    0 -2.9088462309e+00 -1.6690433815e+01 -1.7395136235e+01 2.4282148426e+01 5.1100000000e-04 0.0000e+00 1.0000e+00
       11  1    4    4    0    0 +1.1660722045e+01 +1.1753437510e+01 -1.7674778139e+00 1.6650516809e+01 5.1100000000e-04 0.0000e+00 -1.0000e+00
       12  1    4    4    0    0 -1.0363882185e-01 -6.9632769306e+00 +3.0750166053e+01 3.1528886420e+01 0.0000000000e+00 0.0000e+00 -1.0000e+00
      -12  1    3    3    0    0 -8.6482369924e+00 +1.1900273235e+01 -1.1587552004e+01 1.8726448345e+01 0.0000000000e+00 0.0000e+00 1.0000e+00
</event>
<event>
 9      4 +1.0086356e-04 9.11880000e+01 7.81616400e-03 1.18400000e-01
      -11 -1    0    0    0    0 +0.0000000000e+00 +0.0000000000e+00 +4.5593999997e+01 4.5594000000e+01 5.1100000000e-04 0.0000e+00 -1.0000e+00
       11 -1    0    0    0    0 -0.0000000000e+00 -0.0000000000e+00 -4.5593999997e+01 4.5594000000e+01 5.1100000000e-04 0.0000e+00 1.0000e+00
       23  2    1    2    0    0 +1.7763568394e-15 +0.0000000000e+00 +1.7763568394e-15 9.1188000000e+01 9.1188000000e+01 2.6277e-14 0.0000e+00
 -9990012  2    3    3    0    0 +1.1263149589e+01 -7.9453937914e-01 +1.4939516665e+01 7.2461575096e+01 7.0000006255e+01 2.8955e-04 0.0000e+00
      -24  2    4    4    0    0 +7.8940251516e+00 +8.1388876687e-01 +1.5820508173e+01 6.8625667527e+01 6.6303964562e+01 5.3463e-14 0.0000e+00
      -11  1    4    4    0    0 +3.3691244377e+00 -1.6084281460e+00 -8.8099150756e-01 3.8359075687e+00 5.1100000000e-04 0.0000e+00 1.0000e+00
       11  1    5    5    0    0 +2.8074558802e+01 -1.7185975602e+01 +2.3581598170e+01 4.0492349670e+01 5.1100000000e-04 0.0000e+00 -1.0000e+00
      -12  1    5    5    0    0 -2.0180533650e+01 +1.7999864369e+01 -7.7610899969e+00 2.8133317857e+01 0.0000000000e+00 0.0000e+00 1.0000e+00
       12  1    3    3    0    0 -1.1263149589e+01 +7.9453937914e-01 -1.4939516665e+01 1.8726424904e+01 0.0000000000e+00 0.0000e+00 -1.0000e+00
</event>
<event>
 9      4 +1.0086356e-04 9.11880000e+01 7.81616400e-03 1.18400000e-01
      -11 -1    0    0    0    0 +0.0000000000e+00 +0.0000000000e+00 +4.5593999997e+01 4.5594000000e+01 5.1100000000e-04 0.0000e+00 -1.0000e+00
       11 -1    0    0    0    0 -0.0000000000e+00 -0.0000000000e+00 -4.5593999997e+01 4.5594000000e+01 5.1100000000e-04 0.0000e+00 1.0000e+00
       23  2    1    2    0    0 -1.7763568394e-15 +2.6645352591e-15 -3.5527136788e-15 9.1188000000e+01 9.1188000000e+01 4.5671e-15 0.0000e+00
 -9990012  2    3    3    0    0 -5.1122311445e+00 -6.1741540820e+00 -1.6924048894e+01 7.2461587721e+01 7.0000022701e+01 5.5740e-04 0.0000e+00
      -24  2    4    4    0    0 -1.4007846514e+01 -5.1105770469e+00 -2.0235050745e+01 6.2910362541e+01 5.7670778343e+01 2.6340e-13 0.0000e+00
      -11  1    4    4    0    0 +8.8956153693e+00 -1.0635770352e+00 +3.3110018511e+00 9.5512251794e+00 5.1100000000e-04 0.0000e+00 1.0000e+00
       11  1    5    5    0    0 -1.8034376307e+01 -2.9176074881e+01 -6.5006849955e+00 3.4910470921e+01 5.1100000000e-04 0.0000e+00 -1.0000e+00
      -12  1    5    5    0    0 +4.0265297933e+00 +2.4065497835e+01 -1.3734365749e+01 2.7999891620e+01 0.0000000000e+00 0.0000e+00 1.0000e+00
       12  1    3    3    0    0 +5.1122311445e+00 +6.1741540820e+00 +1.6924048894e+01 1.8726412279e+01 0.0000000000e+00 0.0000e+00 -1.0000e+00
</event>
<event>
 8      3 +1.0086356e-04 9.11880000e+01 7.81616400e-03 1.18400000e-01
      -11 -1    0    0    0    0 +0.0000000000e+00 +0.0000000000e+00 +4.5593999997e+01 4.5594000000e+01 5.1100000000e-04 0.0000e+00 -1.0000e+00
       11 -1    0    0    0    0 -0.0000000000e+00 -0.0000000000e+00 -4.5593999997e+01 4.5594000000e+01 5.1100000000e-04 0.0000e+00 1.0000e+00
       23  2    1    2    0    0 -1.7763568394e-15 -1.7763568394e-15 +6.2172489379e-15 9.1188000000e+01 9.1188000000e+01 9.3526e-14 0.0000e+00
  9990012  2    3    3    0    0 +1.1710893281e+01 +1.3407459361e+01 -5.8115137235e+00 7.2461583372e+01 7.0000017036e+01 8.9370e-05 0.0000e+00
      -11  1    4    4    0    0 -8.5915706942e+00 +2.3230259795e+01 -2.3717456134e+01 3.4292532465e+01 5.1100000000e-04 0.0000e+00 1.0000e+00
       11  1    4    4    0    0 +3.2224204563e+00 -1.1482247941e+01 +1.7281718945e+01 2.0997233659e+01 5.1100000000e-04 0.0000e+00 -1.0000e+00
       12  1    4    4    0    0 +1.7080043519e+01 +1.6594475075e+00 +6.2422346559e-01 1.7171817247e+01 0.0000000000e+00 0.0000e+00 -1.0000e+00
      -12  1    3    3    0    0 -1.1710893281e+01 -1.3407459361e+01 +5.8115137235e+00 1.8726416628e+01 0.0000000000e+00 0.0000e+00 1.0000e+00
</event>
<event>
 9      3 +1.0086356e-04 9.11880000e+01 7.81616400e-03 1.18400000e-01
      -11 -1    0    0    0    0 +0.0000000000e+00 +0.0000000000e+00 +4.5593999997e+01 4.5594000000e+01 5.1100000000e-04 0.0000e+00 1.0000e+00
       11 -1    0    0    0    0 -0.0000000000e+00 -0.0000000000e+00 -4.5593999997e+01 4.5594000000e+01 5.1100000000e-04 0.0000e+00 -1.0000e+00
       23  2    1    2    0    0 -1.7763568394e-15 +1.7763568394e-15 +0.0000000000e+00 9.1188000000e+01 9.1188000000e+01 2.5870e-14 0.0000e+00
  9990012  2    3    3    0    0 +8.4523485967e-01 -1.2935538116e+01 -1.3514323534e+01 7.2461561233e+01 6.9999988196e+01 2.3743e-04 0.0000e+00
       24  2    4    4    0    0 -7.7427480732e+00 -1.2107940097e+01 -1.1242315626e+01 6.3539656194e+01 6.0863337794e+01 8.7594e-14 0.0000e+00
      -11  1    5    5    0    0 +6.1727124043e+00 +1.4438881834e+01 +1.6443293670e+01 2.2736877403e+01 5.1100000000e-04 0.0000e+00 1.0000e+00
       11  1    4    4    0    0 +8.5879829329e+00 -8.2759801907e-01 -2.2720079076e+00 8.9219050393e+00 5.1100000000e-04 0.0000e+00 -1.0000e+00
       12  1    5    5    0    0 -1.3915460478e+01 -2.6546821931e+01 -2.7685609297e+01 4.0802778791e+01 0.0000000000e+00 0.0000e+00 -1.0000e+00
      -12  1    3    3    0    0 -8.4523485967e-01 +1.2935538116e+01 +1.3514323534e+01 1.8726438767e+01 0.0000000000e+00 0.0000e+00 1.0000e+00
</event>
<event>
 9      4 +1.0086356e-04 9.11880000e+01 7.81616400e-03 1.18400000e-01
      -11 -1    0    0    0    0 +0.0000000000e+00 +0.0000000000e+00 +4.5593999997e+01 4.5594000000e+01 5.1100000000e-04 0.0000e+00 -1.0000e+00
       11 -1    0    0    0    0 -0.0000000000e+00 -0.0000000000e+00 -4.5593999997e+01 4.5594000000e+01 5.1100000000e-04 0.0000e+00 1.0000e+00
       23  2    1    2    0    0 +3.5527136788e-15 +1.7763568394e-15 +6.6613381478e-16 9.1188000000e+01 9.1188000000e+01 2.2368e-14 0.0000e+00
 -9990012  2    3    3    0    0 +1.6001220198e+01 +9.5394542335e+00 +1.9078707678e+00 7.2461542626e+01 6.9999963957e+01 4.0219e-04 0.0000e+00
      -24  2    4    4    0    0 +1.4966365583e+01 -7.2784319475e+00 +1.0067032936e+01 5.3740320785e+01 5.0096998469e+01 8.2383e-14 0.0000e+00
      -11  1    4    4    0    0 +1.0348546156e+00 +1.6817886181e+01 -8.1591621679e+00 1.8721221841e+01 5.1100000000e-04 0.0000e+00 1.0000e+00
       11  1    5    5    0    0 +3.0906456961e+01 +6.1640509639e+00 +9.3642035017e+00 3.2876935892e+01 5.1100000000e-04 0.0000e+00 -1.0000e+00
      -12  1    5    5    0    0 -1.5940091379e+01 -1.3442482911e+01 +7.0282943401e-01 2.0863384893e+01 0.0000000000e+00 0.0000e+00 1.0000e+00
       12  1    3    3    0    0 -1.6001220198e+01 -9.5394542335e+00 -1.9078707678e+00 1.8726457374e+01 0.0000000000e+00 0.0000e+00 -1.0000e+00
</event>
<event>
 9      4 +1.0086356e-04 9.11880000e+01 7.81616400e-03 1.18400000e-01
      -11 -1    0    0    0    0 +0.0000000000e+00 +0.0000000000e+00 +4.5593999997e+01 4.5594000000e+01 5.1100000000e-04 0.0000e+00 1.0000e+00
       11 -1    0    0    0    0 -0.0000000000e+00 -0.0000000000e+00 -4.5593999997e+01 4.5594000000e+01 5.1100000000e-04 0.0000e+00 -1.0000e+00
       23  2    1    2    0    0 -1.7763568394e-15 +0.0000000000e+00 +3.5527136788e-15 9.1188000000e+01 9.1188000000e+01 7.6132e-14 0.0000e+00
 -9990012  2    3    3    0    0 -5.7643904720e+00 -3.7249101188e+00 +1.7423432306e+01 7.2461570916e+01 7.0000000810e+01 6.1400e-05 0.0000e+00
      -24  2    4    4    0    0 -1.4449973152e+01 -4.0152748570e+00 +1.6944408108e+01 6.3757943936e+01 5.9607367770e+01 8.2416e-14 0.0000e+00
      -11  1    4    4    0    0 +8.6855826798e+00 +2.9036473819e-01 +4.7902419877e-01 8.7036269803e+00 5.1100000000e-04 0.0000e+00 1.0000e+00
       11  1    5    5    0    0 -5.3921906455e+00 +1.4386220029e+01 -1.7737034225e+01 2.3465750148e+01 5.1100000000e-04 0.0000e+00 -1.0000e+00
      -12  1    5    5    0    0 -9.0577825062e+00 -1.8401494886e+01 +3.4681442332e+01 4.0292193787e+01 0.0000000000e+00 0.0000e+00 1.0000e+00
       12  1    3    3    0    0 +5.7643904720e+00 +3.7249101188e+00 -1.7423432306e+01 1.8726429084e+01 0.0000000000e+00 0.0000e+00 -1.0000e+00
</event>
<event>
 9      4 +1.0086356e-04 9.11880000e+01 7.81616400e-03 1.18400000e-01
      -11 -1    0    0    0    0 +0.0000000000e+00 +0.0000000000e+00 +4.5593999997e+01 4.5594000000e+01 5.1100000000e-04 0.0000e+00 -1.0000e+00
       11 -1    0    0    0    0 -0.0000000000e+00 -0.0000000000e+00 -4.5593999997e+01 4.5594000000e+01 5.1100000000e-04 0.0000e+00 1.0000e+00
       23  2    1    2    0    0 +0.0000000000e+00 +1.7763568394e-15 -1.7763568394e-15 9.1188000000e+01 9.1188000000e+01 6.1777e-14 0.0000e+00
 -9990012  2    3    3    0    0 +1.0149410245e+01 -1.5603771607e+01 -2.0474337323e+00 7.2461542738e+01 6.9999964103e+01 7.5149e-05 0.0000e+00
      -24  2    4    4    0    0 -1.7067159435e-01 -1.1173472822e+01 +7.0159499594e+00 5.8029752804e+01 5.6509760511e+01 3.7013e-14 0.0000e+00
      -11  1    4    4    0    0 +1.0320081840e+01 -4.4302987849e+00 -9.0633836917e+00 1.4431789934e+01 5.1100000000e-04 0.0000e+00 1.0000e+00
       11  1    5    5    0    0 +3.2467895312e+00 -2.6075191516e+01 -1.5728674624e+01 3.0624311593e+01 5.1100000000e-04 0.0000e+00 -1.0000e+00
      -12  1    5    5    0    0 -3.4174611256e+00 +1.4901718694e+01 +2.2744624583e+01 2.7405441212e+01 0.0000000000e+00 0.0000e+00 1.0000e+00
       12  1    3    3    0    0 -1.0149410245e+01 +1.5603771607e+01 +2.0474337323e+00 1.8726457262e+01 0.0000000000e+00 0.0000e+00 -1.0000e+00
</event>
<event>
 8      3 +1.0086356e-04 9.11880000e+01 7.81616400e-03 1.18400000e-01
      -11 -1    0    0    0    0 +0.0000000000e+00 +0.0000000000e+00 +4.5593999997e+01 4.5594000000e+01 5.1100000000e-04 0.0000e+00 1.0000e+00
       11 -1    0    0    0    0 -0.0000000000e+00 -0.0000000000e+00 -4.5593999997e+01 4.5594000000e+01 5.1100000000e-04 0.0000e+00 -1.0000e+00
       23  2    1    2    0    0 +1.7763568394e-15 +8.8817841970e-16 +0.0000000000e+00 9.1188000000e+01 9.1188000000e+01 4.0088e-14 0.0000e+00
  9990012  2    3    3    0    0 -8.1978884290e+00 +3.4964271480e+00 -1.6469666821e+01 7.2461540039e+01 6.9999960586e+01 1.3007e-04 0.0000e+00
      -11  1    4    4    0    0 +3.7461079550e-01 +2.1027031981e+00 +1.8404083894e+01 1.8527600984e+01 5.1100000000e-04 0.0000e+00 1.0000e+00
       11  1    4    4    0    0 +1.0761597410e+01 +3.2902377851e+00 +2.7555162334e+00 1.1585789290e+01 5.1100000000e-04 0.0000e+00 -1.0000e+00
       12  1    4    4    0    0 -1.9334096635e+01 -1.8965138353e+00 -3.7629266948e+01 4.2348149764e+01 0.0000000000e+00 0.0000e+00 -1.0000e+00
      -12  1    3    3    0    0 +8.1978884290e+00 -3.4964271480e+00 +1.6469666821e+01 1.8726459961e+01 0.0000000000e+00 0.0000e+00 1.0000e+00
</event>
<event>
 8      3 +1.0086356e-04 9.11880000e+01 7.81616400e-03 1.18400000e-01
      -11 -1    0    0    0    0 +0.0000000000e+00 +0.0000000000e+00 +4.5593999997e+01 4.5594000000e+01 5.1100000000e-04 0.0000e+00 1.0000e+00
       11 -1    0    0    0    0 -0.0000000000e+00 -0.0000000000e+00 -4.5593999997e+01 4.5594000000e+01 5.1100000000e-04 0.0000e+00 -1.0000e+00
       23  2    1    2    0    0 +0.0000000000e+00 +8.8817841970e-16 -8.8817841970e-16 9.1188000000e+01 9.1188000000e+01 8.3821e-14 0.0000e+00
  9990012  2    3    3    0    0 +1.8237910566e+01 +1.3385995206e+00 -4.0331210100e+00 7.2461566929e+01 6.9999995616e+01 6.9833e-05 0.0000e+00
      -11  1    4    4    0    0 -4.5800184213e+00 +2.1118051604e+01 +4.0565132670e+00 2.1986449746e+01 5.1100000000e-04 0.0000e+00 1.0000e+00
       11  1    4    4    0    0 -9.9141418234e-01 -2.3720630913e+01 -1.1002016873e+01 2.6166688910e+01 5.1100000000e-04 0.0000e+00 -1.0000e+00
       12  1    4    4    0    0 +2.3809343169e+01 +3.9411788287e+00 +2.9123825964e+00 2.4308428273e+01 0.0000000000e+00 0.0000e+00 -1.0000e+00
      -12  1    3    3    0    0 -1.8237910566e+01 -1.3385995206e+00 +4.0331210100e+00 1.8726433071e+01 0.0000000000e+00 0.0000e+00 1.0000e+00
</event>
<event>
 9      3 +1.0086356e-04 9.11880000e+01 7.81616400e-03 1.18400000e-01
      -11 -1    0    0    0    0 +0.0000000000e+00 +0.0000000000e+00 +4.5593999997e+01 4.5594000000e+01 5.1100000000e-04 0.0000e+00 1.0000e+00
       11 -1    0    0    0    0 -0.0000000000e+00 -0.0000000000e+00 -4.5593999997e+01 4.5594000000e+01 5.1100000000e-04 0.0000e+00 -1.0000e+00
       23  2    1    2    0    0 +1.1102230246e-16 +8.8817841970e-16 +0.0000000000e+00 9.1188000000e+01 9.1188000000e+01 2.9825e-14 0.0000e+00
  9990012  2    3    3    0    0 +7.0436770170e-01 -6.8950191983e+00 -1.7396654116e+01 7.2461521473e+01 6.9999936401e+01 3.7584e-05 0.0000e+00
       24  2    4    4    0    0 +5.5871874458e+00 -9.0773396561e+00 -8.5547203024e+00 6.2127875212e+01 6.0605898063e+01 5.1402e-14 0.0000e+00
      -11  1    5    5    0    0 -2.6703651408e+01 -7.9050282117e+00 +2.5384203369e+00 2.7964585597e+01 5.1100000000e-04 0.0000e+00 1.0000e+00
       11  1    4    4    0    0 -4.8828197441e+00 +2.1823204578e+00 -8.8419338132e+00 1.0333646261e+01 5.1100000000e-04 0.0000e+00 -1.0000e+00
       12  1    5    5    0    0 +3.2290838854e+01 -1.1723114444e+00 -1.1093140639e+01 3.4163289614e+01 0.0000000000e+00 0.0000e+00 -1.0000e+00
      -12  1    3    3    0    0 -7.0436770170e-01 +6.8950191983e+00 +1.7396654116e+01 1.8726478527e+01 0.0000000000e+00 0.0000e+00 1.0000e+00
</event>
<event>
 9      4 +1.0086356e-04 9.11880000e+01 7.81616400e-03 1.18400000e-01
      -11 -1    0    0    0    0 +0.0000000000e+00 +0.0000000000e+00 +4.5593999997e+01 4.5594000000e+01 5.1100000000e-04 0.0000e+00 -1.0000e+00
       11 -1    0    0    0    0 -0.0000000000e+00 -0.0000000000e+00 -4.5593999997e+01 4.5594000000e+01 5.1100000000e-04 0.0000e+00 1.0000e+00
       23  2    1    2    0    0 +8.8817841970e-16 +0.0000000000e+00 -7.1054273576e-15 9.1188000000e+01 9.1188000000e+01 6.0210e-14 0.0000e+00
 -9990012  2    3    3    0    0 -5.6252705435e+00 +7.2539836058e+00 -1.6322240570e+01 7.2461561896e+01 6.9999989059e+01 2.3020e-04 0.0000e+00
      -24  2    4    4    0    0 +2.2685344443e+00 +3.7098936854e+00 -2.2690594311e+01 6.1717788807e+01 5.7230348814e+01 7.8053e-14 0.0000e+00
      -11  1    4    4    0    0 -7.8938049878e+00 +3.5440899204e+00 +6.3683537404e+00 1.0743773088e+01 5.1100000000e-04 0.0000e+00 1.0000e+00
       11  1    5    5    0    0 -1.5724061316e+00 -7.8531026720e+00 +1.7754474233e+01 1.9477295453e+01 5.1100000000e-04 0.0000e+00 -1.0000e+00
      -12  1    5    5    0    0 +3.8409405759e+00 +1.1562996357e+01 -4.0445068544e+01 4.2240493354e+01 0.0000000000e+00 0.0000e+00 1.0000e+00
       12  1    3    3    0    0 +5.6252705435e+00 -7.2539836058e+00 +1.6322240570e+01 1.8726438104e+01 0.0000000000e+00 0.0000e+00 -1.0000e+00
</event>
<event>
 8      4 +1.0086356e-04 9.11880000e+01 7.81616400e-03 1.18400000e-01
      -11 -1    0    0    0    0 +0.0000000000e+00 +0.0000000000e+00 +4.5593999997e+01 4.5594000000e+01 5.1100000000e-04 0.0000e+00 1.0000e+00
       11 -1    0    0    0    0 -0.0000000000e+00 -0.0000000000e+00 -4.5593999997e+01 4.5594000000e+01 5.1100000000e-04 0.0000e+00 -1.0000e+00
       23  2    1    2    0    0 +0.0000000000e+00 +1.3322676296e-15 +0.0000000000e+00 9.1188000000e+01 9.1188000000e+01 1.6368e-14 0.0000e+00
 -9990012  2    3    3    0    0 -2.9866177769e+00 -3.9074901862e+00 +1.8069061030e+01 7.2461565961e+01 6.9999994356e+01 2.7090e-04 0.0000e+00
      -11  1    4    4    0    0 +1.1631135357e+01 +1.2333225546e+01 +1.3676379959e+00 1.7007709899e+01 5.1100000000e-04 0.0000e+00 1.0000e+00
       11  1    4    4    0    0 +1.4586071574e+01 -1.7704943553e+01 +1.1830407806e+01 2.5810406027e+01 5.1100000000e-04 0.0000e+00 -1.0000e+00
      -12  1    4    4    0    0 -2.9203824707e+01 +1.4642278210e+00 +4.8710152277e+00 2.9643450035e+01 0.0000000000e+00 0.0000e+00 1.0000e+00
       12  1    3    3    0    0 +2.9866177769e+00 +3.9074901862e+00 -1.8069061030e+01 1.8726434039e+01 0.0000000000e+00 0.0000e+00 -1.0000e+00
</event>
<event>
 8      3 +1.0086356e-04 9.11880000e+01 7.81616400e-03 1.18400000e-01
      -11 -1    0    0    0    0 +0.0000000000e+00 +0.0000000000e+00 +4.5593999997e+01 4.5594000000e+01 5.1100000000e-04 0.0000e+00 1.0000e+00
       11 -1    0    0    0    0 -0.0000000000e+00 -0.0000000000e+00 -4.5593999997e+01 4.5594000000e+01 5.1100000000e-04 0.0000e+00 -1.0000e+00
       23  2    1    2    0    0 +0.0000000000e+00 +0.0000000000e+00 -1.7763568394e-15 9.1188000000e+01 9.1188000000e+01 1.3508e-13 0.0000e+00
  9990012  2    3    3    0    0 -1.6935779193e+01 +4.3791366868e+00 -6.6846300805e+00 7.2461501814e+01 6.9999910792e+01 8.1678e-05 0.0000e+00
      -11  1    4    4    0    0 -2.7752564765e+01 -1.5454566580e+01 +2.5903908063e+00 3.1870968043e+01 5.1100000000e-04 0.0000e+00 1.0000e+00
       11  1    4    4    0    0 +1.3959941588e+01 +2.3030928993e+01 -1.6864251221e+01 3.1775881245e+01 5.1100000000e-04 0.0000e+00 -1.0000e+00
       12  1    4    4    0    0 -3.1431560154e+00 -3.1972257262e+00 +7.5892303339e+00 8.8146525254e+00 0.0000000000e+00 0.0000e+00 -1.0000e+00
      -12  1    3    3    0    0 +1.6935779193e+01 -4.3791366868e+00 +6.6846300805e+00 1.8726498186e+01 0.0000000000e+00 0.0000e+00 1.0000e+00
</event>
<event>
 9      4 +1.0086356e-04 9.11880000e+01 7.81616400e-03 1.18400000e-01
      -11 -1    0    0    0    0 +0.0000000000e+00 +0.0000000000e+00 +4.5593999997e+01 4.5594000000e+01 5.1100000000e-04 0.0000e+00 -1.0000e+00
       11 -1    0    0    0    0 -0.0000000000e+00 -0.0000000000e+00 -4.5593999997e+01 4.5594000000e+01 5.1100000000e-04 0.0000e+00 1.0000e+00
       23  2    1    2    0    0 +0.0000000000e+00 +0.0000000000e+00 +0.0000000000e+00 9.1188000000e+01 9.1188000000e+01 2.7931e-14 0.0000e+00
 -9990012  2    3    3    0    0 -1.2287742771e+01 +9.9571106689e+00 -1.0027243515e+01 7.2461593837e+01 7.0000030669e+01 3.5319e-05 0.0000e+00
      -24  2    4    4    0    0 -7.2400122157e+00 +6.0952750718e+00 -7.6206165578e+00 6.5665623597e+01 6.4531621478e+01 3.7261e-15 0.0000e+00
      -11  1    4    4    0    0 -5.0477305550e+00 +3.8618355971e+00 -2.4066269573e+00 6.7959702403e+00 5.1100000000e-04 0.0000e+00 1.0000e+00
       11  1    5    5    0    0 -2.3399772270e+01 -1.3611367250e+01 +1.5552580005e+01 3.1220208292e+01 5.1100000000e-04 0.0000e+00 -1.0000e+00
      -12  1    5    5    0    0 +1.6159760055e+01 +1.9706642321e+01 -2.3173196562e+01 3.4445415305e+01 0.0000000000e+00 0.0000e+00 1.0000e+00
       12  1    3    3    0    0 +1.2287742771e+01 -9.9571106689e+00 +1.0027243515e+01 1.8726406163e+01 0.0000000000e+00 0.0000e+00 -1.0000e+00
</event>
<event>
 9      4 +1.0086356e-04 9.11880000e+01 7.81616400e-03 1.18400000e-01
      -11 -1    0    0    0    0 +0.0000000000e+00 +0.0000000000e+00 +4.5593999997e+01 4.5594000000e+01 5.1100000000e-04 0.0000e+00 -1.0000e+00
       11 -1    0    0    0    0 -0.0000000000e+00 -0.0000000000e+00 -4.5593999997e+01 4.5594000000e+01 5.1100000000e-04 0.0000e+00 1.0000e+00
       23  2    1    2    0    0 +3.5527136788e-15 +0.0000000000e+00 -8.8817841970e-16 9.1188000000e+01 9.1188000000e+01 2.7512e-13 0.0000e+00
 -9990012  2    3    3    0    0 +1.6058494661e+01 -9.2688921000e+00 +2.6259486741e+00 7.2461462200e+01 6.9999859187e+01 6.3942e-05 0.0000e+00
      -24  2    4    4    0    0 +2.5917321861e+01 -1.0194763795e+01 +2.9503147011e+00 6.2553943553e+01 5.5934342902e+01 3.2240e-13 0.0000e+00
      -11  1    4    4    0    0 -9.8588272006e+00 +9.2587169463e-01 -3.2436602705e-01 9.9075186473e+00 5.1100000000e-04 0.0000e+00 1.0000e+00
       11  1    5    5    0    0 +1.6575932117e+01 +1.0215247733e+01 +2.4596795916e+01 3.1370610153e+01 5.1100000000e-04 0.0000e+00 -1.0000e+00
      -12  1    5    5    0    0 +9.3413897443e+00 -2.0410011528e+01 -2.1646481215e+01 3.1183333400e+01 0.0000000000e+00 0.0000e+00 1.0000e+00
       12  1    3    3    0    0 -1.6058494661e+01 +9.2688921000e+00 -2.6259486741e+00 1.8726537800e+01 0.0000000000e+00 0.0000e+00 -1.0000e+00
</event>
<event>
 9      3 +1.0086356e-04 9.11880000e+01 7.81616400e-03 1.18400000e-01
      -11 -1    0    0    0    0 +0.0000000000e+00 +0.0000000000e+00 +4.5593999997e+01 4.5594000000e+01 5.1100000000e-04 0.0000e+00 1.0000e+00
       11 -1    0    0    0    0 -0.0000000000e+00 -0.0000000000e+00 -4.5593999997e+01 4.5594000000e+01 5.1100000000e-04 0.0000e+00 -1.0000e+00
       23  2    1    2    0    0 -4.4408920985e-16 +0.0000000000e+00 +1.7763568394e-15 9.1188000000e+01 9.1188000000e+01 3.9486e-15 0.0000e+00
  9990012  2    3    3    0    0 -3.2225446235e+00 -1.6258288388e+01 -8.7169534316e+00 7.2460960397e+01 6.9999205491e+01 4.7291e-04 0.0000e+00
       24  2    4    4    0    0 +4.0933626548e+00 -1.4974882647e+01 -1.3605791431e+01 6.3568808416e+01 6.0123814873e+01 2.2256e-13 0.0000e+00
      -11  1    5    5    0    0 +2.5055898453e+00 -2.4143950796e+00 +2.3813189966e+01 2.4066061180e+01 5.1100000000e-04 0.0000e+00 1.0000e+00
       11  1    4    4    0    0 -7.3159072783e+00 -1.2834057410e+00 +4.8888379995e+00 8.8921519807e+00 5.1100000000e-04 0.0000e+00 -1.0000e+00
       12  1    5    5    0    0 +1.5877728095e+00 -1.2560487568e+01 -3.7418981397e+01 3.9502747237e+01 0.0000000000e+00 0.0000e+00 -1.0000e+00
      -12  1    3    3    0    0 +3.2225446235e+00 +1.6258288388e+01 +8.7169534316e+00 1.8727039603e+01 0.0000000000e+00 0.0000e+00 1.0000e+00
</event>
<event>
 9      3 +1.0086356e-04 9.11880000e+01 7.81616400e-03 1.18400000e-01
      -11 -1    0    0    0    0 +0.0000000000e+00 +0.0000000000e+00 +4.5593999997e+01 4.5594000000e+01 5.1100000000e-04 0.0000e+00 1.0000e+00
       11 -1    0    0    0    0 -0.0000000000e+00 -0.0000000000e+00 -4.5593999997e+01 4.5594000000e+01 5.1100000000e-04 0.0000e+00 -1.0000e+00
       23  2    1    2    0    0 +8.8817841970e-16 +1.7763568394e-15 +0.0000000000e+00 9.1188000000e+01 9.1188000000e+01 7.5857e-14 0.0000e+00
  9990012  2    3    3    0    0 +7.5242115439e+00 +9.9205016289e+00 -1.3987469195e+01 7.2461563969e+01 6.9999991760e+01 1.6033e-04 0.0000e+00
       24  2    4    4    0    0 +4.2902703845e+00 +1.5315482449e+01 -1.3013631045e+01 6.6096616642e+01 6.2820679047e+01 2.8729e-15 0.0000e+00
      -11  1    5    5    0    0 +1.5846045277e+01 -2.1051081878e+01 -8.4282508056e+00 2.7663705664e+01 5.1100000000e-04 0.0000e+00 1.0000e+00
       11  1    4    4    0    0 +3.2339411593e+00 -5.3949808204e+00 -9.7383815051e-01 6.3649473273e+00 5.1100000000e-04 0.0000e+00 -1.0000e+00
       12  1    5    5    0    0 -1.1555774893e+01 +3.6366564327e+01 -4.5853802391e+00 3.8432910978e+01 0.0000000000e+00 0.0000e+00 -1.0000e+00
      -12  1    3    3    0    0 -7.5242115439e+00 -9.9205016289e+00 +1.3987469195e+01 1.8726436031e+01 0.0000000000e+00 0.0000e+00 1.0000e+00
</event>
<event>
 9      3 +1.0086356e-04 9.11880000e+01 7.81616400e-03 1.18400000e-01
      -11 -1    0    0    0    0 +0.0000000000e+00 +0.0000000000e+00 +4.5593999997e+01 4.5594000000e+01 5.1100000000e-04 0.0000e+00 -1.0000e+00
       11 -1    0    0    0    0 -0.0000000000e+00 -0.0000000000e+00 -4.5593999997e+01 4.5594000000e+01 5.1100000000e-04 0.0000e+00 1.0000e+00
       23  2    1    2    0    0 +1.7763568394e-15 +1.7763568394e-15 +0.0000000000e+00 9.1188000000e+01 9.1188000000e+01 2.8132e-16 0.0000e+00
  9990012  2    3    3    0    0 -1.1367752400e+01 +1.4065124926e+01 -4.8605681996e+00 7.2461583977e+01 7.0000017825e+01 3.5883e-06 0.0000e+00
       24  2    4    4    0    0 -1.1296986313e+01 +1.5066244684e+01 +1.4433008426e+00 6.6078323543e+01 6.3321782163e+01 8.4504e-15 0.0000e+00
      -11  1    5    5    0    0 -1.7640772469e+01 -1.4940856975e+01 -1.8401873955e+01 2.9547504561e+01 5.1100000000e-04 0.0000e+00 1.0000e+00
       11  1    4    4    0    0 -7.0766087415e-02 -1.0011197579e+00 -6.3038690422e+00 6.3832604342e+00 5.1100000000e-04 0.0000e+00 -1.0000e+00
       12  1    5    5    0    0 +6.3437861567e+00 +3.0007101659e+01 +1.9845174798e+01 3.6530818982e+01 0.0000000000e+00 0.0000e+00 -1.0000e+00
      -12  1    3    3    0    0 +1.1367752400e+01 -1.4065124926e+01 +4.8605681996e+00 1.8726416023e+01 0.0000000000e+00 0.0000e+00 1.0000e+00
</event>
<event>
 9      3 +1.0086356e-04 9.11880000e+01 7.81616400e-03 1.18400000e-01
      -11 -1    0    0    0    0 +0.0000000000e+00 +0.0000000000e+00 +4.5593999997e+01 4.5594000000e+01 5.1100000000e-04 0.0000e+00 1.0000e+00
       11 -1    0    0    0    0 -0.0000000000e+00 -0.0000000000e+00 -4.5593999997e+01 4.5594000000e+01 5.1100000000e-04 0.0000e+00 -1.0000e+00
       23  2    1    2    0    0 +1.7763568394e-15 +1.7763568394e-15 -1.7763568394e-15 9.1188000000e+01 9.1188000000e+01 1.4019e-13 0.0000e+00
  9990012  2    3    3    0    0 +8.5691313611e+00 +1.0474755693e+01 -1.2943203842e+01 7.2461627025e+01 7.0000073902e+01 5.8228e-04 0.0000e+00
       24  2    4    4    0    0 +1.4453745912e+01 +1.8401544423e+01 -1.4620280650e+01 6.2447873739e+01 5.6021930708e+01 1.4104e-13 0.0000e+00
      -11  1    5    5    0    0 -1.2269717566e+00 -9.3028753819e+00 +1.5825532879e+01 1.8398272779e+01 5.1100000000e-04 0.0000e+00 1.0000e+00
       11  1    4    4    0    0 -5.8846145508e+00 -7.9267887302e+00 +1.6770768080e+00 1.0013753286e+01 5.1100000000e-04 0.0000e+00 -1.0000e+00
       12  1    5    5    0    0 +1.5680717669e+01 +2.7704419805e+01 -3.0445813529e+01 4.4049600961e+01 0.0000000000e+00 0.0000e+00 -1.0000e+00
      -12  1    3    3    0    0 -8.5691313611e+00 -1.0474755693e+01 +1.2943203842e+01 1.8726372975e+01 0.0000000000e+00 0.0000e+00 1.0000e+00
</event>
<event>
 8      4 +1.0086356e-04 9.11880000e+01 7.81616400e-03 1.18400000e-01
      -11 -1    0    0    0    0 +0.0000000000e+00 +0.0000000000e+00 +4.5593999997e+01 4.5594000000e+01 5.1100000000e-04 0.0000e+00 1.0000e+00
       11 -1    0    0    0    0 -0.0000000000e+00 -0.0000000000e+00 -4.5593999997e+01 4.5594000000e+01 5.1100000000e-04 0.0000e+00 -1.0000e+00
       23  2    1    2    0    0 +8.8817841970e-16 -1.7763568394e-15 +0.0000000000e+00 9.1188000000e+01 9.1188000000e+01 1.3145e-13 0.0000e+00
 -9990012  2    3    3    0    0 +2.1392636778e+00 -1.0323271980e+01 -1.5476987078e+01 7.2461454070e+01 6.9999848596e+01 3.8406e-04 0.0000e+00
      -11  1    4    4    0    0 +1.8923845271e+01 +1.2026600270e+01 -4.7927089568e-01 2.2427231991e+01 5.1100000000e-04 0.0000e+00 1.0000e+00
       11  1    4    4    0    0 -1.6728154218e+01 -5.3419503088e+00 -2.4812220166e+01 3.0397596064e+01 5.1100000000e-04 0.0000e+00 -1.0000e+00
      -12  1    4    4    0    0 -5.6427375587e-02 -1.7007921942e+01 +9.8145039831e+00 1.9636626015e+01 0.0000000000e+00 0.0000e+00 1.0000e+00
       12  1    3    3    0    0 -2.1392636778e+00 +1.0323271980e+01 +1.5476987078e+01 1.8726545930e+01 0.0000000000e+00 0.0000e+00 -1.0000e+00
</event>
<event>
 8      3 +1.0086356e-04 9.11880000e+01 7.81616400e-03 1.18400000e-01
      -11 -1    0    0    0    0 +0.0000000000e+00 +0.0000000000e+00 +4.5593999997e+01 4.5594000000e+01 5.1100000000e-04 0.0000e+00 1.0000e+00
       11 -1    0    0    0    0 -0.0000000000e+00 -0.0000000000e+00 -4.5593999997e+01 4.5594000000e+01 5.1100000000e-04 0.0000e+00 -1.0000e+00
       23  2    1    2    0    0 +0.0000000000e+00 +0.0000000000e+00 -4.4408920985e-16 9.1188000000e+01 9.1188000000e+01 7.3868e-14 0.0000e+00
  9990012  2    3    3    0    0 +1.7444616001e+01 +6.2509177172e+00 -2.7004732680e+00 7.2461517265e+01 6.9999930920e+01 1.0989e-04 0.0000e+00
      -11  1    4    4    0    0 -8.3509640725e-01 +2.7110206620e+00 +2.0562688491e+01 2.0757436674e+01 5.1100000000e-04 0.0000e+00 1.0000e+00
       11  1    4    4    0    0 +8.6940164450e+00 +1.9682916336e+01 +3.7058392740e-01 2.1520698180e+01 5.1100000000e-04 0.0000e+00 -1.0000e+00
       12  1    4    4    0    0 +9.5856959635e+00 -1.6143019281e+01 -2.3633745687e+01 3.0183382411e+01 0.0000000000e+00 0.0000e+00 -1.0000e+00
      -12  1    3    3    0    0 -1.7444616001e+01 -6.2509177172e+00 +2.7004732680e+00 1.8726482735e+01 0.0000000000e+00 0.0000e+00 1.0000e+00
</event>
<event>
 8      4 +1.0086356e-04 9.11880000e+01 7.81616400e-03 1.18400000e-01
      -11 -1    0    0    0    0 +0.0000000000e+00 +0.0000000000e+00 +4.5593999997e+01 4.5594000000e+01 5.1100000000e-04 0.0000e+00 1.0000e+00
       11 -1    0    0    0    0 -0.0000000000e+00 -0.0000000000e+00 -4.5593999997e+01 4.5594000000e+01 5.1100000000e-04 0.0000e+00 -1.0000e+00
       23  2    1    2    0    0 +8.8817841970e-16 -1.7763568394e-15 +1.7763568394e-15 9.1188000000e+01 9.1188000000e+01 4.7123e-14 0.0000e+00
 -9990012  2    3    3    0    0 -1.1544633861e+00 +1.4997976938e+01 +1.1153780967e+01 7.2461576748e+01 7.0000008407e+01 2.4286e-04 0.0000e+00
      -11  1    4    4    0    0 +1.3646218993e+01 -8.7985810152e+00 +9.6634744208e+00 1.8894895046e+01 5.1100000000e-04 0.0000e+00 1.0000e+00
       11  1    4    4    0    0 -1.1842467124e+01 -4.5692294725e+00 -1.5759839045e+01 2.0235968288e+01 5.1100000000e-04 0.0000e+00 -1.0000e+00
      -12  1    4    4    0    0 -2.9582152542e+00 +2.8365787426e+01 +1.7250145590e+01 3.3330713414e+01 0.0000000000e+00 0.0000e+00 1.0000e+00
       12  1    3    3    0    0 +1.1544633861e+00 -1.4997976938e+01 -1.1153780967e+01 1.8726423252e+01 0.0000000000e+00 0.0000e+00 -1.0000e+00
</event>
<event>
 9      2 +1.0086356e-04 9.11880000e+01 7.81616400e-03 1.18400000e-01
      -11 -1    0    0    0    0 +0.0000000000e+00 +0.0000000000e+00 +4.5593999997e+01 4.5594000000e+01 5.1100000000e-04 0.0000e+00 1.0000e+00
       11 -1    0    0    0    0 -0.0000000000e+00 -0.0000000000e+00 -4.5593999997e+01 4.5594000000e+01 5.1100000000e-04 0.0000e+00 -1.0000e+00
       23  2    1    2    0    0 +8.8817841970e-16 +0.0000000000e+00 +0.0000000000e+00 9.1188000000e+01 9.1188000000e+01 1.9600e-13 0.0000e+00
 -9990012  2    3    3    0    0 +4.9122265983e+00 +5.1116922960e+00 +1.7333139355e+01 7.2461091868e+01 6.9999376758e+01 4.6343e-04 0.0000e+00
       23  2    4    4    0    0 +9.9088422682e+00 +2.4861354520e+00 +1.9334943850e+01 6.6472190622e+01 6.2772175746e+01 1.0887e-13 0.0000e+00
      -11  1    5    5    0    0 +1.6076145018e+01 -1.2574541815e+01 -1.7062197623e+01 2.6602257958e+01 5.1100000000e-04 0.0000e+00 -1.0000e+00
       11  1    5    5    0    0 -6.1673027495e+00 +1.5060677267e+01 +3.6397141473e+01 3.9869932664e+01 5.1100000000e-04 0.0000e+00 1.0000e+00
      -12  1    4    4    0    0 -4.9966156699e+00 +2.6255568440e+00 -2.0018044949e+00 5.9889012456e+00 0.0000000000e+00 0.0000e+00 1.0000e+00
       12  1    3    3    0    0 -4.9122265983e+00 -5.1116922960e+00 -1.7333139355e+01 1.8726908132e+01 0.0000000000e+00 0.0000e+00 -1.0000e+00
</event>
<event>
 8      3 +1.0086356e-04 9.11880000e+01 7.81616400e-03 1.18400000e-01
      -11 -1    0    0    0    0 +0.0000000000e+00 +0.0000000000e+00 +4.5593999997e+01 4.5594000000e+01 5.1100000000e-04 0.0000e+00 1.0000e+00
       11 -1    0    0    0    0 -0.0000000000e+00 -0.0000000000e+00 -4.5593999997e+01 4.5594000000e+01 5.1100000000e-04 0.0000e+00 -1.0000e+00
       23  2    1    2    0    0 +8.8817841970e-16 +3.1086244690e-15 +0.0000000000e+00 9.1188000000e+01 9.1188000000e+01 2.9227e-14 0.0000e+00
  9990012  2    3    3    0    0 -7.3789949136e+00 -2.0774342078e+00 -1.7085537797e+01 7.2461524073e+01 6.9999939788e+01 1.4687e-04 0.0000e+00
      -11  1    4    4    0    0 +1.0207177365e+01 +2.1042429089e+01 -1.2203453066e+01 2.6379813470e+01 5.1100000000e-04 0.0000e+00 1.0000e+00
       11  1    4    4    0    0 -1.9472239685e+01 +2.3866086693e+00 -5.8981882181e+00 2.0485425156e+01 5.1100000000e-04 0.0000e+00 -1.0000e+00
       12  1    4    4    0    0 +1.8860674071e+00 -2.5506471966e+01 +1.0161034864e+00 2.5596285447e+01 0.0000000000e+00 0.0000e+00 -1.0000e+00
      -12  1    3    3    0    0 +7.3789949136e+00 +2.0774342078e+00 +1.7085537797e+01 1.8726475927e+01 0.0000000000e+00 0.0000e+00 1.0000e+00
</event>
<event>
 8      4 +1.0086356e-04 9.11880000e+01 7.81616400e-03 1.18400000e-01
      -11 -1    0    0    0    0 +0.0000000000e+00 +0.0000000000e+00 +4.5593999997e+01 4.5594000000e+01 5.1100000000e-04 0.0000e+00 1.0000e+00
       11 -1    0    0    0    0 -0.0000000000e+00 -0.0000000000e+00 -4.5593999997e+01 4.5594000000e+01 5.1100000000e-04 0.0000e+00 -1.0000e+00
       23  2    1    2    0    0 +0.0000000000e+00 -4.4408920985e-16 +0.0000000000e+00 9.1188000000e+01 9.1188000000e+01 7.6664e-14 0.0000e+00
 -9990012  2    3    3    0    0 -5.8059310212e+00 +3.9374089494e+00 +1.7362690968e+01 7.2461679969e+01 7.0000142872e+01 1.0898e-05 0.0000e+00
      -11  1    4    4    0    0 +1.0372554155e+01 +2.2284459848e+01 -4.6208565192e-01 2.4584559257e+01 5.1100000000e-04 0.0000e+00 1.0000e+00
       11  1    4    4    0    0 -2.1183592532e+00 +1.5870566108e-01 -1.0799093689e+01 1.1006046437e+01 5.1100000000e-04 0.0000e+00 -1.0000e+00
      -12  1    4    4    0    0 -1.4060125923e+01 -1.8505756560e+01 +2.8623870308e+01 3.6871074276e+01 0.0000000000e+00 0.0000e+00 1.0000e+00
       12  1    3    3    0    0 +5.8059310212e+00 -3.9374089494e+00 -1.7362690968e+01 1.8726320031e+01 0.0000000000e+00 0.0000e+00 -1.0000e+00
</event>
<event>
 9      3 +1.0086356e-04 9.11880000e+01 7.81616400e-03 1.18400000e-01
      -11 -1    0    0    0    0 +0.0000000000e+00 +0.0000000000e+00 +4.5593999997e+01 4.5594000000e+01 5.1100000000e-04 0.0000e+00 -1.0000e+00
       11 -1    0    0    0    0 -0.0000000000e+00 -0.0000000000e+00 -4.5593999997e+01 4.5594000000e+01 5.1100000000e-04 0.0000e+00 1.0000e+00
       23  2    1    2    0    0 +8.8817841970e-16 +0.0000000000e+00 +0.0000000000e+00 9.1188000000e+01 9.1188000000e+01 4.5471e-14 0.0000e+00
  9990012  2    3    3    0    0 -7.1553378819e+00 -2.7783030602e+00 +1.7080987616e+01 7.2461602427e+01 7.0000041859e+01 3.3217e-04 0.0000e+00
       24  2    4    4    0    0 -5.0793007049e+00 -1.0060605228e+01 +1.0612821405e+01 6.2502735543e+01 6.0555304466e+01 7.2339e-14 0.0000e+00
      -11  1    5    5    0    0 -3.0858363572e+01 -1.4625002091e+01 +1.2230499577e+01 3.6272777791e+01 5.1100000000e-04 0.0000e+00 1.0000e+00
       11  1    4    4    0    0 -2.0760371770e+00 +7.2823021680e+00 +6.4681662114e+00 9.9588668846e+00 5.1100000000e-04 0.0000e+00 -1.0000e+00
       12  1    5    5    0    0 +2.5779062867e+01 +4.5643968632e+00 -1.6176781718e+00 2.6229957752e+01 0.0000000000e+00 0.0000e+00 -1.0000e+00
      -12  1    3    3    0    0 +7.1553378819e+00 +2.7783030602e+00 -1.7080987616e+01 1.8726397573e+01 0.0000000000e+00 0.0000e+00 1.0000e+00
</event>
<event>
 9      3 +1.0086356e-04 9.11880000e+01 7.81616400e-03 1.18400000e-01
      -11 -1    0    0    0    0 +0.0000000000e+00 +0.0000000000e+00 +4.5593999997e+01 4.5594000000e+01 5.1100000000e-04 0.0000e+00 -1.0000e+00
       11 -1    0    0    0    0 -0.0000000000e+00 -0.0000000000e+00 -4.5593999997e+01 4.5594000000e+01 5.1100000000e-04 0.0000e+00 1.0000e+00
       23  2    1    2    0    0 -1.7763568394e-15 -3.5527136788e-15 +5.5511151231e-16 9.1188000000e+01 9.1188000000e+01 2.1731e-13 0.0000e+00
  9990012  2    3    3    0    0 -1.5304363483e+01 -1.0772884348e+01 -6.3224549449e-01 7.2461593159e+01 7.0000029786e+01 4.2972e-05 0.0000e+00
       24  2    4    4    0    0 -1.8634072800e+01 -6.4292630571e+00 -3.7258379874e-01 6.6982411240e+01 6.4015158394e+01 4.3838e-14 0.0000e+00
      -11  1    5    5    0    0 -9.6336697878e+00 +2.7133239305e+01 -1.0724013599e+01 3.0724985544e+01 5.1100000000e-04 0.0000e+00 1.0000e+00
       11  1    4    4    0    0 +3.3297093172e+00 -4.3436212907e+00 -2.5966169574e-01 5.4791819199e+00 5.1100000000e-04 0.0000e+00 -1.0000e+00
       12  1    5    5    0    0 -9.0004030125e+00 -3.3562502362e+01 +1.0351429800e+01 3.6257425696e+01 0.0000000000e+00 0.0000e+00 -1.0000e+00
      -12  1    3    3    0    0 +1.5304363483e+01 +1.0772884348e+01 +6.3224549449e-01 1.8726406841e+01 0.0000000000e+00 0.0000e+00 1.0000e+00
</event>
<event>
 8      4 +1.0086356e-04 9.11880000e+01 7.81616400e-03 1.18400000e-01
      -11 -1    0    0    0    0 +0.0000000000e+00 +0.0000000000e+00 +4.5593999997e+01 4.5594000000e+01 5.1100000000e-04 0.0000e+00 1.0000e+00
       11 -1    0    0    0    0 -0.0000000000e+00 -0.0000000000e+00 -4.5593999997e+01 4.5594000000e+01 5.1100000000e-04 0.0000e+00 -1.0000e+00
       23  2    1    2    0    0 +2.1094237468e-15 +0.0000000000e+00 +0.0000000000e+00 9.1188000000e+01 9.1188000000e+01 1.6847e-14 0.0000e+00
 -9990012  2    3    3    0    0 +8.6737591837e-01 -9.7754125172e+00 +1.5948817154e+01 7.2461660276e+01 7.0000117217e+01 5.5471e-05 0.0000e+00
      -11  1    4    4    0    0 -2.1907565745e+01 +2.0396184973e+00 -9.2182199230e-01 2.2021608400e+01 5.1100000000e-04 0.0000e+00 -1.0000e+00
       11  1    4    4    0    0 +3.2119772662e+01 -9.0509274856e+00 +3.0231777778e+00 3.3507293062e+01 5.1100000000e-04 0.0000e+00 1.0000e+00
      -12  1    4    4    0    0 -9.3448309980e+00 -2.7641035289e+00 +1.3847461368e+01 1.6932758814e+01 0.0000000000e+00 0.0000e+00 1.0000e+00
       12  1    3    3    0    0 -8.6737591837e-01 +9.7754125172e+00 -1.5948817154e+01 1.8726339724e+01 0.0000000000e+00 0.0000e+00 -1.0000e+00
</event>
<event>
 8      3 +1.0086356e-04 9.11880000e+01 7.81616400e-03 1.18400000e-01
      -11 -1    0    0    0    0 +0.0000000000e+00 +0.0000000000e+00 +4.5593999997e+01 4.5594000000e+01 5.1100000000e-04 0.0000e+00 1.0000e+00
       11 -1    0    0    0    0 -0.0000000000e+00 -0.0000000000e+00 -4.5593999997e+01 4.5594000000e+01 5.1100000000e-04 0.0000e+00 -1.0000e+00
       23  2    1    2    0    0 -8.8817841970e-16 -3.5527136788e-15 +4.4408920985e-16 9.1188000000e+01 9.1188000000e+01 2.0364e-14 0.0000e+00
  9990012  2    3    3    0    0 -7.5134216600e+00 -1.7039295674e+01 -1.9724584958e+00 7.2461556274e+01 6.9999981736e+01 1.0118e-05 0.0000e+00
      -11  1    4    4    0    0 +2.8397129705e+00 +2.3153275056e+01 +7.9993182514e-01 2.3340480002e+01 5.1100000000e-04 0.0000e+00 1.0000e+00
       11  1    4    4    0    0 +5.0224859723e+00 -2.5060174276e+01 +5.2726264832e+00 2.6096710336e+01 5.1100000000e-04 0.0000e+00 -1.0000e+00
       12  1    4    4    0    0 -1.5375620603e+01 -1.5132396453e+01 -8.0450168041e+00 2.3024365935e+01 0.0000000000e+00 0.0000e+00 -1.0000e+00
      -12  1    3    3    0    0 +7.5134216600e+00 +1.7039295674e+01 +1.9724584958e+00 1.8726443726e+01 0.0000000000e+00 0.0000e+00 1.0000e+00
</event>
<event>
 8      4 +1.0086356e-04 9.11880000e+01 7.81616400e-03 1.18400000e-01
      -11 -1    0    0    0    0 +0.0000000000e+00 +0.0000000000e+00 +4.5593999997e+01 4.5594000000e+01 5.1100000000e-04 0.0000e+00 1.0000e+00
       11 -1    0    0    0    0 -0.0000000000e+00 -0.0000000000e+00 -4.5593999997e+01 4.5594000000e+01 5.1100000000e-04 0.0000e+00 -1.0000e+00
       23  2    1    2    0    0 +0.0000000000e+00 +3.5527136788e-15 -1.3322676296e-15 9.1188000000e+01 9.1188000000e+01 2.5246e-13 0.0000e+00
 -9990012  2    3    3    0    0 -8.9883986012e+00 -1.6081567422e+01 +3.3563726951e+00 7.2461725468e+01 7.0000202142e+01 1.3869e-04 0.0000e+00
      -11  1    4    4    0    0 +1.0693777915e+01 -1.6877388082e+01 +4.3422308749e+00 2.0446468736e+01 5.1100000000e-04 0.0000e+00 1.0000e+00
       11  1    4    4    0    0 -6.8896847760e+00 -3.7381314772e+00 -2.4027362521e+01 2.5273613379e+01 5.1100000000e-04 0.0000e+00 -1.0000e+00
      -12  1    4    4    0    0 -1.2792491740e+01 +4.5339521362e+00 +2.3041504341e+01 2.6741643353e+01 0.0000000000e+00 0.0000e+00 1.0000e+00
       12  1    3    3    0    0 +8.9883986012e+00 +1.6081567422e+01 -3.3563726951e+00 1.8726274532e+01 0.0000000000e+00 0.0000e+00 -1.0000e+00
</event>
<event>
 8      3 +1.0086356e-04 9.11880000e+01 7.81616400e-03 1.18400000e-01
      -11 -1    0    0    0    0 +0.0000000000e+00 +0.0000000000e+00 +4.5593999997e+01 4.5594000000e+01 5.1100000000e-04 0.0000e+00 1.0000e+00
       11 -1    0    0    0    0 -0.0000000000e+00 -0.0000000000e+00 -4.5593999997e+01 4.5594000000e+01 5.1100000000e-04 0.0000e+00 -1.0000e+00
       23  2    1    2    0    0 +2.6645352591e-15 -3.5527136788e-15 +0.0000000000e+00 9.1188000000e+01 9.1188000000e+01 2.4576e-13 0.0000e+00
  9990012  2    3    3    0    0 +5.4313560906e+00 -1.7906685195e+01 -7.2726357074e-01 7.2461603765e+01 7.0000043602e+01 4.0542e-05 0.0000e+00
      -11  1    4    4    0    0 +1.6108553707e+01 +6.3948564048e+00 -9.6506799648e-01 1.7358313497e+01 5.1100000000e-04 0.0000e+00 1.0000e+00
       11  1    4    4    0    0 -2.6954405800e+00 -8.2878406691e+00 +2.3899020860e+01 2.5438492510e+01 5.1100000000e-04 0.0000e+00 -1.0000e+00
       12  1    4    4    0    0 -7.9817570362e+00 -1.6013700930e+01 -2.3661216434e+01 2.9664797758e+01 0.0000000000e+00 0.0000e+00 -1.0000e+00
      -12  1    3    3    0    0 -5.4313560906e+00 +1.7906685195e+01 +7.2726357074e-01 1.8726396235e+01 0.0000000000e+00 0.0000e+00 1.0000e+00
</event>
<event>
 8      4 +1.0086356e-04 9.11880000e+01 7.81616400e-03 1.18400000e-01
      -11 -1    0    0    0    0 +0.0000000000e+00 +0.0000000000e+00 +4.5593999997e+01 4.5594000000e+01 5.1100000000e-04 0.0000e+00 -1.0000e+00
       11 -1    0    0    0    0 -0.0000000000e+00 -0.0000000000e+00 -4.5593999997e+01 4.5594000000e+01 5.1100000000e-04 0.0000e+00 1.0000e+00
       23  2    1    2    0    0 +0.0000000000e+00 -4.4408920985e-16 +0.0000000000e+00 9.1188000000e+01 9.1188000000e+01 2.2986e-14 0.0000e+00
 -9990012  2    3    3    0    0 +1.1578023869e+01 +3.4778425123e+00 -1.4301644303e+01 7.2461466551e+01 6.9999864855e+01 6.0248e-05 0.0000e+00
      -11  1    4    4    0    0 +4.1818757894e+00 +1.4762658393e+00 -1.8810978343e+01 1.9326674635e+01 5.1100000000e-04 0.0000e+00 1.0000e+00
       11  1    4    4    0    0 -2.0134616956e+01 -3.4559444122e+00 +1.2503902261e+01 2.3951908562e+01 5.1100000000e-04 0.0000e+00 -1.0000e+00
      -12  1    4    4    0    0 +2.7530765036e+01 +5.4575210852e+00 -7.9945682211e+00 2.9182883354e+01 0.0000000000e+00 0.0000e+00 1.0000e+00
       12  1    3    3    0    0 -1.1578023869e+01 -3.4778425123e+00 +1.4301644303e+01 1.8726533449e+01 0.0000000000e+00 0.0000e+00 -1.0000e+00
</event>
<event>
 8      4 +1.0086356e-04 9.11880000e+01 7.81616400e-03 1.18400000e-01
      -11 -1    0    0    0    0 +0.0000000000e+00 +0.0000000000e+00 +4.5593999997e+01 4.5594000000e+01 5.1100000000e-04 0.0000e+00 1.0000e+00
       11 -1    0    0    0    0 -0.0000000000e+00 -0.0000000000e+00 -4.5593999997e+01 4.5594000000e+01 5.1100000000e-04 0.0000e+00 -1.0000e+00
       23  2    1    2    0    0 -2.6645352591e-15 +3.5527136788e-15 -8.8817841970e-16 9.1188000000e+01 9.1188000000e+01 3.5028e-14 0.0000e+00
 -9990012  2    3    3    0    0 -6.4850493298e+00 +1.5767751391e+01 +7.7461498452e+00 7.2461529800e+01 6.9999947249e+01 2.6265e-04 0.0000e+00
      -11  1    4    4    0    0 +4.7347723885e+00 -2.3677887826e+00 -1.0362591602e+01 1.1636485650e+01 5.1100000000e-04 0.0000e+00 -1.0000e+00
       11  1    4    4    0    0 -3.1545618351e+01 +1.8895646127e+01 +6.3060501671e+00 3.7308681948e+01 5.1100000000e-04 0.0000e+00 1.0000e+00
      -12  1    4    4    0    0 +2.0325796632e+01 -7.6010595419e-01 +1.1802691281e+01 2.3516362203e+01 0.0000000000e+00 0.0000e+00 1.0000e+00
       12  1    3    3    0    0 +6.4850493298e+00 -1.5767751391e+01 -7.7461498452e+00 1.8726470200e+01 0.0000000000e+00 0.0000e+00 -1.0000e+00
</event>
<event>
 8      4 +1.0086356e-04 9.11880000e+01 7.81616400e-03 1.18400000e-01
      -11 -1    0    0    0    0 +0.0000000000e+00 +0.0000000000e+00 +4.5593999997e+01 4.5594000000e+01 5.1100000000e-04 0.0000e+00 1.0000e+00
       11 -1    0    0    0    0 -0.0000000000e+00 -0.0000000000e+00 -4.5593999997e+01 4.5594000000e+01 5.1100000000e-04 0.0000e+00 -1.0000e+00
       23  2    1    2    0    0 -1.7763568394e-15 +0.0000000000e+00 -1.7763568394e-15 9.1188000000e+01 9.1188000000e+01 6.4801e-14 0.0000e+00
 -9990012  2    3    3    0    0 +1.5281863648e+01 -8.2661130521e+00 -6.9867522968e+00 7.2461583119e+01 7.0000016707e+01 2.6020e-04 0.0000e+00
      -11  1    4    4    0    0 -7.2555794767e+00 -7.6448247863e+00 +1.3799007971e+01 1.7363738100e+01 5.1100000000e-04 0.0000e+00 1.0000e+00
       11  1    4    4    0    0 +3.5155243869e+01 -1.7840170385e+00 -2.3254655683e+01 4.2188302874e+01 5.1100000000e-04 0.0000e+00 -1.0000e+00
      -12  1    4    4    0    0 -1.2617800744e+01 +1.1627287727e+00 +2.4688954145e+00 1.2909542145e+01 0.0000000000e+00 0.0000e+00 1.0000e+00
       12  1    3    3    0    0 -1.5281863648e+01 +8.2661130521e+00 +6.9867522968e+00 1.8726416881e+01 0.0000000000e+00 0.0000e+00 -1.0000e+00
</event>
<event>
 9      4 +1.0086356e-04 9.11880000e+01 7.81616400e-03 1.18400000e-01
      -11 -1    0    0    0    0 +0.0000000000e+00 +0.0000000000e+00 +4.5593999997e+01 4.5594000000e+01 5.1100000000e-04 0.0000e+00 -1.0000e+00
       11 -1    0    0    0    0 -0.0000000000e+00 -0.0000000000e+00 -4.5593999997e+01 4.5594000000e+01 5.1100000000e-04 0.0000e+00 1.0000e+00
       23  2    1    2    0    0 +0.0000000000e+00 -2.2204460493e-15 +0.0000000000e+00 9.1188000000e+01 9.1188000000e+01 1.7713e-14 0.0000e+00
 -9990012  2    3    3    0    0 +4.3862971562e+00 -3.1959719548e+00 -1.7922756554e+01 7.2461573700e+01 7.0000004436e+01 7.7911e-05 0.0000e+00
      -24  2    4    4    0    0 -7.1254117195e+00 +1.3937761271e-01 -1.3999329267e+01 5.9850575329e+01 5.7752222719e+01 2.0960e-14 0.0000e+00
      -11  1    4    4    0    0 +1.1511708876e+01 -3.3353495675e+00 -3.9234272866e+00 1.2610998371e+01 5.1100000000e-04 0.0000e+00 1.0000e+00
       11  1    5    5    0    0 +6.3477568790e+00 +1.9968725971e+01 +1.2273884961e+01 2.4283580597e+01 5.1100000000e-04 0.0000e+00 -1.0000e+00
      -12  1    5    5    0    0 -1.3473168598e+01 -1.9829348358e+01 -2.6273214229e+01 3.5566994732e+01 0.0000000000e+00 0.0000e+00 1.0000e+00
       12  1    3    3    0    0 -4.3862971562e+00 +3.1959719548e+00 +1.7922756554e+01 1.8726426300e+01 0.0000000000e+00 0.0000e+00 -1.0000e+00
</event>
<event>
 8      3 +1.0086356e-04 9.11880000e+01 7.81616400e-03 1.18400000e-01
      -11 -1    0    0    0    0 +0.0000000000e+00 +0.0000000000e+00 +4.5593999997e+01 4.5594000000e+01 5.1100000000e-04 0.0000e+00 1.0000e+00
       11 -1    0    0    0    0 -0.0000000000e+00 -0.0000000000e+00 -4.5593999997e+01 4.5594000000e+01 5.1100000000e-04 0.0000e+00 -1.0000e+00
       23  2    1    2    0    0 +1.7763568394e-15 +2.1094237468e-15 -1.7763568394e-15 9.1188000000e+01 9.1188000000e+01 2.1284e-13 0.0000e+00
  9990012  2    3    3    0    0 +1.5599801181e+01 +4.9753581191e-01 -1.0347699925e+01 7.2461648713e+01 7.0000102155e+01 6.6664e-04 0.0000e+00
      -11  1    4    4    0    0 +5.7219904351e+00 +2.2082280151e+01 -1.6606501873e+01 2.8216026934e+01 5.1100000000e-04 0.0000e+00 -1.0000e+00
       11  1    4    4    0    0 +2.3332991401e+01 -1.2126533034e+01 -8.9273648954e-01 2.6311181460e+01 5.1100000000e-04 0.0000e+00 1.0000e+00
       12  1    4    4    0    0 -1.3455180654e+01 -9.4582113050e+00 +7.1515384380e+00 1.7934440319e+01 0.0000000000e+00 0.0000e+00 -1.0000e+00
      -12  1    3    3    0    0 -1.5599801181e+01 -4.9753581191e-01 +1.0347699925e+01 1.8726351287e+01 0.0000000000e+00 0.0000e+00 1.0000e+00
</event>
<event>
 9      4 +1.0086356e-04 9.11880000e+01 7.81616400e-03 1.18400000e-01
      -11 -1    0    0    0    0 +0.0000000000e+00 +0.0000000000e+00 +4.5593999997e+01 4.5594000000e+01 5.1100000000e-04 0.0000e+00 -1.0000e+00
       11 -1    0    0    0    0 -0.0000000000e+00 -0.0000000000e+00 -4.5593999997e+01 4.5594000000e+01 5.1100000000e-04 0.0000e+00 1.0000e+00
       23  2    1    2    0    0 +1.7763568394e-15 +0.0000000000e+00 +1.7763568394e-15 9.1188000000e+01 9.1188000000e+01 7.9069e-14 0.0000e+00
 -9990012  2    3    3    0    0 +9.2132961483e+00 -7.0382770331e+00 -1.4705685176e+01 7.2461565582e+01 6.9999993861e+01 8.5411e-05 0.0000e+00
      -24  2    4    4    0    0 +8.3243768469e+00 -1.3339217933e+01 -1.9577778723e+01 6.4447245303e+01 5.9354258672e+01 3.2456e-14 0.0000e+00
      -11  1    4    4    0    0 +8.8891930136e-01 +6.3009408995e+00 +4.8720935469e+00 8.0143202790e+00 5.1100000000e-04 0.0000e+00 1.0000e+00
       11  1    5    5    0    0 -1.0327257687e+01 +1.9255191486e+01 +5.1559000284e-01 2.1855902722e+01 5.1100000000e-04 0.0000e+00 -1.0000e+00
      -12  1    5    5    0    0 +1.8651634534e+01 -3.2594409418e+01 -2.0093368726e+01 4.2591342581e+01 0.0000000000e+00 0.0000e+00 1.0000e+00
       12  1    3    3    0    0 -9.2132961483e+00 +7.0382770331e+00 +1.4705685176e+01 1.8726434418e+01 0.0000000000e+00 0.0000e+00 -1.0000e+00
</event>
<event>
 9      4 +1.0086356e-04 9.11880000e+01 7.81616400e-03 1.18400000e-01
      -11 -1    0    0    0    0 +0.0000000000e+00 +0.0000000000e+00 +4.5593999997e+01 4.5594000000e+01 5.1100000000e-04 0.0000e+00 1.0000e+00
       11 -1    0    0    0    0 -0.0000000000e+00 -0.0000000000e+00 -4.5593999997e+01 4.5594000000e+01 5.1100000000e-04 0.0000e+00 -1.0000e+00
       23  2    1    2    0    0 -1.7763568394e-15 +0.0000000000e+00 +4.4408920985e-16 9.1188000000e+01 9.1188000000e+01 3.3476e-14 0.0000e+00
 -9990012  2    3    3    0    0 -1.4282856648e+01 +1.2022690564e+01 +1.4606463157e+00 7.2461586299e+01 7.0000020849e+01 1.9701e-04 0.0000e+00
      -24  2    4    4    0    0 -8.0899109841e+00 +1.0959180088e+01 +2.5996150801e+00 6.6075595332e+01 6.4603993777e+01 1.4742e-13 0.0000e+00
      -11  1    4    4    0    0 -6.1929456644e+00 +1.0635104752e+00 -1.1389687645e+00 6.3859909677e+00 5.1100000000e-04 0.0000e+00 1.0000e+00
       11  1    5    5    0    0 -1.3768208315e+01 -1.1896480094e+00 -2.8793511590e+01 3.1938145415e+01 5.1100000000e-04 0.0000e+00 -1.0000e+00
      -12  1    5    5    0    0 +5.6782973313e+00 +1.2148828098e+01 +3.1393126670e+01 3.4137449917e+01 0.0000000000e+00 0.0000e+00 1.0000e+00
       12  1    3    3    0    0 +1.4282856648e+01 -1.2022690564e+01 -1.4606463157e+00 1.8726413701e+01 0.0000000000e+00 0.0000e+00 -1.0000e+00
</event>
<event>
 8      4 +1.0086356e-04 9.11880000e+01 7.81616400e-03 1.18400000e-01
      -11 -1    0    0    0    0 +0.0000000000e+00 +0.0000000000e+00 +4.5593999997e+01 4.5594000000e+01 5.1100000000e-04 0.0000e+00 -1.0000e+00
       11 -1    0    0    0    0 -0.0000000000e+00 -0.0000000000e+00 -4.5593999997e+01 4.5594000000e+01 5.1100000000e-04 0.0000e+00 1.0000e+00
       23  2    1    2    0    0 +1.7763568394e-15 +0.0000000000e+00 +1.7763568394e-15 9.1188000000e+01 9.1188000000e+01 3.1071e-14 0.0000e+00
 -9990012  2    3    3    0    0 +5.0826691453e+00 -1.6119079699e+01 -8.0633528605e+00 7.2461657182e+01 7.0000113187e+01 1.1594e-04 0.0000e+00
      -11  1    4    4    0    0 +1.8217617358e+01 +1.2402987656e+00 -6.9553442949e+00 1.9539619693e+01 5.1100000000e-04 0.0000e+00 1.0000e+00
       11  1    4    4    0    0 +3.9896148841e+00 -2.5178525004e+01 +1.3727442190e+01 2.8953718546e+01 5.1100000000e-04 0.0000e+00 -1.0000e+00
      -12  1    4    4    0    0 -1.7124563096e+01 +7.8191465395e+00 -1.4835450756e+01 2.3968318943e+01 0.0000000000e+00 0.0000e+00 1.0000e+00
       12  1    3    3    0    0 -5.0826691453e+00 +1.6119079699e+01 +8.0633528605e+00 1.8726342818e+01 0.0000000000e+00 0.0000e+00 -1.0000e+00
</event>
<event>
 8      3 +1.0086356e-04 9.11880000e+01 7.81616400e-03 1.18400000e-01
      -11 -1    0    0    0    0 +0.0000000000e+00 +0.0000000000e+00 +4.5593999997e+01 4.5594000000e+01 5.1100000000e-04 0.0000e+00 1.0000e+00
       11 -1    0    0    0    0 -0.0000000000e+00 -0.0000000000e+00 -4.5593999997e+01 4.5594000000e+01 5.1100000000e-04 0.0000e+00 -1.0000e+00
       23  2    1    2    0    0 -8.8817841970e-16 +3.5527136788e-15 +5.3290705182e-15 9.1188000000e+01 9.1188000000e+01 1.6506e-13 0.0000e+00
  9990012  2    3    3    0    0 +6.0481021635e+00 -1.2003184914e+01 -1.3038744703e+01 7.2461952599e+01 7.0000498021e+01 1.3260e-04 0.0000e+00
      -11  1    4    4    0    0 +1.6332289651e+00 -1.6259009178e+01 -2.6405177457e+00 1.6552798873e+01 5.1100000000e-04 0.0000e+00 1.0000e+00
       11  1    4    4    0    0 +2.0608208562e+01 -1.3111609973e+01 -1.8691656174e+01 3.0756959977e+01 5.1100000000e-04 0.0000e+00 -1.0000e+00
       12  1    4    4    0    0 -1.6193335364e+01 +1.7367434237e+01 +8.2934292167e+00 2.5152193749e+01 0.0000000000e+00 0.0000e+00 -1.0000e+00
      -12  1    3    3    0    0 -6.0481021635e+00 +1.2003184914e+01 +1.3038744703e+01 1.8726047401e+01 0.0000000000e+00 0.0000e+00 1.0000e+00
</event>
<event>
 9      3 +1.0086356e-04 9.11880000e+01 7.81616400e-03 1.18400000e-01
      -11 -1    0    0    0    0 +0.0000000000e+00 +0.0000000000e+00 +4.5593999997e+01 4.5594000000e+01 5.1100000000e-04 0.0000e+00 -1.0000e+00
       11 -1    0    0    0    0 -0.0000000000e+00 -0.0000000000e+00 -4.5593999997e+01 4.5594000000e+01 5.1100000000e-04 0.0000e+00 1.0000e+00
       23  2    1    2    0    0 -8.8817841970e-16 +1.7763568394e-15 -1.7763568394e-15 9.1188000000e+01 9.1188000000e+01 5.5463e-16 0.0000e+00
  9990012  2    3    3    0    0 +6.9960496616e+00 +1.4989387077e+01 +8.7780872028e+00 7.2461514725e+01 6.9999927610e+01 2.8881e-04 0.0000e+00
       24  2    4    4    0    0 -2.3845179297e+00 +1.8508231061e+01 +9.3425096680e+00 6.2426780832e+01 5.8835193001e+01 1.0728e-13 0.0000e+00
      -11  1    5    5    0    0 +1.2344633885e+01 +1.8610576763e+01 +2.9786821351e+01 3.7228997834e+01 5.1100000000e-04 0.0000e+00 1.0000e+00
       11  1    4    4    0    0 +9.3805675913e+00 -3.5188439834e+00 -5.6442246519e-01 1.0034733893e+01 5.1100000000e-04 0.0000e+00 -1.0000e+00
       12  1    5    5    0    0 -1.4729151815e+01 -1.0234570267e-01 -2.0444311684e+01 2.5197782999e+01 0.0000000000e+00 0.0000e+00 -1.0000e+00
      -12  1    3    3    0    0 -6.9960496616e+00 -1.4989387077e+01 -8.7780872028e+00 1.8726485275e+01 0.0000000000e+00 0.0000e+00 1.0000e+00
</event>
<event>
 8      4 +1.0086356e-04 9.11880000e+01 7.81616400e-03 1.18400000e-01
      -11 -1    0    0    0    0 +0.0000000000e+00 +0.0000000000e+00 +4.5593999997e+01 4.5594000000e+01 5.1100000000e-04 0.0000e+00 1.0000e+00
       11 -1    0    0    0    0 -0.0000000000e+00 -0.0000000000e+00 -4.5593999997e+01 4.5594000000e+01 5.1100000000e-04 0.0000e+00 -1.0000e+00
       23  2    1    2    0    0 -1.7763568394e-15 +0.0000000000e+00 -2.5535129566e-15 9.1188000000e+01 9.1188000000e+01 2.0517e-13 0.0000e+00
 -9990012  2    3    3    0    0 -1.2945497169e+01 +1.3508633099e+01 +7.7837644337e-01 7.2461683356e+01 7.0000147284e+01 1.3234e-04 0.0000e+00
      -11  1    4    4    0    0 +2.5532588252e+00 +2.0610072535e+01 +3.8433240079e+00 2.1120259473e+01 5.1100000000e-04 0.0000e+00 1.0000e+00
       11  1    4    4    0    0 -3.2396738078e+00 +2.9370428876e+00 -2.4387405483e+01 2.4776344641e+01 5.1100000000e-04 0.0000e+00 -1.0000e+00
      -12  1    4    4    0    0 -1.2259082187e+01 -1.0038482324e+01 +2.1322457919e+01 2.6565079242e+01 0.0000000000e+00 0.0000e+00 1.0000e+00
       12  1    3    3    0    0 +1.2945497169e+01 -1.3508633099e+01 -7.7837644337e-01 1.8726316644e+01 0.0000000000e+00 0.0000e+00 -1.0000e+00
</event>
<event>
 9      4 +1.0086356e-04 9.11880000e+01 7.81616400e-03 1.18400000e-01
      -11 -1    0    0    0    0 +0.0000000000e+00 +0.0000000000e+00 +4.5593999997e+01 4.5594000000e+01 5.1100000000e-04 0.0000e+00 1.0000e+00
       11 -1    0    0    0    0 -0.0000000000e+00 -0.0000000000e+00 -4.5593999997e+01 4.5594000000e+01 5.1100000000e-04 0.0000e+00 -1.0000e+00
       23  2    1    2    0    0 +0.0000000000e+00 -4.4408920985e-15 +0.0000000000e+00 9.1188000000e+01 9.1188000000e+01 3.4293e-14 0.0000e+00
 -9990012  2    3    3    0    0 +4.7008219001e-01 -5.3875127641e+00 +1.7928598825e+01 7.2461523373e+01 6.9999938876e+01 9.6184e-04 0.0000e+00
      -24  2    4    4    0    0 +3.5885277205e-01 -1.6726603747e+01 +2.1444484015e+01 6.0589337170e+01 5.4141424398e+01 3.2665e-14 0.0000e+00
      -11  1    4    4    0    0 +1.1122941796e-01 +1.1339090983e+01 -3.5158851906e+00 1.1872186203e+01 5.1100000000e-04 0.0000e+00 1.0000e+00
       11  1    5    5    0    0 +2.3348966089e+00 +1.8155945351e+01 -2.1483156013e+00 1.8431097470e+01 5.1100000000e-04 0.0000e+00 -1.0000e+00
      -12  1    5    5    0    0 -1.9760438368e+00 -3.4882549098e+01 +2.3592799617e+01 4.2158239700e+01 0.0000000000e+00 0.0000e+00 1.0000e+00
       12  1    3    3    0    0 -4.7008219001e-01 +5.3875127641e+00 -1.7928598825e+01 1.8726476627e+01 0.0000000000e+00 0.0000e+00 -1.0000e+00
</event>
<event>
 8      3 +1.0086356e-04 9.11880000e+01 7.81616400e-03 1.18400000e-01
      -11 -1    0    0    0    0 +0.0000000000e+00 +0.0000000000e+00 +4.5593999997e+01 4.5594000000e+01 5.1100000000e-04 0.0000e+00 1.0000e+00
       11 -1    0    0    0    0 -0.0000000000e+00 -0.0000000000e+00 -4.5593999997e+01 4.5594000000e+01 5.1100000000e-04 0.0000e+00 -1.0000e+00
       23  2    1    2    0    0 -1.7763568394e-15 +0.0000000000e+00 +3.5527136788e-15 9.1188000000e+01 9.1188000000e+01 1.2547e-13 0.0000e+00
  9990012  2    3    3    0    0 +9.6241814172e+00 +1.5753152920e+01 -3.1453535306e+00 7.2461549623e+01 6.9999973072e+01 3.8660e-04 0.0000e+00
      -11  1    4    4    0    0 +1.7309834083e+01 -7.6215599055e+00 +1.0514550306e+01 2.1639646480e+01 5.1100000000e-04 0.0000e+00 -1.0000e+00
       11  1    4    4    0    0 -3.5277939447e+00 +1.5533477667e+01 +1.4349914437e+01 2.1439549975e+01 5.1100000000e-04 0.0000e+00 1.0000e+00
       12  1    4    4    0    0 -4.1578587211e+00 +7.8412351587e+00 -2.8009818274e+01 2.9382353168e+01 0.0000000000e+00 0.0000e+00 -1.0000e+00
      -12  1    3    3    0    0 -9.6241814172e+00 -1.5753152920e+01 +3.1453535306e+00 1.8726450377e+01 0.0000000000e+00 0.0000e+00 1.0000e+00
</event>
<event>
 9      3 +1.0086356e-04 9.11880000e+01 7.81616400e-03 1.18400000e-01
      -11 -1    0    0    0    0 +0.0000000000e+00 +0.0000000000e+00 +4.5593999997e+01 4.5594000000e+01 5.1100000000e-04 0.0000e+00 1.0000e+00
       11 -1    0    0    0    0 -0.0000000000e+00 -0.0000000000e+00 -4.5593999997e+01 4.5594000000e+01 5.1100000000e-04 0.0000e+00 -1.0000e+00
       23  2    1    2    0    0 -8.8817841970e-16 +1.7763568394e-15 +0.0000000000e+00 9.1188000000e+01 9.1188000000e+01 1.2412e-13 0.0000e+00
  9990012  2    3    3    0    0 -3.8680595031e+00 -9.9274056020e+00 -1.5400207111e+01 7.2461504188e+01 6.9999913885e+01 6.0588e-05 0.0000e+00
       24  2    4    4    0    0 +4.8874965123e+00 +7.5911726703e-01 -2.0014784032e+01 5.7895933393e+01 5.4100680610e+01 8.0311e-14 0.0000e+00
      -11  1    5    5    0    0 -8.3933066667e+00 +2.3473934452e+01 -1.9379412676e+01 3.1575858363e+01 5.1100000000e-04 0.0000e+00 1.0000e+00
       11  1    4    4    0    0 -8.7555560154e+00 -1.0686522869e+01 +4.6145769210e+00 1.4565570795e+01 5.1100000000e-04 0.0000e+00 -1.0000e+00
       12  1    5    5    0    0 +1.3280803179e+01 -2.2714817185e+01 -6.3537135679e-01 2.6320075030e+01 0.0000000000e+00 0.0000e+00 -1.0000e+00
      -12  1    3    3    0    0 +3.8680595031e+00 +9.9274056020e+00 +1.5400207111e+01 1.8726495812e+01 0.0000000000e+00 0.0000e+00 1.0000e+00
</event>
<event>
 8      4 +1.0086356e-04 9.11880000e+01 7.81616400e-03 1.18400000e-01
      -11 -1    0    0    0    0 +0.0000000000e+00 +0.0000000000e+00 +4.5593999997e+01 4.5594000000e+01 5.1100000000e-04 0.0000e+00 -1.0000e+00
       11 -1    0    0    0    0 -0.0000000000e+00 -0.0000000000e+00 -4.5593999997e+01 4.5594000000e+01 5.1100000000e-04 0.0000e+00 1.0000e+00
       23  2    1    2    0    0 +0.0000000000e+00 +4.4408920985e-16 +3.5527136788e-15 9.1188000000e+01 9.1188000000e+01 3.0741e-14 0.0000e+00
 -9990012  2    3    3    0    0 +9.0529281055e+00 +1.8606918491e+00 -1.6286654021e+01 7.2461740880e+01 7.0000222219e+01 2.3571e-04 0.0000e+00
      -11  1    4    4    0    0 +4.9931986061e+00 -5.0351372460e+00 +2.3736302431e+01 2.4772902389e+01 5.1100000000e-04 0.0000e+00 1.0000e+00
       11  1    4    4    0    0 +7.5472572857e+00 -7.4254772803e+00 -2.1927715505e+01 2.4350020799e+01 5.1100000000e-04 0.0000e+00 -1.0000e+00
      -12  1    4    4    0    0 -3.4875277864e+00 +1.4321306375e+01 -1.8095240947e+01 2.3338817693e+01 0.0000000000e+00 0.0000e+00 1.0000e+00
       12  1    3    3    0    0 -9.0529281055e+00 -1.8606918491e+00 +1.6286654021e+01 1.8726259120e+01 0.0000000000e+00 0.0000e+00 -1.0000e+00
</event>
<event>
 8      4 +1.0086356e-04 9.11880000e+01 7.81616400e-03 1.18400000e-01
      -11 -1    0    0    0    0 +0.0000000000e+00 +0.0000000000e+00 +4.5593999997e+01 4.5594000000e+01 5.1100000000e-04 0.0000e+00 1.0000e+00
       11 -1    0    0    0    0 -0.0000000000e+00 -0.0000000000e+00 -4.5593999997e+01 4.5594000000e+01 5.1100000000e-04 0.0000e+00 -1.0000e+00
       23  2    1    2    0    0 +0.0000000000e+00 +8.8817841970e-16 -3.5527136788e-15 9.1188000000e+01 9.1188000000e+01 1.2084e-13 0.0000e+00
 -9990012  2    3    3    0    0 -1.7577978768e+01 +6.0900129599e+00 -2.1460502833e+00 7.2461571424e+01 7.0000001471e+01 1.3974e-04 0.0000e+00
      -11  1    4    4    0    0 -9.2397386952e+00 +2.1109927897e+00 +3.2110412491e+01 3.3479958965e+01 5.1100000000e-04 0.0000e+00 1.0000e+00
       11  1    4    4    0    0 -4.6280371674e+00 +2.8237569226e+00 -1.0173162026e+00 5.5160913424e+00 5.1100000000e-04 0.0000e+00 -1.0000e+00
      -12  1    4    4    0    0 -3.7102029048e+00 +1.1552632476e+00 -3.3239146572e+01 3.3465521116e+01 0.0000000000e+00 0.0000e+00 1.0000e+00
       12  1    3    3    0    0 +1.7577978768e+01 -6.0900129599e+00 +2.1460502833e+00 1.8726428576e+01 0.0000000000e+00 0.0000e+00 -1.0000e+00
</event>
<event>
 9      3 +1.0086356e-04 9.11880000e+01 7.81616400e-03 1.18400000e-01
      -11 -1    0    0    0    0 +0.0000000000e+00 +0.0000000000e+00 +4.5593999997e+01 4.5594000000e+01 5.1100000000e-04 0.0000e+00 1.0000e+00
       11 -1    0    0    0    0 -0.0000000000e+00 -0.0000000000e+00 -4.5593999997e+01 4.5594000000e+01 5.1100000000e-04 0.0000e+00 -1.0000e+00
       23  2    1    2    0    0 -2.6645352591e-15 +8.8817841970e-16 +0.0000000000e+00 9.1188000000e+01 9.1188000000e+01 6.0930e-14 0.0000e+00
  9990012  2    3    3    0    0 -3.1401399099e+00 +4.6454878244e+00 -1.7867192314e+01 7.2461612282e+01 7.0000054697e+01 3.2373e-05 0.0000e+00
       23  2    4    4    0    0 -1.4556488907e+01 +2.0877849032e+00 -2.1299807354e+01 6.0269085281e+01 5.4428215405e+01 2.1942e-13 0.0000e+00
      -11  1    5    5    0    0 -1.5687399495e+01 +1.7865011183e+01 -3.2944381083e+01 4.0627396824e+01 5.1100000000e-04 0.0000e+00 -1.0000e+00
       11  1    5    5    0    0 +1.1309105876e+00 -1.5777226280e+01 +1.1644573730e+01 1.9641688457e+01 5.1100000000e-04 0.0000e+00 1.0000e+00
       12  1    4    4    0    0 +1.1416348997e+01 +2.5577029211e+00 +3.4326150396e+00 1.2192527001e+01 0.0000000000e+00 0.0000e+00 -1.0000e+00
      -12  1    3    3    0    0 +3.1401399099e+00 -4.6454878244e+00 +1.7867192314e+01 1.8726387718e+01 0.0000000000e+00 0.0000e+00 1.0000e+00
</event>
<event>
 8      4 +1.0086356e-04 9.11880000e+01 7.81616400e-03 1.18400000e-01
      -11 -1    0    0    0    0 +0.0000000000e+00 +0.0000000000e+00 +4.5593999997e+01 4.5594000000e+01 5.1100000000e-04 0.0000e+00 1.0000e+00
       11 -1    0    0    0    0 -0.0000000000e+00 -0.0000000000e+00 -4.5593999997e+01 4.5594000000e+01 5.1100000000e-04 0.0000e+00 -1.0000e+00
       23  2    1    2    0    0 +0.0000000000e+00 -1.7763568394e-15 +0.0000000000e+00 9.1188000000e+01 9.1188000000e+01 1.8181e-15 0.0000e+00
 -9990012  2    3    3    0    0 +7.1428351705e+00 -5.2853003300e+00 -1.6484082223e+01 7.2461562523e+01 6.9999989876e+01 2.7723e-04 0.0000e+00
      -11  1    4    4    0    0 -1.2787178840e+01 +1.2169603785e+01 +1.2077148606e+01 2.1388518361e+01 5.1100000000e-04 0.0000e+00 1.0000e+00
       11  1    4    4    0    0 +1.0062351818e+01 -2.5977566400e+01 -1.2915726056e+01 3.0706690801e+01 5.1100000000e-04 0.0000e+00 -1.0000e+00
      -12  1    4    4    0    0 +9.8676621924e+00 +8.5226622844e+00 -1.5645504774e+01 2.0366353360e+01 0.0000000000e+00 0.0000e+00 1.0000e+00
       12  1    3    3    0    0 -7.1428351705e+00 +5.2853003300e+00 +1.6484082223e+01 1.8726437477e+01 0.0000000000e+00 0.0000e+00 -1.0000e+00
</event>
<event>
 8      3 +1.0086356e-04 9.11880000e+01 7.81616400e-03 1.18400000e-01
      -11 -1    0    0    0    0 +0.0000000000e+00 +0.0000000000e+00 +4.5593999997e+01 4.5594000000e+01 5.1100000000e-04 0.0000e+00 1.0000e+00
       11 -1    0    0    0    0 -0.0000000000e+00 -0.0000000000e+00 -4.5593999997e+01 4.5594000000e+01 5.1100000000e-04 0.0000e+00 -1.0000e+00
       23  2    1    2    0    0 +0.0000000000e+00 +4.4408920985e-15 -3.5527136788e-15 9.1188000000e+01 9.1188000000e+01 1.2182e-14 0.0000e+00
  9990012  2    3    3    0    0 -1.3124857931e+01 +7.1147554897e+00 -1.1304663579e+01 7.2461626619e+01 7.0000073373e+01 1.2610e-05 0.0000e+00
      -11  1    4    4    0    0 +8.7016580616e+00 +1.8211068746e+00 +4.8154327476e+00 1.0110572490e+01 5.1100000000e-04 0.0000e+00 1.0000e+00
       11  1    4    4    0    0 -6.7975471507e+00 -2.2256377692e+01 +5.9073914048e+00 2.4009378765e+01 5.1100000000e-04 0.0000e+00 -1.0000e+00
       12  1    4    4    0    0 -1.5028968842e+01 +2.7550026307e+01 -2.2027487731e+01 3.8341675364e+01 0.0000000000e+00 0.0000e+00 -1.0000e+00
      -12  1    3    3    0    0 +1.3124857931e+01 -7.1147554897e+00 +1.1304663579e+01 1.8726373381e+01 0.0000000000e+00 0.0000e+00 1.0000e+00
</event>
<event>
 9      4 +1.0086356e-04 9.11880000e+01 7.81616400e-03 1.18400000e-01
      -11 -1    0    0    0    0 +0.0000000000e+00 +0.0000000000e+00 +4.5593999997e+01 4.5594000000e+01 5.1100000000e-04 0.0000e+00 1.0000e+00
       11 -1    0    0    0    0 -0.0000000000e+00 -0.0000000000e+00 -4.5593999997e+01 4.5594000000e+01 5.1100000000e-04 0.0000e+00 -1.0000e+00
       23  2    1    2    0    0 +1.7763568394e-15 +2.2204460493e-16 +0.0000000000e+00 9.1188000000e+01 9.1188000000e+01 1.0184e-13 0.0000e+00
 -9990012  2    3    3    0    0 -9.8171723466e+00 +1.9506378052e+00 +1.5827072952e+01 7.2461598878e+01 7.0000037236e+01 4.2683e-05 0.0000e+00
      -24  2    4    4    0    0 +5.1328117931e+00 +3.4923682586e+00 +1.4430579866e+01 5.7367588418e+01 5.5174778411e+01 8.4886e-14 0.0000e+00
      -11  1    4    4    0    0 -1.4949984140e+01 -1.5417304534e+00 +1.3964930863e+00 1.5094010460e+01 5.1100000000e-04 0.0000e+00 1.0000e+00
       11  1    5    5    0    0 -2.3885537282e+01 -4.8826151538e+00 +1.2425593386e+00 2.4411119924e+01 5.1100000000e-04 0.0000e+00 -1.0000e+00
      -12  1    5    5    0    0 +2.9018349075e+01 +8.3749834124e+00 +1.3188020527e+01 3.2956468494e+01 0.0000000000e+00 0.0000e+00 1.0000e+00
       12  1    3    3    0    0 +9.8171723466e+00 -1.9506378052e+00 -1.5827072952e+01 1.8726401122e+01 0.0000000000e+00 0.0000e+00 -1.0000e+00
</event>
<event>
 8      3 +1.0086356e-04 9.11880000e+01 7.81616400e-03 1.18400000e-01
      -11 -1    0    0    0    0 +0.0000000000e+00 +0.0000000000e+00 +4.5593999997e+01 4.5594000000e+01 5.1100000000e-04 0.0000e+00 1.0000e+00
       11 -1    0    0    0    0 -0.0000000000e+00 -0.0000000000e+00 -4.5593999997e+01 4.5594000000e+01 5.1100000000e-04 0.0000e+00 -1.0000e+00
       23  2    1    2    0    0 +2.2204460493e-15 -8.8817841970e-16 +0.0000000000e+00 9.1188000000e+01 9.1188000000e+01 1.9744e-13 0.0000e+00
  9990012  2    3    3    0    0 -1.7939858948e+00 +2.6667892536e+00 -1.8448556304e+01 7.2461564674e+01 6.9999992678e+01 2.1213e-04 0.0000e+00
      -11  1    4    4    0    0 +3.6269410254e+00 +1.6754731921e+01 -8.9649973683e+00 1.9345462544e+01 5.1100000000e-04 0.0000e+00 1.0000e+00
       11  1    4    4    0    0 -1.8561609065e+01 +1.0300749555e+01 +5.0659311163e+00 2.1824354075e+01 5.1100000000e-04 0.0000e+00 -1.0000e+00
       12  1    4    4    0    0 +1.3140682145e+01 -2.4388692222e+01 -1.4549490052e+01 3.1291748055e+01 0.0000000000e+00 0.0000e+00 -1.0000e+00
      -12  1    3    3    0    0 +1.7939858948e+00 -2.6667892536e+00 +1.8448556304e+01 1.8726435326e+01 0.0000000000e+00 0.0000e+00 1.0000e+00
</event>
<event>
 9      1 +1.0086356e-04 9.11880000e+01 7.81616400e-03 1.18400000e-01
      -11 -1    0    0    0    0 +0.0000000000e+00 +0.0000000000e+00 +4.5593999997e+01 4.5594000000e+01 5.1100000000e-04 0.0000e+00 1.0000e+00
       11 -1    0    0    0    0 -0.0000000000e+00 -0.0000000000e+00 -4.5593999997e+01 4.5594000000e+01 5.1100000000e-04 0.0000e+00 -1.0000e+00
       23  2    1    2    0    0 -1.7763568394e-15 +0.0000000000e+00 +1.7763568394e-15 9.1188000000e+01 9.1188000000e+01 5.2070e-14 0.0000e+00
  9990012  2    3    3    0    0 -5.4942585129e+00 +1.3386574400e+01 +1.1886605188e+01 7.2461584602e+01 7.0000018638e+01 6.8563e-05 0.0000e+00
       23  2    4    4    0    0 +4.9933446157e-01 +1.4113851231e+01 +1.9580818744e+00 6.0841444175e+01 5.9147249414e+01 3.7461e-14 0.0000e+00
      -11  1    5    5    0    0 +2.0014828166e+01 -1.3343966194e+01 -8.5885416993e+00 2.5542471084e+01 5.1100000000e-04 0.0000e+00 1.0000e+00
       11  1    5    5    0    0 -1.9515493704e+01 +2.7457817425e+01 +1.0546623574e+01 3.5298973091e+01 5.1100000000e-04 0.0000e+00 -1.0000e+00
       12  1    4    4    0    0 -5.9935929745e+00 -7.2727683037e-01 +9.9285233136e+00 1.1620140426e+01 0.0000000000e+00 0.0000e+00 -1.0000e+00
      -12  1    3    3    0    0 +5.4942585129e+00 -1.3386574400e+01 -1.1886605188e+01 1.8726415398e+01 0.0000000000e+00 0.0000e+00 1.0000e+00
</event>
<event>
 8      3 +1.0086356e-04 9.11880000e+01 7.81616400e-03 1.18400000e-01
      -11 -1    0    0    0    0 +0.0000000000e+00 +0.0000000000e+00 +4.5593999997e+01 4.5594000000e+01 5.1100000000e-04 0.0000e+00 -1.0000e+00
       11 -1    0    0    0    0 -0.0000000000e+00 -0.0000000000e+00 -4.5593999997e+01 4.5594000000e+01 5.1100000000e-04 0.0000e+00 1.0000e+00
       23  2    1    2    0    0 +0.0000000000e+00 +0.0000000000e+00 -4.4408920985e-16 9.1188000000e+01 9.1188000000e+01 2.5094e-13 0.0000e+00
  9990012  2    3    3    0    0 -1.4051587243e+01 +1.1828413639e+01 -3.6492453624e+00 7.2461669206e+01 7.0000128851e+01 1.5198e-03 0.0000e+00
      -11  1    4    4    0    0 -1.1865160926e+01 +1.5164763201e+01 -1.1554109585e+01 2.2455501226e+01 5.1100000000e-04 0.0000e+00 1.0000e+00
       11  1    4    4    0    0 -1.5251920263e+00 +1.8828442187e+01 -1.0119658829e+01 2.1429977625e+01 5.1100000000e-04 0.0000e+00 -1.0000e+00
       12  1    4    4    0    0 -6.6123429092e-01 -2.2164791749e+01 +1.8024523051e+01 2.8576190356e+01 0.0000000000e+00 0.0000e+00 -1.0000e+00
      -12  1    3    3    0    0 +1.4051587243e+01 -1.1828413639e+01 +3.6492453624e+00 1.8726330794e+01 0.0000000000e+00 0.0000e+00 1.0000e+00
</event>
<event>
 8      4 +1.0086356e-04 9.11880000e+01 7.81616400e-03 1.18400000e-01
      -11 -1    0    0    0    0 +0.0000000000e+00 +0.0000000000e+00 +4.5593999997e+01 4.5594000000e+01 5.1100000000e-04 0.0000e+00 -1.0000e+00
       11 -1    0    0    0    0 -0.0000000000e+00 -0.0000000000e+00 -4.5593999997e+01 4.5594000000e+01 5.1100000000e-04 0.0000e+00 1.0000e+00
       23  2    1    2    0    0 -3.3306690739e-16 -4.4408920985e-16 +0.0000000000e+00 9.1188000000e+01 9.1188000000e+01 2.7735e-14 0.0000e+00
 -9990012  2    3    3    0    0 +8.8142142591e-01 +2.3719008598e+00 -1.8554694191e+01 7.2461561632e+01 6.9999988716e+01 9.9563e-05 0.0000e+00
      -11  1    4    4    0    0 +2.8504538039e+00 -2.6321099249e+01 -9.5006060936e+00 2.8128044173e+01 5.1100000000e-04 0.0000e+00 1.0000e+00
       11  1    4    4    0    0 +1.3232814678e+01 +3.7485499997e+00 -8.9241387664e-03 1.3753511962e+01 5.1100000000e-04 0.0000e+00 -1.0000e+00
      -12  1    4    4    0    0 -1.5201847056e+01 +2.4944450110e+01 -9.0451639588e+00 3.0580005497e+01 0.0000000000e+00 0.0000e+00 1.0000e+00
       12  1    3    3    0    0 -8.8142142591e-01 -2.3719008598e+00 +1.8554694191e+01 1.8726438368e+01 0.0000000000e+00 0.0000e+00 -1.0000e+00
</event>
<event>
 8      4 +1.0086356e-04 9.11880000e+01 7.81616400e-03 1.18400000e-01
      -11 -1    0    0    0    0 +0.0000000000e+00 +0.0000000000e+00 +4.5593999997e+01 4.5594000000e+01 5.1100000000e-04 0.0000e+00 1.0000e+00
       11 -1    0    0    0    0 -0.0000000000e+00 -0.0000000000e+00 -4.5593999997e+01 4.5594000000e+01 5.1100000000e-04 0.0000e+00 -1.0000e+00
       23  2    1    2    0    0 +0.0000000000e+00 +1.7763568394e-15 +2.6645352591e-15 9.1188000000e+01 9.1188000000e+01 1.2899e-13 0.0000e+00
 -9990012  2    3    3    0    0 -1.3706462632e+01 -1.0320480916e+01 -7.5035527345e+00 7.2461474752e+01 6.9999875538e+01 6.9135e-05 0.0000e+00
      -11  1    4    4    0    0 -1.0685443287e+01 -1.7406763022e+00 +1.8055407887e+01 2.1052467942e+01 5.1100000000e-04 0.0000e+00 1.0000e+00
       11  1    4    4    0    0 +1.2717789096e+01 +4.1870291381e+00 +5.3748990917e+00 1.4427851988e+01 5.1100000000e-04 0.0000e+00 -1.0000e+00
      -12  1    4    4    0    0 -1.5738808441e+01 -1.2766833752e+01 -3.0933859713e+01 3.6981154822e+01 0.0000000000e+00 0.0000e+00 1.0000e+00
       12  1    3    3    0    0 +1.3706462632e+01 +1.0320480916e+01 +7.5035527345e+00 1.8726525248e+01 0.0000000000e+00 0.0000e+00 -1.0000e+00
</event>
<event>
 8      3 +1.0086356e-04 9.11880000e+01 7.81616400e-03 1.18400000e-01
      -11 -1    0    0    0    0 +0.0000000000e+00 +0.0000000000e+00 +4.5593999997e+01 4.5594000000e+01 5.1100000000e-04 0.0000e+00 1.0000e+00
       11 -1    0    0    0    0 -0.0000000000e+00 -0.0000000000e+00 -4.5593999997e+01 4.5594000000e+01 5.1100000000e-04 0.0000e+00 -1.0000e+00
       23  2    1    2    0    0 -1.7763568394e-15 +3.5527136788e-15 -2.2204460493e-15 9.1188000000e+01 9.1188000000e+01 9.6646e-14 0.0000e+00
  9990012  2    3    3    0    0 -1.4689976616e+01 +1.1043035838e+01 -3.5964218310e+00 7.2461593417e+01 7.0000030122e+01 1.3023e-05 0.0000e+00
      -11  1    4    4    0    0 +3.2519787221e+00 -1.6473485341e+01 -7.5442532111e+00 1.8408336200e+01 5.1100000000e-04 0.0000e+00 1.0000e+00
       11  1    4    4    0    0 -1.6917867435e+01 +3.4190519843e+01 +1.5091253351e+01 4.1023795700e+01 5.1100000000e-04 0.0000e+00 -1.0000e+00
       12  1    4    4    0    0 -1.0240879028e+00 -6.6739986639e+00 -1.1143421971e+01 1.3029461517e+01 0.0000000000e+00 0.0000e+00 -1.0000e+00
      -12  1    3    3    0    0 +1.4689976616e+01 -1.1043035838e+01 +3.5964218310e+00 1.8726406583e+01 0.0000000000e+00 0.0000e+00 1.0000e+00
</event>
<event>
 9      4 +1.0086356e-04 9.11880000e+01 7.81616400e-03 1.18400000e-01
      -11 -1    0    0    0    0 +0.0000000000e+00 +0.0000000000e+00 +4.5593999997e+01 4.5594000000e+01 5.1100000000e-04 0.0000e+00 1.0000e+00
       11 -1    0    0    0    0 -0.0000000000e+00 -0.0000000000e+00 -4.5593999997e+01 4.5594000000e+01 5.1100000000e-04 0.0000e+00 -1.0000e+00
       23  2    1    2    0    0 +3.5527136788e-15 +0.0000000000e+00 -2.2204460493e-16 9.1188000000e+01 9.1188000000e+01 3.4432e-14 0.0000e+00
 -9990012  2    3    3    0    0 +1.2394377924e+01 -1.3929694205e+01 -1.7385852053e+00 7.2461557111e+01 6.9999982826e+01 1.7028e-04 0.0000e+00
      -24  2    4    4    0    0 +1.5359980681e+01 -2.1363733875e+01 +4.8477360577e-01 6.4154748446e+01 5.8508619973e+01 5.3688e-14 0.0000e+00
      -11  1    4    4    0    0 -2.9656027572e+00 +7.4340396697e+00 -2.2233588111e+00 8.3068086644e+00 5.1100000000e-04 0.0000e+00 1.0000e+00
       11  1    5    5    0    0 -8.0306824477e+00 -3.0091967290e+01 -1.5214699805e+01 3.4662738587e+01 5.1100000000e-04 0.0000e+00 -1.0000e+00
      -12  1    5    5    0    0 +2.3390663129e+01 +8.7282334155e+00 +1.5699473411e+01 2.9492009859e+01 0.0000000000e+00 0.0000e+00 1.0000e+00
       12  1    3    3    0    0 -1.2394377924e+01 +1.3929694205e+01 +1.7385852053e+00 1.8726442889e+01 0.0000000000e+00 0.0000e+00 -1.0000e+00
</event>
<event>
 9      4 +1.0086356e-04 9.11880000e+01 7.81616400e-03 1.18400000e-01
      -11 -1    0    0    0    0 +0.0000000000e+00 +0.0000000000e+00 +4.5593999997e+01 4.5594000000e+01 5.1100000000e-04 0.0000e+00 1.0000e+00
       11 -1    0    0    0    0 -0.0000000000e+00 -0.0000000000e+00 -4.5593999997e+01 4.5594000000e+01 5.1100000000e-04 0.0000e+00 -1.0000e+00
       23  2    1    2    0    0 +0.0000000000e+00 +7.1054273576e-15 -1.7763568394e-15 9.1188000000e+01 9.1188000000e+01 7.2362e-15 0.0000e+00
 -9990012  2    3    3    0    0 +1.0868325991e+01 -1.4022411116e+01 +5.9942015566e+00 7.2461575471e+01 7.0000006743e+01 2.2398e-04 0.0000e+00
      -24  2    4    4    0    0 +9.4123268854e+00 -1.6344084889e+01 -3.3416245851e+00 6.2731839990e+01 5.9736055155e+01 3.2111e-14 0.0000e+00
      -11  1    4    4    0    0 +1.4559991061e+00 +2.3216737731e+00 +9.3358261417e+00 9.7297354802e+00 5.1100000000e-04 0.0000e+00 1.0000e+00
       11  1    5    5    0    0 +2.4293722815e+01 +9.7054936154e+00 -1.5447261251e+01 3.0380906092e+01 5.1100000000e-04 0.0000e+00 -1.0000e+00
      -12  1    5    5    0    0 -1.4881395930e+01 -2.6049578504e+01 +1.2105636666e+01 3.2350933899e+01 0.0000000000e+00 0.0000e+00 1.0000e+00
       12  1    3    3    0    0 -1.0868325991e+01 +1.4022411116e+01 -5.9942015566e+00 1.8726424529e+01 0.0000000000e+00 0.0000e+00 -1.0000e+00
</event>
<event>
 8      4 +1.0086356e-04 9.11880000e+01 7.81616400e-03 1.18400000e-01
      -11 -1    0    0    0    0 +0.0000000000e+00 +0.0000000000e+00 +4.5593999997e+01 4.5594000000e+01 5.1100000000e-04 0.0000e+00 -1.0000e+00
       11 -1    0    0    0    0 -0.0000000000e+00 -0.0000000000e+00 -4.5593999997e+01 4.5594000000e+01 5.1100000000e-04 0.0000e+00 1.0000e+00
       23  2    1    2    0    0 -8.8817841970e-16 +2.6645352591e-15 +0.0000000000e+00 9.1188000000e+01 9.1188000000e+01 5.2264e-14 0.0000e+00
 -9990012  2    3    3    0    0 -7.5859373722e+00 +5.4444090886e+00 -1.6232388998e+01 7.2461588472e+01 7.0000023680e+01 7.6121e-05 0.0000e+00
      -11  1    4    4    0    0 +1.8860359995e+01 +2.6636549503e+01 -1.2314958229e+01 3.4883766210e+01 5.1100000000e-04 0.0000e+00 1.0000e+00
       11  1    4    4    0    0 -1.9182130069e+01 -1.2638029765e+01 +4.6771623931e+00 2.3442477656e+01 5.1100000000e-04 0.0000e+00 -1.0000e+00
      -12  1    4    4    0    0 -7.2641672974e+00 -8.5541106493e+00 -8.5945931619e+00 1.4135344606e+01 0.0000000000e+00 0.0000e+00 1.0000e+00
       12  1    3    3    0    0 +7.5859373722e+00 -5.4444090886e+00 +1.6232388998e+01 1.8726411528e+01 0.0000000000e+00 0.0000e+00 -1.0000e+00
</event>
<event>
 8      4 +1.0086356e-04 9.11880000e+01 7.81616400e-03 1.18400000e-01
      -11 -1    0    0    0    0 +0.0000000000e+00 +0.0000000000e+00 +4.5593999997e+01 4.5594000000e+01 5.1100000000e-04 0.0000e+00 -1.0000e+00
       11 -1    0    0    0    0 -0.0000000000e+00 -0.0000000000e+00 -4.5593999997e+01 4.5594000000e+01 5.1100000000e-04 0.0000e+00 1.0000e+00
       23  2    1    2    0    0 +0.0000000000e+00 -3.5527136788e-15 -1.7763568394e-15 9.1188000000e+01 9.1188000000e+01 2.9244e-13 0.0000e+00
 -9990012  2    3    3    0    0 -2.6173073679e+00 -1.0632422966e+01 -1.5191592596e+01 7.2461462638e+01 6.9999859757e+01 1.8505e-04 0.0000e+00
      -11  1    4    4    0    0 +1.2097215479e+00 +4.9416829175e+00 -2.2613174780e+01 2.3178423807e+01 5.1100000000e-04 0.0000e+00 1.0000e+00
       11  1    4    4    0    0 +1.0767545054e+01 +1.2838783597e+01 +1.8407127126e+00 1.6857123547e+01 5.1100000000e-04 0.0000e+00 -1.0000e+00
      -12  1    4    4    0    0 -1.4594573969e+01 -2.8412889480e+01 +5.5808694713e+00 3.2425915284e+01 0.0000000000e+00 0.0000e+00 1.0000e+00
       12  1    3    3    0    0 +2.6173073679e+00 +1.0632422966e+01 +1.5191592596e+01 1.8726537362e+01 0.0000000000e+00 0.0000e+00 -1.0000e+00
</event>
<event>
 9      3 +1.0086356e-04 9.11880000e+01 7.81616400e-03 1.18400000e-01
      -11 -1    0    0    0    0 +0.0000000000e+00 +0.0000000000e+00 +4.5593999997e+01 4.5594000000e+01 5.1100000000e-04 0.0000e+00 1.0000e+00
       11 -1    0    0    0    0 -0.0000000000e+00 -0.0000000000e+00 -4.5593999997e+01 4.5594000000e+01 5.1100000000e-04 0.0000e+00 -1.0000e+00
       23  2    1    2    0    0 +0.0000000000e+00 +8.8817841970e-16 +0.0000000000e+00 9.1188000000e+01 9.1188000000e+01 1.9443e-14 0.0000e+00
  9990012  2    3    3    0    0 +1.6248089829e+01 -4.0727763716e+00 -8.3724499442e+00 7.2461391964e+01 6.9999767691e+01 2.6118e-04 0.0000e+00
       24  2    4    4    0    0 +6.1499892165e+00 -1.3690124143e+01 -4.2088944804e+00 5.7908034671e+01 5.5770815131e+01 1.1293e-13 0.0000e+00
      -11  1    5    5    0    0 +2.9228815549e+01 -1.3342765528e+01 +5.9727735516e+00 3.2680683507e+01 5.1100000000e-04 0.0000e+00 1.0000e+00
       11  1    4    4    0    0 +1.0098100612e+01 +9.6173477709e+00 -4.1635554638e+00 1.4553357293e+01 5.1100000000e-04 0.0000e+00 -1.0000e+00
       12  1    5    5    0    0 -2.3078826332e+01 -3.4735861503e-01 -1.0181668032e+01 2.5227351165e+01 0.0000000000e+00 0.0000e+00 -1.0000e+00
      -12  1    3    3    0    0 -1.6248089829e+01 +4.0727763716e+00 +8.3724499442e+00 1.8726608036e+01 0.0000000000e+00 0.0000e+00 1.0000e+00
</event>
<event>
 8      3 +1.0086356e-04 9.11880000e+01 7.81616400e-03 1.18400000e-01
      -11 -1    0    0    0    0 +0.0000000000e+00 +0.0000000000e+00 +4.5593999997e+01 4.5594000000e+01 5.1100000000e-04 0.0000e+00 1.0000e+00
       11 -1    0    0    0    0 -0.0000000000e+00 -0.0000000000e+00 -4.5593999997e+01 4.5594000000e+01 5.1100000000e-04 0.0000e+00 -1.0000e+00
       23  2    1    2    0    0 +0.0000000000e+00 -8.8817841970e-16 +0.0000000000e+00 9.1188000000e+01 9.1188000000e+01 1.2121e-14 0.0000e+00
  9990012  2    3    3    0    0 -9.7213102410e+00 +5.3523514872e+00 -1.5084009261e+01 7.2461578168e+01 7.0000010257e+01 6.0067e-05 0.0000e+00
      -11  1    4    4    0    0 +9.5311524882e+00 +1.8724282558e+01 -4.2849535683e+00 2.1443004743e+01 5.1100000000e-04 0.0000e+00 1.0000e+00
       11  1    4    4    0    0 -2.7830455301e+01 -5.1348220258e+00 +7.4244505731e+00 2.9257872549e+01 5.1100000000e-04 0.0000e+00 -1.0000e+00
       12  1    4    4    0    0 +8.5779925720e+00 -8.2371090452e+00 -1.8223506266e+01 2.1760700876e+01 0.0000000000e+00 0.0000e+00 -1.0000e+00
      -12  1    3    3    0    0 +9.7213102410e+00 -5.3523514872e+00 +1.5084009261e+01 1.8726421832e+01 0.0000000000e+00 0.0000e+00 1.0000e+00
</event>
<event>
 8      3 +1.0086356e-04 9.11880000e+01 7.81616400e-03 1.18400000e-01
      -11 -1    0    0    0    0 +0.0000000000e+00 +0.0000000000e+00 +4.5593999997e+01 4.5594000000e+01 5.1100000000e-04 0.0000e+00 -1.0000e+00
       11 -1    0    0    0    0 -0.0000000000e+00 -0.0000000000e+00 -4.5593999997e+01 4.5594000000e+01 5.1100000000e-04 0.0000e+00 1.0000e+00
       23  2    1    2    0    0 +3.5527136788e-15 +0.0000000000e+00 +0.0000000000e+00 9.1188000000e+01 9.1188000000e+01 3.4109e-14 0.0000e+00
  9990012  2    3    3    0    0 -1.5964577015e+01 +8.5249657250e+00 -4.8099000250e+00 7.2461604240e+01 7.0000044221e+01 5.1845e-04 0.0000e+00
      -11  1    4    4    0    0 -2.6834992499e+01 +7.7822304845e+00 +1.8291549890e+01 3.3395519630e+01 5.1100000000e-04 0.0000e+00 -1.0000e+00
       11  1    4    4    0    0 -4.9976148370e+00 -1.8953544508e+00 -2.2331067555e+01 2.2961818329e+01 5.1100000000e-04 0.0000e+00 1.0000e+00
       12  1    4    4    0    0 +1.5868030321e+01 +2.6380896913e+00 -7.7038236008e-01 1.6104266281e+01 0.0000000000e+00 0.0000e+00 -1.0000e+00
      -12  1    3    3    0    0 +1.5964577015e+01 -8.5249657250e+00 +4.8099000250e+00 1.8726395760e+01 0.0000000000e+00 0.0000e+00 1.0000e+00
</event>
<event>
 9      3 +1.0086356e-04 9.11880000e+01 7.81616400e-03 1.18400000e-01
      -11 -1    0    0    0    0 +0.0000000000e+00 +0.0000000000e+00 +4.5593999997e+01 4.5594000000e+01 5.1100000000e-04 0.0000e+00 -1.0000e+00
       11 -1    0    0    0    0 -0.0000000000e+00 -0.0000000000e+00 -4.5593999997e+01 4.5594000000e+01 5.1100000000e-04 0.0000e+00 1.0000e+00
       23  2    1    2    0    0 +1.7763568394e-15 +1.7763568394e-15 -6.6613381478e-16 9.1188000000e+01 9.1188000000e+01 4.5591e-14 0.0000e+00
  9990012  2    3    3    0    0 +1.5795663642e+01 -9.9617140893e+00 +1.3925886833e+00 7.2461600433e+01 7.0000039262e+01 1.1344e-04 0.0000e+00
       24  2    4    4    0    0 +1.8991322152e+01 -4.3544705161e+00 -2.0766851700e-01 6.5812221728e+01 6.2861543665e+01 6.9854e-14 0.0000e+00
      -11  1    5    5    0    0 +8.5818366444e-01 +2.7367501346e+01 -7.8470875235e+00 2.8483212459e+01 5.1100000000e-04 0.0000e+00 1.0000e+00
       11  1    4    4    0    0 -3.1956585099e+00 -5.6072435733e+00 +1.6002572003e+00 6.6493787056e+00 5.1100000000e-04 0.0000e+00 -1.0000e+00
       12  1    5    5    0    0 +1.8133138487e+01 -3.1721971862e+01 +7.6394190065e+00 3.7329009269e+01 0.0000000000e+00 0.0000e+00 -1.0000e+00
      -12  1    3    3    0    0 -1.5795663642e+01 +9.9617140893e+00 -1.3925886833e+00 1.8726399567e+01 0.0000000000e+00 0.0000e+00 1.0000e+00
</event>
<event>
 8      4 +1.0086356e-04 9.11880000e+01 7.81616400e-03 1.18400000e-01
      -11 -1    0    0    0    0 +0.0000000000e+00 +0.0000000000e+00 +4.5593999997e+01 4.5594000000e+01 5.1100000000e-04 0.0000e+00 1.0000e+00
       11 -1    0    0    0    0 -0.0000000000e+00 -0.0000000000e+00 -4.5593999997e+01 4.5594000000e+01 5.1100000000e-04 0.0000e+00 -1.0000e+00
       23  2    1    2    0    0 +8.8817841970e-16 +0.0000000000e+00 +0.0000000000e+00 9.1188000000e+01 9.1188000000e+01 1.2068e-13 0.0000e+00
 -9990012  2    3    3    0    0 +6.1173695687e+00 +5.6880211399e+00 -1.6760218804e+01 7.2461528648e+01 6.9999945748e+01 2.1522e-04 0.0000e+00
      -11  1    4    4    0    0 +2.1163639763e+01 +7.5320696134e+00 +7.4456459137e+00 2.3665784670e+01 5.1100000000e-04 0.0000e+00 1.0000e+00
       11  1    4    4    0    0 +1.1473689589e+01 -7.3727103186e+00 -2.0340459048e+00 1.3789117203e+01 5.1100000000e-04 0.0000e+00 -1.0000e+00
      -12  1    4    4    0    0 -2.6519959784e+01 +5.5286618451e+00 -2.2171818813e+01 3.5006626776e+01 0.0000000000e+00 0.0000e+00 1.0000e+00
       12  1    3    3    0    0 -6.1173695687e+00 -5.6880211399e+00 +1.6760218804e+01 1.8726471352e+01 0.0000000000e+00 0.0000e+00 -1.0000e+00
</event>
<event>
 8      3 +1.0086356e-04 9.11880000e+01 7.81616400e-03 1.18400000e-01
      -11 -1    0    0    0    0 +0.0000000000e+00 +0.0000000000e+00 +4.5593999997e+01 4.5594000000e+01 5.1100000000e-04 0.0000e+00 -1.0000e+00
       11 -1    0    0    0    0 -0.0000000000e+00 -0.0000000000e+00 -4.5593999997e+01 4.5594000000e+01 5.1100000000e-04 0.0000e+00 1.0000e+00
       23  2    1    2    0    0 +0.0000000000e+00 +8.8817841970e-16 +8.8817841970e-16 9.1188000000e+01 9.1188000000e+01 3.0356e-14 0.0000e+00
  9990012  2    3    3    0    0 -1.7062501596e+01 -3.6636691234e+00 +6.7917977242e+00 7.2461549496e+01 6.9999972906e+01 1.6674e-05 0.0000e+00
      -11  1    4    4    0    0 -1.2721167602e+01 +2.5110493357e+00 -1.2719365152e+01 1.8163582358e+01 5.1100000000e-04 0.0000e+00 1.0000e+00
       11  1    4    4    0    0 -1.2061472311e+01 -2.4127267795e+01 +4.1877150897e-01 2.6977389336e+01 5.1100000000e-04 0.0000e+00 -1.0000e+00
       12  1    4    4    0    0 +7.7201383178e+00 +1.7952549335e+01 +1.9092391368e+01 2.7320577802e+01 0.0000000000e+00 0.0000e+00 -1.0000e+00
      -12  1    3    3    0    0 +1.7062501596e+01 +3.6636691234e+00 -6.7917977242e+00 1.8726450504e+01 0.0000000000e+00 0.0000e+00 1.0000e+00
</event>
<event>
 8      4 +1.0086356e-04 9.11880000e+01 7.81616400e-03 1.18400000e-01
      -11 -1    0    0    0    0 +0.0000000000e+00 +0.0000000000e+00 +4.5593999997e+01 4.5594000000e+01 5.1100000000e-04 0.0000e+00 1.0000e+00
       11 -1    0    0    0    0 -0.0000000000e+00 -0.0000000000e+00 -4.5593999997e+01 4.5594000000e+01 5.1100000000e-04 0.0000e+00 -1.0000e+00
       23  2    1    2    0    0 +3.3306690739e-16 -3.5527136788e-15 -2.6645352591e-15 9.1188000000e+01 9.1188000000e+01 1.0470e-13 0.0000e+00
 -9990012  2    3    3    0    0 +6.0102727602e-01 +1.8496128708e+01 +2.8653649060e+00 7.2461592790e+01 7.0000029304e+01 1.2857e-04 0.0000e+00
      -11  1    4    4    0    0 -2.3894733050e+00 -5.3148779752e+00 -1.9270656347e+01 2.0132454069e+01 5.1100000000e-04 0.0000e+00 1.0000e+00
       11  1    4    4    0    0 +1.3825977549e+01 +2.8296170644e+00 -6.2247573522e+00 1.5424396010e+01 5.1100000000e-04 0.0000e+00 -1.0000e+00
      -12  1    4    4    0    0 -1.0835476968e+01 +2.0981389619e+01 +2.8360778605e+01 3.6904742710e+01 0.0000000000e+00 0.0000e+00 1.0000e+00
       12  1    3    3    0    0 -6.0102727602e-01 -1.8496128708e+01 -2.8653649060e+00 1.8726407210e+01 0.0000000000e+00 0.0000e+00 -1.0000e+00
</event>
<event>
 8      4 +1.0086356e-04 9.11880000e+01 7.81616400e-03 1.18400000e-01
      -11 -1    0    0    0    0 +0.0000000000e+00 +0.0000000000e+00 +4.5593999997e+01 4.5594000000e+01 5.1100000000e-04 0.0000e+00 -1.0000e+00
       11 -1    0    0    0    0 -0.0000000000e+00 -0.0000000000e+00 -4.5593999997e+01 4.5594000000e+01 5.1100000000e-04 0.0000e+00 1.0000e+00
       23  2    1    2    0    0 +1.7763568394e-15 +0.0000000000e+00 +0.0000000000e+00 9.1188000000e+01 9.1188000000e+01 1.8605e-13 0.0000e+00
 -9990012  2    3    3    0    0 -1.5922842567e+01 +8.8113793108e+00 +4.4160502631e+00 7.2461579608e+01 7.0000012133e+01 1.9767e-04 0.0000e+00
      -11  1    4    4    0    0 -3.0391096175e+01 -2.4007196228e+00 +9.8413029643e+00 3.2034878269e+01 5.1100000000e-04 0.0000e+00 1.0000e+00
       11  1    4    4    0    0 -4.5353566282e+00 +1.7622574787e+01 +3.4057925435e+00 1.8512807053e+01 5.1100000000e-04 0.0000e+00 -1.0000e+00
      -12  1    4    4    0    0 +1.9003610236e+01 -6.4104758537e+00 -8.8310452447e+00 2.1913894286e+01 0.0000000000e+00 0.0000e+00 1.0000e+00
       12  1    3    3    0    0 +1.5922842567e+01 -8.8113793108e+00 -4.4160502631e+00 1.8726420392e+01 0.0000000000e+00 0.0000e+00 -1.0000e+00
</event>
<event>
 9      4 +1.0086356e-04 9.11880000e+01 7.81616400e-03 1.18400000e-01
      -11 -1    0    0    0    0 +0.0000000000e+00 +0.0000000000e+00 +4.5593999997e+01 4.5594000000e+01 5.1100000000e-04 0.0000e+00 1.0000e+00
       11 -1    0    0    0    0 -0.0000000000e+00 -0.0000000000e+00 -4.5593999997e+01 4.5594000000e+01 5.1100000000e-04 0.0000e+00 -1.0000e+00
       23  2    1    2    0    0 +0.0000000000e+00 -1.7763568394e-15 +1.7763568394e-15 9.1188000000e+01 9.1188000000e+01 2.1962e-13 0.0000e+00
 -9990012  2    3    3    0    0 +1.5080542295e+00 -1.2775007511e+01 +1.3608841578e+01 7.2461665240e+01 7.0000123684e+01 8.4384e-05 0.0000e+00
      -24  2    4    4    0    0 -9.9818796222e+00 -1.7447453811e+01 +3.3601319528e+00 5.6371718578e+01 5.2558810902e+01 2.7987e-14 0.0000e+00
      -11  1    4    4    0    0 +1.1489933852e+01 +4.6724463002e+00 +1.0248709625e+01 1.6089946662e+01 5.1100000000e-04 0.0000e+00 1.0000e+00
       11  1    5    5    0    0 +1.5960145252e+01 -2.4538963027e+01 +3.4706640560e+00 2.9477660222e+01 5.1100000000e-04 0.0000e+00 -1.0000e+00
      -12  1    5    5    0    0 -2.5942024874e+01 +7.0915092155e+00 -1.1053210329e-01 2.6894058356e+01 0.0000000000e+00 0.0000e+00 1.0000e+00
       12  1    3    3    0    0 -1.5080542295e+00 +1.2775007511e+01 -1.3608841578e+01 1.8726334760e+01 0.0000000000e+00 0.0000e+00 -1.0000e+00
</event>
<event>
 8      3 +1.0086356e-04 9.11880000e+01 7.81616400e-03 1.18400000e-01
      -11 -1    0    0    0    0 +0.0000000000e+00 +0.0000000000e+00 +4.5593999997e+01 4.5594000000e+01 5.1100000000e-04 0.0000e+00 -1.0000e+00
       11 -1    0    0    0    0 -0.0000000000e+00 -0.0000000000e+00 -4.5593999997e+01 4.5594000000e+01 5.1100000000e-04 0.0000e+00 1.0000e+00
       23  2    1    2    0    0 +0.0000000000e+00 +0.0000000000e+00 +0.0000000000e+00 9.1188000000e+01 9.1188000000e+01 6.4886e-14 0.0000e+00
  9990012  2    3    3    0    0 +1.2720230395e+01 -1.2457074457e+01 +5.8047529823e+00 7.2461598249e+01 7.0000036417e+01 1.6100e-04 0.0000e+00
      -11  1    4    4    0    0 -1.6157964872e+01 +2.1873771087e+00 +3.5026757593e+00 1.6677325480e+01 5.1100000000e-04 0.0000e+00 1.0000e+00
       11  1    4    4    0    0 +9.7022671155e+00 -1.3840163008e+00 +2.2751412451e+01 2.4772489925e+01 5.1100000000e-04 0.0000e+00 -1.0000e+00
       12  1    4    4    0    0 +1.9175928152e+01 -1.3260435265e+01 -2.0449335228e+01 3.1011782844e+01 0.0000000000e+00 0.0000e+00 -1.0000e+00
      -12  1    3    3    0    0 -1.2720230395e+01 +1.2457074457e+01 -5.8047529823e+00 1.8726401751e+01 0.0000000000e+00 0.0000e+00 1.0000e+00
</event>
<event>
 9      4 +1.0086356e-04 9.11880000e+01 7.81616400e-03 1.18400000e-01
      -11 -1    0    0    0    0 +0.0000000000e+00 +0.0000000000e+00 +4.5593999997e+01 4.5594000000e+01 5.1100000000e-04 0.0000e+00 1.0000e+00
       11 -1    0    0    0    0 -0.0000000000e+00 -0.0000000000e+00 -4.5593999997e+01 4.5594000000e+01 5.1100000000e-04 0.0000e+00 -1.0000e+00
       23  2    1    2    0    0 +0.0000000000e+00 +1.7763568394e-15 -7.1054273576e-15 9.1188000000e+01 9.1188000000e+01 2.0232e-14 0.0000e+00
 -9990012  2    3    3    0    0 +3.8991323411e+00 -8.0523661909e+00 +1.6450991348e+01 7.2461576139e+01 7.0000007614e+01 3.7821e-04 0.0000e+00
      -24  2    4    4    0    0 +1.1884812280e+00 -2.2492561177e+00 +2.0125398448e+01 6.5077472688e+01 6.1835055980e+01 1.1416e-14 0.0000e+00
      -11  1    4    4    0    0 +2.7106511130e+00 -5.8031100732e+00 -3.6744071003e+00 7.3841034512e+00 5.1100000000e-04 0.0000e+00 1.0000e+00
       11  1    5    5    0    0 +1.6626685414e+01 -1.3470777502e+01 -1.4284857676e+01 2.5728693582e+01 5.1100000000e-04 0.0000e+00 -1.0000e+00
      -12  1    5    5    0    0 -1.5438204186e+01 +1.1221521384e+01 +3.4410256124e+01 3.9348779106e+01 0.0000000000e+00 0.0000e+00 1.0000e+00
       12  1    3    3    0    0 -3.8991323411e+00 +8.0523661909e+00 -1.6450991348e+01 1.8726423861e+01 0.0000000000e+00 0.0000e+00 -1.0000e+00
</event>
<event>
 9      4 +1.0086356e-04 9.11880000e+01 7.81616400e-03 1.18400000e-01
      -11 -1    0    0    0    0 +0.0000000000e+00 +0.0000000000e+00 +4.5593999997e+01 4.5594000000e+01 5.1100000000e-04 0.0000e+00 1.0000e+00
       11 -1    0    0    0    0 -0.0000000000e+00 -0.0000000000e+00 -4.5593999997e+01 4.5594000000e+01 5.1100000000e-04 0.0000e+00 -1.0000e+00
       23  2    1    2    0    0 -1.7763568394e-15 -1.7763568394e-15 +0.0000000000e+00 9.1188000000e+01 9.1188000000e+01 5.9997e-14 0.0000e+00
 -9990012  2    3    3    0    0 +3.9834272354e+00 +1.3886244938e+01 +1.1915774885e+01 7.2461516558e+01 6.9999929998e+01 1.5561e-04 0.0000e+00
      -24  2    4    4    0    0 +5.0240359622e-01 +2.3980827990e+01 +2.1337536352e+00 5.7980284823e+01 5.2743037485e+01 3.1214e-14 0.0000e+00
      -11  1    4    4    0    0 +3.4810236391e+00 -1.0094583052e+01 +9.7820212493e+00 1.4481231735e+01 5.1100000000e-04 0.0000e+00 1.0000e+00
       11  1    5    5    0    0 -2.1195679664e+01 +9.4938888053e+00 -1.4178519845e+01 2.7210681475e+01 5.1100000000e-04 0.0000e+00 -1.0000e+00
      -12  1    5    5    0    0 +2.1698083261e+01 +1.4486939184e+01 +1.6312273480e+01 3.0769603348e+01 0.0000000000e+00 0.0000e+00 1.0000e+00
       12  1    3    3    0    0 -3.9834272354e+00 -1.3886244938e+01 -1.1915774885e+01 1.8726483442e+01 0.0000000000e+00 0.0000e+00 -1.0000e+00
</event>
<event>
 8      4 +1.0086356e-04 9.11880000e+01 7.81616400e-03 1.18400000e-01
      -11 -1    0    0    0    0 +0.0000000000e+00 +0.0000000000e+00 +4.5593999997e+01 4.5594000000e+01 5.1100000000e-04 0.0000e+00 -1.0000e+00
       11 -1    0    0    0    0 -0.0000000000e+00 -0.0000000000e+00 -4.5593999997e+01 4.5594000000e+01 5.1100000000e-04 0.0000e+00 1.0000e+00
       23  2    1    2    0    0 -2.4424906542e-15 +0.0000000000e+00 +0.0000000000e+00 9.1188000000e+01 9.1188000000e+01 9.9602e-14 0.0000e+00
 -9990012  2    3    3    0    0 +1.3352015982e+00 +1.5768225083e+01 -1.0012878876e+01 7.2461616767e+01 7.0000060540e+01 7.2628e-04 0.0000e+00
      -11  1    4    4    0    0 +1.0462035074e+01 +2.9764216583e+00 -3.1437500521e+01 3.3266044295e+01 5.1100000000e-04 0.0000e+00 1.0000e+00
       11  1    4    4    0    0 -6.8856138725e+00 +1.3261026289e+01 -2.5101830943e+00 1.5151485606e+01 5.1100000000e-04 0.0000e+00 -1.0000e+00
      -12  1    4    4    0    0 -2.2412196032e+00 -4.6922286367e-01 +2.3934804739e+01 2.4044086867e+01 0.0000000000e+00 0.0000e+00 1.0000e+00
       12  1    3    3    0    0 -1.3352015982e+00 -1.5768225083e+01 +1.0012878876e+01 1.8726383233e+01 0.0000000000e+00 0.0000e+00 -1.0000e+00
</event>
<event>
 9      4 +1.0086356e-04 9.11880000e+01 7.81616400e-03 1.18400000e-01
      -11 -1    0    0    0    0 +0.0000000000e+00 +0.0000000000e+00 +4.5593999997e+01 4.5594000000e+01 5.1100000000e-04 0.0000e+00 1.0000e+00
       11 -1    0    0    0    0 -0.0000000000e+00 -0.0000000000e+00 -4.5593999997e+01 4.5594000000e+01 5.1100000000e-04 0.0000e+00 -1.0000e+00
       23  2    1    2    0    0 +8.8817841970e-16 +0.0000000000e+00 -3.5527136788e-15 9.1188000000e+01 9.1188000000e+01 3.2875e-14 0.0000e+00
 -9990012  2    3    3    0    0 -3.7837465413e+00 -1.0690892003e+01 +1.4901827929e+01 7.2461644633e+01 7.0000096840e+01 3.5040e-04 0.0000e+00
      -24  2    4    4    0    0 -4.0070444887e+00 -2.7707761198e+00 -3.7154946522e+00 5.2228434360e+01 5.1867820943e+01 6.1853e-15 0.0000e+00
      -11  1    4    4    0    0 +2.2329794738e-01 -7.9201158834e+00 +1.8617322581e+01 2.0233210273e+01 5.1100000000e-04 0.0000e+00 1.0000e+00
       11  1    5    5    0    0 -8.2907001623e+00 -1.9000088014e+01 +1.6108351355e+01 2.6252962449e+01 5.1100000000e-04 0.0000e+00 -1.0000e+00
      -12  1    5    5    0    0 +4.2836556736e+00 +1.6229311894e+01 -1.9823846008e+01 2.5975471911e+01 0.0000000000e+00 0.0000e+00 1.0000e+00
       12  1    3    3    0    0 +3.7837465413e+00 +1.0690892003e+01 -1.4901827929e+01 1.8726355367e+01 0.0000000000e+00 0.0000e+00 -1.0000e+00
</event>
<event>
 9      3 +1.0086356e-04 9.11880000e+01 7.81616400e-03 1.18400000e-01
      -11 -1    0    0    0    0 +0.0000000000e+00 +0.0000000000e+00 +4.5593999997e+01 4.5594000000e+01 5.1100000000e-04 0.0000e+00 1.0000e+00
       11 -1    0    0    0    0 -0.0000000000e+00 -0.0000000000e+00 -4.5593999997e+01 4.5594000000e+01 5.1100000000e-04 0.0000e+00 -1.0000e+00
       23  2    1    2    0    0 +0.0000000000e+00 +0.0000000000e+00 -3.5527136788e-15 9.1188000000e+01 9.1188000000e+01 1.0783e-13 0.0000e+00
  9990012  2    3    3    0    0 -1.0165149640e+01 -4.0260070002e+00 -1.5203239431e+01 7.2461615171e+01 7.0000058461e+01 3.9803e-06 0.0000e+00
       24  2    4    4    0    0 -8.8066516376e+00 +4.5252048829e+00 -2.2942163407e+01 6.0848704853e+01 5.5481415161e+01 1.5252e-13 0.0000e+00
      -11  1    5    5    0    0 +6.9605017143e+00 -1.1284743773e+01 +1.2978695137e+01 1.8553720755e+01 5.1100000000e-04 0.0000e+00 1.0000e+00
       11  1    4    4    0    0 -1.3584980021e+00 -8.5512118831e+00 +7.7389239762e+00 1.1612910318e+01 5.1100000000e-04 0.0000e+00 -1.0000e+00
       12  1    5    5    0    0 -1.5767153352e+01 +1.5809948656e+01 -3.5920858544e+01 4.2294984098e+01 0.0000000000e+00 0.0000e+00 -1.0000e+00
      -12  1    3    3    0    0 +1.0165149640e+01 +4.0260070002e+00 +1.5203239431e+01 1.8726384829e+01 0.0000000000e+00 0.0000e+00 1.0000e+00
</event>
<event>
 9      3 +1.0086356e-04 9.11880000e+01 7.81616400e-03 1.18400000e-01
      -11 -1    0    0    0    0 +0.0000000000e+00 +0.0000000000e+00 +4.5593999997e+01 4.5594000000e+01 5.1100000000e-04 0.0000e+00 -1.0000e+00
       11 -1    0    0    0    0 -0.0000000000e+00 -0.0000000000e+00 -4.5593999997e+01 4.5594000000e+01 5.1100000000e-04 0.0000e+00 1.0000e+00
       23  2    1    2    0    0 -1.7763568394e-15 +0.0000000000e+00 +8.8817841970e-16 9.1188000000e+01 9.1188000000e+01 3.4910e-15 0.0000e+00
  9990012  2    3    3    0    0 -1.3983438466e+01 +1.0043827834e+01 +7.3664444782e+00 7.2461560585e+01 6.9999987352e+01 2.3787e-04 0.0000e+00
       24  2    4    4    0    0 -1.9652693753e+00 +7.4277948510e+00 +5.4266305765e+00 6.0009938397e+01 5.9268119313e+01 1.2312e-13 0.0000e+00
      -11  1    5    5    0    0 -2.6699007043e+01 -7.5431216018e+00 -6.8856057338e+00 2.8585787153e+01 5.1100000000e-04 0.0000e+00 1.0000e+00
       11  1    4    4    0    0 -1.2018169091e+01 +2.6160329835e+00 +1.9398139017e+00 1.2451622188e+01 5.1100000000e-04 0.0000e+00 -1.0000e+00
       12  1    5    5    0    0 +2.4733737668e+01 +1.4970916453e+01 +1.2312236310e+01 3.1424151244e+01 0.0000000000e+00 0.0000e+00 -1.0000e+00
      -12  1    3    3    0    0 +1.3983438466e+01 -1.0043827834e+01 -7.3664444782e+00 1.8726439415e+01 0.0000000000e+00 0.0000e+00 1.0000e+00
</event>
<event>
 8      3 +1.0086356e-04 9.11880000e+01 7.81616400e-03 1.18400000e-01
      -11 -1    0    0    0    0 +0.0000000000e+00 +0.0000000000e+00 +4.5593999997e+01 4.5594000000e+01 5.1100000000e-04 0.0000e+00 -1.0000e+00
       11 -1    0    0    0    0 -0.0000000000e+00 -0.0000000000e+00 -4.5593999997e+01 4.5594000000e+01 5.1100000000e-04 0.0000e+00 1.0000e+00
       23  2    1    2    0    0 +0.0000000000e+00 -1.7763568394e-15 +1.7763568394e-15 9.1188000000e+01 9.1188000000e+01 2.8807e-14 0.0000e+00
  9990012  2    3    3    0    0 -1.1892081005e+01 -9.6198743397e+00 +1.0803486940e+01 7.2461577411e+01 7.0000009270e+01 2.4129e-04 0.0000e+00
      -11  1    4    4    0    0 +3.7885797177e-02 +3.9678703685e+00 -1.2128353403e+01 1.2760971246e+01 5.1100000000e-04 0.0000e+00 1.0000e+00
       11  1    4    4    0    0 -6.2901849875e+00 +1.4692301633e+01 +2.6188795931e+01 3.0680338770e+01 5.1100000000e-04 0.0000e+00 -1.0000e+00
       12  1    4    4    0    0 -5.6397818145e+00 -2.8280046341e+01 -3.2569555881e+00 2.9020267395e+01 0.0000000000e+00 0.0000e+00 -1.0000e+00
      -12  1    3    3    0    0 +1.1892081005e+01 +9.6198743397e+00 -1.0803486940e+01 1.8726422589e+01 0.0000000000e+00 0.0000e+00 1.0000e+00
</event>
<event>
 9      4 +1.0086356e-04 9.11880000e+01 7.81616400e-03 1.18400000e-01
      -11 -1    0    0    0    0 +0.0000000000e+00 +0.0000000000e+00 +4.5593999997e+01 4.5594000000e+01 5.1100000000e-04 0.0000e+00 1.0000e+00
       11 -1    0    0    0    0 -0.0000000000e+00 -0.0000000000e+00 -4.5593999997e+01 4.5594000000e+01 5.1100000000e-04 0.0000e+00 -1.0000e+00
       23  2    1    2    0    0 +0.0000000000e+00 +0.0000000000e+00 -4.4408920985e-16 9.1188000000e+01 9.1188000000e+01 3.1431e-14 0.0000e+00
 -9990012  2    3    3    0    0 -1.6286715541e+01 +8.8683778589e+00 +2.6028263894e+00 7.2461549878e+01 6.9999973404e+01 5.3401e-04 0.0000e+00
      -24  2    4    4    0    0 -9.4056840493e+00 -6.0077527532e-01 +4.2167896395e+00 6.0645529689e+01 5.9760113228e+01 1.4617e-13 0.0000e+00
      -11  1    4    4    0    0 -6.8810314917e+00 +9.4691531342e+00 -1.6139632500e+00 1.1816020189e+01 5.1100000000e-04 0.0000e+00 1.0000e+00
       11  1    5    5    0    0 +2.3874713500e+01 +6.5941746464e-01 +1.1570773196e+01 2.6539019739e+01 5.1100000000e-04 0.0000e+00 -1.0000e+00
      -12  1    5    5    0    0 -3.3280397550e+01 -1.2601927400e+00 -7.3539835567e+00 3.4106509950e+01 0.0000000000e+00 0.0000e+00 1.0000e+00
       12  1    3    3    0    0 +1.6286715541e+01 -8.8683778589e+00 -2.6028263894e+00 1.8726450122e+01 0.0000000000e+00 0.0000e+00 -1.0000e+00
</event>
<event>
 8      3 +1.0086356e-04 9.11880000e+01 7.81616400e-03 1.18400000e-01
      -11 -1    0    0    0    0 +0.0000000000e+00 +0.0000000000e+00 +4.5593999997e+01 4.5594000000e+01 5.1100000000e-04 0.0000e+00 1.0000e+00
       11 -1    0    0    0    0 -0.0000000000e+00 -0.0000000000e+00 -4.5593999997e+01 4.5594000000e+01 5.1100000000e-04 0.0000e+00 -1.0000e+00
       23  2    1    2    0    0 +2.6645352591e-15 +0.0000000000e+00 +0.0000000000e+00 9.1188000000e+01 9.1188000000e+01 2.7234e-15 0.0000e+00
  9990012  2    3    3    0    0 +7.9817384203e+00 -1.1026581672e+01 -1.2860227568e+01 7.2461572026e+01 7.0000002256e+01 1.0470e-03 0.0000e+00
      -11  1    4    4    0    0 -1.7137279540e+01 +1.0818112864e+00 +4.2033449876e+00 1.7678370259e+01 5.1100000000e-04 0.0000e+00 1.0000e+00
       11  1    4    4    0    0 +2.0361410885e+01 -5.0271638155e+00 +1.2226209245e+01 2.4276318131e+01 5.1100000000e-04 0.0000e+00 -1.0000e+00
       12  1    4    4    0    0 +4.7576070754e+00 -7.0812291427e+00 -2.9289781800e+01 3.0506883635e+01 0.0000000000e+00 0.0000e+00 -1.0000e+00
      -12  1    3    3    0    0 -7.9817384203e+00 +1.1026581672e+01 +1.2860227568e+01 1.8726427974e+01 0.0000000000e+00 0.0000e+00 1.0000e+00
</event>
<event>
 8      4 +1.0086356e-04 9.11880000e+01 7.81616400e-03 1.18400000e-01
      -11 -1    0    0    0    0 +0.0000000000e+00 +0.0000000000e+00 +4.5593999997e+01 4.5594000000e+01 5.1100000000e-04 0.0000e+00 1.0000e+00
       11 -1    0    0    0    0 -0.0000000000e+00 -0.0000000000e+00 -4.5593999997e+01 4.5594000000e+01 5.1100000000e-04 0.0000e+00 -1.0000e+00
       23  2    1    2    0    0 +0.0000000000e+00 +5.3290705182e-15 -8.8817841970e-16 9.1188000000e+01 9.1188000000e+01 8.9248e-14 0.0000e+00
 -9990012  2    3    3    0    0 +1.2009170013e+01 +1.3123295798e+01 +5.8513423422e+00 7.2461567766e+01 6.9999996707e+01 1.1611e-04 0.0000e+00
      -11  1    4    4    0    0 +1.2351070448e+00 +4.1181623149e+01 +7.6364031352e+00 4.1901864251e+01 5.1100000000e-04 0.0000e+00 1.0000e+00
       11  1    4    4    0    0 +3.7687561427e+00 -1.5201505508e+01 -2.6868036740e+00 1.5890506814e+01 5.1100000000e-04 0.0000e+00 -1.0000e+00
      -12  1    4    4    0    0 +7.0053068255e+00 -1.2856821843e+01 +9.0174288093e-01 1.4669196701e+01 0.0000000000e+00 0.0000e+00 1.0000e+00
       12  1    3    3    0    0 -1.2009170013e+01 -1.3123295798e+01 -5.8513423422e+00 1.8726432234e+01 0.0000000000e+00 0.0000e+00 -1.0000e+00
</event>
<event>
 9      3 +1.0086356e-04 9.11880000e+01 7.81616400e-03 1.18400000e-01
      -11 -1    0    0    0    0 +0.0000000000e+00 +0.0000000000e+00 +4.5593999997e+01 4.5594000000e+01 5.1100000000e-04 0.0000e+00 -1.0000e+00
       11 -1    0    0    0    0 -0.0000000000e+00 -0.0000000000e+00 -4.5593999997e+01 4.5594000000e+01 5.1100000000e-04 0.0000e+00 1.0000e+00
       23  2    1    2    0    0 +0.0000000000e+00 +0.0000000000e+00 +2.2204460493e-16 9.1188000000e+01 9.1188000000e+01 1.1274e-13 0.0000e+00
  9990012  2    3    3    0    0 -1.2379896314e+01 -1.3960661437e+01 +1.5796667201e+00 7.2462155628e+01 7.0000762502e+01 7.4195e-04 0.0000e+00
       24  2    4    4    0    0 -2.4147965453e-01 -1.0756381151e+01 +7.1456885275e+00 5.8729378409e+01 5.7291543668e+01 2.0379e-13 0.0000e+00
      -11  1    5    5    0    0 -2.1916423945e+01 +7.7371063924e+00 +1.6764426493e+01 2.8657258238e+01 5.1100000000e-04 0.0000e+00 1.0000e+00
       11  1    4    4    0    0 -1.2138416659e+01 -3.2042802858e+00 -5.5660218074e+00 1.3732777219e+01 5.1100000000e-04 0.0000e+00 -1.0000e+00
       12  1    5    5    0    0 +2.1674944290e+01 -1.8493487543e+01 -9.6187379654e+00 3.0072120170e+01 0.0000000000e+00 0.0000e+00 -1.0000e+00
      -12  1    3    3    0    0 +1.2379896314e+01 +1.3960661437e+01 -1.5796667201e+00 1.8725844372e+01 0.0000000000e+00 0.0000e+00 1.0000e+00
</event>
<event>
 9      4 +1.0086356e-04 9.11880000e+01 7.81616400e-03 1.18400000e-01
      -11 -1    0    0    0    0 +0.0000000000e+00 +0.0000000000e+00 +4.5593999997e+01 4.5594000000e+01 5.1100000000e-04 0.0000e+00 1.0000e+00
       11 -1    0    0    0    0 -0.0000000000e+00 -0.0000000000e+00 -4.5593999997e+01 4.5594000000e+01 5.1100000000e-04 0.0000e+00 -1.0000e+00
       23  2    1    2    0    0 -1.7763568394e-15 +1.7763568394e-15 +0.0000000000e+00 9.1188000000e+01 9.1188000000e+01 2.0684e-14 0.0000e+00
 -9990012  2    3    3    0    0 +1.4011214605e+01 +9.9937027913e+00 +7.3817564050e+00 7.2461586627e+01 7.0000021277e+01 7.1124e-05 0.0000e+00
      -24  2    4    4    0    0 +1.0964291543e+01 +4.5786114869e+00 +1.0734023746e+00 6.3607080158e+01 6.2478228859e+01 4.6457e-14 0.0000e+00
      -11  1    4    4    0    0 +3.0469230616e+00 +5.4150913044e+00 +6.3083540304e+00 8.8545064691e+00 5.1100000000e-04 0.0000e+00 1.0000e+00
       11  1    5    5    0    0 +3.3548416294e+01 +1.7082801337e+01 -1.4065683585e+00 3.7673555342e+01 5.1100000000e-04 0.0000e+00 -1.0000e+00
      -12  1    5    5    0    0 -2.2584124750e+01 -1.2504189850e+01 +2.4799707332e+00 2.5933524816e+01 0.0000000000e+00 0.0000e+00 1.0000e+00
       12  1    3    3    0    0 -1.4011214605e+01 -9.9937027913e+00 -7.3817564050e+00 1.8726413373e+01 0.0000000000e+00 0.0000e+00 -1.0000e+00
</event>
<event>
 9      3 +1.0086356e-04 9.11880000e+01 7.81616400e-03 1.18400000e-01
      -11 -1    0    0    0    0 +0.0000000000e+00 +0.0000000000e+00 +4.5593999997e+01 4.5594000000e+01 5.1100000000e-04 0.0000e+00 1.0000e+00
       11 -1    0    0    0    0 -0.0000000000e+00 -0.0000000000e+00 -4.5593999997e+01 4.5594000000e+01 5.1100000000e-04 0.0000e+00 -1.0000e+00
       23  2    1    2    0    0 -3.5527136788e-15 +0.0000000000e+00 -1.7763568394e-15 9.1188000000e+01 9.1188000000e+01 6.2336e-15 0.0000e+00
  9990012  2    3    3    0    0 -1.1462072197e+01 +1.2825781601e+01 -7.4025109835e+00 7.2461629781e+01 7.0000077492e+01 1.6533e-04 0.0000e+00
       24  2    4    4    0    0 -5.0959153561e+00 +1.8031026977e+01 -2.8270743931e+00 6.3051148784e+01 6.0136251348e+01 2.4585e-15 0.0000e+00
      -11  1    5    5    0    0 -2.1736289340e+01 -1.1654142618e+01 -1.2530113808e+01 2.7663858493e+01 5.1100000000e-04 0.0000e+00 1.0000e+00
       11  1    4    4    0    0 -6.3661568409e+00 -5.2052453754e+00 -4.5754365904e+00 9.4104809970e+00 5.1100000000e-04 0.0000e+00 -1.0000e+00
       12  1    5    5    0    0 +1.6640373984e+01 +2.9685169594e+01 +9.7030394149e+00 3.5387290290e+01 0.0000000000e+00 0.0000e+00 -1.0000e+00
      -12  1    3    3    0    0 +1.1462072197e+01 -1.2825781601e+01 +7.4025109835e+00 1.8726370219e+01 0.0000000000e+00 0.0000e+00 1.0000e+00
</event>
<event>
 9      1 +1.0086356e-04 9.11880000e+01 7.81616400e-03 1.18400000e-01
      -11 -1    0    0    0    0 +0.0000000000e+00 +0.0000000000e+00 +4.5593999997e+01 4.5594000000e+01 5.1100000000e-04 0.0000e+00 1.0000e+00
       11 -1    0    0    0    0 -0.0000000000e+00 -0.0000000000e+00 -4.5593999997e+01 4.5594000000e+01 5.1100000000e-04 0.0000e+00 -1.0000e+00
       23  2    1    2    0    0 +2.4424906542e-15 +0.0000000000e+00 +2.6645352591e-15 9.1188000000e+01 9.1188000000e+01 1.5301e-14 0.0000e+00
  9990012  2    3    3    0    0 +1.7977649023e+00 -1.8109623082e+01 -4.4125180537e+00 7.2462062844e+01 7.0000641634e+01 2.9257e-04 0.0000e+00
       23  2    4    4    0    0 -2.9895736749e+00 -2.3860964148e+01 -9.1060392675e+00 6.3628848475e+01 5.8201608623e+01 4.5646e-13 0.0000e+00
      -11  1    5    5    0    0 +2.2305836289e+01 +4.9387777793e+00 +3.8480738664e+00 2.3167855560e+01 5.1100000000e-04 0.0000e+00 1.0000e+00
       11  1    5    5    0    0 -2.5295409964e+01 -2.8799741927e+01 -1.2954113134e+01 4.0460992915e+01 5.1100000000e-04 0.0000e+00 -1.0000e+00
       12  1    4    4    0    0 +4.7873385772e+00 +5.7513410659e+00 +4.6935212138e+00 8.8332143693e+00 0.0000000000e+00 0.0000e+00 -1.0000e+00
      -12  1    3    3    0    0 -1.7977649023e+00 +1.8109623082e+01 +4.4125180537e+00 1.8725937156e+01 0.0000000000e+00 0.0000e+00 1.0000e+00
</event>
<event>
 9      1 +1.0086356e-04 9.11880000e+01 7.81616400e-03 1.18400000e-01
      -11 -1    0    0    0    0 +0.0000000000e+00 +0.0000000000e+00 +4.5593999997e+01 4.5594000000e+01 5.1100000000e-04 0.0000e+00 1.0000e+00
       11 -1    0    0    0    0 -0.0000000000e+00 -0.0000000000e+00 -4.5593999997e+01 4.5594000000e+01 5.1100000000e-04 0.0000e+00 -1.0000e+00
       23  2    1    2    0    0 +1.7763568394e-15 +1.7763568394e-15 +0.0000000000e+00 9.1188000000e+01 9.1188000000e+01 4.6377e-14 0.0000e+00
  9990012  2    3    3    0    0 -4.6279982047e+00 +9.1183571091e+00 -1.5688307917e+01 7.2461393018e+01 6.9999769064e+01 1.3625e-04 0.0000e+00
       23  2    4    4    0    0 -1.5905786778e-01 -1.9639906019e+00 -5.9679069986e+00 5.7057625539e+01 5.6710441364e+01 2.5635e-15 0.0000e+00
      -11  1    5    5    0    0 +2.0043715314e+01 +1.8110393652e+01 +3.0460173392e+00 2.7184832237e+01 5.1100000000e-04 0.0000e+00 1.0000e+00
       11  1    5    5    0    0 -2.0202773182e+01 -2.0074384254e+01 -9.0139243378e+00 2.9872793302e+01 5.1100000000e-04 0.0000e+00 -1.0000e+00
       12  1    4    4    0    0 -4.4689403369e+00 +1.1082347711e+01 -9.7204009188e+00 1.5403767479e+01 0.0000000000e+00 0.0000e+00 -1.0000e+00
      -12  1    3    3    0    0 +4.6279982047e+00 -9.1183571091e+00 +1.5688307917e+01 1.8726606982e+01 0.0000000000e+00 0.0000e+00 1.0000e+00
</event>
<event>
 8      4 +1.0086356e-04 9.11880000e+01 7.81616400e-03 1.18400000e-01
      -11 -1    0    0    0    0 +0.0000000000e+00 +0.0000000000e+00 +4.5593999997e+01 4.5594000000e+01 5.1100000000e-04 0.0000e+00 1.0000e+00
       11 -1    0    0    0    0 -0.0000000000e+00 -0.0000000000e+00 -4.5593999997e+01 4.5594000000e+01 5.1100000000e-04 0.0000e+00 -1.0000e+00
       23  2    1    2    0    0 +8.8817841970e-16 -4.4408920985e-16 +3.5527136788e-15 9.1188000000e+01 9.1188000000e+01 1.0165e-14 0.0000e+00
 -9990012  2    3    3    0    0 -7.9405231042e+00 +2.5077103729e+00 +1.6773113220e+01 7.2461605644e+01 7.0000046049e+01 6.9516e-05 0.0000e+00
      -11  1    4    4    0    0 -1.7800088967e+01 -1.1051027938e+01 +3.9720754731e+00 2.1324768922e+01 5.1100000000e-04 0.0000e+00 1.0000e+00
       11  1    4    4    0    0 -5.6974986721e+00 +1.1496942760e+01 -1.4675920282e+01 1.9494199658e+01 5.1100000000e-04 0.0000e+00 -1.0000e+00
      -12  1    4    4    0    0 +1.5557064535e+01 +2.0617955514e+00 +2.7476958029e+01 3.1642637064e+01 0.0000000000e+00 0.0000e+00 1.0000e+00
       12  1    3    3    0    0 +7.9405231042e+00 -2.5077103729e+00 -1.6773113220e+01 1.8726394356e+01 0.0000000000e+00 0.0000e+00 -1.0000e+00
</event>
<event>
 8      4 +1.0086356e-04 9.11880000e+01 7.81616400e-03 1.18400000e-01
      -11 -1    0    0    0    0 +0.0000000000e+00 +0.0000000000e+00 +4.5593999997e+01 4.5594000000e+01 5.1100000000e-04 0.0000e+00 1.0000e+00
       11 -1    0    0    0    0 -0.0000000000e+00 -0.0000000000e+00 -4.5593999997e+01 4.5594000000e+01 5.1100000000e-04 0.0000e+00 -1.0000e+00
       23  2    1    2    0    0 -1.7763568394e-15 -1.3322676296e-15 -1.7763568394e-15 9.1188000000e+01 9.1188000000e+01 2.4989e-14 0.0000e+00
 -9990012  2    3    3    0    0 +1.1801012820e+01 -1.1858370468e+00 +1.4491899085e+01 7.2461407887e+01 6.9999788434e+01 2.2434e-04 0.0000e+00
      -11  1    4    4    0    0 +2.2160479118e+01 +6.7133972915e+00 +2.2462497793e+01 3.2260197539e+01 5.1100000000e-04 0.0000e+00 1.0000e+00
       11  1    4    4    0    0 +9.4885748693e+00 +8.9009169336e+00 -2.2482143291e-02 1.3009991584e+01 5.1100000000e-04 0.0000e+00 -1.0000e+00
      -12  1    4    4    0    0 -1.9848041167e+01 -1.6800151272e+01 -7.9481165639e+00 2.7191218764e+01 0.0000000000e+00 0.0000e+00 1.0000e+00
       12  1    3    3    0    0 -1.1801012820e+01 +1.1858370468e+00 -1.4491899085e+01 1.8726592113e+01 0.0000000000e+00 0.0000e+00 -1.0000e+00
</event>
<event>
 9      3 +1.0086356e-04 9.11880000e+01 7.81616400e-03 1.18400000e-01
      -11 -1    0    0    0    0 +0.0000000000e+00 +0.0000000000e+00 +4.5593999997e+01 4.5594000000e+01 5.1100000000e-04 0.0000e+00 1.0000e+00
       11 -1    0    0    0    0 -0.0000000000e+00 -0.0000000000e+00 -4.5593999997e+01 4.5594000000e+01 5.1100000000e-04 0.0000e+00 -1.0000e+00
       23  2    1    2    0    0 +0.0000000000e+00 -1.7763568394e-15 +3.5527136788e-15 9.1188000000e+01 9.1188000000e+01 3.4763e-14 0.0000e+00
  9990012  2    3    3    0    0 -5.5651226315e+00 +5.0243943364e+00 -1.7159258136e+01 7.2462208478e+01 7.0000831348e+01 3.7712e-04 0.0000e+00
       24  2    4    4    0    0 -5.5905799013e+00 -7.4393510103e+00 +1.8225683932e+00 4.9754162883e+01 4.8842158445e+01 7.1359e-14 0.0000e+00
      -11  1    5    5    0    0 -2.0576228192e+01 -1.5991089694e+01 +1.3074506037e+01 2.9155425302e+01 5.1100000000e-04 0.0000e+00 1.0000e+00
       11  1    4    4    0    0 +2.5457269755e-02 +1.2463745347e+01 -1.8981826529e+01 2.2708045596e+01 5.1100000000e-04 0.0000e+00 -1.0000e+00
       12  1    5    5    0    0 +1.4985648290e+01 +8.5517386834e+00 -1.1251937643e+01 2.0598737581e+01 0.0000000000e+00 0.0000e+00 -1.0000e+00
      -12  1    3    3    0    0 +5.5651226315e+00 -5.0243943364e+00 +1.7159258136e+01 1.8725791522e+01 0.0000000000e+00 0.0000e+00 1.0000e+00
</event>
<event>
 8      3 +1.0086356e-04 9.11880000e+01 7.81616400e-03 1.18400000e-01
      -11 -1    0    0    0    0 +0.0000000000e+00 +0.0000000000e+00 +4.5593999997e+01 4.5594000000e+01 5.1100000000e-04 0.0000e+00 1.0000e+00
       11 -1    0    0    0    0 -0.0000000000e+00 -0.0000000000e+00 -4.5593999997e+01 4.5594000000e+01 5.1100000000e-04 0.0000e+00 -1.0000e+00
       23  2    1    2    0    0 +1.7763568394e-15 -3.5527136788e-15 -8.8817841970e-16 9.1188000000e+01 9.1188000000e+01 1.6546e-13 0.0000e+00
  9990012  2    3    3    0    0 -1.2199269093e+01 +1.3366874595e+01 -4.8147898240e+00 7.2461609427e+01 7.0000050977e+01 2.4211e-04 0.0000e+00
      -11  1    4    4    0    0 -2.3165931013e+01 +2.5076591037e+00 +1.6397361036e+01 2.8492493101e+01 5.1100000000e-04 0.0000e+00 1.0000e+00
       11  1    4    4    0    0 +1.7491238280e+01 -4.3195644647e+00 -1.2547344310e+00 1.8060354716e+01 5.1100000000e-04 0.0000e+00 -1.0000e+00
       12  1    4    4    0    0 -6.5245763597e+00 +1.5178779956e+01 -1.9957416429e+01 2.5908761610e+01 0.0000000000e+00 0.0000e+00 -1.0000e+00
      -12  1    3    3    0    0 +1.2199269093e+01 -1.3366874595e+01 +4.8147898240e+00 1.8726390573e+01 0.0000000000e+00 0.0000e+00 1.0000e+00
</event>
<event>
 8      4 +1.0086356e-04 9.11880000e+01 7.81616400e-03 1.18400000e-01
      -11 -1    0    0    0    0 +0.0000000000e+00 +0.0000000000e+00 +4.5593999997e+01 4.5594000000e+01 5.1100000000e-04 0.0000e+00 1.0000e+00
       11 -1    0    0    0    0 -0.0000000000e+00 -0.0000000000e+00 -4.5593999997e+01 4.5594000000e+01 5.1100000000e-04 0.0000e+00 -1.0000e+00
       23  2    1    2    0    0 -3.5527136788e-15 -8.8817841970e-16 -1.7763568394e-15 9.1188000000e+01 9.1188000000e+01 9.9202e-15 0.0000e+00
 -9990012  2    3    3    0    0 -1.6804157911e+01 -7.0917970745e+00 -4.2433375313e+00 7.2461568886e+01 6.9999998166e+01 2.7101e-04 0.0000e+00
      -11  1    4    4    0    0 +1.7307074243e+00 -5.7135725676e+00 -2.2640843017e+01 2.3414696933e+01 5.1100000000e-04 0.0000e+00 1.0000e+00
       11  1    4    4    0    0 -1.7101961193e+01 -1.1683431819e+01 -6.7889071880e+00 2.1796075720e+01 5.1100000000e-04 0.0000e+00 -1.0000e+00
      -12  1    4    4    0    0 -1.4329041426e+00 +1.0305207312e+01 +2.5186412674e+01 2.7250796234e+01 0.0000000000e+00 0.0000e+00 1.0000e+00
       12  1    3    3    0    0 +1.6804157911e+01 +7.0917970745e+00 +4.2433375313e+00 1.8726431114e+01 0.0000000000e+00 0.0000e+00 -1.0000e+00
</event>
<event>
 9      3 +1.0086356e-04 9.11880000e+01 7.81616400e-03 1.18400000e-01
      -11 -1    0    0    0    0 +0.0000000000e+00 +0.0000000000e+00 +4.5593999997e+01 4.5594000000e+01 5.1100000000e-04 0.0000e+00 1.0000e+00
       11 -1    0    0    0    0 -0.0000000000e+00 -0.0000000000e+00 -4.5593999997e+01 4.5594000000e+01 5.1100000000e-04 0.0000e+00 -1.0000e+00
       23  2    1    2    0    0 -3.5527136788e-15 +0.0000000000e+00 +8.8817841970e-16 9.1188000000e+01 9.1188000000e+01 4.0848e-14 0.0000e+00
  9990012  2    3    3    0    0 -1.7540968932e+01 +1.4881394818e+00 -6.3857535481e+00 7.2461601559e+01 7.0000040728e+01 2.9742e-04 0.0000e+00
       24  2    4    4    0    0 -1.2507687787e+01 +1.0696312033e+01 -1.3999589814e+01 5.9496461230e+01 5.5434529303e+01 1.1703e-13 0.0000e+00
      -11  1    5    5    0    0 +1.1662826366e+01 +3.5245181369e+00 +1.6127090885e+01 2.0212046101e+01 5.1100000000e-04 0.0000e+00 1.0000e+00
       11  1    4    4    0    0 -5.0332811449e+00 -9.2081725513e+00 +7.6138362655e+00 1.2965140329e+01 5.1100000000e-04 0.0000e+00 -1.0000e+00
       12  1    5    5    0    0 -2.4170514153e+01 +7.1717938962e+00 -3.0126680698e+01 3.9284415129e+01 0.0000000000e+00 0.0000e+00 -1.0000e+00
      -12  1    3    3    0    0 +1.7540968932e+01 -1.4881394818e+00 +6.3857535481e+00 1.8726398441e+01 0.0000000000e+00 0.0000e+00 1.0000e+00
</event>
<event>
 9      3 +1.0086356e-04 9.11880000e+01 7.81616400e-03 1.18400000e-01
      -11 -1    0    0    0    0 +0.0000000000e+00 +0.0000000000e+00 +4.5593999997e+01 4.5594000000e+01 5.1100000000e-04 0.0000e+00 1.0000e+00
       11 -1    0    0    0    0 -0.0000000000e+00 -0.0000000000e+00 -4.5593999997e+01 4.5594000000e+01 5.1100000000e-04 0.0000e+00 -1.0000e+00
       23  2    1    2    0    0 +0.0000000000e+00 +8.8817841970e-16 +0.0000000000e+00 9.1188000000e+01 9.1188000000e+01 4.9183e-14 0.0000e+00
  9990012  2    3    3    0    0 +5.3643373428e+00 -4.0266961665e+00 +1.7483963345e+01 7.2461564904e+01 6.9999992979e+01 5.8760e-04 0.0000e+00
       24  2    4    4    0    0 +9.7678420695e-01 -1.0036469718e+01 +1.4225826644e+01 6.4338544796e+01 6.1930520512e+01 8.5594e-15 0.0000e+00
      -11  1    5    5    0    0 +6.1376545652e+00 -1.0935307126e+01 +3.7988795893e+01 4.0005004176e+01 5.1100000000e-04 0.0000e+00 1.0000e+00
       11  1    4    4    0    0 +4.3875531358e+00 +6.0097735517e+00 +3.2581367011e+00 8.1230201087e+00 5.1100000000e-04 0.0000e+00 -1.0000e+00
       12  1    5    5    0    0 -5.1608703582e+00 +8.9883740789e-01 -2.3762969249e+01 2.4333540619e+01 0.0000000000e+00 0.0000e+00 -1.0000e+00
      -12  1    3    3    0    0 -5.3643373428e+00 +4.0266961665e+00 -1.7483963345e+01 1.8726435096e+01 0.0000000000e+00 0.0000e+00 1.0000e+00
</event>
<event>
 8      4 +1.0086356e-04 9.11880000e+01 7.81616400e-03 1.18400000e-01
      -11 -1    0    0    0    0 +0.0000000000e+00 +0.0000000000e+00 +4.5593999997e+01 4.5594000000e+01 5.1100000000e-04 0.0000e+00 1.0000e+00
       11 -1    0    0    0    0 -0.0000000000e+00 -0.0000000000e+00 -4.5593999997e+01 4.5594000000e+01 5.1100000000e-04 0.0000e+00 -1.0000e+00
       23  2    1    2    0    0 -1.7763568394e-15 -1.7763568394e-15 -1.7763568394e-15 9.1188000000e+01 9.1188000000e+01 5.8206e-14 0.0000e+00
 -9990012  2    3    3    0    0 +7.2889340174e+00 +1.3248546866e+01 +1.1046567663e+01 7.2461569206e+01 6.9999998582e+01 7.0490e-05 0.0000e+00
      -11  1    4    4    0    0 +2.9718162644e+01 +2.0657678020e+01 +9.5852847844e+00 3.7440439858e+01 5.1100000000e-04 0.0000e+00 1.0000e+00
       11  1    4    4    0    0 -7.6951700886e+00 +4.3041006470e+00 -9.7237288773e+00 1.3125998195e+01 5.1100000000e-04 0.0000e+00 -1.0000e+00
      -12  1    4    4    0    0 -1.4734058538e+01 -1.1713231801e+01 +1.1185011756e+01 2.1895131153e+01 0.0000000000e+00 0.0000e+00 1.0000e+00
       12  1    3    3    0    0 -7.2889340174e+00 -1.3248546866e+01 -1.1046567663e+01 1.8726430794e+01 0.0000000000e+00 0.0000e+00 -1.0000e+00
</event>
<event>
 8      3 +1.0086356e-04 9.11880000e+01 7.81616400e-03 1.18400000e-01
      -11 -1    0    0    0    0 +0.0000000000e+00 +0.0000000000e+00 +4.5593999997e+01 4.5594000000e+01 5.1100000000e-04 0.0000e+00 -1.0000e+00
       11 -1    0    0    0    0 -0.0000000000e+00 -0.0000000000e+00 -4.5593999997e+01 4.5594000000e+01 5.1100000000e-04 0.0000e+00 1.0000e+00
       23  2    1    2    0    0 +1.3322676296e-15 +0.0000000000e+00 +0.0000000000e+00 9.1188000000e+01 9.1188000000e+01 1.8878e-14 0.0000e+00
  9990012  2    3    3    0    0 -2.4380053013e+00 +5.5939596404e+00 +1.7704306519e+01 7.2461582200e+01 7.0000015509e+01 1.9522e-04 0.0000e+00
      -11  1    4    4    0    0 +1.8927937547e+00 +9.8402217048e+00 -7.5929265837e+00 1.2572396978e+01 5.1100000000e-04 0.0000e+00 1.0000e+00
       11  1    4    4    0    0 +1.1158158050e+01 +7.2908522055e+00 -1.1969886699e+01 1.7914776158e+01 5.1100000000e-04 0.0000e+00 -1.0000e+00
       12  1    4    4    0    0 -1.5488957106e+01 -1.1537114270e+01 +3.7267119802e+01 4.1974409064e+01 0.0000000000e+00 0.0000e+00 -1.0000e+00
      -12  1    3    3    0    0 +2.4380053013e+00 -5.5939596404e+00 -1.7704306519e+01 1.8726417800e+01 0.0000000000e+00 0.0000e+00 1.0000e+00
</event>
<event>
 9      4 +1.0086356e-04 9.11880000e+01 7.81616400e-03 1.18400000e-01
      -11 -1    0    0    0    0 +0.0000000000e+00 +0.0000000000e+00 +4.5593999997e+01 4.5594000000e+01 5.1100000000e-04 0.0000e+00 1.0000e+00
       11 -1    0    0    0    0 -0.0000000000e+00 -0.0000000000e+00 -4.5593999997e+01 4.5594000000e+01 5.1100000000e-04 0.0000e+00 -1.0000e+00
       23  2    1    2    0    0 +0.0000000000e+00 -8.8817841970e-16 -3.5527136788e-15 9.1188000000e+01 9.1188000000e+01 3.5939e-14 0.0000e+00
 -9990012  2    3    3    0    0 +5.1024449755e+00 -6.6643002445e+00 +1.6740081865e+01 7.2461596626e+01 7.0000034302e+01 6.0996e-04 0.0000e+00
      -24  2    4    4    0    0 -4.7361410693e+00 -4.2621366310e+00 +1.8130645438e+01 6.2238982836e+01 5.9197751981e+01 9.4979e-14 0.0000e+00
      -11  1    4    4    0    0 +9.8385860448e+00 -2.4021636135e+00 -1.3905635737e+00 1.0222613790e+01 5.1100000000e-04 0.0000e+00 1.0000e+00
       11  1    5    5    0    0 -2.0356923385e+01 -2.2896732076e+01 -1.9554683003e+00 3.0699975993e+01 5.1100000000e-04 0.0000e+00 -1.0000e+00
      -12  1    5    5    0    0 +1.5620782316e+01 +1.8634595445e+01 +2.0086113739e+01 3.1539006843e+01 0.0000000000e+00 0.0000e+00 1.0000e+00
       12  1    3    3    0    0 -5.1024449755e+00 +6.6643002445e+00 -1.6740081865e+01 1.8726403374e+01 0.0000000000e+00 0.0000e+00 -1.0000e+00
</event>
<event>
 8      3 +1.0086356e-04 9.11880000e+01 7.81616400e-03 1.18400000e-01
      -11 -1    0    0    0    0 +0.0000000000e+00 +0.0000000000e+00 +4.5593999997e+01 4.5594000000e+01 5.1100000000e-04 0.0000e+00 -1.0000e+00
       11 -1    0    0    0    0 -0.0000000000e+00 -0.0000000000e+00 -4.5593999997e+01 4.5594000000e+01 5.1100000000e-04 0.0000e+00 1.0000e+00
       23  2    1    2    0    0 +4.4408920985e-15 +0.0000000000e+00 +8.8817841970e-16 9.1188000000e+01 9.1188000000e+01 5.8760e-14 0.0000e+00
  9990012  2    3    3    0    0 +6.6505480079e+00 +1.6536865358e+01 +5.7430491789e+00 7.2461539615e+01 6.9999960034e+01 6.6381e-05 0.0000e+00
      -11  1    4    4    0    0 -1.4080396079e+01 +1.0578742950e+01 -7.6822987256e+00 1.9214189291e+01 5.1100000000e-04 0.0000e+00 1.0000e+00
       11  1    4    4    0    0 +3.5673455438e+01 +4.7175392040e+00 +1.2958313761e+01 3.8246156602e+01 5.1100000000e-04 0.0000e+00 -1.0000e+00
       12  1    4    4    0    0 -1.4942511352e+01 +1.2405832039e+00 +4.6703414388e-01 1.5001193721e+01 0.0000000000e+00 0.0000e+00 -1.0000e+00
      -12  1    3    3    0    0 -6.6505480079e+00 -1.6536865358e+01 -5.7430491789e+00 1.8726460385e+01 0.0000000000e+00 0.0000e+00 1.0000e+00
</event>
<event>
 8      4 +1.0086356e-04 9.11880000e+01 7.81616400e-03 1.18400000e-01
      -11 -1    0    0    0    0 +0.0000000000e+00 +0.0000000000e+00 +4.5593999997e+01 4.5594000000e+01 5.1100000000e-04 0.0000e+00 -1.0000e+00
       11 -1    0    0    0    0 -0.0000000000e+00 -0.0000000000e+00 -4.5593999997e+01 4.5594000000e+01 5.1100000000e-04 0.0000e+00 1.0000e+00
       23  2    1    2    0    0 +0.0000000000e+00 -8.8817841970e-16 +0.0000000000e+00 9.1188000000e+01 9.1188000000e+01 2.8309e-15 0.0000e+00
 -9990012  2    3    3    0    0 -1.3006881180e+01 -2.0816085641e+00 -1.3310436712e+01 7.2461554056e+01 6.9999978846e+01 1.2229e-04 0.0000e+00
      -11  1    4    4    0    0 -6.0010345418e+00 +1.5858137968e+01 -2.5639177146e+01 3.0738580975e+01 5.1100000000e-04 0.0000e+00 1.0000e+00
       11  1    4    4    0    0 -1.4857063525e+01 +4.1314969661e+00 +9.5357677266e+00 1.8130980949e+01 5.1100000000e-04 0.0000e+00 -1.0000e+00
      -12  1    4    4    0    0 +7.8512168873e+00 -2.2071243498e+01 +2.7929727079e+00 2.3591992131e+01 0.0000000000e+00 0.0000e+00 1.0000e+00
       12  1    3    3    0    0 +1.3006881180e+01 +2.0816085641e+00 +1.3310436712e+01 1.8726445944e+01 0.0000000000e+00 0.0000e+00 -1.0000e+00
</event>
<event>
 8      3 +1.0086356e-04 9.11880000e+01 7.81616400e-03 1.18400000e-01
      -11 -1    0    0    0    0 +0.0000000000e+00 +0.0000000000e+00 +4.5593999997e+01 4.5594000000e+01 5.1100000000e-04 0.0000e+00 -1.0000e+00
       11 -1    0    0    0    0 -0.0000000000e+00 -0.0000000000e+00 -4.5593999997e+01 4.5594000000e+01 5.1100000000e-04 0.0000e+00 1.0000e+00
       23  2    1    2    0    0 -3.5527136788e-15 -4.4408920985e-16 -5.3290705182e-15 9.1188000000e+01 9.1188000000e+01 9.3050e-14 0.0000e+00
  9990012  2    3    3    0    0 -1.5015392879e+01 +2.0357626476e+00 +1.1003403871e+01 7.2461514755e+01 6.9999927650e+01 4.0793e-05 0.0000e+00
      -11  1    4    4    0    0 -2.9144865568e+00 +8.4973693204e+00 -9.7970636968e+00 1.3292177195e+01 5.1100000000e-04 0.0000e+00 1.0000e+00
       11  1    4    4    0    0 -1.4207155142e+01 +2.6175650578e+00 +3.7421681827e+01 4.0113304215e+01 5.1100000000e-04 0.0000e+00 -1.0000e+00
       12  1    4    4    0    0 +2.1062488203e+00 -9.0791717305e+00 -1.6621214259e+01 1.9056033345e+01 0.0000000000e+00 0.0000e+00 -1.0000e+00
      -12  1    3    3    0    0 +1.5015392879e+01 -2.0357626476e+00 -1.1003403871e+01 1.8726485245e+01 0.0000000000e+00 0.0000e+00 1.0000e+00
</event>
<event>
 8      3 +1.0086356e-04 9.11880000e+01 7.81616400e-03 1.18400000e-01
      -11 -1    0    0    0    0 +0.0000000000e+00 +0.0000000000e+00 +4.5593999997e+01 4.5594000000e+01 5.1100000000e-04 0.0000e+00 -1.0000e+00
       11 -1    0    0    0    0 -0.0000000000e+00 -0.0000000000e+00 -4.5593999997e+01 4.5594000000e+01 5.1100000000e-04 0.0000e+00 1.0000e+00
       23  2    1    2    0    0 -3.5527136788e-15 +1.1102230246e-15 +0.0000000000e+00 9.1188000000e+01 9.1188000000e+01 6.8258e-15 0.0000e+00
  9990012  2    3    3    0    0 +1.4178403184e+01 -1.7353702508e+00 +1.2109559114e+01 7.2461546820e+01 6.9999969420e+01 6.1209e-05 0.0000e+00
      -11  1    4    4    0    0 +1.6561533939e+01 -5.8597639223e+00 -2.4054400082e+00 1.7731536356e+01 5.1100000000e-04 0.0000e+00 1.0000e+00
       11  1    4    4    0    0 +1.1563828828e+01 +7.9945584905e+00 +3.0245931282e+01 3.3353432536e+01 5.1100000000e-04 0.0000e+00 -1.0000e+00
       12  1    4    4    0    0 -1.3946959583e+01 -3.8701648190e+00 -1.5730932159e+01 2.1376577928e+01 0.0000000000e+00 0.0000e+00 -1.0000e+00
      -12  1    3    3    0    0 -1.4178403184e+01 +1.7353702508e+00 -1.2109559114e+01 1.8726453180e+01 0.0000000000e+00 0.0000e+00 1.0000e+00
</event>
<event>
 8      3 +1.0086356e-04 9.11880000e+01 7.81616400e-03 1.18400000e-01
      -11 -1    0    0    0    0 +0.0000000000e+00 +0.0000000000e+00 +4.5593999997e+01 4.5594000000e+01 5.1100000000e-04 0.0000e+00 1.0000e+00
       11 -1    0    0    0    0 -0.0000000000e+00 -0.0000000000e+00 -4.5593999997e+01 4.5594000000e+01 5.1100000000e-04 0.0000e+00 -1.0000e+00
       23  2    1    2    0    0 +0.0000000000e+00 +2.2204460493e-15 +3.5527136788e-15 9.1188000000e+01 9.1188000000e+01 4.5183e-15 0.0000e+00
  9990012  2    3    3    0    0 +9.0714661041e+00 -1.3234334904e+00 -1.6329002257e+01 7.2461567125e+01 6.9999995872e+01 5.0025e-04 0.0000e+00
      -11  1    4    4    0    0 +9.7773485488e+00 -2.2364567030e+01 +7.9716773206e+00 2.5677189150e+01 5.1100000000e-04 0.0000e+00 1.0000e+00
       11  1    4    4    0    0 -1.6488771185e+01 +1.0334319182e+01 -6.0283605148e+00 2.0372011656e+01 5.1100000000e-04 0.0000e+00 -1.0000e+00
       12  1    4    4    0    0 +1.5782888740e+01 +1.0706814357e+01 -1.8272319063e+01 2.6412366320e+01 0.0000000000e+00 0.0000e+00 -1.0000e+00
      -12  1    3    3    0    0 -9.0714661041e+00 +1.3234334904e+00 +1.6329002257e+01 1.8726432875e+01 0.0000000000e+00 0.0000e+00 1.0000e+00
</event>
<event>
 9      1 +1.0086356e-04 9.11880000e+01 7.81616400e-03 1.18400000e-01
      -11 -1    0    0    0    0 +0.0000000000e+00 +0.0000000000e+00 +4.5593999997e+01 4.5594000000e+01 5.1100000000e-04 0.0000e+00 1.0000e+00
       11 -1    0    0    0    0 -0.0000000000e+00 -0.0000000000e+00 -4.5593999997e+01 4.5594000000e+01 5.1100000000e-04 0.0000e+00 -1.0000e+00
       23  2    1    2    0    0 +6.6613381478e-16 -3.5527136788e-15 +0.0000000000e+00 9.1188000000e+01 9.1188000000e+01 1.7477e-13 0.0000e+00
  9990012  2    3    3    0    0 +1.6551691832e+00 +1.8242198717e+01 +3.8939657724e+00 7.2461538282e+01 6.9999958297e+01 2.5245e-05 0.0000e+00
       23  2    4    4    0    0 -5.5555170000e+00 +2.0510691273e+01 -1.5084500554e+00 6.3170351571e+01 5.9469871956e+01 1.1441e-13 0.0000e+00
      -11  1    5    5    0    0 -2.4979013400e+01 -1.0020285189e+01 +6.3185489735e-01 2.6921301354e+01 5.1100000000e-04 0.0000e+00 -1.0000e+00
       11  1    5    5    0    0 +1.9423496400e+01 +3.0530976462e+01 -2.1403049528e+00 3.6249050218e+01 5.1100000000e-04 0.0000e+00 1.0000e+00
       12  1    4    4    0    0 +7.2106861832e+00 -2.2684925562e+00 +5.4024158278e+00 9.2911867103e+00 0.0000000000e+00 0.0000e+00 -1.0000e+00
      -12  1    3    3    0    0 -1.6551691832e+00 -1.8242198717e+01 -3.8939657724e+00 1.8726461718e+01 0.0000000000e+00 0.0000e+00 1.0000e+00
</event>
<event>
 8      3 +1.0086356e-04 9.11880000e+01 7.81616400e-03 1.18400000e-01
      -11 -1    0    0    0    0 +0.0000000000e+00 +0.0000000000e+00 +4.5593999997e+01 4.5594000000e+01 5.1100000000e-04 0.0000e+00 1.0000e+00
       11 -1    0    0    0    0 -0.0000000000e+00 -0.0000000000e+00 -4.5593999997e+01 4.5594000000e+01 5.1100000000e-04 0.0000e+00 -1.0000e+00
       23  2    1    2    0    0 +3.5527136788e-15 +0.0000000000e+00 +3.5527136788e-15 9.1188000000e+01 9.1188000000e+01 7.7127e-15 0.0000e+00
  9990012  2    3    3    0    0 -1.1991820399e+01 +9.8416261504e+00 -1.0488915361e+01 7.2461582638e+01 7.0000016080e+01 2.9049e-04 0.0000e+00
      -11  1    4    4    0    0 +2.2550951179e+01 +1.1765363485e+01 -1.8407412090e+00 2.5502107863e+01 5.1100000000e-04 0.0000e+00 1.0000e+00
       11  1    4    4    0    0 -1.8689353035e+01 +4.3571957388e+00 +1.0042045322e+01 2.1659172332e+01 5.1100000000e-04 0.0000e+00 -1.0000e+00
       12  1    4    4    0    0 -1.5853418542e+01 -6.2809330735e+00 -1.8690219474e+01 2.5300302443e+01 0.0000000000e+00 0.0000e+00 -1.0000e+00
      -12  1    3    3    0    0 +1.1991820399e+01 -9.8416261504e+00 +1.0488915361e+01 1.8726417362e+01 0.0000000000e+00 0.0000e+00 1.0000e+00
</event>
<event>
 9      3 +1.0086356e-04 9.11880000e+01 7.81616400e-03 1.18400000e-01
      -11 -1    0    0    0    0 +0.0000000000e+00 +0.0000000000e+00 +4.5593999997e+01 4.5594000000e+01 5.1100000000e-04 0.0000e+00 -1.0000e+00
       11 -1    0    0    0    0 -0.0000000000e+00 -0.0000000000e+00 -4.5593999997e+01 4.5594000000e+01 5.1100000000e-04 0.0000e+00 1.0000e+00
       23  2    1    2    0    0 +0.0000000000e+00 +8.8817841970e-16 +8.8817841970e-16 9.1188000000e+01 9.1188000000e+01 6.7012e-14 0.0000e+00
  9990012  2    3    3    0    0 -1.6452722714e+01 -4.1249269316e+00 -7.9353667291e+00 7.2461624162e+01 7.0000070173e+01 2.3568e-04 0.0000e+00
       24  2    4    4    0    0 -1.3055610503e+01 -1.1023206830e+01 +7.3203094940e+00 5.5377646457e+01 5.2164516116e+01 3.2789e-13 0.0000e+00
      -11  1    5    5    0    0 +1.0652899939e+01 -9.7257275555e+00 -1.6382301165e+01 2.1827822734e+01 5.1100000000e-04 0.0000e+00 1.0000e+00
       11  1    4    4    0    0 -3.3971122113e+00 +6.8982798986e+00 -1.5255676223e+01 1.7083977705e+01 5.1100000000e-04 0.0000e+00 -1.0000e+00
       12  1    5    5    0    0 -2.3708510442e+01 -1.2974792746e+00 +2.3702610659e+01 3.3549823723e+01 0.0000000000e+00 0.0000e+00 -1.0000e+00
      -12  1    3    3    0    0 +1.6452722714e+01 +4.1249269316e+00 +7.9353667291e+00 1.8726375838e+01 0.0000000000e+00 0.0000e+00 1.0000e+00
</event>
<event>
 9      4 +1.0086356e-04 9.11880000e+01 7.81616400e-03 1.18400000e-01
      -11 -1    0    0    0    0 +0.0000000000e+00 +0.0000000000e+00 +4.5593999997e+01 4.5594000000e+01 5.1100000000e-04 0.0000e+00 1.0000e+00
       11 -1    0    0    0    0 -0.0000000000e+00 -0.0000000000e+00 -4.5593999997e+01 4.5594000000e+01 5.1100000000e-04 0.0000e+00 -1.0000e+00
       23  2    1    2    0    0 +1.7763568394e-15 +0.0000000000e+00 -2.6645352591e-15 9.1188000000e+01 9.1188000000e+01 1.4328e-13 0.0000e+00
 -9990012  2    3    3    0    0 -1.4831087149e+01 +1.0701790076e+01 +4.0236278547e+00 7.2461573807e+01 7.0000004576e+01 5.0632e-05 0.0000e+00
      -24  2    4    4    0    0 -2.3460280327e-01 +1.6632924221e+01 +1.0438157589e+01 5.5450345177e+01 5.1856305690e+01 9.3515e-14 0.0000e+00
      -11  1    4    4    0    0 -1.4596484346e+01 -5.9311341459e+00 -6.4145297346e+00 1.7011228630e+01 5.1100000000e-04 0.0000e+00 1.0000e+00
       11  1    5    5    0    0 -2.0478385678e+01 -6.4268099075e-01 -9.1168154727e+00 2.2425290265e+01 5.1100000000e-04 0.0000e+00 -1.0000e+00
      -12  1    5    5    0    0 +2.0243782875e+01 +1.7275605212e+01 +1.9554973062e+01 3.3025054913e+01 0.0000000000e+00 0.0000e+00 1.0000e+00
       12  1    3    3    0    0 +1.4831087149e+01 -1.0701790076e+01 -4.0236278547e+00 1.8726426193e+01 0.0000000000e+00 0.0000e+00 -1.0000e+00
</event>
<event>
 9      4 +1.0086356e-04 9.11880000e+01 7.81616400e-03 1.18400000e-01
      -11 -1    0    0    0    0 +0.0000000000e+00 +0.0000000000e+00 +4.5593999997e+01 4.5594000000e+01 5.1100000000e-04 0.0000e+00 1.0000e+00
       11 -1    0    0    0    0 -0.0000000000e+00 -0.0000000000e+00 -4.5593999997e+01 4.5594000000e+01 5.1100000000e-04 0.0000e+00 -1.0000e+00
       23  2    1    2    0    0 +3.5527136788e-15 -1.7763568394e-15 +0.0000000000e+00 9.1188000000e+01 9.1188000000e+01 1.2877e-13 0.0000e+00
 -9990012  2    3    3    0    0 -1.4474195562e+01 -5.9076819168e+00 +1.0309297688e+01 7.2461423655e+01 6.9999808974e+01 1.7552e-04 0.0000e+00
      -24  2    4    4    0    0 -1.8423026730e+01 -1.5229434002e+01 -3.0294390301e-01 5.7794863002e+01 5.2619491070e+01 3.0890e-14 0.0000e+00
      -11  1    4    4    0    0 +3.9488311678e+00 +9.3217520854e+00 +1.0612241591e+01 1.4666560653e+01 5.1100000000e-04 0.0000e+00 1.0000e+00
       11  1    5    5    0    0 +5.9430314565e+00 -2.8839865734e+01 -3.7075004739e+00 2.9678326072e+01 5.1100000000e-04 0.0000e+00 -1.0000e+00
      -12  1    5    5    0    0 -2.4366058187e+01 +1.3610431732e+01 +3.4045565709e+00 2.8116536930e+01 0.0000000000e+00 0.0000e+00 1.0000e+00
       12  1    3    3    0    0 +1.4474195562e+01 +5.9076819168e+00 -1.0309297688e+01 1.8726576345e+01 0.0000000000e+00 0.0000e+00 -1.0000e+00
</event>
<event>
 8      4 +1.0086356e-04 9.11880000e+01 7.81616400e-03 1.18400000e-01
      -11 -1    0    0    0    0 +0.0000000000e+00 +0.0000000000e+00 +4.5593999997e+01 4.5594000000e+01 5.1100000000e-04 0.0000e+00 1.0000e+00
       11 -1    0    0    0    0 -0.0000000000e+00 -0.0000000000e+00 -4.5593999997e+01 4.5594000000e+01 5.1100000000e-04 0.0000e+00 -1.0000e+00
       23  2    1    2    0    0 +0.0000000000e+00 -2.6645352591e-15 +0.0000000000e+00 9.1188000000e+01 9.1188000000e+01 1.7617e-13 0.0000e+00
 -9990012  2    3    3    0    0 -6.5203895431e+00 +6.5631433244e+00 +1.6281607011e+01 7.2461519900e+01 6.9999934351e+01 7.7418e-05 0.0000e+00
      -11  1    4    4    0    0 +1.5028751886e+00 -1.9104490743e+01 +2.1589564305e+01 2.8867793257e+01 5.1100000000e-04 0.0000e+00 1.0000e+00
       11  1    4    4    0    0 -1.5420415563e+01 +2.8576882706e+01 +2.3491881569e+00 3.2556813827e+01 5.1100000000e-04 0.0000e+00 -1.0000e+00
      -12  1    4    4    0    0 +7.3971508312e+00 -2.9092486384e+00 -7.6571454506e+00 1.1036912816e+01 0.0000000000e+00 0.0000e+00 1.0000e+00
       12  1    3    3    0    0 +6.5203895431e+00 -6.5631433244e+00 -1.6281607011e+01 1.8726480100e+01 0.0000000000e+00 0.0000e+00 -1.0000e+00
</event>
<event>
 9      4 +1.0086356e-04 9.11880000e+01 7.81616400e-03 1.18400000e-01
      -11 -1    0    0    0    0 +0.0000000000e+00 +0.0000000000e+00 +4.5593999997e+01 4.5594000000e+01 5.1100000000e-04 0.0000e+00 1.0000e+00
       11 -1    0    0    0    0 -0.0000000000e+00 -0.0000000000e+00 -4.5593999997e+01 4.5594000000e+01 5.1100000000e-04 0.0000e+00 -1.0000e+00
       23  2    1    2    0    0 -1.7763568394e-15 +0.0000000000e+00 +1.3877787808e-17 9.1188000000e+01 9.1188000000e+01 1.1779e-13 0.0000e+00
 -9990012  2    3    3    0    0 +1.5685956934e+01 -1.0228453696e+01 -1.1375823996e-01 7.2461455981e+01 6.9999851086e+01 3.3942e-04 0.0000e+00
       23  2    4    4    0    0 +4.6346364823e+00 -6.7374383686e+00 +3.2392365325e+00 6.0396571163e+01 5.9752658717e+01 1.7853e-14 0.0000e+00
      -11  1    5    5    0    0 +5.5257277033e+00 -2.9413425745e+01 +1.6436750162e+01 3.4144546225e+01 5.1100000000e-04 0.0000e+00 1.0000e+00
       11  1    5    5    0    0 -8.9109122099e-01 +2.2675987377e+01 -1.3197513630e+01 2.6252024938e+01 5.1100000000e-04 0.0000e+00 -1.0000e+00
      -12  1    4    4    0    0 +1.1051320452e+01 -3.4910153270e+00 -3.3529947724e+00 1.2064884819e+01 0.0000000000e+00 0.0000e+00 1.0000e+00
       12  1    3    3    0    0 -1.5685956934e+01 +1.0228453696e+01 +1.1375823996e-01 1.8726544019e+01 0.0000000000e+00 0.0000e+00 -1.0000e+00
</event>
<event>
 8      4 +1.0086356e-04 9.11880000e+01 7.81616400e-03 1.18400000e-01
      -11 -1    0    0    0    0 +0.0000000000e+00 +0.0000000000e+00 +4.5593999997e+01 4.5594000000e+01 5.1100000000e-04 0.0000e+00 1.0000e+00
       11 -1    0    0    0    0 -0.0000000000e+00 -0.0000000000e+00 -4.5593999997e+01 4.5594000000e+01 5.1100000000e-04 0.0000e+00 -1.0000e+00
       23  2    1    2    0    0 -3.5527136788e-15 +0.0000000000e+00 -1.7763568394e-15 9.1188000000e+01 9.1188000000e+01 1.3066e-14 0.0000e+00
 -9990012  2    3    3    0    0 -1.6115576939e+01 +8.5974006552e+00 -4.1293630316e+00 7.2461581305e+01 7.0000014343e+01 9.5511e-04 0.0000e+00
      -11  1    4    4    0    0 -3.9887995398e+00 -1.2993048394e+00 -3.0630479875e+01 3.0916419788e+01 5.1100000000e-04 0.0000e+00 1.0000e+00
       11  1    4    4    0    0 +4.3662034852e-01 +4.2492234269e+00 -5.3482909606e+00 6.8447610273e+00 5.1100000000e-04 0.0000e+00 -1.0000e+00
      -12  1    4    4    0    0 -1.2563397748e+01 +5.6474820676e+00 +3.1849407804e+01 3.4700400490e+01 0.0000000000e+00 0.0000e+00 1.0000e+00
       12  1    3    3    0    0 +1.6115576939e+01 -8.5974006552e+00 +4.1293630316e+00 1.8726418695e+01 0.0000000000e+00 0.0000e+00 -1.0000e+00
</event>
<event>
 8      4 +1.0086356e-04 9.11880000e+01 7.81616400e-03 1.18400000e-01
      -11 -1    0    0    0    0 +0.0000000000e+00 +0.0000000000e+00 +4.5593999997e+01 4.5594000000e+01 5.1100000000e-04 0.0000e+00 1.0000e+00
       11 -1    0    0    0    0 -0.0000000000e+00 -0.0000000000e+00 -4.5593999997e+01 4.5594000000e+01 5.1100000000e-04 0.0000e+00 -1.0000e+00
       23  2    1    2    0    0 +1.7763568394e-15 +0.0000000000e+00 +0.0000000000e+00 9.1188000000e+01 9.1188000000e+01 3.0603e-13 0.0000e+00
 -9990012  2    3    3    0    0 -7.0155329646e+00 -1.5041151045e+01 +8.6733538158e+00 7.2461521582e+01 6.9999936543e+01 2.0485e-04 0.0000e+00
      -11  1    4    4    0    0 -5.8180011797e+00 +1.3027678183e+01 +6.4045023311e+00 1.5639283453e+01 5.1100000000e-04 0.0000e+00 1.0000e+00
       11  1    4    4    0    0 +1.4688618267e+01 -1.8074368839e+01 -1.7823318603e+01 2.9327615004e+01 5.1100000000e-04 0.0000e+00 -1.0000e+00
      -12  1    4    4    0    0 -1.5886150052e+01 -9.9944603884e+00 +2.0092170088e+01 2.7494623125e+01 0.0000000000e+00 0.0000e+00 1.0000e+00
       12  1    3    3    0    0 +7.0155329646e+00 +1.5041151045e+01 -8.6733538158e+00 1.8726478418e+01 0.0000000000e+00 0.0000e+00 -1.0000e+00
</event>
<event>
 9      3 +1.0086356e-04 9.11880000e+01 7.81616400e-03 1.18400000e-01
      -11 -1    0    0    0    0 +0.0000000000e+00 +0.0000000000e+00 +4.5593999997e+01 4.5594000000e+01 5.1100000000e-04 0.0000e+00 1.0000e+00
       11 -1    0    0    0    0 -0.0000000000e+00 -0.0000000000e+00 -4.5593999997e+01 4.5594000000e+01 5.1100000000e-04 0.0000e+00 -1.0000e+00
       23  2    1    2    0    0 -1.1102230246e-15 -2.2204460493e-15 -3.5527136788e-15 9.1188000000e+01 9.1188000000e+01 7.3717e-14 0.0000e+00
  9990012  2    3    3    0    0 -1.2093691736e+00 -3.9696026131e+00 -1.8260814584e+01 7.2461610386e+01 7.0000052227e+01 1.0336e-04 0.0000e+00
       24  2    4    4    0    0 -7.9040127359e+00 -9.5612331243e+00 -2.6635989767e+01 6.0369127439e+01 5.2735803784e+01 1.2075e-14 0.0000e+00
      -11  1    5    5    0    0 -2.3884065393e-01 -5.6300351284e-01 +1.6057681937e+01 1.6069323796e+01 5.1100000000e-04 0.0000e+00 1.0000e+00
       11  1    4    4    0    0 +6.6946435623e+00 +5.5916305113e+00 +8.3751751831e+00 1.2092482946e+01 5.1100000000e-04 0.0000e+00 -1.0000e+00
       12  1    5    5    0    0 -7.6651720820e+00 -8.9982296115e+00 -4.2693671705e+01 4.4299803643e+01 0.0000000000e+00 0.0000e+00 -1.0000e+00
      -12  1    3    3    0    0 +1.2093691736e+00 +3.9696026131e+00 +1.8260814584e+01 1.8726389614e+01 0.0000000000e+00 0.0000e+00 1.0000e+00
</event>
<event>
 8      4 +1.0086356e-04 9.11880000e+01 7.81616400e-03 1.18400000e-01
      -11 -1    0    0    0    0 +0.0000000000e+00 +0.0000000000e+00 +4.5593999997e+01 4.5594000000e+01 5.1100000000e-04 0.0000e+00 -1.0000e+00
       11 -1    0    0    0    0 -0.0000000000e+00 -0.0000000000e+00 -4.5593999997e+01 4.5594000000e+01 5.1100000000e-04 0.0000e+00 1.0000e+00
       23  2    1    2    0    0 +0.0000000000e+00 +1.7763568394e-15 +1.2212453271e-15 9.1188000000e+01 9.1188000000e+01 4.1451e-14 0.0000e+00
 -9990012  2    3    3    0    0 -1.6722628690e+01 -8.3936740210e+00 +7.6081160505e-01 7.2461577272e+01 7.0000009090e+01 1.2722e-04 0.0000e+00
      -11  1    4    4    0    0 +3.5153448698e+00 -7.4825769893e+00 -1.7999676834e+01 1.9807447447e+01 5.1100000000e-04 0.0000e+00 1.0000e+00
       11  1    4    4    0    0 -6.1817317730e+00 +2.0879451960e+01 +2.1996149425e+00 2.1886151512e+01 5.1100000000e-04 0.0000e+00 -1.0000e+00
      -12  1    4    4    0    0 -1.4056241787e+01 -2.1790548992e+01 +1.6560873497e+01 3.0767978314e+01 0.0000000000e+00 0.0000e+00 1.0000e+00
       12  1    3    3    0    0 +1.6722628690e+01 +8.3936740210e+00 -7.6081160505e-01 1.8726422728e+01 0.0000000000e+00 0.0000e+00 -1.0000e+00
</event>
<event>
 8      3 +1.0086356e-04 9.11880000e+01 7.81616400e-03 1.18400000e-01
      -11 -1    0    0    0    0 +0.0000000000e+00 +0.0000000000e+00 +4.5593999997e+01 4.5594000000e+01 5.1100000000e-04 0.0000e+00 1.0000e+00
       11 -1    0    0    0    0 -0.0000000000e+00 -0.0000000000e+00 -4.5593999997e+01 4.5594000000e+01 5.1100000000e-04 0.0000e+00 -1.0000e+00
       23  2    1    2    0    0 +0.0000000000e+00 +3.3306690739e-16 +3.5527136788e-15 9.1188000000e+01 9.1188000000e+01 1.0410e-14 0.0000e+00
  9990012  2    3    3    0    0 +9.5168551294e+00 -4.1961281992e-01 -1.6122387310e+01 7.2461602080e+01 7.0000041407e+01 4.0559e-05 0.0000e+00
      -11  1    4    4    0    0 -1.2245612314e+01 -1.8454084441e+01 -9.2133633745e+00 2.3987378315e+01 5.1100000000e-04 0.0000e+00 1.0000e+00
       11  1    4    4    0    0 +1.2692304253e+01 +1.3436481626e+01 +1.5334612183e+01 2.4016326880e+01 5.1100000000e-04 0.0000e+00 -1.0000e+00
       12  1    4    4    0    0 +9.0701631911e+00 +4.5979899950e+00 -2.2243636118e+01 2.4457896885e+01 0.0000000000e+00 0.0000e+00 -1.0000e+00
      -12  1    3    3    0    0 -9.5168551294e+00 +4.1961281992e-01 +1.6122387310e+01 1.8726397920e+01 0.0000000000e+00 0.0000e+00 1.0000e+00
</event>
<event>
 9      4 +1.0086356e-04 9.11880000e+01 7.81616400e-03 1.18400000e-01
      -11 -1    0    0    0    0 +0.0000000000e+00 +0.0000000000e+00 +4.5593999997e+01 4.5594000000e+01 5.1100000000e-04 0.0000e+00 -1.0000e+00
       11 -1    0    0    0    0 -0.0000000000e+00 -0.0000000000e+00 -4.5593999997e+01 4.5594000000e+01 5.1100000000e-04 0.0000e+00 1.0000e+00
       23  2    1    2    0    0 +0.0000000000e+00 +0.0000000000e+00 -1.7763568394e-15 9.1188000000e+01 9.1188000000e+01 1.0548e-13 0.0000e+00
 -9990012  2    3    3    0    0 +8.1400602883e+00 -1.2400161494e+01 -1.1430471897e+01 7.2461540795e+01 6.9999961571e+01 7.7808e-05 0.0000e+00
      -24  2    4    4    0    0 -4.2201320199e+00 -5.6092700011e+00 -8.0581582265e+00 5.7961090425e+01 5.6967364912e+01 1.0659e-13 0.0000e+00
      -11  1    4    4    0    0 +1.2360192308e+01 -6.7908914929e+00 -3.3723136707e+00 1.4500450369e+01 5.1100000000e-04 0.0000e+00 1.0000e+00
       11  1    5    5    0    0 +2.2867153357e+01 -1.6502089100e+01 -3.6626030109e+00 2.8436601562e+01 5.1100000000e-04 0.0000e+00 -1.0000e+00
      -12  1    5    5    0    0 -2.7087285377e+01 +1.0892819099e+01 -4.3955552156e+00 2.9524488864e+01 0.0000000000e+00 0.0000e+00 1.0000e+00
       12  1    3    3    0    0 -8.1400602883e+00 +1.2400161494e+01 +1.1430471897e+01 1.8726459205e+01 0.0000000000e+00 0.0000e+00 -1.0000e+00
</event>
<event>
 8      4 +1.0086356e-04 9.11880000e+01 7.81616400e-03 1.18400000e-01
      -11 -1    0    0    0    0 +0.0000000000e+00 +0.0000000000e+00 +4.5593999997e+01 4.5594000000e+01 5.1100000000e-04 0.0000e+00 1.0000e+00
       11 -1    0    0    0    0 -0.0000000000e+00 -0.0000000000e+00 -4.5593999997e+01 4.5594000000e+01 5.1100000000e-04 0.0000e+00 -1.0000e+00
       23  2    1    2    0    0 -1.7763568394e-15 +0.0000000000e+00 +1.7763568394e-15 9.1188000000e+01 9.1188000000e+01 2.7025e-15 0.0000e+00
 -9990012  2    3    3    0    0 +9.3813240813e+00 -3.8854907470e+00 +1.5734516012e+01 7.2461514105e+01 6.9999926803e+01 2.3880e-04 0.0000e+00
      -11  1    4    4    0    0 +3.7840048506e+00 +1.4796558324e+01 +1.6695197780e+01 2.2627117804e+01 5.1100000000e-04 0.0000e+00 1.0000e+00
       11  1    4    4    0    0 -1.4621463368e+01 +6.6260781188e+00 +5.1733702660e+00 1.6865819353e+01 5.1100000000e-04 0.0000e+00 -1.0000e+00
      -12  1    4    4    0    0 +2.0218782599e+01 -2.5308127190e+01 -6.1340520342e+00 3.2968576948e+01 0.0000000000e+00 0.0000e+00 1.0000e+00
       12  1    3    3    0    0 -9.3813240813e+00 +3.8854907470e+00 -1.5734516012e+01 1.8726485895e+01 0.0000000000e+00 0.0000e+00 -1.0000e+00
</event>
<event>
 8      4 +1.0086356e-04 9.11880000e+01 7.81616400e-03 1.18400000e-01
      -11 -1    0    0    0    0 +0.0000000000e+00 +0.0000000000e+00 +4.5593999997e+01 4.5594000000e+01 5.1100000000e-04 0.0000e+00 -1.0000e+00
       11 -1    0    0    0    0 -0.0000000000e+00 -0.0000000000e+00 -4.5593999997e+01 4.5594000000e+01 5.1100000000e-04 0.0000e+00 1.0000e+00
       23  2    1    2    0    0 +0.0000000000e+00 +3.5527136788e-15 +0.0000000000e+00 9.1188000000e+01 9.1188000000e+01 1.2233e-13 0.0000e+00
 -9990012  2    3    3    0    0 +8.6695373342e+00 -1.2188519451e+01 -1.1267339578e+01 7.2461712991e+01 7.0000185889e+01 3.6016e-04 0.0000e+00
      -11  1    4    4    0    0 +3.2319537869e+00 -2.2542104373e+01 -4.3015714236e+00 2.3175321181e+01 5.1100000000e-04 0.0000e+00 1.0000e+00
       11  1    4    4    0    0 -3.1330681378e+00 -1.8460132909e+01 -3.0548099548e+00 1.8971675917e+01 5.1100000000e-04 0.0000e+00 -1.0000e+00
      -12  1    4    4    0    0 +8.5706516851e+00 +2.8813717832e+01 -3.9109581992e+00 3.0314715893e+01 0.0000000000e+00 0.0000e+00 1.0000e+00
       12  1    3    3    0    0 -8.6695373342e+00 +1.2188519451e+01 +1.1267339578e+01 1.8726287009e+01 0.0000000000e+00 0.0000e+00 -1.0000e+00
</event>
<event>
 9      4 +1.0086356e-04 9.11880000e+01 7.81616400e-03 1.18400000e-01
      -11 -1    0    0    0    0 +0.0000000000e+00 +0.0000000000e+00 +4.5593999997e+01 4.5594000000e+01 5.1100000000e-04 0.0000e+00 -1.0000e+00
       11 -1    0    0    0    0 -0.0000000000e+00 -0.0000000000e+00 -4.5593999997e+01 4.5594000000e+01 5.1100000000e-04 0.0000e+00 1.0000e+00
       23  2    1    2    0    0 +0.0000000000e+00 +0.0000000000e+00 +4.4408920985e-16 9.1188000000e+01 9.1188000000e+01 1.7298e-13 0.0000e+00
 -9990012  2    3    3    0    0 +8.2351312478e+00 +1.6418404034e+01 -3.6466108920e+00 7.2461570851e+01 7.0000000725e+01 2.9749e-04 0.0000e+00
      -24  2    4    4    0    0 +1.9225714256e+01 +5.8369289127e+00 +3.8244862197e+00 5.5473992362e+01 5.1565873463e+01 1.8562e-14 0.0000e+00
      -11  1    4    4    0    0 -1.0990583008e+01 +1.0581475121e+01 -7.4710971117e+00 1.6987578489e+01 5.1100000000e-04 0.0000e+00 1.0000e+00
       11  1    5    5    0    0 +2.1245784591e+00 +2.6662522567e+01 -4.8122918567e+00 2.7176498973e+01 5.1100000000e-04 0.0000e+00 -1.0000e+00
      -12  1    5    5    0    0 +1.7101135797e+01 -2.0825593654e+01 +8.6367780765e+00 2.8297493389e+01 0.0000000000e+00 0.0000e+00 1.0000e+00
       12  1    3    3    0    0 -8.2351312478e+00 -1.6418404034e+01 +3.6466108920e+00 1.8726429149e+01 0.0000000000e+00 0.0000e+00 -1.0000e+00
</event>
<event>
 9      3 +1.0086356e-04 9.11880000e+01 7.81616400e-03 1.18400000e-01
      -11 -1    0    0    0    0 +0.0000000000e+00 +0.0000000000e+00 +4.5593999997e+01 4.5594000000e+01 5.1100000000e-04 0.0000e+00 -1.0000e+00
       11 -1    0    0    0    0 -0.0000000000e+00 -0.0000000000e+00 -4.5593999997e+01 4.5594000000e+01 5.1100000000e-04 0.0000e+00 1.0000e+00
       23  2    1    2    0    0 +0.0000000000e+00 -1.7763568394e-15 +1.7763568394e-15 9.1188000000e+01 9.1188000000e+01 2.2265e-13 0.0000e+00
  9990012  2    3    3    0    0 -4.7445180009e+00 -1.3494302302e+01 -1.2086017984e+01 7.2461588802e+01 7.0000024109e+01 3.8772e-04 0.0000e+00
       24  2    4    4    0    0 -7.6862241933e+00 -1.8309689613e+01 -9.2649031020e+00 6.6152842514e+01 6.2418245467e+01 4.4032e-14 0.0000e+00
      -11  1    5    5    0    0 +7.9484702294e+00 +2.0773568331e+01 +2.6627734303e+00 2.2401108964e+01 5.1100000000e-04 0.0000e+00 1.0000e+00
       11  1    4    4    0    0 +2.9417061924e+00 +4.8153873112e+00 -2.8211148818e+00 6.3087462873e+00 5.1100000000e-04 0.0000e+00 -1.0000e+00
       12  1    5    5    0    0 -1.5634694423e+01 -3.9083257944e+01 -1.1927676532e+01 4.3751733551e+01 0.0000000000e+00 0.0000e+00 -1.0000e+00
      -12  1    3    3    0    0 +4.7445180009e+00 +1.3494302302e+01 +1.2086017984e+01 1.8726411198e+01 0.0000000000e+00 0.0000e+00 1.0000e+00
</event>
<event>
 9      2 +1.0086356e-04 9.11880000e+01 7.81616400e-03 1.18400000e-01
      -11 -1    0    0    0    0 +0.0000000000e+00 +0.0000000000e+00 +4.5593999997e+01 4.5594000000e+01 5.1100000000e-04 0.0000e+00 1.0000e+00
       11 -1    0    0    0    0 -0.0000000000e+00 -0.0000000000e+00 -4.5593999997e+01 4.5594000000e+01 5.1100000000e-04 0.0000e+00 -1.0000e+00
       23  2    1    2    0    0 +3.5527136788e-15 +0.0000000000e+00 +1.7763568394e-15 9.1188000000e+01 9.1188000000e+01 5.5132e-14 0.0000e+00
 -9990012  2    3    3    0    0 +1.7508705034e+01 +4.5647346861e+00 -4.8254988697e+00 7.2461628380e+01 7.0000075667e+01 1.1798e-04 0.0000e+00
       23  2    4    4    0    0 +1.3438134966e+01 +4.7417404408e+00 +3.3201034738e+00 6.3353845485e+01 6.1641050258e+01 8.9971e-14 0.0000e+00
      -11  1    5    5    0    0 +3.0431881669e+01 +1.4336280093e+01 +1.8716953060e+01 3.8496138519e+01 5.1100000000e-04 0.0000e+00 1.0000e+00
       11  1    5    5    0    0 -1.6993746703e+01 -9.5945396518e+00 -1.5396849586e+01 2.4857706965e+01 5.1100000000e-04 0.0000e+00 -1.0000e+00
      -12  1    4    4    0    0 +4.0705700683e+00 -1.7700575475e-01 -8.1456023435e+00 9.1077828947e+00 0.0000000000e+00 0.0000e+00 1.0000e+00
       12  1    3    3    0    0 -1.7508705034e+01 -4.5647346861e+00 +4.8254988697e+00 1.8726371620e+01 0.0000000000e+00 0.0000e+00 -1.0000e+00
</event>
<event>
 8      3 +1.0086356e-04 9.11880000e+01 7.81616400e-03 1.18400000e-01
      -11 -1    0    0    0    0 +0.0000000000e+00 +0.0000000000e+00 +4.5593999997e+01 4.5594000000e+01 5.1100000000e-04 0.0000e+00 -1.0000e+00
       11 -1    0    0    0    0 -0.0000000000e+00 -0.0000000000e+00 -4.5593999997e+01 4.5594000000e+01 5.1100000000e-04 0.0000e+00 1.0000e+00
       23  2    1    2    0    0 -3.5527136788e-15 -3.5527136788e-15 +0.0000000000e+00 9.1188000000e+01 9.1188000000e+01 7.1180e-14 0.0000e+00
  9990012  2    3    3    0    0 -9.0903331891e+00 -1.4192484330e+01 +8.1619091973e+00 7.2461614051e+01 7.0000057002e+01 4.2849e-04 0.0000e+00
      -11  1    4    4    0    0 -1.6117060327e+01 +2.5180469524e+00 +2.4245137549e-01 1.6314379454e+01 5.1100000000e-04 0.0000e+00 1.0000e+00
       11  1    4    4    0    0 -1.4224811776e+01 +1.2656579348e+01 +5.4900199445e+00 1.9816018523e+01 5.1100000000e-04 0.0000e+00 -1.0000e+00
       12  1    4    4    0    0 +2.1251538914e+01 -2.9367110631e+01 +2.4294378772e+00 3.6331216074e+01 0.0000000000e+00 0.0000e+00 -1.0000e+00
      -12  1    3    3    0    0 +9.0903331891e+00 +1.4192484330e+01 -8.1619091973e+00 1.8726385949e+01 0.0000000000e+00 0.0000e+00 1.0000e+00
</event>
<event>
 9      4 +1.0086356e-04 9.11880000e+01 7.81616400e-03 1.18400000e-01
      -11 -1    0    0    0    0 +0.0000000000e+00 +0.0000000000e+00 +4.5593999997e+01 4.5594000000e+01 5.1100000000e-04 0.0000e+00 1.0000e+00
       11 -1    0    0    0    0 -0.0000000000e+00 -0.0000000000e+00 -4.5593999997e+01 4.5594000000e+01 5.1100000000e-04 0.0000e+00 -1.0000e+00
       23  2    1    2    0    0 +0.0000000000e+00 +0.0000000000e+00 +1.7763568394e-15 9.1188000000e+01 9.1188000000e+01 4.3677e-14 0.0000e+00
 -9990012  2    3    3    0    0 +6.1833083729e+00 +1.1078237173e+01 +1.3774103595e+01 7.2461372670e+01 6.9999742557e+01 1.8852e-04 0.0000e+00
      -24  2    4    4    0    0 +4.5733732303e-03 +3.9421089591e+00 +1.3190855642e+01 6.3004033165e+01 6.1481454752e+01 3.7619e-13 0.0000e+00
      -11  1    4    4    0    0 +6.1787349997e+00 +7.1361282143e+00 +5.8324795315e-01 9.4573395055e+00 5.1100000000e-04 0.0000e+00 1.0000e+00
       11  1    5    5    0    0 -1.3751798678e+01 +2.0491279251e+01 -1.3964752724e+01 2.8355225464e+01 5.1100000000e-04 0.0000e+00 -1.0000e+00
      -12  1    5    5    0    0 +1.3756372051e+01 -1.6549170292e+01 +2.7155608366e+01 3.4648807701e+01 0.0000000000e+00 0.0000e+00 1.0000e+00
       12  1    3    3    0    0 -6.1833083729e+00 -1.1078237173e+01 -1.3774103595e+01 1.8726627330e+01 0.0000000000e+00 0.0000e+00 -1.0000e+00
</event>
<event>
 9      3 +1.0086356e-04 9.11880000e+01 7.81616400e-03 1.18400000e-01
      -11 -1    0    0    0    0 +0.0000000000e+00 +0.0000000000e+00 +4.5593999997e+01 4.5594000000e+01 5.1100000000e-04 0.0000e+00 1.0000e+00
       11 -1    0    0    0    0 -0.0000000000e+00 -0.0000000000e+00 -4.5593999997e+01 4.5594000000e+01 5.1100000000e-04 0.0000e+00 -1.0000e+00
       23  2    1    2    0    0 +0.0000000000e+00 +1.7763568394e-15 +0.0000000000e+00 9.1188000000e+01 9.1188000000e+01 4.9129e-14 0.0000e+00
  9990012  2    3    3    0    0 -3.6946644725e+00 -1.3543792838e+01 -1.2393316770e+01 7.2461570266e+01 6.9999999964e+01 3.7688e-05 0.0000e+00
       24  2    4    4    0    0 -1.1970383497e+01 -1.1464821919e+01 +4.5227805952e-01 5.7040190554e+01 5.4576978299e+01 2.3258e-14 0.0000e+00
      -11  1    5    5    0    0 -2.0844096191e+01 +1.0036277529e+01 +1.6816181918e+01 2.8600475297e+01 5.1100000000e-04 0.0000e+00 1.0000e+00
       11  1    4    4    0    0 +8.2757190242e+00 -2.0789709186e+00 -1.2845594830e+01 1.5421379713e+01 5.1100000000e-04 0.0000e+00 -1.0000e+00
       12  1    5    5    0    0 +8.8737126938e+00 -2.1501099448e+01 -1.6363903858e+01 2.8439715257e+01 0.0000000000e+00 0.0000e+00 -1.0000e+00
      -12  1    3    3    0    0 +3.6946644725e+00 +1.3543792838e+01 +1.2393316770e+01 1.8726429734e+01 0.0000000000e+00 0.0000e+00 1.0000e+00
</event>
<event>
 9      3 +1.0086356e-04 9.11880000e+01 7.81616400e-03 1.18400000e-01
      -11 -1    0    0    0    0 +0.0000000000e+00 +0.0000000000e+00 +4.5593999997e+01 4.5594000000e+01 5.1100000000e-04 0.0000e+00 1.0000e+00
       11 -1    0    0    0    0 -0.0000000000e+00 -0.0000000000e+00 -4.5593999997e+01 4.5594000000e+01 5.1100000000e-04 0.0000e+00 -1.0000e+00
       23  2    1    2    0    0 +0.0000000000e+00 +0.0000000000e+00 -3.3306690739e-16 9.1188000000e+01 9.1188000000e+01 8.7642e-15 0.0000e+00
  9990012  2    3    3    0    0 +8.2422883323e+00 +1.6812313428e+01 -3.0040460368e-01 7.2461563001e+01 6.9999990499e+01 1.3365e-04 0.0000e+00
       24  2    4    4    0    0 +2.4204723027e+00 +2.9176576324e+01 -4.1191453448e+00 5.8271731432e+01 5.0214500232e+01 9.0208e-14 0.0000e+00
      -11  1    5    5    0    0 -1.6197931650e+01 +2.6405564539e+01 +1.2264003532e+01 3.3317151908e+01 5.1100000000e-04 0.0000e+00 -1.0000e+00
       11  1    4    4    0    0 +5.8218160296e+00 -1.2364262896e+01 +3.8187407411e+00 1.4189831569e+01 5.1100000000e-04 0.0000e+00 1.0000e+00
       12  1    5    5    0    0 +1.8618403953e+01 +2.7710117849e+00 -1.6383148877e+01 2.4954579523e+01 0.0000000000e+00 0.0000e+00 -1.0000e+00
      -12  1    3    3    0    0 -8.2422883323e+00 -1.6812313428e+01 +3.0040460368e-01 1.8726436999e+01 0.0000000000e+00 0.0000e+00 1.0000e+00
</event>
<event>
 8      4 +1.0086356e-04 9.11880000e+01 7.81616400e-03 1.18400000e-01
      -11 -1    0    0    0    0 +0.0000000000e+00 +0.0000000000e+00 +4.5593999997e+01 4.5594000000e+01 5.1100000000e-04 0.0000e+00 1.0000e+00
       11 -1    0    0    0    0 -0.0000000000e+00 -0.0000000000e+00 -4.5593999997e+01 4.5594000000e+01 5.1100000000e-04 0.0000e+00 -1.0000e+00
       23  2    1    2    0    0 -3.5527136788e-15 -6.6613381478e-16 +0.0000000000e+00 9.1188000000e+01 9.1188000000e+01 4.9032e-14 0.0000e+00
 -9990012  2    3    3    0    0 -1.7109200417e+01 -1.1013966630e+00 +7.5325237190e+00 7.2461635508e+01 7.0000084952e+01 1.2577e-04 0.0000e+00
      -11  1    4    4    0    0 +1.3712821905e+01 +4.4665910453e+00 +3.2585448542e+00 1.4785467020e+01 5.1100000000e-04 0.0000e+00 1.0000e+00
       11  1    4    4    0    0 -1.6803253686e+01 +1.4881713836e+01 -1.4372901043e+01 2.6653236685e+01 5.1100000000e-04 0.0000e+00 -1.0000e+00
      -12  1    4    4    0    0 -1.4018768636e+01 -2.0449701545e+01 +1.8646879908e+01 3.1022931802e+01 0.0000000000e+00 0.0000e+00 1.0000e+00
       12  1    3    3    0    0 +1.7109200417e+01 +1.1013966630e+00 -7.5325237190e+00 1.8726364492e+01 0.0000000000e+00 0.0000e+00 -1.0000e+00
</event>
<event>
 8      3 +1.0086356e-04 9.11880000e+01 7.81616400e-03 1.18400000e-01
      -11 -1    0    0    0    0 +0.0000000000e+00 +0.0000000000e+00 +4.5593999997e+01 4.5594000000e+01 5.1100000000e-04 0.0000e+00 1.0000e+00
       11 -1    0    0    0    0 -0.0000000000e+00 -0.0000000000e+00 -4.5593999997e+01 4.5594000000e+01 5.1100000000e-04 0.0000e+00 -1.0000e+00
       23  2    1    2    0    0 +0.0000000000e+00 +1.9706458687e-15 +0.0000000000e+00 9.1188000000e+01 9.1188000000e+01 1.0817e-14 0.0000e+00
  9990012  2    3    3    0    0 +1.7919518053e+01 -1.5263979425e-01 -5.4356086614e+00 7.2461594373e+01 7.0000031368e+01 6.1605e-04 0.0000e+00
      -11  1    4    4    0    0 +3.7620211810e+00 +1.3460905376e+01 +2.0626414873e+01 2.4915813607e+01 5.1100000000e-04 0.0000e+00 1.0000e+00
       11  1    4    4    0    0 +1.1897053499e+01 -2.4291814871e+01 -1.1609914163e+01 2.9435051534e+01 5.1100000000e-04 0.0000e+00 -1.0000e+00
       12  1    4    4    0    0 +2.2604433737e+00 +1.0678269700e+01 -1.4452109372e+01 1.8110729233e+01 0.0000000000e+00 0.0000e+00 -1.0000e+00
      -12  1    3    3    0    0 -1.7919518053e+01 +1.5263979425e-01 +5.4356086614e+00 1.8726405627e+01 0.0000000000e+00 0.0000e+00 1.0000e+00
</event>
<event>
 9      3 +1.0086356e-04 9.11880000e+01 7.81616400e-03 1.18400000e-01
      -11 -1    0    0    0    0 +0.0000000000e+00 +0.0000000000e+00 +4.5593999997e+01 4.5594000000e+01 5.1100000000e-04 0.0000e+00 -1.0000e+00
       11 -1    0    0    0    0 -0.0000000000e+00 -0.0000000000e+00 -4.5593999997e+01 4.5594000000e+01 5.1100000000e-04 0.0000e+00 1.0000e+00
       23  2    1    2    0    0 -3.3306690739e-16 -3.5527136788e-15 +8.8817841970e-16 9.1188000000e+01 9.1188000000e+01 4.8540e-14 0.0000e+00
  9990012  2    3    3    0    0 +2.6905851619e-01 -1.8697400680e+01 -1.0063003701e+00 7.2461606191e+01 7.0000046762e+01 8.6035e-05 0.0000e+00
       24  2    4    4    0    0 +7.9613058738e+00 -1.1038759727e+01 -3.5784592090e-01 6.1587511098e+01 6.0063773292e+01 8.3486e-14 0.0000e+00
      -11  1    5    5    0    0 -8.7627835022e+00 -6.5723359444e+00 -2.7383732922e+01 2.9493233181e+01 5.1100000000e-04 0.0000e+00 1.0000e+00
       11  1    4    4    0    0 -7.6922473576e+00 -7.6586409527e+00 -6.4845444916e-01 1.0874095093e+01 5.1100000000e-04 0.0000e+00 -1.0000e+00
       12  1    5    5    0    0 +1.6724089376e+01 -4.4664237824e+00 +2.7025887001e+01 3.2094277917e+01 0.0000000000e+00 0.0000e+00 -1.0000e+00
      -12  1    3    3    0    0 -2.6905851619e-01 +1.8697400680e+01 +1.0063003701e+00 1.8726393809e+01 0.0000000000e+00 0.0000e+00 1.0000e+00
</event>
<event>
 8      3 +1.0086356e-04 9.11880000e+01 7.81616400e-03 1.18400000e-01
      -11 -1    0    0    0    0 +0.0000000000e+00 +0.0000000000e+00 +4.5593999997e+01 4.5594000000e+01 5.1100000000e-04 0.0000e+00 1.0000e+00
       11 -1    0    0    0    0 -0.0000000000e+00 -0.0000000000e+00 -4.5593999997e+01 4.5594000000e+01 5.1100000000e-04 0.0000e+00 -1.0000e+00
       23  2    1    2    0    0 +0.0000000000e+00 +0.0000000000e+00 +0.0000000000e+00 9.1188000000e+01 9.1188000000e+01 1.9326e-14 0.0000e+00
  9990012  2    3    3    0    0 +9.5368735323e+00 +1.2951725994e+01 -9.5906077195e+00 7.2461576972e+01 7.0000008699e+01 1.8122e-04 0.0000e+00
      -11  1    4    4    0    0 -2.0368543869e+01 +1.2095555366e+01 +1.0053211484e+01 2.5734162127e+01 5.1100000000e-04 0.0000e+00 -1.0000e+00
       11  1    4    4    0    0 +2.1279615660e+01 -1.3506238571e+00 +3.7922491093e+00 2.1657039987e+01 5.1100000000e-04 0.0000e+00 1.0000e+00
       12  1    4    4    0    0 +8.6258017422e+00 +2.2067944848e+00 -2.3436068312e+01 2.5070374858e+01 0.0000000000e+00 0.0000e+00 -1.0000e+00
      -12  1    3    3    0    0 -9.5368735323e+00 -1.2951725994e+01 +9.5906077195e+00 1.8726423028e+01 0.0000000000e+00 0.0000e+00 1.0000e+00
</event>
<event>
 9      3 +1.0086356e-04 9.11880000e+01 7.81616400e-03 1.18400000e-01
      -11 -1    0    0    0    0 +0.0000000000e+00 +0.0000000000e+00 +4.5593999997e+01 4.5594000000e+01 5.1100000000e-04 0.0000e+00 -1.0000e+00
       11 -1    0    0    0    0 -0.0000000000e+00 -0.0000000000e+00 -4.5593999997e+01 4.5594000000e+01 5.1100000000e-04 0.0000e+00 1.0000e+00
       23  2    1    2    0    0 +0.0000000000e+00 -8.8817841970e-16 +0.0000000000e+00 9.1188000000e+01 9.1188000000e+01 1.4159e-13 0.0000e+00
  9990012  2    3    3    0    0 -9.3712666985e+00 +1.5295332516e+00 +1.6140490236e+01 7.2461667296e+01 7.0000126362e+01 1.1073e-04 0.0000e+00
       24  2    4    4    0    0 +2.4765332474e+00 +1.2790943480e+01 +1.3483793902e+01 5.5901239778e+01 5.2663027436e+01 2.6822e-13 0.0000e+00
      -11  1    5    5    0    0 +1.7396430886e+01 +1.0687435956e+01 -1.3862662488e+01 2.4678543442e+01 5.1100000000e-04 0.0000e+00 1.0000e+00
       11  1    4    4    0    0 -1.1847799946e+01 -1.1261410228e+01 +2.6566963339e+00 1.6560427517e+01 5.1100000000e-04 0.0000e+00 -1.0000e+00
       12  1    5    5    0    0 -1.4919897639e+01 +2.1035075241e+00 +2.7346456390e+01 3.1222696337e+01 0.0000000000e+00 0.0000e+00 -1.0000e+00
      -12  1    3    3    0    0 +9.3712666985e+00 -1.5295332516e+00 -1.6140490236e+01 1.8726332704e+01 0.0000000000e+00 0.0000e+00 1.0000e+00
</event>
<event>
 8      3 +1.0086356e-04 9.11880000e+01 7.81616400e-03 1.18400000e-01
      -11 -1    0    0    0    0 +0.0000000000e+00 +0.0000000000e+00 +4.5593999997e+01 4.5594000000e+01 5.1100000000e-04 0.0000e+00 -1.0000e+00
       11 -1    0    0    0    0 -0.0000000000e+00 -0.0000000000e+00 -4.5593999997e+01 4.5594000000e+01 5.1100000000e-04 0.0000e+00 1.0000e+00
       23  2    1    2    0    0 +1.7763568394e-15 -4.4408920985e-16 +0.0000000000e+00 9.1188000000e+01 9.1188000000e+01 3.9425e-14 0.0000e+00
  9990012  2    3    3    0    0 -1.5533502253e+01 -2.6174272235e+00 -1.0126244309e+01 7.2461509636e+01 6.9999920982e+01 5.1820e-06 0.0000e+00
      -11  1    4    4    0    0 +2.2365497104e+01 -3.2183975017e+00 +6.6451336220e+00 2.3552735389e+01 5.1100000000e-04 0.0000e+00 1.0000e+00
       11  1    4    4    0    0 -3.2327062921e+01 -6.6130786420e+00 -2.0733211801e+01 3.8969704618e+01 5.1100000000e-04 0.0000e+00 -1.0000e+00
       12  1    4    4    0    0 -5.5719364370e+00 +7.2140489202e+00 +3.9618338692e+00 9.9390696289e+00 0.0000000000e+00 0.0000e+00 -1.0000e+00
      -12  1    3    3    0    0 +1.5533502253e+01 +2.6174272235e+00 +1.0126244309e+01 1.8726490364e+01 0.0000000000e+00 0.0000e+00 1.0000e+00
</event>
<event>
 8      4 +1.0086356e-04 9.11880000e+01 7.81616400e-03 1.18400000e-01
      -11 -1    0    0    0    0 +0.0000000000e+00 +0.0000000000e+00 +4.5593999997e+01 4.5594000000e+01 5.1100000000e-04 0.0000e+00 -1.0000e+00
       11 -1    0    0    0    0 -0.0000000000e+00 -0.0000000000e+00 -4.5593999997e+01 4.5594000000e+01 5.1100000000e-04 0.0000e+00 1.0000e+00
       23  2    1    2    0    0 +1.7763568394e-15 -1.7763568394e-15 +2.2204460493e-16 9.1188000000e+01 9.1188000000e+01 1.0091e-13 0.0000e+00
 -9990012  2    3    3    0    0 -1.1291281856e+01 +1.4855474721e+01 +1.5812238413e+00 7.2461589667e+01 7.0000025236e+01 1.5393e-04 0.0000e+00
      -11  1    4    4    0    0 +1.1230386879e+01 -1.2137238621e+01 -4.4080432813e+00 1.7113298824e+01 5.1100000000e-04 0.0000e+00 1.0000e+00
       11  1    4    4    0    0 +9.9668658709e+00 -3.1201472689e+00 -1.0432131982e+00 1.0495810036e+01 5.1100000000e-04 0.0000e+00 -1.0000e+00
      -12  1    4    4    0    0 -3.2488534607e+01 +3.0112860611e+01 +7.0324803208e+00 4.4852480807e+01 0.0000000000e+00 0.0000e+00 1.0000e+00
       12  1    3    3    0    0 +1.1291281856e+01 -1.4855474721e+01 -1.5812238413e+00 1.8726410333e+01 0.0000000000e+00 0.0000e+00 -1.0000e+00
</event>
<event>
 8      3 +1.0086356e-04 9.11880000e+01 7.81616400e-03 1.18400000e-01
      -11 -1    0    0    0    0 +0.0000000000e+00 +0.0000000000e+00 +4.5593999997e+01 4.5594000000e+01 5.1100000000e-04 0.0000e+00 -1.0000e+00
       11 -1    0    0    0    0 -0.0000000000e+00 -0.0000000000e+00 -4.5593999997e+01 4.5594000000e+01 5.1100000000e-04 0.0000e+00 1.0000e+00
       23  2    1    2    0    0 -3.5527136788e-15 +3.5527136788e-15 +0.0000000000e+00 9.1188000000e+01 9.1188000000e+01 2.0705e-13 0.0000e+00
  9990012  2    3    3    0    0 +1.1905612569e+01 +1.3847221589e+01 -4.1462449577e+00 7.2461534673e+01 6.9999953597e+01 1.8392e-04 0.0000e+00
      -11  1    4    4    0    0 -5.2292114805e-01 -1.4580514593e+01 +2.7947506062e+00 1.4855150068e+01 5.1100000000e-04 0.0000e+00 1.0000e+00
       11  1    4    4    0    0 -1.8041179157e+01 +5.5691805999e+00 +3.8934788969e-02 1.8881245565e+01 5.1100000000e-04 0.0000e+00 -1.0000e+00
       12  1    4    4    0    0 +3.0469712874e+01 +2.2858555583e+01 -6.9799303529e+00 3.8725139040e+01 0.0000000000e+00 0.0000e+00 -1.0000e+00
      -12  1    3    3    0    0 -1.1905612569e+01 -1.3847221589e+01 +4.1462449577e+00 1.8726465327e+01 0.0000000000e+00 0.0000e+00 1.0000e+00
</event>
<event>
 8      4 +1.0086356e-04 9.11880000e+01 7.81616400e-03 1.18400000e-01
      -11 -1    0    0    0    0 +0.0000000000e+00 +0.0000000000e+00 +4.5593999997e+01 4.5594000000e+01 5.1100000000e-04 0.0000e+00 -1.0000e+00
       11 -1    0    0    0    0 -0.0000000000e+00 -0.0000000000e+00 -4.5593999997e+01 4.5594000000e+01 5.1100000000e-04 0.0000e+00 1.0000e+00
       23  2    1    2    0    0 +0.0000000000e+00 +1.5959455979e-16 +0.0000000000e+00 9.1188000000e+01 9.1188000000e+01 2.0787e-14 0.0000e+00
 -9990012  2    3    3    0    0 +8.5911133573e+00 +6.1889038240e-02 -1.6639336404e+01 7.2461586170e+01 7.0000020680e+01 4.9074e-05 0.0000e+00
      -11  1    4    4    0    0 +6.9317239995e+00 -1.4775976527e+01 -3.7790877244e+01 4.1164653321e+01 5.1100000000e-04 0.0000e+00 1.0000e+00
       11  1    4    4    0    0 +6.2534207871e+00 -5.1274261729e-01 +9.8886152425e+00 1.1711229150e+01 5.1100000000e-04 0.0000e+00 -1.0000e+00
      -12  1    4    4    0    0 -4.5940314293e+00 +1.5350608183e+01 +1.1262925597e+01 1.9585703698e+01 0.0000000000e+00 0.0000e+00 1.0000e+00
       12  1    3    3    0    0 -8.5911133573e+00 -6.1889038240e-02 +1.6639336404e+01 1.8726413830e+01 0.0000000000e+00 0.0000e+00 -1.0000e+00
</event>
<event>
 8      3 +1.0086356e-04 9.11880000e+01 7.81616400e-03 1.18400000e-01
      -11 -1    0    0    0    0 +0.0000000000e+00 +0.0000000000e+00 +4.5593999997e+01 4.5594000000e+01 5.1100000000e-04 0.0000e+00 1.0000e+00
       11 -1    0    0    0    0 -0.0000000000e+00 -0.0000000000e+00 -4.5593999997e+01 4.5594000000e+01 5.1100000000e-04 0.0000e+00 -1.0000e+00
       23  2    1    2    0    0 -3.5527136788e-15 +8.8817841970e-16 -1.7763568394e-15 9.1188000000e+01 9.1188000000e+01 1.7360e-13 0.0000e+00
  9990012  2    3    3    0    0 +9.3159422459e+00 +7.6196434319e+00 -1.4346909155e+01 7.2461560182e+01 6.9999986826e+01 4.2473e-05 0.0000e+00
      -11  1    4    4    0    0 -1.6482871408e+01 +5.2970881451e+00 -4.2897058894e+00 1.7836641207e+01 5.1100000000e-04 0.0000e+00 1.0000e+00
       11  1    4    4    0    0 +3.8549341220e+01 +6.6407927464e+00 -1.2239469995e+01 4.0987271961e+01 5.1100000000e-04 0.0000e+00 -1.0000e+00
       12  1    4    4    0    0 -1.2750527566e+01 -4.3182374596e+00 +2.1822667286e+00 1.3637647013e+01 0.0000000000e+00 0.0000e+00 -1.0000e+00
      -12  1    3    3    0    0 -9.3159422459e+00 -7.6196434319e+00 +1.4346909155e+01 1.8726439818e+01 0.0000000000e+00 0.0000e+00 1.0000e+00
</event>
<event>
 9      3 +1.0086356e-04 9.11880000e+01 7.81616400e-03 1.18400000e-01
      -11 -1    0    0    0    0 +0.0000000000e+00 +0.0000000000e+00 +4.5593999997e+01 4.5594000000e+01 5.1100000000e-04 0.0000e+00 1.0000e+00
       11 -1    0    0    0    0 -0.0000000000e+00 -0.0000000000e+00 -4.5593999997e+01 4.5594000000e+01 5.1100000000e-04 0.0000e+00 -1.0000e+00
       23  2    1    2    0    0 +1.7763568394e-15 +8.8817841970e-16 +1.7763568394e-15 9.1188000000e+01 9.1188000000e+01 8.4394e-14 0.0000e+00
  9990012  2    3    3    0    0 +7.0354737885e+00 -7.5278138818e+00 -1.5636914328e+01 7.2461575809e+01 7.0000007184e+01 3.1011e-04 0.0000e+00
       24  2    4    4    0    0 +1.3494473881e+01 -2.2087574464e+00 -2.2393468187e+00 5.6665821349e+01 5.4945620391e+01 9.5902e-14 0.0000e+00
      -11  1    5    5    0    0 +3.0832332403e+01 -7.0572371990e+00 +1.1879287324e+01 3.3786902579e+01 5.1100000000e-04 0.0000e+00 1.0000e+00
       11  1    4    4    0    0 -6.4590000924e+00 -5.3190564354e+00 -1.3397567509e+01 1.5795754461e+01 5.1100000000e-04 0.0000e+00 -1.0000e+00
       12  1    5    5    0    0 -1.7337858522e+01 +4.8484797526e+00 -1.4118634142e+01 2.2878918770e+01 0.0000000000e+00 0.0000e+00 -1.0000e+00
      -12  1    3    3    0    0 -7.0354737885e+00 +7.5278138818e+00 +1.5636914328e+01 1.8726424191e+01 0.0000000000e+00 0.0000e+00 1.0000e+00
</event>
<event>
 9      3 +1.0086356e-04 9.11880000e+01 7.81616400e-03 1.18400000e-01
      -11 -1    0    0    0    0 +0.0000000000e+00 +0.0000000000e+00 +4.5593999997e+01 4.5594000000e+01 5.1100000000e-04 0.0000e+00 -1.0000e+00
       11 -1    0    0    0    0 -0.0000000000e+00 -0.0000000000e+00 -4.5593999997e+01 4.5594000000e+01 5.1100000000e-04 0.0000e+00 1.0000e+00
       23  2    1    2    0    0 +1.3322676296e-15 -8.8817841970e-16 +3.5527136788e-15 9.1188000000e+01 9.1188000000e+01 1.6544e-14 0.0000e+00
  9990012  2    3    3    0    0 -1.3337807216e+00 +7.0854143943e+00 +1.7282900468e+01 7.2461528983e+01 6.9999946184e+01 3.8474e-04 0.0000e+00
       24  2    4    4    0    0 +8.8294888246e+00 +5.9435868924e+00 +1.4222909918e+00 5.3589466268e+01 5.2502589318e+01 1.4145e-13 0.0000e+00
      -11  1    5    5    0    0 -1.8172487419e+01 -1.0868075324e+01 -3.3099796861e+00 2.1431526451e+01 5.1100000000e-04 0.0000e+00 1.0000e+00
       11  1    4    4    0    0 -1.0163269546e+01 +1.1418275019e+00 +1.5860609476e+01 1.8872062715e+01 5.1100000000e-04 0.0000e+00 -1.0000e+00
       12  1    5    5    0    0 +2.7001976243e+01 +1.6811662216e+01 +4.7322706778e+00 3.2157939817e+01 0.0000000000e+00 0.0000e+00 -1.0000e+00
      -12  1    3    3    0    0 +1.3337807216e+00 -7.0854143943e+00 -1.7282900468e+01 1.8726471017e+01 0.0000000000e+00 0.0000e+00 1.0000e+00
</event>
<event>
 8      4 +1.0086356e-04 9.11880000e+01 7.81616400e-03 1.18400000e-01
      -11 -1    0    0    0    0 +0.0000000000e+00 +0.0000000000e+00 +4.5593999997e+01 4.5594000000e+01 5.1100000000e-04 0.0000e+00 -1.0000e+00
       11 -1    0    0    0    0 -0.0000000000e+00 -0.0000000000e+00 -4.5593999997e+01 4.5594000000e+01 5.1100000000e-04 0.0000e+00 1.0000e+00
       23  2    1    2    0    0 +0.0000000000e+00 -4.4408920985e-16 -3.5527136788e-15 9.1188000000e+01 9.1188000000e+01 3.3617e-14 0.0000e+00
 -9990012  2    3    3    0    0 +1.3828816176e+01 +3.8805410313e+00 -1.2016219750e+01 7.2461433508e+01 6.9999821810e+01 2.9354e-04 0.0000e+00
      -11  1    4    4    0    0 +8.9375274918e+00 +1.9038059794e+01 -5.6480288042e+00 2.1776761651e+01 5.1100000000e-04 0.0000e+00 1.0000e+00
       11  1    4    4    0    0 -6.1209008661e+00 -7.2928404837e+00 +1.9382551048e+01 2.1594773329e+01 5.1100000000e-04 0.0000e+00 -1.0000e+00
      -12  1    4    4    0    0 +1.1012189550e+01 -7.8646782789e+00 -2.5750741994e+01 2.9089898527e+01 0.0000000000e+00 0.0000e+00 1.0000e+00
       12  1    3    3    0    0 -1.3828816176e+01 -3.8805410313e+00 +1.2016219750e+01 1.8726566492e+01 0.0000000000e+00 0.0000e+00 -1.0000e+00
</event>
<event>
 8      4 +1.0086356e-04 9.11880000e+01 7.81616400e-03 1.18400000e-01
      -11 -1    0    0    0    0 +0.0000000000e+00 +0.0000000000e+00 +4.5593999997e+01 4.5594000000e+01 5.1100000000e-04 0.0000e+00 1.0000e+00
       11 -1    0    0    0    0 -0.0000000000e+00 -0.0000000000e+00 -4.5593999997e+01 4.5594000000e+01 5.1100000000e-04 0.0000e+00 -1.0000e+00
       23  2    1    2    0    0 +1.7763568394e-15 +0.0000000000e+00 +0.0000000000e+00 9.1188000000e+01 9.1188000000e+01 3.6252e-14 0.0000e+00
 -9990012  2    3    3    0    0 -1.4298282399e+01 +1.1219291840e+01 +4.5129161855e+00 7.2461553422e+01 6.9999978020e+01 3.2428e-04 0.0000e+00
      -11  1    4    4    0    0 -1.4957538145e+01 +2.4421324785e+01 -5.3131439767e+00 2.9126595249e+01 5.1100000000e-04 0.0000e+00 -1.0000e+00
       11  1    4    4    0    0 +1.8956811710e+01 -1.3857559335e+01 +2.5003177148e+00 2.3614492369e+01 5.1100000000e-04 0.0000e+00 1.0000e+00
      -12  1    4    4    0    0 -1.8297555964e+01 +6.5552638956e-01 +7.3257424474e+00 1.9720465804e+01 0.0000000000e+00 0.0000e+00 1.0000e+00
       12  1    3    3    0    0 +1.4298282399e+01 -1.1219291840e+01 -4.5129161855e+00 1.8726446578e+01 0.0000000000e+00 0.0000e+00 -1.0000e+00
</event>
<event>
 9      4 +1.0086356e-04 9.11880000e+01 7.81616400e-03 1.18400000e-01
      -11 -1    0    0    0    0 +0.0000000000e+00 +0.0000000000e+00 +4.5593999997e+01 4.5594000000e+01 5.1100000000e-04 0.0000e+00 -1.0000e+00
       11 -1    0    0    0    0 -0.0000000000e+00 -0.0000000000e+00 -4.5593999997e+01 4.5594000000e+01 5.1100000000e-04 0.0000e+00 1.0000e+00
       23  2    1    2    0    0 +4.4408920985e-16 +4.4408920985e-16 +3.5527136788e-15 9.1188000000e+01 9.1188000000e+01 3.2307e-15 0.0000e+00
 -9990012  2    3    3    0    0 -9.3209619347e-01 +1.1109203785e+00 -1.8670283335e+01 7.2461483313e+01 6.9999886691e+01 3.6549e-04 0.0000e+00
      -24  2    4    4    0    0 -5.8544633816e+00 +1.0456460081e+01 -1.7425801213e+01 6.1825809988e+01 5.8096126669e+01 1.9210e-13 0.0000e+00
      -11  1    4    4    0    0 +4.9223671881e+00 -9.3455397022e+00 -1.2444821224e+00 1.0635673325e+01 5.1100000000e-04 0.0000e+00 1.0000e+00
       11  1    5    5    0    0 +2.0242556346e+01 +8.9310971347e+00 -2.6161797306e+01 3.4263175889e+01 5.1100000000e-04 0.0000e+00 -1.0000e+00
      -12  1    5    5    0    0 -2.6097019727e+01 +1.5253629459e+00 +8.7359960935e+00 2.7562634100e+01 0.0000000000e+00 0.0000e+00 1.0000e+00
       12  1    3    3    0    0 +9.3209619347e-01 -1.1109203785e+00 +1.8670283335e+01 1.8726516687e+01 0.0000000000e+00 0.0000e+00 -1.0000e+00
</event>
<event>
 8      3 +1.0086356e-04 9.11880000e+01 7.81616400e-03 1.18400000e-01
      -11 -1    0    0    0    0 +0.0000000000e+00 +0.0000000000e+00 +4.5593999997e+01 4.5594000000e+01 5.1100000000e-04 0.0000e+00 -1.0000e+00
       11 -1    0    0    0    0 -0.0000000000e+00 -0.0000000000e+00 -4.5593999997e+01 4.5594000000e+01 5.1100000000e-04 0.0000e+00 1.0000e+00
       23  2    1    2    0    0 +5.3290705182e-15 +0.0000000000e+00 +0.0000000000e+00 9.1188000000e+01 9.1188000000e+01 9.7519e-14 0.0000e+00
  9990012  2    3    3    0    0 -7.3212611429e+00 -1.3831986216e+01 +1.0283695225e+01 7.2461572288e+01 7.0000002597e+01 9.9579e-05 0.0000e+00
      -11  1    4    4    0    0 +9.6740201986e+00 -2.2685971283e+00 -3.5869435542e+00 1.0564060018e+01 5.1100000000e-04 0.0000e+00 1.0000e+00
       11  1    4    4    0    0 +1.8780136257e+01 +2.8190131604e+00 +1.3565667175e+01 2.3338116445e+01 5.1100000000e-04 0.0000e+00 -1.0000e+00
       12  1    4    4    0    0 -3.5775417598e+01 -1.4382402248e+01 +3.0497160406e-01 3.8559395825e+01 0.0000000000e+00 0.0000e+00 -1.0000e+00
      -12  1    3    3    0    0 +7.3212611429e+00 +1.3831986216e+01 -1.0283695225e+01 1.8726427712e+01 0.0000000000e+00 0.0000e+00 1.0000e+00
</event>
<event>
 8      4 +1.0086356e-04 9.11880000e+01 7.81616400e-03 1.18400000e-01
      -11 -1    0    0    0    0 +0.0000000000e+00 +0.0000000000e+00 +4.5593999997e+01 4.5594000000e+01 5.1100000000e-04 0.0000e+00 1.0000e+00
       11 -1    0    0    0    0 -0.0000000000e+00 -0.0000000000e+00 -4.5593999997e+01 4.5594000000e+01 5.1100000000e-04 0.0000e+00 -1.0000e+00
       23  2    1    2    0    0 -2.2204460493e-15 -8.8817841970e-16 +0.0000000000e+00 9.1188000000e+01 9.1188000000e+01 3.5703e-13 0.0000e+00
 -9990012  2    3    3    0    0 -2.4742488797e+00 -6.5594489530e+00 +1.7364666456e+01 7.2461550277e+01 6.9999973924e+01 8.6815e-05 0.0000e+00
      -11  1    4    4    0    0 +1.3521752604e+01 -2.8204283834e+00 -3.0898215091e+00 1.4154137450e+01 5.1100000000e-04 0.0000e+00 1.0000e+00
       11  1    4    4    0    0 -2.2206517751e+01 +4.4124485227e+00 +3.4289904438e+01 4.1090104395e+01 5.1100000000e-04 0.0000e+00 -1.0000e+00
      -12  1    4    4    0    0 +6.2105162673e+00 -8.1514690923e+00 -1.3835416472e+01 1.7217308432e+01 0.0000000000e+00 0.0000e+00 1.0000e+00
       12  1    3    3    0    0 +2.4742488797e+00 +6.5594489530e+00 -1.7364666456e+01 1.8726449723e+01 0.0000000000e+00 0.0000e+00 -1.0000e+00
</event>
<event>
 8      4 +1.0086356e-04 9.11880000e+01 7.81616400e-03 1.18400000e-01
      -11 -1    0    0    0    0 +0.0000000000e+00 +0.0000000000e+00 +4.5593999997e+01 4.5594000000e+01 5.1100000000e-04 0.0000e+00 1.0000e+00
       11 -1    0    0    0    0 -0.0000000000e+00 -0.0000000000e+00 -4.5593999997e+01 4.5594000000e+01 5.1100000000e-04 0.0000e+00 -1.0000e+00
       23  2    1    2    0    0 +1.7763568394e-15 +1.7763568394e-15 +1.7763568394e-15 9.1188000000e+01 9.1188000000e+01 2.7142e-14 0.0000e+00
 -9990012  2    3    3    0    0 +9.6778114687e+00 +1.3818061633e+01 +8.1292448713e+00 7.2461455089e+01 6.9999849924e+01 5.1567e-05 0.0000e+00
      -11  1    4    4    0    0 -8.7512323294e+00 +2.4847151825e+01 +2.4336162833e+01 3.5863823594e+01 5.1100000000e-04 0.0000e+00 1.0000e+00
       11  1    4    4    0    0 +1.7696737882e+01 +3.4966823129e+00 -1.1112520955e+01 2.1187011141e+01 5.1100000000e-04 0.0000e+00 -1.0000e+00
      -12  1    4    4    0    0 +7.3230591592e-01 -1.4525772505e+01 -5.0943970062e+00 1.5410620354e+01 0.0000000000e+00 0.0000e+00 1.0000e+00
       12  1    3    3    0    0 -9.6778114687e+00 -1.3818061633e+01 -8.1292448713e+00 1.8726544911e+01 0.0000000000e+00 0.0000e+00 -1.0000e+00
</event>
<event>
 9      1 +1.0086356e-04 9.11880000e+01 7.81616400e-03 1.18400000e-01
      -11 -1    0    0    0    0 +0.0000000000e+00 +0.0000000000e+00 +4.5593999997e+01 4.5594000000e+01 5.1100000000e-04 0.0000e+00 -1.0000e+00
       11 -1    0    0    0    0 -0.0000000000e+00 -0.0000000000e+00 -4.5593999997e+01 4.5594000000e+01 5.1100000000e-04 0.0000e+00 1.0000e+00
       23  2    1    2    0    0 +0.0000000000e+00 -8.8817841970e-16 +1.7763568394e-15 9.1188000000e+01 9.1188000000e+01 6.7051e-13 0.0000e+00
  9990012  2    3    3    0    0 +1.2568594899e+01 -5.3926778280e+00 +1.2792319072e+01 7.2461174879e+01 6.9999484896e+01 1.5857e-03 0.0000e+00
       23  2    4    4    0    0 +1.3044635083e+01 -1.2256133830e+01 +1.1617617465e+01 6.5481664407e+01 6.1907221042e+01 8.9706e-15 0.0000e+00
      -11  1    5    5    0    0 -5.8865637044e+00 -2.2704012170e-01 -2.3271027921e+01 2.4005081134e+01 5.1100000000e-04 0.0000e+00 1.0000e+00
       11  1    5    5    0    0 +1.8931198787e+01 -1.2029093708e+01 +3.4888645386e+01 4.1476583274e+01 5.1100000000e-04 0.0000e+00 -1.0000e+00
       12  1    4    4    0    0 -4.7604018382e-01 +6.8634560022e+00 +1.1747016073e+00 6.9795104711e+00 0.0000000000e+00 0.0000e+00 -1.0000e+00
      -12  1    3    3    0    0 -1.2568594899e+01 +5.3926778280e+00 -1.2792319072e+01 1.8726825121e+01 0.0000000000e+00 0.0000e+00 1.0000e+00
</event>
<event>
 8      4 +1.0086356e-04 9.11880000e+01 7.81616400e-03 1.18400000e-01
      -11 -1    0    0    0    0 +0.0000000000e+00 +0.0000000000e+00 +4.5593999997e+01 4.5594000000e+01 5.1100000000e-04 0.0000e+00 -1.0000e+00
       11 -1    0    0    0    0 -0.0000000000e+00 -0.0000000000e+00 -4.5593999997e+01 4.5594000000e+01 5.1100000000e-04 0.0000e+00 1.0000e+00
       23  2    1    2    0    0 -1.7763568394e-15 +0.0000000000e+00 -1.7763568394e-15 9.1188000000e+01 9.1188000000e+01 7.0761e-14 0.0000e+00
 -9990012  2    3    3    0    0 -7.6527443897e+00 +1.2765286630e+01 +1.1364295151e+01 7.2461968821e+01 7.0000519153e+01 1.7307e-05 0.0000e+00
      -11  1    4    4    0    0 -2.3703266328e+01 +6.4026344795e+00 +1.6534306271e+01 2.9601044695e+01 5.1100000000e-04 0.0000e+00 1.0000e+00
       11  1    4    4    0    0 +1.4670575218e+01 +1.2797199346e+01 -1.9213253826e+01 2.7352206697e+01 5.1100000000e-04 0.0000e+00 -1.0000e+00
      -12  1    4    4    0    0 +1.3799467210e+00 -6.4345471958e+00 +1.4043242707e+01 1.5508717429e+01 0.0000000000e+00 0.0000e+00 1.0000e+00
       12  1    3    3    0    0 +7.6527443897e+00 -1.2765286630e+01 -1.1364295151e+01 1.8726031179e+01 0.0000000000e+00 0.0000e+00 -1.0000e+00
</event>
<event>
 8      4 +1.0086356e-04 9.11880000e+01 7.81616400e-03 1.18400000e-01
      -11 -1    0    0    0    0 +0.0000000000e+00 +0.0000000000e+00 +4.5593999997e+01 4.5594000000e+01 5.1100000000e-04 0.0000e+00 1.0000e+00
       11 -1    0    0    0    0 -0.0000000000e+00 -0.0000000000e+00 -4.5593999997e+01 4.5594000000e+01 5.1100000000e-04 0.0000e+00 -1.0000e+00
       23  2    1    2    0    0 -1.7763568394e-15 +0.0000000000e+00 +1.0547118734e-15 9.1188000000e+01 9.1188000000e+01 7.0094e-14 0.0000e+00
 -9990012  2    3    3    0    0 +1.0785629912e+01 +1.5305072758e+01 -3.2271985375e-01 7.2461569138e+01 6.9999998493e+01 4.2671e-05 0.0000e+00
      -11  1    4    4    0    0 -1.5197306162e+01 -1.3129804401e+01 +1.6107080670e+01 2.5744667917e+01 5.1100000000e-04 0.0000e+00 1.0000e+00
       11  1    4    4    0    0 +1.6225482650e+01 +5.2219103326e+00 -7.6627210906e-01 1.7062291990e+01 5.1100000000e-04 0.0000e+00 -1.0000e+00
      -12  1    4    4    0    0 +9.7574534235e+00 +2.3212966826e+01 -1.5663528415e+01 2.9654609230e+01 0.0000000000e+00 0.0000e+00 1.0000e+00
       12  1    3    3    0    0 -1.0785629912e+01 -1.5305072758e+01 +3.2271985375e-01 1.8726430862e+01 0.0000000000e+00 0.0000e+00 -1.0000e+00
</event>
<event>
 8      4 +1.0086356e-04 9.11880000e+01 7.81616400e-03 1.18400000e-01
      -11 -1    0    0    0    0 +0.0000000000e+00 +0.0000000000e+00 +4.5593999997e+01 4.5594000000e+01 5.1100000000e-04 0.0000e+00 1.0000e+00
       11 -1    0    0    0    0 -0.0000000000e+00 -0.0000000000e+00 -4.5593999997e+01 4.5594000000e+01 5.1100000000e-04 0.0000e+00 -1.0000e+00
       23  2    1    2    0    0 -7.9936057773e-15 +0.0000000000e+00 +0.0000000000e+00 9.1188000000e+01 9.1188000000e+01 1.1214e-15 0.0000e+00
 -9990012  2    3    3    0    0 -4.2288535293e+00 -1.5733219358e+01 -9.2336784553e+00 7.2461595878e+01 7.0000033327e+01 1.7129e-04 0.0000e+00
      -11  1    4    4    0    0 +3.1232815409e+01 -3.5905486287e+00 -7.9066101287e+00 3.2417515047e+01 5.1100000000e-04 0.0000e+00 1.0000e+00
       11  1    4    4    0    0 -2.3498647394e+01 -8.5349681287e-01 +2.9151241559e-01 2.3515949181e+01 5.1100000000e-04 0.0000e+00 -1.0000e+00
      -12  1    4    4    0    0 -1.1963021545e+01 -1.1289173916e+01 -1.6185807421e+00 1.6528131649e+01 0.0000000000e+00 0.0000e+00 1.0000e+00
       12  1    3    3    0    0 +4.2288535293e+00 +1.5733219358e+01 +9.2336784553e+00 1.8726404122e+01 0.0000000000e+00 0.0000e+00 -1.0000e+00
</event>
<event>
 9      4 +1.0086356e-04 9.11880000e+01 7.81616400e-03 1.18400000e-01
      -11 -1    0    0    0    0 +0.0000000000e+00 +0.0000000000e+00 +4.5593999997e+01 4.5594000000e+01 5.1100000000e-04 0.0000e+00 1.0000e+00
       11 -1    0    0    0    0 -0.0000000000e+00 -0.0000000000e+00 -4.5593999997e+01 4.5594000000e+01 5.1100000000e-04 0.0000e+00 -1.0000e+00
       23  2    1    2    0    0 +8.8817841970e-16 +0.0000000000e+00 -5.3290705182e-15 9.1188000000e+01 9.1188000000e+01 2.8682e-14 0.0000e+00
 -9990012  2    3    3    0    0 +4.3366138519e+00 -1.3428855163e+01 -1.2310114186e+01 7.2461567292e+01 6.9999996090e+01 1.3190e-04 0.0000e+00
      -24  2    4    4    0    0 +5.0620402234e+00 -1.8270418558e+01 -1.0616864174e+01 6.7281405577e+01 6.3676033844e+01 1.2297e-15 0.0000e+00
      -11  1    4    4    0    0 -7.2542637153e-01 +4.8415633953e+00 -1.6932500121e+00 5.1801617152e+00 5.1100000000e-04 0.0000e+00 1.0000e+00
       11  1    5    5    0    0 -6.2693268709e+00 +1.0350011612e+01 -2.9003217498e+01 3.1426323763e+01 5.1100000000e-04 0.0000e+00 -1.0000e+00
      -12  1    5    5    0    0 +1.1331367094e+01 -2.8620430170e+01 +1.8386353324e+01 3.5855081814e+01 0.0000000000e+00 0.0000e+00 1.0000e+00
       12  1    3    3    0    0 -4.3366138519e+00 +1.3428855163e+01 +1.2310114186e+01 1.8726432708e+01 0.0000000000e+00 0.0000e+00 -1.0000e+00
</event>
<event>
 9      2 +1.0086356e-04 9.11880000e+01 7.81616400e-03 1.18400000e-01
      -11 -1    0    0    0    0 +0.0000000000e+00 +0.0000000000e+00 +4.5593999997e+01 4.5594000000e+01 5.1100000000e-04 0.0000e+00 1.0000e+00
       11 -1    0    0    0    0 -0.0000000000e+00 -0.0000000000e+00 -4.5593999997e+01 4.5594000000e+01 5.1100000000e-04 0.0000e+00 -1.0000e+00
       23  2    1    2    0    0 +0.0000000000e+00 +0.0000000000e+00 -8.8817841970e-16 9.1188000000e+01 9.1188000000e+01 3.0834e-14 0.0000e+00
 -9990012  2    3    3    0    0 +1.6150054242e+01 -8.9441964145e+00 -3.1396289397e+00 7.2461543544e+01 6.9999965152e+01 6.8972e-06 0.0000e+00
       23  2    4    4    0    0 +1.4803441913e+01 -1.4379106707e+01 -6.5094635796e+00 6.5926453632e+01 6.2273779155e+01 4.8796e-14 0.0000e+00
      -11  1    5    5    0    0 +3.3066990097e+01 -2.0785609428e+01 +1.0188578622e+01 4.0364272915e+01 5.1100000000e-04 0.0000e+00 1.0000e+00
       11  1    5    5    0    0 -1.8263548184e+01 +6.4065027204e+00 -1.6698042201e+01 2.5562180717e+01 5.1100000000e-04 0.0000e+00 -1.0000e+00
      -12  1    4    4    0    0 +1.3466123296e+00 +5.4349102928e+00 +3.3698346398e+00 6.5350899119e+00 0.0000000000e+00 0.0000e+00 1.0000e+00
       12  1    3    3    0    0 -1.6150054242e+01 +8.9441964145e+00 +3.1396289397e+00 1.8726456456e+01 0.0000000000e+00 0.0000e+00 -1.0000e+00
</event>
<event>
 8      4 +1.0086356e-04 9.11880000e+01 7.81616400e-03 1.18400000e-01
      -11 -1    0    0    0    0 +0.0000000000e+00 +0.0000000000e+00 +4.5593999997e+01 4.5594000000e+01 5.1100000000e-04 0.0000e+00 1.0000e+00
       11 -1    0    0    0    0 -0.0000000000e+00 -0.0000000000e+00 -4.5593999997e+01 4.5594000000e+01 5.1100000000e-04 0.0000e+00 -1.0000e+00
       23  2    1    2    0    0 +0.0000000000e+00 -1.7763568394e-15 -1.7763568394e-15 9.1188000000e+01 9.1188000000e+01 8.4110e-14 0.0000e+00
 -9990012  2    3    3    0    0 +1.0063635764e+01 -8.8042281360e+00 +1.3110802084e+01 7.2461432532e+01 6.9999820538e+01 6.5070e-04 0.0000e+00
      -11  1    4    4    0    0 +2.6121129213e+01 -1.1889686270e+01 -1.3161377256e+01 3.1573721391e+01 5.1100000000e-04 0.0000e+00 -1.0000e+00
       11  1    4    4    0    0 -9.2283705342e+00 +1.1772791553e+01 +3.1873993816e+00 1.5294474779e+01 5.1100000000e-04 0.0000e+00 1.0000e+00
      -12  1    4    4    0    0 -6.8291229149e+00 -8.6873334194e+00 +2.3084779958e+01 2.5593236362e+01 0.0000000000e+00 0.0000e+00 1.0000e+00
       12  1    3    3    0    0 -1.0063635764e+01 +8.8042281360e+00 -1.3110802084e+01 1.8726567468e+01 0.0000000000e+00 0.0000e+00 -1.0000e+00
</event>
<event>
 8      3 +1.0086356e-04 9.11880000e+01 7.81616400e-03 1.18400000e-01
      -11 -1    0    0    0    0 +0.0000000000e+00 +0.0000000000e+00 +4.5593999997e+01 4.5594000000e+01 5.1100000000e-04 0.0000e+00 1.0000e+00
       11 -1    0    0    0    0 -0.0000000000e+00 -0.0000000000e+00 -4.5593999997e+01 4.5594000000e+01 5.1100000000e-04 0.0000e+00 -1.0000e+00
       23  2    1    2    0    0 +1.7763568394e-15 +1.7763568394e-15 +1.7763568394e-15 9.1188000000e+01 9.1188000000e+01 1.2126e-13 0.0000e+00
  9990012  2    3    3    0    0 -1.2669347295e+01 -9.5576345003e+00 -9.9403061455e+00 7.2461803792e+01 7.0000304174e+01 9.3360e-05 0.0000e+00
      -11  1    4    4    0    0 -6.1951662361e+00 +1.6638340843e+01 +4.1120368824e+00 1.8224250829e+01 5.1100000000e-04 0.0000e+00 1.0000e+00
       11  1    4    4    0    0 -1.7351922589e+01 +5.6904745586e+00 -1.6465596635e+00 1.8335263217e+01 5.1100000000e-04 0.0000e+00 -1.0000e+00
       12  1    4    4    0    0 +1.0877741530e+01 -3.1886449902e+01 -1.2405783364e+01 3.5902289746e+01 0.0000000000e+00 0.0000e+00 -1.0000e+00
      -12  1    3    3    0    0 +1.2669347295e+01 +9.5576345003e+00 +9.9403061455e+00 1.8726196208e+01 0.0000000000e+00 0.0000e+00 1.0000e+00
</event>
<event>
 8      3 +1.0086356e-04 9.11880000e+01 7.81616400e-03 1.18400000e-01
      -11 -1    0    0    0    0 +0.0000000000e+00 +0.0000000000e+00 +4.5593999997e+01 4.5594000000e+01 5.1100000000e-04 0.0000e+00 1.0000e+00
       11 -1    0    0    0    0 -0.0000000000e+00 -0.0000000000e+00 -4.5593999997e+01 4.5594000000e+01 5.1100000000e-04 0.0000e+00 -1.0000e+00
       23  2    1    2    0    0 -1.7763568394e-15 +0.0000000000e+00 +0.0000000000e+00 9.1188000000e+01 9.1188000000e+01 7.5758e-15 0.0000e+00
  9990012  2    3    3    0    0 -5.7108009209e+00 +1.5274568304e+01 +9.2061103631e+00 7.2461597461e+01 7.0000035389e+01 2.3875e-04 0.0000e+00
      -11  1    4    4    0    0 -2.4002089387e+01 -4.0917701508e-01 +2.5485688497e+01 3.5011255893e+01 5.1100000000e-04 0.0000e+00 1.0000e+00
       11  1    4    4    0    0 -4.9789831047e-01 -5.2922934786e+00 -9.9145980129e-01 5.4073344441e+00 5.1100000000e-04 0.0000e+00 -1.0000e+00
       12  1    4    4    0    0 +1.8789186777e+01 +2.0976038798e+01 -1.5288118332e+01 3.2043007124e+01 0.0000000000e+00 0.0000e+00 -1.0000e+00
      -12  1    3    3    0    0 +5.7108009209e+00 -1.5274568304e+01 -9.2061103631e+00 1.8726402539e+01 0.0000000000e+00 0.0000e+00 1.0000e+00
</event>
<event>
 8      4 +1.0086356e-04 9.11880000e+01 7.81616400e-03 1.18400000e-01
      -11 -1    0    0    0    0 +0.0000000000e+00 +0.0000000000e+00 +4.5593999997e+01 4.5594000000e+01 5.1100000000e-04 0.0000e+00 1.0000e+00
       11 -1    0    0    0    0 -0.0000000000e+00 -0.0000000000e+00 -4.5593999997e+01 4.5594000000e+01 5.1100000000e-04 0.0000e+00 -1.0000e+00
       23  2    1    2    0    0 -5.3290705182e-15 +0.0000000000e+00 +8.8817841970e-16 9.1188000000e+01 9.1188000000e+01 2.0062e-14 0.0000e+00
 -9990012  2    3    3    0    0 +1.2291787722e+01 -1.2716423475e+01 +6.1550160529e+00 7.2461556290e+01 6.9999981757e+01 1.9521e-04 0.0000e+00
      -11  1    4    4    0    0 -1.6965845027e+01 -2.3881267895e+01 +1.9147096771e+00 2.9356787412e+01 5.1100000000e-04 0.0000e+00 -1.0000e+00
       11  1    4    4    0    0 -1.3167063358e+00 +1.0156753380e+01 -4.6503261008e+00 1.1248061517e+01 5.1100000000e-04 0.0000e+00 1.0000e+00
      -12  1    4    4    0    0 +3.0574339085e+01 +1.0080910409e+00 +8.8906324767e+00 3.1856707361e+01 0.0000000000e+00 0.0000e+00 1.0000e+00
       12  1    3    3    0    0 -1.2291787722e+01 +1.2716423475e+01 -6.1550160529e+00 1.8726443710e+01 0.0000000000e+00 0.0000e+00 -1.0000e+00
</event>
<event>
 8      3 +1.0086356e-04 9.11880000e+01 7.81616400e-03 1.18400000e-01
      -11 -1    0    0    0    0 +0.0000000000e+00 +0.0000000000e+00 +4.5593999997e+01 4.5594000000e+01 5.1100000000e-04 0.0000e+00 1.0000e+00
       11 -1    0    0    0    0 -0.0000000000e+00 -0.0000000000e+00 -4.5593999997e+01 4.5594000000e+01 5.1100000000e-04 0.0000e+00 -1.0000e+00
       23  2    1    2    0    0 +0.0000000000e+00 -8.8817841970e-16 +8.8817841970e-16 9.1188000000e+01 9.1188000000e+01 5.3016e-15 0.0000e+00
  9990012  2    3    3    0    0 +1.5733512462e+01 +7.3451895581e+00 -7.0130113756e+00 7.2461613467e+01 7.0000056240e+01 1.9289e-04 0.0000e+00
      -11  1    4    4    0    0 -1.2600773813e+01 +1.4242891615e-01 -1.2454400958e+00 1.2662973899e+01 5.1100000000e-04 0.0000e+00 1.0000e+00
       11  1    4    4    0    0 -9.5483222360e+00 -1.2481106712e+01 -6.7334313506e+00 1.7096420102e+01 5.1100000000e-04 0.0000e+00 -1.0000e+00
       12  1    4    4    0    0 +3.7882608511e+01 +1.9683867354e+01 +9.6586007082e-01 4.2702219466e+01 0.0000000000e+00 0.0000e+00 -1.0000e+00
      -12  1    3    3    0    0 -1.5733512462e+01 -7.3451895581e+00 +7.0130113756e+00 1.8726386533e+01 0.0000000000e+00 0.0000e+00 1.0000e+00
</event>
<event>
 9      4 +1.0086356e-04 9.11880000e+01 7.81616400e-03 1.18400000e-01
      -11 -1    0    0    0    0 +0.0000000000e+00 +0.0000000000e+00 +4.5593999997e+01 4.5594000000e+01 5.1100000000e-04 0.0000e+00 1.0000e+00
       11 -1    0    0    0    0 -0.0000000000e+00 -0.0000000000e+00 -4.5593999997e+01 4.5594000000e+01 5.1100000000e-04 0.0000e+00 -1.0000e+00
       23  2    1    2    0    0 -5.5511151231e-17 +3.5527136788e-15 +0.0000000000e+00 9.1188000000e+01 9.1188000000e+01 8.3154e-14 0.0000e+00
 -9990012  2    3    3    0    0 -2.2037375582e-01 +1.3418644093e+01 +1.3060267947e+01 7.2461570209e+01 6.9999999889e+01 7.2466e-05 0.0000e+00
      -24  2    4    4    0    0 -9.9357201376e+00 +1.0562627530e+00 +1.3119375716e+01 5.6738341479e+01 5.4288922893e+01 3.3146e-13 0.0000e+00
      -11  1    4    4    0    0 +9.7153463818e+00 +1.2362381340e+01 -5.9107769608e-02 1.5723228730e+01 5.1100000000e-04 0.0000e+00 1.0000e+00
       11  1    5    5    0    0 -3.9040138948e+00 -2.0252789838e+01 -1.1507199573e+01 2.3618477152e+01 5.1100000000e-04 0.0000e+00 -1.0000e+00
      -12  1    5    5    0    0 -6.0317062428e+00 +2.1309052591e+01 +2.4626575290e+01 3.3119864327e+01 0.0000000000e+00 0.0000e+00 1.0000e+00
       12  1    3    3    0    0 +2.2037375582e-01 -1.3418644093e+01 -1.3060267947e+01 1.8726429791e+01 0.0000000000e+00 0.0000e+00 -1.0000e+00
</event>
<event>
 9      4 +1.0086356e-04 9.11880000e+01 7.81616400e-03 1.18400000e-01
      -11 -1    0    0    0    0 +0.0000000000e+00 +0.0000000000e+00 +4.5593999997e+01 4.5594000000e+01 5.1100000000e-04 0.0000e+00 -1.0000e+00
       11 -1    0    0    0    0 -0.0000000000e+00 -0.0000000000e+00 -4.5593999997e+01 4.5594000000e+01 5.1100000000e-04 0.0000e+00 1.0000e+00
       23  2    1    2    0    0 +0.0000000000e+00 +8.8817841970e-16 +7.1054273576e-15 9.1188000000e+01 9.1188000000e+01 6.4010e-14 0.0000e+00
 -9990012  2    3    3    0    0 -8.6424499641e+00 -3.4380309200e+00 -1.6253217221e+01 7.2461573005e+01 7.0000003531e+01 6.7599e-04 0.0000e+00
      -24  2    4    4    0    0 -1.1770308449e+01 -1.1676926665e+01 -1.8227850367e+01 6.3430400427e+01 5.8448869895e+01 4.8945e-14 0.0000e+00
      -11  1    4    4    0    0 +3.1278584850e+00 +8.2388957453e+00 +1.9746331466e+00 9.0311725778e+00 5.1100000000e-04 0.0000e+00 1.0000e+00
       11  1    5    5    0    0 -2.8743840660e+00 +1.8755505446e+01 +9.5816349455e+00 2.1256500107e+01 5.1100000000e-04 0.0000e+00 -1.0000e+00
      -12  1    5    5    0    0 -8.8959243831e+00 -3.0432432111e+01 -2.7809485313e+01 4.2173900320e+01 0.0000000000e+00 0.0000e+00 1.0000e+00
       12  1    3    3    0    0 +8.6424499641e+00 +3.4380309200e+00 +1.6253217221e+01 1.8726426995e+01 0.0000000000e+00 0.0000e+00 -1.0000e+00
</event>
<event>
 8      4 +1.0086356e-04 9.11880000e+01 7.81616400e-03 1.18400000e-01
      -11 -1    0    0    0    0 +0.0000000000e+00 +0.0000000000e+00 +4.5593999997e+01 4.5594000000e+01 5.1100000000e-04 0.0000e+00 -1.0000e+00
       11 -1    0    0    0    0 -0.0000000000e+00 -0.0000000000e+00 -4.5593999997e+01 4.5594000000e+01 5.1100000000e-04 0.0000e+00 1.0000e+00
       23  2    1    2    0    0 -3.5527136788e-15 +2.6645352591e-15 +0.0000000000e+00 9.1188000000e+01 9.1188000000e+01 8.5759e-14 0.0000e+00
 -9990012  2    3    3    0    0 +1.7540909853e+01 +4.5730025678e+00 -4.6993010200e+00 7.2461566783e+01 6.9999995426e+01 7.4849e-05 0.0000e+00
      -11  1    4    4    0    0 -2.1166794601e+01 -1.0969967307e+01 -1.0391582170e+01 2.6006890561e+01 5.1100000000e-04 0.0000e+00 1.0000e+00
       11  1    4    4    0    0 +3.6356369615e+01 +1.3976710969e+01 -1.2385945445e+00 3.8970093377e+01 5.1100000000e-04 0.0000e+00 -1.0000e+00
      -12  1    4    4    0    0 +2.3513348387e+00 +1.5662589049e+00 +6.9308756945e+00 7.4845828456e+00 0.0000000000e+00 0.0000e+00 1.0000e+00
       12  1    3    3    0    0 -1.7540909853e+01 -4.5730025678e+00 +4.6993010200e+00 1.8726433217e+01 0.0000000000e+00 0.0000e+00 -1.0000e+00
</event>
<event>
 9      3 +1.0086356e-04 9.11880000e+01 7.81616400e-03 1.18400000e-01
      -11 -1    0    0    0    0 +0.0000000000e+00 +0.0000000000e+00 +4.5593999997e+01 4.5594000000e+01 5.1100000000e-04 0.0000e+00 -1.0000e+00
       11 -1    0    0    0    0 -0.0000000000e+00 -0.0000000000e+00 -4.5593999997e+01 4.5594000000e+01 5.1100000000e-04 0.0000e+00 1.0000e+00
       23  2    1    2    0    0 +0.0000000000e+00 +0.0000000000e+00 +0.0000000000e+00 9.1188000000e+01 9.1188000000e+01 9.6616e-14 0.0000e+00
  9990012  2    3    3    0    0 -1.3845324252e+01 +9.6230264507e+00 +8.1476018609e+00 7.2461573277e+01 7.0000003886e+01 1.3571e-04 0.0000e+00
       24  2    4    4    0    0 -6.4520024855e+00 +9.1338873742e+00 +9.2161191049e+00 6.4975439887e+01 6.3338887759e+01 1.3654e-14 0.0000e+00
      -11  1    5    5    0    0 -1.2491104008e+01 -1.9499273617e+01 -1.4488418235e+01 2.7315995573e+01 5.1100000000e-04 0.0000e+00 1.0000e+00
       11  1    4    4    0    0 -7.3933217665e+00 +4.8913907653e-01 -1.0685172440e+00 7.4861333906e+00 5.1100000000e-04 0.0000e+00 -1.0000e+00
       12  1    5    5    0    0 +6.0391015226e+00 +2.8633160991e+01 +2.3704537340e+01 3.7659444314e+01 0.0000000000e+00 0.0000e+00 -1.0000e+00
      -12  1    3    3    0    0 +1.3845324252e+01 -9.6230264507e+00 -8.1476018609e+00 1.8726426723e+01 0.0000000000e+00 0.0000e+00 1.0000e+00
</event>
<event>
 9      4 +1.0086356e-04 9.11880000e+01 7.81616400e-03 1.18400000e-01
      -11 -1    0    0    0    0 +0.0000000000e+00 +0.0000000000e+00 +4.5593999997e+01 4.5594000000e+01 5.1100000000e-04 0.0000e+00 1.0000e+00
       11 -1    0    0    0    0 -0.0000000000e+00 -0.0000000000e+00 -4.5593999997e+01 4.5594000000e+01 5.1100000000e-04 0.0000e+00 -1.0000e+00
       23  2    1    2    0    0 -4.4408920985e-16 +0.0000000000e+00 -7.1054273576e-15 9.1188000000e+01 9.1188000000e+01 1.7302e-14 0.0000e+00
 -9990012  2    3    3    0    0 +3.7203903141e+00 -4.9618278785e+00 +1.7669685734e+01 7.2461579254e+01 7.0000011672e+01 5.0034e-05 0.0000e+00
      -24  2    4    4    0    0 +6.6285702578e+00 -2.9260484519e-01 +1.3525438805e+01 6.5574349246e+01 6.3820327662e+01 2.0421e-13 0.0000e+00
      -11  1    4    4    0    0 -2.9081799436e+00 -4.6692230333e+00 +4.1442469293e+00 6.8872300086e+00 5.1100000000e-04 0.0000e+00 1.0000e+00
       11  1    5    5    0    0 -8.4655748454e+00 +6.5705816753e+00 -2.3048139485e+01 2.5417616627e+01 5.1100000000e-04 0.0000e+00 -1.0000e+00
      -12  1    5    5    0    0 +1.5094145103e+01 -6.8631865205e+00 +3.6573578291e+01 4.0156732618e+01 0.0000000000e+00 0.0000e+00 1.0000e+00
       12  1    3    3    0    0 -3.7203903141e+00 +4.9618278785e+00 -1.7669685734e+01 1.8726420746e+01 0.0000000000e+00 0.0000e+00 -1.0000e+00
</event>
<event>
 8      4 +1.0086356e-04 9.11880000e+01 7.81616400e-03 1.18400000e-01
      -11 -1    0    0    0    0 +0.0000000000e+00 +0.0000000000e+00 +4.5593999997e+01 4.5594000000e+01 5.1100000000e-04 0.0000e+00 -1.0000e+00
       11 -1    0    0    0    0 -0.0000000000e+00 -0.0000000000e+00 -4.5593999997e+01 4.5594000000e+01 5.1100000000e-04 0.0000e+00 1.0000e+00
       23  2    1    2    0    0 -8.8817841970e-16 +0.0000000000e+00 +0.0000000000e+00 9.1188000000e+01 9.1188000000e+01 1.2318e-14 0.0000e+00
 -9990012  2    3    3    0    0 -4.4841736554e+00 -5.3874648494e+00 -1.7365124278e+01 7.2461544594e+01 6.9999966521e+01 4.1159e-06 0.0000e+00
      -11  1    4    4    0    0 -2.2074348473e+01 -3.6730645409e+00 +2.9488639550e+00 2.2571310607e+01 5.1100000000e-04 0.0000e+00 1.0000e+00
       11  1    4    4    0    0 +1.3590429199e+01 -5.1124661539e+00 +1.0951598871e+01 1.8187209629e+01 5.1100000000e-04 0.0000e+00 -1.0000e+00
      -12  1    4    4    0    0 +3.9997456192e+00 +3.3980658454e+00 -3.1265587104e+01 3.1703024358e+01 0.0000000000e+00 0.0000e+00 1.0000e+00
       12  1    3    3    0    0 +4.4841736554e+00 +5.3874648494e+00 +1.7365124278e+01 1.8726455406e+01 0.0000000000e+00 0.0000e+00 -1.0000e+00
</event>
<event>
 8      4 +1.0086356e-04 9.11880000e+01 7.81616400e-03 1.18400000e-01
      -11 -1    0    0    0    0 +0.0000000000e+00 +0.0000000000e+00 +4.5593999997e+01 4.5594000000e+01 5.1100000000e-04 0.0000e+00 1.0000e+00
       11 -1    0    0    0    0 -0.0000000000e+00 -0.0000000000e+00 -4.5593999997e+01 4.5594000000e+01 5.1100000000e-04 0.0000e+00 -1.0000e+00
       23  2    1    2    0    0 +1.7763568394e-15 +0.0000000000e+00 -3.5527136788e-15 9.1188000000e+01 9.1188000000e+01 3.9166e-14 0.0000e+00
 -9990012  2    3    3    0    0 +1.1113860280e+01 +1.1124915600e+01 +1.0168496179e+01 7.2461549403e+01 6.9999972785e+01 3.6368e-05 0.0000e+00
      -11  1    4    4    0    0 -3.1024813213e+00 +3.5005109042e+00 -2.3509156444e+01 2.3969968792e+01 5.1100000000e-04 0.0000e+00 1.0000e+00
       11  1    4    4    0    0 -6.9137745099e+00 -6.0460234920e+00 +5.4741058608e+00 1.0692077126e+01 5.1100000000e-04 0.0000e+00 -1.0000e+00
      -12  1    4    4    0    0 +2.1130116111e+01 +1.3670428188e+01 +2.8203546762e+01 3.7799503484e+01 0.0000000000e+00 0.0000e+00 1.0000e+00
       12  1    3    3    0    0 -1.1113860280e+01 -1.1124915600e+01 -1.0168496179e+01 1.8726450597e+01 0.0000000000e+00 0.0000e+00 -1.0000e+00
</event>
<event>
 9      3 +1.0086356e-04 9.11880000e+01 7.81616400e-03 1.18400000e-01
      -11 -1    0    0    0    0 +0.0000000000e+00 +0.0000000000e+00 +4.5593999997e+01 4.5594000000e+01 5.1100000000e-04 0.0000e+00 -1.0000e+00
       11 -1    0    0    0    0 -0.0000000000e+00 -0.0000000000e+00 -4.5593999997e+01 4.5594000000e+01 5.1100000000e-04 0.0000e+00 1.0000e+00
       23  2    1    2    0    0 +3.5527136788e-15 -1.3322676296e-15 +0.0000000000e+00 9.1188000000e+01 9.1188000000e+01 1.0989e-15 0.0000e+00
  9990012  2    3    3    0    0 +1.8167409869e+01 +3.9387207821e+00 +2.2607410282e+00 7.2461568072e+01 6.9999997105e+01 2.6208e-04 0.0000e+00
       24  2    4    4    0    0 +2.0348074190e+01 +1.2385635204e+01 -4.0291159525e+00 6.1706664017e+01 5.6780547075e+01 3.0679e-14 0.0000e+00
      -11  1    5    5    0    0 -8.4799895207e-01 -2.0415661036e+01 +6.1673617643e+00 2.1343726693e+01 5.1100000000e-04 0.0000e+00 1.0000e+00
       11  1    4    4    0    0 -2.1806643210e+00 -8.4469144215e+00 +6.2898569807e+00 1.0754904055e+01 5.1100000000e-04 0.0000e+00 -1.0000e+00
       12  1    5    5    0    0 +2.1196073142e+01 +3.2801296239e+01 -1.0196477717e+01 4.0362937325e+01 0.0000000000e+00 0.0000e+00 -1.0000e+00
      -12  1    3    3    0    0 -1.8167409869e+01 -3.9387207821e+00 -2.2607410282e+00 1.8726431928e+01 0.0000000000e+00 0.0000e+00 1.0000e+00
</event>
<event>
 8      4 +1.0086356e-04 9.11880000e+01 7.81616400e-03 1.18400000e-01
      -11 -1    0    0    0    0 +0.0000000000e+00 +0.0000000000e+00 +4.5593999997e+01 4.5594000000e+01 5.1100000000e-04 0.0000e+00 1.0000e+00
       11 -1    0    0    0    0 -0.0000000000e+00 -0.0000000000e+00 -4.5593999997e+01 4.5594000000e+01 5.1100000000e-04 0.0000e+00 -1.0000e+00
       23  2    1    2    0    0 +1.7763568394e-15 -8.8817841970e-16 +0.0000000000e+00 9.1188000000e+01 9.1188000000e+01 4.2903e-14 0.0000e+00
 -9990012  2    3    3    0    0 -1.1722593044e+01 -5.1268712875e+00 +1.3673727421e+01 7.2461686469e+01 7.0000151338e+01 1.9410e-04 0.0000e+00
      -11  1    4    4    0    0 +1.0325590059e+01 -1.2980606731e+01 +3.2536078802e+01 3.6519999798e+01 5.1100000000e-04 0.0000e+00 1.0000e+00
       11  1    4    4    0    0 -2.0848216972e+01 -1.2835719038e+00 -1.0007557659e+01 2.3161323759e+01 5.1100000000e-04 0.0000e+00 -1.0000e+00
      -12  1    4    4    0    0 -1.1999661322e+00 +9.1373073477e+00 -8.8547937217e+00 1.2780362911e+01 0.0000000000e+00 0.0000e+00 1.0000e+00
       12  1    3    3    0    0 +1.1722593044e+01 +5.1268712875e+00 -1.3673727421e+01 1.8726313531e+01 0.0000000000e+00 0.0000e+00 -1.0000e+00
</event>
<event>
 8      3 +1.0086356e-04 9.11880000e+01 7.81616400e-03 1.18400000e-01
      -11 -1    0    0    0    0 +0.0000000000e+00 +0.0000000000e+00 +4.5593999997e+01 4.5594000000e+01 5.1100000000e-04 0.0000e+00 1.0000e+00
       11 -1    0    0    0    0 -0.0000000000e+00 -0.0000000000e+00 -4.5593999997e+01 4.5594000000e+01 5.1100000000e-04 0.0000e+00 -1.0000e+00
       23  2    1    2    0    0 +0.0000000000e+00 +0.0000000000e+00 +0.0000000000e+00 9.1188000000e+01 9.1188000000e+01 8.5402e-14 0.0000e+00
  9990012  2    3    3    0    0 +1.3904112698e+01 +5.6991713372e+00 -1.1174703864e+01 7.2461577215e+01 7.0000009016e+01 5.1392e-05 0.0000e+00
      -11  1    4    4    0    0 -2.5207384155e+00 +7.2963655109e+00 +2.1931542158e+00 8.0250232089e+00 5.1100000000e-04 0.0000e+00 1.0000e+00
       11  1    4    4    0    0 +2.0434486416e+01 +7.8005036362e+00 -3.4565705398e+01 4.0904817345e+01 5.1100000000e-04 0.0000e+00 -1.0000e+00
       12  1    4    4    0    0 -4.0096353022e+00 -9.3976978099e+00 +2.1197847318e+01 2.3531736661e+01 0.0000000000e+00 0.0000e+00 -1.0000e+00
      -12  1    3    3    0    0 -1.3904112698e+01 -5.6991713372e+00 +1.1174703864e+01 1.8726422785e+01 0.0000000000e+00 0.0000e+00 1.0000e+00
</event>
<event>
 8      3 +1.0086356e-04 9.11880000e+01 7.81616400e-03 1.18400000e-01
      -11 -1    0    0    0    0 +0.0000000000e+00 +0.0000000000e+00 +4.5593999997e+01 4.5594000000e+01 5.1100000000e-04 0.0000e+00 1.0000e+00
       11 -1    0    0    0    0 -0.0000000000e+00 -0.0000000000e+00 -4.5593999997e+01 4.5594000000e+01 5.1100000000e-04 0.0000e+00 -1.0000e+00
       23  2    1    2    0    0 -1.2212453271e-15 +0.0000000000e+00 -8.8817841970e-16 9.1188000000e+01 9.1188000000e+01 4.2700e-14 0.0000e+00
  9990012  2    3    3    0    0 -7.5533957043e-01 -1.7738942952e+01 +5.9532822829e+00 7.2461489250e+01 6.9999894425e+01 4.1198e-04 0.0000e+00
      -11  1    4    4    0    0 -7.5605970055e+00 +2.1873811838e+00 +2.2163742109e+00 8.1767706600e+00 5.1100000000e-04 0.0000e+00 1.0000e+00
       11  1    4    4    0    0 -2.3652081976e+01 -1.3130342411e+01 -1.1694066182e+01 2.9471648372e+01 5.1100000000e-04 0.0000e+00 -1.0000e+00
       12  1    4    4    0    0 +3.0457339411e+01 -6.7959817252e+00 +1.5430974254e+01 3.4813070218e+01 0.0000000000e+00 0.0000e+00 -1.0000e+00
      -12  1    3    3    0    0 +7.5533957043e-01 +1.7738942952e+01 -5.9532822829e+00 1.8726510750e+01 0.0000000000e+00 0.0000e+00 1.0000e+00
</event>
<event>
 8      4 +1.0086356e-04 9.11880000e+01 7.81616400e-03 1.18400000e-01
      -11 -1    0    0    0    0 +0.0000000000e+00 +0.0000000000e+00 +4.5593999997e+01 4.5594000000e+01 5.1100000000e-04 0.0000e+00 -1.0000e+00
       11 -1    0    0    0    0 -0.0000000000e+00 -0.0000000000e+00 -4.5593999997e+01 4.5594000000e+01 5.1100000000e-04 0.0000e+00 1.0000e+00
       23  2    1    2    0    0 +1.7763568394e-15 +1.7763568394e-15 +1.7763568394e-15 9.1188000000e+01 9.1188000000e+01 1.2724e-13 0.0000e+00
 -9990012  2    3    3    0    0 -9.2237539884e+00 +1.0550454696e+01 -1.2421543899e+01 7.2461428377e+01 6.9999815126e+01 1.8418e-05 0.0000e+00
      -11  1    4    4    0    0 -1.7097835425e+01 -3.8459315898e+00 -1.3670666097e+01 2.2226431963e+01 5.1100000000e-04 0.0000e+00 1.0000e+00
       11  1    4    4    0    0 -5.9310747116e+00 -1.3138305270e+01 -9.8894306487e+00 1.7481234265e+01 5.1100000000e-04 0.0000e+00 -1.0000e+00
      -12  1    4    4    0    0 +1.3805156148e+01 +2.7534691556e+01 +1.1138552847e+01 3.2753762149e+01 0.0000000000e+00 0.0000e+00 1.0000e+00
       12  1    3    3    0    0 +9.2237539884e+00 -1.0550454696e+01 +1.2421543899e+01 1.8726571623e+01 0.0000000000e+00 0.0000e+00 -1.0000e+00
</event>
<event>
 9      4 +1.0086356e-04 9.11880000e+01 7.81616400e-03 1.18400000e-01
      -11 -1    0    0    0    0 +0.0000000000e+00 +0.0000000000e+00 +4.5593999997e+01 4.5594000000e+01 5.1100000000e-04 0.0000e+00 1.0000e+00
       11 -1    0    0    0    0 -0.0000000000e+00 -0.0000000000e+00 -4.5593999997e+01 4.5594000000e+01 5.1100000000e-04 0.0000e+00 -1.0000e+00
       23  2    1    2    0    0 -8.8817841970e-16 +3.5527136788e-15 +4.4408920985e-16 9.1188000000e+01 9.1188000000e+01 5.6326e-14 0.0000e+00
 -9990012  2    3    3    0    0 -4.3527833612e+00 -1.7828945664e+01 -3.7231120609e+00 7.2461559070e+01 6.9999985379e+01 6.5832e-04 0.0000e+00
      -24  2    4    4    0    0 -1.2384797830e+01 -1.7092815579e+01 -1.7480444540e+01 5.6514166145e+01 4.9424057624e+01 9.1769e-14 0.0000e+00
      -11  1    4    4    0    0 +8.0320144684e+00 -7.3613008474e-01 +1.3757332479e+01 1.5947392926e+01 5.1100000000e-04 0.0000e+00 1.0000e+00
       11  1    5    5    0    0 +6.8529977804e+00 +1.4877079484e+01 -4.2010637073e+00 1.6909760764e+01 5.1100000000e-04 0.0000e+00 -1.0000e+00
      -12  1    5    5    0    0 -1.9237795610e+01 -3.1969895063e+01 -1.3279380833e+01 3.9604405381e+01 0.0000000000e+00 0.0000e+00 1.0000e+00
       12  1    3    3    0    0 +4.3527833612e+00 +1.7828945664e+01 +3.7231120609e+00 1.8726440930e+01 0.0000000000e+00 0.0000e+00 -1.0000e+00
</event>
<event>
 8      4 +1.0086356e-04 9.11880000e+01 7.81616400e-03 1.18400000e-01
      -11 -1    0    0    0    0 +0.0000000000e+00 +0.0000000000e+00 +4.5593999997e+01 4.5594000000e+01 5.1100000000e-04 0.0000e+00 1.0000e+00
       11 -1    0    0    0    0 -0.0000000000e+00 -0.0000000000e+00 -4.5593999997e+01 4.5594000000e+01 5.1100000000e-04 0.0000e+00 -1.0000e+00
       23  2    1    2    0    0 +1.7763568394e-15 +8.8817841970e-16 +1.7763568394e-15 9.1188000000e+01 9.1188000000e+01 4.9534e-14 0.0000e+00
 -9990012  2    3    3    0    0 -1.0598023564e+01 +6.6863811769e+00 +1.3915934226e+01 7.2461574231e+01 7.0000005128e+01 2.4195e-05 0.0000e+00
      -11  1    4    4    0    0 -2.0160401214e+01 +9.6533433509e+00 +1.8612538941e+01 2.9087031836e+01 5.1100000000e-04 0.0000e+00 1.0000e+00
       11  1    4    4    0    0 -7.5796753666e+00 +4.6579245096e+00 -1.8200621913e+01 2.0258587751e+01 5.1100000000e-04 0.0000e+00 -1.0000e+00
      -12  1    4    4    0    0 +1.7142053017e+01 -7.6248866837e+00 +1.3504017198e+01 2.3115954643e+01 0.0000000000e+00 0.0000e+00 1.0000e+00
       12  1    3    3    0    0 +1.0598023564e+01 -6.6863811769e+00 -1.3915934226e+01 1.8726425769e+01 0.0000000000e+00 0.0000e+00 -1.0000e+00
</event>
<event>
 9      4 +1.0086356e-04 9.11880000e+01 7.81616400e-03 1.18400000e-01
      -11 -1    0    0    0    0 +0.0000000000e+00 +0.0000000000e+00 +4.5593999997e+01 4.5594000000e+01 5.1100000000e-04 0.0000e+00 -1.0000e+00
       11 -1    0    0    0    0 -0.0000000000e+00 -0.0000000000e+00 -4.5593999997e+01 4.5594000000e+01 5.1100000000e-04 0.0000e+00 1.0000e+00
       23  2    1    2    0    0 +0.0000000000e+00 +0.0000000000e+00 -1.1379786002e-15 9.1188000000e+01 9.1188000000e+01 5.0120e-14 0.0000e+00
 -9990012  2    3    3    0    0 -1.6625735883e+01 +8.6176180554e+00 -4.4183174480e-02 7.2461537794e+01 6.9999957663e+01 2.5217e-04 0.0000e+00
      -24  2    4    4    0    0 -2.5185893035e+01 -5.9220021126e+00 +5.9558437850e-01 5.5577043491e+01 4.9183876682e+01 2.9727e-14 0.0000e+00
      -11  1    4    4    0    0 +8.5601571526e+00 +1.4539620168e+01 -6.3976755298e-01 1.6884494304e+01 5.1100000000e-04 0.0000e+00 1.0000e+00
       11  1    5    5    0    0 -1.7782994851e+01 +1.2911359460e+01 +1.8370560655e+01 2.8642898038e+01 5.1100000000e-04 0.0000e+00 -1.0000e+00
      -12  1    5    5    0    0 -7.4028981846e+00 -1.8833361573e+01 -1.7774976277e+01 2.6934145453e+01 0.0000000000e+00 0.0000e+00 1.0000e+00
       12  1    3    3    0    0 +1.6625735883e+01 -8.6176180554e+00 +4.4183174480e-02 1.8726462206e+01 0.0000000000e+00 0.0000e+00 -1.0000e+00
</event>
<event>
 8      4 +1.0086356e-04 9.11880000e+01 7.81616400e-03 1.18400000e-01
      -11 -1    0    0    0    0 +0.0000000000e+00 +0.0000000000e+00 +4.5593999997e+01 4.5594000000e+01 5.1100000000e-04 0.0000e+00 1.0000e+00
       11 -1    0    0    0    0 -0.0000000000e+00 -0.0000000000e+00 -4.5593999997e+01 4.5594000000e+01 5.1100000000e-04 0.0000e+00 -1.0000e+00
       23  2    1    2    0    0 -1.7763568394e-15 +1.7763568394e-15 +8.8817841970e-16 9.1188000000e+01 9.1188000000e+01 8.4990e-14 0.0000e+00
 -9990012  2    3    3    0    0 +1.1029883623e+01 -1.4583837597e+01 +4.0415724033e+00 7.2461522507e+01 6.9999937749e+01 3.3990e-05 0.0000e+00
      -11  1    4    4    0    0 +1.8436393632e+01 -2.2189478889e+01 -2.1119470128e+01 3.5753399870e+01 5.1100000000e-04 0.0000e+00 1.0000e+00
       11  1    4    4    0    0 -3.0351676510e+00 -1.8528823624e+00 -4.2291534950e+00 5.5255004537e+00 5.1100000000e-04 0.0000e+00 -1.0000e+00
      -12  1    4    4    0    0 -4.3713423580e+00 +9.4585236547e+00 +2.9390196027e+01 3.1182622183e+01 0.0000000000e+00 0.0000e+00 1.0000e+00
       12  1    3    3    0    0 -1.1029883623e+01 +1.4583837597e+01 -4.0415724033e+00 1.8726477493e+01 0.0000000000e+00 0.0000e+00 -1.0000e+00
</event>
<event>
 9      3 +1.0086356e-04 9.11880000e+01 7.81616400e-03 1.18400000e-01
      -11 -1    0    0    0    0 +0.0000000000e+00 +0.0000000000e+00 +4.5593999997e+01 4.5594000000e+01 5.1100000000e-04 0.0000e+00 -1.0000e+00
       11 -1    0    0    0    0 -0.0000000000e+00 -0.0000000000e+00 -4.5593999997e+01 4.5594000000e+01 5.1100000000e-04 0.0000e+00 1.0000e+00
       23  2    1    2    0    0 +8.8817841970e-16 -1.7763568394e-15 -3.5527136788e-15 9.1188000000e+01 9.1188000000e+01 6.1321e-14 0.0000e+00
  9990012  2    3    3    0    0 -2.0064021979e+00 +1.4891760692e+01 +1.1175300539e+01 7.2461614113e+01 7.0000057081e+01 1.0527e-04 0.0000e+00
       24  2    4    4    0    0 +3.4124316573e+00 +1.4532736029e+01 +7.8854825804e+00 6.6112160473e+01 6.3920198847e+01 4.3703e-14 0.0000e+00
      -11  1    5    5    0    0 -2.3441734756e+01 +1.9880160166e+01 +1.9466435264e+01 3.6382383082e+01 5.1100000000e-04 0.0000e+00 1.0000e+00
       11  1    4    4    0    0 -5.4188338551e+00 +3.5902466285e-01 +3.2898179581e+00 6.3494536392e+00 5.1100000000e-04 0.0000e+00 -1.0000e+00
       12  1    5    5    0    0 +2.6854166413e+01 -5.3474241369e+00 -1.1580952684e+01 2.9729777391e+01 0.0000000000e+00 0.0000e+00 -1.0000e+00
      -12  1    3    3    0    0 +2.0064021979e+00 -1.4891760692e+01 -1.1175300539e+01 1.8726385887e+01 0.0000000000e+00 0.0000e+00 1.0000e+00
</event>
<event>
 8      3 +1.0086356e-04 9.11880000e+01 7.81616400e-03 1.18400000e-01
      -11 -1    0    0    0    0 +0.0000000000e+00 +0.0000000000e+00 +4.5593999997e+01 4.5594000000e+01 5.1100000000e-04 0.0000e+00 1.0000e+00
       11 -1    0    0    0    0 -0.0000000000e+00 -0.0000000000e+00 -4.5593999997e+01 4.5594000000e+01 5.1100000000e-04 0.0000e+00 -1.0000e+00
       23  2    1    2    0    0 -2.2204460493e-15 +0.0000000000e+00 +0.0000000000e+00 9.1188000000e+01 9.1188000000e+01 2.2435e-14 0.0000e+00
  9990012  2    3    3    0    0 -2.2990356140e+00 -1.7710453033e+01 -5.6331804164e+00 7.2461589960e+01 7.0000025618e+01 3.5264e-04 0.0000e+00
      -11  1    4    4    0    0 +6.5025226307e+00 +8.3656494671e+00 -1.8996055387e+00 1.0764543327e+01 5.1100000000e-04 0.0000e+00 1.0000e+00
       11  1    4    4    0    0 +1.9802567868e+01 +3.8617398439e+00 -1.4687634122e+00 2.0228988976e+01 5.1100000000e-04 0.0000e+00 -1.0000e+00
       12  1    4    4    0    0 -2.8604126112e+01 -2.9937842344e+01 -2.2648114655e+00 4.1468057657e+01 0.0000000000e+00 0.0000e+00 -1.0000e+00
      -12  1    3    3    0    0 +2.2990356140e+00 +1.7710453033e+01 +5.6331804164e+00 1.8726410040e+01 0.0000000000e+00 0.0000e+00 1.0000e+00
</event>
<event>
 9      4 +1.0086356e-04 9.11880000e+01 7.81616400e-03 1.18400000e-01
      -11 -1    0    0    0    0 +0.0000000000e+00 +0.0000000000e+00 +4.5593999997e+01 4.5594000000e+01 5.1100000000e-04 0.0000e+00 -1.0000e+00
       11 -1    0    0    0    0 -0.0000000000e+00 -0.0000000000e+00 -4.5593999997e+01 4.5594000000e+01 5.1100000000e-04 0.0000e+00 1.0000e+00
       23  2    1    2    0    0 +0.0000000000e+00 +8.8817841970e-16 +8.8817841970e-16 9.1188000000e+01 9.1188000000e+01 1.3461e-13 0.0000e+00
 -9990012  2    3    3    0    0 -1.7209793541e+01 -4.3686799764e+00 -5.9512005175e+00 7.2461570921e+01 7.0000000816e+01 1.1494e-05 0.0000e+00
      -24  2    4    4    0    0 -7.9723871863e+00 -2.6164029752e+00 -1.0195261527e+01 6.2145941761e+01 6.0727013740e+01 6.2560e-14 0.0000e+00
      -11  1    4    4    0    0 -9.2374063547e+00 -1.7522770012e+00 +4.2440610091e+00 1.0315629160e+01 5.1100000000e-04 0.0000e+00 1.0000e+00
       11  1    5    5    0    0 -1.0116280965e+01 -6.3404374951e+00 +2.4463735248e+01 2.7221583913e+01 5.1100000000e-04 0.0000e+00 -1.0000e+00
      -12  1    5    5    0    0 +2.1438937788e+00 +3.7240345199e+00 -3.4658996775e+01 3.4924357848e+01 0.0000000000e+00 0.0000e+00 1.0000e+00
       12  1    3    3    0    0 +1.7209793541e+01 +4.3686799764e+00 +5.9512005175e+00 1.8726429079e+01 0.0000000000e+00 0.0000e+00 -1.0000e+00
</event>
<event>
 9      4 +1.0086356e-04 9.11880000e+01 7.81616400e-03 1.18400000e-01
      -11 -1    0    0    0    0 +0.0000000000e+00 +0.0000000000e+00 +4.5593999997e+01 4.5594000000e+01 5.1100000000e-04 0.0000e+00 1.0000e+00
       11 -1    0    0    0    0 -0.0000000000e+00 -0.0000000000e+00 -4.5593999997e+01 4.5594000000e+01 5.1100000000e-04 0.0000e+00 -1.0000e+00
       23  2    1    2    0    0 -4.4408920985e-16 +0.0000000000e+00 +4.4408920985e-16 9.1188000000e+01 9.1188000000e+01 6.5429e-14 0.0000e+00
 -9990012  2    3    3    0    0 +2.6548349430e+00 +1.8509327190e+01 -1.0177791202e+00 7.2461569055e+01 6.9999998385e+01 1.5950e-04 0.0000e+00
      -24  2    4    4    0    0 -3.2465583325e+00 +2.7519631353e+01 +3.3022448265e-01 6.1606655989e+01 5.5021820790e+01 2.8136e-14 0.0000e+00
      -11  1    4    4    0    0 +5.9013932755e+00 -9.0103041629e+00 -1.3480036029e+00 1.0854913066e+01 5.1100000000e-04 0.0000e+00 1.0000e+00
       11  1    5    5    0    0 +9.7273267155e+00 -1.3836042520e+01 +5.8879838505e+00 1.7908805424e+01 5.1100000000e-04 0.0000e+00 -1.0000e+00
      -12  1    5    5    0    0 -1.2973885048e+01 +4.1355673873e+01 -5.5577593678e+00 4.3697850564e+01 0.0000000000e+00 0.0000e+00 1.0000e+00
       12  1    3    3    0    0 -2.6548349430e+00 -1.8509327190e+01 +1.0177791202e+00 1.8726430945e+01 0.0000000000e+00 0.0000e+00 -1.0000e+00
</event>
<event>
 8      4 +1.0086356e-04 9.11880000e+01 7.81616400e-03 1.18400000e-01
      -11 -1    0    0    0    0 +0.0000000000e+00 +0.0000000000e+00 +4.5593999997e+01 4.5594000000e+01 5.1100000000e-04 0.0000e+00 -1.0000e+00
       11 -1    0    0    0    0 -0.0000000000e+00 -0.0000000000e+00 -4.5593999997e+01 4.5594000000e+01 5.1100000000e-04 0.0000e+00 1.0000e+00
       23  2    1    2    0    0 -2.6645352591e-15 +8.8817841970e-15 -1.7763568394e-15 9.1188000000e+01 9.1188000000e+01 1.3134e-13 0.0000e+00
 -9990012  2    3    3    0    0 +1.7300484950e+00 -1.4686067370e+01 -1.1489791538e+01 7.2461309097e+01 6.9999659742e+01 2.5062e-04 0.0000e+00
      -11  1    4    4    0    0 -1.1693550063e+01 +1.6120433189e+01 -7.5644189583e+00 2.1303237165e+01 5.1100000000e-04 0.0000e+00 1.0000e+00
       11  1    4    4    0    0 -4.5712969641e-01 +3.8541205104e+00 +1.0451590163e+01 1.1148943881e+01 5.1100000000e-04 0.0000e+00 -1.0000e+00
      -12  1    4    4    0    0 +1.3880728254e+01 -3.4660621068e+01 -1.4376962743e+01 4.0009128051e+01 0.0000000000e+00 0.0000e+00 1.0000e+00
       12  1    3    3    0    0 -1.7300484950e+00 +1.4686067370e+01 +1.1489791538e+01 1.8726690903e+01 0.0000000000e+00 0.0000e+00 -1.0000e+00
</event>
<event>
 9      4 +1.0086356e-04 9.11880000e+01 7.81616400e-03 1.18400000e-01
      -11 -1    0    0    0    0 +0.0000000000e+00 +0.0000000000e+00 +4.5593999997e+01 4.5594000000e+01 5.1100000000e-04 0.0000e+00 1.0000e+00
       11 -1    0    0    0    0 -0.0000000000e+00 -0.0000000000e+00 -4.5593999997e+01 4.5594000000e+01 5.1100000000e-04 0.0000e+00 -1.0000e+00
       23  2    1    2    0    0 +0.0000000000e+00 -2.0816681712e-15 +0.0000000000e+00 9.1188000000e+01 9.1188000000e+01 5.9366e-16 0.0000e+00
 -9990012  2    3    3    0    0 +1.8194630072e+01 +1.4882035505e-01 +4.4282401595e+00 7.2461654338e+01 7.0000109482e+01 4.2692e-05 0.0000e+00
      -24  2    4    4    0    0 +8.3055138754e+00 -2.7546191731e+00 +4.5139988180e+00 6.2154766589e+01 6.1369938381e+01 3.0550e-14 0.0000e+00
      -11  1    4    4    0    0 +9.8891161968e+00 +2.9034395282e+00 -8.5758658507e-02 1.0306887748e+01 5.1100000000e-04 0.0000e+00 1.0000e+00
       11  1    5    5    0    0 +2.8393531771e+01 -1.7655795697e+01 -7.7148414847e+00 3.4313824437e+01 5.1100000000e-04 0.0000e+00 -1.0000e+00
      -12  1    5    5    0    0 -2.0088017895e+01 +1.4901176524e+01 +1.2228840303e+01 2.7840942152e+01 0.0000000000e+00 0.0000e+00 1.0000e+00
       12  1    3    3    0    0 -1.8194630072e+01 -1.4882035505e-01 -4.4282401595e+00 1.8726345662e+01 0.0000000000e+00 0.0000e+00 -1.0000e+00
</event>
<event>
 8      4 +1.0086356e-04 9.11880000e+01 7.81616400e-03 1.18400000e-01
      -11 -1    0    0    0    0 +0.0000000000e+00 +0.0000000000e+00 +4.5593999997e+01 4.5594000000e+01 5.1100000000e-04 0.0000e+00 -1.0000e+00
       11 -1    0    0    0    0 -0.0000000000e+00 -0.0000000000e+00 -4.5593999997e+01 4.5594000000e+01 5.1100000000e-04 0.0000e+00 1.0000e+00
       23  2    1    2    0    0 +0.0000000000e+00 -2.2204460493e-15 +2.2204460493e-16 9.1188000000e+01 9.1188000000e+01 3.0063e-13 0.0000e+00
 -9990012  2    3    3    0    0 -1.8332336115e+01 -3.7596780473e+00 +6.8756653781e-01 7.2461482059e+01 6.9999885057e+01 8.2377e-04 0.0000e+00
      -11  1    4    4    0    0 -1.6142455343e+01 -1.7330056426e+01 -6.2115566320e+00 2.4484549338e+01 5.1100000000e-04 0.0000e+00 1.0000e+00
       11  1    4    4    0    0 -1.7402216704e+01 +2.3540583700e+01 +4.8474875608e+00 2.9673125267e+01 5.1100000000e-04 0.0000e+00 -1.0000e+00
      -12  1    4    4    0    0 +1.5212335933e+01 -9.9702053213e+00 +2.0516356090e+00 1.8303807455e+01 0.0000000000e+00 0.0000e+00 1.0000e+00
       12  1    3    3    0    0 +1.8332336115e+01 +3.7596780473e+00 -6.8756653781e-01 1.8726517941e+01 0.0000000000e+00 0.0000e+00 -1.0000e+00
</event>
<event>
 9      3 +1.0086356e-04 9.11880000e+01 7.81616400e-03 1.18400000e-01
      -11 -1    0    0    0    0 +0.0000000000e+00 +0.0000000000e+00 +4.5593999997e+01 4.5594000000e+01 5.1100000000e-04 0.0000e+00 -1.0000e+00
       11 -1    0    0    0    0 -0.0000000000e+00 -0.0000000000e+00 -4.5593999997e+01 4.5594000000e+01 5.1100000000e-04 0.0000e+00 1.0000e+00
       23  2    1    2    0    0 -1.7763568394e-15 +1.7763568394e-15 +0.0000000000e+00 9.1188000000e+01 9.1188000000e+01 9.3458e-14 0.0000e+00
  9990012  2    3    3    0    0 -1.3654320289e+01 +9.1659689701e+00 -8.9567546529e+00 7.2461577393e+01 7.0000009248e+01 4.8116e-05 0.0000e+00
       24  2    4    4    0    0 -1.9034103774e+01 +1.6707591177e+01 -4.2343903098e+00 6.2063555413e+01 5.6502337472e+01 2.8374e-13 0.0000e+00
      -11  1    5    5    0    0 +4.9108842703e-01 -2.0176690286e+01 -1.1040797164e+00 2.0212842230e+01 5.1100000000e-04 0.0000e+00 1.0000e+00
       11  1    4    4    0    0 +5.3797834841e+00 -7.5416222071e+00 -4.7223643432e+00 1.0398021980e+01 5.1100000000e-04 0.0000e+00 -1.0000e+00
       12  1    5    5    0    0 -1.9525192201e+01 +3.6884281463e+01 -3.1303105934e+00 4.1850713183e+01 0.0000000000e+00 0.0000e+00 -1.0000e+00
      -12  1    3    3    0    0 +1.3654320289e+01 -9.1659689701e+00 +8.9567546529e+00 1.8726422607e+01 0.0000000000e+00 0.0000e+00 1.0000e+00
</event>
<event>
 9      4 +1.0086356e-04 9.11880000e+01 7.81616400e-03 1.18400000e-01
      -11 -1    0    0    0    0 +0.0000000000e+00 +0.0000000000e+00 +4.5593999997e+01 4.5594000000e+01 5.1100000000e-04 0.0000e+00 -1.0000e+00
       11 -1    0    0    0    0 -0.0000000000e+00 -0.0000000000e+00 -4.5593999997e+01 4.5594000000e+01 5.1100000000e-04 0.0000e+00 1.0000e+00
       23  2    1    2    0    0 -2.6645352591e-15 -8.8817841970e-16 -3.5527136788e-15 9.1188000000e+01 9.1188000000e+01 4.3867e-14 0.0000e+00
 -9990012  2    3    3    0    0 +5.0216599812e+00 -7.3930532151e+00 -1.6456143572e+01 7.2461575726e+01 7.0000007076e+01 7.6971e-05 0.0000e+00
      -24  2    4    4    0    0 +1.9116382691e+01 -3.4701336710e+00 -3.1514377932e+00 5.2686194513e+01 4.8871521536e+01 4.7935e-14 0.0000e+00
      -11  1    4    4    0    0 -1.4094722709e+01 -3.9229195441e+00 -1.3304705779e+01 1.9775381213e+01 5.1100000000e-04 0.0000e+00 1.0000e+00
       11  1    5    5    0    0 +2.7400410889e+01 -2.0028698048e+01 -2.2278877531e-01 3.3940844089e+01 5.1100000000e-04 0.0000e+00 -1.0000e+00
      -12  1    5    5    0    0 -8.2840281986e+00 +1.6558564377e+01 -2.9286490179e+00 1.8745350424e+01 0.0000000000e+00 0.0000e+00 1.0000e+00
       12  1    3    3    0    0 -5.0216599812e+00 +7.3930532151e+00 +1.6456143572e+01 1.8726424274e+01 0.0000000000e+00 0.0000e+00 -1.0000e+00
</event>
<event>
 8      4 +1.0086356e-04 9.11880000e+01 7.81616400e-03 1.18400000e-01
      -11 -1    0    0    0    0 +0.0000000000e+00 +0.0000000000e+00 +4.5593999997e+01 4.5594000000e+01 5.1100000000e-04 0.0000e+00 1.0000e+00
       11 -1    0    0    0    0 -0.0000000000e+00 -0.0000000000e+00 -4.5593999997e+01 4.5594000000e+01 5.1100000000e-04 0.0000e+00 -1.0000e+00
       23  2    1    2    0    0 -1.7763568394e-15 +0.0000000000e+00 +0.0000000000e+00 9.1188000000e+01 9.1188000000e+01 2.5029e-14 0.0000e+00
 -9990012  2    3    3    0    0 +1.2866380150e+01 -7.6148123483e+00 +1.1276083882e+01 7.2461570203e+01 6.9999999880e+01 3.5682e-04 0.0000e+00
      -11  1    4    4    0    0 -3.4665642424e+00 -6.5592504815e+00 +2.3940226688e+01 2.5063425318e+01 5.1100000000e-04 0.0000e+00 1.0000e+00
       11  1    4    4    0    0 +2.4348197285e+01 +1.3987402338e+01 -4.2854614259e+00 2.8405057914e+01 5.1100000000e-04 0.0000e+00 -1.0000e+00
      -12  1    4    4    0    0 -8.0152528933e+00 -1.5042964205e+01 -8.3786813805e+00 1.8993086971e+01 0.0000000000e+00 0.0000e+00 1.0000e+00
       12  1    3    3    0    0 -1.2866380150e+01 +7.6148123483e+00 -1.1276083882e+01 1.8726429797e+01 0.0000000000e+00 0.0000e+00 -1.0000e+00
</event>
<event>
 9      3 +1.0086356e-04 9.11880000e+01 7.81616400e-03 1.18400000e-01
      -11 -1    0    0    0    0 +0.0000000000e+00 +0.0000000000e+00 +4.5593999997e+01 4.5594000000e+01 5.1100000000e-04 0.0000e+00 1.0000e+00
       11 -1    0    0    0    0 -0.0000000000e+00 -0.0000000000e+00 -4.5593999997e+01 4.5594000000e+01 5.1100000000e-04 0.0000e+00 -1.0000e+00
       23  2    1    2    0    0 +8.8817841970e-16 -9.9920072216e-16 +3.5527136788e-15 9.1188000000e+01 9.1188000000e+01 1.2216e-13 0.0000e+00
  9990012  2    3    3    0    0 -2.2673287200e+00 -2.3233390018e-01 -1.8587231929e+01 7.2461549473e+01 6.9999972876e+01 1.7344e-04 0.0000e+00
       24  2    4    4    0    0 +1.6556624267e+00 +8.1976087176e+00 -1.8628532156e+01 6.3163404602e+01 5.9771661043e+01 6.7357e-14 0.0000e+00
      -11  1    5    5    0    0 -1.5465738379e+01 +1.5816276909e+01 +1.3538836235e+01 2.5935376723e+01 5.1100000000e-04 0.0000e+00 1.0000e+00
       11  1    4    4    0    0 -3.9229911467e+00 -8.4299426177e+00 +4.1300227330e-02 9.2981448712e+00 5.1100000000e-04 0.0000e+00 -1.0000e+00
       12  1    5    5    0    0 +1.7121400806e+01 -7.6186681918e+00 -3.2167368391e+01 3.7228027879e+01 0.0000000000e+00 0.0000e+00 -1.0000e+00
      -12  1    3    3    0    0 +2.2673287200e+00 +2.3233390018e-01 +1.8587231929e+01 1.8726450527e+01 0.0000000000e+00 0.0000e+00 1.0000e+00
</event>
<event>
 9      3 +1.0086356e-04 9.11880000e+01 7.81616400e-03 1.18400000e-01
      -11 -1    0    0    0    0 +0.0000000000e+00 +0.0000000000e+00 +4.5593999997e+01 4.5594000000e+01 5.1100000000e-04 0.0000e+00 -1.0000e+00
       11 -1    0    0    0    0 -0.0000000000e+00 -0.0000000000e+00 -4.5593999997e+01 4.5594000000e+01 5.1100000000e-04 0.0000e+00 1.0000e+00
       23  2    1    2    0    0 +0.0000000000e+00 +0.0000000000e+00 +0.0000000000e+00 9.1188000000e+01 9.1188000000e+01 1.1798e-13 0.0000e+00
  9990012  2    3    3    0    0 -8.7492637290e+00 +3.5586597674e+00 +1.6169745509e+01 7.2461699112e+01 7.0000167808e+01 7.4929e-06 0.0000e+00
       24  2    4    4    0    0 +7.6225859167e-01 -1.2258308342e+01 +1.3574624962e+01 5.3823561116e+01 5.0614801459e+01 3.2526e-14 0.0000e+00
      -11  1    5    5    0    0 +2.8446836473e+00 +7.0658462021e-01 -1.8726974920e+01 1.8954974988e+01 5.1100000000e-04 0.0000e+00 1.0000e+00
       11  1    4    4    0    0 -9.5115223206e+00 +1.5816968109e+01 +2.5951205467e+00 1.8638137995e+01 5.1100000000e-04 0.0000e+00 -1.0000e+00
       12  1    5    5    0    0 -2.0824250556e+00 -1.2964892962e+01 +3.2301599882e+01 3.4868586128e+01 0.0000000000e+00 0.0000e+00 -1.0000e+00
      -12  1    3    3    0    0 +8.7492637290e+00 -3.5586597674e+00 -1.6169745509e+01 1.8726300888e+01 0.0000000000e+00 0.0000e+00 1.0000e+00
</event>
<event>
 8      3 +1.0086356e-04 9.11880000e+01 7.81616400e-03 1.18400000e-01
      -11 -1    0    0    0    0 +0.0000000000e+00 +0.0000000000e+00 +4.5593999997e+01 4.5594000000e+01 5.1100000000e-04 0.0000e+00 -1.0000e+00
       11 -1    0    0    0    0 -0.0000000000e+00 -0.0000000000e+00 -4.5593999997e+01 4.5594000000e+01 5.1100000000e-04 0.0000e+00 1.0000e+00
       23  2    1    2    0    0 +0.0000000000e+00 +0.0000000000e+00 +1.7763568394e-15 9.1188000000e+01 9.1188000000e+01 9.8686e-15 0.0000e+00
  9990012  2    3    3    0    0 +2.1683695884e+00 +1.6582999328e+01 +8.4250776571e+00 7.2461558082e+01 6.9999984091e+01 8.0328e-04 0.0000e+00
      -11  1    4    4    0    0 -7.6010371666e+00 +1.2361136922e+01 -1.3745172313e+01 1.9987576996e+01 5.1100000000e-04 0.0000e+00 1.0000e+00
       11  1    4    4    0    0 +1.2137080059e+01 +9.7572077099e+00 -1.0804673353e+01 1.8953964788e+01 5.1100000000e-04 0.0000e+00 -1.0000e+00
       12  1    4    4    0    0 -2.3676733041e+00 -5.5353453032e+00 +3.2974923322e+01 3.3520016298e+01 0.0000000000e+00 0.0000e+00 -1.0000e+00
      -12  1    3    3    0    0 -2.1683695884e+00 -1.6582999328e+01 -8.4250776571e+00 1.8726441918e+01 0.0000000000e+00 0.0000e+00 1.0000e+00
</event>
<event>
 8      4 +1.0086356e-04 9.11880000e+01 7.81616400e-03 1.18400000e-01
      -11 -1    0    0    0    0 +0.0000000000e+00 +0.0000000000e+00 +4.5593999997e+01 4.5594000000e+01 5.1100000000e-04 0.0000e+00 -1.0000e+00
       11 -1    0    0    0    0 -0.0000000000e+00 -0.0000000000e+00 -4.5593999997e+01 4.5594000000e+01 5.1100000000e-04 0.0000e+00 1.0000e+00
       23  2    1    2    0    0 +1.7763568394e-15 -8.8817841970e-16 -3.5527136788e-15 9.1188000000e+01 9.1188000000e+01 3.0034e-14 0.0000e+00
 -9990012  2    3    3    0    0 -4.7299015851e+00 -3.6138606002e+00 -1.7755252051e+01 7.2461523213e+01 6.9999938668e+01 5.6605e-05 0.0000e+00
      -11  1    4    4    0    0 -2.1018713423e+01 -8.3778648223e+00 +3.3132780109e+00 2.2868160057e+01 5.1100000000e-04 0.0000e+00 1.0000e+00
       11  1    4    4    0    0 +2.0098159638e+01 -1.0875583010e+01 +2.8324535245e-01 2.2853764566e+01 5.1100000000e-04 0.0000e+00 -1.0000e+00
      -12  1    4    4    0    0 -3.8093478002e+00 +1.5639587232e+01 -2.1351775414e+01 2.6739598591e+01 0.0000000000e+00 0.0000e+00 1.0000e+00
       12  1    3    3    0    0 +4.7299015851e+00 +3.6138606002e+00 +1.7755252051e+01 1.8726476787e+01 0.0000000000e+00 0.0000e+00 -1.0000e+00
</event>
<event>
 8      4 +1.0086356e-04 9.11880000e+01 7.81616400e-03 1.18400000e-01
      -11 -1    0    0    0    0 +0.0000000000e+00 +0.0000000000e+00 +4.5593999997e+01 4.5594000000e+01 5.1100000000e-04 0.0000e+00 1.0000e+00
       11 -1    0    0    0    0 -0.0000000000e+00 -0.0000000000e+00 -4.5593999997e+01 4.5594000000e+01 5.1100000000e-04 0.0000e+00 -1.0000e+00
       23  2    1    2    0    0 -4.4408920985e-16 -3.5527136788e-15 +3.5527136788e-15 9.1188000000e+01 9.1188000000e+01 1.6178e-13 0.0000e+00
 -9990012  2    3    3    0    0 -3.5922185383e+00 -1.6031119553e+01 +8.9879353470e+00 7.2461446394e+01 6.9999838597e+01 5.2759e-04 0.0000e+00
      -11  1    4    4    0    0 -1.5196454266e+01 -2.1666924487e+01 +2.3302154279e+01 3.5261568787e+01 5.1100000000e-04 0.0000e+00 1.0000e+00
       11  1    4    4    0    0 +1.1247968529e+01 +1.2444975640e+01 +4.3496027089e+00 1.7329548716e+01 5.1100000000e-04 0.0000e+00 -1.0000e+00
      -12  1    4    4    0    0 +3.5626719904e-01 -6.8091707055e+00 -1.8663821641e+01 1.9870328892e+01 0.0000000000e+00 0.0000e+00 1.0000e+00
       12  1    3    3    0    0 +3.5922185383e+00 +1.6031119553e+01 -8.9879353470e+00 1.8726553606e+01 0.0000000000e+00 0.0000e+00 -1.0000e+00
</event>
<event>
 9      4 +1.0086356e-04 9.11880000e+01 7.81616400e-03 1.18400000e-01
      -11 -1    0    0    0    0 +0.0000000000e+00 +0.0000000000e+00 +4.5593999997e+01 4.5594000000e+01 5.1100000000e-04 0.0000e+00 1.0000e+00
       11 -1    0    0    0    0 -0.0000000000e+00 -0.0000000000e+00 -4.5593999997e+01 4.5594000000e+01 5.1100000000e-04 0.0000e+00 -1.0000e+00
       23  2    1    2    0    0 +3.5527136788e-15 +0.0000000000e+00 +8.8817841970e-16 9.1188000000e+01 9.1188000000e+01 2.6532e-13 0.0000e+00
 -9990012  2    3    3    0    0 +1.6196210063e+01 +7.9219544620e+00 +5.0607649261e+00 7.2461389935e+01 6.9999765048e+01 3.8255e-04 0.0000e+00
      -24  2    4    4    0    0 +2.5859892005e+01 +2.4116027759e+00 -5.0423019350e-01 6.0022744698e+01 5.4110311314e+01 1.1038e-13 0.0000e+00
      -11  1    4    4    0    0 -9.6636819428e+00 +5.5103516861e+00 +5.5649951196e+00 1.2438645237e+01 5.1100000000e-04 0.0000e+00 1.0000e+00
       11  1    5    5    0    0 +7.3594272162e+00 -2.5397456279e+01 -2.5145972683e+00 2.6561535235e+01 5.1100000000e-04 0.0000e+00 -1.0000e+00
      -12  1    5    5    0    0 +1.8500464789e+01 +2.7809059054e+01 +2.0103670748e+00 3.3461209462e+01 0.0000000000e+00 0.0000e+00 1.0000e+00
       12  1    3    3    0    0 -1.6196210063e+01 -7.9219544620e+00 -5.0607649261e+00 1.8726610065e+01 0.0000000000e+00 0.0000e+00 -1.0000e+00
</event>
<event>
 8      3 +1.0086356e-04 9.11880000e+01 7.81616400e-03 1.18400000e-01
      -11 -1    0    0    0    0 +0.0000000000e+00 +0.0000000000e+00 +4.5593999997e+01 4.5594000000e+01 5.1100000000e-04 0.0000e+00 1.0000e+00
       11 -1    0    0    0    0 -0.0000000000e+00 -0.0000000000e+00 -4.5593999997e+01 4.5594000000e+01 5.1100000000e-04 0.0000e+00 -1.0000e+00
       23  2    1    2    0    0 +3.5527136788e-15 +3.5527136788e-15 +0.0000000000e+00 9.1188000000e+01 9.1188000000e+01 3.7949e-13 0.0000e+00
  9990012  2    3    3    0    0 -1.4936730262e+01 -5.7374350445e+00 -9.7291088119e+00 7.2461557997e+01 6.9999983980e+01 4.7318e-04 0.0000e+00
      -11  1    4    4    0    0 +4.2099692732e+00 -3.0687837303e+00 +4.3203869110e+00 6.7680882224e+00 5.1100000000e-04 0.0000e+00 1.0000e+00
       11  1    4    4    0    0 +6.4110730560e+00 +2.4710986325e+01 -1.1929787139e+01 2.8178973089e+01 5.1100000000e-04 0.0000e+00 -1.0000e+00
       12  1    4    4    0    0 -2.5557772592e+01 -2.7379637639e+01 -2.1197085843e+00 3.7514496686e+01 0.0000000000e+00 0.0000e+00 -1.0000e+00
      -12  1    3    3    0    0 +1.4936730262e+01 +5.7374350445e+00 +9.7291088119e+00 1.8726442003e+01 0.0000000000e+00 0.0000e+00 1.0000e+00
</event>
<event>
 8      3 +1.0086356e-04 9.11880000e+01 7.81616400e-03 1.18400000e-01
      -11 -1    0    0    0    0 +0.0000000000e+00 +0.0000000000e+00 +4.5593999997e+01 4.5594000000e+01 5.1100000000e-04 0.0000e+00 1.0000e+00
       11 -1    0    0    0    0 -0.0000000000e+00 -0.0000000000e+00 -4.5593999997e+01 4.5594000000e+01 5.1100000000e-04 0.0000e+00 -1.0000e+00
       23  2    1    2    0    0 +0.0000000000e+00 +0.0000000000e+00 +3.5527136788e-15 9.1188000000e+01 9.1188000000e+01 6.4140e-15 0.0000e+00
  9990012  2    3    3    0    0 -4.8300236280e+00 -8.3908105069e+00 -1.6029490911e+01 7.2461563925e+01 6.9999991703e+01 9.8364e-05 0.0000e+00
      -11  1    4    4    0    0 -5.5941702667e+00 -1.5747019963e+01 +7.8682502756e+00 1.8470861955e+01 5.1100000000e-04 0.0000e+00 1.0000e+00
       11  1    4    4    0    0 -1.8814339956e+01 -5.9738257540e+00 +8.1949881702e-01 1.9756962335e+01 5.1100000000e-04 0.0000e+00 -1.0000e+00
       12  1    4    4    0    0 +1.9578486595e+01 +1.3330035210e+01 -2.4717240004e+01 3.4233739636e+01 0.0000000000e+00 0.0000e+00 -1.0000e+00
      -12  1    3    3    0    0 +4.8300236280e+00 +8.3908105069e+00 +1.6029490911e+01 1.8726436075e+01 0.0000000000e+00 0.0000e+00 1.0000e+00
</event>
<event>
 8      3 +1.0086356e-04 9.11880000e+01 7.81616400e-03 1.18400000e-01
      -11 -1    0    0    0    0 +0.0000000000e+00 +0.0000000000e+00 +4.5593999997e+01 4.5594000000e+01 5.1100000000e-04 0.0000e+00 -1.0000e+00
       11 -1    0    0    0    0 -0.0000000000e+00 -0.0000000000e+00 -4.5593999997e+01 4.5594000000e+01 5.1100000000e-04 0.0000e+00 1.0000e+00
       23  2    1    2    0    0 +8.8817841970e-16 -3.5527136788e-15 +0.0000000000e+00 9.1188000000e+01 9.1188000000e+01 1.0184e-14 0.0000e+00
  9990012  2    3    3    0    0 +5.7019284401e+00 -1.2708675115e+01 +1.2516141035e+01 7.2461649648e+01 7.0000103373e+01 2.5668e-05 0.0000e+00
      -11  1    4    4    0    0 +1.3154110387e+01 -3.9213842843e+00 -1.1640807306e+01 1.7997674010e+01 5.1100000000e-04 0.0000e+00 1.0000e+00
       11  1    4    4    0    0 -7.7707945486e-01 -2.8189260681e+01 +1.2294210414e+01 3.0763385382e+01 5.1100000000e-04 0.0000e+00 -1.0000e+00
       12  1    4    4    0    0 -6.6751024917e+00 +1.9401969850e+01 +1.1862737927e+01 2.3700590255e+01 0.0000000000e+00 0.0000e+00 -1.0000e+00
      -12  1    3    3    0    0 -5.7019284401e+00 +1.2708675115e+01 -1.2516141035e+01 1.8726350352e+01 0.0000000000e+00 0.0000e+00 1.0000e+00
</event>
<event>
 9      3 +1.0086356e-04 9.11880000e+01 7.81616400e-03 1.18400000e-01
      -11 -1    0    0    0    0 +0.0000000000e+00 +0.0000000000e+00 +4.5593999997e+01 4.5594000000e+01 5.1100000000e-04 0.0000e+00 -1.0000e+00
       11 -1    0    0    0    0 -0.0000000000e+00 -0.0000000000e+00 -4.5593999997e+01 4.5594000000e+01 5.1100000000e-04 0.0000e+00 1.0000e+00
       23  2    1    2    0    0 +3.5527136788e-15 +3.5527136788e-15 +0.0000000000e+00 9.1188000000e+01 9.1188000000e+01 1.5948e-13 0.0000e+00
  9990012  2    3    3    0    0 -1.5731521143e+01 +9.6756857432e+00 -3.0947458320e+00 7.2461625449e+01 7.0000071849e+01 7.3101e-05 0.0000e+00
       24  2    4    4    0    0 -1.0685245112e+01 +6.5575311472e+00 -7.3085523486e-01 6.6076034726e+01 6.4871662055e+01 2.8356e-14 0.0000e+00
      -11  1    5    5    0    0 -2.3128835341e+00 +3.4797187852e+01 +7.1193606445e+00 3.5593243866e+01 5.1100000000e-04 0.0000e+00 1.0000e+00
       11  1    4    4    0    0 -5.0462760309e+00 +3.1181545960e+00 -2.3638905971e+00 6.3855907230e+00 5.1100000000e-04 0.0000e+00 -1.0000e+00
       12  1    5    5    0    0 -8.3723615780e+00 -2.8239656705e+01 -7.8502158794e+00 3.0482790859e+01 0.0000000000e+00 0.0000e+00 -1.0000e+00
      -12  1    3    3    0    0 +1.5731521143e+01 -9.6756857432e+00 +3.0947458320e+00 1.8726374551e+01 0.0000000000e+00 0.0000e+00 1.0000e+00
</event>
<event>
 9      4 +1.0086356e-04 9.11880000e+01 7.81616400e-03 1.18400000e-01
      -11 -1    0    0    0    0 +0.0000000000e+00 +0.0000000000e+00 +4.5593999997e+01 4.5594000000e+01 5.1100000000e-04 0.0000e+00 1.0000e+00
       11 -1    0    0    0    0 -0.0000000000e+00 -0.0000000000e+00 -4.5593999997e+01 4.5594000000e+01 5.1100000000e-04 0.0000e+00 -1.0000e+00
       23  2    1    2    0    0 +1.7763568394e-15 +2.2204460493e-16 +3.5527136788e-15 9.1188000000e+01 9.1188000000e+01 9.2352e-15 0.0000e+00
 -9990012  2    3    3    0    0 +8.2086305723e+00 +1.3938236693e+00 +1.6773603299e+01 7.2461598105e+01 7.0000036229e+01 6.5277e-04 0.0000e+00
      -24  2    4    4    0    0 -5.2070123587e+00 +1.5333753010e+00 +3.5008370436e+00 5.3589256591e+01 5.3198574647e+01 6.5170e-14 0.0000e+00
      -11  1    4    4    0    0 +1.3415642931e+01 -1.3955163175e-01 +1.3272766255e+01 1.8872341514e+01 5.1100000000e-04 0.0000e+00 1.0000e+00
       11  1    5    5    0    0 -1.4397421582e+00 -4.8235938051e+00 -2.4303706428e+01 2.4819549977e+01 5.1100000000e-04 0.0000e+00 -1.0000e+00
      -12  1    5    5    0    0 -3.7672702005e+00 +6.3569691061e+00 +2.7804543472e+01 2.8769706614e+01 0.0000000000e+00 0.0000e+00 1.0000e+00
       12  1    3    3    0    0 -8.2086305723e+00 -1.3938236693e+00 -1.6773603299e+01 1.8726401895e+01 0.0000000000e+00 0.0000e+00 -1.0000e+00
</event>
<event>
 9      4 +1.0086356e-04 9.11880000e+01 7.81616400e-03 1.18400000e-01
      -11 -1    0    0    0    0 +0.0000000000e+00 +0.0000000000e+00 +4.5593999997e+01 4.5594000000e+01 5.1100000000e-04 0.0000e+00 1.0000e+00
       11 -1    0    0    0    0 -0.0000000000e+00 -0.0000000000e+00 -4.5593999997e+01 4.5594000000e+01 5.1100000000e-04 0.0000e+00 -1.0000e+00
       23  2    1    2    0    0 +1.7763568394e-15 +0.0000000000e+00 -8.8817841970e-16 9.1188000000e+01 9.1188000000e+01 1.9364e-16 0.0000e+00
 -9990012  2    3    3    0    0 -1.2737228910e+01 -1.2997874653e+01 +4.4161808635e+00 7.2461430661e+01 6.9999818102e+01 1.7800e-04 0.0000e+00
      -24  2    4    4    0    0 -1.9234799585e+01 -3.0902441084e+00 +2.3082512027e+00 6.0427190536e+01 5.7154091793e+01 9.0987e-15 0.0000e+00
      -11  1    4    4    0    0 +6.4975706756e+00 -9.9076305441e+00 +2.1079296608e+00 1.2034240126e+01 5.1100000000e-04 0.0000e+00 1.0000e+00
       11  1    5    5    0    0 -3.7343364288e+01 -1.2873528806e+01 -1.3459423201e+00 3.9522982697e+01 5.1100000000e-04 0.0000e+00 -1.0000e+00
      -12  1    5    5    0    0 +1.8108564703e+01 +9.7832846976e+00 +3.6541935228e+00 2.0904207839e+01 0.0000000000e+00 0.0000e+00 1.0000e+00
       12  1    3    3    0    0 +1.2737228910e+01 +1.2997874653e+01 -4.4161808635e+00 1.8726569339e+01 0.0000000000e+00 0.0000e+00 -1.0000e+00
</event>
<event>
 8      3 +1.0086356e-04 9.11880000e+01 7.81616400e-03 1.18400000e-01
      -11 -1    0    0    0    0 +0.0000000000e+00 +0.0000000000e+00 +4.5593999997e+01 4.5594000000e+01 5.1100000000e-04 0.0000e+00 1.0000e+00
       11 -1    0    0    0    0 -0.0000000000e+00 -0.0000000000e+00 -4.5593999997e+01 4.5594000000e+01 5.1100000000e-04 0.0000e+00 -1.0000e+00
       23  2    1    2    0    0 +1.7763568394e-15 +0.0000000000e+00 +1.7763568394e-15 9.1188000000e+01 9.1188000000e+01 5.7092e-14 0.0000e+00
  9990012  2    3    3    0    0 +8.5766178952e-01 +1.5142338529e+01 -1.0983969661e+01 7.2461719286e+01 7.0000194089e+01 4.8203e-04 0.0000e+00
      -11  1    4    4    0    0 +9.8454865453e+00 -1.5426998039e+01 +9.5136307558e+00 2.0626076802e+01 5.1100000000e-04 0.0000e+00 1.0000e+00
       11  1    4    4    0    0 -1.0790387671e+01 +3.7722664216e+01 -2.0886224578e+01 4.4448467229e+01 5.1100000000e-04 0.0000e+00 -1.0000e+00
       12  1    4    4    0    0 +1.8025629154e+00 -7.1533276481e+00 +3.8862416146e-01 7.3871752547e+00 0.0000000000e+00 0.0000e+00 -1.0000e+00
      -12  1    3    3    0    0 -8.5766178952e-01 -1.5142338529e+01 +1.0983969661e+01 1.8726280714e+01 0.0000000000e+00 0.0000e+00 1.0000e+00
</event>
<event>
 8      3 +1.0086356e-04 9.11880000e+01 7.81616400e-03 1.18400000e-01
      -11 -1    0    0    0    0 +0.0000000000e+00 +0.0000000000e+00 +4.5593999997e+01 4.5594000000e+01 5.1100000000e-04 0.0000e+00 1.0000e+00
       11 -1    0    0    0    0 -0.0000000000e+00 -0.0000000000e+00 -4.5593999997e+01 4.5594000000e+01 5.1100000000e-04 0.0000e+00 -1.0000e+00
       23  2    1    2    0    0 -3.5527136788e-15 +3.5527136788e-15 +0.0000000000e+00 9.1188000000e+01 9.1188000000e+01 4.1700e-14 0.0000e+00
  9990012  2    3    3    0    0 +6.5126054742e+00 -1.4306843827e+01 -1.0178329954e+01 7.2461061890e+01 6.9999337705e+01 6.5157e-04 0.0000e+00
      -11  1    4    4    0    0 +9.7803643121e+00 +2.7816914669e+00 +5.9127996650e+00 1.1762420399e+01 5.1100000000e-04 0.0000e+00 1.0000e+00
       11  1    4    4    0    0 +2.2755097995e+01 +9.0659550127e-01 +4.1373677975e+00 2.3145932963e+01 5.1100000000e-04 0.0000e+00 -1.0000e+00
       12  1    4    4    0    0 -2.6022856833e+01 -1.7995130795e+01 -2.0228497416e+01 3.7552708528e+01 0.0000000000e+00 0.0000e+00 -1.0000e+00
      -12  1    3    3    0    0 -6.5126054742e+00 +1.4306843827e+01 +1.0178329954e+01 1.8726938110e+01 0.0000000000e+00 0.0000e+00 1.0000e+00
</event>
<event>
 8      3 +1.0086356e-04 9.11880000e+01 7.81616400e-03 1.18400000e-01
      -11 -1    0    0    0    0 +0.0000000000e+00 +0.0000000000e+00 +4.5593999997e+01 4.5594000000e+01 5.1100000000e-04 0.0000e+00 1.0000e+00
       11 -1    0    0    0    0 -0.0000000000e+00 -0.0000000000e+00 -4.5593999997e+01 4.5594000000e+01 5.1100000000e-04 0.0000e+00 -1.0000e+00
       23  2    1    2    0    0 +0.0000000000e+00 +0.0000000000e+00 +3.5527136788e-15 9.1188000000e+01 9.1188000000e+01 4.5073e-14 0.0000e+00
  9990012  2    3    3    0    0 -1.1261703041e+00 +1.5208213403e+01 +1.0868273756e+01 7.2461617837e+01 7.0000061934e+01 3.9163e-04 0.0000e+00
      -11  1    4    4    0    0 +3.2777409863e+00 -1.1711801446e+01 +2.8272515979e+00 1.2486121533e+01 5.1100000000e-04 0.0000e+00 1.0000e+00
       11  1    4    4    0    0 +2.0218202953e+01 +8.0941921574e+00 -1.0160406366e+01 2.4031760965e+01 5.1100000000e-04 0.0000e+00 -1.0000e+00
       12  1    4    4    0    0 -2.4622114243e+01 +1.8825822691e+01 +1.8201428524e+01 3.5943735339e+01 0.0000000000e+00 0.0000e+00 -1.0000e+00
      -12  1    3    3    0    0 +1.1261703041e+00 -1.5208213403e+01 -1.0868273756e+01 1.8726382163e+01 0.0000000000e+00 0.0000e+00 1.0000e+00
</event>
<event>
 8      3 +1.0086356e-04 9.11880000e+01 7.81616400e-03 1.18400000e-01
      -11 -1    0    0    0    0 +0.0000000000e+00 +0.0000000000e+00 +4.5593999997e+01 4.5594000000e+01 5.1100000000e-04 0.0000e+00 1.0000e+00
       11 -1    0    0    0    0 -0.0000000000e+00 -0.0000000000e+00 -4.5593999997e+01 4.5594000000e+01 5.1100000000e-04 0.0000e+00 -1.0000e+00
       23  2    1    2    0    0 +0.0000000000e+00 +1.7763568394e-15 -3.5527136788e-15 9.1188000000e+01 9.1188000000e+01 5.5460e-14 0.0000e+00
  9990012  2    3    3    0    0 +4.7176082202e+00 +1.3274399452e+01 +1.2337420531e+01 7.2461616112e+01 7.0000059687e+01 3.2778e-04 0.0000e+00
      -11  1    4    4    0    0 +1.0866339417e+01 +4.4852258252e+00 +3.1210322879e+01 3.3350844629e+01 5.1100000000e-04 0.0000e+00 1.0000e+00
       11  1    4    4    0    0 -5.7333181998e-01 -8.4432128874e+00 -1.9214616849e+01 2.0995667509e+01 5.1100000000e-04 0.0000e+00 -1.0000e+00
       12  1    4    4    0    0 -5.5753993773e+00 +1.7232386515e+01 +3.4171450110e-01 1.8115103974e+01 0.0000000000e+00 0.0000e+00 -1.0000e+00
      -12  1    3    3    0    0 -4.7176082202e+00 -1.3274399452e+01 -1.2337420531e+01 1.8726383888e+01 0.0000000000e+00 0.0000e+00 1.0000e+00
</event>
<event>
 9      4 +1.0086356e-04 9.11880000e+01 7.81616400e-03 1.18400000e-01
      -11 -1    0    0    0    0 +0.0000000000e+00 +0.0000000000e+00 +4.5593999997e+01 4.5594000000e+01 5.1100000000e-04 0.0000e+00 1.0000e+00
       11 -1    0    0    0    0 -0.0000000000e+00 -0.0000000000e+00 -4.5593999997e+01 4.5594000000e+01 5.1100000000e-04 0.0000e+00 -1.0000e+00
       23  2    1    2    0    0 -1.7763568394e-15 +1.7763568394e-15 +0.0000000000e+00 9.1188000000e+01 9.1188000000e+01 2.5910e-15 0.0000e+00
 -9990012  2    3    3    0    0 -1.4639079708e+01 -1.1330996042e+01 -2.8260688652e+00 7.2461526995e+01 6.9999943594e+01 1.2319e-04 0.0000e+00
      -24  2    4    4    0    0 -6.5872494192e+00 -9.5933372197e+00 -5.9899986056e+00 6.3637589050e+01 6.2277112031e+01 4.2966e-14 0.0000e+00
      -11  1    4    4    0    0 -8.0518302886e+00 -1.7376588221e+00 +3.1639297403e+00 8.8239379441e+00 5.1100000000e-04 0.0000e+00 1.0000e+00
       11  1    5    5    0    0 +9.8163630872e+00 +2.2618983409e+01 -1.1260713567e+01 2.7106882244e+01 5.1100000000e-04 0.0000e+00 -1.0000e+00
      -12  1    5    5    0    0 -1.6403612506e+01 -3.2212320629e+01 +5.2707149611e+00 3.6530706806e+01 0.0000000000e+00 0.0000e+00 1.0000e+00
       12  1    3    3    0    0 +1.4639079708e+01 +1.1330996042e+01 +2.8260688652e+00 1.8726473005e+01 0.0000000000e+00 0.0000e+00 -1.0000e+00
</event>
<event>
 9      4 +1.0086356e-04 9.11880000e+01 7.81616400e-03 1.18400000e-01
      -11 -1    0    0    0    0 +0.0000000000e+00 +0.0000000000e+00 +4.5593999997e+01 4.5594000000e+01 5.1100000000e-04 0.0000e+00 1.0000e+00
       11 -1    0    0    0    0 -0.0000000000e+00 -0.0000000000e+00 -4.5593999997e+01 4.5594000000e+01 5.1100000000e-04 0.0000e+00 -1.0000e+00
       23  2    1    2    0    0 +0.0000000000e+00 +0.0000000000e+00 -1.5543122345e-15 9.1188000000e+01 9.1188000000e+01 2.5826e-14 0.0000e+00
 -9990012  2    3    3    0    0 +1.6506458027e+01 -8.7650924970e+00 -1.1788683266e+00 7.2461555233e+01 6.9999980379e+01 6.3193e-05 0.0000e+00
      -24  2    4    4    0    0 +1.1826925684e+01 -7.2617626805e+00 +1.6498584802e+00 6.6790601248e+01 6.5311966849e+01 2.0723e-14 0.0000e+00
      -11  1    4    4    0    0 +4.6795323432e+00 -1.5033298165e+00 -2.8287268068e+00 5.6709539848e+00 5.1100000000e-04 0.0000e+00 1.0000e+00
       11  1    5    5    0    0 +4.8826360209e+00 -1.5901953901e+01 -2.9422963351e+01 3.3799749185e+01 5.1100000000e-04 0.0000e+00 -1.0000e+00
      -12  1    5    5    0    0 +6.9442896632e+00 +8.6401912205e+00 +3.1072821831e+01 3.2990852063e+01 0.0000000000e+00 0.0000e+00 1.0000e+00
       12  1    3    3    0    0 -1.6506458027e+01 +8.7650924970e+00 +1.1788683266e+00 1.8726444767e+01 0.0000000000e+00 0.0000e+00 -1.0000e+00
</event>
<event>
 9      3 +1.0086356e-04 9.11880000e+01 7.81616400e-03 1.18400000e-01
      -11 -1    0    0    0    0 +0.0000000000e+00 +0.0000000000e+00 +4.5593999997e+01 4.5594000000e+01 5.1100000000e-04 0.0000e+00 -1.0000e+00
       11 -1    0    0    0    0 -0.0000000000e+00 -0.0000000000e+00 -4.5593999997e+01 4.5594000000e+01 5.1100000000e-04 0.0000e+00 1.0000e+00
       23  2    1    2    0    0 +1.7763568394e-15 +0.0000000000e+00 -1.7763568394e-15 9.1188000000e+01 9.1188000000e+01 8.8720e-15 0.0000e+00
  9990012  2    3    3    0    0 +1.2183050996e+01 -3.5327524542e+00 -1.3775767996e+01 7.2461578683e+01 7.0000010928e+01 1.2727e-05 0.0000e+00
       24  2    4    4    0    0 +8.5632050469e+00 -1.7704383255e+00 -4.4981919982e-02 5.8152717013e+01 5.7491508417e+01 2.1574e-13 0.0000e+00
      -11  1    5    5    0    0 -1.6846212751e+01 +7.3365017592e+00 -1.8009796495e+01 2.5728814822e+01 5.1100000000e-04 0.0000e+00 1.0000e+00
       11  1    4    4    0    0 +3.6198459493e+00 -1.7623141287e+00 -1.3730786076e+01 1.4308861670e+01 5.1100000000e-04 0.0000e+00 -1.0000e+00
       12  1    5    5    0    0 +2.5409417798e+01 -9.1069400847e+00 +1.7964814575e+01 3.2423902190e+01 0.0000000000e+00 0.0000e+00 -1.0000e+00
      -12  1    3    3    0    0 -1.2183050996e+01 +3.5327524542e+00 +1.3775767996e+01 1.8726421317e+01 0.0000000000e+00 0.0000e+00 1.0000e+00
</event>
<event>
 8      3 +1.0086356e-04 9.11880000e+01 7.81616400e-03 1.18400000e-01
      -11 -1    0    0    0    0 +0.0000000000e+00 +0.0000000000e+00 +4.5593999997e+01 4.5594000000e+01 5.1100000000e-04 0.0000e+00 -1.0000e+00
       11 -1    0    0    0    0 -0.0000000000e+00 -0.0000000000e+00 -4.5593999997e+01 4.5594000000e+01 5.1100000000e-04 0.0000e+00 1.0000e+00
       23  2    1    2    0    0 -3.5527136788e-15 +8.8817841970e-16 +0.0000000000e+00 9.1188000000e+01 9.1188000000e+01 3.1664e-14 0.0000e+00
  9990012  2    3    3    0    0 -1.6975654789e+01 -6.4553473156e+00 +4.5646994218e+00 7.2461525551e+01 6.9999941714e+01 2.9422e-05 0.0000e+00
      -11  1    4    4    0    0 +3.6596556292e+00 +1.5381450401e+01 -8.6253777387e+00 1.8010531285e+01 5.1100000000e-04 0.0000e+00 1.0000e+00
       11  1    4    4    0    0 +1.2416614305e+01 -1.0584415065e+01 +1.0564968035e+01 1.9437610524e+01 5.1100000000e-04 0.0000e+00 -1.0000e+00
       12  1    4    4    0    0 -3.3051924722e+01 -1.1252382652e+01 +2.6251091259e+00 3.5013383743e+01 0.0000000000e+00 0.0000e+00 -1.0000e+00
      -12  1    3    3    0    0 +1.6975654789e+01 +6.4553473156e+00 -4.5646994218e+00 1.8726474449e+01 0.0000000000e+00 0.0000e+00 1.0000e+00
</event>
<event>
 8      4 +1.0086356e-04 9.11880000e+01 7.81616400e-03 1.18400000e-01
      -11 -1    0    0    0    0 +0.0000000000e+00 +0.0000000000e+00 +4.5593999997e+01 4.5594000000e+01 5.1100000000e-04 0.0000e+00 -1.0000e+00
       11 -1    0    0    0    0 -0.0000000000e+00 -0.0000000000e+00 -4.5593999997e+01 4.5594000000e+01 5.1100000000e-04 0.0000e+00 1.0000e+00
       23  2    1    2    0    0 +3.5527136788e-15 +5.2735593670e-16 -1.7763568394e-15 9.1188000000e+01 9.1188000000e+01 1.1729e-13 0.0000e+00
 -9990012  2    3    3    0    0 +1.8231976179e+01 +1.9062158793e-01 -4.2704737564e+00 7.2461595164e+01 7.0000032397e+01 5.4188e-04 0.0000e+00
      -11  1    4    4    0    0 +1.7634763541e+01 -1.3072579866e+01 +1.2612291849e+01 2.5316933769e+01 5.1100000000e-04 0.0000e+00 1.0000e+00
       11  1    4    4    0    0 -9.3772846507e+00 +7.2793262395e+00 +1.1464823240e+01 1.6503461155e+01 5.1100000000e-04 0.0000e+00 -1.0000e+00
      -12  1    4    4    0    0 +9.9744972886e+00 +5.9838752145e+00 -2.8347588846e+01 3.0641200239e+01 0.0000000000e+00 0.0000e+00 1.0000e+00
       12  1    3    3    0    0 -1.8231976179e+01 -1.9062158793e-01 +4.2704737564e+00 1.8726404836e+01 0.0000000000e+00 0.0000e+00 -1.0000e+00
</event>
<event>
 8      4 +1.0086356e-04 9.11880000e+01 7.81616400e-03 1.18400000e-01
      -11 -1    0    0    0    0 +0.0000000000e+00 +0.0000000000e+00 +4.5593999997e+01 4.5594000000e+01 5.1100000000e-04 0.0000e+00 1.0000e+00
       11 -1    0    0    0    0 -0.0000000000e+00 -0.0000000000e+00 -4.5593999997e+01 4.5594000000e+01 5.1100000000e-04 0.0000e+00 -1.0000e+00
       23  2    1    2    0    0 +0.0000000000e+00 +8.8817841970e-16 +0.0000000000e+00 9.1188000000e+01 9.1188000000e+01 6.1036e-14 0.0000e+00
 -9990012  2    3    3    0    0 -1.4432233505e+01 -6.3836829253e+00 +1.0081515310e+01 7.2461608928e+01 7.0000050327e+01 4.8930e-05 0.0000e+00
      -11  1    4    4    0    0 -1.1964978654e+01 +6.2209301908e+00 -1.2657073905e+01 1.8494923809e+01 5.1100000000e-04 0.0000e+00 1.0000e+00
       11  1    4    4    0    0 -3.9800339872e+00 -1.6633533800e+00 -1.4498177806e+01 1.5126287547e+01 5.1100000000e-04 0.0000e+00 -1.0000e+00
      -12  1    4    4    0    0 +1.5127791357e+00 -1.0941259736e+01 +3.7236767021e+01 3.8840397571e+01 0.0000000000e+00 0.0000e+00 1.0000e+00
       12  1    3    3    0    0 +1.4432233505e+01 +6.3836829253e+00 -1.0081515310e+01 1.8726391072e+01 0.0000000000e+00 0.0000e+00 -1.0000e+00
</event>
<event>
 9      4 +1.0086356e-04 9.11880000e+01 7.81616400e-03 1.18400000e-01
      -11 -1    0    0    0    0 +0.0000000000e+00 +0.0000000000e+00 +4.5593999997e+01 4.5594000000e+01 5.1100000000e-04 0.0000e+00 -1.0000e+00
       11 -1    0    0    0    0 -0.0000000000e+00 -0.0000000000e+00 -4.5593999997e+01 4.5594000000e+01 5.1100000000e-04 0.0000e+00 1.0000e+00
       23  2    1    2    0    0 +0.0000000000e+00 +2.2204460493e-16 -3.5527136788e-15 9.1188000000e+01 9.1188000000e+01 1.0115e-14 0.0000e+00
 -9990012  2    3    3    0    0 -2.7717833780e+00 -1.6053290852e+00 -1.8450358845e+01 7.2461665439e+01 7.0000123944e+01 3.2374e-06 0.0000e+00
      -24  2    4    4    0    0 +7.9497194317e+00 +7.8294356734e+00 -3.3647709819e+00 5.1688115670e+01 5.0357139670e+01 2.8217e-13 0.0000e+00
      -11  1    4    4    0    0 -1.0721502810e+01 -9.4347647586e+00 -1.5085587863e+01 2.0773549769e+01 5.1100000000e-04 0.0000e+00 1.0000e+00
       11  1    5    5    0    0 +2.6525326716e+00 -9.2314649011e+00 +2.0052814142e+01 2.2234460396e+01 5.1100000000e-04 0.0000e+00 -1.0000e+00
      -12  1    5    5    0    0 +5.2971867601e+00 +1.7060900574e+01 -2.3417585124e+01 2.9453655275e+01 0.0000000000e+00 0.0000e+00 1.0000e+00
       12  1    3    3    0    0 +2.7717833780e+00 +1.6053290852e+00 +1.8450358845e+01 1.8726334561e+01 0.0000000000e+00 0.0000e+00 -1.0000e+00
</event>
<event>
 8      3 +1.0086356e-04 9.11880000e+01 7.81616400e-03 1.18400000e-01
      -11 -1    0    0    0    0 +0.0000000000e+00 +0.0000000000e+00 +4.5593999997e+01 4.5594000000e+01 5.1100000000e-04 0.0000e+00 1.0000e+00
       11 -1    0    0    0    0 -0.0000000000e+00 -0.0000000000e+00 -4.5593999997e+01 4.5594000000e+01 5.1100000000e-04 0.0000e+00 -1.0000e+00
       23  2    1    2    0    0 -8.8817841970e-16 -8.8817841970e-16 +3.5527136788e-15 9.1188000000e+01 9.1188000000e+01 2.1696e-14 0.0000e+00
  9990012  2    3    3    0    0 +3.9601193847e+00 -7.1838196194e+00 -1.6834150700e+01 7.2461589782e+01 7.0000025386e+01 1.1583e-04 0.0000e+00
      -11  1    4    4    0    0 +1.7396099448e+01 +1.7439180098e+00 -8.0180804347e+00 1.9234217950e+01 5.1100000000e-04 0.0000e+00 -1.0000e+00
       11  1    4    4    0    0 -1.5685670038e+00 -2.2514964687e+01 -2.1502710811e+01 3.1172914682e+01 5.1100000000e-04 0.0000e+00 1.0000e+00
       12  1    4    4    0    0 -1.1867413060e+01 +1.3587227057e+01 +1.2686640546e+01 2.2054457150e+01 0.0000000000e+00 0.0000e+00 -1.0000e+00
      -12  1    3    3    0    0 -3.9601193847e+00 +7.1838196194e+00 +1.6834150700e+01 1.8726410218e+01 0.0000000000e+00 0.0000e+00 1.0000e+00
</event>
<event>
 9      1 +1.0086356e-04 9.11880000e+01 7.81616400e-03 1.18400000e-01
      -11 -1    0    0    0    0 +0.0000000000e+00 +0.0000000000e+00 +4.5593999997e+01 4.5594000000e+01 5.1100000000e-04 0.0000e+00 -1.0000e+00
       11 -1    0    0    0    0 -0.0000000000e+00 -0.0000000000e+00 -4.5593999997e+01 4.5594000000e+01 5.1100000000e-04 0.0000e+00 1.0000e+00
       23  2    1    2    0    0 +2.2204460493e-16 +1.7763568394e-15 +1.7763568394e-15 9.1188000000e+01 9.1188000000e+01 2.0830e-14 0.0000e+00
  9990012  2    3    3    0    0 -1.3667695586e+00 -1.2613919445e+01 +1.3773220424e+01 7.2461531469e+01 6.9999949422e+01 5.9083e-04 0.0000e+00
       23  2    4    4    0    0 -1.6159536243e+00 -7.1786614660e+00 +1.6452015058e+01 6.6396874620e+01 6.3904081820e+01 7.2454e-14 0.0000e+00
      -11  1    5    5    0    0 +9.8635029977e-01 +2.4433571290e+01 +2.3488114064e+01 3.3906692487e+01 5.1100000000e-04 0.0000e+00 -1.0000e+00
       11  1    5    5    0    0 -2.6023039241e+00 -3.1612232756e+01 -7.0360990065e+00 3.2490182133e+01 5.1100000000e-04 0.0000e+00 1.0000e+00
       12  1    4    4    0    0 +2.4918406573e-01 -5.4352579794e+00 -2.6787946333e+00 6.0646568484e+00 0.0000000000e+00 0.0000e+00 -1.0000e+00
      -12  1    3    3    0    0 +1.3667695586e+00 +1.2613919445e+01 -1.3773220424e+01 1.8726468531e+01 0.0000000000e+00 0.0000e+00 1.0000e+00
</event>
<event>
 9      4 +1.0086356e-04 9.11880000e+01 7.81616400e-03 1.18400000e-01
      -11 -1    0    0    0    0 +0.0000000000e+00 +0.0000000000e+00 +4.5593999997e+01 4.5594000000e+01 5.1100000000e-04 0.0000e+00 -1.0000e+00
       11 -1    0    0    0    0 -0.0000000000e+00 -0.0000000000e+00 -4.5593999997e+01 4.5594000000e+01 5.1100000000e-04 0.0000e+00 1.0000e+00
       23  2    1    2    0    0 -1.7763568394e-15 +8.8817841970e-16 +3.5527136788e-15 9.1188000000e+01 9.1188000000e+01 2.1382e-13 0.0000e+00
 -9990012  2    3    3    0    0 -3.4122680435e+00 -5.0263238188e+00 -1.7713559181e+01 7.2461609980e+01 7.0000051698e+01 4.8041e-05 0.0000e+00
      -24  2    4    4    0    0 +1.5127809081e+00 -7.1515083611e+00 -2.3280745119e+01 6.4730757760e+01 5.9955361136e+01 4.6999e-14 0.0000e+00
      -11  1    4    4    0    0 -4.9250489516e+00 +2.1251845423e+00 +5.5671859385e+00 7.7308522201e+00 5.1100000000e-04 0.0000e+00 1.0000e+00
       11  1    5    5    0    0 +1.7150394304e+01 +1.8413133647e+01 +2.3828685546e+00 2.5275632104e+01 5.1100000000e-04 0.0000e+00 -1.0000e+00
      -12  1    5    5    0    0 -1.5637613395e+01 -2.5564642008e+01 -2.5663613674e+01 3.9455125656e+01 0.0000000000e+00 0.0000e+00 1.0000e+00
       12  1    3    3    0    0 +3.4122680435e+00 +5.0263238188e+00 +1.7713559181e+01 1.8726390020e+01 0.0000000000e+00 0.0000e+00 -1.0000e+00
</event>
<event>
 9      1 +1.0086356e-04 9.11880000e+01 7.81616400e-03 1.18400000e-01
      -11 -1    0    0    0    0 +0.0000000000e+00 +0.0000000000e+00 +4.5593999997e+01 4.5594000000e+01 5.1100000000e-04 0.0000e+00 1.0000e+00
       11 -1    0    0    0    0 -0.0000000000e+00 -0.0000000000e+00 -4.5593999997e+01 4.5594000000e+01 5.1100000000e-04 0.0000e+00 -1.0000e+00
       23  2    1    2    0    0 -1.7763568394e-15 -8.8817841970e-16 -3.5527136788e-15 9.1188000000e+01 9.1188000000e+01 7.2435e-14 0.0000e+00
  9990012  2    3    3    0    0 -1.5498410628e+01 -4.3517659920e+00 -9.5676951005e+00 7.2461564440e+01 6.9999992373e+01 1.3280e-04 0.0000e+00
       23  2    4    4    0    0 -5.1052156347e+00 -7.1101844130e+00 +2.3521245820e+00 5.6408232212e+01 5.5675292744e+01 2.0542e-14 0.0000e+00
      -11  1    5    5    0    0 +1.0056037035e+01 -1.3166524038e+01 -2.1722830913e+01 2.7319637978e+01 5.1100000000e-04 0.0000e+00 1.0000e+00
       11  1    5    5    0    0 -1.5161252669e+01 +6.0563396255e+00 +2.4074955495e+01 2.9088594234e+01 5.1100000000e-04 0.0000e+00 -1.0000e+00
       12  1    4    4    0    0 -1.0393194994e+01 +2.7584184210e+00 -1.1919819682e+01 1.6053332228e+01 0.0000000000e+00 0.0000e+00 -1.0000e+00
      -12  1    3    3    0    0 +1.5498410628e+01 +4.3517659920e+00 +9.5676951005e+00 1.8726435560e+01 0.0000000000e+00 0.0000e+00 1.0000e+00
</event>
<event>
 8      3 +1.0086356e-04 9.11880000e+01 7.81616400e-03 1.18400000e-01
      -11 -1    0    0    0    0 +0.0000000000e+00 +0.0000000000e+00 +4.5593999997e+01 4.5594000000e+01 5.1100000000e-04 0.0000e+00 -1.0000e+00
       11 -1    0    0    0    0 -0.0000000000e+00 -0.0000000000e+00 -4.5593999997e+01 4.5594000000e+01 5.1100000000e-04 0.0000e+00 1.0000e+00
       23  2    1    2    0    0 +3.5527136788e-15 +0.0000000000e+00 +0.0000000000e+00 9.1188000000e+01 9.1188000000e+01 1.8552e-13 0.0000e+00
  9990012  2    3    3    0    0 +1.3754959942e+01 -1.2103661330e+01 +3.8704129947e+00 7.2461611204e+01 7.0000053293e+01 1.1358e-04 0.0000e+00
      -11  1    4    4    0    0 +1.7052531649e+01 +8.7431784088e+00 -2.2164454197e+00 1.9291050642e+01 5.1100000000e-04 0.0000e+00 1.0000e+00
       11  1    4    4    0    0 -1.2774518599e+01 +8.8263573606e+00 -9.6394931719e+00 1.8276015391e+01 5.1100000000e-04 0.0000e+00 -1.0000e+00
       12  1    4    4    0    0 +9.4769468919e+00 -2.9673197099e+01 +1.5726351586e+01 3.4894545171e+01 0.0000000000e+00 0.0000e+00 -1.0000e+00
      -12  1    3    3    0    0 -1.3754959942e+01 +1.2103661330e+01 -3.8704129947e+00 1.8726388796e+01 0.0000000000e+00 0.0000e+00 1.0000e+00
</event>
<event>
 9      1 +1.0086356e-04 9.11880000e+01 7.81616400e-03 1.18400000e-01
      -11 -1    0    0    0    0 +0.0000000000e+00 +0.0000000000e+00 +4.5593999997e+01 4.5594000000e+01 5.1100000000e-04 0.0000e+00 1.0000e+00
       11 -1    0    0    0    0 -0.0000000000e+00 -0.0000000000e+00 -4.5593999997e+01 4.5594000000e+01 5.1100000000e-04 0.0000e+00 -1.0000e+00
       23  2    1    2    0    0 -3.5527136788e-15 +1.1102230246e-16 +1.7763568394e-15 9.1188000000e+01 9.1188000000e+01 3.2838e-14 0.0000e+00
  9990012  2    3    3    0    0 -1.3280612054e+01 +3.6536401991e-01 -1.3197375668e+01 7.2461578240e+01 7.0000010351e+01 3.5199e-04 0.0000e+00
       23  2    4    4    0    0 -1.5497558568e+01 -4.7541606217e+00 -1.5984576847e+01 6.6225163019e+01 6.2189140170e+01 2.2609e-13 0.0000e+00
      -11  1    5    5    0    0 +8.3541090672e+00 +2.8396331183e+00 +2.0305417209e+01 2.2139661760e+01 5.1100000000e-04 0.0000e+00 1.0000e+00
       11  1    5    5    0    0 -2.3851667635e+01 -7.5937937399e+00 -3.6289994056e+01 4.4085501259e+01 5.1100000000e-04 0.0000e+00 -1.0000e+00
       12  1    4    4    0    0 +2.2169465147e+00 +5.1195246416e+00 +2.7872011787e+00 6.2364152215e+00 0.0000000000e+00 0.0000e+00 -1.0000e+00
      -12  1    3    3    0    0 +1.3280612054e+01 -3.6536401991e-01 +1.3197375668e+01 1.8726421760e+01 0.0000000000e+00 0.0000e+00 1.0000e+00
</event>
<event>
 8      3 +1.0086356e-04 9.11880000e+01 7.81616400e-03 1.18400000e-01
      -11 -1    0    0    0    0 +0.0000000000e+00 +0.0000000000e+00 +4.5593999997e+01 4.5594000000e+01 5.1100000000e-04 0.0000e+00 -1.0000e+00
       11 -1    0    0    0    0 -0.0000000000e+00 -0.0000000000e+00 -4.5593999997e+01 4.5594000000e+01 5.1100000000e-04 0.0000e+00 1.0000e+00
       23  2    1    2    0    0 -8.8817841970e-16 +0.0000000000e+00 -1.7763568394e-15 9.1188000000e+01 9.1188000000e+01 1.8492e-14 0.0000e+00
  9990012  2    3    3    0    0 +4.9203171368e+00 +1.4900203931e+01 +1.0220002538e+01 7.2461706993e+01 7.0000178075e+01 4.2636e-04 0.0000e+00
      -11  1    4    4    0    0 -1.8462357483e+01 +5.8445503677e+00 -8.8979905046e+00 2.1311772524e+01 5.1100000000e-04 0.0000e+00 1.0000e+00
       11  1    4    4    0    0 +2.4428744545e+00 +8.1418590661e+00 +2.7343222627e+01 2.8634058891e+01 5.1100000000e-04 0.0000e+00 -1.0000e+00
       12  1    4    4    0    0 +2.0939800165e+01 +9.1379449709e-01 -8.2252295846e+00 2.2515875578e+01 0.0000000000e+00 0.0000e+00 -1.0000e+00
      -12  1    3    3    0    0 -4.9203171368e+00 -1.4900203931e+01 -1.0220002538e+01 1.8726293007e+01 0.0000000000e+00 0.0000e+00 1.0000e+00
</event>
<event>
 8      3 +1.0086356e-04 9.11880000e+01 7.81616400e-03 1.18400000e-01
      -11 -1    0    0    0    0 +0.0000000000e+00 +0.0000000000e+00 +4.5593999997e+01 4.5594000000e+01 5.1100000000e-04 0.0000e+00 -1.0000e+00
       11 -1    0    0    0    0 -0.0000000000e+00 -0.0000000000e+00 -4.5593999997e+01 4.5594000000e+01 5.1100000000e-04 0.0000e+00 1.0000e+00
       23  2    1    2    0    0 +2.2204460493e-16 +0.0000000000e+00 -1.7763568394e-15 9.1188000000e+01 9.1188000000e+01 9.3924e-14 0.0000e+00
  9990012  2    3    3    0    0 +1.1579403515e+00 +1.0000689016e+01 +1.5790031801e+01 7.2461555839e+01 6.9999981169e+01 7.2655e-05 0.0000e+00
      -11  1    4    4    0    0 -6.7203871523e+00 -8.0612342355e+00 -1.1695289976e+01 1.5713908132e+01 5.1100000000e-04 0.0000e+00 1.0000e+00
       11  1    4    4    0    0 -3.3736171785e+00 +2.3956370903e+00 +3.5587149193e+01 3.5826883173e+01 5.1100000000e-04 0.0000e+00 -1.0000e+00
       12  1    4    4    0    0 +1.1251944682e+01 +1.5666286161e+01 -8.1018274158e+00 2.0920764534e+01 0.0000000000e+00 0.0000e+00 -1.0000e+00
      -12  1    3    3    0    0 -1.1579403515e+00 -1.0000689016e+01 -1.5790031801e+01 1.8726444161e+01 0.0000000000e+00 0.0000e+00 1.0000e+00
</event>
<event>
 8      4 +1.0086356e-04 9.11880000e+01 7.81616400e-03 1.18400000e-01
      -11 -1    0    0    0    0 +0.0000000000e+00 +0.0000000000e+00 +4.5593999997e+01 4.5594000000e+01 5.1100000000e-04 0.0000e+00 -1.0000e+00
       11 -1    0    0    0    0 -0.0000000000e+00 -0.0000000000e+00 -4.5593999997e+01 4.5594000000e+01 5.1100000000e-04 0.0000e+00 1.0000e+00
       23  2    1    2    0    0 +1.2212453271e-15 +1.7763568394e-15 +0.0000000000e+00 9.1188000000e+01 9.1188000000e+01 2.5248e-14 0.0000e+00
 -9990012  2    3    3    0    0 +2.6154828033e-01 -6.9206901957e+00 -1.7398730163e+01 7.2461543540e+01 6.9999965147e+01 1.0017e-03 0.0000e+00
      -11  1    4    4    0    0 -2.2066525502e+01 +1.7313240491e+01 -1.4773493297e+01 3.1700724731e+01 5.1100000000e-04 0.0000e+00 1.0000e+00
       11  1    4    4    0    0 -1.4377780932e+00 -3.1590421482e+00 +6.7941713885e+00 7.6293851821e+00 5.1100000000e-04 0.0000e+00 -1.0000e+00
      -12  1    4    4    0    0 +2.3765851875e+01 -2.1074888539e+01 -9.4194082541e+00 3.3131433626e+01 0.0000000000e+00 0.0000e+00 1.0000e+00
       12  1    3    3    0    0 -2.6154828033e-01 +6.9206901957e+00 +1.7398730163e+01 1.8726456460e+01 0.0000000000e+00 0.0000e+00 -1.0000e+00
</event>
<event>
 8      3 +1.0086356e-04 9.11880000e+01 7.81616400e-03 1.18400000e-01
      -11 -1    0    0    0    0 +0.0000000000e+00 +0.0000000000e+00 +4.5593999997e+01 4.5594000000e+01 5.1100000000e-04 0.0000e+00 -1.0000e+00
       11 -1    0    0    0    0 -0.0000000000e+00 -0.0000000000e+00 -4.5593999997e+01 4.5594000000e+01 5.1100000000e-04 0.0000e+00 1.0000e+00
       23  2    1    2    0    0 +0.0000000000e+00 -1.7763568394e-15 -5.3290705182e-15 9.1188000000e+01 9.1188000000e+01 2.5135e-14 0.0000e+00
  9990012  2    3    3    0    0 -1.4166780055e+01 -7.9207952536e+00 +9.3405556578e+00 7.2461477777e+01 6.9999879479e+01 3.9771e-05 0.0000e+00
      -11  1    4    4    0    0 -3.0472671160e+00 -4.3746099144e+00 -3.0648060689e+00 6.1494784559e+00 5.1100000000e-04 0.0000e+00 1.0000e+00
       11  1    4    4    0    0 +1.3259911478e+00 -3.4598988400e+00 -2.5833932737e+01 2.6098299436e+01 5.1100000000e-04 0.0000e+00 -1.0000e+00
       12  1    4    4    0    0 -1.2445504087e+01 -8.6286499273e-02 +3.8239294464e+01 4.0213699885e+01 0.0000000000e+00 0.0000e+00 -1.0000e+00
      -12  1    3    3    0    0 +1.4166780055e+01 +7.9207952536e+00 -9.3405556578e+00 1.8726522223e+01 0.0000000000e+00 0.0000e+00 1.0000e+00
</event>
<event>
 8      3 +1.0086356e-04 9.11880000e+01 7.81616400e-03 1.18400000e-01
      -11 -1    0    0    0    0 +0.0000000000e+00 +0.0000000000e+00 +4.5593999997e+01 4.5594000000e+01 5.1100000000e-04 0.0000e+00 1.0000e+00
       11 -1    0    0    0    0 -0.0000000000e+00 -0.0000000000e+00 -4.5593999997e+01 4.5594000000e+01 5.1100000000e-04 0.0000e+00 -1.0000e+00
       23  2    1    2    0    0 -2.6645352591e-15 -3.5527136788e-15 +1.7763568394e-15 9.1188000000e+01 9.1188000000e+01 7.5765e-14 0.0000e+00
  9990012  2    3    3    0    0 -7.9455818197e+00 +1.5436499436e+01 +7.0186662983e+00 7.2461562488e+01 6.9999989830e+01 5.0979e-04 0.0000e+00
      -11  1    4    4    0    0 -1.8906863844e+01 +1.7676853700e+00 -9.6083548439e+00 2.1281792571e+01 5.1100000000e-04 0.0000e+00 1.0000e+00
       11  1    4    4    0    0 +2.1207778790e+01 -7.2355194044e+00 -2.7651062710e-01 2.2409798764e+01 5.1100000000e-04 0.0000e+00 -1.0000e+00
       12  1    4    4    0    0 -1.0246496766e+01 +2.0904333471e+01 +1.6903531769e+01 2.8769971152e+01 0.0000000000e+00 0.0000e+00 -1.0000e+00
      -12  1    3    3    0    0 +7.9455818197e+00 -1.5436499436e+01 -7.0186662983e+00 1.8726437512e+01 0.0000000000e+00 0.0000e+00 1.0000e+00
</event>
<event>
 9      4 +1.0086356e-04 9.11880000e+01 7.81616400e-03 1.18400000e-01
      -11 -1    0    0    0    0 +0.0000000000e+00 +0.0000000000e+00 +4.5593999997e+01 4.5594000000e+01 5.1100000000e-04 0.0000e+00 1.0000e+00
       11 -1    0    0    0    0 -0.0000000000e+00 -0.0000000000e+00 -4.5593999997e+01 4.5594000000e+01 5.1100000000e-04 0.0000e+00 -1.0000e+00
       23  2    1    2    0    0 -3.5527136788e-15 -1.3322676296e-15 +0.0000000000e+00 9.1188000000e+01 9.1188000000e+01 1.2891e-15 0.0000e+00
 -9990012  2    3    3    0    0 -1.6365449184e+01 -3.6759671803e+00 +8.3269885905e+00 7.2461564122e+01 6.9999991960e+01 2.5746e-04 0.0000e+00
      -24  2    4    4    0    0 -2.2856759598e+01 -1.1746953219e+01 +7.8891615947e+00 6.2094808638e+01 5.5974137062e+01 9.3346e-14 0.0000e+00
      -11  1    4    4    0    0 +6.4913104143e+00 +8.0709860391e+00 +4.3782699577e-01 1.0366755485e+01 5.1100000000e-04 0.0000e+00 1.0000e+00
       11  1    5    5    0    0 -2.2966527123e+00 -2.3601263069e+01 +2.3741064485e+01 3.3554915814e+01 5.1100000000e-04 0.0000e+00 -1.0000e+00
      -12  1    5    5    0    0 -2.0560106886e+01 +1.1854309849e+01 -1.5851902890e+01 2.8539892824e+01 0.0000000000e+00 0.0000e+00 1.0000e+00
       12  1    3    3    0    0 +1.6365449184e+01 +3.6759671803e+00 -8.3269885905e+00 1.8726435878e+01 0.0000000000e+00 0.0000e+00 -1.0000e+00
</event>
<event>
 8      4 +1.0086356e-04 9.11880000e+01 7.81616400e-03 1.18400000e-01
      -11 -1    0    0    0    0 +0.0000000000e+00 +0.0000000000e+00 +4.5593999997e+01 4.5594000000e+01 5.1100000000e-04 0.0000e+00 1.0000e+00
       11 -1    0    0    0    0 -0.0000000000e+00 -0.0000000000e+00 -4.5593999997e+01 4.5594000000e+01 5.1100000000e-04 0.0000e+00 -1.0000e+00
       23  2    1    2    0    0 +0.0000000000e+00 +0.0000000000e+00 +1.7763568394e-15 9.1188000000e+01 9.1188000000e+01 1.1353e-14 0.0000e+00
 -9990012  2    3    3    0    0 -1.1038136079e+01 +7.8413153327e+00 +1.2936434313e+01 7.2461601335e+01 7.0000040436e+01 3.3063e-04 0.0000e+00
      -11  1    4    4    0    0 -1.2669098265e+01 +1.0526676421e+01 -1.3687974624e+01 2.1416760186e+01 5.1100000000e-04 0.0000e+00 1.0000e+00
       11  1    4    4    0    0 -8.2770254268e+00 -3.2325660141e+00 -9.8376516717e+00 1.3256621878e+01 5.1100000000e-04 0.0000e+00 -1.0000e+00
      -12  1    4    4    0    0 +9.9079876129e+00 +5.4720492616e-01 +3.6462060609e+01 3.7788219270e+01 0.0000000000e+00 0.0000e+00 1.0000e+00
       12  1    3    3    0    0 +1.1038136079e+01 -7.8413153327e+00 -1.2936434313e+01 1.8726398665e+01 0.0000000000e+00 0.0000e+00 -1.0000e+00
</event>
<event>
 8      3 +1.0086356e-04 9.11880000e+01 7.81616400e-03 1.18400000e-01
      -11 -1    0    0    0    0 +0.0000000000e+00 +0.0000000000e+00 +4.5593999997e+01 4.5594000000e+01 5.1100000000e-04 0.0000e+00 -1.0000e+00
       11 -1    0    0    0    0 -0.0000000000e+00 -0.0000000000e+00 -4.5593999997e+01 4.5594000000e+01 5.1100000000e-04 0.0000e+00 1.0000e+00
       23  2    1    2    0    0 +0.0000000000e+00 +0.0000000000e+00 +0.0000000000e+00 9.1188000000e+01 9.1188000000e+01 1.2756e-13 0.0000e+00
  9990012  2    3    3    0    0 -1.0223342765e+01 +6.2380167760e+00 +1.4396117926e+01 7.2461606810e+01 7.0000047568e+01 1.0222e-04 0.0000e+00
      -11  1    4    4    0    0 +9.3958614168e+00 +7.1824845414e+00 +6.5455930795e+00 1.3517214394e+01 5.1100000000e-04 0.0000e+00 1.0000e+00
       11  1    4    4    0    0 -2.8221450865e+01 +1.9666824303e+01 +1.1591843310e+01 3.6298830542e+01 5.1100000000e-04 0.0000e+00 -1.0000e+00
       12  1    4    4    0    0 +8.6022466832e+00 -2.0611292069e+01 -3.7413184636e+00 2.2645561874e+01 0.0000000000e+00 0.0000e+00 -1.0000e+00
      -12  1    3    3    0    0 +1.0223342765e+01 -6.2380167760e+00 -1.4396117926e+01 1.8726393190e+01 0.0000000000e+00 0.0000e+00 1.0000e+00
</event>
<event>
 8      4 +1.0086356e-04 9.11880000e+01 7.81616400e-03 1.18400000e-01
      -11 -1    0    0    0    0 +0.0000000000e+00 +0.0000000000e+00 +4.5593999997e+01 4.5594000000e+01 5.1100000000e-04 0.0000e+00 -1.0000e+00
       11 -1    0    0    0    0 -0.0000000000e+00 -0.0000000000e+00 -4.5593999997e+01 4.5594000000e+01 5.1100000000e-04 0.0000e+00 1.0000e+00
       23  2    1    2    0    0 +0.0000000000e+00 +0.0000000000e+00 -8.8817841970e-16 9.1188000000e+01 9.1188000000e+01 6.7190e-14 0.0000e+00
 -9990012  2    3    3    0    0 +1.7155598605e+01 +7.0595067597e+00 -2.5551676646e+00 7.2461545958e+01 6.9999968298e+01 1.4503e-04 0.0000e+00
      -11  1    4    4    0    0 +8.8922965811e+00 +3.6751901364e+00 +1.7358004150e+01 1.9846417041e+01 5.1100000000e-04 0.0000e+00 -1.0000e+00
       11  1    4    4    0    0 +1.4289530056e+01 -1.5400438279e+01 +4.2369187848e+00 2.1431650648e+01 5.1100000000e-04 0.0000e+00 1.0000e+00
      -12  1    4    4    0    0 -6.0262280329e+00 +1.8784754903e+01 -2.4150090599e+01 3.1183478270e+01 0.0000000000e+00 0.0000e+00 1.0000e+00
       12  1    3    3    0    0 -1.7155598605e+01 -7.0595067597e+00 +2.5551676646e+00 1.8726454042e+01 0.0000000000e+00 0.0000e+00 -1.0000e+00
</event>
<event>
 9      4 +1.0086356e-04 9.11880000e+01 7.81616400e-03 1.18400000e-01
      -11 -1    0    0    0    0 +0.0000000000e+00 +0.0000000000e+00 +4.5593999997e+01 4.5594000000e+01 5.1100000000e-04 0.0000e+00 1.0000e+00
       11 -1    0    0    0    0 -0.0000000000e+00 -0.0000000000e+00 -4.5593999997e+01 4.5594000000e+01 5.1100000000e-04 0.0000e+00 -1.0000e+00
       23  2    1    2    0    0 +0.0000000000e+00 -1.3322676296e-15 +0.0000000000e+00 9.1188000000e+01 9.1188000000e+01 4.2691e-14 0.0000e+00
 -9990012  2    3    3    0    0 +1.1138012541e+01 -3.5989128032e+00 +1.4617538691e+01 7.2461549879e+01 6.9999973405e+01 6.7286e-04 0.0000e+00
      -24  2    4    4    0    0 +6.8422632215e+00 -1.1551178831e+01 +1.9855346391e+01 6.2015180799e+01 5.7196167449e+01 2.7687e-13 0.0000e+00
      -11  1    4    4    0    0 +4.2957493197e+00 +7.9522660278e+00 -5.2378077000e+00 1.0446369080e+01 5.1100000000e-04 0.0000e+00 1.0000e+00
       11  1    5    5    0    0 -4.2588136969e+00 +1.0123397171e+01 -1.5553748702e+01 1.9040476973e+01 5.1100000000e-04 0.0000e+00 -1.0000e+00
      -12  1    5    5    0    0 +1.1101076918e+01 -2.1674576002e+01 +3.5409095094e+01 4.2974703826e+01 0.0000000000e+00 0.0000e+00 1.0000e+00
       12  1    3    3    0    0 -1.1138012541e+01 +3.5989128032e+00 -1.4617538691e+01 1.8726450121e+01 0.0000000000e+00 0.0000e+00 -1.0000e+00
</event>
<event>
 9      2 +1.0086356e-04 9.11880000e+01 7.81616400e-03 1.18400000e-01
      -11 -1    0    0    0    0 +0.0000000000e+00 +0.0000000000e+00 +4.5593999997e+01 4.5594000000e+01 5.1100000000e-04 0.0000e+00 1.0000e+00
       11 -1    0    0    0    0 -0.0000000000e+00 -0.0000000000e+00 -4.5593999997e+01 4.5594000000e+01 5.1100000000e-04 0.0000e+00 -1.0000e+00
       23  2    1    2    0    0 +0.0000000000e+00 +0.0000000000e+00 -8.8817841970e-16 9.1188000000e+01 9.1188000000e+01 9.5817e-15 0.0000e+00
 -9990012  2    3    3    0    0 +1.6679037809e+01 +4.6789008898e+00 +7.1132485743e+00 7.2461528868e+01 6.9999946035e+01 4.7278e-04 0.0000e+00
       23  2    4    4    0    0 +2.0939873450e+01 +3.3035793886e+00 +2.2660846774e-01 6.4247392179e+01 6.0648859128e+01 1.8367e-13 0.0000e+00
      -11  1    5    5    0    0 -8.1238287054e+00 -2.1323721966e+01 +1.0007999492e+01 2.4917017586e+01 5.1100000000e-04 0.0000e+00 -1.0000e+00
       11  1    5    5    0    0 +2.9063702155e+01 +2.4627301354e+01 -9.7813910240e+00 3.9330374593e+01 5.1100000000e-04 0.0000e+00 1.0000e+00
      -12  1    4    4    0    0 -4.2608356408e+00 +1.3753215012e+00 +6.8866401065e+00 8.2141366891e+00 0.0000000000e+00 0.0000e+00 1.0000e+00
       12  1    3    3    0    0 -1.6679037809e+01 -4.6789008898e+00 -7.1132485743e+00 1.8726471132e+01 0.0000000000e+00 0.0000e+00 -1.0000e+00
</event>
<event>
 8      4 +1.0086356e-04 9.11880000e+01 7.81616400e-03 1.18400000e-01
      -11 -1    0    0    0    0 +0.0000000000e+00 +0.0000000000e+00 +4.5593999997e+01 4.5594000000e+01 5.1100000000e-04 0.0000e+00 1.0000e+00
       11 -1    0    0    0    0 -0.0000000000e+00 -0.0000000000e+00 -4.5593999997e+01 4.5594000000e+01 5.1100000000e-04 0.0000e+00 -1.0000e+00
       23  2    1    2    0    0 +0.0000000000e+00 +0.0000000000e+00 +3.5527136788e-15 9.1188000000e+01 9.1188000000e+01 4.4781e-14 0.0000e+00
 -9990012  2    3    3    0    0 +4.0875891548e+00 -1.7497766649e+01 +5.2724775074e+00 7.2461568363e+01 6.9999997484e+01 5.6020e-07 0.0000e+00
      -11  1    4    4    0    0 +7.5519770971e+00 -3.6416549037e+00 -1.9598016144e+01 2.1316102964e+01 5.1100000000e-04 0.0000e+00 1.0000e+00
       11  1    4    4    0    0 +9.4940049216e+00 +6.1779315699e-02 -8.4958808150e+00 1.2740484183e+01 5.1100000000e-04 0.0000e+00 -1.0000e+00
      -12  1    4    4    0    0 -1.2958392864e+01 -1.3917891061e+01 +3.3366374466e+01 3.8404981216e+01 0.0000000000e+00 0.0000e+00 1.0000e+00
       12  1    3    3    0    0 -4.0875891548e+00 +1.7497766649e+01 -5.2724775074e+00 1.8726431637e+01 0.0000000000e+00 0.0000e+00 -1.0000e+00
</event>
<event>
 9      4 +1.0086356e-04 9.11880000e+01 7.81616400e-03 1.18400000e-01
      -11 -1    0    0    0    0 +0.0000000000e+00 +0.0000000000e+00 +4.5593999997e+01 4.5594000000e+01 5.1100000000e-04 0.0000e+00 1.0000e+00
       11 -1    0    0    0    0 -0.0000000000e+00 -0.0000000000e+00 -4.5593999997e+01 4.5594000000e+01 5.1100000000e-04 0.0000e+00 -1.0000e+00
       23  2    1    2    0    0 +0.0000000000e+00 +0.0000000000e+00 -1.7763568394e-15 9.1188000000e+01 9.1188000000e+01 3.8175e-14 0.0000e+00
 -9990012  2    3    3    0    0 +1.3500887892e+01 -5.8144158450e+00 -1.1601729523e+01 7.2461507178e+01 6.9999917779e+01 9.4203e-05 0.0000e+00
      -24  2    4    4    0    0 +1.8272563644e+01 -3.5040951357e+00 -1.4006134946e+01 6.6640198308e+01 6.2438601438e+01 2.3954e-14 0.0000e+00
      -11  1    4    4    0    0 -4.7716757519e+00 -2.3103207093e+00 +2.4044054228e+00 5.8213088700e+00 5.1100000000e-04 0.0000e+00 1.0000e+00
       11  1    5    5    0    0 -8.5007637235e+00 -2.4276837458e+01 -1.9542828658e+01 3.2304024101e+01 5.1100000000e-04 0.0000e+00 -1.0000e+00
      -12  1    5    5    0    0 +2.6773327367e+01 +2.0772742322e+01 +5.5366937124e+00 3.4336174207e+01 0.0000000000e+00 0.0000e+00 1.0000e+00
       12  1    3    3    0    0 -1.3500887892e+01 +5.8144158450e+00 +1.1601729523e+01 1.8726492822e+01 0.0000000000e+00 0.0000e+00 -1.0000e+00
</event>
<event>
 9      3 +1.0086356e-04 9.11880000e+01 7.81616400e-03 1.18400000e-01
      -11 -1    0    0    0    0 +0.0000000000e+00 +0.0000000000e+00 +4.5593999997e+01 4.5594000000e+01 5.1100000000e-04 0.0000e+00 1.0000e+00
       11 -1    0    0    0    0 -0.0000000000e+00 -0.0000000000e+00 -4.5593999997e+01 4.5594000000e+01 5.1100000000e-04 0.0000e+00 -1.0000e+00
       23  2    1    2    0    0 +0.0000000000e+00 +0.0000000000e+00 +8.8817841970e-16 9.1188000000e+01 9.1188000000e+01 2.7347e-14 0.0000e+00
  9990012  2    3    3    0    0 -1.6363468977e+01 -6.2899987572e+00 -6.5841298041e+00 7.2461602412e+01 7.0000041840e+01 1.0030e-04 0.0000e+00
       23  2    4    4    0    0 -1.6787677200e+01 -4.2086314529e+00 -1.3056381139e+01 6.5649695204e+01 6.1966722582e+01 1.4676e-13 0.0000e+00
      -11  1    5    5    0    0 -2.1002931360e+01 +1.1202181273e+01 -3.2625980996e+01 4.0386465891e+01 5.1100000000e-04 0.0000e+00 -1.0000e+00
       11  1    5    5    0    0 +4.2152541605e+00 -1.5410812726e+01 +1.9569599857e+01 2.5263229313e+01 5.1100000000e-04 0.0000e+00 1.0000e+00
       12  1    4    4    0    0 +4.2420822266e-01 -2.0813673043e+00 +6.4722513347e+00 6.8119072081e+00 0.0000000000e+00 0.0000e+00 -1.0000e+00
      -12  1    3    3    0    0 +1.6363468977e+01 +6.2899987572e+00 +6.5841298041e+00 1.8726397588e+01 0.0000000000e+00 0.0000e+00 1.0000e+00
</event>
<event>
 9      4 +1.0086356e-04 9.11880000e+01 7.81616400e-03 1.18400000e-01
      -11 -1    0    0    0    0 +0.0000000000e+00 +0.0000000000e+00 +4.5593999997e+01 4.5594000000e+01 5.1100000000e-04 0.0000e+00 1.0000e+00
       11 -1    0    0    0    0 -0.0000000000e+00 -0.0000000000e+00 -4.5593999997e+01 4.5594000000e+01 5.1100000000e-04 0.0000e+00 -1.0000e+00
       23  2    1    2    0    0 +0.0000000000e+00 +0.0000000000e+00 +0.0000000000e+00 9.1188000000e+01 9.1188000000e+01 6.7475e-14 0.0000e+00
 -9990012  2    3    3    0    0 -2.2370455846e-01 +1.8120839285e+01 +4.7180147850e+00 7.2461694341e+01 7.0000161593e+01 5.5995e-05 0.0000e+00
      -24  2    4    4    0    0 -4.3295481657e+00 +4.2134506007e+00 +1.3772436661e+01 5.5366198808e+01 5.3284498736e+01 2.1210e-13 0.0000e+00
      -11  1    4    4    0    0 +4.1058436073e+00 +1.3907388685e+01 -9.0544218757e+00 1.7095495533e+01 5.1100000000e-04 0.0000e+00 1.0000e+00
       11  1    5    5    0    0 -1.8323170710e+01 -6.5847543993e+00 -1.2909069211e+01 2.3361113919e+01 5.1100000000e-04 0.0000e+00 -1.0000e+00
      -12  1    5    5    0    0 +1.3993622544e+01 +1.0798205000e+01 +2.6681505872e+01 3.2005084889e+01 0.0000000000e+00 0.0000e+00 1.0000e+00
       12  1    3    3    0    0 +2.2370455846e-01 -1.8120839285e+01 -4.7180147850e+00 1.8726305659e+01 0.0000000000e+00 0.0000e+00 -1.0000e+00
</event>
<event>
 9      4 +1.0086356e-04 9.11880000e+01 7.81616400e-03 1.18400000e-01
      -11 -1    0    0    0    0 +0.0000000000e+00 +0.0000000000e+00 +4.5593999997e+01 4.5594000000e+01 5.1100000000e-04 0.0000e+00 1.0000e+00
       11 -1    0    0    0    0 -0.0000000000e+00 -0.0000000000e+00 -4.5593999997e+01 4.5594000000e+01 5.1100000000e-04 0.0000e+00 -1.0000e+00
       23  2    1    2    0    0 +4.4408920985e-16 +0.0000000000e+00 +1.7763568394e-15 9.1188000000e+01 9.1188000000e+01 9.2984e-14 0.0000e+00
 -9990012  2    3    3    0    0 -3.1491981910e+00 +1.8346898404e+01 -2.0380248820e+00 7.2461556779e+01 6.9999982393e+01 1.5263e-05 0.0000e+00
      -24  2    4    4    0    0 -1.5143688123e+01 +2.5275467868e+01 -3.5750582889e+00 5.8524723010e+01 5.0439881005e+01 2.6481e-13 0.0000e+00
      -11  1    4    4    0    0 +1.1994489932e+01 -6.9285694637e+00 +1.5370334069e+00 1.3936833768e+01 5.1100000000e-04 0.0000e+00 1.0000e+00
       11  1    5    5    0    0 -1.9130784176e+00 +1.2205833700e+01 -2.6361084694e+01 2.9112695372e+01 5.1100000000e-04 0.0000e+00 -1.0000e+00
      -12  1    5    5    0    0 -1.3230609705e+01 +1.3069634168e+01 +2.2786026405e+01 2.9412027638e+01 0.0000000000e+00 0.0000e+00 1.0000e+00
       12  1    3    3    0    0 +3.1491981910e+00 -1.8346898404e+01 +2.0380248820e+00 1.8726443221e+01 0.0000000000e+00 0.0000e+00 -1.0000e+00
</event>
<event>
 9      4 +1.0086356e-04 9.11880000e+01 7.81616400e-03 1.18400000e-01
      -11 -1    0    0    0    0 +0.0000000000e+00 +0.0000000000e+00 +4.5593999997e+01 4.5594000000e+01 5.1100000000e-04 0.0000e+00 1.0000e+00
       11 -1    0    0    0    0 -0.0000000000e+00 -0.0000000000e+00 -4.5593999997e+01 4.5594000000e+01 5.1100000000e-04 0.0000e+00 -1.0000e+00
       23  2    1    2    0    0 +0.0000000000e+00 +1.7763568394e-15 -3.5527136788e-15 9.1188000000e+01 9.1188000000e+01 1.5170e-13 0.0000e+00
 -9990012  2    3    3    0    0 -2.6960386692e+00 -1.0312125885e+01 +1.5397051017e+01 7.2461608335e+01 7.0000049555e+01 1.8090e-05 0.0000e+00
       23  2    4    4    0    0 -6.2981654531e+00 -1.3711697946e+01 +2.3339940279e+01 6.3100951446e+01 5.6650681483e+01 2.1230e-14 0.0000e+00
      -11  1    5    5    0    0 -4.1696451555e+00 -2.7788942654e+01 +3.4868083090e+01 4.4781631203e+01 5.1100000000e-04 0.0000e+00 1.0000e+00
       11  1    5    5    0    0 -2.1285202976e+00 +1.4077244709e+01 -1.1528142810e+01 1.8319320243e+01 5.1100000000e-04 0.0000e+00 -1.0000e+00
      -12  1    4    4    0    0 +3.6021267839e+00 +3.3995720609e+00 -7.9428892628e+00 9.3606568896e+00 0.0000000000e+00 0.0000e+00 1.0000e+00
       12  1    3    3    0    0 +2.6960386692e+00 +1.0312125885e+01 -1.5397051017e+01 1.8726391665e+01 0.0000000000e+00 0.0000e+00 -1.0000e+00
</event>
<event>
 8      4 +1.0086356e-04 9.11880000e+01 7.81616400e-03 1.18400000e-01
      -11 -1    0    0    0    0 +0.0000000000e+00 +0.0000000000e+00 +4.5593999997e+01 4.5594000000e+01 5.1100000000e-04 0.0000e+00 -1.0000e+00
       11 -1    0    0    0    0 -0.0000000000e+00 -0.0000000000e+00 -4.5593999997e+01 4.5594000000e+01 5.1100000000e-04 0.0000e+00 1.0000e+00
       23  2    1    2    0    0 +1.7763568394e-15 +1.7763568394e-15 +0.0000000000e+00 9.1188000000e+01 9.1188000000e+01 8.5534e-14 0.0000e+00
 -9990012  2    3    3    0    0 +1.2928350776e+01 -1.0862040503e+01 -8.0965681053e+00 7.2461532293e+01 6.9999950497e+01 5.7742e-06 0.0000e+00
      -11  1    4    4    0    0 +1.7942775749e+00 -9.0777303249e+00 -2.1009865395e+01 2.2957331379e+01 5.1100000000e-04 0.0000e+00 1.0000e+00
       11  1    4    4    0    0 -1.2019878890e+01 -1.4091432516e+01 -3.1007860430e+00 1.8779266046e+01 5.1100000000e-04 0.0000e+00 -1.0000e+00
      -12  1    4    4    0    0 +2.3153952091e+01 +1.2307122338e+01 +1.6014083333e+01 3.0724934868e+01 0.0000000000e+00 0.0000e+00 1.0000e+00
       12  1    3    3    0    0 -1.2928350776e+01 +1.0862040503e+01 +8.0965681053e+00 1.8726467707e+01 0.0000000000e+00 0.0000e+00 -1.0000e+00
</event>
<event>
 9      3 +1.0086356e-04 9.11880000e+01 7.81616400e-03 1.18400000e-01
      -11 -1    0    0    0    0 +0.0000000000e+00 +0.0000000000e+00 +4.5593999997e+01 4.5594000000e+01 5.1100000000e-04 0.0000e+00 1.0000e+00
       11 -1    0    0    0    0 -0.0000000000e+00 -0.0000000000e+00 -4.5593999997e+01 4.5594000000e+01 5.1100000000e-04 0.0000e+00 -1.0000e+00
       23  2    1    2    0    0 +0.0000000000e+00 +0.0000000000e+00 +1.7763568394e-15 9.1188000000e+01 9.1188000000e+01 8.4954e-14 0.0000e+00
  9990012  2    3    3    0    0 -1.5714364338e+01 +9.2038537719e+00 +4.3616352534e+00 7.2461654043e+01 7.0000109098e+01 4.3412e-04 0.0000e+00
       24  2    4    4    0    0 -7.8398769380e+00 +1.3734143265e+01 +1.4943996034e+01 5.8514703313e+01 5.4319030963e+01 4.0040e-14 0.0000e+00
      -11  1    5    5    0    0 -2.5669920100e+00 +2.4259085069e+01 -1.3393420436e+01 2.7829415509e+01 5.1100000000e-04 0.0000e+00 1.0000e+00
       11  1    4    4    0    0 -7.8744874004e+00 -4.5302894929e+00 -1.0582360781e+01 1.3946950730e+01 5.1100000000e-04 0.0000e+00 -1.0000e+00
       12  1    5    5    0    0 -5.2728849279e+00 -1.0524941804e+01 +2.8337416470e+01 3.0685287804e+01 0.0000000000e+00 0.0000e+00 -1.0000e+00
      -12  1    3    3    0    0 +1.5714364338e+01 -9.2038537719e+00 -4.3616352534e+00 1.8726345957e+01 0.0000000000e+00 0.0000e+00 1.0000e+00
</event>
<event>
 9      3 +1.0086356e-04 9.11880000e+01 7.81616400e-03 1.18400000e-01
      -11 -1    0    0    0    0 +0.0000000000e+00 +0.0000000000e+00 +4.5593999997e+01 4.5594000000e+01 5.1100000000e-04 0.0000e+00 1.0000e+00
       11 -1    0    0    0    0 -0.0000000000e+00 -0.0000000000e+00 -4.5593999997e+01 4.5594000000e+01 5.1100000000e-04 0.0000e+00 -1.0000e+00
       23  2    1    2    0    0 +0.0000000000e+00 -3.5527136788e-15 +8.8817841970e-16 9.1188000000e+01 9.1188000000e+01 1.1310e-13 0.0000e+00
  9990012  2    3    3    0    0 -1.7772877024e+01 -4.4706162061e+00 -3.8499914484e+00 7.2461441289e+01 6.9999831947e+01 5.2368e-05 0.0000e+00
       24  2    4    4    0    0 -2.0813346504e+01 -1.0920324764e-01 -4.4075174682e+00 6.7115675379e+01 6.3654382043e+01 7.3231e-14 0.0000e+00
      -11  1    5    5    0    0 -2.4780235880e+01 +1.6092561270e+01 +2.1332722109e+01 3.6443321079e+01 5.1100000000e-04 0.0000e+00 1.0000e+00
       11  1    4    4    0    0 +3.0404694793e+00 -4.3614129585e+00 +5.5752601986e-01 5.3457659108e+00 5.1100000000e-04 0.0000e+00 -1.0000e+00
       12  1    5    5    0    0 +3.9668893760e+00 -1.6201764517e+01 -2.5740239577e+01 3.0672354299e+01 0.0000000000e+00 0.0000e+00 -1.0000e+00
      -12  1    3    3    0    0 +1.7772877024e+01 +4.4706162061e+00 +3.8499914484e+00 1.8726558711e+01 0.0000000000e+00 0.0000e+00 1.0000e+00
</event>
<event>
 9      3 +1.0086356e-04 9.11880000e+01 7.81616400e-03 1.18400000e-01
      -11 -1    0    0    0    0 +0.0000000000e+00 +0.0000000000e+00 +4.5593999997e+01 4.5594000000e+01 5.1100000000e-04 0.0000e+00 1.0000e+00
       11 -1    0    0    0    0 -0.0000000000e+00 -0.0000000000e+00 -4.5593999997e+01 4.5594000000e+01 5.1100000000e-04 0.0000e+00 -1.0000e+00
       23  2    1    2    0    0 -1.7763568394e-15 +8.8817841970e-16 +1.7763568394e-15 9.1188000000e+01 9.1188000000e+01 8.1256e-14 0.0000e+00
  9990012  2    3    3    0    0 -9.9266846221e+00 +4.9800352672e+00 -1.5077522160e+01 7.2461775251e+01 7.0000266994e+01 9.8732e-05 0.0000e+00
       24  2    4    4    0    0 -1.2835123079e+01 +3.5372661843e-01 -2.1517120720e+01 6.4016055871e+01 5.8908432489e+01 1.2824e-13 0.0000e+00
      -11  1    5    5    0    0 +2.2822663426e+01 +1.1249880983e+00 -1.0056547193e+00 2.2872492338e+01 5.1100000000e-04 0.0000e+00 1.0000e+00
       11  1    4    4    0    0 +2.9084384572e+00 +4.6263086487e+00 +6.4395985599e+00 8.4457193800e+00 5.1100000000e-04 0.0000e+00 -1.0000e+00
       12  1    5    5    0    0 -3.5657786505e+01 -7.7126147989e-01 -2.0511466001e+01 4.1143563533e+01 0.0000000000e+00 0.0000e+00 -1.0000e+00
      -12  1    3    3    0    0 +9.9266846221e+00 -4.9800352672e+00 +1.5077522160e+01 1.8726224749e+01 0.0000000000e+00 0.0000e+00 1.0000e+00
</event>
<event>
 9      4 +1.0086356e-04 9.11880000e+01 7.81616400e-03 1.18400000e-01
      -11 -1    0    0    0    0 +0.0000000000e+00 +0.0000000000e+00 +4.5593999997e+01 4.5594000000e+01 5.1100000000e-04 0.0000e+00 1.0000e+00
       11 -1    0    0    0    0 -0.0000000000e+00 -0.0000000000e+00 -4.5593999997e+01 4.5594000000e+01 5.1100000000e-04 0.0000e+00 -1.0000e+00
       23  2    1    2    0    0 +0.0000000000e+00 -1.7763568394e-15 +1.7763568394e-15 9.1188000000e+01 9.1188000000e+01 1.6951e-13 0.0000e+00
 -9990012  2    3    3    0    0 +8.2298414472e+00 -9.6378778263e+00 +1.3786221350e+01 7.2461578069e+01 7.0000010128e+01 6.5806e-04 0.0000e+00
      -24  2    4    4    0    0 +4.3069744217e+00 -9.3700146219e+00 +1.3406608326e+01 6.8511294192e+01 6.6390609896e+01 1.9121e-14 0.0000e+00
      -11  1    4    4    0    0 +3.9228670255e+00 -2.6786320436e-01 +3.7961302402e-01 3.9502838765e+00 5.1100000000e-04 0.0000e+00 1.0000e+00
       11  1    5    5    0    0 +8.9306784013e+00 +9.3495089554e+00 -2.3527908875e+01 2.6846467751e+01 5.1100000000e-04 0.0000e+00 -1.0000e+00
      -12  1    5    5    0    0 -4.6237039796e+00 -1.8719523577e+01 +3.6934517201e+01 4.1664826441e+01 0.0000000000e+00 0.0000e+00 1.0000e+00
       12  1    3    3    0    0 -8.2298414472e+00 +9.6378778263e+00 -1.3786221350e+01 1.8726421931e+01 0.0000000000e+00 0.0000e+00 -1.0000e+00
</event>
<event>
 8      4 +1.0086356e-04 9.11880000e+01 7.81616400e-03 1.18400000e-01
      -11 -1    0    0    0    0 +0.0000000000e+00 +0.0000000000e+00 +4.5593999997e+01 4.5594000000e+01 5.1100000000e-04 0.0000e+00 -1.0000e+00
       11 -1    0    0    0    0 -0.0000000000e+00 -0.0000000000e+00 -4.5593999997e+01 4.5594000000e+01 5.1100000000e-04 0.0000e+00 1.0000e+00
       23  2    1    2    0    0 +1.7763568394e-15 +1.7763568394e-15 -5.3290705182e-15 9.1188000000e+01 9.1188000000e+01 2.8243e-14 0.0000e+00
 -9990012  2    3    3    0    0 -1.0107539890e+01 -1.5535713690e+01 -2.6753914059e+00 7.2461588660e+01 7.0000023925e+01 8.5518e-05 0.0000e+00
      -11  1    4    4    0    0 +3.9019642525e+00 -2.2952306273e+00 -1.8687426147e+01 1.9227930334e+01 5.1100000000e-04 0.0000e+00 1.0000e+00
       11  1    4    4    0    0 -2.7534711052e+01 +3.0516679570e+00 +1.8610932669e+00 2.7765746135e+01 5.1100000000e-04 0.0000e+00 -1.0000e+00
      -12  1    4    4    0    0 +1.3525206909e+01 -1.6292151020e+01 +1.4150941474e+01 2.5467912191e+01 0.0000000000e+00 0.0000e+00 1.0000e+00
       12  1    3    3    0    0 +1.0107539890e+01 +1.5535713690e+01 +2.6753914059e+00 1.8726411340e+01 0.0000000000e+00 0.0000e+00 -1.0000e+00
</event>
<event>
 9      3 +1.0086356e-04 9.11880000e+01 7.81616400e-03 1.18400000e-01
      -11 -1    0    0    0    0 +0.0000000000e+00 +0.0000000000e+00 +4.5593999997e+01 4.5594000000e+01 5.1100000000e-04 0.0000e+00 1.0000e+00
       11 -1    0    0    0    0 -0.0000000000e+00 -0.0000000000e+00 -4.5593999997e+01 4.5594000000e+01 5.1100000000e-04 0.0000e+00 -1.0000e+00
       23  2    1    2    0    0 +4.4408920985e-16 -8.8817841970e-16 +0.0000000000e+00 9.1188000000e+01 9.1188000000e+01 1.8536e-13 0.0000e+00
  9990012  2    3    3    0    0 -2.0863694823e+00 +4.5644575766e+00 -1.8041377975e+01 7.2461587374e+01 7.0000022250e+01 1.4698e-04 0.0000e+00
       24  2    4    4    0    0 -6.5532118422e+00 +1.7366937069e+01 -1.5348906693e+01 5.8637493780e+01 5.3462245104e+01 1.6723e-14 0.0000e+00
      -11  1    5    5    0    0 -1.3333258812e+01 -1.5742597903e+01 +1.8562092211e+00 2.0713538863e+01 5.1100000000e-04 0.0000e+00 1.0000e+00
       11  1    4    4    0    0 +4.4668423599e+00 -1.2802479492e+01 -2.6924712823e+00 1.3824093594e+01 5.1100000000e-04 0.0000e+00 -1.0000e+00
       12  1    5    5    0    0 +6.7800469696e+00 +3.3109534972e+01 -1.7205115914e+01 3.7923954918e+01 0.0000000000e+00 0.0000e+00 -1.0000e+00
      -12  1    3    3    0    0 +2.0863694823e+00 -4.5644575766e+00 +1.8041377975e+01 1.8726412626e+01 0.0000000000e+00 0.0000e+00 1.0000e+00
</event>
<event>
 9      3 +1.0086356e-04 9.11880000e+01 7.81616400e-03 1.18400000e-01
      -11 -1    0    0    0    0 +0.0000000000e+00 +0.0000000000e+00 +4.5593999997e+01 4.5594000000e+01 5.1100000000e-04 0.0000e+00 -1.0000e+00
       11 -1    0    0    0    0 -0.0000000000e+00 -0.0000000000e+00 -4.5593999997e+01 4.5594000000e+01 5.1100000000e-04 0.0000e+00 1.0000e+00
       23  2    1    2    0    0 -1.3322676296e-15 +0.0000000000e+00 -1.3322676296e-15 9.1188000000e+01 9.1188000000e+01 9.8489e-14 0.0000e+00
  9990012  2    3    3    0    0 +3.4013143936e+00 +1.8395273428e+01 +8.5104910934e-01 7.2461566579e+01 6.9999995160e+01 3.6419e-04 0.0000e+00
       23  2    4    4    0    0 -4.3462383978e+00 +1.0200744158e+01 -3.8735057025e+00 6.0234698526e+01 5.9078506163e+01 1.5620e-13 0.0000e+00
      -11  1    5    5    0    0 +3.7375460217e+00 +2.3909547753e+01 -2.4330442257e+01 3.4316266474e+01 5.1100000000e-04 0.0000e+00 1.0000e+00
       11  1    5    5    0    0 -8.0837844195e+00 -1.3708803595e+01 +2.0456936555e+01 2.5918432052e+01 5.1100000000e-04 0.0000e+00 -1.0000e+00
       12  1    4    4    0    0 +7.7475527914e+00 +8.1945292701e+00 +4.7245548119e+00 1.2226868053e+01 0.0000000000e+00 0.0000e+00 -1.0000e+00
      -12  1    3    3    0    0 -3.4013143936e+00 -1.8395273428e+01 -8.5104910934e-01 1.8726433421e+01 0.0000000000e+00 0.0000e+00 1.0000e+00
</event>
<event>
 9      4 +1.0086356e-04 9.11880000e+01 7.81616400e-03 1.18400000e-01
      -11 -1    0    0    0    0 +0.0000000000e+00 +0.0000000000e+00 +4.5593999997e+01 4.5594000000e+01 5.1100000000e-04 0.0000e+00 1.0000e+00
       11 -1    0    0    0    0 -0.0000000000e+00 -0.0000000000e+00 -4.5593999997e+01 4.5594000000e+01 5.1100000000e-04 0.0000e+00 -1.0000e+00
       23  2    1    2    0    0 +0.0000000000e+00 -1.3322676296e-15 +8.8817841970e-16 9.1188000000e+01 9.1188000000e+01 1.6511e-13 0.0000e+00
 -9990012  2    3    3    0    0 -1.7515826838e+01 -3.3308543300e+00 -5.7254095183e+00 7.2461572296e+01 7.0000002608e+01 2.4494e-05 0.0000e+00
      -24  2    4    4    0    0 -1.0278312636e+01 -8.1929327888e+00 -5.9456217825e+00 6.3739765576e+01 6.2085742639e+01 5.9932e-14 0.0000e+00
      -11  1    4    4    0    0 -7.2375142022e+00 +4.8620784588e+00 +2.2021226418e-01 8.7218067204e+00 5.1100000000e-04 0.0000e+00 1.0000e+00
       11  1    5    5    0    0 -2.4525698740e+01 -6.0327724786e-02 -2.7373206406e+01 3.6753312331e+01 5.1100000000e-04 0.0000e+00 -1.0000e+00
      -12  1    5    5    0    0 +1.4247386104e+01 -8.1326050640e+00 +2.1427584624e+01 2.6986453245e+01 0.0000000000e+00 0.0000e+00 1.0000e+00
       12  1    3    3    0    0 +1.7515826838e+01 +3.3308543300e+00 +5.7254095183e+00 1.8726427704e+01 0.0000000000e+00 0.0000e+00 -1.0000e+00
</event>
<event>
 8      3 +1.0086356e-04 9.11880000e+01 7.81616400e-03 1.18400000e-01
      -11 -1    0    0    0    0 +0.0000000000e+00 +0.0000000000e+00 +4.5593999997e+01 4.5594000000e+01 5.1100000000e-04 0.0000e+00 -1.0000e+00
       11 -1    0    0    0    0 -0.0000000000e+00 -0.0000000000e+00 -4.5593999997e+01 4.5594000000e+01 5.1100000000e-04 0.0000e+00 1.0000e+00
       23  2    1    2    0    0 +4.4408920985e-16 -3.5527136788e-15 +0.0000000000e+00 9.1188000000e+01 9.1188000000e+01 2.6414e-14 0.0000e+00
  9990012  2    3    3    0    0 -2.6930463467e+00 -1.4969927371e+01 +1.0923736015e+01 7.2461568609e+01 6.9999997804e+01 5.2562e-05 0.0000e+00
      -11  1    4    4    0    0 +7.0611734342e+00 +6.8731902657e+00 -9.4880094837e+00 1.3679299650e+01 5.1100000000e-04 0.0000e+00 -1.0000e+00
       11  1    4    4    0    0 -2.4319157990e+01 -1.4092959099e+00 -2.8993968046e+00 2.4531898874e+01 5.1100000000e-04 0.0000e+00 1.0000e+00
       12  1    4    4    0    0 +1.4564938209e+01 -2.0433821727e+01 +2.3311142303e+01 3.4250370084e+01 0.0000000000e+00 0.0000e+00 -1.0000e+00
      -12  1    3    3    0    0 +2.6930463467e+00 +1.4969927371e+01 -1.0923736015e+01 1.8726431391e+01 0.0000000000e+00 0.0000e+00 1.0000e+00
</event>
<event>
 8      4 +1.0086356e-04 9.11880000e+01 7.81616400e-03 1.18400000e-01
      -11 -1    0    0    0    0 +0.0000000000e+00 +0.0000000000e+00 +4.5593999997e+01 4.5594000000e+01 5.1100000000e-04 0.0000e+00 -1.0000e+00
       11 -1    0    0    0    0 -0.0000000000e+00 -0.0000000000e+00 -4.5593999997e+01 4.5594000000e+01 5.1100000000e-04 0.0000e+00 1.0000e+00
       23  2    1    2    0    0 -1.7763568394e-15 +1.7763568394e-15 +1.7763568394e-15 9.1188000000e+01 9.1188000000e+01 1.7000e-13 0.0000e+00
 -9990012  2    3    3    0    0 +1.0618247064e+01 +9.5623696161e+00 -1.2102930131e+01 7.2461895195e+01 7.0000423243e+01 2.3963e-04 0.0000e+00
      -11  1    4    4    0    0 +3.9108791094e+00 +2.2925807005e+01 +2.5609829085e+00 2.3397569018e+01 5.1100000000e-04 0.0000e+00 1.0000e+00
       11  1    4    4    0    0 +2.4886424759e+01 -1.3012859677e+00 -9.2872381000e+00 2.6594741477e+01 5.1100000000e-04 0.0000e+00 -1.0000e+00
      -12  1    4    4    0    0 -1.8179056804e+01 -1.2062151422e+01 -5.3766749398e+00 2.2469584700e+01 0.0000000000e+00 0.0000e+00 1.0000e+00
       12  1    3    3    0    0 -1.0618247064e+01 -9.5623696161e+00 +1.2102930131e+01 1.8726104805e+01 0.0000000000e+00 0.0000e+00 -1.0000e+00
</event>
<event>
 8      4 +1.0086356e-04 9.11880000e+01 7.81616400e-03 1.18400000e-01
      -11 -1    0    0    0    0 +0.0000000000e+00 +0.0000000000e+00 +4.5593999997e+01 4.5594000000e+01 5.1100000000e-04 0.0000e+00 1.0000e+00
       11 -1    0    0    0    0 -0.0000000000e+00 -0.0000000000e+00 -4.5593999997e+01 4.5594000000e+01 5.1100000000e-04 0.0000e+00 -1.0000e+00
       23  2    1    2    0    0 -8.8817841970e-16 +1.3322676296e-15 -3.5527136788e-15 9.1188000000e+01 9.1188000000e+01 2.9073e-14 0.0000e+00
 -9990012  2    3    3    0    0 +6.6499154733e+00 -3.8867594596e+00 +1.7069038609e+01 7.2461538670e+01 6.9999958803e+01 3.5404e-04 0.0000e+00
      -11  1    4    4    0    0 -2.7029806048e+00 -1.2131704122e+01 -3.3657168305e+00 1.2876816342e+01 5.1100000000e-04 0.0000e+00 1.0000e+00
       11  1    4    4    0    0 -1.6347095009e+01 +1.6005374201e+01 -4.0691949278e+00 2.3236993484e+01 5.1100000000e-04 0.0000e+00 -1.0000e+00
      -12  1    4    4    0    0 +2.5699991088e+01 -7.7604295380e+00 +2.4503950368e+01 3.6347728844e+01 0.0000000000e+00 0.0000e+00 1.0000e+00
       12  1    3    3    0    0 -6.6499154733e+00 +3.8867594596e+00 -1.7069038609e+01 1.8726461330e+01 0.0000000000e+00 0.0000e+00 -1.0000e+00
</event>
<event>
 8      3 +1.0086356e-04 9.11880000e+01 7.81616400e-03 1.18400000e-01
      -11 -1    0    0    0    0 +0.0000000000e+00 +0.0000000000e+00 +4.5593999997e+01 4.5594000000e+01 5.1100000000e-04 0.0000e+00 1.0000e+00
       11 -1    0    0    0    0 -0.0000000000e+00 -0.0000000000e+00 -4.5593999997e+01 4.5594000000e+01 5.1100000000e-04 0.0000e+00 -1.0000e+00
       23  2    1    2    0    0 +2.8865798640e-15 -8.8817841970e-16 +3.5527136788e-15 9.1188000000e+01 9.1188000000e+01 2.0015e-13 0.0000e+00
  9990012  2    3    3    0    0 +1.5437459890e+00 +7.4912445864e+00 -1.7093239222e+01 7.2461528783e+01 6.9999945924e+01 1.4240e-04 0.0000e+00
      -11  1    4    4    0    0 -1.9548538679e+01 +1.4171374761e+01 +4.4235131089e-01 2.4148890286e+01 5.1100000000e-04 0.0000e+00 1.0000e+00
       11  1    4    4    0    0 +2.1612962616e+00 +3.0757418456e+00 -2.5350071267e+01 2.5627280443e+01 5.1100000000e-04 0.0000e+00 -1.0000e+00
       12  1    4    4    0    0 +1.8930988406e+01 -9.7558720197e+00 +7.8144807340e+00 2.2685358054e+01 0.0000000000e+00 0.0000e+00 -1.0000e+00
      -12  1    3    3    0    0 -1.5437459890e+00 -7.4912445864e+00 +1.7093239222e+01 1.8726471217e+01 0.0000000000e+00 0.0000e+00 1.0000e+00
</event>
<event>
 9      4 +1.0086356e-04 9.11880000e+01 7.81616400e-03 1.18400000e-01
      -11 -1    0    0    0    0 +0.0000000000e+00 +0.0000000000e+00 +4.5593999997e+01 4.5594000000e+01 5.1100000000e-04 0.0000e+00 1.0000e+00
       11 -1    0    0    0    0 -0.0000000000e+00 -0.0000000000e+00 -4.5593999997e+01 4.5594000000e+01 5.1100000000e-04 0.0000e+00 -1.0000e+00
       23  2    1    2    0    0 -3.5527136788e-15 +0.0000000000e+00 -3.5527136788e-15 9.1188000000e+01 9.1188000000e+01 1.3463e-13 0.0000e+00
 -9990012  2    3    3    0    0 +1.1896788573e+01 +7.1939797005e+00 +1.2545600435e+01 7.2461574485e+01 7.0000005459e+01 5.3624e-04 0.0000e+00
      -24  2    4    4    0    0 +1.0303692893e+01 -2.9882548575e+00 +9.2616739643e+00 6.1644919375e+01 5.9993514031e+01 1.5533e-13 0.0000e+00
      -11  1    4    4    0    0 +1.5930956807e+00 +1.0182234558e+01 +3.2839264704e+00 1.0816655110e+01 5.1100000000e-04 0.0000e+00 1.0000e+00
       11  1    5    5    0    0 -2.2918838765e+01 -3.1158056424e+00 -7.6545987113e+00 2.4363380242e+01 5.1100000000e-04 0.0000e+00 -1.0000e+00
      -12  1    5    5    0    0 +3.3222531657e+01 +1.2755078486e-01 +1.6916272676e+01 3.7281539133e+01 0.0000000000e+00 0.0000e+00 1.0000e+00
       12  1    3    3    0    0 -1.1896788573e+01 -7.1939797005e+00 -1.2545600435e+01 1.8726425515e+01 0.0000000000e+00 0.0000e+00 -1.0000e+00
</event>
<event>
 9      3 +1.0086356e-04 9.11880000e+01 7.81616400e-03 1.18400000e-01
      -11 -1    0    0    0    0 +0.0000000000e+00 +0.0000000000e+00 +4.5593999997e+01 4.5594000000e+01 5.1100000000e-04 0.0000e+00 1.0000e+00
       11 -1    0    0    0    0 -0.0000000000e+00 -0.0000000000e+00 -4.5593999997e+01 4.5594000000e+01 5.1100000000e-04 0.0000e+00 -1.0000e+00
       23  2    1    2    0    0 +0.0000000000e+00 -1.0547118734e-15 +0.0000000000e+00 9.1188000000e+01 9.1188000000e+01 2.3963e-14 0.0000e+00
  9990012  2    3    3    0    0 +1.5407556531e+01 +7.9937019516e-02 -1.0643330613e+01 7.2461556805e+01 6.9999982428e+01 4.9798e-05 0.0000e+00
       24  2    4    4    0    0 +2.1854822219e+01 -7.1138987525e+00 +1.3244621641e+00 5.7081486188e+01 5.2233141354e+01 1.6763e-14 0.0000e+00
      -11  1    5    5    0    0 -6.2093615057e+00 -2.0056022245e+01 +1.2243782887e+01 2.4304534932e+01 5.1100000000e-04 0.0000e+00 1.0000e+00
       11  1    4    4    0    0 -6.4472656875e+00 +7.1938357721e+00 -1.1967792778e+01 1.5380070617e+01 5.1100000000e-04 0.0000e+00 -1.0000e+00
       12  1    5    5    0    0 +2.8064183724e+01 +1.2942123492e+01 -1.0919320723e+01 3.2776951256e+01 0.0000000000e+00 0.0000e+00 -1.0000e+00
      -12  1    3    3    0    0 -1.5407556531e+01 -7.9937019516e-02 +1.0643330613e+01 1.8726443195e+01 0.0000000000e+00 0.0000e+00 1.0000e+00
</event>
<event>
 8      4 +1.0086356e-04 9.11880000e+01 7.81616400e-03 1.18400000e-01
      -11 -1    0    0    0    0 +0.0000000000e+00 +0.0000000000e+00 +4.5593999997e+01 4.5594000000e+01 5.1100000000e-04 0.0000e+00 1.0000e+00
       11 -1    0    0    0    0 -0.0000000000e+00 -0.0000000000e+00 -4.5593999997e+01 4.5594000000e+01 5.1100000000e-04 0.0000e+00 -1.0000e+00
       23  2    1    2    0    0 +0.0000000000e+00 +0.0000000000e+00 -1.7763568394e-15 9.1188000000e+01 9.1188000000e+01 3.7397e-14 0.0000e+00
 -9990012  2    3    3    0    0 +8.6900131021e+00 -1.3707789004e+01 +9.3412934548e+00 7.2461559588e+01 6.9999986053e+01 3.6049e-04 0.0000e+00
      -11  1    4    4    0    0 -1.8529815928e+01 +3.3469330674e+00 +2.8730114568e+01 3.4350771791e+01 5.1100000000e-04 0.0000e+00 1.0000e+00
       11  1    4    4    0    0 +1.3231433487e+01 -9.6477636151e+00 -6.2067182052e+00 1.7512096563e+01 5.1100000000e-04 0.0000e+00 -1.0000e+00
      -12  1    4    4    0    0 +1.3988395543e+01 -7.4069584568e+00 -1.3182102908e+01 2.0598691234e+01 0.0000000000e+00 0.0000e+00 1.0000e+00
       12  1    3    3    0    0 -8.6900131021e+00 +1.3707789004e+01 -9.3412934548e+00 1.8726440412e+01 0.0000000000e+00 0.0000e+00 -1.0000e+00
</event>
<event>
 9      4 +1.0086356e-04 9.11880000e+01 7.81616400e-03 1.18400000e-01
      -11 -1    0    0    0    0 +0.0000000000e+00 +0.0000000000e+00 +4.5593999997e+01 4.5594000000e+01 5.1100000000e-04 0.0000e+00 1.0000e+00
       11 -1    0    0    0    0 -0.0000000000e+00 -0.0000000000e+00 -4.5593999997e+01 4.5594000000e+01 5.1100000000e-04 0.0000e+00 -1.0000e+00
       23  2    1    2    0    0 +1.7763568394e-15 +0.0000000000e+00 -1.7763568394e-15 9.1188000000e+01 9.1188000000e+01 1.4711e-13 0.0000e+00
 -9990012  2    3    3    0    0 -1.3998072920e+01 -2.4260946861e+00 +1.2200218907e+01 7.2461619617e+01 7.0000064252e+01 2.1211e-04 0.0000e+00
      -24  2    4    4    0    0 +3.1665333700e+00 +2.3103315549e+00 +1.4676039169e+01 5.4484213551e+01 5.2323788425e+01 5.3588e-14 0.0000e+00
      -11  1    4    4    0    0 -1.7164606290e+01 -4.7364262409e+00 -2.4758202625e+00 1.7977406066e+01 5.1100000000e-04 0.0000e+00 1.0000e+00
       11  1    5    5    0    0 -2.3547543054e+00 -1.2984110436e+01 -1.5408318767e+01 2.0286652734e+01 5.1100000000e-04 0.0000e+00 -1.0000e+00
      -12  1    5    5    0    0 +5.5212876754e+00 +1.5294441991e+01 +3.0084357936e+01 3.4197560817e+01 0.0000000000e+00 0.0000e+00 1.0000e+00
       12  1    3    3    0    0 +1.3998072920e+01 +2.4260946861e+00 -1.2200218907e+01 1.8726380383e+01 0.0000000000e+00 0.0000e+00 -1.0000e+00
</event>
<event>
 9      3 +1.0086356e-04 9.11880000e+01 7.81616400e-03 1.18400000e-01
      -11 -1    0    0    0    0 +0.0000000000e+00 +0.0000000000e+00 +4.5593999997e+01 4.5594000000e+01 5.1100000000e-04 0.0000e+00 -1.0000e+00
       11 -1    0    0    0    0 -0.0000000000e+00 -0.0000000000e+00 -4.5593999997e+01 4.5594000000e+01 5.1100000000e-04 0.0000e+00 1.0000e+00
       23  2    1    2    0    0 +3.5527136788e-15 -3.5527136788e-15 -1.3322676296e-15 9.1188000000e+01 9.1188000000e+01 5.6233e-14 0.0000e+00
  9990012  2    3    3    0    0 -1.0738103731e+01 +1.4904804083e+01 +3.6352315466e+00 7.2461682559e+01 7.0000146245e+01 2.1396e-04 0.0000e+00
       24  2    4    4    0    0 -2.0257477704e+01 +1.3812540058e+01 -2.5466055881e+00 6.1058760470e+01 5.5861752250e+01 1.9405e-16 0.0000e+00
      -11  1    5    5    0    0 -1.1053550285e+00 +2.1493188032e+01 -2.3351336909e+01 3.1756320272e+01 5.1100000000e-04 0.0000e+00 1.0000e+00
       11  1    4    4    0    0 +9.5193739727e+00 +1.0922640257e+00 +6.1818371347e+00 1.1402922088e+01 5.1100000000e-04 0.0000e+00 -1.0000e+00
       12  1    5    5    0    0 -1.9152122675e+01 -7.6806479741e+00 +2.0804731321e+01 2.9302440199e+01 0.0000000000e+00 0.0000e+00 -1.0000e+00
      -12  1    3    3    0    0 +1.0738103731e+01 -1.4904804083e+01 -3.6352315466e+00 1.8726317441e+01 0.0000000000e+00 0.0000e+00 1.0000e+00
</event>
<event>
 8      3 +1.0086356e-04 9.11880000e+01 7.81616400e-03 1.18400000e-01
      -11 -1    0    0    0    0 +0.0000000000e+00 +0.0000000000e+00 +4.5593999997e+01 4.5594000000e+01 5.1100000000e-04 0.0000e+00 -1.0000e+00
       11 -1    0    0    0    0 -0.0000000000e+00 -0.0000000000e+00 -4.5593999997e+01 4.5594000000e+01 5.1100000000e-04 0.0000e+00 1.0000e+00
       23  2    1    2    0    0 +0.0000000000e+00 +0.0000000000e+00 +0.0000000000e+00 9.1188000000e+01 9.1188000000e+01 2.9067e-14 0.0000e+00
  9990012  2    3    3    0    0 +4.0149107439e+00 +1.6722612996e+01 +7.4104101782e+00 7.2461562199e+01 6.9999989455e+01 7.7986e-04 0.0000e+00
      -11  1    4    4    0    0 -3.6984323875e+00 +5.8361095693e+00 +1.3226834277e-01 6.9105768360e+00 5.1100000000e-04 0.0000e+00 1.0000e+00
       11  1    4    4    0    0 +9.9096638227e-01 +2.9703165107e+01 +2.5005036890e+01 3.8839566191e+01 5.1100000000e-04 0.0000e+00 -1.0000e+00
       12  1    4    4    0    0 +6.7223767492e+00 -1.8816661681e+01 -1.7726895054e+01 2.6711419173e+01 0.0000000000e+00 0.0000e+00 -1.0000e+00
      -12  1    3    3    0    0 -4.0149107439e+00 -1.6722612996e+01 -7.4104101782e+00 1.8726437801e+01 0.0000000000e+00 0.0000e+00 1.0000e+00
</event>
<event>
 9      4 +1.0086356e-04 9.11880000e+01 7.81616400e-03 1.18400000e-01
      -11 -1    0    0    0    0 +0.0000000000e+00 +0.0000000000e+00 +4.5593999997e+01 4.5594000000e+01 5.1100000000e-04 0.0000e+00 1.0000e+00
       11 -1    0    0    0    0 -0.0000000000e+00 -0.0000000000e+00 -4.5593999997e+01 4.5594000000e+01 5.1100000000e-04 0.0000e+00 -1.0000e+00
       23  2    1    2    0    0 +6.1062266354e-16 -7.1054273576e-15 -1.7763568394e-15 9.1188000000e+01 9.1188000000e+01 1.7148e-14 0.0000e+00
 -9990012  2    3    3    0    0 -3.9538916890e-01 +1.7389812702e+01 +6.9366820677e+00 7.2461562097e+01 6.9999989322e+01 3.6384e-05 0.0000e+00
      -24  2    4    4    0    0 -1.6318252249e+00 +2.1454505143e+01 +1.2078080515e+01 6.5791893664e+01 6.0989626974e+01 2.9000e-13 0.0000e+00
      -11  1    4    4    0    0 +1.2364360560e+00 -4.0646924407e+00 -5.1413984476e+00 6.6696684337e+00 5.1100000000e-04 0.0000e+00 1.0000e+00
       11  1    5    5    0    0 -7.2467874889e+00 -2.7456535239e+00 -2.2168206738e+01 2.3483695033e+01 5.1100000000e-04 0.0000e+00 -1.0000e+00
      -12  1    5    5    0    0 +5.6149622640e+00 +2.4200158667e+01 +3.4246287253e+01 4.2308198630e+01 0.0000000000e+00 0.0000e+00 1.0000e+00
       12  1    3    3    0    0 +3.9538916890e-01 -1.7389812702e+01 -6.9366820677e+00 1.8726437903e+01 0.0000000000e+00 0.0000e+00 -1.0000e+00
</event>
<event>
 8      4 +1.0086356e-04 9.11880000e+01 7.81616400e-03 1.18400000e-01
      -11 -1    0    0    0    0 +0.0000000000e+00 +0.0000000000e+00 +4.5593999997e+01 4.5594000000e+01 5.1100000000e-04 0.0000e+00 -1.0000e+00
       11 -1    0    0    0    0 -0.0000000000e+00 -0.0000000000e+00 -4.5593999997e+01 4.5594000000e+01 5.1100000000e-04 0.0000e+00 1.0000e+00
       23  2    1    2    0    0 +0.0000000000e+00 -1.7763568394e-15 -1.7763568394e-15 9.1188000000e+01 9.1188000000e+01 9.8193e-14 0.0000e+00
 -9990012  2    3    3    0    0 +1.5759211536e+01 -9.7822563472e+00 +2.5755631280e+00 7.2461579816e+01 7.0000012404e+01 1.9937e-04 0.0000e+00
      -11  1    4    4    0    0 -1.3997282140e+01 +1.7085789817e+00 -6.9490489405e+00 1.5720446268e+01 5.1100000000e-04 0.0000e+00 1.0000e+00
       11  1    4    4    0    0 -8.3716004897e-01 +7.6923270616e+00 +1.8049404266e+01 1.9638068316e+01 5.1100000000e-04 0.0000e+00 -1.0000e+00
      -12  1    4    4    0    0 +3.0593653725e+01 -1.9183162391e+01 -8.5247921979e+00 3.7103065231e+01 0.0000000000e+00 0.0000e+00 1.0000e+00
       12  1    3    3    0    0 -1.5759211536e+01 +9.7822563472e+00 -2.5755631280e+00 1.8726420184e+01 0.0000000000e+00 0.0000e+00 -1.0000e+00
</event>
<event>
 9      4 +1.0086356e-04 9.11880000e+01 7.81616400e-03 1.18400000e-01
      -11 -1    0    0    0    0 +0.0000000000e+00 +0.0000000000e+00 +4.5593999997e+01 4.5594000000e+01 5.1100000000e-04 0.0000e+00 1.0000e+00
       11 -1    0    0    0    0 -0.0000000000e+00 -0.0000000000e+00 -4.5593999997e+01 4.5594000000e+01 5.1100000000e-04 0.0000e+00 -1.0000e+00
       23  2    1    2    0    0 -8.8817841970e-16 +0.0000000000e+00 -1.7763568394e-15 9.1188000000e+01 9.1188000000e+01 2.2419e-15 0.0000e+00
 -9990012  2    3    3    0    0 -5.1438861296e+00 +1.5250539275e+01 +9.5728249694e+00 7.2461615123e+01 7.0000058397e+01 3.2620e-05 0.0000e+00
      -24  2    4    4    0    0 +1.9352549840e+00 +1.0593090900e+01 +6.8507282373e+00 6.3561285064e+01 6.2266730242e+01 1.6566e-13 0.0000e+00
      -11  1    4    4    0    0 -7.0791411136e+00 +4.6574483742e+00 +2.7220967321e+00 8.9003300582e+00 5.1100000000e-04 0.0000e+00 1.0000e+00
       11  1    5    5    0    0 +1.6054993608e+01 +2.1724318408e+01 -1.8312067705e+01 3.2634960609e+01 5.1100000000e-04 0.0000e+00 -1.0000e+00
      -12  1    5    5    0    0 -1.4119738624e+01 -1.1131227508e+01 +2.5162795943e+01 3.0926324455e+01 0.0000000000e+00 0.0000e+00 1.0000e+00
       12  1    3    3    0    0 +5.1438861296e+00 -1.5250539275e+01 -9.5728249694e+00 1.8726384877e+01 0.0000000000e+00 0.0000e+00 -1.0000e+00
</event>
<event>
 8      3 +1.0086356e-04 9.11880000e+01 7.81616400e-03 1.18400000e-01
      -11 -1    0    0    0    0 +0.0000000000e+00 +0.0000000000e+00 +4.5593999997e+01 4.5594000000e+01 5.1100000000e-04 0.0000e+00 -1.0000e+00
       11 -1    0    0    0    0 -0.0000000000e+00 -0.0000000000e+00 -4.5593999997e+01 4.5594000000e+01 5.1100000000e-04 0.0000e+00 1.0000e+00
       23  2    1    2    0    0 -3.5527136788e-15 +0.0000000000e+00 +1.7763568394e-15 9.1188000000e+01 9.1188000000e+01 2.1405e-14 0.0000e+00
  9990012  2    3    3    0    0 +1.2690872317e+01 -1.2582236725e+01 +5.5953650528e+00 7.2461573987e+01 7.0000004810e+01 1.6335e-04 0.0000e+00
      -11  1    4    4    0    0 +3.4546582258e+01 -9.8245562506e+00 +6.9022317112e+00 3.6573611444e+01 5.1100000000e-04 0.0000e+00 1.0000e+00
       11  1    4    4    0    0 -1.5521102895e+01 -5.4843078102e+00 +1.2356247912e+01 2.0582981561e+01 5.1100000000e-04 0.0000e+00 -1.0000e+00
       12  1    4    4    0    0 -6.3346070459e+00 +2.7266273362e+00 -1.3663114570e+01 1.5304980981e+01 0.0000000000e+00 0.0000e+00 -1.0000e+00
      -12  1    3    3    0    0 -1.2690872317e+01 +1.2582236725e+01 -5.5953650528e+00 1.8726426013e+01 0.0000000000e+00 0.0000e+00 1.0000e+00
</event>
<event>
 8      3 +1.0086356e-04 9.11880000e+01 7.81616400e-03 1.18400000e-01
      -11 -1    0    0    0    0 +0.0000000000e+00 +0.0000000000e+00 +4.5593999997e+01 4.5594000000e+01 5.1100000000e-04 0.0000e+00 1.0000e+00
       11 -1    0    0    0    0 -0.0000000000e+00 -0.0000000000e+00 -4.5593999997e+01 4.5594000000e+01 5.1100000000e-04 0.0000e+00 -1.0000e+00
       23  2    1    2    0    0 +0.0000000000e+00 +8.8817841970e-16 +0.0000000000e+00 9.1188000000e+01 9.1188000000e+01 1.4300e-14 0.0000e+00
  9990012  2    3    3    0    0 -1.3024198158e+01 -5.9207875885e+00 -1.2082816218e+01 7.2461550494e+01 6.9999974207e+01 7.3273e-04 0.0000e+00
      -11  1    4    4    0    0 -5.2224861282e+00 +3.1753013537e+00 +1.4502762180e+01 1.5738075205e+01 5.1100000000e-04 0.0000e+00 1.0000e+00
       11  1    4    4    0    0 +1.0837584502e+01 +1.4542635807e+01 -1.7685135241e+01 2.5331906814e+01 5.1100000000e-04 0.0000e+00 -1.0000e+00
       12  1    4    4    0    0 -1.8639296532e+01 -2.3638724749e+01 -8.9004431569e+00 3.1391568475e+01 0.0000000000e+00 0.0000e+00 -1.0000e+00
      -12  1    3    3    0    0 +1.3024198158e+01 +5.9207875885e+00 +1.2082816218e+01 1.8726449506e+01 0.0000000000e+00 0.0000e+00 1.0000e+00
</event>
<event>
 9      4 +1.0086356e-04 9.11880000e+01 7.81616400e-03 1.18400000e-01
      -11 -1    0    0    0    0 +0.0000000000e+00 +0.0000000000e+00 +4.5593999997e+01 4.5594000000e+01 5.1100000000e-04 0.0000e+00 -1.0000e+00
       11 -1    0    0    0    0 -0.0000000000e+00 -0.0000000000e+00 -4.5593999997e+01 4.5594000000e+01 5.1100000000e-04 0.0000e+00 1.0000e+00
       23  2    1    2    0    0 -1.7763568394e-15 +0.0000000000e+00 -1.3322676296e-15 9.1188000000e+01 9.1188000000e+01 7.7745e-14 0.0000e+00
 -9990012  2    3    3    0    0 +1.4036385974e+01 -1.2321524062e+01 -1.3551825723e+00 7.2461638735e+01 7.0000089157e+01 6.7456e-05 0.0000e+00
      -24  2    4    4    0    0 +4.5019877655e-01 +2.1382142355e+00 -9.0690211560e+00 5.1173806056e+01 5.0316365553e+01 2.0900e-14 0.0000e+00
      -11  1    4    4    0    0 +1.3586187198e+01 -1.4459738297e+01 +7.7138385836e+00 2.1287832679e+01 5.1100000000e-04 0.0000e+00 1.0000e+00
       11  1    5    5    0    0 -4.2443251788e+00 -1.9489807281e+01 +9.6769133957e+00 2.2170014371e+01 5.1100000000e-04 0.0000e+00 -1.0000e+00
      -12  1    5    5    0    0 +4.6945239554e+00 +2.1628021517e+01 -1.8745934552e+01 2.9003791685e+01 0.0000000000e+00 0.0000e+00 1.0000e+00
       12  1    3    3    0    0 -1.4036385974e+01 +1.2321524062e+01 +1.3551825723e+00 1.8726361265e+01 0.0000000000e+00 0.0000e+00 -1.0000e+00
</event>
<event>
 9      3 +1.0086356e-04 9.11880000e+01 7.81616400e-03 1.18400000e-01
      -11 -1    0    0    0    0 +0.0000000000e+00 +0.0000000000e+00 +4.5593999997e+01 4.5594000000e+01 5.1100000000e-04 0.0000e+00 1.0000e+00
       11 -1    0    0    0    0 -0.0000000000e+00 -0.0000000000e+00 -4.5593999997e+01 4.5594000000e+01 5.1100000000e-04 0.0000e+00 -1.0000e+00
       23  2    1    2    0    0 +1.3322676296e-15 +8.8817841970e-16 -3.5527136788e-15 9.1188000000e+01 9.1188000000e+01 1.4528e-13 0.0000e+00
  9990012  2    3    3    0    0 +3.7603589965e+00 +3.3701069112e+00 -1.8032665966e+01 7.2461682631e+01 7.0000146339e+01 2.2129e-04 0.0000e+00
       24  2    4    4    0    0 -8.9905496715e+00 -3.9751516878e+00 -8.5032456546e+00 5.4930329361e+01 5.3370442032e+01 1.5670e-13 0.0000e+00
      -11  1    5    5    0    0 -2.0743947911e+00 -2.1032117382e+01 +1.4380732257e+01 2.5562835050e+01 5.1100000000e-04 0.0000e+00 1.0000e+00
       11  1    4    4    0    0 +1.2750908668e+01 +7.3452585989e+00 -9.5294203115e+00 1.7531353270e+01 5.1100000000e-04 0.0000e+00 -1.0000e+00
       12  1    5    5    0    0 -6.9161548804e+00 +1.7056965694e+01 -2.2883977911e+01 2.9367494310e+01 0.0000000000e+00 0.0000e+00 -1.0000e+00
      -12  1    3    3    0    0 -3.7603589965e+00 -3.3701069112e+00 +1.8032665966e+01 1.8726317369e+01 0.0000000000e+00 0.0000e+00 1.0000e+00
</event>
<event>
 9      4 +1.0086356e-04 9.11880000e+01 7.81616400e-03 1.18400000e-01
      -11 -1    0    0    0    0 +0.0000000000e+00 +0.0000000000e+00 +4.5593999997e+01 4.5594000000e+01 5.1100000000e-04 0.0000e+00 -1.0000e+00
       11 -1    0    0    0    0 -0.0000000000e+00 -0.0000000000e+00 -4.5593999997e+01 4.5594000000e+01 5.1100000000e-04 0.0000e+00 1.0000e+00
       23  2    1    2    0    0 +0.0000000000e+00 +1.6098233857e-15 -1.7763568394e-15 9.1188000000e+01 9.1188000000e+01 5.9292e-14 0.0000e+00
 -9990012  2    3    3    0    0 +1.5626334620e+01 +4.4283651719e-01 -1.0310332319e+01 7.2461510997e+01 6.9999922755e+01 8.5166e-05 0.0000e+00
      -24  2    4    4    0    0 +2.4851426601e+01 +1.2008929297e+01 -1.2296827369e+01 5.7534254482e+01 4.8960909800e+01 1.2905e-13 0.0000e+00
      -11  1    4    4    0    0 -9.2250919811e+00 -1.1566092780e+01 +1.9864950496e+00 1.4927256516e+01 5.1100000000e-04 0.0000e+00 1.0000e+00
       11  1    5    5    0    0 -4.7020015878e-01 -1.2628578535e+01 +9.6872237010e+00 1.5923077193e+01 5.1100000000e-04 0.0000e+00 -1.0000e+00
      -12  1    5    5    0    0 +2.5321626760e+01 +2.4637507832e+01 -2.1984051070e+01 4.1611177289e+01 0.0000000000e+00 0.0000e+00 1.0000e+00
       12  1    3    3    0    0 -1.5626334620e+01 -4.4283651719e-01 +1.0310332319e+01 1.8726489003e+01 0.0000000000e+00 0.0000e+00 -1.0000e+00
</event>
<event>
 9      4 +1.0086356e-04 9.11880000e+01 7.81616400e-03 1.18400000e-01
      -11 -1    0    0    0    0 +0.0000000000e+00 +0.0000000000e+00 +4.5593999997e+01 4.5594000000e+01 5.1100000000e-04 0.0000e+00 1.0000e+00
       11 -1    0    0    0    0 -0.0000000000e+00 -0.0000000000e+00 -4.5593999997e+01 4.5594000000e+01 5.1100000000e-04 0.0000e+00 -1.0000e+00
       23  2    1    2    0    0 +0.0000000000e+00 +8.8817841970e-16 -1.2212453271e-15 9.1188000000e+01 9.1188000000e+01 2.2871e-14 0.0000e+00
 -9990012  2    3    3    0    0 -1.8560945736e+01 -2.4116399327e+00 -5.9576665528e-01 7.2461557420e+01 6.9999983229e+01 1.0630e-03 0.0000e+00
      -24  2    4    4    0    0 -2.1868208533e+01 -8.3130532540e+00 -1.4500673604e+01 5.6998339646e+01 4.9912080588e+01 1.3653e-14 0.0000e+00
      -11  1    4    4    0    0 +3.3072627962e+00 +5.9014133214e+00 +1.3904906949e+01 1.5463217774e+01 5.1100000000e-04 0.0000e+00 1.0000e+00
       11  1    5    5    0    0 -8.8009666163e-01 -2.0449364413e+01 +9.7809984099e+00 2.2685215564e+01 5.1100000000e-04 0.0000e+00 -1.0000e+00
      -12  1    5    5    0    0 -2.0988111871e+01 +1.2136311159e+01 -2.4281672014e+01 3.4313124082e+01 0.0000000000e+00 0.0000e+00 1.0000e+00
       12  1    3    3    0    0 +1.8560945736e+01 +2.4116399327e+00 +5.9576665528e-01 1.8726442580e+01 0.0000000000e+00 0.0000e+00 -1.0000e+00
</event>
<event>
 9      4 +1.0086356e-04 9.11880000e+01 7.81616400e-03 1.18400000e-01
      -11 -1    0    0    0    0 +0.0000000000e+00 +0.0000000000e+00 +4.5593999997e+01 4.5594000000e+01 5.1100000000e-04 0.0000e+00 1.0000e+00
       11 -1    0    0    0    0 -0.0000000000e+00 -0.0000000000e+00 -4.5593999997e+01 4.5594000000e+01 5.1100000000e-04 0.0000e+00 -1.0000e+00
       23  2    1    2    0    0 +3.5527136788e-15 +8.8817841970e-16 -3.5527136788e-15 9.1188000000e+01 9.1188000000e+01 1.1712e-14 0.0000e+00
 -9990012  2    3    3    0    0 -1.0214642907e+01 -4.9195252382e+00 +1.4904235164e+01 7.2461631315e+01 7.0000079491e+01 1.1979e-04 0.0000e+00
      -24  2    4    4    0    0 -1.1568690290e+01 -1.2338413646e+01 -4.1709660786e+00 5.1949765183e+01 4.8941905339e+01 7.3532e-15 0.0000e+00
      -11  1    4    4    0    0 +1.3540473829e+00 +7.4188884078e+00 +1.9075201243e+01 2.0511866132e+01 5.1100000000e-04 0.0000e+00 1.0000e+00
       11  1    5    5    0    0 +1.1275033741e+01 -8.2165420394e+00 -1.9613859203e+01 2.4069512294e+01 5.1100000000e-04 0.0000e+00 -1.0000e+00
      -12  1    5    5    0    0 -2.2843724031e+01 -4.1218716065e+00 +1.5442893125e+01 2.7880252890e+01 0.0000000000e+00 0.0000e+00 1.0000e+00
       12  1    3    3    0    0 +1.0214642907e+01 +4.9195252382e+00 -1.4904235164e+01 1.8726368685e+01 0.0000000000e+00 0.0000e+00 -1.0000e+00
</event>
<event>
 8      4 +1.0086356e-04 9.11880000e+01 7.81616400e-03 1.18400000e-01
      -11 -1    0    0    0    0 +0.0000000000e+00 +0.0000000000e+00 +4.5593999997e+01 4.5594000000e+01 5.1100000000e-04 0.0000e+00 1.0000e+00
       11 -1    0    0    0    0 -0.0000000000e+00 -0.0000000000e+00 -4.5593999997e+01 4.5594000000e+01 5.1100000000e-04 0.0000e+00 -1.0000e+00
       23  2    1    2    0    0 -2.6645352591e-15 +0.0000000000e+00 +3.5527136788e-15 9.1188000000e+01 9.1188000000e+01 7.4544e-14 0.0000e+00
 -9990012  2    3    3    0    0 -7.4867019683e+00 +3.2968627609e+00 +1.6845175622e+01 7.2461549397e+01 6.9999972778e+01 2.1796e-04 0.0000e+00
      -11  1    4    4    0    0 +8.5678300912e+00 -1.6534127487e+01 -6.0516925738e+00 1.9580808653e+01 5.1100000000e-04 0.0000e+00 1.0000e+00
       11  1    4    4    0    0 -2.0907108864e+01 +1.9867312621e+01 -6.4048068683e-01 2.8848353985e+01 5.1100000000e-04 0.0000e+00 -1.0000e+00
      -12  1    4    4    0    0 +4.8525768047e+00 -3.6322373406e-02 +2.3537348883e+01 2.4032386760e+01 0.0000000000e+00 0.0000e+00 1.0000e+00
       12  1    3    3    0    0 +7.4867019683e+00 -3.2968627609e+00 -1.6845175622e+01 1.8726450603e+01 0.0000000000e+00 0.0000e+00 -1.0000e+00
</event>
<event>
 9      3 +1.0086356e-04 9.11880000e+01 7.81616400e-03 1.18400000e-01
      -11 -1    0    0    0    0 +0.0000000000e+00 +0.0000000000e+00 +4.5593999997e+01 4.5594000000e+01 5.1100000000e-04 0.0000e+00 1.0000e+00
       11 -1    0    0    0    0 -0.0000000000e+00 -0.0000000000e+00 -4.5593999997e+01 4.5594000000e+01 5.1100000000e-04 0.0000e+00 -1.0000e+00
       23  2    1    2    0    0 -8.8817841970e-16 +0.0000000000e+00 +0.0000000000e+00 9.1188000000e+01 9.1188000000e+01 1.3777e-14 0.0000e+00
  9990012  2    3    3    0    0 -6.4053769936e+00 -5.0993846235e+00 -1.6841852662e+01 7.2461532659e+01 6.9999950973e+01 1.1055e-04 0.0000e+00
       24  2    4    4    0    0 -7.2168198140e+00 -4.3890244180e+00 -1.5187985558e+01 7.0487114332e+01 6.8311143732e+01 9.4855e-14 0.0000e+00
      -11  1    5    5    0    0 +2.0498037320e+01 -2.0464121938e+01 +9.0132752480e+00 3.0334616392e+01 5.1100000000e-04 0.0000e+00 1.0000e+00
       11  1    4    4    0    0 +8.1144282041e-01 -7.1036020552e-01 -1.6538671045e+00 1.9744183278e+00 5.1100000000e-04 0.0000e+00 -1.0000e+00
       12  1    5    5    0    0 -2.7714857134e+01 +1.6075097521e+01 -2.4201260806e+01 4.0152497940e+01 0.0000000000e+00 0.0000e+00 -1.0000e+00
      -12  1    3    3    0    0 +6.4053769936e+00 +5.0993846235e+00 +1.6841852662e+01 1.8726467341e+01 0.0000000000e+00 0.0000e+00 1.0000e+00
</event>
<event>
 8      4 +1.0086356e-04 9.11880000e+01 7.81616400e-03 1.18400000e-01
      -11 -1    0    0    0    0 +0.0000000000e+00 +0.0000000000e+00 +4.5593999997e+01 4.5594000000e+01 5.1100000000e-04 0.0000e+00 1.0000e+00
       11 -1    0    0    0    0 -0.0000000000e+00 -0.0000000000e+00 -4.5593999997e+01 4.5594000000e+01 5.1100000000e-04 0.0000e+00 -1.0000e+00
       23  2    1    2    0    0 -3.5527136788e-15 -1.7763568394e-15 +8.8817841970e-16 9.1188000000e+01 9.1188000000e+01 1.4370e-13 0.0000e+00
 -9990012  2    3    3    0    0 -1.1663492938e+01 +1.3922544542e+01 +4.5611316682e+00 7.2461595216e+01 7.0000032465e+01 4.0769e-05 0.0000e+00
      -11  1    4    4    0    0 +1.5339706623e+01 +9.3729807362e+00 -1.0465136215e+01 2.0800924100e+01 5.1100000000e-04 0.0000e+00 1.0000e+00
       11  1    4    4    0    0 +4.3191805309e+00 -1.2829744018e+01 +5.3483498049e+00 1.4555497172e+01 5.1100000000e-04 0.0000e+00 -1.0000e+00
      -12  1    4    4    0    0 -3.1322380092e+01 +1.7379307824e+01 +9.6779180779e+00 3.7105173944e+01 0.0000000000e+00 0.0000e+00 1.0000e+00
       12  1    3    3    0    0 +1.1663492938e+01 -1.3922544542e+01 -4.5611316682e+00 1.8726404784e+01 0.0000000000e+00 0.0000e+00 -1.0000e+00
</event>
<event>
 9      1 +1.0086356e-04 9.11880000e+01 7.81616400e-03 1.18400000e-01
      -11 -1    0    0    0    0 +0.0000000000e+00 +0.0000000000e+00 +4.5593999997e+01 4.5594000000e+01 5.1100000000e-04 0.0000e+00 1.0000e+00
       11 -1    0    0    0    0 -0.0000000000e+00 -0.0000000000e+00 -4.5593999997e+01 4.5594000000e+01 5.1100000000e-04 0.0000e+00 -1.0000e+00
       23  2    1    2    0    0 +0.0000000000e+00 +0.0000000000e+00 +0.0000000000e+00 9.1188000000e+01 9.1188000000e+01 4.5135e-14 0.0000e+00
  9990012  2    3    3    0    0 -1.7769122300e+01 +1.8543908002e+00 +5.6128467348e+00 7.2461427409e+01 6.9999813865e+01 5.6951e-06 0.0000e+00
       23  2    4    4    0    0 -1.2338730896e+01 +7.0528738977e-01 +6.5072823625e+00 6.6839185459e+01 6.5363524068e+01 4.6907e-14 0.0000e+00
      -11  1    5    5    0    0 -3.9301174032e+01 +3.1734211246e+00 +3.1065788336e+00 3.9551279552e+01 5.1100000000e-04 0.0000e+00 1.0000e+00
       11  1    5    5    0    0 +2.6962443136e+01 -2.4681337349e+00 +3.4007035289e+00 2.7287905906e+01 5.1100000000e-04 0.0000e+00 -1.0000e+00
       12  1    4    4    0    0 -5.4303914044e+00 +1.1491034105e+00 -8.9443562771e-01 5.6222419501e+00 0.0000000000e+00 0.0000e+00 -1.0000e+00
      -12  1    3    3    0    0 +1.7769122300e+01 -1.8543908002e+00 -5.6128467348e+00 1.8726572591e+01 0.0000000000e+00 0.0000e+00 1.0000e+00
</event>
<event>
 8      4 +1.0086356e-04 9.11880000e+01 7.81616400e-03 1.18400000e-01
      -11 -1    0    0    0    0 +0.0000000000e+00 +0.0000000000e+00 +4.5593999997e+01 4.5594000000e+01 5.1100000000e-04 0.0000e+00 1.0000e+00
       11 -1    0    0    0    0 -0.0000000000e+00 -0.0000000000e+00 -4.5593999997e+01 4.5594000000e+01 5.1100000000e-04 0.0000e+00 -1.0000e+00
       23  2    1    2    0    0 +8.3440199194e-16 +0.0000000000e+00 +0.0000000000e+00 9.1188000000e+01 9.1188000000e+01 1.1651e-14 0.0000e+00
 -9990012  2    3    3    0    0 +1.1526481767e-02 +1.2172943291e+01 +1.4230216227e+01 7.2461555193e+01 6.9999980328e+01 1.2962e-03 0.0000e+00
      -11  1    4    4    0    0 -1.6820108196e+01 -7.1891184103e+00 -9.2354673836e+00 2.0491298673e+01 5.1100000000e-04 0.0000e+00 -1.0000e+00
       11  1    4    4    0    0 +1.4198977678e+01 +2.6690977371e+01 +3.3718819851e+00 3.0420204281e+01 5.1100000000e-04 0.0000e+00 1.0000e+00
      -12  1    4    4    0    0 +2.6326569994e+00 -7.3289156695e+00 +2.0093801626e+01 2.1550052240e+01 0.0000000000e+00 0.0000e+00 1.0000e+00
       12  1    3    3    0    0 -1.1526481767e-02 -1.2172943291e+01 -1.4230216227e+01 1.8726444807e+01 0.0000000000e+00 0.0000e+00 -1.0000e+00
</event>
<event>
 9      3 +1.0086356e-04 9.11880000e+01 7.81616400e-03 1.18400000e-01
      -11 -1    0    0    0    0 +0.0000000000e+00 +0.0000000000e+00 +4.5593999997e+01 4.5594000000e+01 5.1100000000e-04 0.0000e+00 -1.0000e+00
       11 -1    0    0    0    0 -0.0000000000e+00 -0.0000000000e+00 -4.5593999997e+01 4.5594000000e+01 5.1100000000e-04 0.0000e+00 1.0000e+00
       23  2    1    2    0    0 +0.0000000000e+00 +0.0000000000e+00 +1.7763568394e-15 9.1188000000e+01 9.1188000000e+01 6.9412e-14 0.0000e+00
  9990012  2    3    3    0    0 -6.9610221094e+00 -1.3690973449e+01 -1.0713485913e+01 7.2461618524e+01 7.0000062827e+01 5.2432e-04 0.0000e+00
       24  2    4    4    0    0 -1.8449442379e+01 -8.5134049781e+00 -1.7804884620e+01 5.8002055894e+01 5.1326061442e+01 2.1124e-13 0.0000e+00
      -11  1    5    5    0    0 +4.3210980563e+00 +1.8418531861e+01 -1.1601996582e+01 2.2192803547e+01 5.1100000000e-04 0.0000e+00 1.0000e+00
       11  1    4    4    0    0 +1.1488420269e+01 -5.1775684714e+00 +7.0913987069e+00 1.4459562630e+01 5.1100000000e-04 0.0000e+00 -1.0000e+00
       12  1    5    5    0    0 -2.2770540435e+01 -2.6931936839e+01 -6.2028880376e+00 3.5809252347e+01 0.0000000000e+00 0.0000e+00 -1.0000e+00
      -12  1    3    3    0    0 +6.9610221094e+00 +1.3690973449e+01 +1.0713485913e+01 1.8726381476e+01 0.0000000000e+00 0.0000e+00 1.0000e+00
</event>
<event>
 9      4 +1.0086356e-04 9.11880000e+01 7.81616400e-03 1.18400000e-01
      -11 -1    0    0    0    0 +0.0000000000e+00 +0.0000000000e+00 +4.5593999997e+01 4.5594000000e+01 5.1100000000e-04 0.0000e+00 -1.0000e+00
       11 -1    0    0    0    0 -0.0000000000e+00 -0.0000000000e+00 -4.5593999997e+01 4.5594000000e+01 5.1100000000e-04 0.0000e+00 1.0000e+00
       23  2    1    2    0    0 -1.7763568394e-15 +1.7763568394e-15 -1.7763568394e-15 9.1188000000e+01 9.1188000000e+01 3.5128e-16 0.0000e+00
 -9990012  2    3    3    0    0 -8.3864433332e+00 -1.5713793251e+01 +5.7813582150e+00 7.2461552581e+01 6.9999976925e+01 4.0437e-04 0.0000e+00
      -24  2    4    4    0    0 +3.3278233406e+00 -1.7122416756e+01 +8.7129888729e+00 6.0304138281e+01 5.7065062473e+01 1.3237e-14 0.0000e+00
      -11  1    4    4    0    0 -1.1714266674e+01 +1.4086235051e+00 -2.9316306579e+00 1.2157414300e+01 5.1100000000e-04 0.0000e+00 1.0000e+00
       11  1    5    5    0    0 -7.6560731140e+00 -5.7887405224e+00 +3.1306011602e+01 3.2744332869e+01 5.1100000000e-04 0.0000e+00 -1.0000e+00
      -12  1    5    5    0    0 +1.0983896455e+01 -1.1333676234e+01 -2.2593022729e+01 2.7559805412e+01 0.0000000000e+00 0.0000e+00 1.0000e+00
       12  1    3    3    0    0 +8.3864433332e+00 +1.5713793251e+01 -5.7813582150e+00 1.8726447419e+01 0.0000000000e+00 0.0000e+00 -1.0000e+00
</event>
<event>
 8      4 +1.0086356e-04 9.11880000e+01 7.81616400e-03 1.18400000e-01
      -11 -1    0    0    0    0 +0.0000000000e+00 +0.0000000000e+00 +4.5593999997e+01 4.5594000000e+01 5.1100000000e-04 0.0000e+00 1.0000e+00
       11 -1    0    0    0    0 -0.0000000000e+00 -0.0000000000e+00 -4.5593999997e+01 4.5594000000e+01 5.1100000000e-04 0.0000e+00 -1.0000e+00
       23  2    1    2    0    0 -8.8817841970e-16 +8.8817841970e-16 +0.0000000000e+00 9.1188000000e+01 9.1188000000e+01 1.0142e-13 0.0000e+00
 -9990012  2    3    3    0    0 -7.3329222024e+00 +5.4657257563e+00 +1.6341157619e+01 7.2461565785e+01 6.9999994126e+01 7.2701e-06 0.0000e+00
      -11  1    4    4    0    0 +1.1460804628e+01 +3.1030782096e+01 +1.6558410238e+01 3.6992437472e+01 5.1100000000e-04 0.0000e+00 1.0000e+00
       11  1    4    4    0    0 -6.8185736565e+00 -8.7098517864e-01 -3.6966724950e+00 7.8049311135e+00 5.1100000000e-04 0.0000e+00 -1.0000e+00
      -12  1    4    4    0    0 -1.1975153174e+01 -2.4694071161e+01 +3.4794198761e+00 2.7664197200e+01 0.0000000000e+00 0.0000e+00 1.0000e+00
       12  1    3    3    0    0 +7.3329222024e+00 -5.4657257563e+00 -1.6341157619e+01 1.8726434215e+01 0.0000000000e+00 0.0000e+00 -1.0000e+00
</event>
<event>
 9      4 +1.0086356e-04 9.11880000e+01 7.81616400e-03 1.18400000e-01
      -11 -1    0    0    0    0 +0.0000000000e+00 +0.0000000000e+00 +4.5593999997e+01 4.5594000000e+01 5.1100000000e-04 0.0000e+00 1.0000e+00
       11 -1    0    0    0    0 -0.0000000000e+00 -0.0000000000e+00 -4.5593999997e+01 4.5594000000e+01 5.1100000000e-04 0.0000e+00 -1.0000e+00
       23  2    1    2    0    0 +2.7755575616e-16 +3.5527136788e-15 -1.7763568394e-15 9.1188000000e+01 9.1188000000e+01 4.5066e-14 0.0000e+00
 -9990012  2    3    3    0    0 +4.9529503796e-01 -1.8104160810e+01 -4.7617780774e+00 7.2461535137e+01 6.9999954201e+01 4.1784e-05 0.0000e+00
      -24  2    4    4    0    0 +2.2029900864e-01 -2.8740211526e+01 -1.6488911607e+00 6.1375901963e+01 5.4205481361e+01 1.0412e-13 0.0000e+00
      -11  1    4    4    0    0 +2.7499602932e-01 +1.0636050715e+01 -3.1128869167e+00 1.1085633173e+01 5.1100000000e-04 0.0000e+00 1.0000e+00
       11  1    5    5    0    0 +7.0306993308e+00 -8.3912922782e-01 -2.3974939011e+01 2.4998651400e+01 5.1100000000e-04 0.0000e+00 -1.0000e+00
      -12  1    5    5    0    0 -6.8104003222e+00 -2.7901082298e+01 +2.2326047851e+01 3.6377250564e+01 0.0000000000e+00 0.0000e+00 1.0000e+00
       12  1    3    3    0    0 -4.9529503796e-01 +1.8104160810e+01 +4.7617780774e+00 1.8726464863e+01 0.0000000000e+00 0.0000e+00 -1.0000e+00
</event>
<event>
 9      3 +1.0086356e-04 9.11880000e+01 7.81616400e-03 1.18400000e-01
      -11 -1    0    0    0    0 +0.0000000000e+00 +0.0000000000e+00 +4.5593999997e+01 4.5594000000e+01 5.1100000000e-04 0.0000e+00 -1.0000e+00
       11 -1    0    0    0    0 -0.0000000000e+00 -0.0000000000e+00 -4.5593999997e+01 4.5594000000e+01 5.1100000000e-04 0.0000e+00 1.0000e+00
       23  2    1    2    0    0 +0.0000000000e+00 +8.8817841970e-16 +0.0000000000e+00 9.1188000000e+01 9.1188000000e+01 4.2246e-14 0.0000e+00
  9990012  2    3    3    0    0 -1.2480021395e+01 -5.5383124485e+00 +1.2816216101e+01 7.2461568574e+01 6.9999997759e+01 2.1856e-04 0.0000e+00
       24  2    4    4    0    0 -7.9751643818e+00 +5.8928865257e-01 -2.3051142181e+00 5.5535379905e+01 5.4908235827e+01 6.9668e-14 0.0000e+00
      -11  1    5    5    0    0 -1.6161924042e+01 -2.4347047769e+01 -1.9329525996e+00 2.9286905432e+01 5.1100000000e-04 0.0000e+00 1.0000e+00
       11  1    4    4    0    0 -4.5048570133e+00 -6.1276011010e+00 +1.5121330320e+01 1.6926188669e+01 5.1100000000e-04 0.0000e+00 -1.0000e+00
       12  1    5    5    0    0 +8.1867596603e+00 +2.4936336421e+01 -3.7216161852e-01 2.6248474472e+01 0.0000000000e+00 0.0000e+00 -1.0000e+00
      -12  1    3    3    0    0 +1.2480021395e+01 +5.5383124485e+00 -1.2816216101e+01 1.8726431426e+01 0.0000000000e+00 0.0000e+00 1.0000e+00
</event>
<event>
 8      3 +1.0086356e-04 9.11880000e+01 7.81616400e-03 1.18400000e-01
      -11 -1    0    0    0    0 +0.0000000000e+00 +0.0000000000e+00 +4.5593999997e+01 4.5594000000e+01 5.1100000000e-04 0.0000e+00 1.0000e+00
       11 -1    0    0    0    0 -0.0000000000e+00 -0.0000000000e+00 -4.5593999997e+01 4.5594000000e+01 5.1100000000e-04 0.0000e+00 -1.0000e+00
       23  2    1    2    0    0 +0.0000000000e+00 +4.4408920985e-16 -5.5511151231e-16 9.1188000000e+01 9.1188000000e+01 5.3491e-14 0.0000e+00
  9990012  2    3    3    0    0 +1.8441098096e+01 -3.2274018589e+00 -4.3587827349e-01 7.2461542470e+01 6.9999963754e+01 1.0681e-04 0.0000e+00
      -11  1    4    4    0    0 +1.4578111853e+01 +5.8500908154e+00 -2.0538502146e+00 1.5841818353e+01 5.1100000000e-04 0.0000e+00 1.0000e+00
       11  1    4    4    0    0 +2.8223986863e+01 -9.6580058634e+00 +8.9989556256e+00 3.1158493454e+01 5.1100000000e-04 0.0000e+00 -1.0000e+00
       12  1    4    4    0    0 -2.4361000620e+01 +5.8051318910e-01 -7.3809836845e+00 2.5461230664e+01 0.0000000000e+00 0.0000e+00 -1.0000e+00
      -12  1    3    3    0    0 -1.8441098096e+01 +3.2274018589e+00 +4.3587827349e-01 1.8726457530e+01 0.0000000000e+00 0.0000e+00 1.0000e+00
</event>
<event>
 9      3 +1.0086356e-04 9.11880000e+01 7.81616400e-03 1.18400000e-01
      -11 -1    0    0    0    0 +0.0000000000e+00 +0.0000000000e+00 +4.5593999997e+01 4.5594000000e+01 5.1100000000e-04 0.0000e+00 1.0000e+00
       11 -1    0    0    0    0 -0.0000000000e+00 -0.0000000000e+00 -4.5593999997e+01 4.5594000000e+01 5.1100000000e-04 0.0000e+00 -1.0000e+00
       23  2    1    2    0    0 +1.3322676296e-15 +0.0000000000e+00 +0.0000000000e+00 9.1188000000e+01 9.1188000000e+01 1.5960e-13 0.0000e+00
  9990012  2    3    3    0    0 -1.0748378769e+00 -1.1744861068e+01 -1.4545865850e+01 7.2461568111e+01 6.9999997156e+01 1.1569e-04 0.0000e+00
       24  2    4    4    0    0 -2.1039459052e+00 -1.1382025067e+01 -4.4895813444e+00 6.2346254394e+01 6.1097643271e+01 6.7844e-14 0.0000e+00
      -11  1    5    5    0    0 -2.7014169641e+01 -9.7832358383e-01 +1.3188476048e+01 3.0077539447e+01 5.1100000000e-04 0.0000e+00 1.0000e+00
       11  1    4    4    0    0 +1.0291080283e+00 -3.6283600065e-01 -1.0056284505e+01 1.0115313718e+01 5.1100000000e-04 0.0000e+00 -1.0000e+00
       12  1    5    5    0    0 +2.4910223736e+01 -1.0403701484e+01 -1.7678057393e+01 3.2268714947e+01 0.0000000000e+00 0.0000e+00 -1.0000e+00
      -12  1    3    3    0    0 +1.0748378769e+00 +1.1744861068e+01 +1.4545865850e+01 1.8726431889e+01 0.0000000000e+00 0.0000e+00 1.0000e+00
</event>
<event>
 9      4 +1.0086356e-04 9.11880000e+01 7.81616400e-03 1.18400000e-01
      -11 -1    0    0    0    0 +0.0000000000e+00 +0.0000000000e+00 +4.5593999997e+01 4.5594000000e+01 5.1100000000e-04 0.0000e+00 1.0000e+00
       11 -1    0    0    0    0 -0.0000000000e+00 -0.0000000000e+00 -4.5593999997e+01 4.5594000000e+01 5.1100000000e-04 0.0000e+00 -1.0000e+00
       23  2    1    2    0    0 +0.0000000000e+00 +0.0000000000e+00 -3.5527136788e-15 9.1188000000e+01 9.1188000000e+01 6.6782e-15 0.0000e+00
 -9990012  2    3    3    0    0 +4.9079881072e+00 +5.8036024980e+00 +1.7114610040e+01 7.2461547425e+01 6.9999970209e+01 6.2646e-05 0.0000e+00
      -24  2    4    4    0    0 +1.2790505332e+00 +9.3423441229e+00 +1.3215722607e+01 6.6066768017e+01 6.4040980225e+01 3.6387e-14 0.0000e+00
      -11  1    4    4    0    0 +3.6289375740e+00 -3.5387416249e+00 +3.8988874329e+00 6.3947794082e+00 5.1100000000e-04 0.0000e+00 1.0000e+00
       11  1    5    5    0    0 +1.5357002512e+01 +1.5337237765e+00 +3.5422487160e+01 3.8638613221e+01 5.1100000000e-04 0.0000e+00 -1.0000e+00
      -12  1    5    5    0    0 -1.4077951979e+01 +7.8086203464e+00 -2.2206764552e+01 2.7428154796e+01 0.0000000000e+00 0.0000e+00 1.0000e+00
       12  1    3    3    0    0 -4.9079881072e+00 -5.8036024980e+00 -1.7114610040e+01 1.8726452575e+01 0.0000000000e+00 0.0000e+00 -1.0000e+00
</event>
<event>
 8      4 +1.0086356e-04 9.11880000e+01 7.81616400e-03 1.18400000e-01
      -11 -1    0    0    0    0 +0.0000000000e+00 +0.0000000000e+00 +4.5593999997e+01 4.5594000000e+01 5.1100000000e-04 0.0000e+00 1.0000e+00
       11 -1    0    0    0    0 -0.0000000000e+00 -0.0000000000e+00 -4.5593999997e+01 4.5594000000e+01 5.1100000000e-04 0.0000e+00 -1.0000e+00
       23  2    1    2    0    0 +1.7763568394e-15 -2.6645352591e-15 -1.7763568394e-15 9.1188000000e+01 9.1188000000e+01 1.0792e-13 0.0000e+00
 -9990012  2    3    3    0    0 +1.5085127535e+01 -4.5383048374e+00 +1.0125265367e+01 7.2461593983e+01 7.0000030859e+01 7.9036e-05 0.0000e+00
      -11  1    4    4    0    0 -1.9840176016e+01 +1.5276897772e+01 -1.0658632217e+00 2.5062965798e+01 5.1100000000e-04 0.0000e+00 -1.0000e+00
       11  1    4    4    0    0 +3.4486495996e+01 -1.5672288913e+01 +1.5925622053e+01 4.1092146256e+01 5.1100000000e-04 0.0000e+00 1.0000e+00
      -12  1    4    4    0    0 +4.3880755565e-01 -4.1429136965e+00 -4.7344934643e+00 6.3064819298e+00 0.0000000000e+00 0.0000e+00 1.0000e+00
       12  1    3    3    0    0 -1.5085127535e+01 +4.5383048374e+00 -1.0125265367e+01 1.8726406017e+01 0.0000000000e+00 0.0000e+00 -1.0000e+00
</event>
<event>
 9      4 +1.0086356e-04 9.11880000e+01 7.81616400e-03 1.18400000e-01
      -11 -1    0    0    0    0 +0.0000000000e+00 +0.0000000000e+00 +4.5593999997e+01 4.5594000000e+01 5.1100000000e-04 0.0000e+00 1.0000e+00
       11 -1    0    0    0    0 -0.0000000000e+00 -0.0000000000e+00 -4.5593999997e+01 4.5594000000e+01 5.1100000000e-04 0.0000e+00 -1.0000e+00
       23  2    1    2    0    0 -1.7763568394e-15 +5.5511151231e-16 -5.3290705182e-15 9.1188000000e+01 9.1188000000e+01 9.9389e-15 0.0000e+00
 -9990012  2    3    3    0    0 +1.3446844045e+01 +7.8365197915e-01 +1.3009434390e+01 7.2461625328e+01 7.0000071692e+01 3.7683e-04 0.0000e+00
      -24  2    4    4    0    0 +7.3055150915e+00 -1.0064536138e+00 +1.0766402928e+01 6.5682865136e+01 6.4373440492e+01 1.2475e-13 0.0000e+00
      -11  1    4    4    0    0 +6.1413289537e+00 +1.7901055929e+00 +2.2430314621e+00 6.7787601929e+00 5.1100000000e-04 0.0000e+00 1.0000e+00
       11  1    5    5    0    0 +2.7804234220e+01 +8.5441027624e+00 -1.3883601608e+01 3.2230909489e+01 5.1100000000e-04 0.0000e+00 -1.0000e+00
      -12  1    5    5    0    0 -2.0498719129e+01 -9.5505563761e+00 +2.4650004535e+01 3.3451955647e+01 0.0000000000e+00 0.0000e+00 1.0000e+00
       12  1    3    3    0    0 -1.3446844045e+01 -7.8365197915e-01 -1.3009434390e+01 1.8726374672e+01 0.0000000000e+00 0.0000e+00 -1.0000e+00
</event>
<event>
 8      4 +1.0086356e-04 9.11880000e+01 7.81616400e-03 1.18400000e-01
      -11 -1    0    0    0    0 +0.0000000000e+00 +0.0000000000e+00 +4.5593999997e+01 4.5594000000e+01 5.1100000000e-04 0.0000e+00 -1.0000e+00
       11 -1    0    0    0    0 -0.0000000000e+00 -0.0000000000e+00 -4.5593999997e+01 4.5594000000e+01 5.1100000000e-04 0.0000e+00 1.0000e+00
       23  2    1    2    0    0 +0.0000000000e+00 -1.7763568394e-15 -8.8817841970e-16 9.1188000000e+01 9.1188000000e+01 4.7480e-14 0.0000e+00
 -9990012  2    3    3    0    0 +1.8367705618e+01 +2.6828549891e+00 -2.4711612509e+00 7.2461629329e+01 7.0000076904e+01 4.7492e-04 0.0000e+00
      -11  1    4    4    0    0 -2.0919100188e+00 -1.2422643782e+01 +1.4440099013e+01 1.9162844930e+01 5.1100000000e-04 0.0000e+00 1.0000e+00
       11  1    4    4    0    0 -2.7980107931e+00 -1.1481263837e+01 +3.7228937637e+00 1.2389843499e+01 5.1100000000e-04 0.0000e+00 -1.0000e+00
      -12  1    4    4    0    0 +2.3257626430e+01 +2.6586762608e+01 -2.0634154027e+01 4.0908940900e+01 0.0000000000e+00 0.0000e+00 1.0000e+00
       12  1    3    3    0    0 -1.8367705618e+01 -2.6828549891e+00 +2.4711612509e+00 1.8726370671e+01 0.0000000000e+00 0.0000e+00 -1.0000e+00
</event>
<event>
 8      3 +1.0086356e-04 9.11880000e+01 7.81616400e-03 1.18400000e-01
      -11 -1    0    0    0    0 +0.0000000000e+00 +0.0000000000e+00 +4.5593999997e+01 4.5594000000e+01 5.1100000000e-04 0.0000e+00 -1.0000e+00
       11 -1    0    0    0    0 -0.0000000000e+00 -0.0000000000e+00 -4.5593999997e+01 4.5594000000e+01 5.1100000000e-04 0.0000e+00 1.0000e+00
       23  2    1    2    0    0 +4.6629367034e-15 -2.6645352591e-15 +3.5527136788e-15 9.1188000000e+01 9.1188000000e+01 7.8408e-14 0.0000e+00
  9990012  2    3    3    0    0 -4.6324222423e-01 +6.5560318158e+00 +1.7535172072e+01 7.2461590677e+01 7.0000026553e+01 2.3808e-04 0.0000e+00
      -11  1    4    4    0    0 +1.9379492555e+00 -4.2595827949e+00 -1.0538107797e+01 1.1530455720e+01 5.1100000000e-04 0.0000e+00 1.0000e+00
       11  1    4    4    0    0 -2.1235588610e+01 +2.3118437695e+01 +1.3815241416e+01 3.4296840681e+01 5.1100000000e-04 0.0000e+00 -1.0000e+00
       12  1    4    4    0    0 +1.8834397130e+01 -1.2302823084e+01 +1.4258038453e+01 2.6634294277e+01 0.0000000000e+00 0.0000e+00 -1.0000e+00
      -12  1    3    3    0    0 +4.6324222423e-01 -6.5560318158e+00 -1.7535172072e+01 1.8726409323e+01 0.0000000000e+00 0.0000e+00 1.0000e+00
</event>
<event>
 9      3 +1.0086356e-04 9.11880000e+01 7.81616400e-03 1.18400000e-01
      -11 -1    0    0    0    0 +0.0000000000e+00 +0.0000000000e+00 +4.5593999997e+01 4.5594000000e+01 5.1100000000e-04 0.0000e+00 1.0000e+00
       11 -1    0    0    0    0 -0.0000000000e+00 -0.0000000000e+00 -4.5593999997e+01 4.5594000000e+01 5.1100000000e-04 0.0000e+00 -1.0000e+00
       23  2    1    2    0    0 -8.8817841970e-16 +1.7763568394e-15 +0.0000000000e+00 9.1188000000e+01 9.1188000000e+01 1.9539e-14 0.0000e+00
  9990012  2    3    3    0    0 -7.0033962076e+00 +1.5819007143e+01 -7.1690272647e+00 7.2461454741e+01 6.9999849470e+01 9.5048e-05 0.0000e+00
       24  2    4    4    0    0 +2.4308592557e+00 +6.0988114197e+00 -9.8910892412e+00 5.8644906593e+01 5.7430713434e+01 1.9241e-13 0.0000e+00
      -11  1    5    5    0    0 -8.8025234472e+00 -3.3139676521e-01 +2.2285091507e+01 2.3962878512e+01 5.1100000000e-04 0.0000e+00 1.0000e+00
       11  1    4    4    0    0 -9.4342554633e+00 +9.7201957231e+00 +2.7220619766e+00 1.3816548147e+01 5.1100000000e-04 0.0000e+00 -1.0000e+00
       12  1    5    5    0    0 +1.1233382703e+01 +6.4302081849e+00 -3.2176180748e+01 3.4682028081e+01 0.0000000000e+00 0.0000e+00 -1.0000e+00
      -12  1    3    3    0    0 +7.0033962076e+00 -1.5819007143e+01 +7.1690272647e+00 1.8726545259e+01 0.0000000000e+00 0.0000e+00 1.0000e+00
</event>
<event>
 8      3 +1.0086356e-04 9.11880000e+01 7.81616400e-03 1.18400000e-01
      -11 -1    0    0    0    0 +0.0000000000e+00 +0.0000000000e+00 +4.5593999997e+01 4.5594000000e+01 5.1100000000e-04 0.0000e+00 1.0000e+00
       11 -1    0    0    0    0 -0.0000000000e+00 -0.0000000000e+00 -4.5593999997e+01 4.5594000000e+01 5.1100000000e-04 0.0000e+00 -1.0000e+00
       23  2    1    2    0    0 +0.0000000000e+00 +0.0000000000e+00 +8.8817841970e-15 9.1188000000e+01 9.1188000000e+01 1.3196e-13 0.0000e+00
  9990012  2    3    3    0    0 -1.2048199636e+01 -6.8588655136e+00 -1.2588513790e+01 7.2461712860e+01 7.0000185718e+01 1.6743e-04 0.0000e+00
      -11  1    4    4    0    0 -6.7083294051e+00 +3.4674384022e+00 -3.1944172790e+01 3.2824609488e+01 5.1100000000e-04 0.0000e+00 -1.0000e+00
       11  1    4    4    0    0 -1.1599870354e+01 +3.4993925275e+00 +2.1129522005e+01 2.4356917718e+01 5.1100000000e-04 0.0000e+00 1.0000e+00
       12  1    4    4    0    0 +6.2600001236e+00 -1.3825696443e+01 -1.7738630046e+00 1.5280185655e+01 0.0000000000e+00 0.0000e+00 -1.0000e+00
      -12  1    3    3    0    0 +1.2048199636e+01 +6.8588655136e+00 +1.2588513790e+01 1.8726287140e+01 0.0000000000e+00 0.0000e+00 1.0000e+00
</event>
<event>
 9      4 +1.0086356e-04 9.11880000e+01 7.81616400e-03 1.18400000e-01
      -11 -1    0    0    0    0 +0.0000000000e+00 +0.0000000000e+00 +4.5593999997e+01 4.5594000000e+01 5.1100000000e-04 0.0000e+00 -1.0000e+00
       11 -1    0    0    0    0 -0.0000000000e+00 -0.0000000000e+00 -4.5593999997e+01 4.5594000000e+01 5.1100000000e-04 0.0000e+00 1.0000e+00
       23  2    1    2    0    0 -3.5527136788e-15 +1.1102230246e-16 +1.7763568394e-15 9.1188000000e+01 9.1188000000e+01 3.1785e-13 0.0000e+00
 -9990012  2    3    3    0    0 -1.6614367318e+01 -5.2787730214e-01 +8.6233991014e+00 7.2461578348e+01 7.0000010491e+01 2.6072e-04 0.0000e+00
      -24  2    4    4    0    0 -1.3006934231e+01 +1.6631934494e+00 -8.3613443254e-01 6.2103145095e+01 6.0697240130e+01 7.8599e-14 0.0000e+00
      -11  1    4    4    0    0 -3.6074330871e+00 -2.1910707516e+00 +9.4595335339e+00 1.0358433253e+01 5.1100000000e-04 0.0000e+00 1.0000e+00
       11  1    5    5    0    0 +7.5697889156e+00 -5.6838320424e-01 +2.6641871635e+01 2.7702239769e+01 5.1100000000e-04 0.0000e+00 -1.0000e+00
      -12  1    5    5    0    0 -2.0576723147e+01 +2.2315766536e+00 -2.7478006068e+01 3.4400905326e+01 0.0000000000e+00 0.0000e+00 1.0000e+00
       12  1    3    3    0    0 +1.6614367318e+01 +5.2787730214e-01 -8.6233991014e+00 1.8726421652e+01 0.0000000000e+00 0.0000e+00 -1.0000e+00
</event>
<event>
 8      3 +1.0086356e-04 9.11880000e+01 7.81616400e-03 1.18400000e-01
      -11 -1    0    0    0    0 +0.0000000000e+00 +0.0000000000e+00 +4.5593999997e+01 4.5594000000e+01 5.1100000000e-04 0.0000e+00 1.0000e+00
       11 -1    0    0    0    0 -0.0000000000e+00 -0.0000000000e+00 -4.5593999997e+01 4.5594000000e+01 5.1100000000e-04 0.0000e+00 -1.0000e+00
       23  2    1    2    0    0 +0.0000000000e+00 +0.0000000000e+00 +0.0000000000e+00 9.1188000000e+01 9.1188000000e+01 5.3553e-14 0.0000e+00
  9990012  2    3    3    0    0 +1.5557991718e+01 -1.0405831719e+01 +5.8806558783e-01 7.2461594547e+01 7.0000031593e+01 2.5790e-04 0.0000e+00
      -11  1    4    4    0    0 -6.0024256304e+00 +3.5350905533e+00 -6.5445253970e+00 9.5580746807e+00 5.1100000000e-04 0.0000e+00 1.0000e+00
       11  1    4    4    0    0 +1.1861208914e+01 -5.0289761117e+00 +3.2147329308e+01 3.4632783017e+01 5.1100000000e-04 0.0000e+00 -1.0000e+00
       12  1    4    4    0    0 +9.6992084343e+00 -8.9119461607e+00 -2.5014738323e+01 2.8270736849e+01 0.0000000000e+00 0.0000e+00 -1.0000e+00
      -12  1    3    3    0    0 -1.5557991718e+01 +1.0405831719e+01 -5.8806558783e-01 1.8726405453e+01 0.0000000000e+00 0.0000e+00 1.0000e+00
</event>
<event>
 9      3 +1.0086356e-04 9.11880000e+01 7.81616400e-03 1.18400000e-01
      -11 -1    0    0    0    0 +0.0000000000e+00 +0.0000000000e+00 +4.5593999997e+01 4.5594000000e+01 5.1100000000e-04 0.0000e+00 -1.0000e+00
       11 -1    0    0    0    0 -0.0000000000e+00 -0.0000000000e+00 -4.5593999997e+01 4.5594000000e+01 5.1100000000e-04 0.0000e+00 1.0000e+00
       23  2    1    2    0    0 +8.8817841970e-16 -1.7763568394e-15 +0.0000000000e+00 9.1188000000e+01 9.1188000000e+01 1.4310e-13 0.0000e+00
  9990012  2    3    3    0    0 +6.1108163302e+00 -1.3404660001e+01 +1.1560882086e+01 7.2461521939e+01 6.9999937008e+01 4.2605e-04 0.0000e+00
       24  2    4    4    0    0 +1.0686837154e+01 -2.5659188798e+01 +1.1880718460e+01 5.9376578753e+01 5.1106009188e+01 4.4588e-14 0.0000e+00
      -11  1    5    5    0    0 -3.3116182950e+00 -1.3126931593e+01 +3.0224536904e+01 3.3118058217e+01 5.1100000000e-04 0.0000e+00 -1.0000e+00
       11  1    4    4    0    0 -4.5760208241e+00 +1.2254528797e+01 -3.1983637448e-01 1.3084943186e+01 5.1100000000e-04 0.0000e+00 1.0000e+00
       12  1    5    5    0    0 +1.3998455449e+01 -1.2532257206e+01 -1.8343818443e+01 2.6258520536e+01 0.0000000000e+00 0.0000e+00 -1.0000e+00
      -12  1    3    3    0    0 -6.1108163302e+00 +1.3404660001e+01 -1.1560882086e+01 1.8726478061e+01 0.0000000000e+00 0.0000e+00 1.0000e+00
</event>
<event>
 9      3 +1.0086356e-04 9.11880000e+01 7.81616400e-03 1.18400000e-01
      -11 -1    0    0    0    0 +0.0000000000e+00 +0.0000000000e+00 +4.5593999997e+01 4.5594000000e+01 5.1100000000e-04 0.0000e+00 1.0000e+00
       11 -1    0    0    0    0 -0.0000000000e+00 -0.0000000000e+00 -4.5593999997e+01 4.5594000000e+01 5.1100000000e-04 0.0000e+00 -1.0000e+00
       23  2    1    2    0    0 +0.0000000000e+00 -3.5527136788e-15 -2.2204460493e-15 9.1188000000e+01 9.1188000000e+01 2.0925e-16 0.0000e+00
  9990012  2    3    3    0    0 +1.1417841799e+01 +1.4587140714e+01 +2.7434699105e+00 7.2461590502e+01 7.0000026324e+01 7.9787e-04 0.0000e+00
       24  2    4    4    0    0 +9.3808833214e+00 +9.0738468108e+00 -6.7707800736e+00 6.1278274244e+01 5.9488215335e+01 1.3211e-13 0.0000e+00
      -11  1    5    5    0    0 +1.0842398713e+01 -5.5288061058e+00 +2.4154516988e+01 2.7047476740e+01 5.1100000000e-04 0.0000e+00 1.0000e+00
       11  1    4    4    0    0 +2.0369584775e+00 +5.5132939028e+00 +9.5142499841e+00 1.1183316258e+01 5.1100000000e-04 0.0000e+00 -1.0000e+00
       12  1    5    5    0    0 -1.4615153921e+00 +1.4602652917e+01 -3.0925297061e+01 3.4230797504e+01 0.0000000000e+00 0.0000e+00 -1.0000e+00
      -12  1    3    3    0    0 -1.1417841799e+01 -1.4587140714e+01 -2.7434699105e+00 1.8726409498e+01 0.0000000000e+00 0.0000e+00 1.0000e+00
</event>
<event>
 9      4 +1.0086356e-04 9.11880000e+01 7.81616400e-03 1.18400000e-01
      -11 -1    0    0    0    0 +0.0000000000e+00 +0.0000000000e+00 +4.5593999997e+01 4.5594000000e+01 5.1100000000e-04 0.0000e+00 1.0000e+00
       11 -1    0    0    0    0 -0.0000000000e+00 -0.0000000000e+00 -4.5593999997e+01 4.5594000000e+01 5.1100000000e-04 0.0000e+00 -1.0000e+00
       23  2    1    2    0    0 +0.0000000000e+00 -1.7763568394e-15 -2.2204460493e-16 9.1188000000e+01 9.1188000000e+01 1.5608e-13 0.0000e+00
 -9990012  2    3    3    0    0 -1.6998193679e+01 -7.7896741406e+00 -1.0301768167e+00 7.2461578136e+01 7.0000010215e+01 6.5127e-05 0.0000e+00
      -24  2    4    4    0    0 -1.8683674031e+01 -9.8676051020e+00 +6.4976317737e+00 6.4472426520e+01 6.0564224234e+01 2.0129e-14 0.0000e+00
      -11  1    4    4    0    0 +1.6854803518e+00 +2.0779309615e+00 -7.5278085904e+00 7.9891516153e+00 5.1100000000e-04 0.0000e+00 1.0000e+00
       11  1    5    5    0    0 -2.0686488459e+01 -7.4226042457e+00 -2.4730308849e+01 3.3084951784e+01 5.1100000000e-04 0.0000e+00 -1.0000e+00
      -12  1    5    5    0    0 +2.0028144280e+00 -2.4450008563e+00 +3.1227940622e+01 3.1387474736e+01 0.0000000000e+00 0.0000e+00 1.0000e+00
       12  1    3    3    0    0 +1.6998193679e+01 +7.7896741406e+00 +1.0301768167e+00 1.8726421864e+01 0.0000000000e+00 0.0000e+00 -1.0000e+00
</event>
<event>
 8      3 +1.0086356e-04 9.11880000e+01 7.81616400e-03 1.18400000e-01
      -11 -1    0    0    0    0 +0.0000000000e+00 +0.0000000000e+00 +4.5593999997e+01 4.5594000000e+01 5.1100000000e-04 0.0000e+00 -1.0000e+00
       11 -1    0    0    0    0 -0.0000000000e+00 -0.0000000000e+00 -4.5593999997e+01 4.5594000000e+01 5.1100000000e-04 0.0000e+00 1.0000e+00
       23  2    1    2    0    0 +1.6653345369e-15 +1.7763568394e-15 +1.7763568394e-15 9.1188000000e+01 9.1188000000e+01 2.2664e-13 0.0000e+00
  9990012  2    3    3    0    0 -8.1383874098e-01 -1.4063330367e+01 +1.2338496503e+01 7.2461599105e+01 7.0000037531e+01 4.0494e-04 0.0000e+00
      -11  1    4    4    0    0 +1.3343626306e+01 -1.6873765158e+00 +8.0145032007e+00 1.5656687527e+01 5.1100000000e-04 0.0000e+00 1.0000e+00
       11  1    4    4    0    0 +4.2127348903e+00 -2.6397153264e+01 +1.5748670839e+01 3.1025432618e+01 5.1100000000e-04 0.0000e+00 -1.0000e+00
       12  1    4    4    0    0 -1.8370199937e+01 +1.4021199412e+01 -1.1424677536e+01 2.5779478960e+01 0.0000000000e+00 0.0000e+00 -1.0000e+00
      -12  1    3    3    0    0 +8.1383874098e-01 +1.4063330367e+01 -1.2338496503e+01 1.8726400895e+01 0.0000000000e+00 0.0000e+00 1.0000e+00
</event>
<event>
 9      3 +1.0086356e-04 9.11880000e+01 7.81616400e-03 1.18400000e-01
      -11 -1    0    0    0    0 +0.0000000000e+00 +0.0000000000e+00 +4.5593999997e+01 4.5594000000e+01 5.1100000000e-04 0.0000e+00 -1.0000e+00
       11 -1    0    0    0    0 -0.0000000000e+00 -0.0000000000e+00 -4.5593999997e+01 4.5594000000e+01 5.1100000000e-04 0.0000e+00 1.0000e+00
       23  2    1    2    0    0 +0.0000000000e+00 -1.7763568394e-15 -1.7763568394e-15 9.1188000000e+01 9.1188000000e+01 1.2592e-14 0.0000e+00
  9990012  2    3    3    0    0 +2.0970073228e+00 -1.1814282593e+01 +1.4377277841e+01 7.2461525933e+01 6.9999942211e+01 1.6013e-04 0.0000e+00
       24  2    4    4    0    0 -5.2223116350e-01 -5.2051488584e+00 +1.0648659175e+01 6.4433845298e+01 6.3332141742e+01 4.3647e-14 0.0000e+00
      -11  1    5    5    0    0 -2.0119935370e+01 -1.7481134703e+01 -1.4439748619e+01 3.0313498812e+01 5.1100000000e-04 0.0000e+00 1.0000e+00
       11  1    4    4    0    0 +2.6192384863e+00 -6.6091337343e+00 +3.7286186650e+00 8.0276806349e+00 5.1100000000e-04 0.0000e+00 -1.0000e+00
       12  1    5    5    0    0 +1.9597704206e+01 +1.2275985844e+01 +2.5088407795e+01 3.4120346486e+01 0.0000000000e+00 0.0000e+00 -1.0000e+00
      -12  1    3    3    0    0 -2.0970073228e+00 +1.1814282593e+01 -1.4377277841e+01 1.8726474067e+01 0.0000000000e+00 0.0000e+00 1.0000e+00
</event>
<event>
 8      4 +1.0086356e-04 9.11880000e+01 7.81616400e-03 1.18400000e-01
      -11 -1    0    0    0    0 +0.0000000000e+00 +0.0000000000e+00 +4.5593999997e+01 4.5594000000e+01 5.1100000000e-04 0.0000e+00 -1.0000e+00
       11 -1    0    0    0    0 -0.0000000000e+00 -0.0000000000e+00 -4.5593999997e+01 4.5594000000e+01 5.1100000000e-04 0.0000e+00 1.0000e+00
       23  2    1    2    0    0 -3.5527136788e-15 +8.8817841970e-16 -4.4408920985e-16 9.1188000000e+01 9.1188000000e+01 8.6796e-14 0.0000e+00
 -9990012  2    3    3    0    0 +1.7729231158e+01 -5.3827764838e+00 -2.7161857676e+00 7.2461612594e+01 7.0000055104e+01 2.6258e-04 0.0000e+00
      -11  1    4    4    0    0 +9.4272613686e-01 -2.0321810192e+01 +4.7494510948e+00 2.0890715354e+01 5.1100000000e-04 0.0000e+00 1.0000e+00
       11  1    4    4    0    0 +2.0578206203e+01 -1.1994222079e+01 -4.0011789655e+00 2.4152295277e+01 5.1100000000e-04 0.0000e+00 -1.0000e+00
      -12  1    4    4    0    0 -3.7917011812e+00 +2.6933255786e+01 -3.4644578969e+00 2.7418601963e+01 0.0000000000e+00 0.0000e+00 1.0000e+00
       12  1    3    3    0    0 -1.7729231158e+01 +5.3827764838e+00 +2.7161857676e+00 1.8726387406e+01 0.0000000000e+00 0.0000e+00 -1.0000e+00
</event>
<event>
 9      4 +1.0086356e-04 9.11880000e+01 7.81616400e-03 1.18400000e-01
      -11 -1    0    0    0    0 +0.0000000000e+00 +0.0000000000e+00 +4.5593999997e+01 4.5594000000e+01 5.1100000000e-04 0.0000e+00 1.0000e+00
       11 -1    0    0    0    0 -0.0000000000e+00 -0.0000000000e+00 -4.5593999997e+01 4.5594000000e+01 5.1100000000e-04 0.0000e+00 -1.0000e+00
       23  2    1    2    0    0 -3.5527136788e-15 +1.7763568394e-15 +0.0000000000e+00 9.1188000000e+01 9.1188000000e+01 5.8235e-14 0.0000e+00
 -9990012  2    3    3    0    0 -1.2370515158e+01 +9.2949654027e+00 +1.0547633618e+01 7.2461585446e+01 7.0000019738e+01 2.0473e-04 0.0000e+00
      -24  2    4    4    0    0 -1.2898895378e+01 +4.5860714215e+00 +5.0209690378e+00 6.5181689167e+01 6.3529748304e+01 1.2209e-14 0.0000e+00
      -11  1    4    4    0    0 +5.2838022034e-01 +4.7088939812e+00 +5.5266645805e+00 7.2798962788e+00 5.1100000000e-04 0.0000e+00 1.0000e+00
       11  1    5    5    0    0 +1.1119437931e+01 -2.4611062681e+01 +4.4500698693e+00 2.7370594226e+01 5.1100000000e-04 0.0000e+00 -1.0000e+00
      -12  1    5    5    0    0 -2.4018333309e+01 +2.9197134103e+01 +5.7089916850e-01 3.7811094941e+01 0.0000000000e+00 0.0000e+00 1.0000e+00
       12  1    3    3    0    0 +1.2370515158e+01 -9.2949654027e+00 -1.0547633618e+01 1.8726414554e+01 0.0000000000e+00 0.0000e+00 -1.0000e+00
</event>
<event>
 8      4 +1.0086356e-04 9.11880000e+01 7.81616400e-03 1.18400000e-01
      -11 -1    0    0    0    0 +0.0000000000e+00 +0.0000000000e+00 +4.5593999997e+01 4.5594000000e+01 5.1100000000e-04 0.0000e+00 -1.0000e+00
       11 -1    0    0    0    0 -0.0000000000e+00 -0.0000000000e+00 -4.5593999997e+01 4.5594000000e+01 5.1100000000e-04 0.0000e+00 1.0000e+00
       23  2    1    2    0    0 +0.0000000000e+00 -1.7763568394e-15 +8.8817841970e-16 9.1188000000e+01 9.1188000000e+01 3.8345e-14 0.0000e+00
 -9990012  2    3    3    0    0 -1.7232050754e+01 +3.5203370415e+00 -6.4297561316e+00 7.2461598584e+01 7.0000036852e+01 4.1177e-04 0.0000e+00
      -11  1    4    4    0    0 +1.1566877451e+01 -9.3226425379e+00 +2.0150446347e+00 1.4992155382e+01 5.1100000000e-04 0.0000e+00 1.0000e+00
       11  1    4    4    0    0 +1.0121583160e+01 +1.0263513595e+01 +6.3506912408e+00 1.5751743919e+01 5.1100000000e-04 0.0000e+00 -1.0000e+00
      -12  1    4    4    0    0 -3.8920511366e+01 +2.5794659842e+00 -1.4795492007e+01 4.1717699283e+01 0.0000000000e+00 0.0000e+00 1.0000e+00
       12  1    3    3    0    0 +1.7232050754e+01 -3.5203370415e+00 +6.4297561316e+00 1.8726401416e+01 0.0000000000e+00 0.0000e+00 -1.0000e+00
</event>
<event>
 9      3 +1.0086356e-04 9.11880000e+01 7.81616400e-03 1.18400000e-01
      -11 -1    0    0    0    0 +0.0000000000e+00 +0.0000000000e+00 +4.5593999997e+01 4.5594000000e+01 5.1100000000e-04 0.0000e+00 1.0000e+00
       11 -1    0    0    0    0 -0.0000000000e+00 -0.0000000000e+00 -4.5593999997e+01 4.5594000000e+01 5.1100000000e-04 0.0000e+00 -1.0000e+00
       23  2    1    2    0    0 +0.0000000000e+00 -4.5796699766e-15 +0.0000000000e+00 9.1188000000e+01 9.1188000000e+01 1.1327e-14 0.0000e+00
  9990012  2    3    3    0    0 +4.5030718038e+00 +1.3551460123e-01 -1.8176447604e+01 7.2461567682e+01 6.9999996597e+01 1.1267e-04 0.0000e+00
       24  2    4    4    0    0 +3.1715839229e+00 +6.4471307242e+00 -1.1746433862e+01 6.3353635148e+01 6.1839145683e+01 4.0663e-14 0.0000e+00
      -11  1    5    5    0    0 -1.1797000568e+00 -2.7749942549e+01 -4.7573297857e+00 2.8179481732e+01 5.1100000000e-04 0.0000e+00 1.0000e+00
       11  1    4    4    0    0 +1.3314878809e+00 -6.3116161230e+00 -6.4300137413e+00 9.1079325336e+00 5.1100000000e-04 0.0000e+00 -1.0000e+00
       12  1    5    5    0    0 +4.3512839797e+00 +3.4197073274e+01 -6.9891040768e+00 3.5174153416e+01 0.0000000000e+00 0.0000e+00 -1.0000e+00
      -12  1    3    3    0    0 -4.5030718038e+00 -1.3551460123e-01 +1.8176447604e+01 1.8726432318e+01 0.0000000000e+00 0.0000e+00 1.0000e+00
</event>
<event>
 8      4 +1.0086356e-04 9.11880000e+01 7.81616400e-03 1.18400000e-01
      -11 -1    0    0    0    0 +0.0000000000e+00 +0.0000000000e+00 +4.5593999997e+01 4.5594000000e+01 5.1100000000e-04 0.0000e+00 -1.0000e+00
       11 -1    0    0    0    0 -0.0000000000e+00 -0.0000000000e+00 -4.5593999997e+01 4.5594000000e+01 5.1100000000e-04 0.0000e+00 1.0000e+00
       23  2    1    2    0    0 -8.8817841970e-16 +1.7763568394e-15 +0.0000000000e+00 9.1188000000e+01 9.1188000000e+01 6.4307e-14 0.0000e+00
 -9990012  2    3    3    0    0 -6.9866907723e+00 +1.2820231605e+01 -1.1726466037e+01 7.2461489591e+01 6.9999894869e+01 2.1650e-04 0.0000e+00
      -11  1    4    4    0    0 +6.3997926659e+00 +3.1169083367e+01 -2.1384834592e+01 3.8337713220e+01 5.1100000000e-04 0.0000e+00 1.0000e+00
       11  1    4    4    0    0 -1.0948303081e+01 -8.7588525899e-01 -4.1283528129e+00 1.1733533677e+01 5.1100000000e-04 0.0000e+00 -1.0000e+00
      -12  1    4    4    0    0 -2.4381803575e+00 -1.7472966503e+01 +1.3786721367e+01 2.2390242695e+01 0.0000000000e+00 0.0000e+00 1.0000e+00
       12  1    3    3    0    0 +6.9866907723e+00 -1.2820231605e+01 +1.1726466037e+01 1.8726510409e+01 0.0000000000e+00 0.0000e+00 -1.0000e+00
</event>
<event>
 9      4 +1.0086356e-04 9.11880000e+01 7.81616400e-03 1.18400000e-01
      -11 -1    0    0    0    0 +0.0000000000e+00 +0.0000000000e+00 +4.5593999997e+01 4.5594000000e+01 5.1100000000e-04 0.0000e+00 -1.0000e+00
       11 -1    0    0    0    0 -0.0000000000e+00 -0.0000000000e+00 -4.5593999997e+01 4.5594000000e+01 5.1100000000e-04 0.0000e+00 1.0000e+00
       23  2    1    2    0    0 -1.7763568394e-15 +0.0000000000e+00 +0.0000000000e+00 9.1188000000e+01 9.1188000000e+01 8.9708e-14 0.0000e+00
 -9990012  2    3    3    0    0 -1.4002990222e+01 -1.0263750892e+01 -7.0180174552e+00 7.2461524450e+01 6.9999940279e+01 1.3535e-04 0.0000e+00
      -24  2    4    4    0    0 -9.5806191228e-01 -9.2415351401e+00 -3.7580238347e+00 5.8976620361e+01 5.8118802049e+01 9.3365e-14 0.0000e+00
      -11  1    4    4    0    0 -1.3044928309e+01 -1.0222157521e+00 -3.2599936205e+00 1.3484904090e+01 5.1100000000e-04 0.0000e+00 1.0000e+00
       11  1    5    5    0    0 -1.6318449810e+01 -3.8981402852e+00 +2.2514189688e+01 2.8078034822e+01 5.1100000000e-04 0.0000e+00 -1.0000e+00
      -12  1    5    5    0    0 +1.5360387897e+01 -5.3433948549e+00 -2.6272213523e+01 3.0898585539e+01 0.0000000000e+00 0.0000e+00 1.0000e+00
       12  1    3    3    0    0 +1.4002990222e+01 +1.0263750892e+01 +7.0180174552e+00 1.8726475550e+01 0.0000000000e+00 0.0000e+00 -1.0000e+00
</event>
<event>
 9      4 +1.0086356e-04 9.11880000e+01 7.81616400e-03 1.18400000e-01
      -11 -1    0    0    0    0 +0.0000000000e+00 +0.0000000000e+00 +4.5593999997e+01 4.5594000000e+01 5.1100000000e-04 0.0000e+00 -1.0000e+00
       11 -1    0    0    0    0 -0.0000000000e+00 -0.0000000000e+00 -4.5593999997e+01 4.5594000000e+01 5.1100000000e-04 0.0000e+00 1.0000e+00
       23  2    1    2    0    0 +8.8817841970e-16 +0.0000000000e+00 +8.8817841970e-16 9.1188000000e+01 9.1188000000e+01 2.7162e-14 0.0000e+00
 -9990012  2    3    3    0    0 +7.3411641815e+00 +1.5582849183e+01 -7.3456682742e+00 7.2461635628e+01 7.0000085109e+01 4.5014e-04 0.0000e+00
      -24  2    4    4    0    0 +1.3658323183e+01 +5.3417300155e+00 +2.6136546433e+00 5.6841932273e+01 5.4855174799e+01 1.4246e-13 0.0000e+00
      -11  1    4    4    0    0 -6.3171590017e+00 +1.0241119167e+01 -9.9593229175e+00 1.5619703355e+01 5.1100000000e-04 0.0000e+00 1.0000e+00
       11  1    5    5    0    0 -1.7265144775e+01 -2.3237509318e+00 +1.4672793033e+01 2.2776652479e+01 5.1100000000e-04 0.0000e+00 -1.0000e+00
      -12  1    5    5    0    0 +3.0923467959e+01 +7.6654809473e+00 -1.2059138390e+01 3.4065279794e+01 0.0000000000e+00 0.0000e+00 1.0000e+00
       12  1    3    3    0    0 -7.3411641815e+00 -1.5582849183e+01 +7.3456682742e+00 1.8726364372e+01 0.0000000000e+00 0.0000e+00 -1.0000e+00
</event>
<event>
 8      4 +1.0086356e-04 9.11880000e+01 7.81616400e-03 1.18400000e-01
      -11 -1    0    0    0    0 +0.0000000000e+00 +0.0000000000e+00 +4.5593999997e+01 4.5594000000e+01 5.1100000000e-04 0.0000e+00 1.0000e+00
       11 -1    0    0    0    0 -0.0000000000e+00 -0.0000000000e+00 -4.5593999997e+01 4.5594000000e+01 5.1100000000e-04 0.0000e+00 -1.0000e+00
       23  2    1    2    0    0 +0.0000000000e+00 -2.2204460493e-15 -9.9920072216e-16 9.1188000000e+01 9.1188000000e+01 6.6194e-14 0.0000e+00
 -9990012  2    3    3    0    0 +1.8528012008e+01 +2.5368060999e+00 -9.7737402526e-01 7.2461604882e+01 7.0000045056e+01 1.2421e-04 0.0000e+00
      -11  1    4    4    0    0 -1.4148957100e+01 +2.1317192840e+01 -8.1353341315e+00 2.6847706779e+01 5.1100000000e-04 0.0000e+00 1.0000e+00
       11  1    4    4    0    0 +1.6619889986e+01 -5.5907145907e+00 -8.6043657479e+00 1.9532330710e+01 5.1100000000e-04 0.0000e+00 -1.0000e+00
      -12  1    4    4    0    0 +1.6057079122e+01 -1.3189672149e+01 +1.5762325854e+01 2.6081567393e+01 0.0000000000e+00 0.0000e+00 1.0000e+00
       12  1    3    3    0    0 -1.8528012008e+01 -2.5368060999e+00 +9.7737402526e-01 1.8726395118e+01 0.0000000000e+00 0.0000e+00 -1.0000e+00
</event>
<event>
 8      4 +1.0086356e-04 9.11880000e+01 7.81616400e-03 1.18400000e-01
      -11 -1    0    0    0    0 +0.0000000000e+00 +0.0000000000e+00 +4.5593999997e+01 4.5594000000e+01 5.1100000000e-04 0.0000e+00 1.0000e+00
       11 -1    0    0    0    0 -0.0000000000e+00 -0.0000000000e+00 -4.5593999997e+01 4.5594000000e+01 5.1100000000e-04 0.0000e+00 -1.0000e+00
       23  2    1    2    0    0 +1.7763568394e-15 +1.7763568394e-15 +0.0000000000e+00 9.1188000000e+01 9.1188000000e+01 9.1904e-15 0.0000e+00
 -9990012  2    3    3    0    0 -1.2973331762e+01 +1.1871244920e+01 +6.4377725947e+00 7.2461582592e+01 7.0000016020e+01 1.7259e-04 0.0000e+00
      -11  1    4    4    0    0 -1.6724825076e+01 -6.4393583252e+00 +1.1429631692e+01 2.1256095369e+01 5.1100000000e-04 0.0000e+00 1.0000e+00
       11  1    4    4    0    0 -2.4338519111e+00 +3.3358589573e+01 +1.9782064957e+00 3.3505707494e+01 5.1100000000e-04 0.0000e+00 -1.0000e+00
      -12  1    4    4    0    0 +6.1853452256e+00 -1.5047986328e+01 -6.9700655931e+00 1.7699779729e+01 0.0000000000e+00 0.0000e+00 1.0000e+00
       12  1    3    3    0    0 +1.2973331762e+01 -1.1871244920e+01 -6.4377725947e+00 1.8726417408e+01 0.0000000000e+00 0.0000e+00 -1.0000e+00
</event>
<event>
 9      4 +1.0086356e-04 9.11880000e+01 7.81616400e-03 1.18400000e-01
      -11 -1    0    0    0    0 +0.0000000000e+00 +0.0000000000e+00 +4.5593999997e+01 4.5594000000e+01 5.1100000000e-04 0.0000e+00 1.0000e+00
       11 -1    0    0    0    0 -0.0000000000e+00 -0.0000000000e+00 -4.5593999997e+01 4.5594000000e+01 5.1100000000e-04 0.0000e+00 -1.0000e+00
       23  2    1    2    0    0 +0.0000000000e+00 -1.7763568394e-15 +0.0000000000e+00 9.1188000000e+01 9.1188000000e+01 3.5458e-14 0.0000e+00
 -9990012  2    3    3    0    0 +5.3779085935e+00 +1.0099962433e+01 +1.4823843193e+01 7.2461615699e+01 7.0000059148e+01 1.4325e-05 0.0000e+00
      -24  2    4    4    0    0 +3.6862082981e+00 +7.4083078828e+00 +6.1397356327e+00 6.3213882004e+01 6.2368480558e+01 6.9731e-14 0.0000e+00
      -11  1    4    4    0    0 +1.6917002955e+00 +2.6916545504e+00 +8.6841075601e+00 9.2477336946e+00 5.1100000000e-04 0.0000e+00 1.0000e+00
       11  1    5    5    0    0 +1.2386145428e+01 -2.4116545406e+01 +1.2571330942e+01 2.9884155045e+01 5.1100000000e-04 0.0000e+00 -1.0000e+00
      -12  1    5    5    0    0 -8.6999371304e+00 +3.1524853288e+01 -6.4315953090e+00 3.3329726959e+01 0.0000000000e+00 0.0000e+00 1.0000e+00
       12  1    3    3    0    0 -5.3779085935e+00 -1.0099962433e+01 -1.4823843193e+01 1.8726384301e+01 0.0000000000e+00 0.0000e+00 -1.0000e+00
</event>
<event>
 8      4 +1.0086356e-04 9.11880000e+01 7.81616400e-03 1.18400000e-01
      -11 -1    0    0    0    0 +0.0000000000e+00 +0.0000000000e+00 +4.5593999997e+01 4.5594000000e+01 5.1100000000e-04 0.0000e+00 -1.0000e+00
       11 -1    0    0    0    0 -0.0000000000e+00 -0.0000000000e+00 -4.5593999997e+01 4.5594000000e+01 5.1100000000e-04 0.0000e+00 1.0000e+00
       23  2    1    2    0    0 -2.6645352591e-15 -3.5527136788e-15 +0.0000000000e+00 9.1188000000e+01 9.1188000000e+01 1.2377e-13 0.0000e+00
 -9990012  2    3    3    0    0 -6.2732003030e+00 -7.2822501763e+00 -1.6071433405e+01 7.2461676779e+01 7.0000138716e+01 1.4277e-05 0.0000e+00
      -11  1    4    4    0    0 -7.6613731187e+00 -1.8968994874e+01 -1.2522294590e+01 2.3985980627e+01 5.1100000000e-04 0.0000e+00 1.0000e+00
       11  1    4    4    0    0 -1.6827217478e+01 -7.2966399483e+00 +7.6623580610e+00 1.9877322101e+01 5.1100000000e-04 0.0000e+00 -1.0000e+00
      -12  1    4    4    0    0 +1.8215390293e+01 +1.8983384646e+01 -1.1211496876e+01 2.8598374051e+01 0.0000000000e+00 0.0000e+00 1.0000e+00
       12  1    3    3    0    0 +6.2732003030e+00 +7.2822501763e+00 +1.6071433405e+01 1.8726323221e+01 0.0000000000e+00 0.0000e+00 -1.0000e+00
</event>
<event>
 8      3 +1.0086356e-04 9.11880000e+01 7.81616400e-03 1.18400000e-01
      -11 -1    0    0    0    0 +0.0000000000e+00 +0.0000000000e+00 +4.5593999997e+01 4.5594000000e+01 5.1100000000e-04 0.0000e+00 -1.0000e+00
       11 -1    0    0    0    0 -0.0000000000e+00 -0.0000000000e+00 -4.5593999997e+01 4.5594000000e+01 5.1100000000e-04 0.0000e+00 1.0000e+00
       23  2    1    2    0    0 +1.7763568394e-15 +0.0000000000e+00 +3.1086244690e-15 9.1188000000e+01 9.1188000000e+01 3.1050e-13 0.0000e+00
  9990012  2    3    3    0    0 +1.4428264905e+01 -1.1596897216e+01 +2.8312221119e+00 7.2461583582e+01 7.0000017310e+01 1.6471e-04 0.0000e+00
      -11  1    4    4    0    0 -9.5746090156e+00 -1.0766550314e+00 -2.8695880924e+01 3.0270214834e+01 5.1100000000e-04 0.0000e+00 1.0000e+00
       11  1    4    4    0    0 +1.4503889602e+01 -9.6355435805e-01 +1.5415986296e+01 2.1188295928e+01 5.1100000000e-04 0.0000e+00 -1.0000e+00
       12  1    4    4    0    0 +9.4989843192e+00 -9.5566878263e+00 +1.6111116739e+01 2.1003072820e+01 0.0000000000e+00 0.0000e+00 -1.0000e+00
      -12  1    3    3    0    0 -1.4428264905e+01 +1.1596897216e+01 -2.8312221119e+00 1.8726416418e+01 0.0000000000e+00 0.0000e+00 1.0000e+00
</event>
<event>
 8      4 +1.0086356e-04 9.11880000e+01 7.81616400e-03 1.18400000e-01
      -11 -1    0    0    0    0 +0.0000000000e+00 +0.0000000000e+00 +4.5593999997e+01 4.5594000000e+01 5.1100000000e-04 0.0000e+00 -1.0000e+00
       11 -1    0    0    0    0 -0.0000000000e+00 -0.0000000000e+00 -4.5593999997e+01 4.5594000000e+01 5.1100000000e-04 0.0000e+00 1.0000e+00
       23  2    1    2    0    0 -3.5527136788e-15 -8.8817841970e-16 +0.0000000000e+00 9.1188000000e+01 9.1188000000e+01 9.0400e-15 0.0000e+00
 -9990012  2    3    3    0    0 +1.5874224879e+01 -2.0250468627e+00 -9.7256743195e+00 7.2461532868e+01 6.9999951245e+01 5.0336e-04 0.0000e+00
      -11  1    4    4    0    0 -1.1430949955e+01 -1.1799594103e+01 -1.9434541147e+01 2.5447955276e+01 5.1100000000e-04 0.0000e+00 1.0000e+00
       11  1    4    4    0    0 +1.6001932584e+01 -1.2325824653e+01 -4.2090926567e-01 2.0203092948e+01 5.1100000000e-04 0.0000e+00 -1.0000e+00
      -12  1    4    4    0    0 +1.1303242250e+01 +2.2100371893e+01 +1.0129776093e+01 2.6810484644e+01 0.0000000000e+00 0.0000e+00 1.0000e+00
       12  1    3    3    0    0 -1.5874224879e+01 +2.0250468627e+00 +9.7256743195e+00 1.8726467132e+01 0.0000000000e+00 0.0000e+00 -1.0000e+00
</event>
<event>
 9      3 +1.0086356e-04 9.11880000e+01 7.81616400e-03 1.18400000e-01
      -11 -1    0    0    0    0 +0.0000000000e+00 +0.0000000000e+00 +4.5593999997e+01 4.5594000000e+01 5.1100000000e-04 0.0000e+00 1.0000e+00
       11 -1    0    0    0    0 -0.0000000000e+00 -0.0000000000e+00 -4.5593999997e+01 4.5594000000e+01 5.1100000000e-04 0.0000e+00 -1.0000e+00
       23  2    1    2    0    0 +0.0000000000e+00 +8.8817841970e-16 +0.0000000000e+00 9.1188000000e+01 9.1188000000e+01 2.9561e-13 0.0000e+00
  9990012  2    3    3    0    0 -1.6842217412e+01 +7.4171500747e+00 -3.4644035467e+00 7.2461641717e+01 7.0000093042e+01 2.2052e-05 0.0000e+00
       24  2    4    4    0    0 -4.8406450771e-01 +1.1637889572e+01 -6.8400609359e-01 5.5340472989e+01 5.4096444377e+01 1.2228e-15 0.0000e+00
      -11  1    5    5    0    0 +1.1062141382e+00 +3.2861277654e+01 +5.1301547382e+00 3.3277706752e+01 5.1100000000e-04 0.0000e+00 1.0000e+00
       11  1    4    4    0    0 -1.6358152905e+01 -4.2207394972e+00 -2.7803974531e+00 1.7121168728e+01 5.1100000000e-04 0.0000e+00 -1.0000e+00
       12  1    5    5    0    0 -1.5902786459e+00 -2.1223388082e+01 -5.8141608318e+00 2.2062766237e+01 0.0000000000e+00 0.0000e+00 -1.0000e+00
      -12  1    3    3    0    0 +1.6842217412e+01 -7.4171500747e+00 +3.4644035467e+00 1.8726358283e+01 0.0000000000e+00 0.0000e+00 1.0000e+00
</event>
<event>
 8      4 +1.0086356e-04 9.11880000e+01 7.81616400e-03 1.18400000e-01
      -11 -1    0    0    0    0 +0.0000000000e+00 +0.0000000000e+00 +4.5593999997e+01 4.5594000000e+01 5.1100000000e-04 0.0000e+00 1.0000e+00
       11 -1    0    0    0    0 -0.0000000000e+00 -0.0000000000e+00 -4.5593999997e+01 4.5594000000e+01 5.1100000000e-04 0.0000e+00 -1.0000e+00
       23  2    1    2    0    0 +3.5527136788e-15 -1.7763568394e-15 +0.0000000000e+00 9.1188000000e+01 9.1188000000e+01 1.7429e-13 0.0000e+00
 -9990012  2    3    3    0    0 -1.6670480701e+01 -7.6804807106e+00 -3.7126453830e+00 7.2461589599e+01 7.0000025148e+01 1.1983e-04 0.0000e+00
      -11  1    4    4    0    0 +5.1011654864e+00 +1.7227608404e+01 +1.2449662769e+01 2.1858785052e+01 5.1100000000e-04 0.0000e+00 -1.0000e+00
       11  1    4    4    0    0 -3.0099335762e+01 -1.3282590920e+01 -1.5280474416e+01 3.6275199979e+01 5.1100000000e-04 0.0000e+00 1.0000e+00
      -12  1    4    4    0    0 +8.3276895743e+00 -1.1625498195e+01 -8.8183373656e-01 1.4327604568e+01 0.0000000000e+00 0.0000e+00 1.0000e+00
       12  1    3    3    0    0 +1.6670480701e+01 +7.6804807106e+00 +3.7126453830e+00 1.8726410401e+01 0.0000000000e+00 0.0000e+00 -1.0000e+00
</event>
<event>
 8      4 +1.0086356e-04 9.11880000e+01 7.81616400e-03 1.18400000e-01
      -11 -1    0    0    0    0 +0.0000000000e+00 +0.0000000000e+00 +4.5593999997e+01 4.5594000000e+01 5.1100000000e-04 0.0000e+00 1.0000e+00
       11 -1    0    0    0    0 -0.0000000000e+00 -0.0000000000e+00 -4.5593999997e+01 4.5594000000e+01 5.1100000000e-04 0.0000e+00 -1.0000e+00
       23  2    1    2    0    0 +1.7763568394e-15 -1.7763568394e-15 +3.5527136788e-15 9.1188000000e+01 9.1188000000e+01 8.5135e-14 0.0000e+00
 -9990012  2    3    3    0    0 +1.4474371065e+01 -7.9257953107e+00 +8.8517379000e+00 7.2461577147e+01 7.0000008927e+01 7.9923e-04 0.0000e+00
      -11  1    4    4    0    0 +8.6398165144e+00 +1.3549581386e+01 -7.8302971040e+00 1.7875993347e+01 5.1100000000e-04 0.0000e+00 1.0000e+00
       11  1    4    4    0    0 +1.8408403633e+01 -2.9911071004e+01 +5.0308758293e+00 3.5480293189e+01 5.1100000000e-04 0.0000e+00 -1.0000e+00
      -12  1    4    4    0    0 -1.2573849083e+01 +8.4356943071e+00 +1.1651159175e+01 1.9105290611e+01 0.0000000000e+00 0.0000e+00 1.0000e+00
       12  1    3    3    0    0 -1.4474371065e+01 +7.9257953107e+00 -8.8517379000e+00 1.8726422853e+01 0.0000000000e+00 0.0000e+00 -1.0000e+00
</event>
<event>
 8      3 +1.0086356e-04 9.11880000e+01 7.81616400e-03 1.18400000e-01
      -11 -1    0    0    0    0 +0.0000000000e+00 +0.0000000000e+00 +4.5593999997e+01 4.5594000000e+01 5.1100000000e-04 0.0000e+00 -1.0000e+00
       11 -1    0    0    0    0 -0.0000000000e+00 -0.0000000000e+00 -4.5593999997e+01 4.5594000000e+01 5.1100000000e-04 0.0000e+00 1.0000e+00
       23  2    1    2    0    0 +3.5527136788e-15 -1.7763568394e-15 -8.8817841970e-16 9.1188000000e+01 9.1188000000e+01 1.8334e-13 0.0000e+00
  9990012  2    3    3    0    0 -1.3836519242e+01 -1.1936550952e+01 -4.0918884549e+00 7.2461706601e+01 7.0000177564e+01 2.0146e-04 0.0000e+00
      -11  1    4    4    0    0 -1.4432321620e+01 +3.5939929699e+00 -1.8440655574e+01 2.3691063105e+01 5.1100000000e-04 0.0000e+00 1.0000e+00
       11  1    4    4    0    0 +8.7334882614e+00 -8.0865873985e+00 -1.3986067197e+01 1.8365097028e+01 5.1100000000e-04 0.0000e+00 -1.0000e+00
       12  1    4    4    0    0 -8.1376858834e+00 -7.4439565236e+00 +2.8334834316e+01 3.0405546467e+01 0.0000000000e+00 0.0000e+00 -1.0000e+00
      -12  1    3    3    0    0 +1.3836519242e+01 +1.1936550952e+01 +4.0918884549e+00 1.8726293399e+01 0.0000000000e+00 0.0000e+00 1.0000e+00
</event>
<event>
 8      3 +1.0086356e-04 9.11880000e+01 7.81616400e-03 1.18400000e-01
      -11 -1    0    0    0    0 +0.0000000000e+00 +0.0000000000e+00 +4.5593999997e+01 4.5594000000e+01 5.1100000000e-04 0.0000e+00 -1.0000e+00
       11 -1    0    0    0    0 -0.0000000000e+00 -0.0000000000e+00 -4.5593999997e+01 4.5594000000e+01 5.1100000000e-04 0.0000e+00 1.0000e+00
       23  2    1    2    0    0 -2.4424906542e-15 +8.8817841970e-16 -3.5527136788e-15 9.1188000000e+01 9.1188000000e+01 2.5204e-14 0.0000e+00
  9990012  2    3    3    0    0 -1.0890223236e+00 -6.7511397573e+00 +1.7433162635e+01 7.2461574364e+01 7.0000005301e+01 3.2276e-04 0.0000e+00
      -11  1    4    4    0    0 +1.6666023871e+01 +1.5572305867e+01 +5.5874323211e+00 2.3483450809e+01 5.1100000000e-04 0.0000e+00 1.0000e+00
       11  1    4    4    0    0 -1.0061593415e+01 -2.5667225564e+00 +2.2844108437e+01 2.5093366001e+01 5.1100000000e-04 0.0000e+00 -1.0000e+00
       12  1    4    4    0    0 -7.6934527801e+00 -1.9756723068e+01 -1.0998378123e+01 2.3884757553e+01 0.0000000000e+00 0.0000e+00 -1.0000e+00
      -12  1    3    3    0    0 +1.0890223236e+00 +6.7511397573e+00 -1.7433162635e+01 1.8726425636e+01 0.0000000000e+00 0.0000e+00 1.0000e+00
</event>
<event>
 9      4 +1.0086356e-04 9.11880000e+01 7.81616400e-03 1.18400000e-01
      -11 -1    0    0    0    0 +0.0000000000e+00 +0.0000000000e+00 +4.5593999997e+01 4.5594000000e+01 5.1100000000e-04 0.0000e+00 1.0000e+00
       11 -1    0    0    0    0 -0.0000000000e+00 -0.0000000000e+00 -4.5593999997e+01 4.5594000000e+01 5.1100000000e-04 0.0000e+00 -1.0000e+00
       23  2    1    2    0    0 +0.0000000000e+00 +0.0000000000e+00 +3.5527136788e-15 9.1188000000e+01 9.1188000000e+01 2.7746e-13 0.0000e+00
 -9990012  2    3    3    0    0 +1.0868481641e+01 -1.1026769987e+01 -1.0533961712e+01 7.2461604221e+01 7.0000044196e+01 1.2477e-04 0.0000e+00
      -24  2    4    4    0    0 +1.5412058911e+01 -7.0781061086e+00 -2.3153190876e+01 5.8480152730e+01 5.0953183116e+01 7.7197e-15 0.0000e+00
      -11  1    4    4    0    0 -4.5435772704e+00 -3.9486638782e+00 +1.2619229164e+01 1.3981451491e+01 5.1100000000e-04 0.0000e+00 1.0000e+00
       11  1    5    5    0    0 -1.0008209217e+01 +8.4444224881e+00 -2.5435105880e+01 2.8607990742e+01 5.1100000000e-04 0.0000e+00 -1.0000e+00
      -12  1    5    5    0    0 +2.5420268128e+01 -1.5522528597e+01 +2.2819150040e+00 2.9872161988e+01 0.0000000000e+00 0.0000e+00 1.0000e+00
       12  1    3    3    0    0 -1.0868481641e+01 +1.1026769987e+01 +1.0533961712e+01 1.8726395779e+01 0.0000000000e+00 0.0000e+00 -1.0000e+00
</event>
<event>
 8      3 +1.0086356e-04 9.11880000e+01 7.81616400e-03 1.18400000e-01
      -11 -1    0    0    0    0 +0.0000000000e+00 +0.0000000000e+00 +4.5593999997e+01 4.5594000000e+01 5.1100000000e-04 0.0000e+00 1.0000e+00
       11 -1    0    0    0    0 -0.0000000000e+00 -0.0000000000e+00 -4.5593999997e+01 4.5594000000e+01 5.1100000000e-04 0.0000e+00 -1.0000e+00
       23  2    1    2    0    0 +2.2204460493e-16 +0.0000000000e+00 -2.2204460493e-15 9.1188000000e+01 9.1188000000e+01 6.5734e-14 0.0000e+00
  9990012  2    3    3    0    0 +6.7763494188e-01 +1.8618792165e+01 -1.8870001220e+00 7.2461564668e+01 6.9999992671e+01 1.7529e-04 0.0000e+00
      -11  1    4    4    0    0 -1.1997002983e+01 -5.4841772400e+00 +1.6967624518e+01 2.1491965071e+01 5.1100000000e-04 0.0000e+00 1.0000e+00
       11  1    4    4    0    0 +2.2575090719e+01 +3.6153642050e+00 -1.6286983763e+01 2.8070828625e+01 5.1100000000e-04 0.0000e+00 -1.0000e+00
       12  1    4    4    0    0 -9.9004527947e+00 +2.0487605200e+01 -2.5676408766e+00 2.2898770972e+01 0.0000000000e+00 0.0000e+00 -1.0000e+00
      -12  1    3    3    0    0 -6.7763494188e-01 -1.8618792165e+01 +1.8870001220e+00 1.8726435332e+01 0.0000000000e+00 0.0000e+00 1.0000e+00
</event>
<event>
 9      4 +1.0086356e-04 9.11880000e+01 7.81616400e-03 1.18400000e-01
      -11 -1    0    0    0    0 +0.0000000000e+00 +0.0000000000e+00 +4.5593999997e+01 4.5594000000e+01 5.1100000000e-04 0.0000e+00 1.0000e+00
       11 -1    0    0    0    0 -0.0000000000e+00 -0.0000000000e+00 -4.5593999997e+01 4.5594000000e+01 5.1100000000e-04 0.0000e+00 -1.0000e+00
       23  2    1    2    0    0 +4.4408920985e-16 +3.5527136788e-15 +8.8817841970e-16 9.1188000000e+01 9.1188000000e+01 1.1893e-13 0.0000e+00
 -9990012  2    3    3    0    0 -2.4340683501e+00 -1.7883120222e+01 +4.9946964516e+00 7.2461610325e+01 7.0000052148e+01 6.3426e-04 0.0000e+00
      -24  2    4    4    0    0 -8.5556186312e+00 -1.9339881181e+01 +1.4342767351e+01 6.1192983074e+01 5.5602487246e+01 2.2292e-13 0.0000e+00
      -11  1    4    4    0    0 +6.1215502811e+00 +1.4567609586e+00 -9.3480708993e+00 1.1268627252e+01 5.1100000000e-04 0.0000e+00 1.0000e+00
       11  1    5    5    0    0 +6.5724421546e-01 +1.9071145424e+01 +9.7424075999e+00 2.1425570327e+01 5.1100000000e-04 0.0000e+00 -1.0000e+00
      -12  1    5    5    0    0 -9.2128628467e+00 -3.8411026605e+01 +4.6003597511e+00 3.9767412746e+01 0.0000000000e+00 0.0000e+00 1.0000e+00
       12  1    3    3    0    0 +2.4340683501e+00 +1.7883120222e+01 -4.9946964516e+00 1.8726389675e+01 0.0000000000e+00 0.0000e+00 -1.0000e+00
</event>
<event>
 8      4 +1.0086356e-04 9.11880000e+01 7.81616400e-03 1.18400000e-01
      -11 -1    0    0    0    0 +0.0000000000e+00 +0.0000000000e+00 +4.5593999997e+01 4.5594000000e+01 5.1100000000e-04 0.0000e+00 1.0000e+00
       11 -1    0    0    0    0 -0.0000000000e+00 -0.0000000000e+00 -4.5593999997e+01 4.5594000000e+01 5.1100000000e-04 0.0000e+00 -1.0000e+00
       23  2    1    2    0    0 +0.0000000000e+00 +5.3290705182e-15 -1.7763568394e-15 9.1188000000e+01 9.1188000000e+01 2.6834e-14 0.0000e+00
 -9990012  2    3    3    0    0 -1.7011803947e+01 -5.9113513725e+00 -5.1316628075e+00 7.2461561156e+01 6.9999988096e+01 4.7979e-05 0.0000e+00
      -11  1    4    4    0    0 +8.3961333402e+00 +1.5199562158e+00 -1.1841084090e+01 1.4595088032e+01 5.1100000000e-04 0.0000e+00 1.0000e+00
       11  1    4    4    0    0 -2.1612646076e+01 +1.9202733327e+01 -3.4347676274e+00 2.9114413381e+01 5.1100000000e-04 0.0000e+00 -1.0000e+00
      -12  1    4    4    0    0 -3.7952912113e+00 -2.6634040915e+01 +1.0144188910e+01 2.8752059743e+01 0.0000000000e+00 0.0000e+00 1.0000e+00
       12  1    3    3    0    0 +1.7011803947e+01 +5.9113513725e+00 +5.1316628075e+00 1.8726438844e+01 0.0000000000e+00 0.0000e+00 -1.0000e+00
</event>
<event>
 9      3 +1.0086356e-04 9.11880000e+01 7.81616400e-03 1.18400000e-01
      -11 -1    0    0    0    0 +0.0000000000e+00 +0.0000000000e+00 +4.5593999997e+01 4.5594000000e+01 5.1100000000e-04 0.0000e+00 1.0000e+00
       11 -1    0    0    0    0 -0.0000000000e+00 -0.0000000000e+00 -4.5593999997e+01 4.5594000000e+01 5.1100000000e-04 0.0000e+00 -1.0000e+00
       23  2    1    2    0    0 +0.0000000000e+00 -9.2287288922e-16 +3.5527136788e-15 9.1188000000e+01 9.1188000000e+01 8.2405e-14 0.0000e+00
  9990012  2    3    3    0    0 -9.4694028247e+00 +3.1926530635e-02 -1.6155823460e+01 7.2461514990e+01 6.9999927956e+01 2.4297e-04 0.0000e+00
       24  2    4    4    0    0 -1.3153969812e+01 +2.0777591265e+00 -1.8592734419e+01 6.7593250394e+01 6.3606711287e+01 1.5142e-13 0.0000e+00
      -11  1    5    5    0    0 +1.2581895754e+01 -7.0031559467e+00 +1.7296718842e+01 2.2506105326e+01 5.1100000000e-04 0.0000e+00 1.0000e+00
       11  1    4    4    0    0 +3.6845669878e+00 -2.0458325959e+00 +2.4369109588e+00 4.8682645963e+00 5.1100000000e-04 0.0000e+00 -1.0000e+00
       12  1    5    5    0    0 -2.5735865566e+01 +9.0809150732e+00 -3.5889453261e+01 4.5087145068e+01 0.0000000000e+00 0.0000e+00 -1.0000e+00
      -12  1    3    3    0    0 +9.4694028247e+00 -3.1926530635e-02 +1.6155823460e+01 1.8726485010e+01 0.0000000000e+00 0.0000e+00 1.0000e+00
</event>
<event>
 9      3 +1.0086356e-04 9.11880000e+01 7.81616400e-03 1.18400000e-01
      -11 -1    0    0    0    0 +0.0000000000e+00 +0.0000000000e+00 +4.5593999997e+01 4.5594000000e+01 5.1100000000e-04 0.0000e+00 1.0000e+00
       11 -1    0    0    0    0 -0.0000000000e+00 -0.0000000000e+00 -4.5593999997e+01 4.5594000000e+01 5.1100000000e-04 0.0000e+00 -1.0000e+00
       23  2    1    2    0    0 -1.3322676296e-15 +0.0000000000e+00 +0.0000000000e+00 9.1188000000e+01 9.1188000000e+01 3.3826e-13 0.0000e+00
  9990012  2    3    3    0    0 +2.6800558768e+00 +5.4975316584e+00 -1.7699564908e+01 7.2461544068e+01 6.9999965835e+01 8.6796e-05 0.0000e+00
       23  2    4    4    0    0 -4.1701850494e+00 +1.0533208037e+00 -2.4482806817e+01 6.1846027987e+01 5.6630587319e+01 2.7712e-13 0.0000e+00
      -11  1    5    5    0    0 +1.2081579054e+01 -1.5197233946e+01 -3.2202003608e+01 3.7601722150e+01 5.1100000000e-04 0.0000e+00 -1.0000e+00
       11  1    5    5    0    0 -1.6251764104e+01 +1.6250554750e+01 +7.7191967907e+00 2.4244305837e+01 5.1100000000e-04 0.0000e+00 1.0000e+00
       12  1    4    4    0    0 +6.8502409262e+00 +4.4442108547e+00 +6.7832419088e+00 1.0615516081e+01 0.0000000000e+00 0.0000e+00 -1.0000e+00
      -12  1    3    3    0    0 -2.6800558768e+00 -5.4975316584e+00 +1.7699564908e+01 1.8726455932e+01 0.0000000000e+00 0.0000e+00 1.0000e+00
</event>
<event>
 9      4 +1.0086356e-04 9.11880000e+01 7.81616400e-03 1.18400000e-01
      -11 -1    0    0    0    0 +0.0000000000e+00 +0.0000000000e+00 +4.5593999997e+01 4.5594000000e+01 5.1100000000e-04 0.0000e+00 -1.0000e+00
       11 -1    0    0    0    0 -0.0000000000e+00 -0.0000000000e+00 -4.5593999997e+01 4.5594000000e+01 5.1100000000e-04 0.0000e+00 1.0000e+00
       23  2    1    2    0    0 +0.0000000000e+00 -8.8817841970e-16 +1.4641066137e-15 9.1188000000e+01 9.1188000000e+01 7.1419e-14 0.0000e+00
 -9990012  2    3    3    0    0 -1.7946376764e+01 +5.3481795210e+00 -2.2279361526e-02 7.2461656002e+01 7.0000111650e+01 1.5382e-05 0.0000e+00
      -24  2    4    4    0    0 -9.4819248200e+00 +9.7111233030e+00 -1.3015357324e+01 5.6352580909e+01 5.3122509680e+01 2.7750e-13 0.0000e+00
      -11  1    4    4    0    0 -8.4644519444e+00 -4.3629437820e+00 +1.2993077962e+01 1.6109075093e+01 5.1100000000e-04 0.0000e+00 -1.0000e+00
       11  1    5    5    0    0 -1.1924073484e+01 +2.9666260695e+01 -1.6451173194e+01 3.5957080691e+01 5.1100000000e-04 0.0000e+00 1.0000e+00
      -12  1    5    5    0    0 +2.4421486643e+00 -1.9955137392e+01 +3.4358158705e+00 2.0395500218e+01 0.0000000000e+00 0.0000e+00 1.0000e+00
       12  1    3    3    0    0 +1.7946376764e+01 -5.3481795210e+00 +2.2279361526e-02 1.8726343998e+01 0.0000000000e+00 0.0000e+00 -1.0000e+00
</event>
<event>
 9      3 +1.0086356e-04 9.11880000e+01 7.81616400e-03 1.18400000e-01
      -11 -1    0    0    0    0 +0.0000000000e+00 +0.0000000000e+00 +4.5593999997e+01 4.5594000000e+01 5.1100000000e-04 0.0000e+00 -1.0000e+00
       11 -1    0    0    0    0 -0.0000000000e+00 -0.0000000000e+00 -4.5593999997e+01 4.5594000000e+01 5.1100000000e-04 0.0000e+00 1.0000e+00
       23  2    1    2    0    0 +3.5527136788e-15 +0.0000000000e+00 +8.8817841970e-16 9.1188000000e+01 9.1188000000e+01 2.7250e-14 0.0000e+00
  9990012  2    3    3    0    0 -9.7321480636e+00 -1.5511305482e+01 -3.9199810012e+00 7.2461506608e+01 6.9999917037e+01 4.1393e-05 0.0000e+00
       24  2    4    4    0    0 -6.8943341817e+00 -2.6277993146e+01 -1.3134172826e+01 5.8008960738e+01 4.9542590390e+01 3.9151e-14 0.0000e+00
      -11  1    5    5    0    0 -1.8423495983e+01 -3.3274979534e+01 -1.9893950293e+01 4.2923405337e+01 5.1100000000e-04 0.0000e+00 1.0000e+00
       11  1    4    4    0    0 -2.8378138819e+00 +1.0766687664e+01 +9.2141918251e+00 1.4452545870e+01 5.1100000000e-04 0.0000e+00 -1.0000e+00
       12  1    5    5    0    0 +1.1529161802e+01 +6.9969863879e+00 +6.7597774667e+00 1.5085555401e+01 0.0000000000e+00 0.0000e+00 -1.0000e+00
      -12  1    3    3    0    0 +9.7321480636e+00 +1.5511305482e+01 +3.9199810012e+00 1.8726493392e+01 0.0000000000e+00 0.0000e+00 1.0000e+00
</event>
<event>
 9      4 +1.0086356e-04 9.11880000e+01 7.81616400e-03 1.18400000e-01
      -11 -1    0    0    0    0 +0.0000000000e+00 +0.0000000000e+00 +4.5593999997e+01 4.5594000000e+01 5.1100000000e-04 0.0000e+00 -1.0000e+00
       11 -1    0    0    0    0 -0.0000000000e+00 -0.0000000000e+00 -4.5593999997e+01 4.5594000000e+01 5.1100000000e-04 0.0000e+00 1.0000e+00
       23  2    1    2    0    0 +1.7763568394e-15 +2.2204460493e-15 -1.7763568394e-15 9.1188000000e+01 9.1188000000e+01 9.4902e-14 0.0000e+00
 -9990012  2    3    3    0    0 +1.5605751485e+01 -2.6461802515e+00 -1.0006727508e+01 7.2461645717e+01 7.0000098252e+01 1.0653e-04 0.0000e+00
      -24  2    4    4    0    0 +4.1177305019e+00 -9.8370531401e+00 -1.9422384907e+01 5.5958982795e+01 5.1385361738e+01 1.0517e-13 0.0000e+00
      -11  1    4    4    0    0 +1.1488020983e+01 +7.1908728886e+00 +9.4156573991e+00 1.6502662922e+01 5.1100000000e-04 0.0000e+00 1.0000e+00
       11  1    5    5    0    0 +1.8185169904e+01 +7.8036002199e+00 +7.2031941970e+00 2.1059026277e+01 5.1100000000e-04 0.0000e+00 -1.0000e+00
      -12  1    5    5    0    0 -1.4067439402e+01 -1.7640653360e+01 -2.6625579104e+01 3.4899956518e+01 0.0000000000e+00 0.0000e+00 1.0000e+00
       12  1    3    3    0    0 -1.5605751485e+01 +2.6461802515e+00 +1.0006727508e+01 1.8726354283e+01 0.0000000000e+00 0.0000e+00 -1.0000e+00
</event>
<event>
 9      3 +1.0086356e-04 9.11880000e+01 7.81616400e-03 1.18400000e-01
      -11 -1    0    0    0    0 +0.0000000000e+00 +0.0000000000e+00 +4.5593999997e+01 4.5594000000e+01 5.1100000000e-04 0.0000e+00 -1.0000e+00
       11 -1    0    0    0    0 -0.0000000000e+00 -0.0000000000e+00 -4.5593999997e+01 4.5594000000e+01 5.1100000000e-04 0.0000e+00 1.0000e+00
       23  2    1    2    0    0 +0.0000000000e+00 +1.7763568394e-15 +4.1633363423e-16 9.1188000000e+01 9.1188000000e+01 1.4268e-14 0.0000e+00
  9990012  2    3    3    0    0 -1.6005604967e+01 -9.7184554452e+00 -2.0178253187e-01 7.2461855635e+01 7.0000371708e+01 2.6817e-04 0.0000e+00
       24  2    4    4    0    0 -1.4653626871e+01 -1.1109700038e+01 +3.8508117554e+00 6.7968869211e+01 6.5320626262e+01 6.1502e-14 0.0000e+00
      -11  1    5    5    0    0 -3.1826076403e+00 -1.9685069551e+00 -3.0441840900e+01 3.0670990996e+01 5.1100000000e-04 0.0000e+00 1.0000e+00
       11  1    4    4    0    0 -1.3519780954e+00 +1.3912445923e+00 -4.0525942873e+00 4.4929864238e+00 5.1100000000e-04 0.0000e+00 -1.0000e+00
       12  1    5    5    0    0 -1.1471019231e+01 -9.1411930824e+00 +3.4292652656e+01 3.7297878215e+01 0.0000000000e+00 0.0000e+00 -1.0000e+00
      -12  1    3    3    0    0 +1.6005604967e+01 +9.7184554452e+00 +2.0178253187e-01 1.8726144365e+01 0.0000000000e+00 0.0000e+00 1.0000e+00
</event>
<event>
 8      3 +1.0086356e-04 9.11880000e+01 7.81616400e-03 1.18400000e-01
      -11 -1    0    0    0    0 +0.0000000000e+00 +0.0000000000e+00 +4.5593999997e+01 4.5594000000e+01 5.1100000000e-04 0.0000e+00 -1.0000e+00
       11 -1    0    0    0    0 -0.0000000000e+00 -0.0000000000e+00 -4.5593999997e+01 4.5594000000e+01 5.1100000000e-04 0.0000e+00 1.0000e+00
       23  2    1    2    0    0 +1.7763568394e-15 +0.0000000000e+00 +4.4408920985e-16 9.1188000000e+01 9.1188000000e+01 1.2466e-14 0.0000e+00
  9990012  2    3    3    0    0 +1.0757840747e+01 -1.4930899667e+01 -3.4667418789e+00 7.2461516036e+01 6.9999929318e+01 6.4619e-04 0.0000e+00
      -11  1    4    4    0    0 -9.3418773929e+00 +2.3601279191e-01 +1.2969216361e+01 1.5985210306e+01 5.1100000000e-04 0.0000e+00 1.0000e+00
       11  1    4    4    0    0 -8.9978760302e+00 -1.7291259303e+01 +5.1767691198e+00 2.0168003374e+01 5.1100000000e-04 0.0000e+00 -1.0000e+00
       12  1    4    4    0    0 +2.9097594170e+01 +2.1243468436e+00 -2.1612727359e+01 3.6308302355e+01 0.0000000000e+00 0.0000e+00 -1.0000e+00
      -12  1    3    3    0    0 -1.0757840747e+01 +1.4930899667e+01 +3.4667418789e+00 1.8726483964e+01 0.0000000000e+00 0.0000e+00 1.0000e+00
</event>
<event>
 9      3 +1.0086356e-04 9.11880000e+01 7.81616400e-03 1.18400000e-01
      -11 -1    0    0    0    0 +0.0000000000e+00 +0.0000000000e+00 +4.5593999997e+01 4.5594000000e+01 5.1100000000e-04 0.0000e+00 1.0000e+00
       11 -1    0    0    0    0 -0.0000000000e+00 -0.0000000000e+00 -4.5593999997e+01 4.5594000000e+01 5.1100000000e-04 0.0000e+00 -1.0000e+00
       23  2    1    2    0    0 +0.0000000000e+00 +0.0000000000e+00 +3.5527136788e-15 9.1188000000e+01 9.1188000000e+01 5.5329e-14 0.0000e+00
  9990012  2    3    3    0    0 +8.1092543651e+00 -6.0883273464e+00 -1.5743306885e+01 7.2461562861e+01 6.9999990317e+01 2.0330e-04 0.0000e+00
       24  2    4    4    0    0 +5.7752684239e+00 -9.2360843381e+00 -1.4904182978e+01 6.8454070672e+01 6.5917874223e+01 2.1745e-14 0.0000e+00
      -11  1    5    5    0    0 +2.5777606434e+01 -2.3246370222e+01 +7.2740590773e+00 3.5465344460e+01 5.1100000000e-04 0.0000e+00 1.0000e+00
       11  1    4    4    0    0 +2.3339859412e+00 +3.1477569918e+00 -8.3912390753e-01 4.0074921892e+00 5.1100000000e-04 0.0000e+00 -1.0000e+00
       12  1    5    5    0    0 -2.0002338010e+01 +1.4010285884e+01 -2.2178242055e+01 3.2988726212e+01 0.0000000000e+00 0.0000e+00 -1.0000e+00
      -12  1    3    3    0    0 -8.1092543651e+00 +6.0883273464e+00 +1.5743306885e+01 1.8726437139e+01 0.0000000000e+00 0.0000e+00 1.0000e+00
</event>
<event>
 9      4 +1.0086356e-04 9.11880000e+01 7.81616400e-03 1.18400000e-01
      -11 -1    0    0    0    0 +0.0000000000e+00 +0.0000000000e+00 +4.5593999997e+01 4.5594000000e+01 5.1100000000e-04 0.0000e+00 1.0000e+00
       11 -1    0    0    0    0 -0.0000000000e+00 -0.0000000000e+00 -4.5593999997e+01 4.5594000000e+01 5.1100000000e-04 0.0000e+00 -1.0000e+00
       23  2    1    2    0    0 +0.0000000000e+00 +5.3290705182e-15 +0.0000000000e+00 9.1188000000e+01 9.1188000000e+01 1.4635e-14 0.0000e+00
 -9990012  2    3    3    0    0 -1.4661102775e+01 -1.0985965614e+01 +3.8781058142e+00 7.2461572691e+01 7.0000003122e+01 1.4054e-04 0.0000e+00
      -24  2    4    4    0    0 -1.7337823693e+01 -1.1666605069e+01 -3.6242999832e+00 6.4466937118e+01 6.0878080019e+01 1.3217e-15 0.0000e+00
      -11  1    4    4    0    0 +2.6767209179e+00 +6.8063945519e-01 +7.5024057974e+00 7.9946355733e+00 5.1100000000e-04 0.0000e+00 1.0000e+00
       11  1    5    5    0    0 -4.6861866297e+00 -3.6109850180e+01 +1.6187738759e+00 3.6448622118e+01 5.1100000000e-04 0.0000e+00 -1.0000e+00
      -12  1    5    5    0    0 -1.2651637063e+01 +2.4443245111e+01 -5.2430738590e+00 2.8018315000e+01 0.0000000000e+00 0.0000e+00 1.0000e+00
       12  1    3    3    0    0 +1.4661102775e+01 +1.0985965614e+01 -3.8781058142e+00 1.8726427309e+01 0.0000000000e+00 0.0000e+00 -1.0000e+00
</event>
<event>
 9      4 +1.0086356e-04 9.11880000e+01 7.81616400e-03 1.18400000e-01
      -11 -1    0    0    0    0 +0.0000000000e+00 +0.0000000000e+00 +4.5593999997e+01 4.5594000000e+01 5.1100000000e-04 0.0000e+00 -1.0000e+00
       11 -1    0    0    0    0 -0.0000000000e+00 -0.0000000000e+00 -4.5593999997e+01 4.5594000000e+01 5.1100000000e-04 0.0000e+00 1.0000e+00
       23  2    1    2    0    0 -3.5527136788e-15 -8.8817841970e-16 +4.4408920985e-16 9.1188000000e+01 9.1188000000e+01 6.7147e-14 0.0000e+00
 -9990012  2    3    3    0    0 +1.8519201907e+01 -5.7080612087e-01 -2.7192595030e+00 7.2461520588e+01 6.9999935249e+01 2.3622e-04 0.0000e+00
      -24  2    4    4    0    0 +9.3035907998e+00 -9.7703435297e+00 -1.6022775653e+01 5.3845868066e+01 4.9604755354e+01 1.9743e-13 0.0000e+00
      -11  1    4    4    0    0 +9.2156111074e+00 +9.1995374088e+00 +1.3303516150e+01 1.8615652522e+01 5.1100000000e-04 0.0000e+00 1.0000e+00
       11  1    5    5    0    0 +1.2645177798e+01 -1.8838590138e+01 +1.0950602855e+01 2.5193425791e+01 5.1100000000e-04 0.0000e+00 -1.0000e+00
      -12  1    5    5    0    0 -3.3415869981e+00 +9.0682466084e+00 -2.6973378508e+01 2.8652442275e+01 0.0000000000e+00 0.0000e+00 1.0000e+00
       12  1    3    3    0    0 -1.8519201907e+01 +5.7080612087e-01 +2.7192595030e+00 1.8726479412e+01 0.0000000000e+00 0.0000e+00 -1.0000e+00
</event>
<event>
 8      3 +1.0086356e-04 9.11880000e+01 7.81616400e-03 1.18400000e-01
      -11 -1    0    0    0    0 +0.0000000000e+00 +0.0000000000e+00 +4.5593999997e+01 4.5594000000e+01 5.1100000000e-04 0.0000e+00 -1.0000e+00
       11 -1    0    0    0    0 -0.0000000000e+00 -0.0000000000e+00 -4.5593999997e+01 4.5594000000e+01 5.1100000000e-04 0.0000e+00 1.0000e+00
       23  2    1    2    0    0 +0.0000000000e+00 +0.0000000000e+00 +0.0000000000e+00 9.1188000000e+01 9.1188000000e+01 1.9244e-14 0.0000e+00
  9990012  2    3    3    0    0 +1.1891190005e+01 -1.2915298242e+01 +6.5181537454e+00 7.2461236888e+01 6.9999565675e+01 3.6992e-05 0.0000e+00
      -11  1    4    4    0    0 +2.4902200516e+01 -2.6540099771e+00 +5.7341771005e+00 2.5691324348e+01 5.1100000000e-04 0.0000e+00 -1.0000e+00
       11  1    4    4    0    0 -2.5783635857e+00 -2.6950517993e+01 +8.8204191647e-01 2.7087937852e+01 5.1100000000e-04 0.0000e+00 1.0000e+00
       12  1    4    4    0    0 -1.0432646925e+01 +1.6689229729e+01 -9.8065271565e-02 1.9681974688e+01 0.0000000000e+00 0.0000e+00 -1.0000e+00
      -12  1    3    3    0    0 -1.1891190005e+01 +1.2915298242e+01 -6.5181537454e+00 1.8726763112e+01 0.0000000000e+00 0.0000e+00 1.0000e+00
</event>
<event>
 7      4 +1.0086356e-04 7.24615700e+01 7.81616400e-03 1.22670800e-01
      -11 -1    0    0    0    0 +0.0000000000e+00 +0.0000000000e+00 +4.5593999997e+01 4.5594000000e+01 5.1100000000e-04 0.0000e+00 -1.0000e+00
       11 -1    0    0    0    0 -0.0000000000e+00 -0.0000000000e+00 -4.5593999997e+01 4.5594000000e+01 5.1100000000e-04 0.0000e+00 1.0000e+00
 -9990012  2    1    2    0    0 +7.2160802088e+00 -1.7121665304e+01 +2.3357933902e+00 7.2461570358e+01 7.0000000083e+01 9.4926e-05 0.0000e+00
      -11  1    3    3    0    0 -1.0278445630e+01 -2.4276011950e+01 +1.7260746112e+01 3.1510388086e+01 5.1100000000e-04 0.0000e+00 1.0000e+00
       11  1    3    3    0    0 +7.7974247882e+00 -2.5156031541e+00 +9.7471364542e+00 1.2733214907e+01 5.1100000000e-04 0.0000e+00 -1.0000e+00
      -12  1    3    3    0    0 +9.6971010501e+00 +9.6699497998e+00 -2.4672089176e+01 2.8217967365e+01 0.0000000000e+00 0.0000e+00 1.0000e+00
       12  1    1    2    0    0 -7.2160802088e+00 +1.7121665304e+01 -2.3357933902e+00 1.8726429642e+01 0.0000000000e+00 0.0000e+00 -1.0000e+00
</event>
<event>
 9      4 +1.0086356e-04 9.11880000e+01 7.81616400e-03 1.18400000e-01
      -11 -1    0    0    0    0 +0.0000000000e+00 +0.0000000000e+00 +4.5593999997e+01 4.5594000000e+01 5.1100000000e-04 0.0000e+00 1.0000e+00
       11 -1    0    0    0    0 -0.0000000000e+00 -0.0000000000e+00 -4.5593999997e+01 4.5594000000e+01 5.1100000000e-04 0.0000e+00 -1.0000e+00
       23  2    1    2    0    0 -1.7763568394e-15 +0.0000000000e+00 +0.0000000000e+00 9.1188000000e+01 9.1188000000e+01 6.9795e-14 0.0000e+00
 -9990012  2    3    3    0    0 +1.4171388664e+01 -4.1799689588e+00 +1.1505605156e+01 7.2461565551e+01 6.9999993820e+01 4.2394e-04 0.0000e+00
      -24  2    4    4    0    0 +6.6643456204e+00 -1.3818941190e+01 +1.9509054271e+01 5.7856063884e+01 5.2262264508e+01 1.9635e-14 0.0000e+00
      -11  1    4    4    0    0 +7.5070430440e+00 +9.6389722315e+00 -8.0034491142e+00 1.4605501666e+01 5.1100000000e-04 0.0000e+00 1.0000e+00
       11  1    5    5    0    0 +2.0166986985e+01 -9.4456265493e+00 -1.0529416583e+01 2.4633226317e+01 5.1100000000e-04 0.0000e+00 -1.0000e+00
      -12  1    5    5    0    0 -1.3502641364e+01 -4.3733146410e+00 +3.0038470854e+01 3.3222837567e+01 0.0000000000e+00 0.0000e+00 1.0000e+00
       12  1    3    3    0    0 -1.4171388664e+01 +4.1799689588e+00 -1.1505605156e+01 1.8726434449e+01 0.0000000000e+00 0.0000e+00 -1.0000e+00
</event>
<event>
 9      3 +1.0086356e-04 9.11880000e+01 7.81616400e-03 1.18400000e-01
      -11 -1    0    0    0    0 +0.0000000000e+00 +0.0000000000e+00 +4.5593999997e+01 4.5594000000e+01 5.1100000000e-04 0.0000e+00 -1.0000e+00
       11 -1    0    0    0    0 -0.0000000000e+00 -0.0000000000e+00 -4.5593999997e+01 4.5594000000e+01 5.1100000000e-04 0.0000e+00 1.0000e+00
       23  2    1    2    0    0 -1.7763568394e-15 +0.0000000000e+00 +0.0000000000e+00 9.1188000000e+01 9.1188000000e+01 7.0013e-14 0.0000e+00
  9990012  2    3    3    0    0 -7.7942255726e+00 +4.2687039478e+00 +1.6483600118e+01 7.2461525198e+01 6.9999941253e+01 5.4391e-04 0.0000e+00
       24  2    4    4    0    0 -1.2456474336e+01 +9.3039070410e+00 +1.9222598098e+01 6.5072889064e+01 6.0193406402e+01 1.2815e-13 0.0000e+00
      -11  1    5    5    0    0 +8.3474691788e+00 +1.8628245163e+01 -1.4019952000e+01 2.4763901427e+01 5.1100000000e-04 0.0000e+00 1.0000e+00
       11  1    4    4    0    0 +4.6622487638e+00 -5.0352030932e+00 -2.7389979801e+00 7.3886361340e+00 5.1100000000e-04 0.0000e+00 -1.0000e+00
       12  1    5    5    0    0 -2.0803943515e+01 -9.3243381221e+00 +3.3242550099e+01 4.0308987636e+01 0.0000000000e+00 0.0000e+00 -1.0000e+00
      -12  1    3    3    0    0 +7.7942255726e+00 -4.2687039478e+00 -1.6483600118e+01 1.8726474802e+01 0.0000000000e+00 0.0000e+00 1.0000e+00
</event>
<event>
 8      4 +1.0086356e-04 9.11880000e+01 7.81616400e-03 1.18400000e-01
      -11 -1    0    0    0    0 +0.0000000000e+00 +0.0000000000e+00 +4.5593999997e+01 4.5594000000e+01 5.1100000000e-04 0.0000e+00 -1.0000e+00
       11 -1    0    0    0    0 -0.0000000000e+00 -0.0000000000e+00 -4.5593999997e+01 4.5594000000e+01 5.1100000000e-04 0.0000e+00 1.0000e+00
       23  2    1    2    0    0 +3.5527136788e-15 -1.7763568394e-15 +8.8817841970e-16 9.1188000000e+01 9.1188000000e+01 8.2531e-15 0.0000e+00
 -9990012  2    3    3    0    0 -1.6628389117e+01 +3.7187223420e+00 -7.7691282087e+00 7.2461239106e+01 6.9999568564e+01 2.0968e-04 0.0000e+00
      -11  1    4    4    0    0 +2.7210726299e+00 -1.5481869250e+01 -8.2238982946e+00 1.7740490838e+01 5.1100000000e-04 0.0000e+00 1.0000e+00
       11  1    4    4    0    0 -3.4830219560e+01 +1.0838576471e+01 +4.2404341598e+00 3.6723292563e+01 5.1100000000e-04 0.0000e+00 -1.0000e+00
      -12  1    4    4    0    0 +1.5480757814e+01 +8.3620151216e+00 -3.7856640739e+00 1.7997455705e+01 0.0000000000e+00 0.0000e+00 1.0000e+00
       12  1    3    3    0    0 +1.6628389117e+01 -3.7187223420e+00 +7.7691282087e+00 1.8726760894e+01 0.0000000000e+00 0.0000e+00 -1.0000e+00
</event>
<event>
 8      4 +1.0086356e-04 7.24615400e+01 7.81616400e-03 1.22670800e-01
      -11 -1    0    0    0    0 +0.0000000000e+00 +0.0000000000e+00 +4.5593999997e+01 4.5594000000e+01 5.1100000000e-04 0.0000e+00 1.0000e+00
       11 -1    0    0    0    0 -0.0000000000e+00 -0.0000000000e+00 -4.5593999997e+01 4.5594000000e+01 5.1100000000e-04 0.0000e+00 -1.0000e+00
 -9990012  2    1    2    0    0 +1.0414587738e+01 -1.1465882607e+00 +1.5521019527e+01 7.2461538788e+01 6.9999958957e+01 2.9993e-05 0.0000e+00
      -24  2    3    3    0    0 +6.8070733386e+00 +4.4017233884e-01 +2.8759939413e+01 5.8648466380e+01 5.0655488297e+01 4.0698e-13 0.0000e+00
      -11  1    3    3    0    0 +3.6075143990e+00 -1.5867605996e+00 -1.3238919886e+01 1.3813072408e+01 5.1100000000e-04 0.0000e+00 1.0000e+00
       11  1    4    4    0    0 -1.4335028499e+01 +1.8410987810e+01 +1.2116257048e+01 2.6291846632e+01 5.1100000000e-04 0.0000e+00 -1.0000e+00
      -12  1    4    4    0    0 +2.1142101838e+01 -1.7970815472e+01 +1.6643682365e+01 3.2356619748e+01 0.0000000000e+00 0.0000e+00 1.0000e+00
       12  1    1    2    0    0 -1.0414587738e+01 +1.1465882607e+00 -1.5521019527e+01 1.8726461212e+01 0.0000000000e+00 0.0000e+00 -1.0000e+00
</event>
<event>
 9      3 +1.0086356e-04 9.11880000e+01 7.81616400e-03 1.18400000e-01
      -11 -1    0    0    0    0 +0.0000000000e+00 +0.0000000000e+00 +4.5593999997e+01 4.5594000000e+01 5.1100000000e-04 0.0000e+00 1.0000e+00
       11 -1    0    0    0    0 -0.0000000000e+00 -0.0000000000e+00 -4.5593999997e+01 4.5594000000e+01 5.1100000000e-04 0.0000e+00 -1.0000e+00
       23  2    1    2    0    0 +1.7763568394e-15 +0.0000000000e+00 +1.7763568394e-15 9.1188000000e+01 9.1188000000e+01 4.6876e-14 0.0000e+00
  9990012  2    3    3    0    0 +1.0092916338e+01 +1.2637722125e+01 -9.4393078703e+00 7.2461561103e+01 6.9999988026e+01 2.9066e-04 0.0000e+00
       24  2    4    4    0    0 +9.0438865397e+00 +4.3490522837e-01 +8.0187716804e-02 5.6949307874e+01 5.6224871818e+01 1.6642e-15 0.0000e+00
      -11  1    5    5    0    0 -1.9591649884e+01 +1.2668123817e+01 +8.2670659966e+00 2.4751939049e+01 5.1100000000e-04 0.0000e+00 1.0000e+00
       11  1    4    4    0    0 +1.0490297986e+00 +1.2202816896e+01 -9.5194955871e+00 1.5512253228e+01 5.1100000000e-04 0.0000e+00 -1.0000e+00
       12  1    5    5    0    0 +2.8635536424e+01 -1.2233218589e+01 -8.1868782797e+00 3.2197368826e+01 0.0000000000e+00 0.0000e+00 -1.0000e+00
      -12  1    3    3    0    0 -1.0092916338e+01 -1.2637722125e+01 +9.4393078703e+00 1.8726438897e+01 0.0000000000e+00 0.0000e+00 1.0000e+00
</event>
<event>
 9      4 +1.0086356e-04 9.11880000e+01 7.81616400e-03 1.18400000e-01
      -11 -1    0    0    0    0 +0.0000000000e+00 +0.0000000000e+00 +4.5593999997e+01 4.5594000000e+01 5.1100000000e-04 0.0000e+00 1.0000e+00
       11 -1    0    0    0    0 -0.0000000000e+00 -0.0000000000e+00 -4.5593999997e+01 4.5594000000e+01 5.1100000000e-04 0.0000e+00 -1.0000e+00
       23  2    1    2    0    0 +3.5527136788e-15 +0.0000000000e+00 +8.8817841970e-16 9.1188000000e+01 9.1188000000e+01 3.1236e-14 0.0000e+00
 -9990012  2    3    3    0    0 -1.6156410065e+01 +9.1054090088e+00 -2.5964430921e+00 7.2461559438e+01 6.9999985858e+01 1.0316e-05 0.0000e+00
      -24  2    4    4    0    0 -9.8808528803e+00 -3.8963100267e+00 -3.1084294663e-01 5.7844744322e+01 5.6860402187e+01 5.7742e-14 0.0000e+00
      -11  1    4    4    0    0 -6.2755571843e+00 +1.3001719035e+01 -2.2856001455e+00 1.4616815116e+01 5.1100000000e-04 0.0000e+00 1.0000e+00
       11  1    5    5    0    0 +1.5993140563e+01 -8.6130146516e+00 -1.8453340257e+01 2.5893828093e+01 5.1100000000e-04 0.0000e+00 -1.0000e+00
      -12  1    5    5    0    0 -2.5873993443e+01 +4.7167046250e+00 +1.8142497310e+01 3.1950916229e+01 0.0000000000e+00 0.0000e+00 1.0000e+00
       12  1    3    3    0    0 +1.6156410065e+01 -9.1054090088e+00 +2.5964430921e+00 1.8726440562e+01 0.0000000000e+00 0.0000e+00 -1.0000e+00
</event>
<event>
 9      4 +1.0086356e-04 9.11880000e+01 7.81616400e-03 1.18400000e-01
      -11 -1    0    0    0    0 +0.0000000000e+00 +0.0000000000e+00 +4.5593999997e+01 4.5594000000e+01 5.1100000000e-04 0.0000e+00 -1.0000e+00
       11 -1    0    0    0    0 -0.0000000000e+00 -0.0000000000e+00 -4.5593999997e+01 4.5594000000e+01 5.1100000000e-04 0.0000e+00 1.0000e+00
       23  2    1    2    0    0 -1.7763568394e-15 +2.6645352591e-15 -1.7763568394e-15 9.1188000000e+01 9.1188000000e+01 6.6277e-14 0.0000e+00
 -9990012  2    3    3    0    0 +1.4898587088e+01 +5.4233878814e+00 -9.9647118806e+00 7.2461641139e+01 7.0000092288e+01 3.1400e-04 0.0000e+00
       23  2    4    4    0    0 +4.1263861623e+00 +1.4229247485e+01 -8.4422116395e+00 5.8465160040e+01 5.5923210338e+01 2.3448e-14 0.0000e+00
      -11  1    5    5    0    0 +2.6020036174e+01 +2.1442634078e+01 +5.5159722317e-01 3.3721404159e+01 5.1100000000e-04 0.0000e+00 1.0000e+00
       11  1    5    5    0    0 -2.1893650012e+01 -7.2133865937e+00 -8.9938088627e+00 2.4743755881e+01 5.1100000000e-04 0.0000e+00 -1.0000e+00
      -12  1    4    4    0    0 +1.0772200926e+01 -8.8058596033e+00 -1.5225002412e+00 1.3996481098e+01 0.0000000000e+00 0.0000e+00 1.0000e+00
       12  1    3    3    0    0 -1.4898587088e+01 -5.4233878814e+00 +9.9647118806e+00 1.8726358861e+01 0.0000000000e+00 0.0000e+00 -1.0000e+00
</event>
<event>
 8      3 +1.0086356e-04 9.11880000e+01 7.81616400e-03 1.18400000e-01
      -11 -1    0    0    0    0 +0.0000000000e+00 +0.0000000000e+00 +4.5593999997e+01 4.5594000000e+01 5.1100000000e-04 0.0000e+00 -1.0000e+00
       11 -1    0    0    0    0 -0.0000000000e+00 -0.0000000000e+00 -4.5593999997e+01 4.5594000000e+01 5.1100000000e-04 0.0000e+00 1.0000e+00
       23  2    1    2    0    0 -3.1086244690e-15 +0.0000000000e+00 +0.0000000000e+00 9.1188000000e+01 9.1188000000e+01 8.2482e-14 0.0000e+00
  9990012  2    3    3    0    0 +3.4082780858e+00 -1.6338882868e+01 +8.4910860608e+00 7.2461708446e+01 7.0000179968e+01 4.3737e-04 0.0000e+00
      -11  1    4    4    0    0 +1.7594233259e+01 -5.2757522544e+00 -1.0061428901e+01 2.0943327281e+01 5.1100000000e-04 0.0000e+00 1.0000e+00
       11  1    4    4    0    0 +1.0206527785e+01 -8.8927713529e+00 +2.2943077704e+01 2.6639057915e+01 5.1100000000e-04 0.0000e+00 -1.0000e+00
       12  1    4    4    0    0 -2.4392482958e+01 -2.1703592608e+00 -4.3905627424e+00 2.4879323250e+01 0.0000000000e+00 0.0000e+00 -1.0000e+00
      -12  1    3    3    0    0 -3.4082780858e+00 +1.6338882868e+01 -8.4910860608e+00 1.8726291554e+01 0.0000000000e+00 0.0000e+00 1.0000e+00
</event>
<event>
 8      3 +1.0086356e-04 9.11880000e+01 7.81616400e-03 1.18400000e-01
      -11 -1    0    0    0    0 +0.0000000000e+00 +0.0000000000e+00 +4.5593999997e+01 4.5594000000e+01 5.1100000000e-04 0.0000e+00 1.0000e+00
       11 -1    0    0    0    0 -0.0000000000e+00 -0.0000000000e+00 -4.5593999997e+01 4.5594000000e+01 5.1100000000e-04 0.0000e+00 -1.0000e+00
       23  2    1    2    0    0 -3.5527136788e-15 +8.8817841970e-16 +1.7763568394e-15 9.1188000000e+01 9.1188000000e+01 1.9865e-14 0.0000e+00
  9990012  2    3    3    0    0 +1.2785770701e+01 +7.5749387170e+00 -1.1394484605e+01 7.2461283566e+01 6.9999626482e+01 2.3961e-04 0.0000e+00
      -11  1    4    4    0    0 +1.9676888667e+01 +6.3462151179e+00 +1.8804634262e+01 2.7947605692e+01 5.1100000000e-04 0.0000e+00 -1.0000e+00
       11  1    4    4    0    0 -2.3609600043e+00 -1.4983379423e+01 -1.8926669308e+01 2.4254785145e+01 5.1100000000e-04 0.0000e+00 1.0000e+00
       12  1    4    4    0    0 -4.5301579618e+00 +1.6212103022e+01 -1.1272449559e+01 2.0258892729e+01 0.0000000000e+00 0.0000e+00 -1.0000e+00
      -12  1    3    3    0    0 -1.2785770701e+01 -7.5749387170e+00 +1.1394484605e+01 1.8726716434e+01 0.0000000000e+00 0.0000e+00 1.0000e+00
</event>
<event>
 8      4 +1.0086356e-04 9.11880000e+01 7.81616400e-03 1.18400000e-01
      -11 -1    0    0    0    0 +0.0000000000e+00 +0.0000000000e+00 +4.5593999997e+01 4.5594000000e+01 5.1100000000e-04 0.0000e+00 1.0000e+00
       11 -1    0    0    0    0 -0.0000000000e+00 -0.0000000000e+00 -4.5593999997e+01 4.5594000000e+01 5.1100000000e-04 0.0000e+00 -1.0000e+00
       23  2    1    2    0    0 +3.5527136788e-15 -1.7763568394e-15 -1.7763568394e-15 9.1188000000e+01 9.1188000000e+01 8.9479e-14 0.0000e+00
 -9990012  2    3    3    0    0 -1.0634428427e+01 -1.1165666192e+01 +1.0626080790e+01 7.2461634564e+01 7.0000083723e+01 2.6368e-04 0.0000e+00
      -11  1    4    4    0    0 +3.6152170089e+00 -1.6370319296e+01 +2.3308146859e+01 2.8711092946e+01 5.1100000000e-04 0.0000e+00 1.0000e+00
       11  1    4    4    0    0 -5.4969908353e+00 +2.0035146810e+01 +2.3290631244e+00 2.0905706189e+01 5.1100000000e-04 0.0000e+00 -1.0000e+00
      -12  1    4    4    0    0 -8.7526546011e+00 -1.4830493706e+01 -1.5011129193e+01 2.2844835429e+01 0.0000000000e+00 0.0000e+00 1.0000e+00
       12  1    3    3    0    0 +1.0634428427e+01 +1.1165666192e+01 -1.0626080790e+01 1.8726365436e+01 0.0000000000e+00 0.0000e+00 -1.0000e+00
</event>
<event>
 9      4 +1.0086356e-04 9.11880000e+01 7.81616400e-03 1.18400000e-01
      -11 -1    0    0    0    0 +0.0000000000e+00 +0.0000000000e+00 +4.5593999997e+01 4.5594000000e+01 5.1100000000e-04 0.0000e+00 -1.0000e+00
       11 -1    0    0    0    0 -0.0000000000e+00 -0.0000000000e+00 -4.5593999997e+01 4.5594000000e+01 5.1100000000e-04 0.0000e+00 1.0000e+00
       23  2    1    2    0    0 +3.5527136788e-15 +1.7763568394e-15 -2.2204460493e-16 9.1188000000e+01 9.1188000000e+01 9.1793e-14 0.0000e+00
 -9990012  2    3    3    0    0 +1.5148451917e+01 -1.1000463449e+01 -4.4121161314e-01 7.2461535858e+01 6.9999955140e+01 1.7432e-04 0.0000e+00
      -24  2    4    4    0    0 +1.4924171709e+01 -1.2818740718e+01 -2.2294415393e+00 6.9901418601e+01 6.7038697020e+01 1.7465e-13 0.0000e+00
      -11  1    4    4    0    0 +2.2428020734e-01 +1.8182772689e+00 +1.7882299261e+00 2.5601172567e+00 5.1100000000e-04 0.0000e+00 1.0000e+00
       11  1    5    5    0    0 +1.2534830026e+01 -8.2241894451e-02 +3.1427943822e+01 3.3835549067e+01 5.1100000000e-04 0.0000e+00 -1.0000e+00
      -12  1    5    5    0    0 +2.3893416840e+00 -1.2736498823e+01 -3.3657385361e+01 3.6065869535e+01 0.0000000000e+00 0.0000e+00 1.0000e+00
       12  1    3    3    0    0 -1.5148451917e+01 +1.1000463449e+01 +4.4121161314e-01 1.8726464142e+01 0.0000000000e+00 0.0000e+00 -1.0000e+00
</event>
<event>
 8      4 +1.0086356e-04 9.11880000e+01 7.81616400e-03 1.18400000e-01
      -11 -1    0    0    0    0 +0.0000000000e+00 +0.0000000000e+00 +4.5593999997e+01 4.5594000000e+01 5.1100000000e-04 0.0000e+00 -1.0000e+00
       11 -1    0    0    0    0 -0.0000000000e+00 -0.0000000000e+00 -4.5593999997e+01 4.5594000000e+01 5.1100000000e-04 0.0000e+00 1.0000e+00
       23  2    1    2    0    0 +5.3290705182e-15 +1.7763568394e-15 +0.0000000000e+00 9.1188000000e+01 9.1188000000e+01 1.8826e-13 0.0000e+00
 -9990012  2    3    3    0    0 -1.0235925770e+01 -1.3163416163e+01 -8.5222830844e+00 7.2461574542e+01 7.0000005534e+01 2.4370e-04 0.0000e+00
      -11  1    4    4    0    0 +2.2485181489e+01 -4.6617760700e+00 -8.8135589306e+00 2.4596633184e+01 5.1100000000e-04 0.0000e+00 1.0000e+00
       11  1    4    4    0    0 -5.5491817788e+00 +1.1069285036e+01 -6.0534329512e+00 1.3782834991e+01 5.1100000000e-04 0.0000e+00 -1.0000e+00
      -12  1    4    4    0    0 -2.7171925480e+01 -1.9570925129e+01 +6.3447087974e+00 3.4082106367e+01 0.0000000000e+00 0.0000e+00 1.0000e+00
       12  1    3    3    0    0 +1.0235925770e+01 +1.3163416163e+01 +8.5222830844e+00 1.8726425458e+01 0.0000000000e+00 0.0000e+00 -1.0000e+00
</event>
<event>
 9      4 +1.0086356e-04 9.11880000e+01 7.81616400e-03 1.18400000e-01
      -11 -1    0    0    0    0 +0.0000000000e+00 +0.0000000000e+00 +4.5593999997e+01 4.5594000000e+01 5.1100000000e-04 0.0000e+00 -1.0000e+00
       11 -1    0    0    0    0 -0.0000000000e+00 -0.0000000000e+00 -4.5593999997e+01 4.5594000000e+01 5.1100000000e-04 0.0000e+00 1.0000e+00
       23  2    1    2    0    0 +1.7763568394e-15 +0.0000000000e+00 -1.7763568394e-15 9.1188000000e+01 9.1188000000e+01 5.7513e-14 0.0000e+00
 -9990012  2    3    3    0    0 -1.1599701418e+01 +1.0594963168e+01 -1.0191802056e+01 7.2461570904e+01 7.0000000794e+01 1.1690e-04 0.0000e+00
      -24  2    4    4    0    0 -1.5991862937e+01 +4.3576725724e+00 -8.1306868646e+00 6.4559477961e+01 6.1863471736e+01 3.9710e-14 0.0000e+00
      -11  1    4    4    0    0 +4.3921615192e+00 +6.2372905960e+00 -2.0611151915e+00 7.9020929432e+00 5.1100000000e-04 0.0000e+00 1.0000e+00
       11  1    5    5    0    0 -1.4330831319e+01 +2.2451072586e+00 +2.6294147216e+01 3.0029908608e+01 5.1100000000e-04 0.0000e+00 -1.0000e+00
      -12  1    5    5    0    0 -1.6610316185e+00 +2.1125653139e+00 -3.4424834081e+01 3.4529569353e+01 0.0000000000e+00 0.0000e+00 1.0000e+00
       12  1    3    3    0    0 +1.1599701418e+01 -1.0594963168e+01 +1.0191802056e+01 1.8726429096e+01 0.0000000000e+00 0.0000e+00 -1.0000e+00
</event>
<event>
 9      4 +1.0086356e-04 9.11880000e+01 7.81616400e-03 1.18400000e-01
      -11 -1    0    0    0    0 +0.0000000000e+00 +0.0000000000e+00 +4.5593999997e+01 4.5594000000e+01 5.1100000000e-04 0.0000e+00 1.0000e+00
       11 -1    0    0    0    0 -0.0000000000e+00 -0.0000000000e+00 -4.5593999997e+01 4.5594000000e+01 5.1100000000e-04 0.0000e+00 -1.0000e+00
       23  2    1    2    0    0 -8.3266726847e-16 +1.7763568394e-15 +0.0000000000e+00 9.1188000000e+01 9.1188000000e+01 2.0579e-15 0.0000e+00
 -9990012  2    3    3    0    0 -3.8872138437e-01 +1.5747654323e+01 +1.0126147929e+01 7.2461585691e+01 7.0000020057e+01 5.7929e-05 0.0000e+00
      -24  2    4    4    0    0 +9.9593293323e-01 +1.9735470239e+01 +1.1419191428e+01 6.8046621919e+01 6.4105102400e+01 4.4099e-14 0.0000e+00
      -11  1    4    4    0    0 -1.3846543176e+00 -3.9878159156e+00 -1.2930434997e+00 4.4149637721e+00 5.1100000000e-04 0.0000e+00 1.0000e+00
       11  1    5    5    0    0 -2.7981855376e+01 +2.4566960337e+01 +2.3902230376e+00 3.7312637764e+01 5.1100000000e-04 0.0000e+00 -1.0000e+00
      -12  1    5    5    0    0 +2.8977788309e+01 -4.8314900979e+00 +9.0289683908e+00 3.0733984155e+01 0.0000000000e+00 0.0000e+00 1.0000e+00
       12  1    3    3    0    0 +3.8872138437e-01 -1.5747654323e+01 -1.0126147929e+01 1.8726414309e+01 0.0000000000e+00 0.0000e+00 -1.0000e+00
</event>
<event>
 8      4 +1.0086356e-04 9.11880000e+01 7.81616400e-03 1.18400000e-01
      -11 -1    0    0    0    0 +0.0000000000e+00 +0.0000000000e+00 +4.5593999997e+01 4.5594000000e+01 5.1100000000e-04 0.0000e+00 -1.0000e+00
       11 -1    0    0    0    0 -0.0000000000e+00 -0.0000000000e+00 -4.5593999997e+01 4.5594000000e+01 5.1100000000e-04 0.0000e+00 1.0000e+00
       23  2    1    2    0    0 +4.4408920985e-16 -3.5527136788e-15 -1.7763568394e-15 9.1188000000e+01 9.1188000000e+01 1.5033e-13 0.0000e+00
 -9990012  2    3    3    0    0 +1.6467029754e+00 -1.5585961275e+01 +1.0249525295e+01 7.2461372212e+01 6.9999741961e+01 1.7542e-04 0.0000e+00
      -11  1    4    4    0    0 -1.0376665558e+01 +1.8466674763e+01 +7.0780354487e+00 2.2333648403e+01 5.1100000000e-04 0.0000e+00 1.0000e+00
       11  1    4    4    0    0 +2.3509830078e+01 -2.7060511448e+01 +6.1086773080e+00 3.6363433953e+01 5.1100000000e-04 0.0000e+00 -1.0000e+00
      -12  1    4    4    0    0 -1.1486461544e+01 -6.9921245886e+00 -2.9371874619e+00 1.3764289857e+01 0.0000000000e+00 0.0000e+00 1.0000e+00
       12  1    3    3    0    0 -1.6467029754e+00 +1.5585961275e+01 -1.0249525295e+01 1.8726627788e+01 0.0000000000e+00 0.0000e+00 -1.0000e+00
</event>
<event>
 9      4 +1.0086356e-04 9.11880000e+01 7.81616400e-03 1.18400000e-01
      -11 -1    0    0    0    0 +0.0000000000e+00 +0.0000000000e+00 +4.5593999997e+01 4.5594000000e+01 5.1100000000e-04 0.0000e+00 -1.0000e+00
       11 -1    0    0    0    0 -0.0000000000e+00 -0.0000000000e+00 -4.5593999997e+01 4.5594000000e+01 5.1100000000e-04 0.0000e+00 1.0000e+00
       23  2    1    2    0    0 -1.7763568394e-15 +0.0000000000e+00 +1.7763568394e-15 9.1188000000e+01 9.1188000000e+01 2.1694e-13 0.0000e+00
 -9990012  2    3    3    0    0 -9.2134777397e+00 +1.2106122429e+01 -1.0919364757e+01 7.2461577517e+01 7.0000009408e+01 2.0570e-04 0.0000e+00
      -24  2    4    4    0    0 -1.5952166351e+01 +7.0694906132e+00 -1.9426845355e+01 6.0496845567e+01 5.4571207558e+01 1.6154e-14 0.0000e+00
      -11  1    4    4    0    0 +6.7386886109e+00 +5.0366318153e+00 +8.5074805978e+00 1.1964731949e+01 5.1100000000e-04 0.0000e+00 1.0000e+00
       11  1    5    5    0    0 -3.6175546885e+01 +7.3191094127e+00 -1.4690905635e+01 3.9724831827e+01 5.1100000000e-04 0.0000e+00 -1.0000e+00
      -12  1    5    5    0    0 +2.0223380535e+01 -2.4961879942e-01 -4.7359397204e+00 2.0772013740e+01 0.0000000000e+00 0.0000e+00 1.0000e+00
       12  1    3    3    0    0 +9.2134777397e+00 -1.2106122429e+01 +1.0919364757e+01 1.8726422483e+01 0.0000000000e+00 0.0000e+00 -1.0000e+00
</event>
<event>
 8      3 +1.0086356e-04 9.11880000e+01 7.81616400e-03 1.18400000e-01
      -11 -1    0    0    0    0 +0.0000000000e+00 +0.0000000000e+00 +4.5593999997e+01 4.5594000000e+01 5.1100000000e-04 0.0000e+00 1.0000e+00
       11 -1    0    0    0    0 -0.0000000000e+00 -0.0000000000e+00 -4.5593999997e+01 4.5594000000e+01 5.1100000000e-04 0.0000e+00 -1.0000e+00
       23  2    1    2    0    0 -8.8817841970e-16 +8.8817841970e-16 +0.0000000000e+00 9.1188000000e+01 9.1188000000e+01 1.1708e-13 0.0000e+00
  9990012  2    3    3    0    0 -4.9432104009e+00 +5.9398269003e+00 -1.7057516257e+01 7.2461662036e+01 7.0000119510e+01 2.1793e-04 0.0000e+00
      -11  1    4    4    0    0 -9.9615973898e+00 +8.9665758718e+00 +1.3628483375e+01 1.9114613906e+01 5.1100000000e-04 0.0000e+00 1.0000e+00
       11  1    4    4    0    0 -2.7688163625e-01 -2.2152753520e+01 -8.8949672629e+00 2.3873449579e+01 5.1100000000e-04 0.0000e+00 -1.0000e+00
       12  1    4    4    0    0 +5.2952686252e+00 +1.9126004548e+01 -2.1791032369e+01 2.9473598550e+01 0.0000000000e+00 0.0000e+00 -1.0000e+00
      -12  1    3    3    0    0 +4.9432104009e+00 -5.9398269003e+00 +1.7057516257e+01 1.8726337964e+01 0.0000000000e+00 0.0000e+00 1.0000e+00
</event>
<event>
 9      3 +1.0086356e-04 9.11880000e+01 7.81616400e-03 1.18400000e-01
      -11 -1    0    0    0    0 +0.0000000000e+00 +0.0000000000e+00 +4.5593999997e+01 4.5594000000e+01 5.1100000000e-04 0.0000e+00 1.0000e+00
       11 -1    0    0    0    0 -0.0000000000e+00 -0.0000000000e+00 -4.5593999997e+01 4.5594000000e+01 5.1100000000e-04 0.0000e+00 -1.0000e+00
       23  2    1    2    0    0 +1.7763568394e-15 -3.5527136788e-15 -1.7763568394e-15 9.1188000000e+01 9.1188000000e+01 2.6210e-15 0.0000e+00
  9990012  2    3    3    0    0 +4.6795851733e+00 -1.3571677812e+01 -1.2024568621e+01 7.2461569305e+01 6.9999998712e+01 6.4688e-04 0.0000e+00
       24  2    4    4    0    0 +4.1917154044e+00 -1.7624079495e+01 -9.5275994712e+00 6.7676714918e+01 6.4507239395e+01 5.3658e-14 0.0000e+00
      -11  1    5    5    0    0 +2.7916002321e+01 -1.2571618199e+01 +1.4196420678e+01 3.3747401826e+01 5.1100000000e-04 0.0000e+00 1.0000e+00
       11  1    4    4    0    0 +4.8786976888e-01 +4.0524016830e+00 -2.4969691501e+00 4.7848543875e+00 5.1100000000e-04 0.0000e+00 -1.0000e+00
       12  1    5    5    0    0 -2.3724286916e+01 -5.0524612960e+00 -2.3724020149e+01 3.3929313092e+01 0.0000000000e+00 0.0000e+00 -1.0000e+00
      -12  1    3    3    0    0 -4.6795851733e+00 +1.3571677812e+01 +1.2024568621e+01 1.8726430695e+01 0.0000000000e+00 0.0000e+00 1.0000e+00
</event>
<event>
 8      3 +1.0086356e-04 9.11880000e+01 7.81616400e-03 1.18400000e-01
      -11 -1    0    0    0    0 +0.0000000000e+00 +0.0000000000e+00 +4.5593999997e+01 4.5594000000e+01 5.1100000000e-04 0.0000e+00 1.0000e+00
       11 -1    0    0    0    0 -0.0000000000e+00 -0.0000000000e+00 -4.5593999997e+01 4.5594000000e+01 5.1100000000e-04 0.0000e+00 -1.0000e+00
       23  2    1    2    0    0 +0.0000000000e+00 +0.0000000000e+00 +0.0000000000e+00 9.1188000000e+01 9.1188000000e+01 2.3741e-15 0.0000e+00
  9990012  2    3    3    0    0 +7.4126650130e+00 +4.3830142604e+00 -1.6628878423e+01 7.2461601141e+01 7.0000040184e+01 4.4438e-05 0.0000e+00
      -11  1    4    4    0    0 +1.6708006088e+00 +2.8410180459e+00 +8.3474463603e+00 8.9745651265e+00 5.1100000000e-04 0.0000e+00 1.0000e+00
       11  1    4    4    0    0 -1.3594635999e+01 +5.1469121823e+00 +1.3776957342e+01 2.0027715467e+01 5.1100000000e-04 0.0000e+00 -1.0000e+00
       12  1    4    4    0    0 +1.9336500403e+01 -3.6049159677e+00 -3.8753282125e+01 4.3459320548e+01 0.0000000000e+00 0.0000e+00 -1.0000e+00
      -12  1    3    3    0    0 -7.4126650130e+00 -4.3830142604e+00 +1.6628878423e+01 1.8726398859e+01 0.0000000000e+00 0.0000e+00 1.0000e+00
</event>
<event>
 9      4 +1.0086356e-04 9.11880000e+01 7.81616400e-03 1.18400000e-01
      -11 -1    0    0    0    0 +0.0000000000e+00 +0.0000000000e+00 +4.5593999997e+01 4.5594000000e+01 5.1100000000e-04 0.0000e+00 -1.0000e+00
       11 -1    0    0    0    0 -0.0000000000e+00 -0.0000000000e+00 -4.5593999997e+01 4.5594000000e+01 5.1100000000e-04 0.0000e+00 1.0000e+00
       23  2    1    2    0    0 +1.7763568394e-15 +1.7763568394e-15 -1.7763568394e-15 9.1188000000e+01 9.1188000000e+01 4.3963e-15 0.0000e+00
 -9990012  2    3    3    0    0 -9.4395926868e+00 +1.4250251144e+01 -7.6487474247e+00 7.2461577359e+01 7.0000009203e+01 4.9998e-04 0.0000e+00
      -24  2    4    4    0    0 -5.8321276784e+00 +1.1283653981e+01 -1.3316686003e+01 6.5117189671e+01 6.2462626459e+01 4.1839e-14 0.0000e+00
      -11  1    4    4    0    0 -3.6074650084e+00 +2.9665971636e+00 +5.6679385787e+00 7.3443876880e+00 5.1100000000e-04 0.0000e+00 1.0000e+00
       11  1    5    5    0    0 -4.5899299092e+00 +3.6241868820e+01 +5.5602221495e-01 3.6535594604e+01 5.1100000000e-04 0.0000e+00 -1.0000e+00
      -12  1    5    5    0    0 -1.2421977693e+00 -2.4958214839e+01 -1.3872708218e+01 2.8581595067e+01 0.0000000000e+00 0.0000e+00 1.0000e+00
       12  1    3    3    0    0 +9.4395926868e+00 -1.4250251144e+01 +7.6487474247e+00 1.8726422641e+01 0.0000000000e+00 0.0000e+00 -1.0000e+00
</event>
<event>
 9      4 +1.0086356e-04 9.11880000e+01 7.81616400e-03 1.18400000e-01
      -11 -1    0    0    0    0 +0.0000000000e+00 +0.0000000000e+00 +4.5593999997e+01 4.5594000000e+01 5.1100000000e-04 0.0000e+00 -1.0000e+00
       11 -1    0    0    0    0 -0.0000000000e+00 -0.0000000000e+00 -4.5593999997e+01 4.5594000000e+01 5.1100000000e-04 0.0000e+00 1.0000e+00
       23  2    1    2    0    0 -8.8817841970e-16 +0.0000000000e+00 -4.4408920985e-16 9.1188000000e+01 9.1188000000e+01 4.9032e-14 0.0000e+00
 -9990012  2    3    3    0    0 +4.4050634409e+00 -1.8078665848e+01 -2.1060079499e+00 7.2461601193e+01 7.0000040252e+01 1.0752e-04 0.0000e+00
      -24  2    4    4    0    0 +1.3235212412e+01 -2.7266925760e+01 +2.5089870768e+00 5.8908231487e+01 5.0450258996e+01 7.0665e-14 0.0000e+00
      -11  1    4    4    0    0 -8.8301489710e+00 +9.1882599116e+00 -4.6149950267e+00 1.3553369707e+01 5.1100000000e-04 0.0000e+00 1.0000e+00
       11  1    5    5    0    0 -1.5363779584e+01 -2.2709046522e+00 -1.0513817407e+01 1.8754815056e+01 5.1100000000e-04 0.0000e+00 -1.0000e+00
      -12  1    5    5    0    0 +2.8598991996e+01 -2.4996021108e+01 +1.3022804484e+01 4.0153416431e+01 0.0000000000e+00 0.0000e+00 1.0000e+00
       12  1    3    3    0    0 -4.4050634409e+00 +1.8078665848e+01 +2.1060079499e+00 1.8726398807e+01 0.0000000000e+00 0.0000e+00 -1.0000e+00
</event>
<event>
 8      4 +1.0086356e-04 9.11880000e+01 7.81616400e-03 1.18400000e-01
      -11 -1    0    0    0    0 +0.0000000000e+00 +0.0000000000e+00 +4.5593999997e+01 4.5594000000e+01 5.1100000000e-04 0.0000e+00 -1.0000e+00
       11 -1    0    0    0    0 -0.0000000000e+00 -0.0000000000e+00 -4.5593999997e+01 4.5594000000e+01 5.1100000000e-04 0.0000e+00 1.0000e+00
       23  2    1    2    0    0 -1.7763568394e-15 +0.0000000000e+00 -1.7763568394e-15 9.1188000000e+01 9.1188000000e+01 6.6414e-14 0.0000e+00
 -9990012  2    3    3    0    0 +1.5155653468e+01 +7.3515197425e+00 -8.1829378375e+00 7.2461036920e+01 6.9999305177e+01 2.5440e-04 0.0000e+00
      -11  1    4    4    0    0 +2.4877585263e+01 -1.2063572239e+01 -5.8243994638e+00 2.8255046506e+01 5.1100000000e-04 0.0000e+00 1.0000e+00
       11  1    4    4    0    0 +3.8035546282e+00 +2.6572154552e+01 -7.8189400490e+00 2.7958580956e+01 5.1100000000e-04 0.0000e+00 -1.0000e+00
      -12  1    4    4    0    0 -1.3525486423e+01 -7.1570625701e+00 +5.4604016753e+00 1.6247409457e+01 0.0000000000e+00 0.0000e+00 1.0000e+00
       12  1    3    3    0    0 -1.5155653468e+01 -7.3515197425e+00 +8.1829378375e+00 1.8726963080e+01 0.0000000000e+00 0.0000e+00 -1.0000e+00
</event>
<event>
 8      3 +1.0086356e-04 9.11880000e+01 7.81616400e-03 1.18400000e-01
      -11 -1    0    0    0    0 +0.0000000000e+00 +0.0000000000e+00 +4.5593999997e+01 4.5594000000e+01 5.1100000000e-04 0.0000e+00 1.0000e+00
       11 -1    0    0    0    0 -0.0000000000e+00 -0.0000000000e+00 -4.5593999997e+01 4.5594000000e+01 5.1100000000e-04 0.0000e+00 -1.0000e+00
       23  2    1    2    0    0 -3.5527136788e-15 -1.3322676296e-15 +0.0000000000e+00 9.1188000000e+01 9.1188000000e+01 1.6026e-13 0.0000e+00
  9990012  2    3    3    0    0 -1.8001892949e+01 -2.4077200590e+00 -4.5625143615e+00 7.2461499982e+01 6.9999908405e+01 6.1892e-04 0.0000e+00
      -11  1    4    4    0    0 -3.1575111072e+01 -9.6446037353e+00 -1.6245328749e+00 3.3055183069e+01 5.1100000000e-04 0.0000e+00 1.0000e+00
       11  1    4    4    0    0 +3.6639251714e+00 +2.1281774901e+01 -4.7849123100e+00 2.2118627369e+01 5.1100000000e-04 0.0000e+00 -1.0000e+00
       12  1    4    4    0    0 +9.9092929512e+00 -1.4044891225e+01 +1.8469308234e+00 1.7287689544e+01 0.0000000000e+00 0.0000e+00 -1.0000e+00
      -12  1    3    3    0    0 +1.8001892949e+01 +2.4077200590e+00 +4.5625143615e+00 1.8726500018e+01 0.0000000000e+00 0.0000e+00 1.0000e+00
</event>
<event>
 8      4 +1.0086356e-04 9.11880000e+01 7.81616400e-03 1.18400000e-01
      -11 -1    0    0    0    0 +0.0000000000e+00 +0.0000000000e+00 +4.5593999997e+01 4.5594000000e+01 5.1100000000e-04 0.0000e+00 -1.0000e+00
       11 -1    0    0    0    0 -0.0000000000e+00 -0.0000000000e+00 -4.5593999997e+01 4.5594000000e+01 5.1100000000e-04 0.0000e+00 1.0000e+00
       23  2    1    2    0    0 +1.7763568394e-15 +1.7763568394e-15 +3.5527136788e-15 9.1188000000e+01 9.1188000000e+01 1.7892e-13 0.0000e+00
 -9990012  2    3    3    0    0 -9.9197975502e+00 -8.3126157227e+00 -1.3534290736e+01 7.2461575106e+01 7.0000006268e+01 4.1391e-04 0.0000e+00
      -11  1    4    4    0    0 -5.6787176246e+00 -1.1159082703e+01 -3.8530897850e+01 4.0514232684e+01 5.1100000000e-04 0.0000e+00 1.0000e+00
       11  1    4    4    0    0 -1.0338944676e+01 -5.8931309407e-01 +6.6400291634e+00 1.2301668768e+01 5.1100000000e-04 0.0000e+00 -1.0000e+00
      -12  1    4    4    0    0 +6.0978647504e+00 +3.4357800741e+00 +1.8356577950e+01 1.9645673653e+01 0.0000000000e+00 0.0000e+00 1.0000e+00
       12  1    3    3    0    0 +9.9197975502e+00 +8.3126157227e+00 +1.3534290736e+01 1.8726424894e+01 0.0000000000e+00 0.0000e+00 -1.0000e+00
</event>
<event>
 9      4 +1.0086356e-04 9.11880000e+01 7.81616400e-03 1.18400000e-01
      -11 -1    0    0    0    0 +0.0000000000e+00 +0.0000000000e+00 +4.5593999997e+01 4.5594000000e+01 5.1100000000e-04 0.0000e+00 1.0000e+00
       11 -1    0    0    0    0 -0.0000000000e+00 -0.0000000000e+00 -4.5593999997e+01 4.5594000000e+01 5.1100000000e-04 0.0000e+00 -1.0000e+00
       23  2    1    2    0    0 -1.7763568394e-15 +0.0000000000e+00 +0.0000000000e+00 9.1188000000e+01 9.1188000000e+01 9.2946e-14 0.0000e+00
 -9990012  2    3    3    0    0 -6.9081153521e+00 -6.2296966512e+00 +1.6252635327e+01 7.2461565925e+01 6.9999994308e+01 1.1082e-04 0.0000e+00
      -24  2    4    4    0    0 -1.2808385064e+01 +6.7047433785e+00 +7.7474763183e+00 5.5895013732e+01 5.3434266712e+01 3.6069e-14 0.0000e+00
      -11  1    4    4    0    0 +5.9002697115e+00 -1.2934440030e+01 +8.5051590086e+00 1.6566552193e+01 5.1100000000e-04 0.0000e+00 -1.0000e+00
       11  1    5    5    0    0 +1.3027219979e+01 +9.7152018444e+00 +2.1119819988e+01 2.6648459690e+01 5.1100000000e-04 0.0000e+00 1.0000e+00
      -12  1    5    5    0    0 -2.5835605042e+01 -3.0104584659e+00 -1.3372343670e+01 2.9246554042e+01 0.0000000000e+00 0.0000e+00 1.0000e+00
       12  1    3    3    0    0 +6.9081153521e+00 +6.2296966512e+00 -1.6252635327e+01 1.8726434075e+01 0.0000000000e+00 0.0000e+00 -1.0000e+00
</event>
<event>
 8      3 +1.0086356e-04 9.11880000e+01 7.81616400e-03 1.18400000e-01
      -11 -1    0    0    0    0 +0.0000000000e+00 +0.0000000000e+00 +4.5593999997e+01 4.5594000000e+01 5.1100000000e-04 0.0000e+00 -1.0000e+00
       11 -1    0    0    0    0 -0.0000000000e+00 -0.0000000000e+00 -4.5593999997e+01 4.5594000000e+01 5.1100000000e-04 0.0000e+00 1.0000e+00
       23  2    1    2    0    0 +0.0000000000e+00 -1.7763568394e-15 +0.0000000000e+00 9.1188000000e+01 9.1188000000e+01 2.3157e-15 0.0000e+00
  9990012  2    3    3    0    0 -7.5025950892e+00 +1.4577856403e+01 +9.0485589822e+00 7.2461568145e+01 6.9999997200e+01 1.5271e-05 0.0000e+00
      -11  1    4    4    0    0 -1.0422798948e+01 +1.0951046551e+01 -2.1499218021e+01 2.6282627994e+01 5.1100000000e-04 0.0000e+00 1.0000e+00
       11  1    4    4    0    0 -7.7843773373e+00 -1.0864182069e+01 +2.3092543000e+01 2.6681314155e+01 5.1100000000e-04 0.0000e+00 -1.0000e+00
       12  1    4    4    0    0 +1.0704581196e+01 +1.4490991920e+01 +7.4552340038e+00 1.9497625996e+01 0.0000000000e+00 0.0000e+00 -1.0000e+00
      -12  1    3    3    0    0 +7.5025950892e+00 -1.4577856403e+01 -9.0485589822e+00 1.8726431855e+01 0.0000000000e+00 0.0000e+00 1.0000e+00
</event>
<event>
 8      3 +1.0086356e-04 9.11880000e+01 7.81616400e-03 1.18400000e-01
      -11 -1    0    0    0    0 +0.0000000000e+00 +0.0000000000e+00 +4.5593999997e+01 4.5594000000e+01 5.1100000000e-04 0.0000e+00 1.0000e+00
       11 -1    0    0    0    0 -0.0000000000e+00 -0.0000000000e+00 -4.5593999997e+01 4.5594000000e+01 5.1100000000e-04 0.0000e+00 -1.0000e+00
       23  2    1    2    0    0 -1.7763568394e-15 +1.7763568394e-15 -1.7763568394e-15 9.1188000000e+01 9.1188000000e+01 3.1950e-14 0.0000e+00
  9990012  2    3    3    0    0 -8.7235370970e+00 -8.8760296099e+00 -1.3992650406e+01 7.2461594405e+01 7.0000031409e+01 5.2947e-05 0.0000e+00
      -11  1    4    4    0    0 +2.5096542633e-01 -1.9108288763e+00 +4.1122076243e+00 4.5414207520e+00 5.1100000000e-04 0.0000e+00 1.0000e+00
       11  1    4    4    0    0 -2.8874901942e+01 +5.8208640180e+00 -2.9479405221e+01 4.1673465809e+01 5.1100000000e-04 0.0000e+00 -1.0000e+00
       12  1    4    4    0    0 +1.9900399419e+01 -1.2786064752e+01 +1.1374547191e+01 2.6246707844e+01 0.0000000000e+00 0.0000e+00 -1.0000e+00
      -12  1    3    3    0    0 +8.7235370970e+00 +8.8760296099e+00 +1.3992650406e+01 1.8726405595e+01 0.0000000000e+00 0.0000e+00 1.0000e+00
</event>
<event>
 8      4 +1.0086356e-04 9.11880000e+01 7.81616400e-03 1.18400000e-01
      -11 -1    0    0    0    0 +0.0000000000e+00 +0.0000000000e+00 +4.5593999997e+01 4.5594000000e+01 5.1100000000e-04 0.0000e+00 1.0000e+00
       11 -1    0    0    0    0 -0.0000000000e+00 -0.0000000000e+00 -4.5593999997e+01 4.5594000000e+01 5.1100000000e-04 0.0000e+00 -1.0000e+00
       23  2    1    2    0    0 +0.0000000000e+00 +0.0000000000e+00 +3.5527136788e-15 9.1188000000e+01 9.1188000000e+01 1.6266e-13 0.0000e+00
 -9990012  2    3    3    0    0 -1.6038197046e+00 -7.8462745352e+00 +1.6927503738e+01 7.2461637712e+01 7.0000087824e+01 1.9903e-04 0.0000e+00
      -11  1    4    4    0    0 +7.7384208595e+00 -1.1135284674e+01 +2.4466499755e+01 2.7972975042e+01 5.1100000000e-04 0.0000e+00 1.0000e+00
       11  1    4    4    0    0 -1.3446970424e+01 +1.3795580903e+00 +1.5754788428e+01 2.0759035449e+01 5.1100000000e-04 0.0000e+00 -1.0000e+00
      -12  1    4    4    0    0 +4.1047298597e+00 +1.9094520482e+00 -2.3293784444e+01 2.3729627222e+01 0.0000000000e+00 0.0000e+00 1.0000e+00
       12  1    3    3    0    0 +1.6038197046e+00 +7.8462745352e+00 -1.6927503738e+01 1.8726362288e+01 0.0000000000e+00 0.0000e+00 -1.0000e+00
</event>
<event>
 9      4 +1.0086356e-04 9.11880000e+01 7.81616400e-03 1.18400000e-01
      -11 -1    0    0    0    0 +0.0000000000e+00 +0.0000000000e+00 +4.5593999997e+01 4.5594000000e+01 5.1100000000e-04 0.0000e+00 1.0000e+00
       11 -1    0    0    0    0 -0.0000000000e+00 -0.0000000000e+00 -4.5593999997e+01 4.5594000000e+01 5.1100000000e-04 0.0000e+00 -1.0000e+00
       23  2    1    2    0    0 +0.0000000000e+00 -8.8817841970e-16 +2.2204460493e-15 9.1188000000e+01 9.1188000000e+01 2.4037e-13 0.0000e+00
 -9990012  2    3    3    0    0 -1.6746799374e+01 +7.8110683120e+00 -3.0350336167e+00 7.2461561297e+01 6.9999988279e+01 9.4822e-05 0.0000e+00
      -24  2    4    4    0    0 -1.8697286528e+01 +7.6792681762e+00 -7.9601545973e+00 6.7162637977e+01 6.3552310702e+01 1.3376e-13 0.0000e+00
      -11  1    4    4    0    0 +1.9504871541e+00 +1.3180013575e-01 +4.9251209806e+00 5.2989233198e+00 5.1100000000e-04 0.0000e+00 1.0000e+00
       11  1    5    5    0    0 +1.5516502517e+01 -1.4506737006e+01 +8.9081510637e+00 2.3033940709e+01 5.1100000000e-04 0.0000e+00 -1.0000e+00
      -12  1    5    5    0    0 -3.4213789045e+01 +2.2186005182e+01 -1.6868305661e+01 4.4128697269e+01 0.0000000000e+00 0.0000e+00 1.0000e+00
       12  1    3    3    0    0 +1.6746799374e+01 -7.8110683120e+00 +3.0350336167e+00 1.8726438703e+01 0.0000000000e+00 0.0000e+00 -1.0000e+00
</event>
<event>
 8      3 +1.0086356e-04 9.11880000e+01 7.81616400e-03 1.18400000e-01
      -11 -1    0    0    0    0 +0.0000000000e+00 +0.0000000000e+00 +4.5593999997e+01 4.5594000000e+01 5.1100000000e-04 0.0000e+00 1.0000e+00
       11 -1    0    0    0    0 -0.0000000000e+00 -0.0000000000e+00 -4.5593999997e+01 4.5594000000e+01 5.1100000000e-04 0.0000e+00 -1.0000e+00
       23  2    1    2    0    0 +1.9984014443e-15 +1.7763568394e-15 +1.7763568394e-15 9.1188000000e+01 9.1188000000e+01 4.2490e-14 0.0000e+00
  9990012  2    3    3    0    0 -1.3770081877e+00 -1.1049579574e+01 +1.5055951081e+01 7.2461787802e+01 7.0000283344e+01 1.5447e-05 0.0000e+00
      -11  1    4    4    0    0 -2.0411712879e-01 +1.3004109016e+01 -7.7143979174e-01 1.3028569942e+01 5.1100000000e-04 0.0000e+00 1.0000e+00
       11  1    4    4    0    0 -1.2497731266e+01 -2.8240247603e+01 +2.8433184375e+01 4.1977980483e+01 5.1100000000e-04 0.0000e+00 -1.0000e+00
       12  1    4    4    0    0 +1.1324840207e+01 +4.1865590134e+00 -1.2605793502e+01 1.7455237377e+01 0.0000000000e+00 0.0000e+00 -1.0000e+00
      -12  1    3    3    0    0 +1.3770081877e+00 +1.1049579574e+01 -1.5055951081e+01 1.8726212198e+01 0.0000000000e+00 0.0000e+00 1.0000e+00
</event>
<event>
 9      4 +1.0086356e-04 9.11880000e+01 7.81616400e-03 1.18400000e-01
      -11 -1    0    0    0    0 +0.0000000000e+00 +0.0000000000e+00 +4.5593999997e+01 4.5594000000e+01 5.1100000000e-04 0.0000e+00 -1.0000e+00
       11 -1    0    0    0    0 -0.0000000000e+00 -0.0000000000e+00 -4.5593999997e+01 4.5594000000e+01 5.1100000000e-04 0.0000e+00 1.0000e+00
       23  2    1    2    0    0 +0.0000000000e+00 -8.8817841970e-16 -4.4408920985e-16 9.1188000000e+01 9.1188000000e+01 6.9800e-14 0.0000e+00
 -9990012  2    3    3    0    0 -1.7477416257e+01 -5.9525560041e+00 -3.1281648901e+00 7.2461590371e+01 7.0000026154e+01 1.3130e-05 0.0000e+00
      -24  2    4    4    0    0 -2.6308315095e+01 +3.9349433654e-01 -6.0191488572e+00 6.1209260933e+01 5.4936883695e+01 1.7853e-13 0.0000e+00
      -11  1    4    4    0    0 +8.8308988382e+00 -6.3460503406e+00 +2.8909839671e+00 1.1252329438e+01 5.1100000000e-04 0.0000e+00 1.0000e+00
       11  1    5    5    0    0 -6.4347548241e+00 -1.5754676450e+01 -2.4356975675e+01 2.9713265791e+01 5.1100000000e-04 0.0000e+00 -1.0000e+00
      -12  1    5    5    0    0 -1.9873560271e+01 +1.6148170786e+01 +1.8337826818e+01 3.1495995142e+01 0.0000000000e+00 0.0000e+00 1.0000e+00
       12  1    3    3    0    0 +1.7477416257e+01 +5.9525560041e+00 +3.1281648901e+00 1.8726409629e+01 0.0000000000e+00 0.0000e+00 -1.0000e+00
</event>
<event>
 8      3 +1.0086356e-04 9.11880000e+01 7.81616400e-03 1.18400000e-01
      -11 -1    0    0    0    0 +0.0000000000e+00 +0.0000000000e+00 +4.5593999997e+01 4.5594000000e+01 5.1100000000e-04 0.0000e+00 1.0000e+00
       11 -1    0    0    0    0 -0.0000000000e+00 -0.0000000000e+00 -4.5593999997e+01 4.5594000000e+01 5.1100000000e-04 0.0000e+00 -1.0000e+00
       23  2    1    2    0    0 -8.8817841970e-16 +0.0000000000e+00 +8.8817841970e-16 9.1188000000e+01 9.1188000000e+01 4.4024e-14 0.0000e+00
  9990012  2    3    3    0    0 +5.0944306449e+00 +1.7216359154e+01 -5.3217874815e+00 7.2461610382e+01 7.0000052222e+01 1.2358e-04 0.0000e+00
      -11  1    4    4    0    0 -5.3735350509e+00 -1.2687298024e+01 +2.8639635437e+00 1.4072835447e+01 5.1100000000e-04 0.0000e+00 1.0000e+00
       11  1    4    4    0    0 -1.8783603518e+01 +1.4780070214e+01 -8.7539363142e+00 2.5453990609e+01 5.1100000000e-04 0.0000e+00 -1.0000e+00
       12  1    4    4    0    0 +2.9251569214e+01 +1.5123586963e+01 +5.6818528895e-01 3.2934784326e+01 0.0000000000e+00 0.0000e+00 -1.0000e+00
      -12  1    3    3    0    0 -5.0944306449e+00 -1.7216359154e+01 +5.3217874815e+00 1.8726389618e+01 0.0000000000e+00 0.0000e+00 1.0000e+00
</event>
<event>
 9      3 +1.0086356e-04 9.11880000e+01 7.81616400e-03 1.18400000e-01
      -11 -1    0    0    0    0 +0.0000000000e+00 +0.0000000000e+00 +4.5593999997e+01 4.5594000000e+01 5.1100000000e-04 0.0000e+00 1.0000e+00
       11 -1    0    0    0    0 -0.0000000000e+00 -0.0000000000e+00 -4.5593999997e+01 4.5594000000e+01 5.1100000000e-04 0.0000e+00 -1.0000e+00
       23  2    1    2    0    0 +0.0000000000e+00 -1.3322676296e-15 +1.7763568394e-15 9.1188000000e+01 9.1188000000e+01 1.8328e-14 0.0000e+00
  9990012  2    3    3    0    0 -1.8481721106e+01 +2.4659570944e+00 -1.7388585059e+00 7.2461585812e+01 7.0000020215e+01 3.8096e-05 0.0000e+00
       24  2    4    4    0    0 -1.2171826597e+01 +4.2427312276e+00 -1.7694955283e+01 5.5211405534e+01 5.0685636304e+01 3.7798e-14 0.0000e+00
      -11  1    5    5    0    0 +1.6955575553e+01 +1.1608270678e+01 -1.4171032388e+01 2.4961202890e+01 5.1100000000e-04 0.0000e+00 1.0000e+00
       11  1    4    4    0    0 -6.3098945086e+00 -1.7767741332e+00 +1.5956096777e+01 1.7250180279e+01 5.1100000000e-04 0.0000e+00 -1.0000e+00
       12  1    5    5    0    0 -2.9127402151e+01 -7.3655394509e+00 -3.5239228946e+00 3.0250202644e+01 0.0000000000e+00 0.0000e+00 -1.0000e+00
      -12  1    3    3    0    0 +1.8481721106e+01 -2.4659570944e+00 +1.7388585059e+00 1.8726414188e+01 0.0000000000e+00 0.0000e+00 1.0000e+00
</event>
<event>
 8      4 +1.0086356e-04 7.24615700e+01 7.81616400e-03 1.22670800e-01
      -11 -1    0    0    0    0 +0.0000000000e+00 +0.0000000000e+00 +4.5593999997e+01 4.5594000000e+01 5.1100000000e-04 0.0000e+00 1.0000e+00
       11 -1    0    0    0    0 -0.0000000000e+00 -0.0000000000e+00 -4.5593999997e+01 4.5594000000e+01 5.1100000000e-04 0.0000e+00 -1.0000e+00
 -9990012  2    1    2    0    0 +1.6694382060e+01 +7.3859787174e+00 +4.1741980018e+00 7.2461574742e+01 7.0000005794e+01 3.1569e-04 0.0000e+00
      -24  2    3    3    0    0 +1.2991901208e+01 -4.6684491329e+00 +9.3901552806e+00 5.8815190391e+01 5.6395635383e+01 3.2166e-14 0.0000e+00
      -11  1    3    3    0    0 +3.7024808519e+00 +1.2054427850e+01 -5.2159572789e+00 1.3646384351e+01 5.1100000000e-04 0.0000e+00 1.0000e+00
       11  1    4    4    0    0 +1.0563903484e+01 +2.4851143056e+01 -2.0095377615e+00 2.7077917392e+01 5.1100000000e-04 0.0000e+00 -1.0000e+00
      -12  1    4    4    0    0 +2.4279977242e+00 -2.9519592189e+01 +1.1399693042e+01 3.1737272999e+01 0.0000000000e+00 0.0000e+00 1.0000e+00
       12  1    1    2    0    0 -1.6694382060e+01 -7.3859787174e+00 -4.1741980018e+00 1.8726425258e+01 0.0000000000e+00 0.0000e+00 -1.0000e+00
</event>
<event>
 8      3 +1.0086356e-04 9.11880000e+01 7.81616400e-03 1.18400000e-01
      -11 -1    0    0    0    0 +0.0000000000e+00 +0.0000000000e+00 +4.5593999997e+01 4.5594000000e+01 5.1100000000e-04 0.0000e+00 1.0000e+00
       11 -1    0    0    0    0 -0.0000000000e+00 -0.0000000000e+00 -4.5593999997e+01 4.5594000000e+01 5.1100000000e-04 0.0000e+00 -1.0000e+00
       23  2    1    2    0    0 +0.0000000000e+00 -8.8817841970e-16 +0.0000000000e+00 9.1188000000e+01 9.1188000000e+01 8.0352e-14 0.0000e+00
  9990012  2    3    3    0    0 +1.2322637961e+01 -5.7255764293e+00 -1.2886008359e+01 7.2461579007e+01 7.0000011350e+01 2.8110e-04 0.0000e+00
      -11  1    4    4    0    0 +1.0002911745e+01 +1.3010119737e+01 +3.0686391685e+00 1.6695448648e+01 5.1100000000e-04 0.0000e+00 1.0000e+00
       11  1    4    4    0    0 -8.1246852824e+00 +1.5446924727e+01 -2.7832582350e+00 1.7673837193e+01 5.1100000000e-04 0.0000e+00 -1.0000e+00
       12  1    4    4    0    0 +1.0444411498e+01 -3.4182620894e+01 -1.3171389293e+01 3.8092293165e+01 0.0000000000e+00 0.0000e+00 -1.0000e+00
      -12  1    3    3    0    0 -1.2322637961e+01 +5.7255764293e+00 +1.2886008359e+01 1.8726420993e+01 0.0000000000e+00 0.0000e+00 1.0000e+00
</event>
<event>
 8      4 +1.0086356e-04 9.11880000e+01 7.81616400e-03 1.18400000e-01
      -11 -1    0    0    0    0 +0.0000000000e+00 +0.0000000000e+00 +4.5593999997e+01 4.5594000000e+01 5.1100000000e-04 0.0000e+00 1.0000e+00
       11 -1    0    0    0    0 -0.0000000000e+00 -0.0000000000e+00 -4.5593999997e+01 4.5594000000e+01 5.1100000000e-04 0.0000e+00 -1.0000e+00
       23  2    1    2    0    0 +3.5527136788e-15 +0.0000000000e+00 +0.0000000000e+00 9.1188000000e+01 9.1188000000e+01 1.9504e-13 0.0000e+00
 -9990012  2    3    3    0    0 +1.6812981595e+01 -4.5819870412e+00 -6.8561590852e+00 7.2461604918e+01 7.0000045104e+01 2.3797e-04 0.0000e+00
      -11  1    4    4    0    0 -1.7809622795e+01 +1.0210888397e+01 -6.4243772577e+00 2.1510870028e+01 5.1100000000e-04 0.0000e+00 -1.0000e+00
       11  1    4    4    0    0 +2.9171920459e+01 -2.2765634466e+01 +8.3085946152e+00 3.7925028683e+01 5.1100000000e-04 0.0000e+00 1.0000e+00
      -12  1    4    4    0    0 +5.4506839308e+00 +7.9727590274e+00 -8.7403764427e+00 1.3025706207e+01 0.0000000000e+00 0.0000e+00 1.0000e+00
       12  1    3    3    0    0 -1.6812981595e+01 +4.5819870412e+00 +6.8561590852e+00 1.8726395082e+01 0.0000000000e+00 0.0000e+00 -1.0000e+00
</event>
<event>
 9      4 +1.0086356e-04 9.11880000e+01 7.81616400e-03 1.18400000e-01
      -11 -1    0    0    0    0 +0.0000000000e+00 +0.0000000000e+00 +4.5593999997e+01 4.5594000000e+01 5.1100000000e-04 0.0000e+00 -1.0000e+00
       11 -1    0    0    0    0 -0.0000000000e+00 -0.0000000000e+00 -4.5593999997e+01 4.5594000000e+01 5.1100000000e-04 0.0000e+00 1.0000e+00
       23  2    1    2    0    0 +0.0000000000e+00 +1.9984014443e-15 +3.5527136788e-15 9.1188000000e+01 9.1188000000e+01 2.6690e-15 0.0000e+00
 -9990012  2    3    3    0    0 -2.5413630386e+00 -6.6746579270e-01 -1.8541290567e+01 7.2461454869e+01 6.9999849636e+01 9.3066e-05 0.0000e+00
      -24  2    4    4    0    0 +3.1043158984e-02 +1.2200904252e+00 -1.7822784014e+01 6.9190920654e+01 6.6844912197e+01 2.7614e-14 0.0000e+00
      -11  1    4    4    0    0 -2.5724061976e+00 -1.8875562179e+00 -7.1850655225e-01 3.2705342145e+00 5.1100000000e-04 0.0000e+00 1.0000e+00
       11  1    5    5    0    0 -1.4982657299e+01 -2.8844497803e+01 -3.6080411733e+00 3.2703257248e+01 5.1100000000e-04 0.0000e+00 -1.0000e+00
      -12  1    5    5    0    0 +1.5013700458e+01 +3.0064588229e+01 -1.4214742841e+01 3.6487663406e+01 0.0000000000e+00 0.0000e+00 1.0000e+00
       12  1    3    3    0    0 +2.5413630386e+00 +6.6746579270e-01 +1.8541290567e+01 1.8726545131e+01 0.0000000000e+00 0.0000e+00 -1.0000e+00
</event>
<event>
 9      3 +1.0086356e-04 9.11880000e+01 7.81616400e-03 1.18400000e-01
      -11 -1    0    0    0    0 +0.0000000000e+00 +0.0000000000e+00 +4.5593999997e+01 4.5594000000e+01 5.1100000000e-04 0.0000e+00 -1.0000e+00
       11 -1    0    0    0    0 -0.0000000000e+00 -0.0000000000e+00 -4.5593999997e+01 4.5594000000e+01 5.1100000000e-04 0.0000e+00 1.0000e+00
       23  2    1    2    0    0 -8.8817841970e-16 +0.0000000000e+00 +0.0000000000e+00 9.1188000000e+01 9.1188000000e+01 1.0078e-13 0.0000e+00
  9990012  2    3    3    0    0 +4.3040816465e+00 -1.7542660377e+01 +4.9404812823e+00 7.2461590648e+01 7.0000026515e+01 4.5829e-04 0.0000e+00
       24  2    4    4    0    0 +9.5837369383e+00 -2.9112549760e+01 -1.3854083368e+00 5.8257577832e+01 4.9524109799e+01 5.1485e-13 0.0000e+00
      -11  1    5    5    0    0 -1.9695854461e+01 -1.1021873767e+01 -6.4399571901e+00 2.3470863494e+01 5.1100000000e-04 0.0000e+00 1.0000e+00
       11  1    4    4    0    0 -5.2796552918e+00 +1.1569889383e+01 +6.3258896191e+00 1.4204012816e+01 5.1100000000e-04 0.0000e+00 -1.0000e+00
       12  1    5    5    0    0 +2.9279591399e+01 -1.8090675993e+01 +5.0545488533e+00 3.4786714339e+01 0.0000000000e+00 0.0000e+00 -1.0000e+00
      -12  1    3    3    0    0 -4.3040816465e+00 +1.7542660377e+01 -4.9404812823e+00 1.8726409352e+01 0.0000000000e+00 0.0000e+00 1.0000e+00
</event>
<event>
 9      3 +1.0086356e-04 9.11880000e+01 7.81616400e-03 1.18400000e-01
      -11 -1    0    0    0    0 +0.0000000000e+00 +0.0000000000e+00 +4.5593999997e+01 4.5594000000e+01 5.1100000000e-04 0.0000e+00 1.0000e+00
       11 -1    0    0    0    0 -0.0000000000e+00 -0.0000000000e+00 -4.5593999997e+01 4.5594000000e+01 5.1100000000e-04 0.0000e+00 -1.0000e+00
       23  2    1    2    0    0 -8.8817841970e-16 +0.0000000000e+00 +1.7763568394e-15 9.1188000000e+01 9.1188000000e+01 8.2706e-14 0.0000e+00
  9990012  2    3    3    0    0 -2.1645025052e+00 -1.0899700104e+01 -1.5072797287e+01 7.2461608156e+01 7.0000049321e+01 6.5404e-04 0.0000e+00
       24  2    4    4    0    0 -2.2140855985e+00 -6.5344791719e+00 -2.4169756167e+01 6.2371401350e+01 5.7082510457e+01 8.2536e-15 0.0000e+00
      -11  1    5    5    0    0 -7.8304307689e+00 -9.1440908789e+00 +1.6948722308e+01 2.0789161410e+01 5.1100000000e-04 0.0000e+00 1.0000e+00
       11  1    4    4    0    0 +4.9583093351e-02 -4.3652209316e+00 +9.0969588796e+00 1.0090206806e+01 5.1100000000e-04 0.0000e+00 -1.0000e+00
       12  1    5    5    0    0 +5.6163451704e+00 +2.6096117070e+00 -4.1118478474e+01 4.1582239940e+01 0.0000000000e+00 0.0000e+00 -1.0000e+00
      -12  1    3    3    0    0 +2.1645025052e+00 +1.0899700104e+01 +1.5072797287e+01 1.8726391844e+01 0.0000000000e+00 0.0000e+00 1.0000e+00
</event>
<event>
 8      3 +1.0086356e-04 9.11880000e+01 7.81616400e-03 1.18400000e-01
      -11 -1    0    0    0    0 +0.0000000000e+00 +0.0000000000e+00 +4.5593999997e+01 4.5594000000e+01 5.1100000000e-04 0.0000e+00 -1.0000e+00
       11 -1    0    0    0    0 -0.0000000000e+00 -0.0000000000e+00 -4.5593999997e+01 4.5594000000e+01 5.1100000000e-04 0.0000e+00 1.0000e+00
       23  2    1    2    0    0 +0.0000000000e+00 +0.0000000000e+00 -1.7763568394e-15 9.1188000000e+01 9.1188000000e+01 6.3721e-14 0.0000e+00
  9990012  2    3    3    0    0 -5.9470412360e+00 +9.8870774325e+00 +1.4749792798e+01 7.2461601862e+01 7.0000041123e+01 5.4803e-07 0.0000e+00
      -11  1    4    4    0    0 -7.5094287860e+00 +1.8578209434e+00 -7.8627216434e+00 1.1030204497e+01 5.1100000000e-04 0.0000e+00 1.0000e+00
       11  1    4    4    0    0 -4.8316075921e+00 +2.3584675202e+01 -8.9364518495e+00 2.5679593225e+01 5.1100000000e-04 0.0000e+00 -1.0000e+00
       12  1    4    4    0    0 +6.3939951421e+00 -1.5555418713e+01 +3.1548966291e+01 3.5751804140e+01 0.0000000000e+00 0.0000e+00 -1.0000e+00
      -12  1    3    3    0    0 +5.9470412360e+00 -9.8870774325e+00 -1.4749792798e+01 1.8726398138e+01 0.0000000000e+00 0.0000e+00 1.0000e+00
</event>
<event>
 8      3 +1.0086356e-04 9.11880000e+01 7.81616400e-03 1.18400000e-01
      -11 -1    0    0    0    0 +0.0000000000e+00 +0.0000000000e+00 +4.5593999997e+01 4.5594000000e+01 5.1100000000e-04 0.0000e+00 -1.0000e+00
       11 -1    0    0    0    0 -0.0000000000e+00 -0.0000000000e+00 -4.5593999997e+01 4.5594000000e+01 5.1100000000e-04 0.0000e+00 1.0000e+00
       23  2    1    2    0    0 +0.0000000000e+00 -4.4408920985e-16 +0.0000000000e+00 9.1188000000e+01 9.1188000000e+01 2.9810e-14 0.0000e+00
  9990012  2    3    3    0    0 +6.1816875242e+00 -9.5933222310e-01 +1.7650645891e+01 7.2461578043e+01 7.0000010094e+01 3.7193e-05 0.0000e+00
      -11  1    4    4    0    0 +2.8634557563e+00 -4.2892695146e+00 -4.4298965798e-01 5.1762391691e+00 5.1100000000e-04 0.0000e+00 1.0000e+00
       11  1    4    4    0    0 -2.0112391508e+00 -5.2791850011e+00 -2.3658179403e+01 2.4323328927e+01 5.1100000000e-04 0.0000e+00 -1.0000e+00
       12  1    4    4    0    0 +5.3294709187e+00 +8.6091222925e+00 +4.1751814951e+01 4.2962009947e+01 0.0000000000e+00 0.0000e+00 -1.0000e+00
      -12  1    3    3    0    0 -6.1816875242e+00 +9.5933222310e-01 -1.7650645891e+01 1.8726421957e+01 0.0000000000e+00 0.0000e+00 1.0000e+00
</event>
<event>
 9      3 +1.0086356e-04 9.11880000e+01 7.81616400e-03 1.18400000e-01
      -11 -1    0    0    0    0 +0.0000000000e+00 +0.0000000000e+00 +4.5593999997e+01 4.5594000000e+01 5.1100000000e-04 0.0000e+00 -1.0000e+00
       11 -1    0    0    0    0 -0.0000000000e+00 -0.0000000000e+00 -4.5593999997e+01 4.5594000000e+01 5.1100000000e-04 0.0000e+00 1.0000e+00
       23  2    1    2    0    0 -3.5527136788e-15 -3.1086244690e-15 +2.6645352591e-15 9.1188000000e+01 9.1188000000e+01 5.6123e-14 0.0000e+00
  9990012  2    3    3    0    0 -1.8206716207e+01 +4.3492935294e-01 +4.3589302651e+00 7.2461709613e+01 7.0000181488e+01 6.3894e-05 0.0000e+00
       24  2    4    4    0    0 -1.1563781188e+01 +1.2751725407e+01 +3.7480165101e+00 5.8454380581e+01 5.5736338642e+01 8.4221e-14 0.0000e+00
      -11  1    5    5    0    0 -2.0159681322e+01 +1.5978550805e+01 -2.0263975164e+01 3.2746839948e+01 5.1100000000e-04 0.0000e+00 1.0000e+00
       11  1    4    4    0    0 -6.6429350199e+00 -1.2316796054e+01 +6.1091375506e-01 1.4007329032e+01 5.1100000000e-04 0.0000e+00 -1.0000e+00
       12  1    5    5    0    0 +8.5959001346e+00 -3.2268253978e+00 +2.4011991674e+01 2.5707540634e+01 0.0000000000e+00 0.0000e+00 -1.0000e+00
      -12  1    3    3    0    0 +1.8206716207e+01 -4.3492935294e-01 -4.3589302651e+00 1.8726290387e+01 0.0000000000e+00 0.0000e+00 1.0000e+00
</event>
<event>
 8      4 +1.0086356e-04 9.11880000e+01 7.81616400e-03 1.18400000e-01
      -11 -1    0    0    0    0 +0.0000000000e+00 +0.0000000000e+00 +4.5593999997e+01 4.5594000000e+01 5.1100000000e-04 0.0000e+00 1.0000e+00
       11 -1    0    0    0    0 -0.0000000000e+00 -0.0000000000e+00 -4.5593999997e+01 4.5594000000e+01 5.1100000000e-04 0.0000e+00 -1.0000e+00
       23  2    1    2    0    0 +0.0000000000e+00 +4.4408920985e-16 -1.3322676296e-15 9.1188000000e+01 9.1188000000e+01 6.6748e-15 0.0000e+00
 -9990012  2    3    3    0    0 +1.8306342278e+01 +3.1532640168e+00 +2.3684302536e+00 7.2461689541e+01 7.0000155340e+01 8.8378e-05 0.0000e+00
      -11  1    4    4    0    0 +1.5211759048e+01 +7.2083862900e+00 +2.4264141907e+01 2.9531458294e+01 5.1100000000e-04 0.0000e+00 1.0000e+00
       11  1    4    4    0    0 -6.6247046529e+00 +2.9227117872e+00 +7.9634180831e+00 1.0763130760e+01 5.1100000000e-04 0.0000e+00 -1.0000e+00
      -12  1    4    4    0    0 +9.7192878832e+00 -6.9778340604e+00 -2.9859129736e+01 3.2167100487e+01 0.0000000000e+00 0.0000e+00 1.0000e+00
       12  1    3    3    0    0 -1.8306342278e+01 -3.1532640168e+00 -2.3684302536e+00 1.8726310459e+01 0.0000000000e+00 0.0000e+00 -1.0000e+00
</event>
<event>
 8      4 +1.0086356e-04 9.11880000e+01 7.81616400e-03 1.18400000e-01
      -11 -1    0    0    0    0 +0.0000000000e+00 +0.0000000000e+00 +4.5593999997e+01 4.5594000000e+01 5.1100000000e-04 0.0000e+00 1.0000e+00
       11 -1    0    0    0    0 -0.0000000000e+00 -0.0000000000e+00 -4.5593999997e+01 4.5594000000e+01 5.1100000000e-04 0.0000e+00 -1.0000e+00
       23  2    1    2    0    0 +2.6645352591e-15 -8.8817841970e-16 +3.5527136788e-15 9.1188000000e+01 9.1188000000e+01 1.3917e-14 0.0000e+00
 -9990012  2    3    3    0    0 +5.6090048805e+00 +5.3944332734e+00 +1.7032831480e+01 7.2461596333e+01 7.0000033920e+01 4.9886e-04 0.0000e+00
      -11  1    4    4    0    0 -1.2601141928e+01 +1.8475997384e+01 -8.5344096422e-01 2.2380340010e+01 5.1100000000e-04 0.0000e+00 -1.0000e+00
       11  1    4    4    0    0 +3.1428637263e+01 -6.9931345531e+00 +1.1514523252e+01 3.4194260001e+01 5.1100000000e-04 0.0000e+00 1.0000e+00
      -12  1    4    4    0    0 -1.3218490454e+01 -6.0884295572e+00 +6.3717491919e+00 1.5886996322e+01 0.0000000000e+00 0.0000e+00 1.0000e+00
       12  1    3    3    0    0 -5.6090048805e+00 -5.3944332734e+00 -1.7032831480e+01 1.8726403667e+01 0.0000000000e+00 0.0000e+00 -1.0000e+00
</event>
<event>
 9      3 +1.0086356e-04 9.11880000e+01 7.81616400e-03 1.18400000e-01
      -11 -1    0    0    0    0 +0.0000000000e+00 +0.0000000000e+00 +4.5593999997e+01 4.5594000000e+01 5.1100000000e-04 0.0000e+00 -1.0000e+00
       11 -1    0    0    0    0 -0.0000000000e+00 -0.0000000000e+00 -4.5593999997e+01 4.5594000000e+01 5.1100000000e-04 0.0000e+00 1.0000e+00
       23  2    1    2    0    0 +8.8817841970e-16 +0.0000000000e+00 +0.0000000000e+00 9.1188000000e+01 9.1188000000e+01 7.4697e-14 0.0000e+00
  9990012  2    3    3    0    0 -7.9049543119e+00 +3.0376225162e+00 +1.6702269273e+01 7.2461514690e+01 6.9999927564e+01 3.1762e-04 0.0000e+00
       24  2    4    4    0    0 -7.1164332804e+00 -7.7695618408e-01 +1.7575347370e+01 6.8469642735e+01 6.5787170919e+01 3.2243e-13 0.0000e+00
      -11  1    5    5    0    0 -2.3057550791e+01 -1.0886057772e+01 -1.5892587313e+01 3.0045486084e+01 5.1100000000e-04 0.0000e+00 1.0000e+00
       11  1    4    4    0    0 -7.8852103150e-01 +3.8145787003e+00 -8.7307809706e-01 3.9918719547e+00 5.1100000000e-04 0.0000e+00 -1.0000e+00
       12  1    5    5    0    0 +1.5941117510e+01 +1.0109101587e+01 +3.3467934683e+01 3.8424156651e+01 0.0000000000e+00 0.0000e+00 -1.0000e+00
      -12  1    3    3    0    0 +7.9049543119e+00 -3.0376225162e+00 -1.6702269273e+01 1.8726485310e+01 0.0000000000e+00 0.0000e+00 1.0000e+00
</event>
<event>
 8      3 +1.0086356e-04 9.11880000e+01 7.81616400e-03 1.18400000e-01
      -11 -1    0    0    0    0 +0.0000000000e+00 +0.0000000000e+00 +4.5593999997e+01 4.5594000000e+01 5.1100000000e-04 0.0000e+00 1.0000e+00
       11 -1    0    0    0    0 -0.0000000000e+00 -0.0000000000e+00 -4.5593999997e+01 4.5594000000e+01 5.1100000000e-04 0.0000e+00 -1.0000e+00
       23  2    1    2    0    0 -1.7763568394e-15 -8.8817841970e-16 +0.0000000000e+00 9.1188000000e+01 9.1188000000e+01 4.1801e-14 0.0000e+00
  9990012  2    3    3    0    0 +6.3096992083e+00 -5.0295040097e+00 -1.6898829913e+01 7.2461583709e+01 7.0000017475e+01 3.4303e-04 0.0000e+00
      -11  1    4    4    0    0 +1.0317370490e+01 -1.3437777459e+01 -9.4296045407e+00 1.9389157767e+01 5.1100000000e-04 0.0000e+00 1.0000e+00
       11  1    4    4    0    0 +1.6861872021e+01 +2.1463180436e+01 -8.0247392185e+00 2.8449732552e+01 5.1100000000e-04 0.0000e+00 -1.0000e+00
       12  1    4    4    0    0 -2.0869543303e+01 -1.3054906987e+01 +5.5551384605e-01 2.4622693390e+01 0.0000000000e+00 0.0000e+00 -1.0000e+00
      -12  1    3    3    0    0 -6.3096992083e+00 +5.0295040097e+00 +1.6898829913e+01 1.8726416291e+01 0.0000000000e+00 0.0000e+00 1.0000e+00
</event>
<event>
 8      4 +1.0086356e-04 9.11880000e+01 7.81616400e-03 1.18400000e-01
      -11 -1    0    0    0    0 +0.0000000000e+00 +0.0000000000e+00 +4.5593999997e+01 4.5594000000e+01 5.1100000000e-04 0.0000e+00 1.0000e+00
       11 -1    0    0    0    0 -0.0000000000e+00 -0.0000000000e+00 -4.5593999997e+01 4.5594000000e+01 5.1100000000e-04 0.0000e+00 -1.0000e+00
       23  2    1    2    0    0 +0.0000000000e+00 -3.5527136788e-15 -5.2735593670e-15 9.1188000000e+01 9.1188000000e+01 1.1379e-13 0.0000e+00
 -9990012  2    3    3    0    0 +4.5681010492e+00 -1.8158128352e+01 -3.0639015607e-01 7.2461573556e+01 7.0000004249e+01 1.5353e-04 0.0000e+00
      -11  1    4    4    0    0 -1.7672326040e+00 -5.9002210081e+00 +2.5791633881e+01 2.6516864399e+01 5.1100000000e-04 0.0000e+00 1.0000e+00
       11  1    4    4    0    0 +1.0523897532e+01 -1.6414479060e+01 -3.2116801856e-01 1.9501043337e+01 5.1100000000e-04 0.0000e+00 -1.0000e+00
      -12  1    4    4    0    0 -4.1885638785e+00 +4.1565717164e+00 -2.5776856019e+01 2.6443665820e+01 0.0000000000e+00 0.0000e+00 1.0000e+00
       12  1    3    3    0    0 -4.5681010492e+00 +1.8158128352e+01 +3.0639015607e-01 1.8726426444e+01 0.0000000000e+00 0.0000e+00 -1.0000e+00
</event>
<event>
 8      4 +1.0086356e-04 9.11880000e+01 7.81616400e-03 1.18400000e-01
      -11 -1    0    0    0    0 +0.0000000000e+00 +0.0000000000e+00 +4.5593999997e+01 4.5594000000e+01 5.1100000000e-04 0.0000e+00 -1.0000e+00
       11 -1    0    0    0    0 -0.0000000000e+00 -0.0000000000e+00 -4.5593999997e+01 4.5594000000e+01 5.1100000000e-04 0.0000e+00 1.0000e+00
       23  2    1    2    0    0 -1.7763568394e-15 -2.6645352591e-15 +8.8817841970e-16 9.1188000000e+01 9.1188000000e+01 2.9355e-14 0.0000e+00
 -9990012  2    3    3    0    0 +1.5777434220e+01 +6.8777562824e+00 +7.3770873347e+00 7.2462285606e+01 7.0000931820e+01 2.9100e-05 0.0000e+00
      -11  1    4    4    0    0 +6.7466765614e+00 +1.2367155021e+01 -1.6249824013e+01 2.1506300208e+01 5.1100000000e-04 0.0000e+00 1.0000e+00
       11  1    4    4    0    0 -7.9346170211e+00 -2.0268262853e+01 +1.6634748138e+01 2.7394807395e+01 5.1100000000e-04 0.0000e+00 -1.0000e+00
      -12  1    4    4    0    0 +1.6965374679e+01 +1.4778864114e+01 +6.9921632095e+00 2.3561178002e+01 0.0000000000e+00 0.0000e+00 1.0000e+00
       12  1    3    3    0    0 -1.5777434220e+01 -6.8777562824e+00 -7.3770873347e+00 1.8725714394e+01 0.0000000000e+00 0.0000e+00 -1.0000e+00
</event>
<event>
 9      3 +1.0086356e-04 9.11880000e+01 7.81616400e-03 1.18400000e-01
      -11 -1    0    0    0    0 +0.0000000000e+00 +0.0000000000e+00 +4.5593999997e+01 4.5594000000e+01 5.1100000000e-04 0.0000e+00 -1.0000e+00
       11 -1    0    0    0    0 -0.0000000000e+00 -0.0000000000e+00 -4.5593999997e+01 4.5594000000e+01 5.1100000000e-04 0.0000e+00 1.0000e+00
       23  2    1    2    0    0 +0.0000000000e+00 +0.0000000000e+00 +0.0000000000e+00 9.1188000000e+01 9.1188000000e+01 4.3840e-14 0.0000e+00
  9990012  2    3    3    0    0 -1.7666448382e+01 -3.9802522792e+00 +4.7679865597e+00 7.2461561405e+01 6.9999988419e+01 2.1277e-06 0.0000e+00
       24  2    4    4    0    0 -6.0463392265e+00 +9.2110487788e+00 +1.3562873709e+01 5.2804822087e+01 4.9829670426e+01 7.4958e-15 0.0000e+00
      -11  1    5    5    0    0 +7.1094233629e+00 +2.3498354653e+00 -1.7140315122e+01 1.8704438778e+01 5.1100000000e-04 0.0000e+00 1.0000e+00
       11  1    4    4    0    0 -1.1620109155e+01 -1.3191301058e+01 -8.7948871490e+00 1.9656739318e+01 5.1100000000e-04 0.0000e+00 -1.0000e+00
       12  1    5    5    0    0 -1.3155762589e+01 +6.8612133135e+00 +3.0703188830e+01 3.4100383309e+01 0.0000000000e+00 0.0000e+00 -1.0000e+00
      -12  1    3    3    0    0 +1.7666448382e+01 +3.9802522792e+00 -4.7679865597e+00 1.8726438595e+01 0.0000000000e+00 0.0000e+00 1.0000e+00
</event>
<event>
 8      4 +1.0086356e-04 9.11880000e+01 7.81616400e-03 1.18400000e-01
      -11 -1    0    0    0    0 +0.0000000000e+00 +0.0000000000e+00 +4.5593999997e+01 4.5594000000e+01 5.1100000000e-04 0.0000e+00 1.0000e+00
       11 -1    0    0    0    0 -0.0000000000e+00 -0.0000000000e+00 -4.5593999997e+01 4.5594000000e+01 5.1100000000e-04 0.0000e+00 -1.0000e+00
       23  2    1    2    0    0 -1.7763568394e-15 +0.0000000000e+00 +0.0000000000e+00 9.1188000000e+01 9.1188000000e+01 1.0448e-13 0.0000e+00
 -9990012  2    3    3    0    0 +9.4255566724e+00 -1.6085954222e+01 -1.7552080146e+00 7.2461553541e+01 6.9999978176e+01 6.5469e-05 0.0000e+00
      -11  1    4    4    0    0 +1.8665016777e+01 +4.2674413887e+00 -7.6045984221e-01 1.9161738092e+01 5.1100000000e-04 0.0000e+00 1.0000e+00
       11  1    4    4    0    0 -3.1970657982e+00 +1.5591209288e+01 -4.8735408540e+00 1.6645072469e+01 5.1100000000e-04 0.0000e+00 -1.0000e+00
      -12  1    4    4    0    0 -6.0423943063e+00 -3.5944604898e+01 +3.8787926817e+00 3.6654742980e+01 0.0000000000e+00 0.0000e+00 1.0000e+00
       12  1    3    3    0    0 -9.4255566724e+00 +1.6085954222e+01 +1.7552080146e+00 1.8726446459e+01 0.0000000000e+00 0.0000e+00 -1.0000e+00
</event>
<event>
 8      3 +1.0086356e-04 9.11880000e+01 7.81616400e-03 1.18400000e-01
      -11 -1    0    0    0    0 +0.0000000000e+00 +0.0000000000e+00 +4.5593999997e+01 4.5594000000e+01 5.1100000000e-04 0.0000e+00 1.0000e+00
       11 -1    0    0    0    0 -0.0000000000e+00 -0.0000000000e+00 -4.5593999997e+01 4.5594000000e+01 5.1100000000e-04 0.0000e+00 -1.0000e+00
       23  2    1    2    0    0 +1.7763568394e-15 +1.7763568394e-15 +3.5527136788e-15 9.1188000000e+01 9.1188000000e+01 2.0895e-14 0.0000e+00
  9990012  2    3    3    0    0 +9.5235157135e+00 -1.2831967373e+01 -9.7633289528e+00 7.2461565997e+01 6.9999994402e+01 2.2568e-04 0.0000e+00
      -11  1    4    4    0    0 +1.0313227689e+00 -2.2514058804e+00 +8.8446164632e+00 9.1847534390e+00 5.1100000000e-04 0.0000e+00 1.0000e+00
       11  1    4    4    0    0 +2.0168223153e+01 -2.7198345817e+01 -2.4883003278e+01 4.2019889252e+01 5.1100000000e-04 0.0000e+00 -1.0000e+00
       12  1    4    4    0    0 -1.1676030209e+01 +1.6617784324e+01 +6.2750578623e+00 2.1256923306e+01 0.0000000000e+00 0.0000e+00 -1.0000e+00
      -12  1    3    3    0    0 -9.5235157135e+00 +1.2831967373e+01 +9.7633289528e+00 1.8726434003e+01 0.0000000000e+00 0.0000e+00 1.0000e+00
</event>
<event>
 9      3 +1.0086356e-04 9.11880000e+01 7.81616400e-03 1.18400000e-01
      -11 -1    0    0    0    0 +0.0000000000e+00 +0.0000000000e+00 +4.5593999997e+01 4.5594000000e+01 5.1100000000e-04 0.0000e+00 -1.0000e+00
       11 -1    0    0    0    0 -0.0000000000e+00 -0.0000000000e+00 -4.5593999997e+01 4.5594000000e+01 5.1100000000e-04 0.0000e+00 1.0000e+00
       23  2    1    2    0    0 +0.0000000000e+00 -2.2204460493e-15 +0.0000000000e+00 9.1188000000e+01 9.1188000000e+01 3.3603e-14 0.0000e+00
  9990012  2    3    3    0    0 +1.7328570465e+01 -2.2443112739e+00 +6.7357754970e+00 7.2461362314e+01 6.9999729067e+01 4.1788e-04 0.0000e+00
       24  2    4    4    0    0 +8.1821605412e+00 -8.3480034890e+00 +3.5129686957e+00 6.1002812795e+01 5.9769267240e+01 3.7272e-14 0.0000e+00
      -11  1    5    5    0    0 +1.9816069403e+01 +2.0100978076e+01 -5.9431480345e+00 2.8845223782e+01 5.1100000000e-04 0.0000e+00 1.0000e+00
       11  1    4    4    0    0 +9.1464099241e+00 +6.1036922151e+00 +3.2228068013e+00 1.1458549520e+01 5.1100000000e-04 0.0000e+00 -1.0000e+00
       12  1    5    5    0    0 -1.1633908862e+01 -2.8448981565e+01 +9.4561167302e+00 3.2157589013e+01 0.0000000000e+00 0.0000e+00 -1.0000e+00
      -12  1    3    3    0    0 -1.7328570465e+01 +2.2443112739e+00 -6.7357754970e+00 1.8726637686e+01 0.0000000000e+00 0.0000e+00 1.0000e+00
</event>
<event>
 9      4 +1.0086356e-04 9.11880000e+01 7.81616400e-03 1.18400000e-01
      -11 -1    0    0    0    0 +0.0000000000e+00 +0.0000000000e+00 +4.5593999997e+01 4.5594000000e+01 5.1100000000e-04 0.0000e+00 -1.0000e+00
       11 -1    0    0    0    0 -0.0000000000e+00 -0.0000000000e+00 -4.5593999997e+01 4.5594000000e+01 5.1100000000e-04 0.0000e+00 1.0000e+00
       23  2    1    2    0    0 +3.5527136788e-15 +0.0000000000e+00 +8.8817841970e-16 9.1188000000e+01 9.1188000000e+01 3.2674e-14 0.0000e+00
 -9990012  2    3    3    0    0 -1.6249200063e+01 +7.7565243307e+00 +5.1460523257e+00 7.2461494001e+01 6.9999900614e+01 5.7365e-05 0.0000e+00
      -24  2    4    4    0    0 -2.4320682774e+01 +6.8965298817e+00 +1.2126835796e+01 6.1755432086e+01 5.5023772233e+01 2.4096e-13 0.0000e+00
      -11  1    4    4    0    0 +8.0714827112e+00 +8.5999444907e-01 -6.9807834701e+00 1.0706061915e+01 5.1100000000e-04 0.0000e+00 1.0000e+00
       11  1    5    5    0    0 -2.6230306739e+01 +2.7825542929e+01 +1.3845675230e+01 4.0669307269e+01 5.1100000000e-04 0.0000e+00 -1.0000e+00
      -12  1    5    5    0    0 +1.9096239647e+00 -2.0929013047e+01 -1.7188394342e+00 2.1086124818e+01 0.0000000000e+00 0.0000e+00 1.0000e+00
       12  1    3    3    0    0 +1.6249200063e+01 -7.7565243307e+00 -5.1460523257e+00 1.8726505999e+01 0.0000000000e+00 0.0000e+00 -1.0000e+00
</event>
<event>
 8      3 +1.0086356e-04 9.11880000e+01 7.81616400e-03 1.18400000e-01
      -11 -1    0    0    0    0 +0.0000000000e+00 +0.0000000000e+00 +4.5593999997e+01 4.5594000000e+01 5.1100000000e-04 0.0000e+00 1.0000e+00
       11 -1    0    0    0    0 -0.0000000000e+00 -0.0000000000e+00 -4.5593999997e+01 4.5594000000e+01 5.1100000000e-04 0.0000e+00 -1.0000e+00
       23  2    1    2    0    0 +8.8817841970e-16 -1.7763568394e-15 +0.0000000000e+00 9.1188000000e+01 9.1188000000e+01 2.0496e-14 0.0000e+00
  9990012  2    3    3    0    0 -4.6173499328e+00 -1.4035246503e+01 -1.1505322040e+01 7.2461534769e+01 6.9999953721e+01 1.6872e-04 0.0000e+00
      -11  1    4    4    0    0 -1.5321353000e+00 +2.5773558331e+00 +1.4068368548e+01 1.4384338550e+01 5.1100000000e-04 0.0000e+00 1.0000e+00
       11  1    4    4    0    0 -1.6734078310e+01 -2.3212828759e+01 -3.1469946017e-01 2.8617544128e+01 5.1100000000e-04 0.0000e+00 -1.0000e+00
       12  1    4    4    0    0 +1.3648863677e+01 +6.6002264229e+00 -2.5258991128e+01 2.9459652091e+01 0.0000000000e+00 0.0000e+00 -1.0000e+00
      -12  1    3    3    0    0 +4.6173499328e+00 +1.4035246503e+01 +1.1505322040e+01 1.8726465231e+01 0.0000000000e+00 0.0000e+00 1.0000e+00
</event>
<event>
 9      3 +1.0086356e-04 9.11880000e+01 7.81616400e-03 1.18400000e-01
      -11 -1    0    0    0    0 +0.0000000000e+00 +0.0000000000e+00 +4.5593999997e+01 4.5594000000e+01 5.1100000000e-04 0.0000e+00 1.0000e+00
       11 -1    0    0    0    0 -0.0000000000e+00 -0.0000000000e+00 -4.5593999997e+01 4.5594000000e+01 5.1100000000e-04 0.0000e+00 -1.0000e+00
       23  2    1    2    0    0 +0.0000000000e+00 -2.6645352591e-15 -1.7763568394e-15 9.1188000000e+01 9.1188000000e+01 7.5739e-14 0.0000e+00
  9990012  2    3    3    0    0 +1.6618604931e+01 -6.9482009600e+00 -5.1207440345e+00 7.2461613646e+01 7.0000056473e+01 1.0150e-04 0.0000e+00
       24  2    4    4    0    0 +1.1238795741e+01 -7.6827151500e+00 -9.1017781743e+00 6.5728821424e+01 6.3656114852e+01 3.3674e-13 0.0000e+00
      -11  1    5    5    0    0 +6.6398183243e+00 +2.1514372544e+01 +1.5448338686e+01 2.7305797585e+01 5.1100000000e-04 0.0000e+00 1.0000e+00
       11  1    4    4    0    0 +5.3798091900e+00 +7.3451419002e-01 +3.9810341398e+00 6.7327922216e+00 5.1100000000e-04 0.0000e+00 -1.0000e+00
       12  1    5    5    0    0 +4.5989774163e+00 -2.9197087694e+01 -2.4550116860e+01 3.8423023839e+01 0.0000000000e+00 0.0000e+00 -1.0000e+00
      -12  1    3    3    0    0 -1.6618604931e+01 +6.9482009600e+00 +5.1207440345e+00 1.8726386354e+01 0.0000000000e+00 0.0000e+00 1.0000e+00
</event>
<event>
 9      3 +1.0086356e-04 9.11880000e+01 7.81616400e-03 1.18400000e-01
      -11 -1    0    0    0    0 +0.0000000000e+00 +0.0000000000e+00 +4.5593999997e+01 4.5594000000e+01 5.1100000000e-04 0.0000e+00 1.0000e+00
       11 -1    0    0    0    0 -0.0000000000e+00 -0.0000000000e+00 -4.5593999997e+01 4.5594000000e+01 5.1100000000e-04 0.0000e+00 -1.0000e+00
       23  2    1    2    0    0 -1.7763568394e-15 +2.6645352591e-15 +1.7763568394e-15 9.1188000000e+01 9.1188000000e+01 1.5948e-13 0.0000e+00
  9990012  2    3    3    0    0 +1.5285070555e+01 -5.8042353735e+00 -9.1299570683e+00 7.2461584267e+01 7.0000018202e+01 1.5826e-05 0.0000e+00
       24  2    4    4    0    0 +1.0324411905e+01 -7.7692386320e+00 -1.5254791389e+01 6.4338594191e+01 6.1153834647e+01 5.8867e-14 0.0000e+00
      -11  1    5    5    0    0 +1.5690121376e+01 -2.6313781106e+01 +1.0290915898e+01 3.2318693278e+01 5.1100000000e-04 0.0000e+00 1.0000e+00
       11  1    4    4    0    0 +4.9606586503e+00 +1.9650032585e+00 +6.1248343208e+00 8.1229900757e+00 5.1100000000e-04 0.0000e+00 -1.0000e+00
       12  1    5    5    0    0 -5.3657094714e+00 +1.8544542474e+01 -2.5545707287e+01 3.2019900913e+01 0.0000000000e+00 0.0000e+00 -1.0000e+00
      -12  1    3    3    0    0 -1.5285070555e+01 +5.8042353735e+00 +9.1299570683e+00 1.8726415733e+01 0.0000000000e+00 0.0000e+00 1.0000e+00
</event>
<event>
 9      4 +1.0086356e-04 9.11880000e+01 7.81616400e-03 1.18400000e-01
      -11 -1    0    0    0    0 +0.0000000000e+00 +0.0000000000e+00 +4.5593999997e+01 4.5594000000e+01 5.1100000000e-04 0.0000e+00 1.0000e+00
       11 -1    0    0    0    0 -0.0000000000e+00 -0.0000000000e+00 -4.5593999997e+01 4.5594000000e+01 5.1100000000e-04 0.0000e+00 -1.0000e+00
       23  2    1    2    0    0 -3.5527136788e-15 +1.3322676296e-15 -1.3322676296e-15 9.1188000000e+01 9.1188000000e+01 4.2369e-14 0.0000e+00
 -9990012  2    3    3    0    0 +1.8278819671e+01 -3.2012200123e+00 -2.5128849984e+00 7.2461610889e+01 7.0000052881e+01 3.0046e-04 0.0000e+00
      -24  2    4    4    0    0 +2.2498056097e+01 +5.8735349839e-01 -1.6652949378e-02 6.6265933365e+01 6.2327089898e+01 1.8729e-14 0.0000e+00
      -11  1    4    4    0    0 -4.2192364262e+00 -3.7885735107e+00 -2.4962320491e+00 6.1956775231e+00 5.1100000000e-04 0.0000e+00 1.0000e+00
       11  1    5    5    0    0 +1.4306987095e+01 +1.5041512691e+01 -2.7315820801e+01 3.4308760544e+01 5.1100000000e-04 0.0000e+00 -1.0000e+00
      -12  1    5    5    0    0 +8.1910690027e+00 -1.4454159193e+01 +2.7299167851e+01 3.1957172822e+01 0.0000000000e+00 0.0000e+00 1.0000e+00
       12  1    3    3    0    0 -1.8278819671e+01 +3.2012200123e+00 +2.5128849984e+00 1.8726389111e+01 0.0000000000e+00 0.0000e+00 -1.0000e+00
</event>
<event>
 8      3 +1.0086356e-04 9.11880000e+01 7.81616400e-03 1.18400000e-01
      -11 -1    0    0    0    0 +0.0000000000e+00 +0.0000000000e+00 +4.5593999997e+01 4.5594000000e+01 5.1100000000e-04 0.0000e+00 1.0000e+00
       11 -1    0    0    0    0 -0.0000000000e+00 -0.0000000000e+00 -4.5593999997e+01 4.5594000000e+01 5.1100000000e-04 0.0000e+00 -1.0000e+00
       23  2    1    2    0    0 -8.8817841970e-16 -1.7763568394e-15 +0.0000000000e+00 9.1188000000e+01 9.1188000000e+01 4.6899e-14 0.0000e+00
  9990012  2    3    3    0    0 -1.7300874867e+00 -1.5821873410e+01 +9.8669178889e+00 7.2461522767e+01 6.9999938087e+01 1.0148e-04 0.0000e+00
      -11  1    4    4    0    0 -5.8292411531e+00 +1.0657641106e+01 -5.3298489472e-01 1.2159335489e+01 5.1100000000e-04 0.0000e+00 1.0000e+00
       11  1    4    4    0    0 -9.7915446839e+00 -2.1752205597e+00 -1.7885661542e+01 2.0506165435e+01 5.1100000000e-04 0.0000e+00 -1.0000e+00
       12  1    4    4    0    0 +1.3890698350e+01 -2.4304293957e+01 +2.8285564325e+01 3.9796021844e+01 0.0000000000e+00 0.0000e+00 -1.0000e+00
      -12  1    3    3    0    0 +1.7300874867e+00 +1.5821873410e+01 -9.8669178889e+00 1.8726477233e+01 0.0000000000e+00 0.0000e+00 1.0000e+00
</event>
<event>
 8      3 +1.0086356e-04 9.11880000e+01 7.81616400e-03 1.18400000e-01
      -11 -1    0    0    0    0 +0.0000000000e+00 +0.0000000000e+00 +4.5593999997e+01 4.5594000000e+01 5.1100000000e-04 0.0000e+00 1.0000e+00
       11 -1    0    0    0    0 -0.0000000000e+00 -0.0000000000e+00 -4.5593999997e+01 4.5594000000e+01 5.1100000000e-04 0.0000e+00 -1.0000e+00
       23  2    1    2    0    0 +0.0000000000e+00 +0.0000000000e+00 +1.7763568394e-15 9.1188000000e+01 9.1188000000e+01 2.4424e-14 0.0000e+00
  9990012  2    3    3    0    0 +8.8898374497e+00 +7.0772838228e+00 +1.4884954992e+01 7.2461573718e+01 7.0000004459e+01 1.3895e-04 0.0000e+00
      -11  1    4    4    0    0 -5.3618887404e-01 +7.0373321095e+00 +1.9355086721e+01 2.0601721383e+01 5.1100000000e-04 0.0000e+00 1.0000e+00
       11  1    4    4    0    0 +1.1842627578e+01 +7.2658443444e-01 +2.2146695928e+01 2.5124726739e+01 5.1100000000e-04 0.0000e+00 -1.0000e+00
       12  1    4    4    0    0 -2.4166012543e+00 -6.8663272112e-01 -2.6616827657e+01 2.6735125596e+01 0.0000000000e+00 0.0000e+00 -1.0000e+00
      -12  1    3    3    0    0 -8.8898374497e+00 -7.0772838228e+00 -1.4884954992e+01 1.8726426282e+01 0.0000000000e+00 0.0000e+00 1.0000e+00
</event>
<event>
 8      3 +1.0086356e-04 9.11880000e+01 7.81616400e-03 1.18400000e-01
      -11 -1    0    0    0    0 +0.0000000000e+00 +0.0000000000e+00 +4.5593999997e+01 4.5594000000e+01 5.1100000000e-04 0.0000e+00 1.0000e+00
       11 -1    0    0    0    0 -0.0000000000e+00 -0.0000000000e+00 -4.5593999997e+01 4.5594000000e+01 5.1100000000e-04 0.0000e+00 -1.0000e+00
       23  2    1    2    0    0 -4.4408920985e-16 -3.5527136788e-15 +3.5527136788e-15 9.1188000000e+01 9.1188000000e+01 5.8414e-15 0.0000e+00
  9990012  2    3    3    0    0 -3.5197758008e+00 +4.8419990443e+00 -1.7743912870e+01 7.2461542236e+01 6.9999963449e+01 2.6378e-04 0.0000e+00
      -11  1    4    4    0    0 -1.6049215325e+01 +1.0277755806e+01 +1.1504032722e+01 2.2261005056e+01 5.1100000000e-04 0.0000e+00 1.0000e+00
       11  1    4    4    0    0 +3.8115989284e-01 -1.6397194999e+01 +3.2261778898e-01 1.6404797140e+01 5.1100000000e-04 0.0000e+00 -1.0000e+00
       12  1    4    4    0    0 +1.2148279631e+01 +1.0961438237e+01 -2.9570563381e+01 3.3795740041e+01 0.0000000000e+00 0.0000e+00 -1.0000e+00
      -12  1    3    3    0    0 +3.5197758008e+00 -4.8419990443e+00 +1.7743912870e+01 1.8726457764e+01 0.0000000000e+00 0.0000e+00 1.0000e+00
</event>
<event>
 8      3 +1.0086356e-04 9.11880000e+01 7.81616400e-03 1.18400000e-01
      -11 -1    0    0    0    0 +0.0000000000e+00 +0.0000000000e+00 +4.5593999997e+01 4.5594000000e+01 5.1100000000e-04 0.0000e+00 -1.0000e+00
       11 -1    0    0    0    0 -0.0000000000e+00 -0.0000000000e+00 -4.5593999997e+01 4.5594000000e+01 5.1100000000e-04 0.0000e+00 1.0000e+00
       23  2    1    2    0    0 +0.0000000000e+00 +2.2204460493e-15 -1.7763568394e-15 9.1188000000e+01 9.1188000000e+01 1.7459e-13 0.0000e+00
  9990012  2    3    3    0    0 +1.3047783480e+01 +2.7507712061e+00 -1.3147975771e+01 7.2461530422e+01 6.9999948059e+01 2.5429e-04 0.0000e+00
      -11  1    4    4    0    0 -1.3744391212e+01 +3.2217035333e+00 -1.4606023006e+01 2.0313137911e+01 5.1100000000e-04 0.0000e+00 1.0000e+00
       11  1    4    4    0    0 +2.7982695236e+01 +1.5419902933e+01 +1.0739986269e+01 3.3706853079e+01 5.1100000000e-04 0.0000e+00 -1.0000e+00
       12  1    4    4    0    0 -1.1905205436e+00 -1.5890835260e+01 -9.2819390338e+00 1.8441539433e+01 0.0000000000e+00 0.0000e+00 -1.0000e+00
      -12  1    3    3    0    0 -1.3047783480e+01 -2.7507712061e+00 +1.3147975771e+01 1.8726469578e+01 0.0000000000e+00 0.0000e+00 1.0000e+00
</event>
<event>
 9      4 +1.0086356e-04 9.11880000e+01 7.81616400e-03 1.18400000e-01
      -11 -1    0    0    0    0 +0.0000000000e+00 +0.0000000000e+00 +4.5593999997e+01 4.5594000000e+01 5.1100000000e-04 0.0000e+00 1.0000e+00
       11 -1    0    0    0    0 -0.0000000000e+00 -0.0000000000e+00 -4.5593999997e+01 4.5594000000e+01 5.1100000000e-04 0.0000e+00 -1.0000e+00
       23  2    1    2    0    0 +1.7763568394e-15 -8.8817841970e-16 +5.3290705182e-15 9.1188000000e+01 9.1188000000e+01 1.6183e-15 0.0000e+00
 -9990012  2    3    3    0    0 +1.2209958833e+01 +7.2515108747e+00 +1.2207075308e+01 7.2461542988e+01 6.9999964428e+01 3.5055e-05 0.0000e+00
      -24  2    4    4    0    0 +9.0963595416e+00 +1.1772331611e+01 +2.1026989632e+01 6.2072933378e+01 5.6476395217e+01 2.2576e-13 0.0000e+00
      -11  1    4    4    0    0 +3.1135992909e+00 -4.5208207362e+00 -8.8199143242e+00 1.0388609610e+01 5.1100000000e-04 0.0000e+00 1.0000e+00
       11  1    5    5    0    0 +4.3391647448e-01 -2.0116182358e+01 +2.0923967038e+01 2.9028631953e+01 5.1100000000e-04 0.0000e+00 -1.0000e+00
      -12  1    5    5    0    0 +8.6624430672e+00 +3.1888513969e+01 +1.0302259440e-01 3.3044301426e+01 0.0000000000e+00 0.0000e+00 1.0000e+00
       12  1    3    3    0    0 -1.2209958833e+01 -7.2515108747e+00 -1.2207075308e+01 1.8726457012e+01 0.0000000000e+00 0.0000e+00 -1.0000e+00
</event>
<event>
 9      4 +1.0086356e-04 9.11880000e+01 7.81616400e-03 1.18400000e-01
      -11 -1    0    0    0    0 +0.0000000000e+00 +0.0000000000e+00 +4.5593999997e+01 4.5594000000e+01 5.1100000000e-04 0.0000e+00 -1.0000e+00
       11 -1    0    0    0    0 -0.0000000000e+00 -0.0000000000e+00 -4.5593999997e+01 4.5594000000e+01 5.1100000000e-04 0.0000e+00 1.0000e+00
       23  2    1    2    0    0 +5.5511151231e-16 -3.5527136788e-15 -1.7763568394e-15 9.1188000000e+01 9.1188000000e+01 1.1171e-13 0.0000e+00
 -9990012  2    3    3    0    0 -7.0776428828e-01 +1.3638242659e+01 -1.2813014150e+01 7.2461656932e+01 7.0000112861e+01 3.9917e-04 0.0000e+00
      -24  2    4    4    0    0 +4.0721152705e+00 -5.1256249815e+00 -1.3075020971e+01 5.3096775697e+01 5.1043679939e+01 2.4229e-13 0.0000e+00
      -11  1    4    4    0    0 -4.7798795588e+00 +1.8763867640e+01 +2.6200682174e-01 1.9364881235e+01 5.1100000000e-04 0.0000e+00 1.0000e+00
       11  1    5    5    0    0 -4.9789764031e+00 +2.1951768187e+01 -2.4858270675e+00 2.2646184425e+01 5.1100000000e-04 0.0000e+00 -1.0000e+00
      -12  1    5    5    0    0 +9.0510916736e+00 -2.7077393168e+01 -1.0589193904e+01 3.0450591272e+01 0.0000000000e+00 0.0000e+00 1.0000e+00
       12  1    3    3    0    0 +7.0776428828e-01 -1.3638242659e+01 +1.2813014150e+01 1.8726343068e+01 0.0000000000e+00 0.0000e+00 -1.0000e+00
</event>
<event>
 8      4 +1.0086356e-04 9.11880000e+01 7.81616400e-03 1.18400000e-01
      -11 -1    0    0    0    0 +0.0000000000e+00 +0.0000000000e+00 +4.5593999997e+01 4.5594000000e+01 5.1100000000e-04 0.0000e+00 -1.0000e+00
       11 -1    0    0    0    0 -0.0000000000e+00 -0.0000000000e+00 -4.5593999997e+01 4.5594000000e+01 5.1100000000e-04 0.0000e+00 1.0000e+00
       23  2    1    2    0    0 -3.5527136788e-15 +8.8817841970e-16 -8.8817841970e-16 9.1188000000e+01 9.1188000000e+01 3.3051e-15 0.0000e+00
 -9990012  2    3    3    0    0 +1.6957024839e+01 -3.7671834931e+00 -6.9960150552e+00 7.2461639181e+01 7.0000089738e+01 1.5889e-04 0.0000e+00
      -11  1    4    4    0    0 -9.9571959190e+00 -4.9300680870e+00 -1.2742042283e+01 1.6905944626e+01 5.1100000000e-04 0.0000e+00 1.0000e+00
       11  1    4    4    0    0 +9.0731542122e-01 -1.8815683628e+01 +1.1769824800e+01 2.2212202677e+01 5.1100000000e-04 0.0000e+00 -1.0000e+00
      -12  1    4    4    0    0 +2.6006905337e+01 +1.9978568222e+01 -6.0237975728e+00 3.3343491878e+01 0.0000000000e+00 0.0000e+00 1.0000e+00
       12  1    3    3    0    0 -1.6957024839e+01 +3.7671834931e+00 +6.9960150552e+00 1.8726360819e+01 0.0000000000e+00 0.0000e+00 -1.0000e+00
</event>
<event>
 9      3 +1.0086356e-04 9.11880000e+01 7.81616400e-03 1.18400000e-01
      -11 -1    0    0    0    0 +0.0000000000e+00 +0.0000000000e+00 +4.5593999997e+01 4.5594000000e+01 5.1100000000e-04 0.0000e+00 1.0000e+00
       11 -1    0    0    0    0 -0.0000000000e+00 -0.0000000000e+00 -4.5593999997e+01 4.5594000000e+01 5.1100000000e-04 0.0000e+00 -1.0000e+00
       23  2    1    2    0    0 +3.5527136788e-15 +0.0000000000e+00 -3.5527136788e-15 9.1188000000e+01 9.1188000000e+01 5.5594e-14 0.0000e+00
  9990012  2    3    3    0    0 +2.7299434881e+00 -1.0589489392e+01 -1.5201601902e+01 7.2461586104e+01 7.0000020594e+01 1.0526e-04 0.0000e+00
       24  2    4    4    0    0 +6.1725642840e+00 +2.2852896734e+00 -2.0163346122e+01 5.8240809758e+01 5.4241204777e+01 1.7855e-13 0.0000e+00
      -11  1    5    5    0    0 -2.2875587421e+01 +4.1118646308e+00 -7.4873075022e-01 2.3254258290e+01 5.1100000000e-04 0.0000e+00 1.0000e+00
       11  1    4    4    0    0 -3.4426207959e+00 -1.2874779065e+01 +4.9617442196e+00 1.4220776346e+01 5.1100000000e-04 0.0000e+00 -1.0000e+00
       12  1    5    5    0    0 +2.9048151705e+01 -1.8265749574e+00 -1.9414615372e+01 3.4986551468e+01 0.0000000000e+00 0.0000e+00 -1.0000e+00
      -12  1    3    3    0    0 -2.7299434881e+00 +1.0589489392e+01 +1.5201601902e+01 1.8726413896e+01 0.0000000000e+00 0.0000e+00 1.0000e+00
</event>
<event>
 8      4 +1.0086356e-04 9.11880000e+01 7.81616400e-03 1.18400000e-01
      -11 -1    0    0    0    0 +0.0000000000e+00 +0.0000000000e+00 +4.5593999997e+01 4.5594000000e+01 5.1100000000e-04 0.0000e+00 1.0000e+00
       11 -1    0    0    0    0 -0.0000000000e+00 -0.0000000000e+00 -4.5593999997e+01 4.5594000000e+01 5.1100000000e-04 0.0000e+00 -1.0000e+00
       23  2    1    2    0    0 -4.4408920985e-16 -3.5527136788e-15 +1.7763568394e-15 9.1188000000e+01 9.1188000000e+01 9.0353e-14 0.0000e+00
 -9990012  2    3    3    0    0 -3.9076433851e+00 +1.0258001635e+01 +1.5171729539e+01 7.2461610824e+01 7.0000052797e+01 2.0749e-04 0.0000e+00
      -11  1    4    4    0    0 -6.8647065133e+00 -1.0956474339e+01 -7.4914617133e+00 1.4942908831e+01 5.1100000000e-04 0.0000e+00 1.0000e+00
       11  1    4    4    0    0 -1.2089257864e+01 +4.3345051142e-01 -1.0202269871e+01 1.5824801605e+01 5.1100000000e-04 0.0000e+00 -1.0000e+00
      -12  1    4    4    0    0 +1.5046320992e+01 +2.0781025463e+01 +3.2865461124e+01 4.1693900388e+01 0.0000000000e+00 0.0000e+00 1.0000e+00
       12  1    3    3    0    0 +3.9076433851e+00 -1.0258001635e+01 -1.5171729539e+01 1.8726389176e+01 0.0000000000e+00 0.0000e+00 -1.0000e+00
</event>
<event>
 8      4 +1.0086356e-04 9.11880000e+01 7.81616400e-03 1.18400000e-01
      -11 -1    0    0    0    0 +0.0000000000e+00 +0.0000000000e+00 +4.5593999997e+01 4.5594000000e+01 5.1100000000e-04 0.0000e+00 -1.0000e+00
       11 -1    0    0    0    0 -0.0000000000e+00 -0.0000000000e+00 -4.5593999997e+01 4.5594000000e+01 5.1100000000e-04 0.0000e+00 1.0000e+00
       23  2    1    2    0    0 -1.7763568394e-15 -3.5527136788e-15 +2.2204460493e-16 9.1188000000e+01 9.1188000000e+01 6.4386e-14 0.0000e+00
 -9990012  2    3    3    0    0 +1.5830588596e+01 +9.8504007945e+00 -1.7437346133e+00 7.2461587062e+01 7.0000021844e+01 3.9600e-04 0.0000e+00
      -11  1    4    4    0    0 -2.3916996155e+01 +4.6059153687e+00 -8.3227637152e+00 2.5739183313e+01 5.1100000000e-04 0.0000e+00 1.0000e+00
       11  1    4    4    0    0 +2.7821144678e+01 +1.2462490977e+01 -1.6583762941e+00 3.0529985011e+01 5.1100000000e-04 0.0000e+00 -1.0000e+00
      -12  1    4    4    0    0 +1.1926440073e+01 -7.2180055514e+00 +8.2374053960e+00 1.6192418739e+01 0.0000000000e+00 0.0000e+00 1.0000e+00
       12  1    3    3    0    0 -1.5830588596e+01 -9.8504007945e+00 +1.7437346133e+00 1.8726412938e+01 0.0000000000e+00 0.0000e+00 -1.0000e+00
</event>
<event>
 8      3 +1.0086356e-04 9.11880000e+01 7.81616400e-03 1.18400000e-01
      -11 -1    0    0    0    0 +0.0000000000e+00 +0.0000000000e+00 +4.5593999997e+01 4.5594000000e+01 5.1100000000e-04 0.0000e+00 -1.0000e+00
       11 -1    0    0    0    0 -0.0000000000e+00 -0.0000000000e+00 -4.5593999997e+01 4.5594000000e+01 5.1100000000e-04 0.0000e+00 1.0000e+00
       23  2    1    2    0    0 +0.0000000000e+00 -3.5527136788e-15 -2.2204460493e-15 9.1188000000e+01 9.1188000000e+01 1.4523e-13 0.0000e+00
  9990012  2    3    3    0    0 -7.5737266558e+00 -1.6755775426e+01 +3.5438057969e+00 7.2461657455e+01 7.0000113543e+01 1.0563e-04 0.0000e+00
      -11  1    4    4    0    0 -1.1400721848e+01 -8.1379610142e+00 +3.0564728491e+00 1.4336836983e+01 5.1100000000e-04 0.0000e+00 1.0000e+00
       11  1    4    4    0    0 -2.6683267938e+00 +1.9428911353e+01 +1.6101210163e+01 2.5374229707e+01 5.1100000000e-04 0.0000e+00 -1.0000e+00
       12  1    4    4    0    0 +6.4953219862e+00 -2.8046725765e+01 -1.5613877215e+01 3.2750590766e+01 0.0000000000e+00 0.0000e+00 -1.0000e+00
      -12  1    3    3    0    0 +7.5737266558e+00 +1.6755775426e+01 -3.5438057969e+00 1.8726342545e+01 0.0000000000e+00 0.0000e+00 1.0000e+00
</event>
<event>
 9      4 +1.0086356e-04 9.11880000e+01 7.81616400e-03 1.18400000e-01
      -11 -1    0    0    0    0 +0.0000000000e+00 +0.0000000000e+00 +4.5593999997e+01 4.5594000000e+01 5.1100000000e-04 0.0000e+00 1.0000e+00
       11 -1    0    0    0    0 -0.0000000000e+00 -0.0000000000e+00 -4.5593999997e+01 4.5594000000e+01 5.1100000000e-04 0.0000e+00 -1.0000e+00
       23  2    1    2    0    0 +0.0000000000e+00 +0.0000000000e+00 +7.1054273576e-15 9.1188000000e+01 9.1188000000e+01 4.9364e-14 0.0000e+00
 -9990012  2    3    3    0    0 +5.4618576218e+00 +3.2397676520e+00 +1.7616859541e+01 7.2461502110e+01 6.9999911178e+01 1.3506e-04 0.0000e+00
      -24  2    4    4    0    0 +4.8682755581e+00 +1.1645706873e+00 +2.0196326107e+01 6.9098106485e+01 6.5890821817e+01 9.3210e-14 0.0000e+00
      -11  1    4    4    0    0 +5.9358206378e-01 +2.0751969648e+00 -2.5794665660e+00 3.3633956257e+00 5.1100000000e-04 0.0000e+00 1.0000e+00
       11  1    5    5    0    0 -1.1990066173e+01 +3.3262131329e+00 -2.1069380135e+01 2.4469249277e+01 5.1100000000e-04 0.0000e+00 -1.0000e+00
      -12  1    5    5    0    0 +1.6858341731e+01 -2.1616424456e+00 +4.1265706242e+01 4.4628857208e+01 0.0000000000e+00 0.0000e+00 1.0000e+00
       12  1    3    3    0    0 -5.4618576218e+00 -3.2397676520e+00 -1.7616859541e+01 1.8726497890e+01 0.0000000000e+00 0.0000e+00 -1.0000e+00
</event>
<event>
 8      4 +1.0086356e-04 9.11880000e+01 7.81616400e-03 1.18400000e-01
      -11 -1    0    0    0    0 +0.0000000000e+00 +0.0000000000e+00 +4.5593999997e+01 4.5594000000e+01 5.1100000000e-04 0.0000e+00 1.0000e+00
       11 -1    0    0    0    0 -0.0000000000e+00 -0.0000000000e+00 -4.5593999997e+01 4.5594000000e+01 5.1100000000e-04 0.0000e+00 -1.0000e+00
       23  2    1    2    0    0 +0.0000000000e+00 +0.0000000000e+00 +3.5527136788e-15 9.1188000000e+01 9.1188000000e+01 2.9324e-14 0.0000e+00
 -9990012  2    3    3    0    0 -1.5284546430e+01 -4.0613769222e+00 -1.0028272760e+01 7.2461590931e+01 7.0000026883e+01 3.9147e-04 0.0000e+00
      -11  1    4    4    0    0 -5.5880013971e+00 -1.2084169328e+01 -2.0188416128e+01 2.4183156410e+01 5.1100000000e-04 0.0000e+00 1.0000e+00
       11  1    4    4    0    0 +1.0424949483e+01 +1.2092011361e+01 -1.0535306257e+01 1.9128224922e+01 5.1100000000e-04 0.0000e+00 -1.0000e+00
      -12  1    4    4    0    0 -2.0121494516e+01 -4.0692189549e+00 +2.0695449625e+01 2.9150209598e+01 0.0000000000e+00 0.0000e+00 1.0000e+00
       12  1    3    3    0    0 +1.5284546430e+01 +4.0613769222e+00 +1.0028272760e+01 1.8726409069e+01 0.0000000000e+00 0.0000e+00 -1.0000e+00
</event>
<event>
 9      4 +1.0086356e-04 9.11880000e+01 7.81616400e-03 1.18400000e-01
      -11 -1    0    0    0    0 +0.0000000000e+00 +0.0000000000e+00 +4.5593999997e+01 4.5594000000e+01 5.1100000000e-04 0.0000e+00 1.0000e+00
       11 -1    0    0    0    0 -0.0000000000e+00 -0.0000000000e+00 -4.5593999997e+01 4.5594000000e+01 5.1100000000e-04 0.0000e+00 -1.0000e+00
       23  2    1    2    0    0 +2.2204460493e-16 -2.6645352591e-15 +0.0000000000e+00 9.1188000000e+01 9.1188000000e+01 1.1028e-14 0.0000e+00
 -9990012  2    3    3    0    0 +1.2007540953e+00 -5.1817477336e+00 +1.7955014412e+01 7.2461685293e+01 7.0000149807e+01 3.3139e-06 0.0000e+00
      -24  2    4    4    0    0 -1.7266719539e+00 +5.1848840718e+00 +2.3229271884e+01 6.0467742221e+01 5.5559736844e+01 1.5024e-14 0.0000e+00
      -11  1    4    4    0    0 +2.9274260492e+00 -1.0366631805e+01 -5.2742574723e+00 1.1993943072e+01 5.1100000000e-04 0.0000e+00 1.0000e+00
       11  1    5    5    0    0 -1.8357752303e+00 +2.6242023073e+01 -3.3932020060e+00 2.6524095946e+01 5.1100000000e-04 0.0000e+00 -1.0000e+00
      -12  1    5    5    0    0 +1.0910327639e-01 -2.1057139001e+01 +2.6622473890e+01 3.3943646275e+01 0.0000000000e+00 0.0000e+00 1.0000e+00
       12  1    3    3    0    0 -1.2007540953e+00 +5.1817477336e+00 -1.7955014412e+01 1.8726314707e+01 0.0000000000e+00 0.0000e+00 -1.0000e+00
</event>
<event>
 8      4 +1.0086356e-04 9.11880000e+01 7.81616400e-03 1.18400000e-01
      -11 -1    0    0    0    0 +0.0000000000e+00 +0.0000000000e+00 +4.5593999997e+01 4.5594000000e+01 5.1100000000e-04 0.0000e+00 1.0000e+00
       11 -1    0    0    0    0 -0.0000000000e+00 -0.0000000000e+00 -4.5593999997e+01 4.5594000000e+01 5.1100000000e-04 0.0000e+00 -1.0000e+00
       23  2    1    2    0    0 -1.7763568394e-15 +0.0000000000e+00 -1.7763568394e-15 9.1188000000e+01 9.1188000000e+01 3.2463e-14 0.0000e+00
 -9990012  2    3    3    0    0 +1.1573569469e+01 +8.8391000903e+00 +1.1772870244e+01 7.2461610213e+01 7.0000052001e+01 5.3289e-04 0.0000e+00
      -11  1    4    4    0    0 +7.6524492512e+00 +2.0016867331e+01 -1.9366170259e+01 2.8883966279e+01 5.1100000000e-04 0.0000e+00 1.0000e+00
       11  1    4    4    0    0 -2.4051099072e+00 -9.0596811271e+00 -2.1581181161e+00 9.6187239203e+00 5.1100000000e-04 0.0000e+00 -1.0000e+00
      -12  1    4    4    0    0 +6.3262301254e+00 -2.1180861133e+00 +3.3297158619e+01 3.3958920013e+01 0.0000000000e+00 0.0000e+00 1.0000e+00
       12  1    3    3    0    0 -1.1573569469e+01 -8.8391000903e+00 -1.1772870244e+01 1.8726389787e+01 0.0000000000e+00 0.0000e+00 -1.0000e+00
</event>
<event>
 9      3 +1.0086356e-04 9.11880000e+01 7.81616400e-03 1.18400000e-01
      -11 -1    0    0    0    0 +0.0000000000e+00 +0.0000000000e+00 +4.5593999997e+01 4.5594000000e+01 5.1100000000e-04 0.0000e+00 1.0000e+00
       11 -1    0    0    0    0 -0.0000000000e+00 -0.0000000000e+00 -4.5593999997e+01 4.5594000000e+01 5.1100000000e-04 0.0000e+00 -1.0000e+00
       23  2    1    2    0    0 -3.5527136788e-15 +0.0000000000e+00 -3.5527136788e-15 9.1188000000e+01 9.1188000000e+01 4.3737e-14 0.0000e+00
  9990012  2    3    3    0    0 -1.6013021892e+00 -8.3333848438e+00 -1.6693343462e+01 7.2461623212e+01 7.0000068935e+01 4.0568e-05 0.0000e+00
       24  2    4    4    0    0 -1.4172020402e+00 -9.1010841167e+00 -1.6508907087e+01 7.1650900031e+01 6.9112005240e+01 5.0357e-15 0.0000e+00
      -11  1    5    5    0    0 +3.3150519626e+01 +1.9432658337e+00 -1.0773094857e+01 3.4911213193e+01 5.1100000000e-04 0.0000e+00 1.0000e+00
       11  1    4    4    0    0 -1.8410014903e-01 +7.6769927299e-01 -1.8443637523e-01 8.1072318103e-01 5.1100000000e-04 0.0000e+00 -1.0000e+00
       12  1    5    5    0    0 -3.4567721666e+01 -1.1044349950e+01 -5.7358122304e+00 3.6739686838e+01 0.0000000000e+00 0.0000e+00 -1.0000e+00
      -12  1    3    3    0    0 +1.6013021892e+00 +8.3333848438e+00 +1.6693343462e+01 1.8726376788e+01 0.0000000000e+00 0.0000e+00 1.0000e+00
</event>
<event>
 8      4 +1.0086356e-04 9.11880000e+01 7.81616400e-03 1.18400000e-01
      -11 -1    0    0    0    0 +0.0000000000e+00 +0.0000000000e+00 +4.5593999997e+01 4.5594000000e+01 5.1100000000e-04 0.0000e+00 1.0000e+00
       11 -1    0    0    0    0 -0.0000000000e+00 -0.0000000000e+00 -4.5593999997e+01 4.5594000000e+01 5.1100000000e-04 0.0000e+00 -1.0000e+00
       23  2    1    2    0    0 +0.0000000000e+00 +0.0000000000e+00 +1.7763568394e-15 9.1188000000e+01 9.1188000000e+01 8.1997e-14 0.0000e+00
 -9990012  2    3    3    0    0 +1.1475042881e+01 +1.0141738244e+01 +1.0777148362e+01 7.2461591092e+01 7.0000027093e+01 2.8704e-04 0.0000e+00
      -11  1    4    4    0    0 +2.9645618168e+01 -1.7005374707e+01 +1.6151537818e+01 3.7801026701e+01 5.1100000000e-04 0.0000e+00 1.0000e+00
       11  1    4    4    0    0 -8.4633871850e+00 +4.6669530619e+00 -3.9488402978e-01 9.6729161675e+00 5.1100000000e-04 0.0000e+00 -1.0000e+00
      -12  1    4    4    0    0 -9.7071881014e+00 +2.2480159890e+01 -4.9795054260e+00 2.4987648224e+01 0.0000000000e+00 0.0000e+00 1.0000e+00
       12  1    3    3    0    0 -1.1475042881e+01 -1.0141738244e+01 -1.0777148362e+01 1.8726408908e+01 0.0000000000e+00 0.0000e+00 -1.0000e+00
</event>
<event>
 8      3 +1.0086356e-04 9.11880000e+01 7.81616400e-03 1.18400000e-01
      -11 -1    0    0    0    0 +0.0000000000e+00 +0.0000000000e+00 +4.5593999997e+01 4.5594000000e+01 5.1100000000e-04 0.0000e+00 -1.0000e+00
       11 -1    0    0    0    0 -0.0000000000e+00 -0.0000000000e+00 -4.5593999997e+01 4.5594000000e+01 5.1100000000e-04 0.0000e+00 1.0000e+00
       23  2    1    2    0    0 +0.0000000000e+00 +0.0000000000e+00 -1.7763568394e-15 9.1188000000e+01 9.1188000000e+01 1.6340e-13 0.0000e+00
  9990012  2    3    3    0    0 +1.1137148072e+01 +1.0564731318e+01 +1.0725226468e+01 7.2461545509e+01 6.9999967713e+01 3.0409e-04 0.0000e+00
      -11  1    4    4    0    0 -1.2924479489e+00 -3.3234855737e+00 -1.6992649953e+01 1.7362780041e+01 5.1100000000e-04 0.0000e+00 1.0000e+00
       11  1    4    4    0    0 -8.2773964990e+00 +6.3006452266e+00 -7.9987477930e+00 1.3122247886e+01 5.1100000000e-04 0.0000e+00 -1.0000e+00
       12  1    4    4    0    0 +2.0706992520e+01 +7.5875716648e+00 +3.5716624215e+01 4.1976517582e+01 0.0000000000e+00 0.0000e+00 -1.0000e+00
      -12  1    3    3    0    0 -1.1137148072e+01 -1.0564731318e+01 -1.0725226468e+01 1.8726454491e+01 0.0000000000e+00 0.0000e+00 1.0000e+00
</event>
<event>
 9      3 +1.0086356e-04 9.11880000e+01 7.81616400e-03 1.18400000e-01
      -11 -1    0    0    0    0 +0.0000000000e+00 +0.0000000000e+00 +4.5593999997e+01 4.5594000000e+01 5.1100000000e-04 0.0000e+00 1.0000e+00
       11 -1    0    0    0    0 -0.0000000000e+00 -0.0000000000e+00 -4.5593999997e+01 4.5594000000e+01 5.1100000000e-04 0.0000e+00 -1.0000e+00
       23  2    1    2    0    0 +0.0000000000e+00 -5.3290705182e-15 -8.8817841970e-16 9.1188000000e+01 9.1188000000e+01 1.6235e-15 0.0000e+00
  9990012  2    3    3    0    0 +1.3145912907e+01 -1.1978113702e+01 +5.8642019904e+00 7.2461572177e+01 7.0000002453e+01 1.1074e-04 0.0000e+00
       24  2    4    4    0    0 +1.8923765463e+01 -1.4804032687e+01 +1.6242152359e+00 6.4757879153e+01 6.0113863245e+01 4.7518e-14 0.0000e+00
      -11  1    5    5    0    0 +5.0373051674e+00 +2.2170807561e+01 -8.0060732339e+00 2.4104280950e+01 5.1100000000e-04 0.0000e+00 -1.0000e+00
       11  1    4    4    0    0 -5.7778525564e+00 +2.8259189847e+00 +4.2399867545e+00 7.7036930242e+00 5.1100000000e-04 0.0000e+00 1.0000e+00
       12  1    5    5    0    0 +1.3886460296e+01 -3.6974840247e+01 +9.6302884698e+00 4.0653598203e+01 0.0000000000e+00 0.0000e+00 -1.0000e+00
      -12  1    3    3    0    0 -1.3145912907e+01 +1.1978113702e+01 -5.8642019904e+00 1.8726427823e+01 0.0000000000e+00 0.0000e+00 1.0000e+00
</event>
<event>
 8      3 +1.0086356e-04 9.11880000e+01 7.81616400e-03 1.18400000e-01
      -11 -1    0    0    0    0 +0.0000000000e+00 +0.0000000000e+00 +4.5593999997e+01 4.5594000000e+01 5.1100000000e-04 0.0000e+00 -1.0000e+00
       11 -1    0    0    0    0 -0.0000000000e+00 -0.0000000000e+00 -4.5593999997e+01 4.5594000000e+01 5.1100000000e-04 0.0000e+00 1.0000e+00
       23  2    1    2    0    0 +0.0000000000e+00 +0.0000000000e+00 +4.4408920985e-16 9.1188000000e+01 9.1188000000e+01 6.5648e-14 0.0000e+00
  9990012  2    3    3    0    0 -1.6378582279e+01 +9.0488717704e+00 -7.3328481331e-01 7.2461608345e+01 7.0000049568e+01 1.1716e-04 0.0000e+00
      -11  1    4    4    0    0 +1.1707475193e+01 +8.6794127112e-01 +1.0675662502e+01 1.5867831218e+01 5.1100000000e-04 0.0000e+00 1.0000e+00
       11  1    4    4    0    0 -1.4279061499e+00 -1.3483440883e+01 +9.3381968481e+00 1.6463414429e+01 5.1100000000e-04 0.0000e+00 -1.0000e+00
       12  1    4    4    0    0 -2.6658151323e+01 +2.1664371382e+01 -2.0747144164e+01 4.0130362698e+01 0.0000000000e+00 0.0000e+00 -1.0000e+00
      -12  1    3    3    0    0 +1.6378582279e+01 -9.0488717704e+00 +7.3328481331e-01 1.8726391655e+01 0.0000000000e+00 0.0000e+00 1.0000e+00
</event>
<event>
 9      4 +1.0086356e-04 9.11880000e+01 7.81616400e-03 1.18400000e-01
      -11 -1    0    0    0    0 +0.0000000000e+00 +0.0000000000e+00 +4.5593999997e+01 4.5594000000e+01 5.1100000000e-04 0.0000e+00 1.0000e+00
       11 -1    0    0    0    0 -0.0000000000e+00 -0.0000000000e+00 -4.5593999997e+01 4.5594000000e+01 5.1100000000e-04 0.0000e+00 -1.0000e+00
       23  2    1    2    0    0 +0.0000000000e+00 +3.5527136788e-15 -8.8817841970e-16 9.1188000000e+01 9.1188000000e+01 2.0871e-14 0.0000e+00
 -9990012  2    3    3    0    0 -1.2261886801e+01 +1.2959759263e+01 +5.6894522198e+00 7.2461572294e+01 7.0000002605e+01 8.7022e-05 0.0000e+00
      -24  2    4    4    0    0 +6.8853777616e-01 +1.8034827217e+01 +3.9042030874e+00 5.8438130271e+01 5.5444054602e+01 2.4826e-13 0.0000e+00
      -11  1    4    4    0    0 -1.2950424577e+01 -5.0750679536e+00 +1.7852491324e+00 1.4023442023e+01 5.1100000000e-04 0.0000e+00 1.0000e+00
       11  1    5    5    0    0 -1.8409699048e+01 +2.8198463093e+01 +1.1382819034e+01 3.5547699071e+01 5.1100000000e-04 0.0000e+00 -1.0000e+00
      -12  1    5    5    0    0 +1.9098236824e+01 -1.0163635876e+01 -7.4786159467e+00 2.2890431199e+01 0.0000000000e+00 0.0000e+00 1.0000e+00
       12  1    3    3    0    0 +1.2261886801e+01 -1.2959759263e+01 -5.6894522198e+00 1.8726427706e+01 0.0000000000e+00 0.0000e+00 -1.0000e+00
</event>
<event>
 8      4 +1.0086356e-04 9.11880000e+01 7.81616400e-03 1.18400000e-01
      -11 -1    0    0    0    0 +0.0000000000e+00 +0.0000000000e+00 +4.5593999997e+01 4.5594000000e+01 5.1100000000e-04 0.0000e+00 1.0000e+00
       11 -1    0    0    0    0 -0.0000000000e+00 -0.0000000000e+00 -4.5593999997e+01 4.5594000000e+01 5.1100000000e-04 0.0000e+00 -1.0000e+00
       23  2    1    2    0    0 -8.8817841970e-16 -5.3290705182e-15 +3.5527136788e-15 9.1188000000e+01 9.1188000000e+01 1.4270e-13 0.0000e+00
 -9990012  2    3    3    0    0 +1.1629204289e+00 +8.8307447146e+00 +1.6472590729e+01 7.2461529925e+01 6.9999947412e+01 3.1010e-04 0.0000e+00
      -11  1    4    4    0    0 -4.5731215645e-01 +5.2745564994e+00 -5.4086795687e+00 7.5686125288e+00 5.1100000000e-04 0.0000e+00 1.0000e+00
       11  1    4    4    0    0 -2.7698181184e+00 -2.6081347456e+01 +2.3038579092e+01 3.4909664913e+01 5.1100000000e-04 0.0000e+00 -1.0000e+00
      -12  1    4    4    0    0 +4.3900507038e+00 +2.9637535671e+01 -1.1573087945e+00 2.9983252483e+01 0.0000000000e+00 0.0000e+00 1.0000e+00
       12  1    3    3    0    0 -1.1629204289e+00 -8.8307447146e+00 -1.6472590729e+01 1.8726470075e+01 0.0000000000e+00 0.0000e+00 -1.0000e+00
</event>
<event>
 8      4 +1.0086356e-04 9.11880000e+01 7.81616400e-03 1.18400000e-01
      -11 -1    0    0    0    0 +0.0000000000e+00 +0.0000000000e+00 +4.5593999997e+01 4.5594000000e+01 5.1100000000e-04 0.0000e+00 -1.0000e+00
       11 -1    0    0    0    0 -0.0000000000e+00 -0.0000000000e+00 -4.5593999997e+01 4.5594000000e+01 5.1100000000e-04 0.0000e+00 1.0000e+00
       23  2    1    2    0    0 +1.7763568394e-15 +0.0000000000e+00 +0.0000000000e+00 9.1188000000e+01 9.1188000000e+01 1.9139e-13 0.0000e+00
 -9990012  2    3    3    0    0 +1.5825972299e+01 -4.3525652899e+00 -9.0151366666e+00 7.2461577145e+01 7.0000008924e+01 4.3703e-04 0.0000e+00
      -11  1    4    4    0    0 +1.3838477531e+01 -3.0515001672e+00 +1.2166700074e+01 1.8677358074e+01 5.1100000000e-04 0.0000e+00 1.0000e+00
       11  1    4    4    0    0 -2.1815812572e+01 -2.8429208373e+00 -1.7709068823e-01 2.2000982670e+01 5.1100000000e-04 0.0000e+00 -1.0000e+00
      -12  1    4    4    0    0 +2.3803307340e+01 +1.5418557146e+00 -2.1004746053e+01 3.1783236401e+01 0.0000000000e+00 0.0000e+00 1.0000e+00
       12  1    3    3    0    0 -1.5825972299e+01 +4.3525652899e+00 +9.0151366666e+00 1.8726422855e+01 0.0000000000e+00 0.0000e+00 -1.0000e+00
</event>
<event>
 8      3 +1.0086356e-04 9.11880000e+01 7.81616400e-03 1.18400000e-01
      -11 -1    0    0    0    0 +0.0000000000e+00 +0.0000000000e+00 +4.5593999997e+01 4.5594000000e+01 5.1100000000e-04 0.0000e+00 -1.0000e+00
       11 -1    0    0    0    0 -0.0000000000e+00 -0.0000000000e+00 -4.5593999997e+01 4.5594000000e+01 5.1100000000e-04 0.0000e+00 1.0000e+00
       23  2    1    2    0    0 +0.0000000000e+00 +3.5527136788e-15 +1.9151347175e-15 9.1188000000e+01 9.1188000000e+01 1.6683e-14 0.0000e+00
  9990012  2    3    3    0    0 +5.2730712174e+00 -1.7967580825e+01 +2.0031714697e-01 7.2461565002e+01 6.9999993106e+01 2.5632e-04 0.0000e+00
      -11  1    4    4    0    0 -1.6532325725e+01 -1.1424726979e+01 -2.1197114538e+01 2.9208900107e+01 5.1100000000e-04 0.0000e+00 1.0000e+00
       11  1    4    4    0    0 +1.7964371146e+01 -1.6877015257e+01 +8.0262638491e+00 2.5922445608e+01 5.1100000000e-04 0.0000e+00 -1.0000e+00
       12  1    4    4    0    0 +3.8410257962e+00 +1.0334161411e+01 +1.3371167836e+01 1.7330219287e+01 0.0000000000e+00 0.0000e+00 -1.0000e+00
      -12  1    3    3    0    0 -5.2730712174e+00 +1.7967580825e+01 -2.0031714697e-01 1.8726434998e+01 0.0000000000e+00 0.0000e+00 1.0000e+00
</event>
<event>
 9      4 +1.0086356e-04 9.11880000e+01 7.81616400e-03 1.18400000e-01
      -11 -1    0    0    0    0 +0.0000000000e+00 +0.0000000000e+00 +4.5593999997e+01 4.5594000000e+01 5.1100000000e-04 0.0000e+00 1.0000e+00
       11 -1    0    0    0    0 -0.0000000000e+00 -0.0000000000e+00 -4.5593999997e+01 4.5594000000e+01 5.1100000000e-04 0.0000e+00 -1.0000e+00
       23  2    1    2    0    0 +1.7763568394e-15 +6.6613381478e-16 -1.7763568394e-15 9.1188000000e+01 9.1188000000e+01 2.5699e-15 0.0000e+00
 -9990012  2    3    3    0    0 +1.2566013255e+01 +1.7649135745e+00 +1.3771499141e+01 7.2461713726e+01 7.0000186846e+01 1.4706e-05 0.0000e+00
      -24  2    4    4    0    0 +5.7217202684e+00 -7.5049950819e+00 +1.4671341230e+01 6.0903804355e+01 5.8352053069e+01 4.0040e-14 0.0000e+00
      -11  1    4    4    0    0 +6.8442929864e+00 +9.2699086564e+00 -8.9984208964e-01 1.1557909371e+01 5.1100000000e-04 0.0000e+00 -1.0000e+00
       11  1    5    5    0    0 +3.3135493865e+00 -2.8833787449e+01 -7.5698224606e+00 2.9994484835e+01 5.1100000000e-04 0.0000e+00 1.0000e+00
      -12  1    5    5    0    0 +2.4081708819e+00 +2.1328792367e+01 +2.2241163691e+01 3.0909319519e+01 0.0000000000e+00 0.0000e+00 1.0000e+00
       12  1    3    3    0    0 -1.2566013255e+01 -1.7649135745e+00 -1.3771499141e+01 1.8726286274e+01 0.0000000000e+00 0.0000e+00 -1.0000e+00
</event>
<event>
 9      3 +1.0086356e-04 9.11880000e+01 7.81616400e-03 1.18400000e-01
      -11 -1    0    0    0    0 +0.0000000000e+00 +0.0000000000e+00 +4.5593999997e+01 4.5594000000e+01 5.1100000000e-04 0.0000e+00 -1.0000e+00
       11 -1    0    0    0    0 -0.0000000000e+00 -0.0000000000e+00 -4.5593999997e+01 4.5594000000e+01 5.1100000000e-04 0.0000e+00 1.0000e+00
       23  2    1    2    0    0 +1.7763568394e-15 +0.0000000000e+00 +0.0000000000e+00 9.1188000000e+01 9.1188000000e+01 1.0296e-14 0.0000e+00
  9990012  2    3    3    0    0 -1.5138859708e+01 -6.3508568923e+00 +9.0089815374e+00 7.2461542651e+01 6.9999963989e+01 5.2276e-04 0.0000e+00
       24  2    4    4    0    0 -1.9253686465e+01 +1.5558207728e-01 +6.3892330464e+00 6.4329591487e+01 6.1047075227e+01 1.3523e-13 0.0000e+00
      -11  1    5    5    0    0 +1.8057780533e+01 -5.1640560941e+00 +1.6832486919e+01 2.5220696447e+01 5.1100000000e-04 0.0000e+00 1.0000e+00
       11  1    4    4    0    0 +4.1148267572e+00 -6.5064389696e+00 +2.6197484910e+00 8.1319511634e+00 5.1100000000e-04 0.0000e+00 -1.0000e+00
       12  1    5    5    0    0 -3.7311466998e+01 +5.3196381714e+00 -1.0443253873e+01 3.9108895040e+01 0.0000000000e+00 0.0000e+00 -1.0000e+00
      -12  1    3    3    0    0 +1.5138859708e+01 +6.3508568923e+00 -9.0089815374e+00 1.8726457349e+01 0.0000000000e+00 0.0000e+00 1.0000e+00
</event>
<event>
 9      3 +1.0086356e-04 9.11880000e+01 7.81616400e-03 1.18400000e-01
      -11 -1    0    0    0    0 +0.0000000000e+00 +0.0000000000e+00 +4.5593999997e+01 4.5594000000e+01 5.1100000000e-04 0.0000e+00 -1.0000e+00
       11 -1    0    0    0    0 -0.0000000000e+00 -0.0000000000e+00 -4.5593999997e+01 4.5594000000e+01 5.1100000000e-04 0.0000e+00 1.0000e+00
       23  2    1    2    0    0 +0.0000000000e+00 +0.0000000000e+00 +0.0000000000e+00 9.1188000000e+01 9.1188000000e+01 1.0304e-13 0.0000e+00
  9990012  2    3    3    0    0 +9.9706146746e+00 -1.1166176586e+01 -1.1250869741e+01 7.2461582124e+01 7.0000015410e+01 1.0074e-06 0.0000e+00
       24  2    4    4    0    0 -2.0538183287e+00 -1.8306562958e+01 -1.5303132018e+01 5.7901604912e+01 5.2716805524e+01 6.3683e-14 0.0000e+00
      -11  1    5    5    0    0 +4.3384637838e-01 +9.2580797357e+00 -2.6478618948e+01 2.8053832621e+01 5.1100000000e-04 0.0000e+00 1.0000e+00
       11  1    4    4    0    0 +1.2024433003e+01 +7.1403863723e+00 +4.0522622765e+00 1.4559977212e+01 5.1100000000e-04 0.0000e+00 -1.0000e+00
       12  1    5    5    0    0 -2.4876647071e+00 -2.7564642694e+01 +1.1175486931e+01 2.9847772290e+01 0.0000000000e+00 0.0000e+00 -1.0000e+00
      -12  1    3    3    0    0 -9.9706146746e+00 +1.1166176586e+01 +1.1250869741e+01 1.8726417876e+01 0.0000000000e+00 0.0000e+00 1.0000e+00
</event>
<event>
 9      4 +1.0086356e-04 9.11880000e+01 7.81616400e-03 1.18400000e-01
      -11 -1    0    0    0    0 +0.0000000000e+00 +0.0000000000e+00 +4.5593999997e+01 4.5594000000e+01 5.1100000000e-04 0.0000e+00 1.0000e+00
       11 -1    0    0    0    0 -0.0000000000e+00 -0.0000000000e+00 -4.5593999997e+01 4.5594000000e+01 5.1100000000e-04 0.0000e+00 -1.0000e+00
       23  2    1    2    0    0 -1.7763568394e-15 -1.7763568394e-15 -8.8817841970e-16 9.1188000000e+01 9.1188000000e+01 1.0224e-13 0.0000e+00
 -9990012  2    3    3    0    0 +1.3199059249e+01 +1.0650203894e+01 +7.9395222756e+00 7.2461600933e+01 7.0000039913e+01 1.3812e-05 0.0000e+00
      -24  2    4    4    0    0 +2.2300234187e+01 -1.1216147047e+00 -2.4461355073e+00 5.4315830456e+01 4.9453689395e+01 1.9591e-13 0.0000e+00
      -11  1    4    4    0    0 -9.1011749381e+00 +1.1771818599e+01 +1.0385657783e+01 1.8145770477e+01 5.1100000000e-04 0.0000e+00 1.0000e+00
       11  1    5    5    0    0 +2.4163659561e+01 +1.6519108841e+01 -1.4701569475e+01 3.2755145330e+01 5.1100000000e-04 0.0000e+00 -1.0000e+00
      -12  1    5    5    0    0 -1.8634253743e+00 -1.7640723546e+01 +1.2255433968e+01 2.1560685126e+01 0.0000000000e+00 0.0000e+00 1.0000e+00
       12  1    3    3    0    0 -1.3199059249e+01 -1.0650203894e+01 -7.9395222756e+00 1.8726399067e+01 0.0000000000e+00 0.0000e+00 -1.0000e+00
</event>
<event>
 8      3 +1.0086356e-04 9.11880000e+01 7.81616400e-03 1.18400000e-01
      -11 -1    0    0    0    0 +0.0000000000e+00 +0.0000000000e+00 +4.5593999997e+01 4.5594000000e+01 5.1100000000e-04 0.0000e+00 1.0000e+00
       11 -1    0    0    0    0 -0.0000000000e+00 -0.0000000000e+00 -4.5593999997e+01 4.5594000000e+01 5.1100000000e-04 0.0000e+00 -1.0000e+00
       23  2    1    2    0    0 +2.6645352591e-15 +0.0000000000e+00 -1.7763568394e-15 9.1188000000e+01 9.1188000000e+01 1.4185e-15 0.0000e+00
  9990012  2    3    3    0    0 -2.8390777421e+00 +1.1407910161e+01 -1.4576631468e+01 7.2461575845e+01 7.0000007231e+01 2.4869e-05 0.0000e+00
      -11  1    4    4    0    0 +1.4986212965e+00 +3.2009652975e+01 +4.7245693658e+00 3.2391130041e+01 5.1100000000e-04 0.0000e+00 1.0000e+00
       11  1    4    4    0    0 +1.1889173696e+01 -1.0217270390e+01 -6.6869533512e+00 1.7042899130e+01 5.1100000000e-04 0.0000e+00 -1.0000e+00
       12  1    4    4    0    0 -1.6226872734e+01 -1.0384472425e+01 -1.2614247483e+01 2.3027546674e+01 0.0000000000e+00 0.0000e+00 -1.0000e+00
      -12  1    3    3    0    0 +2.8390777421e+00 -1.1407910161e+01 +1.4576631468e+01 1.8726424155e+01 0.0000000000e+00 0.0000e+00 1.0000e+00
</event>
<event>
 8      4 +1.0086356e-04 9.11880000e+01 7.81616400e-03 1.18400000e-01
      -11 -1    0    0    0    0 +0.0000000000e+00 +0.0000000000e+00 +4.5593999997e+01 4.5594000000e+01 5.1100000000e-04 0.0000e+00 -1.0000e+00
       11 -1    0    0    0    0 -0.0000000000e+00 -0.0000000000e+00 -4.5593999997e+01 4.5594000000e+01 5.1100000000e-04 0.0000e+00 1.0000e+00
       23  2    1    2    0    0 -1.7763568394e-15 +0.0000000000e+00 -8.8817841970e-16 9.1188000000e+01 9.1188000000e+01 5.4880e-14 0.0000e+00
 -9990012  2    3    3    0    0 +8.6611947587e+00 -1.5504219331e+01 -5.9398618828e+00 7.2461572927e+01 7.0000003430e+01 1.4863e-04 0.0000e+00
      -11  1    4    4    0    0 -7.7467580116e+00 -1.7082720344e+01 -1.4562839893e+01 2.3746745041e+01 5.1100000000e-04 0.0000e+00 1.0000e+00
       11  1    4    4    0    0 +2.3980673653e+01 +5.4664472501e-01 -1.1927833105e+01 2.6788891955e+01 5.1100000000e-04 0.0000e+00 -1.0000e+00
      -12  1    4    4    0    0 -7.5727208827e+00 +1.0318562878e+00 +2.0550811116e+01 2.1925935932e+01 0.0000000000e+00 0.0000e+00 1.0000e+00
       12  1    3    3    0    0 -8.6611947587e+00 +1.5504219331e+01 +5.9398618828e+00 1.8726427073e+01 0.0000000000e+00 0.0000e+00 -1.0000e+00
</event>
<event>
 7      4 +1.0086356e-04 7.24615500e+01 7.81616400e-03 1.22670800e-01
      -11 -1    0    0    0    0 +0.0000000000e+00 +0.0000000000e+00 +4.5593999997e+01 4.5594000000e+01 5.1100000000e-04 0.0000e+00 1.0000e+00
       11 -1    0    0    0    0 -0.0000000000e+00 -0.0000000000e+00 -4.5593999997e+01 4.5594000000e+01 5.1100000000e-04 0.0000e+00 -1.0000e+00
 -9990012  2    1    2    0    0 -1.4472901346e+01 -1.1583224768e+01 -2.6540110347e+00 7.2461554956e+01 6.9999980019e+01 1.3873e-05 0.0000e+00
      -11  1    3    3    0    0 +2.2543523064e+01 -4.7272755829e+00 -1.4043037131e+01 2.6977109903e+01 5.1100000000e-04 0.0000e+00 1.0000e+00
       11  1    3    3    0    0 -2.2965989207e+01 -2.4743201037e+00 -4.8136986239e+00 2.3595139647e+01 5.1100000000e-04 0.0000e+00 -1.0000e+00
      -12  1    3    3    0    0 -1.4050435203e+01 -4.3816290818e+00 +1.6202724721e+01 2.1889305407e+01 0.0000000000e+00 0.0000e+00 1.0000e+00
       12  1    1    2    0    0 +1.4472901346e+01 +1.1583224768e+01 +2.6540110347e+00 1.8726445044e+01 0.0000000000e+00 0.0000e+00 -1.0000e+00
</event>
<event>
 8      4 +1.0086356e-04 9.11880000e+01 7.81616400e-03 1.18400000e-01
      -11 -1    0    0    0    0 +0.0000000000e+00 +0.0000000000e+00 +4.5593999997e+01 4.5594000000e+01 5.1100000000e-04 0.0000e+00 -1.0000e+00
       11 -1    0    0    0    0 -0.0000000000e+00 -0.0000000000e+00 -4.5593999997e+01 4.5594000000e+01 5.1100000000e-04 0.0000e+00 1.0000e+00
       23  2    1    2    0    0 +3.5527136788e-15 -1.7763568394e-15 -8.8817841970e-16 9.1188000000e+01 9.1188000000e+01 4.2179e-14 0.0000e+00
 -9990012  2    3    3    0    0 +1.1015261239e+01 -1.4779267200e+01 -3.3041717601e+00 7.2461540907e+01 6.9999961718e+01 1.1746e-05 0.0000e+00
      -11  1    4    4    0    0 +3.3796634303e+01 -1.5848007157e+01 +8.0043278519e-01 3.7336476990e+01 5.1100000000e-04 0.0000e+00 1.0000e+00
       11  1    4    4    0    0 -7.8268433786e-01 +3.5845863666e+00 +8.7738390193e+00 9.5101054457e+00 5.1100000000e-04 0.0000e+00 -1.0000e+00
      -12  1    4    4    0    0 -2.1998688727e+01 -2.5158464098e+00 -1.2878443565e+01 2.5614958472e+01 0.0000000000e+00 0.0000e+00 1.0000e+00
       12  1    3    3    0    0 -1.1015261239e+01 +1.4779267200e+01 +3.3041717601e+00 1.8726459093e+01 0.0000000000e+00 0.0000e+00 -1.0000e+00
</event>
<event>
 8      3 +1.0086356e-04 9.11880000e+01 7.81616400e-03 1.18400000e-01
      -11 -1    0    0    0    0 +0.0000000000e+00 +0.0000000000e+00 +4.5593999997e+01 4.5594000000e+01 5.1100000000e-04 0.0000e+00 1.0000e+00
       11 -1    0    0    0    0 -0.0000000000e+00 -0.0000000000e+00 -4.5593999997e+01 4.5594000000e+01 5.1100000000e-04 0.0000e+00 -1.0000e+00
       23  2    1    2    0    0 +0.0000000000e+00 +8.8817841970e-16 +1.7763568394e-15 9.1188000000e+01 9.1188000000e+01 3.2383e-14 0.0000e+00
  9990012  2    3    3    0    0 +1.5588224996e+01 +5.1824265139e+00 -8.9904845277e+00 7.2461571746e+01 7.0000001891e+01 1.7494e-04 0.0000e+00
      -11  1    4    4    0    0 -1.3868355614e+01 +1.8734096690e+01 -1.5198464567e+01 2.7826084735e+01 5.1100000000e-04 0.0000e+00 1.0000e+00
       11  1    4    4    0    0 +6.8902428311e+00 -1.9139296691e+01 +6.5958873932e+00 2.1384430197e+01 5.1100000000e-04 0.0000e+00 -1.0000e+00
       12  1    4    4    0    0 +2.2566337779e+01 +5.5876265154e+00 -3.8790735374e-01 2.3251056814e+01 0.0000000000e+00 0.0000e+00 -1.0000e+00
      -12  1    3    3    0    0 -1.5588224996e+01 -5.1824265139e+00 +8.9904845277e+00 1.8726428254e+01 0.0000000000e+00 0.0000e+00 1.0000e+00
</event>
<event>
 9      1 +1.0086356e-04 9.11880000e+01 7.81616400e-03 1.18400000e-01
      -11 -1    0    0    0    0 +0.0000000000e+00 +0.0000000000e+00 +4.5593999997e+01 4.5594000000e+01 5.1100000000e-04 0.0000e+00 -1.0000e+00
       11 -1    0    0    0    0 -0.0000000000e+00 -0.0000000000e+00 -4.5593999997e+01 4.5594000000e+01 5.1100000000e-04 0.0000e+00 1.0000e+00
       23  2    1    2    0    0 -1.7763568394e-15 +0.0000000000e+00 +3.5527136788e-15 9.1188000000e+01 9.1188000000e+01 1.3580e-13 0.0000e+00
  9990012  2    3    3    0    0 +1.2532934927e+01 -1.1181946641e+01 +8.2807538681e+00 7.2461514126e+01 6.9999926830e+01 2.4668e-04 0.0000e+00
       23  2    4    4    0    0 +9.4744565098e+00 -1.3713256000e+00 +7.0726396788e+00 6.2114431670e+01 6.0963386796e+01 3.2276e-14 0.0000e+00
      -11  1    5    5    0    0 -1.4622755482e+01 +2.8361738332e+00 -2.0445243677e+01 2.5295787183e+01 5.1100000000e-04 0.0000e+00 -1.0000e+00
       11  1    5    5    0    0 +2.4097211992e+01 -4.2074994333e+00 +2.7517883356e+01 3.6818644488e+01 5.1100000000e-04 0.0000e+00 1.0000e+00
       12  1    4    4    0    0 +3.0584784173e+00 -9.8106210412e+00 +1.2081141893e+00 1.0347082455e+01 0.0000000000e+00 0.0000e+00 -1.0000e+00
      -12  1    3    3    0    0 -1.2532934927e+01 +1.1181946641e+01 -8.2807538681e+00 1.8726485874e+01 0.0000000000e+00 0.0000e+00 1.0000e+00
</event>
<event>
 9      4 +1.0086356e-04 9.11880000e+01 7.81616400e-03 1.18400000e-01
      -11 -1    0    0    0    0 +0.0000000000e+00 +0.0000000000e+00 +4.5593999997e+01 4.5594000000e+01 5.1100000000e-04 0.0000e+00 1.0000e+00
       11 -1    0    0    0    0 -0.0000000000e+00 -0.0000000000e+00 -4.5593999997e+01 4.5594000000e+01 5.1100000000e-04 0.0000e+00 -1.0000e+00
       23  2    1    2    0    0 +0.0000000000e+00 +0.0000000000e+00 +0.0000000000e+00 9.1188000000e+01 9.1188000000e+01 1.0196e-14 0.0000e+00
 -9990012  2    3    3    0    0 +4.5286321626e+00 -1.7848192730e+01 +3.4070171690e+00 7.2461701407e+01 7.0000170799e+01 1.5929e-04 0.0000e+00
      -24  2    4    4    0    0 -1.2719792791e+00 -2.7568789612e+01 -4.5245723487e+00 5.8639718576e+01 5.1541136462e+01 9.8603e-14 0.0000e+00
      -11  1    4    4    0    0 +5.8006114417e+00 +9.7205968824e+00 +7.9315895177e+00 1.3821982831e+01 5.1100000000e-04 0.0000e+00 1.0000e+00
       11  1    5    5    0    0 -9.8841687135e+00 +1.0833400821e+01 -1.1542959359e+01 1.8662777808e+01 5.1100000000e-04 0.0000e+00 -1.0000e+00
      -12  1    5    5    0    0 +8.6121894344e+00 -3.8402190433e+01 +7.0183870102e+00 3.9976940768e+01 0.0000000000e+00 0.0000e+00 1.0000e+00
       12  1    3    3    0    0 -4.5286321626e+00 +1.7848192730e+01 -3.4070171690e+00 1.8726298593e+01 0.0000000000e+00 0.0000e+00 -1.0000e+00
</event>
<event>
 8      3 +1.0086356e-04 9.11880000e+01 7.81616400e-03 1.18400000e-01
      -11 -1    0    0    0    0 +0.0000000000e+00 +0.0000000000e+00 +4.5593999997e+01 4.5594000000e+01 5.1100000000e-04 0.0000e+00 -1.0000e+00
       11 -1    0    0    0    0 -0.0000000000e+00 -0.0000000000e+00 -4.5593999997e+01 4.5594000000e+01 5.1100000000e-04 0.0000e+00 1.0000e+00
       23  2    1    2    0    0 +0.0000000000e+00 -7.7715611724e-16 -1.7763568394e-15 9.1188000000e+01 9.1188000000e+01 4.5963e-15 0.0000e+00
  9990012  2    3    3    0    0 +1.7486087991e+01 -9.5879819548e-01 +6.6329502453e+00 7.2461585603e+01 7.0000019943e+01 1.2354e-03 0.0000e+00
      -11  1    4    4    0    0 +6.6069320525e+00 -1.1554759498e+01 -6.3660814545e+00 1.4754355681e+01 5.1100000000e-04 0.0000e+00 -1.0000e+00
       11  1    4    4    0    0 +4.2668406584e+00 -1.9082914293e+01 -7.6011127431e+00 2.0979524835e+01 5.1100000000e-04 0.0000e+00 1.0000e+00
       12  1    4    4    0    0 +6.6123152798e+00 +2.9678875595e+01 +2.0600144443e+01 3.6727705088e+01 0.0000000000e+00 0.0000e+00 -1.0000e+00
      -12  1    3    3    0    0 -1.7486087991e+01 +9.5879819548e-01 -6.6329502453e+00 1.8726414397e+01 0.0000000000e+00 0.0000e+00 1.0000e+00
</event>
<event>
 8      3 +1.0086356e-04 9.11880000e+01 7.81616400e-03 1.18400000e-01
      -11 -1    0    0    0    0 +0.0000000000e+00 +0.0000000000e+00 +4.5593999997e+01 4.5594000000e+01 5.1100000000e-04 0.0000e+00 1.0000e+00
       11 -1    0    0    0    0 -0.0000000000e+00 -0.0000000000e+00 -4.5593999997e+01 4.5594000000e+01 5.1100000000e-04 0.0000e+00 -1.0000e+00
       23  2    1    2    0    0 +0.0000000000e+00 +1.7763568394e-15 -4.4408920985e-16 9.1188000000e+01 9.1188000000e+01 9.3056e-14 0.0000e+00
  9990012  2    3    3    0    0 +1.1978185894e+01 +1.4245909292e+01 +2.0630100936e+00 7.2461578037e+01 7.0000010086e+01 8.6668e-05 0.0000e+00
      -11  1    4    4    0    0 +1.1165985914e+01 -1.2233739695e+00 +1.2516679857e+01 1.6817941616e+01 5.1100000000e-04 0.0000e+00 1.0000e+00
       11  1    4    4    0    0 +1.8013741384e+01 -7.5684121999e+00 +8.3935583292e+00 2.1265642797e+01 5.1100000000e-04 0.0000e+00 -1.0000e+00
       12  1    4    4    0    0 -1.7201541404e+01 +2.3037695462e+01 -1.8847228092e+01 3.4377993624e+01 0.0000000000e+00 0.0000e+00 -1.0000e+00
      -12  1    3    3    0    0 -1.1978185894e+01 -1.4245909292e+01 -2.0630100936e+00 1.8726421963e+01 0.0000000000e+00 0.0000e+00 1.0000e+00
</event>
<event>
 9      3 +1.0086356e-04 9.11880000e+01 7.81616400e-03 1.18400000e-01
      -11 -1    0    0    0    0 +0.0000000000e+00 +0.0000000000e+00 +4.5593999997e+01 4.5594000000e+01 5.1100000000e-04 0.0000e+00 -1.0000e+00
       11 -1    0    0    0    0 -0.0000000000e+00 -0.0000000000e+00 -4.5593999997e+01 4.5594000000e+01 5.1100000000e-04 0.0000e+00 1.0000e+00
       23  2    1    2    0    0 -1.7763568394e-15 +1.7763568394e-15 +0.0000000000e+00 9.1188000000e+01 9.1188000000e+01 2.4413e-14 0.0000e+00
  9990012  2    3    3    0    0 -7.7529297241e+00 -1.4823966733e+01 -8.4154858956e+00 7.2461593194e+01 7.0000029831e+01 2.7113e-04 0.0000e+00
       24  2    4    4    0    0 -1.3594097383e+01 -1.8222172378e+01 -1.1592672230e+01 6.4994227226e+01 5.9774680873e+01 9.7706e-14 0.0000e+00
      -11  1    5    5    0    0 +2.3012592390e+01 -2.3898152302e+00 +1.0341063833e+00 2.3159447352e+01 5.1100000000e-04 0.0000e+00 1.0000e+00
       11  1    4    4    0    0 +5.8411676589e+00 +3.3982056454e+00 +3.1771863343e+00 7.4673659675e+00 5.1100000000e-04 0.0000e+00 -1.0000e+00
       12  1    5    5    0    0 -3.6606689773e+01 -1.5832357148e+01 -1.2626778613e+01 4.1834779875e+01 0.0000000000e+00 0.0000e+00 -1.0000e+00
      -12  1    3    3    0    0 +7.7529297241e+00 +1.4823966733e+01 +8.4154858956e+00 1.8726406806e+01 0.0000000000e+00 0.0000e+00 1.0000e+00
</event>
<event>
 9      4 +1.0086356e-04 9.11880000e+01 7.81616400e-03 1.18400000e-01
      -11 -1    0    0    0    0 +0.0000000000e+00 +0.0000000000e+00 +4.5593999997e+01 4.5594000000e+01 5.1100000000e-04 0.0000e+00 -1.0000e+00
       11 -1    0    0    0    0 -0.0000000000e+00 -0.0000000000e+00 -4.5593999997e+01 4.5594000000e+01 5.1100000000e-04 0.0000e+00 1.0000e+00
       23  2    1    2    0    0 +0.0000000000e+00 -2.2204460493e-15 +1.7763568394e-15 9.1188000000e+01 9.1188000000e+01 1.5380e-13 0.0000e+00
 -9990012  2    3    3    0    0 -1.0615975341e+01 +1.7419956243e+00 -1.5327951938e+01 7.2461559020e+01 6.9999985312e+01 8.5988e-05 0.0000e+00
      -24  2    4    4    0    0 +1.4329528879e+00 +1.0270962689e+01 -2.8467617563e+00 5.3130235752e+01 5.2030489812e+01 8.1971e-14 0.0000e+00
      -11  1    4    4    0    0 -1.2048928229e+01 -8.5289670650e+00 -1.2481190181e+01 1.9331323267e+01 5.1100000000e-04 0.0000e+00 1.0000e+00
       11  1    5    5    0    0 +1.0542022544e+01 -7.9961236339e+00 +1.9050339248e+01 2.3194560962e+01 5.1100000000e-04 0.0000e+00 -1.0000e+00
      -12  1    5    5    0    0 -9.1090696564e+00 +1.8267086323e+01 -2.1897101005e+01 2.9935674790e+01 0.0000000000e+00 0.0000e+00 1.0000e+00
       12  1    3    3    0    0 +1.0615975341e+01 -1.7419956243e+00 +1.5327951938e+01 1.8726440980e+01 0.0000000000e+00 0.0000e+00 -1.0000e+00
</event>
<event>
 9      3 +1.0086356e-04 9.11880000e+01 7.81616400e-03 1.18400000e-01
      -11 -1    0    0    0    0 +0.0000000000e+00 +0.0000000000e+00 +4.5593999997e+01 4.5594000000e+01 5.1100000000e-04 0.0000e+00 -1.0000e+00
       11 -1    0    0    0    0 -0.0000000000e+00 -0.0000000000e+00 -4.5593999997e+01 4.5594000000e+01 5.1100000000e-04 0.0000e+00 1.0000e+00
       23  2    1    2    0    0 +3.3306690739e-16 -1.7763568394e-15 -1.7763568394e-15 9.1188000000e+01 9.1188000000e+01 1.9814e-13 0.0000e+00
  9990012  2    3    3    0    0 +1.6958145139e-01 +1.1663050410e+01 +1.4649928403e+01 7.2461657460e+01 7.0000113549e+01 1.5886e-04 0.0000e+00
       24  2    4    4    0    0 +5.1463963964e+00 +5.0735769525e+00 +1.0574436788e+01 6.3252994170e+01 6.1942683015e+01 6.5104e-14 0.0000e+00
      -11  1    5    5    0    0 -5.0228836970e+00 +2.5936143850e+01 -1.3623453290e+01 2.9723919631e+01 5.1100000000e-04 0.0000e+00 1.0000e+00
       11  1    4    4    0    0 -4.9768149450e+00 +6.5894734570e+00 +4.0754916143e+00 9.2086632905e+00 5.1100000000e-04 0.0000e+00 -1.0000e+00
       12  1    5    5    0    0 +1.0169280093e+01 -2.0862566897e+01 +2.4197890078e+01 3.3529074538e+01 0.0000000000e+00 0.0000e+00 -1.0000e+00
      -12  1    3    3    0    0 -1.6958145139e-01 -1.1663050410e+01 -1.4649928403e+01 1.8726342540e+01 0.0000000000e+00 0.0000e+00 1.0000e+00
</event>
<event>
 9      4 +1.0086356e-04 9.11880000e+01 7.81616400e-03 1.18400000e-01
      -11 -1    0    0    0    0 +0.0000000000e+00 +0.0000000000e+00 +4.5593999997e+01 4.5594000000e+01 5.1100000000e-04 0.0000e+00 -1.0000e+00
       11 -1    0    0    0    0 -0.0000000000e+00 -0.0000000000e+00 -4.5593999997e+01 4.5594000000e+01 5.1100000000e-04 0.0000e+00 1.0000e+00
       23  2    1    2    0    0 +2.2204460493e-16 +0.0000000000e+00 +3.5527136788e-15 9.1188000000e+01 9.1188000000e+01 7.8754e-15 0.0000e+00
 -9990012  2    3    3    0    0 +1.9198938563e+00 -1.0711344876e+01 -1.5239658887e+01 7.2461919138e+01 7.0000454432e+01 1.1300e-03 0.0000e+00
      -24  2    4    4    0    0 +6.9491037449e+00 -1.5227816906e+01 -1.6018805704e+01 6.5657615960e+01 6.1434061780e+01 7.1671e-14 0.0000e+00
      -11  1    4    4    0    0 -5.0292098886e+00 +4.5164720305e+00 +7.7914681723e-01 6.8043031774e+00 5.1100000000e-04 0.0000e+00 1.0000e+00
       11  1    5    5    0    0 -3.5534109803e-02 +1.3265279064e+01 +1.6951588458e+01 2.1524991122e+01 5.1100000000e-04 0.0000e+00 -1.0000e+00
      -12  1    5    5    0    0 +6.9846378547e+00 -2.8493095970e+01 -3.2970394162e+01 4.4132624838e+01 0.0000000000e+00 0.0000e+00 1.0000e+00
       12  1    3    3    0    0 -1.9198938563e+00 +1.0711344876e+01 +1.5239658887e+01 1.8726080862e+01 0.0000000000e+00 0.0000e+00 -1.0000e+00
</event>
<event>
 9      4 +1.0086356e-04 9.11880000e+01 7.81616400e-03 1.18400000e-01
      -11 -1    0    0    0    0 +0.0000000000e+00 +0.0000000000e+00 +4.5593999997e+01 4.5594000000e+01 5.1100000000e-04 0.0000e+00 -1.0000e+00
       11 -1    0    0    0    0 -0.0000000000e+00 -0.0000000000e+00 -4.5593999997e+01 4.5594000000e+01 5.1100000000e-04 0.0000e+00 1.0000e+00
       23  2    1    2    0    0 +1.3322676296e-15 +0.0000000000e+00 +0.0000000000e+00 9.1188000000e+01 9.1188000000e+01 5.7067e-14 0.0000e+00
 -9990012  2    3    3    0    0 -2.6735635032e+00 -1.8135749159e+01 -3.8243549991e+00 7.2461574005e+01 7.0000004834e+01 1.9244e-04 0.0000e+00
      -24  2    4    4    0    0 -8.5620644566e+00 -1.4210016532e+01 +2.3546743124e+00 6.3066563434e+01 6.0799781371e+01 2.3292e-13 0.0000e+00
      -11  1    4    4    0    0 +5.8885009534e+00 -3.9257326272e+00 -6.1790293115e+00 9.3950105711e+00 5.1100000000e-04 0.0000e+00 1.0000e+00
       11  1    5    5    0    0 +2.0894174624e+01 +1.0224973437e+01 +7.5209865219e+00 2.4447532667e+01 5.1100000000e-04 0.0000e+00 -1.0000e+00
      -12  1    5    5    0    0 -2.9456239080e+01 -2.4434989969e+01 -5.1663122095e+00 3.8619030767e+01 0.0000000000e+00 0.0000e+00 1.0000e+00
       12  1    3    3    0    0 +2.6735635032e+00 +1.8135749159e+01 +3.8243549991e+00 1.8726425995e+01 0.0000000000e+00 0.0000e+00 -1.0000e+00
</event>
<event>
 8      4 +1.0086356e-04 9.11880000e+01 7.81616400e-03 1.18400000e-01
      -11 -1    0    0    0    0 +0.0000000000e+00 +0.0000000000e+00 +4.5593999997e+01 4.5594000000e+01 5.1100000000e-04 0.0000e+00 1.0000e+00
       11 -1    0    0    0    0 -0.0000000000e+00 -0.0000000000e+00 -4.5593999997e+01 4.5594000000e+01 5.1100000000e-04 0.0000e+00 -1.0000e+00
       23  2    1    2    0    0 -3.5527136788e-15 -1.7763568394e-15 -1.7763568394e-15 9.1188000000e+01 9.1188000000e+01 7.8144e-15 0.0000e+00
 -9990012  2    3    3    0    0 -1.3695800531e+01 +2.7412175886e+00 +1.2473608045e+01 7.2461544817e+01 6.9999966811e+01 7.5107e-04 0.0000e+00
      -11  1    4    4    0    0 +1.4459186507e+01 -2.0740624810e+01 +2.2196123236e+01 3.3643862426e+01 5.1100000000e-04 0.0000e+00 1.0000e+00
       11  1    4    4    0    0 -6.8120197442e+00 +1.0249377670e+01 -1.5215810627e+00 1.2400345350e+01 5.1100000000e-04 0.0000e+00 -1.0000e+00
      -12  1    4    4    0    0 -2.1342967294e+01 +1.3232464729e+01 -8.2009341288e+00 2.6417337041e+01 0.0000000000e+00 0.0000e+00 1.0000e+00
       12  1    3    3    0    0 +1.3695800531e+01 -2.7412175886e+00 -1.2473608045e+01 1.8726455183e+01 0.0000000000e+00 0.0000e+00 -1.0000e+00
</event>
<event>
 8      3 +1.0086356e-04 9.11880000e+01 7.81616400e-03 1.18400000e-01
      -11 -1    0    0    0    0 +0.0000000000e+00 +0.0000000000e+00 +4.5593999997e+01 4.5594000000e+01 5.1100000000e-04 0.0000e+00 -1.0000e+00
       11 -1    0    0    0    0 -0.0000000000e+00 -0.0000000000e+00 -4.5593999997e+01 4.5594000000e+01 5.1100000000e-04 0.0000e+00 1.0000e+00
       23  2    1    2    0    0 +0.0000000000e+00 +0.0000000000e+00 +3.5527136788e-15 9.1188000000e+01 9.1188000000e+01 2.8884e-13 0.0000e+00
  9990012  2    3    3    0    0 +1.1641996908e+01 -3.3255006769e+00 +1.4285752443e+01 7.2461607672e+01 7.0000048692e+01 3.9801e-04 0.0000e+00
      -11  1    4    4    0    0 -1.6078897539e+01 -2.1260418140e+00 -2.0574809410e+01 2.6198736275e+01 5.1100000000e-04 0.0000e+00 1.0000e+00
       11  1    4    4    0    0 +2.0236315136e+01 +4.4846123927e+00 +2.6809537797e+01 3.3887630719e+01 5.1100000000e-04 0.0000e+00 -1.0000e+00
       12  1    4    4    0    0 +7.4845793106e+00 -5.6840712557e+00 +8.0510240559e+00 1.2375240678e+01 0.0000000000e+00 0.0000e+00 -1.0000e+00
      -12  1    3    3    0    0 -1.1641996908e+01 +3.3255006769e+00 -1.4285752443e+01 1.8726392328e+01 0.0000000000e+00 0.0000e+00 1.0000e+00
</event>
<event>
 9      4 +1.0086356e-04 9.11880000e+01 7.81616400e-03 1.18400000e-01
      -11 -1    0    0    0    0 +0.0000000000e+00 +0.0000000000e+00 +4.5593999997e+01 4.5594000000e+01 5.1100000000e-04 0.0000e+00 -1.0000e+00
       11 -1    0    0    0    0 -0.0000000000e+00 -0.0000000000e+00 -4.5593999997e+01 4.5594000000e+01 5.1100000000e-04 0.0000e+00 1.0000e+00
       23  2    1    2    0    0 +0.0000000000e+00 +1.7763568394e-15 +1.7763568394e-15 9.1188000000e+01 9.1188000000e+01 1.2458e-13 0.0000e+00
 -9990012  2    3    3    0    0 +2.6842690683e+00 +1.5889635539e+01 -9.5389972970e+00 7.2461593847e+01 7.0000030682e+01 4.8075e-04 0.0000e+00
      -24  2    4    4    0    0 -3.9757661350e+00 +1.1023973805e+01 -2.2820806061e+01 5.6827107052e+01 5.0706963938e+01 4.5144e-14 0.0000e+00
      -11  1    4    4    0    0 +6.6600352033e+00 +4.8656617336e+00 +1.3281808764e+01 1.5634486794e+01 5.1100000000e-04 0.0000e+00 1.0000e+00
       11  1    5    5    0    0 -1.3987763356e+01 -1.4397479854e+01 +1.6599293976e+00 2.0142003766e+01 5.1100000000e-04 0.0000e+00 -1.0000e+00
      -12  1    5    5    0    0 +1.0011997221e+01 +2.5421453659e+01 -2.4480735459e+01 3.6685103286e+01 0.0000000000e+00 0.0000e+00 1.0000e+00
       12  1    3    3    0    0 -2.6842690683e+00 -1.5889635539e+01 +9.5389972970e+00 1.8726406153e+01 0.0000000000e+00 0.0000e+00 -1.0000e+00
</event>
<event>
 8      4 +1.0086356e-04 9.11880000e+01 7.81616400e-03 1.18400000e-01
      -11 -1    0    0    0    0 +0.0000000000e+00 +0.0000000000e+00 +4.5593999997e+01 4.5594000000e+01 5.1100000000e-04 0.0000e+00 1.0000e+00
       11 -1    0    0    0    0 -0.0000000000e+00 -0.0000000000e+00 -4.5593999997e+01 4.5594000000e+01 5.1100000000e-04 0.0000e+00 -1.0000e+00
       23  2    1    2    0    0 +0.0000000000e+00 +2.2204460493e-15 +1.7763568394e-15 9.1188000000e+01 9.1188000000e+01 3.6993e-14 0.0000e+00
 -9990012  2    3    3    0    0 +1.3558200006e+01 +2.7700160237e-01 -1.2914451854e+01 7.2461425727e+01 6.9999811674e+01 1.5172e-05 0.0000e+00
      -11  1    4    4    0    0 +9.0725826947e-01 -1.7248966111e+01 +1.9622674275e+00 1.7383913345e+01 5.1100000000e-04 0.0000e+00 1.0000e+00
       11  1    4    4    0    0 +7.2756921657e+00 +2.3496593902e+01 +1.1754013492e+01 2.7261372946e+01 5.1100000000e-04 0.0000e+00 -1.0000e+00
      -12  1    4    4    0    0 +5.3752495713e+00 -5.9706261889e+00 -2.6630732774e+01 2.7816139436e+01 0.0000000000e+00 0.0000e+00 1.0000e+00
       12  1    3    3    0    0 -1.3558200006e+01 -2.7700160237e-01 +1.2914451854e+01 1.8726574273e+01 0.0000000000e+00 0.0000e+00 -1.0000e+00
</event>
<event>
 8      3 +1.0086356e-04 9.11880000e+01 7.81616400e-03 1.18400000e-01
      -11 -1    0    0    0    0 +0.0000000000e+00 +0.0000000000e+00 +4.5593999997e+01 4.5594000000e+01 5.1100000000e-04 0.0000e+00 1.0000e+00
       11 -1    0    0    0    0 -0.0000000000e+00 -0.0000000000e+00 -4.5593999997e+01 4.5594000000e+01 5.1100000000e-04 0.0000e+00 -1.0000e+00
       23  2    1    2    0    0 -1.7763568394e-15 +1.7763568394e-15 +0.0000000000e+00 9.1188000000e+01 9.1188000000e+01 8.7388e-14 0.0000e+00
  9990012  2    3    3    0    0 +1.5904727002e+01 -8.2962657171e+00 +5.3751927063e+00 7.2461519752e+01 6.9999934159e+01 1.9260e-04 0.0000e+00
      -11  1    4    4    0    0 -9.5396253284e+00 +9.8266756468e+00 -1.8173021674e+00 1.3815592391e+01 5.1100000000e-04 0.0000e+00 1.0000e+00
       11  1    4    4    0    0 +1.7848145834e+00 +4.3588476821e+00 +2.2220920251e+01 2.2714629940e+01 5.1100000000e-04 0.0000e+00 -1.0000e+00
       12  1    4    4    0    0 +2.3659537746e+01 -2.2481789046e+01 -1.5028425378e+01 3.5931297422e+01 0.0000000000e+00 0.0000e+00 -1.0000e+00
      -12  1    3    3    0    0 -1.5904727002e+01 +8.2962657171e+00 -5.3751927063e+00 1.8726480248e+01 0.0000000000e+00 0.0000e+00 1.0000e+00
</event>
<event>
 9      4 +1.0086356e-04 9.11880000e+01 7.81616400e-03 1.18400000e-01
      -11 -1    0    0    0    0 +0.0000000000e+00 +0.0000000000e+00 +4.5593999997e+01 4.5594000000e+01 5.1100000000e-04 0.0000e+00 1.0000e+00
       11 -1    0    0    0    0 -0.0000000000e+00 -0.0000000000e+00 -4.5593999997e+01 4.5594000000e+01 5.1100000000e-04 0.0000e+00 -1.0000e+00
       23  2    1    2    0    0 -1.7763568394e-15 +0.0000000000e+00 +0.0000000000e+00 9.1188000000e+01 9.1188000000e+01 1.1355e-13 0.0000e+00
 -9990012  2    3    3    0    0 -2.6621057564e+00 +1.7007703173e+01 +7.3716034109e+00 7.2461299513e+01 6.9999647257e+01 2.1067e-05 0.0000e+00
      -24  2    4    4    0    0 +3.0172168291e+00 +2.9708586867e+00 +2.3413437697e+00 5.6505384608e+01 5.6297841880e+01 1.0999e-13 0.0000e+00
      -11  1    4    4    0    0 -5.6793225855e+00 +1.4036844486e+01 +5.0302596411e+00 1.5955914906e+01 5.1100000000e-04 0.0000e+00 1.0000e+00
       11  1    5    5    0    0 -1.3172640617e+01 -1.7478626597e+01 -1.3760697107e+01 2.5853000477e+01 5.1100000000e-04 0.0000e+00 -1.0000e+00
      -12  1    5    5    0    0 +1.6189857446e+01 +2.0449485284e+01 +1.6102040876e+01 3.0652384131e+01 0.0000000000e+00 0.0000e+00 1.0000e+00
       12  1    3    3    0    0 +2.6621057564e+00 -1.7007703173e+01 -7.3716034109e+00 1.8726700487e+01 0.0000000000e+00 0.0000e+00 -1.0000e+00
</event>
<event>
 9      4 +1.0086356e-04 9.11880000e+01 7.81616400e-03 1.18400000e-01
      -11 -1    0    0    0    0 +0.0000000000e+00 +0.0000000000e+00 +4.5593999997e+01 4.5594000000e+01 5.1100000000e-04 0.0000e+00 1.0000e+00
       11 -1    0    0    0    0 -0.0000000000e+00 -0.0000000000e+00 -4.5593999997e+01 4.5594000000e+01 5.1100000000e-04 0.0000e+00 -1.0000e+00
       23  2    1    2    0    0 -1.7763568394e-15 -3.5527136788e-15 +1.7763568394e-15 9.1188000000e+01 9.1188000000e+01 2.0749e-13 0.0000e+00
 -9990012  2    3    3    0    0 +9.6223870201e+00 -9.4082207806e+00 +1.3022020641e+01 7.2461602274e+01 7.0000041659e+01 1.2000e-05 0.0000e+00
      -24  2    4    4    0    0 +1.9572469410e+01 -1.7110005157e+01 +9.7115905424e+00 5.9450815601e+01 5.2576141447e+01 2.5968e-15 0.0000e+00
      -11  1    4    4    0    0 -9.9500823898e+00 +7.7017843762e+00 +3.3104300988e+00 1.3010786673e+01 5.1100000000e-04 0.0000e+00 1.0000e+00
       11  1    5    5    0    0 -8.5983786121e+00 +7.5281644085e+00 -1.1682119582e+01 1.6342499574e+01 5.1100000000e-04 0.0000e+00 -1.0000e+00
      -12  1    5    5    0    0 +2.8170848022e+01 -2.4638169565e+01 +2.1393710125e+01 4.3108316027e+01 0.0000000000e+00 0.0000e+00 1.0000e+00
       12  1    3    3    0    0 -9.6223870201e+00 +9.4082207806e+00 -1.3022020641e+01 1.8726397726e+01 0.0000000000e+00 0.0000e+00 -1.0000e+00
</event>
<event>
 8      3 +1.0086356e-04 9.11880000e+01 7.81616400e-03 1.18400000e-01
      -11 -1    0    0    0    0 +0.0000000000e+00 +0.0000000000e+00 +4.5593999997e+01 4.5594000000e+01 5.1100000000e-04 0.0000e+00 1.0000e+00
       11 -1    0    0    0    0 -0.0000000000e+00 -0.0000000000e+00 -4.5593999997e+01 4.5594000000e+01 5.1100000000e-04 0.0000e+00 -1.0000e+00
       23  2    1    2    0    0 +0.0000000000e+00 +0.0000000000e+00 +1.7763568394e-15 9.1188000000e+01 9.1188000000e+01 8.7205e-14 0.0000e+00
  9990012  2    3    3    0    0 +8.6334216162e+00 -1.2564801798e+01 -1.0875383554e+01 7.2461436502e+01 6.9999825710e+01 6.1499e-06 0.0000e+00
      -11  1    4    4    0    0 +1.2894784963e+01 +7.5662785291e+00 +4.1537890314e+00 1.5517023349e+01 5.1100000000e-04 0.0000e+00 1.0000e+00
       11  1    4    4    0    0 -2.2451636125e+00 +7.1739248003e+00 -2.6287182107e+01 2.7340846733e+01 5.1100000000e-04 0.0000e+00 -1.0000e+00
       12  1    4    4    0    0 -2.0161997346e+00 -2.7305005127e+01 +1.1258009522e+01 2.9603566420e+01 0.0000000000e+00 0.0000e+00 -1.0000e+00
      -12  1    3    3    0    0 -8.6334216162e+00 +1.2564801798e+01 +1.0875383554e+01 1.8726563498e+01 0.0000000000e+00 0.0000e+00 1.0000e+00
</event>
<event>
 9      4 +1.0086356e-04 9.11880000e+01 7.81616400e-03 1.18400000e-01
      -11 -1    0    0    0    0 +0.0000000000e+00 +0.0000000000e+00 +4.5593999997e+01 4.5594000000e+01 5.1100000000e-04 0.0000e+00 1.0000e+00
       11 -1    0    0    0    0 -0.0000000000e+00 -0.0000000000e+00 -4.5593999997e+01 4.5594000000e+01 5.1100000000e-04 0.0000e+00 -1.0000e+00
       23  2    1    2    0    0 -1.7763568394e-15 +7.1054273576e-15 -8.8817841970e-16 9.1188000000e+01 9.1188000000e+01 3.5029e-13 0.0000e+00
 -9990012  2    3    3    0    0 -6.1492566431e+00 +1.7192802999e+01 -4.1561116688e+00 7.2461572246e+01 7.0000002542e+01 6.1867e-04 0.0000e+00
      -24  2    4    4    0    0 +4.1798228089e+00 +2.0088918295e+01 -4.7164074897e-01 6.1119055226e+01 5.7569791642e+01 1.5024e-13 0.0000e+00
      -11  1    4    4    0    0 -1.0329079452e+01 -2.8961152956e+00 -3.6844709198e+00 1.1342517020e+01 5.1100000000e-04 0.0000e+00 -1.0000e+00
       11  1    5    5    0    0 +1.9524813132e+01 -1.3792140720e+01 -9.1597132304e-01 2.3922384438e+01 5.1100000000e-04 0.0000e+00 1.0000e+00
      -12  1    5    5    0    0 -1.5344990323e+01 +3.3881059015e+01 +4.4433057407e-01 3.7196670787e+01 0.0000000000e+00 0.0000e+00 1.0000e+00
       12  1    3    3    0    0 +6.1492566431e+00 -1.7192802999e+01 +4.1561116688e+00 1.8726427754e+01 0.0000000000e+00 0.0000e+00 -1.0000e+00
</event>
<event>
 8      3 +1.0086356e-04 9.11880000e+01 7.81616400e-03 1.18400000e-01
      -11 -1    0    0    0    0 +0.0000000000e+00 +0.0000000000e+00 +4.5593999997e+01 4.5594000000e+01 5.1100000000e-04 0.0000e+00 -1.0000e+00
       11 -1    0    0    0    0 -0.0000000000e+00 -0.0000000000e+00 -4.5593999997e+01 4.5594000000e+01 5.1100000000e-04 0.0000e+00 1.0000e+00
       23  2    1    2    0    0 +0.0000000000e+00 -8.8817841970e-16 +0.0000000000e+00 9.1188000000e+01 9.1188000000e+01 7.6692e-14 0.0000e+00
  9990012  2    3    3    0    0 +4.4152989304e+00 -7.3370081491e+00 +1.6653879477e+01 7.2461594716e+01 7.0000031814e+01 3.2501e-04 0.0000e+00
      -11  1    4    4    0    0 +9.7453114837e+00 +2.3241805123e+01 -5.9606670579e+00 2.5897531800e+01 5.1100000000e-04 0.0000e+00 1.0000e+00
       11  1    4    4    0    0 -1.1992208390e+01 -1.8795563429e+01 +2.4235721723e+01 3.2931086747e+01 5.1100000000e-04 0.0000e+00 -1.0000e+00
       12  1    4    4    0    0 +6.6621958364e+00 -1.1783249843e+01 -1.6211751877e+00 1.3632976169e+01 0.0000000000e+00 0.0000e+00 -1.0000e+00
      -12  1    3    3    0    0 -4.4152989304e+00 +7.3370081491e+00 -1.6653879477e+01 1.8726405284e+01 0.0000000000e+00 0.0000e+00 1.0000e+00
</event>
<event>
 9      3 +1.0086356e-04 9.11880000e+01 7.81616400e-03 1.18400000e-01
      -11 -1    0    0    0    0 +0.0000000000e+00 +0.0000000000e+00 +4.5593999997e+01 4.5594000000e+01 5.1100000000e-04 0.0000e+00 1.0000e+00
       11 -1    0    0    0    0 -0.0000000000e+00 -0.0000000000e+00 -4.5593999997e+01 4.5594000000e+01 5.1100000000e-04 0.0000e+00 -1.0000e+00
       23  2    1    2    0    0 +0.0000000000e+00 -3.5527136788e-15 +0.0000000000e+00 9.1188000000e+01 9.1188000000e+01 1.1123e-14 0.0000e+00
  9990012  2    3    3    0    0 +1.0389470940e+01 +1.0420162181e+01 +1.1582643820e+01 7.2461587526e+01 7.0000022448e+01 2.5009e-04 0.0000e+00
       24  2    4    4    0    0 +3.9985631023e+00 -7.5422066622e+00 +3.0273558376e+00 5.1564617646e+01 5.0762895125e+01 1.2090e-13 0.0000e+00
      -11  1    5    5    0    0 -1.2806990017e+01 +8.7848459022e+00 -1.5312533306e+01 2.1809772749e+01 5.1100000000e-04 0.0000e+00 1.0000e+00
       11  1    4    4    0    0 +6.3909078379e+00 +1.7962368843e+01 +8.5552879822e+00 2.0896969880e+01 5.1100000000e-04 0.0000e+00 -1.0000e+00
       12  1    5    5    0    0 +1.6805553119e+01 -1.6327052564e+01 +1.8339889144e+01 2.9754844898e+01 0.0000000000e+00 0.0000e+00 -1.0000e+00
      -12  1    3    3    0    0 -1.0389470940e+01 -1.0420162181e+01 -1.1582643820e+01 1.8726412474e+01 0.0000000000e+00 0.0000e+00 1.0000e+00
</event>
<event>
 9      4 +1.0086356e-04 9.11880000e+01 7.81616400e-03 1.18400000e-01
      -11 -1    0    0    0    0 +0.0000000000e+00 +0.0000000000e+00 +4.5593999997e+01 4.5594000000e+01 5.1100000000e-04 0.0000e+00 1.0000e+00
       11 -1    0    0    0    0 -0.0000000000e+00 -0.0000000000e+00 -4.5593999997e+01 4.5594000000e+01 5.1100000000e-04 0.0000e+00 -1.0000e+00
       23  2    1    2    0    0 -8.8817841970e-16 +0.0000000000e+00 +3.5527136788e-15 9.1188000000e+01 9.1188000000e+01 4.1771e-14 0.0000e+00
 -9990012  2    3    3    0    0 +7.5888447523e+00 +1.4124664636e+01 +9.6734878098e+00 7.2461732829e+01 7.0000211731e+01 3.8038e-04 0.0000e+00
      -24  2    4    4    0    0 -4.6768144763e-01 +1.5838208080e+01 +1.7331916636e+01 6.1214716429e+01 5.6531218032e+01 6.2418e-14 0.0000e+00
      -11  1    4    4    0    0 +8.0565261999e+00 -1.7135434440e+00 -7.6584288260e+00 1.1247016399e+01 5.1100000000e-04 0.0000e+00 1.0000e+00
       11  1    5    5    0    0 +2.5053707655e+01 +2.0720870818e+00 -3.6768019542e+00 2.5406705512e+01 5.1100000000e-04 0.0000e+00 -1.0000e+00
      -12  1    5    5    0    0 -2.5521389102e+01 +1.3766120998e+01 +2.1008718590e+01 3.5808010917e+01 0.0000000000e+00 0.0000e+00 1.0000e+00
       12  1    3    3    0    0 -7.5888447523e+00 -1.4124664636e+01 -9.6734878098e+00 1.8726267171e+01 0.0000000000e+00 0.0000e+00 -1.0000e+00
</event>
<event>
 8      4 +1.0086356e-04 9.11880000e+01 7.81616400e-03 1.18400000e-01
      -11 -1    0    0    0    0 +0.0000000000e+00 +0.0000000000e+00 +4.5593999997e+01 4.5594000000e+01 5.1100000000e-04 0.0000e+00 1.0000e+00
       11 -1    0    0    0    0 -0.0000000000e+00 -0.0000000000e+00 -4.5593999997e+01 4.5594000000e+01 5.1100000000e-04 0.0000e+00 -1.0000e+00
       23  2    1    2    0    0 +0.0000000000e+00 +4.4408920985e-16 +0.0000000000e+00 9.1188000000e+01 9.1188000000e+01 4.9908e-14 0.0000e+00
 -9990012  2    3    3    0    0 +1.7508112368e+01 +1.7310663375e+00 +6.4148735452e+00 7.2461516295e+01 6.9999929656e+01 5.1683e-05 0.0000e+00
      -11  1    4    4    0    0 -2.0865244144e+01 +1.5417559233e+01 +7.4657540605e+00 2.6996241032e+01 5.1100000000e-04 0.0000e+00 1.0000e+00
       11  1    4    4    0    0 +2.2010255101e+01 -1.0689460721e+01 -1.0165893185e+01 2.6496439093e+01 5.1100000000e-04 0.0000e+00 -1.0000e+00
      -12  1    4    4    0    0 +1.6363101412e+01 -2.9970321744e+00 +9.1150126699e+00 1.8968836170e+01 0.0000000000e+00 0.0000e+00 1.0000e+00
       12  1    3    3    0    0 -1.7508112368e+01 -1.7310663375e+00 -6.4148735452e+00 1.8726483705e+01 0.0000000000e+00 0.0000e+00 -1.0000e+00
</event>
<event>
 8      4 +1.0086356e-04 9.11880000e+01 7.81616400e-03 1.18400000e-01
      -11 -1    0    0    0    0 +0.0000000000e+00 +0.0000000000e+00 +4.5593999997e+01 4.5594000000e+01 5.1100000000e-04 0.0000e+00 -1.0000e+00
       11 -1    0    0    0    0 -0.0000000000e+00 -0.0000000000e+00 -4.5593999997e+01 4.5594000000e+01 5.1100000000e-04 0.0000e+00 1.0000e+00
       23  2    1    2    0    0 -3.5527136788e-15 -1.3322676296e-15 +2.6645352591e-15 9.1188000000e+01 9.1188000000e+01 2.0134e-13 0.0000e+00
 -9990012  2    3    3    0    0 +1.7819164556e+01 +3.3800602377e+00 -4.6618267283e+00 7.2461546488e+01 6.9999968988e+01 1.1226e-04 0.0000e+00
      -11  1    4    4    0    0 +1.9864901265e+01 +3.3390843787e+00 +1.1654773627e+01 2.3272248179e+01 5.1100000000e-04 0.0000e+00 1.0000e+00
       11  1    4    4    0    0 +1.3091156955e+01 +1.4929747656e+01 +3.4810177494e+00 2.0159197413e+01 5.1100000000e-04 0.0000e+00 -1.0000e+00
      -12  1    4    4    0    0 -1.5136893664e+01 -1.4888771797e+01 -1.9797618104e+01 2.9030100896e+01 0.0000000000e+00 0.0000e+00 1.0000e+00
       12  1    3    3    0    0 -1.7819164556e+01 -3.3800602377e+00 +4.6618267283e+00 1.8726453512e+01 0.0000000000e+00 0.0000e+00 -1.0000e+00
</event>
<event>
 9      3 +1.0086356e-04 9.11880000e+01 7.81616400e-03 1.18400000e-01
      -11 -1    0    0    0    0 +0.0000000000e+00 +0.0000000000e+00 +4.5593999997e+01 4.5594000000e+01 5.1100000000e-04 0.0000e+00 1.0000e+00
       11 -1    0    0    0    0 -0.0000000000e+00 -0.0000000000e+00 -4.5593999997e+01 4.5594000000e+01 5.1100000000e-04 0.0000e+00 -1.0000e+00
       23  2    1    2    0    0 -5.5511151231e-16 +0.0000000000e+00 +8.8817841970e-16 9.1188000000e+01 9.1188000000e+01 6.4424e-14 0.0000e+00
  9990012  2    3    3    0    0 -2.1458921577e-01 -1.8049390216e+01 -4.9853196120e+00 7.2461549526e+01 6.9999972946e+01 1.5951e-04 0.0000e+00
       24  2    4    4    0    0 +1.6699778546e+00 -2.3018504620e+01 -1.1156677327e+01 6.4317266420e+01 5.8988125329e+01 1.9219e-14 0.0000e+00
      -11  1    5    5    0    0 -1.2389784775e+01 +4.9313711006e+00 +1.7423954372e+01 2.1941271018e+01 5.1100000000e-04 0.0000e+00 1.0000e+00
       11  1    4    4    0    0 -1.8845670703e+00 +4.9691144036e+00 +6.1713577152e+00 8.1442831059e+00 5.1100000000e-04 0.0000e+00 -1.0000e+00
       12  1    5    5    0    0 +1.4059762629e+01 -2.7949875721e+01 -2.8580631699e+01 4.2375995402e+01 0.0000000000e+00 0.0000e+00 -1.0000e+00
      -12  1    3    3    0    0 +2.1458921577e-01 +1.8049390216e+01 +4.9853196120e+00 1.8726450474e+01 0.0000000000e+00 0.0000e+00 1.0000e+00
</event>
<event>
 8      3 +1.0086356e-04 9.11880000e+01 7.81616400e-03 1.18400000e-01
      -11 -1    0    0    0    0 +0.0000000000e+00 +0.0000000000e+00 +4.5593999997e+01 4.5594000000e+01 5.1100000000e-04 0.0000e+00 -1.0000e+00
       11 -1    0    0    0    0 -0.0000000000e+00 -0.0000000000e+00 -4.5593999997e+01 4.5594000000e+01 5.1100000000e-04 0.0000e+00 1.0000e+00
       23  2    1    2    0    0 +3.5527136788e-15 +4.4408920985e-15 +0.0000000000e+00 9.1188000000e+01 9.1188000000e+01 4.2057e-14 0.0000e+00
  9990012  2    3    3    0    0 +1.6230845869e+01 -6.8740433443e+00 -6.3235156140e+00 7.2461556684e+01 6.9999982270e+01 2.2759e-04 0.0000e+00
      -11  1    4    4    0    0 -6.5431947727e+00 -1.7042305092e+01 +3.7227152389e+00 1.8630946560e+01 5.1100000000e-04 0.0000e+00 1.0000e+00
       11  1    4    4    0    0 +2.6639859436e+01 +1.2476674402e+01 +1.1674021509e+01 3.1648574903e+01 5.1100000000e-04 0.0000e+00 -1.0000e+00
       12  1    4    4    0    0 -3.8658187937e+00 -2.3084126544e+00 -2.1720252362e+01 2.2182035222e+01 0.0000000000e+00 0.0000e+00 -1.0000e+00
      -12  1    3    3    0    0 -1.6230845869e+01 +6.8740433443e+00 +6.3235156140e+00 1.8726443316e+01 0.0000000000e+00 0.0000e+00 1.0000e+00
</event>
<event>
 8      4 +1.0086356e-04 9.11880000e+01 7.81616400e-03 1.18400000e-01
      -11 -1    0    0    0    0 +0.0000000000e+00 +0.0000000000e+00 +4.5593999997e+01 4.5594000000e+01 5.1100000000e-04 0.0000e+00 1.0000e+00
       11 -1    0    0    0    0 -0.0000000000e+00 -0.0000000000e+00 -4.5593999997e+01 4.5594000000e+01 5.1100000000e-04 0.0000e+00 -1.0000e+00
       23  2    1    2    0    0 +3.5527136788e-15 +8.8817841970e-16 -2.6645352591e-15 9.1188000000e+01 9.1188000000e+01 5.9163e-15 0.0000e+00
 -9990012  2    3    3    0    0 +1.7649185918e+01 +6.1036296415e+00 -1.3906843541e+00 7.2461493082e+01 6.9999899416e+01 2.9572e-04 0.0000e+00
      -11  1    4    4    0    0 -2.1069564591e+01 -8.0191377301e+00 +7.5792524611e+00 2.3783990206e+01 5.1100000000e-04 0.0000e+00 1.0000e+00
       11  1    4    4    0    0 +2.1370527978e+01 +5.0294122980e+00 +7.3818765277e+00 2.3162179419e+01 5.1100000000e-04 0.0000e+00 -1.0000e+00
      -12  1    4    4    0    0 +1.7348222532e+01 +9.0933550736e+00 -1.6351813343e+01 2.5515323457e+01 0.0000000000e+00 0.0000e+00 1.0000e+00
       12  1    3    3    0    0 -1.7649185918e+01 -6.1036296415e+00 +1.3906843541e+00 1.8726506918e+01 0.0000000000e+00 0.0000e+00 -1.0000e+00
</event>
<event>
 9      4 +1.0086356e-04 9.11880000e+01 7.81616400e-03 1.18400000e-01
      -11 -1    0    0    0    0 +0.0000000000e+00 +0.0000000000e+00 +4.5593999997e+01 4.5594000000e+01 5.1100000000e-04 0.0000e+00 1.0000e+00
       11 -1    0    0    0    0 -0.0000000000e+00 -0.0000000000e+00 -4.5593999997e+01 4.5594000000e+01 5.1100000000e-04 0.0000e+00 -1.0000e+00
       23  2    1    2    0    0 +0.0000000000e+00 +4.4408920985e-16 +3.5527136788e-15 9.1188000000e+01 9.1188000000e+01 3.1542e-14 0.0000e+00
 -9990012  2    3    3    0    0 -7.3611052790e+00 +3.3985074947e+00 +1.6880298870e+01 7.2461542405e+01 6.9999963669e+01 7.1849e-05 0.0000e+00
      -24  2    4    4    0    0 -5.6310277544e+00 -2.4016922196e+00 +1.4698564898e+01 6.6027612940e+01 6.4079023568e+01 1.0813e-13 0.0000e+00
      -11  1    4    4    0    0 -1.7300775246e+00 +5.8001997143e+00 +2.1817339720e+00 6.4339294644e+00 5.1100000000e-04 0.0000e+00 1.0000e+00
       11  1    5    5    0    0 -3.1116820608e+01 -1.4072200370e+01 +1.6521955315e+01 3.7937558642e+01 5.1100000000e-04 0.0000e+00 -1.0000e+00
      -12  1    5    5    0    0 +2.5485792854e+01 +1.1670508150e+01 -1.8233904174e+00 2.8090054298e+01 0.0000000000e+00 0.0000e+00 1.0000e+00
       12  1    3    3    0    0 +7.3611052790e+00 -3.3985074947e+00 -1.6880298870e+01 1.8726457595e+01 0.0000000000e+00 0.0000e+00 -1.0000e+00
</event>
<event>
 9      4 +1.0086356e-04 9.11880000e+01 7.81616400e-03 1.18400000e-01
      -11 -1    0    0    0    0 +0.0000000000e+00 +0.0000000000e+00 +4.5593999997e+01 4.5594000000e+01 5.1100000000e-04 0.0000e+00 1.0000e+00
       11 -1    0    0    0    0 -0.0000000000e+00 -0.0000000000e+00 -4.5593999997e+01 4.5594000000e+01 5.1100000000e-04 0.0000e+00 -1.0000e+00
       23  2    1    2    0    0 +0.0000000000e+00 -1.7763568394e-15 -8.8817841970e-16 9.1188000000e+01 9.1188000000e+01 3.4911e-13 0.0000e+00
 -9990012  2    3    3    0    0 +1.0648718807e+01 +1.3785567642e+01 +6.8725233702e+00 7.2461850771e+01 7.0000365372e+01 7.5510e-04 0.0000e+00
      -24  2    4    4    0    0 +1.9422409535e+01 +1.4984077115e+01 +7.8188032424e+00 6.3556261527e+01 5.8107763130e+01 1.1380e-13 0.0000e+00
      -11  1    4    4    0    0 -8.7736907272e+00 -1.1985094725e+00 -9.4627987219e-01 8.9055892444e+00 5.1100000000e-04 0.0000e+00 1.0000e+00
       11  1    5    5    0    0 +8.3608149695e+00 -2.8466421297e+00 -2.3925552298e+01 2.5503698778e+01 5.1100000000e-04 0.0000e+00 -1.0000e+00
      -12  1    5    5    0    0 +1.1061594565e+01 +1.7830719245e+01 +3.1744355540e+01 3.8052562749e+01 0.0000000000e+00 0.0000e+00 1.0000e+00
       12  1    3    3    0    0 -1.0648718807e+01 -1.3785567642e+01 -6.8725233702e+00 1.8726149229e+01 0.0000000000e+00 0.0000e+00 -1.0000e+00
</event>
<event>
 9      4 +1.0086356e-04 9.11880000e+01 7.81616400e-03 1.18400000e-01
      -11 -1    0    0    0    0 +0.0000000000e+00 +0.0000000000e+00 +4.5593999997e+01 4.5594000000e+01 5.1100000000e-04 0.0000e+00 -1.0000e+00
       11 -1    0    0    0    0 -0.0000000000e+00 -0.0000000000e+00 -4.5593999997e+01 4.5594000000e+01 5.1100000000e-04 0.0000e+00 1.0000e+00
       23  2    1    2    0    0 +0.0000000000e+00 +0.0000000000e+00 +0.0000000000e+00 9.1188000000e+01 9.1188000000e+01 1.8485e-13 0.0000e+00
 -9990012  2    3    3    0    0 +1.3463207217e+01 -1.1026586947e+01 -6.9163412453e+00 7.2461565623e+01 6.9999993914e+01 3.8987e-05 0.0000e+00
      -24  2    4    4    0    0 +9.2350423084e-01 -1.2417986151e+01 -8.1005890585e+00 5.9789447179e+01 5.7914585475e+01 2.2298e-14 0.0000e+00
      -11  1    4    4    0    0 +1.2539702986e+01 +1.3913992038e+00 +1.1842478132e+00 1.2672118444e+01 5.1100000000e-04 0.0000e+00 1.0000e+00
       11  1    5    5    0    0 +3.3257582093e+00 +2.1998953002e+01 -1.1636201599e+01 2.5108082141e+01 5.1100000000e-04 0.0000e+00 -1.0000e+00
      -12  1    5    5    0    0 -2.4022539784e+00 -3.4416939153e+01 +3.5356125401e+00 3.4681365038e+01 0.0000000000e+00 0.0000e+00 1.0000e+00
       12  1    3    3    0    0 -1.3463207217e+01 +1.1026586947e+01 +6.9163412453e+00 1.8726434377e+01 0.0000000000e+00 0.0000e+00 -1.0000e+00
</event>
<event>
 8      4 +1.0086356e-04 9.11880000e+01 7.81616400e-03 1.18400000e-01
      -11 -1    0    0    0    0 +0.0000000000e+00 +0.0000000000e+00 +4.5593999997e+01 4.5594000000e+01 5.1100000000e-04 0.0000e+00 1.0000e+00
       11 -1    0    0    0    0 -0.0000000000e+00 -0.0000000000e+00 -4.5593999997e+01 4.5594000000e+01 5.1100000000e-04 0.0000e+00 -1.0000e+00
       23  2    1    2    0    0 +0.0000000000e+00 -2.2204460493e-16 -3.5527136788e-15 9.1188000000e+01 9.1188000000e+01 1.1244e-13 0.0000e+00
 -9990012  2    3    3    0    0 -8.7903314753e+00 +1.4563745124e+00 +1.6470843711e+01 7.2461557553e+01 6.9999983402e+01 5.3776e-05 0.0000e+00
      -11  1    4    4    0    0 +2.3734017958e+01 +5.1627150130e+00 -4.8847191108e+00 2.4775344917e+01 5.1100000000e-04 0.0000e+00 -1.0000e+00
       11  1    4    4    0    0 -2.3000004714e+01 +3.0241208203e+00 +2.6256024562e+01 3.5036043578e+01 5.1100000000e-04 0.0000e+00 1.0000e+00
      -12  1    4    4    0    0 -9.5243447191e+00 -6.7304613210e+00 -4.9004617402e+00 1.2650169058e+01 0.0000000000e+00 0.0000e+00 1.0000e+00
       12  1    3    3    0    0 +8.7903314753e+00 -1.4563745124e+00 -1.6470843711e+01 1.8726442447e+01 0.0000000000e+00 0.0000e+00 -1.0000e+00
</event>
<event>
 9      3 +1.0086356e-04 9.11880000e+01 7.81616400e-03 1.18400000e-01
      -11 -1    0    0    0    0 +0.0000000000e+00 +0.0000000000e+00 +4.5593999997e+01 4.5594000000e+01 5.1100000000e-04 0.0000e+00 1.0000e+00
       11 -1    0    0    0    0 -0.0000000000e+00 -0.0000000000e+00 -4.5593999997e+01 4.5594000000e+01 5.1100000000e-04 0.0000e+00 -1.0000e+00
       23  2    1    2    0    0 +8.8817841970e-16 +8.8817841970e-16 +0.0000000000e+00 9.1188000000e+01 9.1188000000e+01 1.9440e-13 0.0000e+00
  9990012  2    3    3    0    0 -4.5196587005e+00 -3.9599532494e+00 -1.7736179987e+01 7.2461531432e+01 6.9999949375e+01 5.1096e-04 0.0000e+00
       24  2    4    4    0    0 -1.6046004517e+01 -2.0083749224e+00 -2.4045547478e+01 5.9177201406e+01 5.1596947409e+01 2.8119e-13 0.0000e+00
      -11  1    5    5    0    0 -5.3667222770e+00 -2.6578646038e+01 -9.7785627561e+00 2.8824406725e+01 5.1100000000e-04 0.0000e+00 1.0000e+00
       11  1    4    4    0    0 +1.1526345816e+01 -1.9515783270e+00 +6.3093674916e+00 1.3284330026e+01 5.1100000000e-04 0.0000e+00 -1.0000e+00
       12  1    5    5    0    0 -1.0679282240e+01 +2.4570271116e+01 -1.4266984722e+01 3.0352794681e+01 0.0000000000e+00 0.0000e+00 -1.0000e+00
      -12  1    3    3    0    0 +4.5196587005e+00 +3.9599532494e+00 +1.7736179987e+01 1.8726468568e+01 0.0000000000e+00 0.0000e+00 1.0000e+00
</event>
<event>
 9      3 +1.0086356e-04 9.11880000e+01 7.81616400e-03 1.18400000e-01
      -11 -1    0    0    0    0 +0.0000000000e+00 +0.0000000000e+00 +4.5593999997e+01 4.5594000000e+01 5.1100000000e-04 0.0000e+00 -1.0000e+00
       11 -1    0    0    0    0 -0.0000000000e+00 -0.0000000000e+00 -4.5593999997e+01 4.5594000000e+01 5.1100000000e-04 0.0000e+00 1.0000e+00
       23  2    1    2    0    0 -1.7763568394e-15 -1.7763568394e-15 +1.7763568394e-15 9.1188000000e+01 9.1188000000e+01 2.7887e-14 0.0000e+00
  9990012  2    3    3    0    0 -8.4386504872e+00 -1.4122308614e+01 +8.9458954948e+00 7.2461562302e+01 6.9999989589e+01 7.6180e-05 0.0000e+00
       24  2    4    4    0    0 -7.6912372568e+00 -4.6365832537e+00 +2.0015739465e+01 5.7864334554e+01 5.3544358734e+01 6.5191e-14 0.0000e+00
      -11  1    5    5    0    0 +1.9945159035e+01 +8.2603459986e+00 +3.7829470107e-01 2.1591336042e+01 5.1100000000e-04 0.0000e+00 1.0000e+00
       11  1    4    4    0    0 -7.4741323044e-01 -9.4857253606e+00 -1.1069843970e+01 1.4597227749e+01 5.1100000000e-04 0.0000e+00 -1.0000e+00
       12  1    5    5    0    0 -2.7636396292e+01 -1.2896929252e+01 +1.9637444764e+01 3.6272998511e+01 0.0000000000e+00 0.0000e+00 -1.0000e+00
      -12  1    3    3    0    0 +8.4386504872e+00 +1.4122308614e+01 -8.9458954948e+00 1.8726437698e+01 0.0000000000e+00 0.0000e+00 1.0000e+00
</event>
<event>
 8      4 +1.0086356e-04 9.11880000e+01 7.81616400e-03 1.18400000e-01
      -11 -1    0    0    0    0 +0.0000000000e+00 +0.0000000000e+00 +4.5593999997e+01 4.5594000000e+01 5.1100000000e-04 0.0000e+00 1.0000e+00
       11 -1    0    0    0    0 -0.0000000000e+00 -0.0000000000e+00 -4.5593999997e+01 4.5594000000e+01 5.1100000000e-04 0.0000e+00 -1.0000e+00
       23  2    1    2    0    0 +0.0000000000e+00 -1.7763568394e-15 +8.8817841970e-16 9.1188000000e+01 9.1188000000e+01 5.7972e-16 0.0000e+00
 -9990012  2    3    3    0    0 -1.4535901265e+01 +9.1415870836e+00 -7.4711140284e+00 7.2461585906e+01 7.0000020337e+01 2.4993e-04 0.0000e+00
      -11  1    4    4    0    0 +3.2711203649e+00 +1.9291546245e+01 +1.3950964366e+01 2.4031092193e+01 5.1100000000e-04 0.0000e+00 1.0000e+00
       11  1    4    4    0    0 +1.1075018998e+01 +1.8175517031e-03 -1.2156253421e+01 1.6444772622e+01 5.1100000000e-04 0.0000e+00 -1.0000e+00
      -12  1    4    4    0    0 -2.8882040628e+01 -1.0151776713e+01 -9.2658249733e+00 3.1985721091e+01 0.0000000000e+00 0.0000e+00 1.0000e+00
       12  1    3    3    0    0 +1.4535901265e+01 -9.1415870836e+00 +7.4711140284e+00 1.8726414094e+01 0.0000000000e+00 0.0000e+00 -1.0000e+00
</event>
<event>
 9      4 +1.0086356e-04 9.11880000e+01 7.81616400e-03 1.18400000e-01
      -11 -1    0    0    0    0 +0.0000000000e+00 +0.0000000000e+00 +4.5593999997e+01 4.5594000000e+01 5.1100000000e-04 0.0000e+00 -1.0000e+00
       11 -1    0    0    0    0 -0.0000000000e+00 -0.0000000000e+00 -4.5593999997e+01 4.5594000000e+01 5.1100000000e-04 0.0000e+00 1.0000e+00
       23  2    1    2    0    0 +0.0000000000e+00 -4.4408920985e-16 -8.8817841970e-16 9.1188000000e+01 9.1188000000e+01 1.0270e-13 0.0000e+00
 -9990012  2    3    3    0    0 -1.7114614326e+01 +2.2079188622e+00 +7.2737179586e+00 7.2461230332e+01 6.9999557135e+01 2.3537e-06 0.0000e+00
      -24  2    4    4    0    0 -2.2673705203e+01 -3.2623235200e+00 +4.2679080399e-01 6.2083010118e+01 5.7700765441e+01 1.5641e-14 0.0000e+00
      -11  1    4    4    0    0 +5.5590908769e+00 +5.4702423821e+00 +6.8469271546e+00 1.0378220214e+01 5.1100000000e-04 0.0000e+00 1.0000e+00
       11  1    5    5    0    0 +6.9971708151e+00 +1.7313410691e+01 -1.3856636699e+01 2.3253407709e+01 5.1100000000e-04 0.0000e+00 -1.0000e+00
      -12  1    5    5    0    0 -2.9670876018e+01 -2.0575734211e+01 +1.4283427503e+01 3.8829602409e+01 0.0000000000e+00 0.0000e+00 1.0000e+00
       12  1    3    3    0    0 +1.7114614326e+01 -2.2079188622e+00 -7.2737179586e+00 1.8726769668e+01 0.0000000000e+00 0.0000e+00 -1.0000e+00
</event>
<event>
 8      3 +1.0086356e-04 9.11880000e+01 7.81616400e-03 1.18400000e-01
      -11 -1    0    0    0    0 +0.0000000000e+00 +0.0000000000e+00 +4.5593999997e+01 4.5594000000e+01 5.1100000000e-04 0.0000e+00 1.0000e+00
       11 -1    0    0    0    0 -0.0000000000e+00 -0.0000000000e+00 -4.5593999997e+01 4.5594000000e+01 5.1100000000e-04 0.0000e+00 -1.0000e+00
       23  2    1    2    0    0 -1.7763568394e-15 -1.5543122345e-15 -1.7763568394e-15 9.1188000000e+01 9.1188000000e+01 1.2097e-13 0.0000e+00
  9990012  2    3    3    0    0 +9.8519666579e+00 -1.9792109902e+00 -1.5801938350e+01 7.2461554027e+01 6.9999978808e+01 2.5260e-04 0.0000e+00
      -11  1    4    4    0    0 -1.2645534415e+01 -6.8680669818e+00 -1.5554005283e+00 1.4474085663e+01 5.1100000000e-04 0.0000e+00 1.0000e+00
       11  1    4    4    0    0 +2.5819351817e+00 +2.6367870542e+01 -1.0325382252e+01 2.8434917005e+01 5.1100000000e-04 0.0000e+00 -1.0000e+00
       12  1    4    4    0    0 +1.9915565891e+01 -2.1479014550e+01 -3.9211555697e+00 2.9552551359e+01 0.0000000000e+00 0.0000e+00 -1.0000e+00
      -12  1    3    3    0    0 -9.8519666579e+00 +1.9792109902e+00 +1.5801938350e+01 1.8726445973e+01 0.0000000000e+00 0.0000e+00 1.0000e+00
</event>
<event>
 8      3 +1.0086356e-04 9.11880000e+01 7.81616400e-03 1.18400000e-01
      -11 -1    0    0    0    0 +0.0000000000e+00 +0.0000000000e+00 +4.5593999997e+01 4.5594000000e+01 5.1100000000e-04 0.0000e+00 -1.0000e+00
       11 -1    0    0    0    0 -0.0000000000e+00 -0.0000000000e+00 -4.5593999997e+01 4.5594000000e+01 5.1100000000e-04 0.0000e+00 1.0000e+00
       23  2    1    2    0    0 +1.7763568394e-15 -1.7763568394e-15 +1.7763568394e-15 9.1188000000e+01 9.1188000000e+01 1.0300e-13 0.0000e+00
  9990012  2    3    3    0    0 -5.4060240905e+00 +9.2896720718e+00 -1.5334807035e+01 7.2461563861e+01 6.9999991619e+01 5.5600e-05 0.0000e+00
      -11  1    4    4    0    0 +2.0526990483e+01 -9.5318870033e+00 +1.4764381403e+00 2.2680257450e+01 5.1100000000e-04 0.0000e+00 1.0000e+00
       11  1    4    4    0    0 -2.4684690008e+01 +2.2447374799e+01 -8.6043088400e-01 3.3376022797e+01 5.1100000000e-04 0.0000e+00 -1.0000e+00
       12  1    4    4    0    0 -1.2483245653e+00 -3.6258157238e+00 -1.5950814292e+01 1.6405283614e+01 0.0000000000e+00 0.0000e+00 -1.0000e+00
      -12  1    3    3    0    0 +5.4060240905e+00 -9.2896720718e+00 +1.5334807035e+01 1.8726436139e+01 0.0000000000e+00 0.0000e+00 1.0000e+00
</event>
<event>
 8      3 +1.0086356e-04 9.11880000e+01 7.81616400e-03 1.18400000e-01
      -11 -1    0    0    0    0 +0.0000000000e+00 +0.0000000000e+00 +4.5593999997e+01 4.5594000000e+01 5.1100000000e-04 0.0000e+00 -1.0000e+00
       11 -1    0    0    0    0 -0.0000000000e+00 -0.0000000000e+00 -4.5593999997e+01 4.5594000000e+01 5.1100000000e-04 0.0000e+00 1.0000e+00
       23  2    1    2    0    0 +3.9968028887e-15 +0.0000000000e+00 +0.0000000000e+00 9.1188000000e+01 9.1188000000e+01 1.3360e-13 0.0000e+00
  9990012  2    3    3    0    0 -9.6925081341e-01 -1.8183442406e+01 +4.3706610189e+00 7.2461556061e+01 6.9999981458e+01 4.2369e-04 0.0000e+00
      -11  1    4    4    0    0 -2.4382434403e+01 +3.6141453929e+00 +1.9150838127e+00 2.4723120770e+01 5.1100000000e-04 0.0000e+00 1.0000e+00
       11  1    4    4    0    0 +1.9029576246e+01 -2.2515322859e+01 +1.5959513999e+01 3.3522688181e+01 5.1100000000e-04 0.0000e+00 -1.0000e+00
       12  1    4    4    0    0 +4.3836073443e+00 +7.1773505982e-01 -1.3503936793e+01 1.4215747109e+01 0.0000000000e+00 0.0000e+00 -1.0000e+00
      -12  1    3    3    0    0 +9.6925081341e-01 +1.8183442406e+01 -4.3706610189e+00 1.8726443939e+01 0.0000000000e+00 0.0000e+00 1.0000e+00
</event>
<event>
 8      4 +1.0086356e-04 9.11880000e+01 7.81616400e-03 1.18400000e-01
      -11 -1    0    0    0    0 +0.0000000000e+00 +0.0000000000e+00 +4.5593999997e+01 4.5594000000e+01 5.1100000000e-04 0.0000e+00 1.0000e+00
       11 -1    0    0    0    0 -0.0000000000e+00 -0.0000000000e+00 -4.5593999997e+01 4.5594000000e+01 5.1100000000e-04 0.0000e+00 -1.0000e+00
       23  2    1    2    0    0 +0.0000000000e+00 -8.8817841970e-16 +0.0000000000e+00 9.1188000000e+01 9.1188000000e+01 5.8491e-14 0.0000e+00
 -9990012  2    3    3    0    0 -1.7170928651e+01 -4.0671452741e+00 -6.2686998547e+00 7.2461573237e+01 7.0000003834e+01 8.7967e-04 0.0000e+00
      -11  1    4    4    0    0 -3.8582105638e+00 -2.5708812581e+01 +6.1917708268e+00 2.6723900526e+01 5.1100000000e-04 0.0000e+00 1.0000e+00
       11  1    4    4    0    0 -6.3830922008e+00 -9.2015897085e+00 +1.2736403076e+00 1.1270992818e+01 5.1100000000e-04 0.0000e+00 -1.0000e+00
      -12  1    4    4    0    0 -6.9296258866e+00 +3.0843257015e+01 -1.3734110989e+01 3.4466679894e+01 0.0000000000e+00 0.0000e+00 1.0000e+00
       12  1    3    3    0    0 +1.7170928651e+01 +4.0671452741e+00 +6.2686998547e+00 1.8726426763e+01 0.0000000000e+00 0.0000e+00 -1.0000e+00
</event>
<event>
 8      3 +1.0086356e-04 9.11880000e+01 7.81616400e-03 1.18400000e-01
      -11 -1    0    0    0    0 +0.0000000000e+00 +0.0000000000e+00 +4.5593999997e+01 4.5594000000e+01 5.1100000000e-04 0.0000e+00 -1.0000e+00
       11 -1    0    0    0    0 -0.0000000000e+00 -0.0000000000e+00 -4.5593999997e+01 4.5594000000e+01 5.1100000000e-04 0.0000e+00 1.0000e+00
       23  2    1    2    0    0 +0.0000000000e+00 +8.8817841970e-16 -1.7763568394e-15 9.1188000000e+01 9.1188000000e+01 1.4391e-14 0.0000e+00
  9990012  2    3    3    0    0 -1.6003636440e+01 -5.4481801845e+00 -8.0549311051e+00 7.2461522442e+01 6.9999937664e+01 1.5587e-04 0.0000e+00
      -11  1    4    4    0    0 +9.8167258545e+00 +8.6788329325e+00 -1.2137785941e+01 1.7861021678e+01 5.1100000000e-04 0.0000e+00 1.0000e+00
       11  1    4    4    0    0 +4.0044034558e+00 -1.9849522118e+01 +1.1570860914e+01 2.3322169666e+01 5.1100000000e-04 0.0000e+00 -1.0000e+00
       12  1    4    4    0    0 -2.9824765750e+01 +5.7225090011e+00 -7.4880060784e+00 3.1278331099e+01 0.0000000000e+00 0.0000e+00 -1.0000e+00
      -12  1    3    3    0    0 +1.6003636440e+01 +5.4481801845e+00 +8.0549311051e+00 1.8726477558e+01 0.0000000000e+00 0.0000e+00 1.0000e+00
</event>
<event>
 9      4 +1.0086356e-04 9.11880000e+01 7.81616400e-03 1.18400000e-01
      -11 -1    0    0    0    0 +0.0000000000e+00 +0.0000000000e+00 +4.5593999997e+01 4.5594000000e+01 5.1100000000e-04 0.0000e+00 -1.0000e+00
       11 -1    0    0    0    0 -0.0000000000e+00 -0.0000000000e+00 -4.5593999997e+01 4.5594000000e+01 5.1100000000e-04 0.0000e+00 1.0000e+00
       23  2    1    2    0    0 +5.3290705182e-15 +0.0000000000e+00 +0.0000000000e+00 9.1188000000e+01 9.1188000000e+01 4.7555e-14 0.0000e+00
 -9990012  2    3    3    0    0 -5.4173220503e+00 -3.3530488524e-01 +1.7922588891e+01 7.2461574818e+01 7.0000005892e+01 7.0130e-05 0.0000e+00
      -24  2    4    4    0    0 -1.9080514503e+01 +7.4402695611e+00 +1.3024656019e+01 5.5995484430e+01 5.0462153811e+01 4.5422e-14 0.0000e+00
      -11  1    4    4    0    0 +1.3663192453e+01 -7.7755744463e+00 +4.8979328715e+00 1.6466090388e+01 5.1100000000e-04 0.0000e+00 1.0000e+00
       11  1    5    5    0    0 -2.7762691846e+01 +1.0415265851e+01 +2.6448805302e+01 3.9733916538e+01 5.1100000000e-04 0.0000e+00 -1.0000e+00
      -12  1    5    5    0    0 +8.6821773423e+00 -2.9749962901e+00 -1.3424149283e+01 1.6261567892e+01 0.0000000000e+00 0.0000e+00 1.0000e+00
       12  1    3    3    0    0 +5.4173220503e+00 +3.3530488524e-01 -1.7922588891e+01 1.8726425182e+01 0.0000000000e+00 0.0000e+00 -1.0000e+00
</event>
<event>
 8      3 +1.0086356e-04 9.11880000e+01 7.81616400e-03 1.18400000e-01
      -11 -1    0    0    0    0 +0.0000000000e+00 +0.0000000000e+00 +4.5593999997e+01 4.5594000000e+01 5.1100000000e-04 0.0000e+00 -1.0000e+00
       11 -1    0    0    0    0 -0.0000000000e+00 -0.0000000000e+00 -4.5593999997e+01 4.5594000000e+01 5.1100000000e-04 0.0000e+00 1.0000e+00
       23  2    1    2    0    0 +0.0000000000e+00 +1.3322676296e-15 +0.0000000000e+00 9.1188000000e+01 9.1188000000e+01 6.1269e-14 0.0000e+00
  9990012  2    3    3    0    0 -6.5858300023e+00 +2.1391594589e+00 +1.7399084875e+01 7.2461619824e+01 7.0000064522e+01 8.5005e-05 0.0000e+00
      -11  1    4    4    0    0 +8.8738608806e+00 +1.2829315831e+01 +3.5917932736e+00 1.6007427363e+01 5.1100000000e-04 0.0000e+00 1.0000e+00
       11  1    4    4    0    0 +1.8161687568e+01 +3.0554434215e+00 +4.6925911352e+00 1.9005342450e+01 5.1100000000e-04 0.0000e+00 -1.0000e+00
       12  1    4    4    0    0 -3.3621378451e+01 -1.3745599793e+01 +9.1147004658e+00 3.7448850011e+01 0.0000000000e+00 0.0000e+00 -1.0000e+00
      -12  1    3    3    0    0 +6.5858300023e+00 -2.1391594589e+00 -1.7399084875e+01 1.8726380176e+01 0.0000000000e+00 0.0000e+00 1.0000e+00
</event>
<event>
 9      3 +1.0086356e-04 9.11880000e+01 7.81616400e-03 1.18400000e-01
      -11 -1    0    0    0    0 +0.0000000000e+00 +0.0000000000e+00 +4.5593999997e+01 4.5594000000e+01 5.1100000000e-04 0.0000e+00 -1.0000e+00
       11 -1    0    0    0    0 -0.0000000000e+00 -0.0000000000e+00 -4.5593999997e+01 4.5594000000e+01 5.1100000000e-04 0.0000e+00 1.0000e+00
       23  2    1    2    0    0 +2.6645352591e-15 +0.0000000000e+00 -7.2164496601e-16 9.1188000000e+01 9.1188000000e+01 5.6369e-14 0.0000e+00
  9990012  2    3    3    0    0 -7.2423811848e+00 -1.7262524364e+01 +4.8352475699e-01 7.2461531331e+01 6.9999949242e+01 3.0928e-04 0.0000e+00
       24  2    4    4    0    0 -1.0585347925e+01 -6.2018052376e+00 +1.1786085443e+01 5.6297905112e+01 5.3665914052e+01 1.3390e-13 0.0000e+00
      -11  1    5    5    0    0 -2.5772149527e+01 +3.6119671237e+00 -1.0094191449e+01 2.7913127718e+01 5.1100000000e-04 0.0000e+00 1.0000e+00
       11  1    4    4    0    0 +3.3429667404e+00 -1.1060719126e+01 -1.1302560686e+01 1.6163626219e+01 5.1100000000e-04 0.0000e+00 -1.0000e+00
       12  1    5    5    0    0 +1.5186801601e+01 -9.8137723613e+00 +2.1880276892e+01 2.8384777394e+01 0.0000000000e+00 0.0000e+00 -1.0000e+00
      -12  1    3    3    0    0 +7.2423811848e+00 +1.7262524364e+01 -4.8352475699e-01 1.8726468669e+01 0.0000000000e+00 0.0000e+00 1.0000e+00
</event>
<event>
 8      4 +1.0086356e-04 9.11880000e+01 7.81616400e-03 1.18400000e-01
      -11 -1    0    0    0    0 +0.0000000000e+00 +0.0000000000e+00 +4.5593999997e+01 4.5594000000e+01 5.1100000000e-04 0.0000e+00 1.0000e+00
       11 -1    0    0    0    0 -0.0000000000e+00 -0.0000000000e+00 -4.5593999997e+01 4.5594000000e+01 5.1100000000e-04 0.0000e+00 -1.0000e+00
       23  2    1    2    0    0 -3.5527136788e-15 +2.2204460493e-16 +2.2204460493e-15 9.1188000000e+01 9.1188000000e+01 3.0960e-14 0.0000e+00
 -9990012  2    3    3    0    0 +1.8631717055e+01 -1.1430306946e+00 -1.4946161834e+00 7.2461514021e+01 6.9999926694e+01 1.0043e-04 0.0000e+00
      -11  1    4    4    0    0 +3.1001361976e-01 +4.7446032330e+00 +2.3687756749e+01 2.4160239824e+01 5.1100000000e-04 0.0000e+00 1.0000e+00
       11  1    4    4    0    0 -3.1361033756e+00 -1.4713526748e+01 -1.4535970072e+00 1.5114097998e+01 5.1100000000e-04 0.0000e+00 -1.0000e+00
      -12  1    4    4    0    0 +2.1457806811e+01 +8.8258928209e+00 -2.3728775925e+01 3.3187176200e+01 0.0000000000e+00 0.0000e+00 1.0000e+00
       12  1    3    3    0    0 -1.8631717055e+01 +1.1430306946e+00 +1.4946161834e+00 1.8726485979e+01 0.0000000000e+00 0.0000e+00 -1.0000e+00
</event>
<event>
 8      4 +1.0086356e-04 9.11880000e+01 7.81616400e-03 1.18400000e-01
      -11 -1    0    0    0    0 +0.0000000000e+00 +0.0000000000e+00 +4.5593999997e+01 4.5594000000e+01 5.1100000000e-04 0.0000e+00 1.0000e+00
       11 -1    0    0    0    0 -0.0000000000e+00 -0.0000000000e+00 -4.5593999997e+01 4.5594000000e+01 5.1100000000e-04 0.0000e+00 -1.0000e+00
       23  2    1    2    0    0 +0.0000000000e+00 -3.5527136788e-15 +0.0000000000e+00 9.1188000000e+01 9.1188000000e+01 3.4948e-14 0.0000e+00
 -9990012  2    3    3    0    0 -1.5038500489e+01 +9.3316787962e+00 +6.1197371098e+00 7.2461336965e+01 6.9999696045e+01 6.9045e-05 0.0000e+00
      -11  1    4    4    0    0 -1.3132450887e+01 -2.7424092894e+01 +1.3925508607e+01 3.3443413815e+01 5.1100000000e-04 0.0000e+00 1.0000e+00
       11  1    4    4    0    0 +2.3250928041e+00 +8.4508484314e+00 -5.4062691952e+00 1.0298089271e+01 5.1100000000e-04 0.0000e+00 -1.0000e+00
      -12  1    4    4    0    0 -4.2311424065e+00 +2.8304923259e+01 -2.3995023025e+00 2.8719833879e+01 0.0000000000e+00 0.0000e+00 1.0000e+00
       12  1    3    3    0    0 +1.5038500489e+01 -9.3316787962e+00 -6.1197371098e+00 1.8726663035e+01 0.0000000000e+00 0.0000e+00 -1.0000e+00
</event>
<event>
 9      2 +1.0086356e-04 9.11880000e+01 7.81616400e-03 1.18400000e-01
      -11 -1    0    0    0    0 +0.0000000000e+00 +0.0000000000e+00 +4.5593999997e+01 4.5594000000e+01 5.1100000000e-04 0.0000e+00 1.0000e+00
       11 -1    0    0    0    0 -0.0000000000e+00 -0.0000000000e+00 -4.5593999997e+01 4.5594000000e+01 5.1100000000e-04 0.0000e+00 -1.0000e+00
       23  2    1    2    0    0 -3.5527136788e-15 +0.0000000000e+00 +0.0000000000e+00 9.1188000000e+01 9.1188000000e+01 4.0283e-14 0.0000e+00
 -9990012  2    3    3    0    0 +7.3203499094e+00 -8.9648893173e+00 +1.4721481863e+01 7.2461580387e+01 7.0000013148e+01 1.6987e-04 0.0000e+00
       23  2    4    4    0    0 +8.1303263628e+00 -7.4388810166e+00 +1.7683682630e+01 6.9032382730e+01 6.5812750106e+01 2.4114e-13 0.0000e+00
      -11  1    5    5    0    0 +3.2487431527e+01 -4.3779512958e+00 +2.7307217068e+01 4.2664783710e+01 5.1100000000e-04 0.0000e+00 1.0000e+00
       11  1    5    5    0    0 -2.4357105164e+01 -3.0609297208e+00 -9.6235344382e+00 2.6367599020e+01 5.1100000000e-04 0.0000e+00 -1.0000e+00
      -12  1    4    4    0    0 -8.0997645334e-01 -1.5260083007e+00 -2.9622007669e+00 3.4291976572e+00 0.0000000000e+00 0.0000e+00 1.0000e+00
       12  1    3    3    0    0 -7.3203499094e+00 +8.9648893173e+00 -1.4721481863e+01 1.8726419613e+01 0.0000000000e+00 0.0000e+00 -1.0000e+00
</event>
<event>
 8      4 +1.0086356e-04 9.11880000e+01 7.81616400e-03 1.18400000e-01
      -11 -1    0    0    0    0 +0.0000000000e+00 +0.0000000000e+00 +4.5593999997e+01 4.5594000000e+01 5.1100000000e-04 0.0000e+00 1.0000e+00
       11 -1    0    0    0    0 -0.0000000000e+00 -0.0000000000e+00 -4.5593999997e+01 4.5594000000e+01 5.1100000000e-04 0.0000e+00 -1.0000e+00
       23  2    1    2    0    0 +3.5527136788e-15 +8.8817841970e-16 -7.1054273576e-15 9.1188000000e+01 9.1188000000e+01 1.2255e-13 0.0000e+00
 -9990012  2    3    3    0    0 +1.0436768992e+01 +4.0975864401e+00 +1.4998752697e+01 7.2461576313e+01 7.0000007841e+01 9.0196e-05 0.0000e+00
      -11  1    4    4    0    0 -6.3577347555e+00 +6.9389301834e+00 -1.7930225026e+01 2.0250000323e+01 5.1100000000e-04 0.0000e+00 1.0000e+00
       11  1    4    4    0    0 +8.7069176343e+00 -8.1511703564e+00 -5.0997241855e+00 1.2971475625e+01 5.1100000000e-04 0.0000e+00 -1.0000e+00
      -12  1    4    4    0    0 +8.0875861128e+00 +5.3098266131e+00 +3.8028701909e+01 3.9240100365e+01 0.0000000000e+00 0.0000e+00 1.0000e+00
       12  1    3    3    0    0 -1.0436768992e+01 -4.0975864401e+00 -1.4998752697e+01 1.8726423687e+01 0.0000000000e+00 0.0000e+00 -1.0000e+00
</event>
<event>
 9      2 +1.0086356e-04 9.11880000e+01 7.81616400e-03 1.18400000e-01
      -11 -1    0    0    0    0 +0.0000000000e+00 +0.0000000000e+00 +4.5593999997e+01 4.5594000000e+01 5.1100000000e-04 0.0000e+00 -1.0000e+00
       11 -1    0    0    0    0 -0.0000000000e+00 -0.0000000000e+00 -4.5593999997e+01 4.5594000000e+01 5.1100000000e-04 0.0000e+00 1.0000e+00
       23  2    1    2    0    0 +0.0000000000e+00 +4.4408920985e-16 +8.8817841970e-16 9.1188000000e+01 9.1188000000e+01 1.6736e-14 0.0000e+00
 -9990012  2    3    3    0    0 +1.8529809074e+01 -2.2887236990e+00 +1.4444894383e+00 7.2461584694e+01 7.0000018758e+01 8.6638e-05 0.0000e+00
       23  2    4    4    0    0 +2.2323299018e+01 -5.6320072716e+00 -7.8850225182e+00 6.1849897535e+01 5.6861120812e+01 5.9446e-13 0.0000e+00
      -11  1    5    5    0    0 -1.2002612470e+01 +1.6463335921e+01 -6.0290088025e-01 2.0383022972e+01 5.1100000000e-04 0.0000e+00 -1.0000e+00
       11  1    5    5    0    0 +3.4325911488e+01 -2.2095343192e+01 -7.2821216379e+00 4.1466874563e+01 5.1100000000e-04 0.0000e+00 1.0000e+00
      -12  1    4    4    0    0 -3.7934899441e+00 +3.3432835725e+00 +9.3295119564e+00 1.0611687158e+01 0.0000000000e+00 0.0000e+00 1.0000e+00
       12  1    3    3    0    0 -1.8529809074e+01 +2.2887236990e+00 -1.4444894383e+00 1.8726415306e+01 0.0000000000e+00 0.0000e+00 -1.0000e+00
</event>
<event>
 9      4 +1.0086356e-04 9.11880000e+01 7.81616400e-03 1.18400000e-01
      -11 -1    0    0    0    0 +0.0000000000e+00 +0.0000000000e+00 +4.5593999997e+01 4.5594000000e+01 5.1100000000e-04 0.0000e+00 -1.0000e+00
       11 -1    0    0    0    0 -0.0000000000e+00 -0.0000000000e+00 -4.5593999997e+01 4.5594000000e+01 5.1100000000e-04 0.0000e+00 1.0000e+00
       23  2    1    2    0    0 +1.7763568394e-15 +0.0000000000e+00 +5.3290705182e-15 9.1188000000e+01 9.1188000000e+01 5.9575e-14 0.0000e+00
 -9990012  2    3    3    0    0 -1.0811246120e+01 +1.3269930949e+01 -7.5964813101e+00 7.2461531076e+01 6.9999948911e+01 2.5474e-04 0.0000e+00
      -24  2    4    4    0    0 -1.0197241661e+01 +3.7722089907e+00 -1.2461495759e+01 6.1772654160e+01 5.9517716920e+01 3.0308e-13 0.0000e+00
      -11  1    4    4    0    0 -6.1400445889e-01 +9.4977219583e+00 +4.8650144486e+00 1.0688876916e+01 5.1100000000e-04 0.0000e+00 1.0000e+00
       11  1    5    5    0    0 -4.7682622941e+00 +7.9910626017e+00 +2.3439553433e+01 2.5219160815e+01 5.1100000000e-04 0.0000e+00 -1.0000e+00
      -12  1    5    5    0    0 -5.4289793671e+00 -4.2188536110e+00 -3.5901049191e+01 3.6553493346e+01 0.0000000000e+00 0.0000e+00 1.0000e+00
       12  1    3    3    0    0 +1.0811246120e+01 -1.3269930949e+01 +7.5964813101e+00 1.8726468924e+01 0.0000000000e+00 0.0000e+00 -1.0000e+00
</event>
<event>
 8      4 +1.0086356e-04 9.11880000e+01 7.81616400e-03 1.18400000e-01
      -11 -1    0    0    0    0 +0.0000000000e+00 +0.0000000000e+00 +4.5593999997e+01 4.5594000000e+01 5.1100000000e-04 0.0000e+00 1.0000e+00
       11 -1    0    0    0    0 -0.0000000000e+00 -0.0000000000e+00 -4.5593999997e+01 4.5594000000e+01 5.1100000000e-04 0.0000e+00 -1.0000e+00
       23  2    1    2    0    0 +1.7763568394e-15 +0.0000000000e+00 +0.0000000000e+00 9.1188000000e+01 9.1188000000e+01 3.0935e-14 0.0000e+00
 -9990012  2    3    3    0    0 +1.1737511246e+01 +2.7113720470e+00 +1.4337170904e+01 7.2461676865e+01 7.0000138828e+01 8.3920e-05 0.0000e+00
      -11  1    4    4    0    0 +5.0663754075e+00 +1.5611105551e+00 +3.0444068864e+01 3.0902209552e+01 5.1100000000e-04 0.0000e+00 1.0000e+00
       11  1    4    4    0    0 -1.3334773386e+01 +2.6523068355e+00 +2.9239839236e+00 1.3906854247e+01 5.1100000000e-04 0.0000e+00 -1.0000e+00
      -12  1    4    4    0    0 +2.0005909225e+01 -1.5020453436e+00 -1.9030881884e+01 2.7652613066e+01 0.0000000000e+00 0.0000e+00 1.0000e+00
       12  1    3    3    0    0 -1.1737511246e+01 -2.7113720470e+00 -1.4337170904e+01 1.8726323135e+01 0.0000000000e+00 0.0000e+00 -1.0000e+00
</event>
<event>
 9      4 +1.0086356e-04 9.11880000e+01 7.81616400e-03 1.18400000e-01
      -11 -1    0    0    0    0 +0.0000000000e+00 +0.0000000000e+00 +4.5593999997e+01 4.5594000000e+01 5.1100000000e-04 0.0000e+00 1.0000e+00
       11 -1    0    0    0    0 -0.0000000000e+00 -0.0000000000e+00 -4.5593999997e+01 4.5594000000e+01 5.1100000000e-04 0.0000e+00 -1.0000e+00
       23  2    1    2    0    0 +0.0000000000e+00 +0.0000000000e+00 +0.0000000000e+00 9.1188000000e+01 9.1188000000e+01 2.1677e-13 0.0000e+00
 -9990012  2    3    3    0    0 +1.6248743699e+01 -4.1396405374e+00 +8.3379713615e+00 7.2461546465e+01 6.9999968958e+01 2.7975e-04 0.0000e+00
      -24  2    4    4    0    0 +1.5487544419e+01 +1.1986688188e+01 +6.9682517287e+00 5.6259261606e+01 5.2278133656e+01 2.7053e-14 0.0000e+00
      -11  1    4    4    0    0 +7.6119928043e-01 -1.6126328725e+01 +1.3697196328e+00 1.6202284858e+01 5.1100000000e-04 0.0000e+00 1.0000e+00
       11  1    5    5    0    0 -3.6717068698e+00 +1.7684238173e+01 +2.3973591202e+01 3.0015775627e+01 5.1100000000e-04 0.0000e+00 -1.0000e+00
      -12  1    5    5    0    0 +1.9159251288e+01 -5.6975499846e+00 -1.7005339474e+01 2.6243485980e+01 0.0000000000e+00 0.0000e+00 1.0000e+00
       12  1    3    3    0    0 -1.6248743699e+01 +4.1396405374e+00 -8.3379713615e+00 1.8726453535e+01 0.0000000000e+00 0.0000e+00 -1.0000e+00
</event>
<event>
 9      3 +1.0086356e-04 9.11880000e+01 7.81616400e-03 1.18400000e-01
      -11 -1    0    0    0    0 +0.0000000000e+00 +0.0000000000e+00 +4.5593999997e+01 4.5594000000e+01 5.1100000000e-04 0.0000e+00 1.0000e+00
       11 -1    0    0    0    0 -0.0000000000e+00 -0.0000000000e+00 -4.5593999997e+01 4.5594000000e+01 5.1100000000e-04 0.0000e+00 -1.0000e+00
       23  2    1    2    0    0 -8.8817841970e-16 +4.4408920985e-16 +3.5527136788e-15 9.1188000000e+01 9.1188000000e+01 1.0173e-14 0.0000e+00
  9990012  2    3    3    0    0 -4.8559065849e+00 -2.7366618323e+00 -1.7877704999e+01 7.2461508530e+01 6.9999919540e+01 1.4138e-04 0.0000e+00
       24  2    4    4    0    0 +6.8710925042e+00 -7.0182370904e+00 -2.2782427154e+01 5.9048429316e+01 5.3583677118e+01 2.4175e-15 0.0000e+00
      -11  1    5    5    0    0 -6.8458912272e+00 +1.1622880392e+01 +1.1472321121e+01 1.7707956615e+01 5.1100000000e-04 0.0000e+00 1.0000e+00
       11  1    4    4    0    0 -1.1726999089e+01 +4.2815752581e+00 +4.9047221552e+00 1.3413079214e+01 5.1100000000e-04 0.0000e+00 -1.0000e+00
       12  1    5    5    0    0 +1.3716983731e+01 -1.8641117483e+01 -3.4254748275e+01 4.1340472701e+01 0.0000000000e+00 0.0000e+00 -1.0000e+00
      -12  1    3    3    0    0 +4.8559065849e+00 +2.7366618323e+00 +1.7877704999e+01 1.8726491470e+01 0.0000000000e+00 0.0000e+00 1.0000e+00
</event>
<event>
 9      2 +1.0086356e-04 9.11880000e+01 7.81616400e-03 1.18400000e-01
      -11 -1    0    0    0    0 +0.0000000000e+00 +0.0000000000e+00 +4.5593999997e+01 4.5594000000e+01 5.1100000000e-04 0.0000e+00 1.0000e+00
       11 -1    0    0    0    0 -0.0000000000e+00 -0.0000000000e+00 -4.5593999997e+01 4.5594000000e+01 5.1100000000e-04 0.0000e+00 -1.0000e+00
       23  2    1    2    0    0 -4.4408920985e-16 +0.0000000000e+00 -2.6645352591e-15 9.1188000000e+01 9.1188000000e+01 7.0479e-14 0.0000e+00
 -9990012  2    3    3    0    0 +2.3526451626e+00 +1.8488621632e+01 +1.8209940792e+00 7.2461545756e+01 6.9999968034e+01 7.6108e-05 0.0000e+00
       23  2    4    4    0    0 +4.0840056997e+00 +1.6742714646e+01 +3.5786791645e+00 6.9439086926e+01 6.7171290388e+01 5.5613e-13 0.0000e+00
      -11  1    5    5    0    0 +2.8339877701e+01 +1.6387137647e+01 -1.7660601253e+01 3.7196556094e+01 5.1100000000e-04 0.0000e+00 -1.0000e+00
       11  1    5    5    0    0 -2.4255872001e+01 +3.5557699849e-01 +2.1239280418e+01 3.2242530832e+01 5.1100000000e-04 0.0000e+00 1.0000e+00
      -12  1    4    4    0    0 -1.7313605371e+00 +1.7459069868e+00 -1.7576850853e+00 3.0224588293e+00 0.0000000000e+00 0.0000e+00 1.0000e+00
       12  1    3    3    0    0 -2.3526451626e+00 -1.8488621632e+01 -1.8209940792e+00 1.8726454244e+01 0.0000000000e+00 0.0000e+00 -1.0000e+00
</event>
<event>
 9      3 +1.0086356e-04 9.11880000e+01 7.81616400e-03 1.18400000e-01
      -11 -1    0    0    0    0 +0.0000000000e+00 +0.0000000000e+00 +4.5593999997e+01 4.5594000000e+01 5.1100000000e-04 0.0000e+00 1.0000e+00
       11 -1    0    0    0    0 -0.0000000000e+00 -0.0000000000e+00 -4.5593999997e+01 4.5594000000e+01 5.1100000000e-04 0.0000e+00 -1.0000e+00
       23  2    1    2    0    0 +0.0000000000e+00 +1.7763568394e-15 +1.7763568394e-15 9.1188000000e+01 9.1188000000e+01 7.4431e-14 0.0000e+00
  9990012  2    3    3    0    0 -1.7384538166e+01 +6.2980104550e+00 -2.9643577711e+00 7.2461694440e+01 7.0000161723e+01 1.6853e-04 0.0000e+00
       24  2    4    4    0    0 -2.6227066745e+01 +6.0692744637e+00 +2.2984020280e+00 6.2169013896e+01 5.5991146750e+01 1.5064e-13 0.0000e+00
      -11  1    5    5    0    0 -1.3357812071e+01 +1.8817836294e+01 +2.4405415342e+01 3.3588188466e+01 5.1100000000e-04 0.0000e+00 1.0000e+00
       11  1    4    4    0    0 +8.8425285788e+00 +2.2873599130e-01 -5.2627597991e+00 1.0292680544e+01 5.1100000000e-04 0.0000e+00 -1.0000e+00
       12  1    5    5    0    0 -1.2869254673e+01 -1.2748561830e+01 -2.2107013314e+01 2.8580825430e+01 0.0000000000e+00 0.0000e+00 -1.0000e+00
      -12  1    3    3    0    0 +1.7384538166e+01 -6.2980104550e+00 +2.9643577711e+00 1.8726305560e+01 0.0000000000e+00 0.0000e+00 1.0000e+00
</event>
<event>
 9      1 +1.0086356e-04 9.11880000e+01 7.81616400e-03 1.18400000e-01
      -11 -1    0    0    0    0 +0.0000000000e+00 +0.0000000000e+00 +4.5593999997e+01 4.5594000000e+01 5.1100000000e-04 0.0000e+00 -1.0000e+00
       11 -1    0    0    0    0 -0.0000000000e+00 -0.0000000000e+00 -4.5593999997e+01 4.5594000000e+01 5.1100000000e-04 0.0000e+00 1.0000e+00
       23  2    1    2    0    0 -2.4424906542e-15 +0.0000000000e+00 -1.7763568394e-15 9.1188000000e+01 9.1188000000e+01 3.2044e-14 0.0000e+00
  9990012  2    3    3    0    0 -1.6072112192e+00 -1.6481511186e+01 +8.7439545288e+00 7.2461545993e+01 6.9999968343e+01 3.2467e-05 0.0000e+00
       23  2    4    4    0    0 +2.9960850296e+00 -2.7935428573e+00 +2.7710149164e+00 5.6833787966e+01 5.6618199580e+01 9.2959e-14 0.0000e+00
      -11  1    5    5    0    0 -1.9577043421e+01 +5.6927374243e+00 +1.8916919788e+01 2.7812186952e+01 5.1100000000e-04 0.0000e+00 1.0000e+00
       11  1    5    5    0    0 +2.2573128451e+01 -8.4862802816e+00 -1.6145904872e+01 2.9021601015e+01 5.1100000000e-04 0.0000e+00 -1.0000e+00
       12  1    4    4    0    0 -4.6032962488e+00 -1.3687968329e+01 +5.9729396125e+00 1.5627758027e+01 0.0000000000e+00 0.0000e+00 -1.0000e+00
      -12  1    3    3    0    0 +1.6072112192e+00 +1.6481511186e+01 -8.7439545288e+00 1.8726454007e+01 0.0000000000e+00 0.0000e+00 1.0000e+00
</event>
<event>
 9      4 +1.0086356e-04 9.11880000e+01 7.81616400e-03 1.18400000e-01
      -11 -1    0    0    0    0 +0.0000000000e+00 +0.0000000000e+00 +4.5593999997e+01 4.5594000000e+01 5.1100000000e-04 0.0000e+00 1.0000e+00
       11 -1    0    0    0    0 -0.0000000000e+00 -0.0000000000e+00 -4.5593999997e+01 4.5594000000e+01 5.1100000000e-04 0.0000e+00 -1.0000e+00
       23  2    1    2    0    0 -7.1054273576e-15 +2.4424906542e-15 +0.0000000000e+00 9.1188000000e+01 9.1188000000e+01 1.7347e-15 0.0000e+00
 -9990012  2    3    3    0    0 -1.2075385826e+01 -1.5774112249e+00 +1.4225852812e+01 7.2461599992e+01 7.0000038687e+01 1.8689e-04 0.0000e+00
      -24  2    4    4    0    0 -1.6401573142e+01 -1.9787126025e+00 +2.5642440748e+01 6.0246223623e+01 5.1953303921e+01 3.0536e-13 0.0000e+00
      -11  1    4    4    0    0 +4.3261873160e+00 +4.0130137753e-01 -1.1416587936e+01 1.2215376369e+01 5.1100000000e-04 0.0000e+00 -1.0000e+00
       11  1    5    5    0    0 -2.0409367084e+01 +2.0825096897e+01 +2.2604788243e+01 3.6894489796e+01 5.1100000000e-04 0.0000e+00 1.0000e+00
      -12  1    5    5    0    0 +4.0077939425e+00 -2.2803809500e+01 +3.0376525043e+00 2.3351733827e+01 0.0000000000e+00 0.0000e+00 1.0000e+00
       12  1    3    3    0    0 +1.2075385826e+01 +1.5774112249e+00 -1.4225852812e+01 1.8726400008e+01 0.0000000000e+00 0.0000e+00 -1.0000e+00
</event>
<event>
 8      3 +1.0086356e-04 9.11880000e+01 7.81616400e-03 1.18400000e-01
      -11 -1    0    0    0    0 +0.0000000000e+00 +0.0000000000e+00 +4.5593999997e+01 4.5594000000e+01 5.1100000000e-04 0.0000e+00 1.0000e+00
       11 -1    0    0    0    0 -0.0000000000e+00 -0.0000000000e+00 -4.5593999997e+01 4.5594000000e+01 5.1100000000e-04 0.0000e+00 -1.0000e+00
       23  2    1    2    0    0 -3.5527136788e-15 -1.7763568394e-15 +0.0000000000e+00 9.1188000000e+01 9.1188000000e+01 1.5842e-13 0.0000e+00
  9990012  2    3    3    0    0 +1.2067980969e+01 +6.3692425294e+00 -1.2824619975e+01 7.2461700511e+01 7.0000169631e+01 2.7197e-04 0.0000e+00
      -11  1    4    4    0    0 +1.2928726744e+01 +2.8348675154e+01 -1.6227036634e+01 3.5129988278e+01 5.1100000000e-04 0.0000e+00 1.0000e+00
       11  1    4    4    0    0 -3.0516309358e+00 -2.8521338186e+00 +1.4513859009e+01 1.5102954091e+01 5.1100000000e-04 0.0000e+00 -1.0000e+00
       12  1    4    4    0    0 +2.1908851603e+00 -1.9127298806e+01 -1.1111442350e+01 2.2228758141e+01 0.0000000000e+00 0.0000e+00 -1.0000e+00
      -12  1    3    3    0    0 -1.2067980969e+01 -6.3692425294e+00 +1.2824619975e+01 1.8726299489e+01 0.0000000000e+00 0.0000e+00 1.0000e+00
</event>
<event>
 8      3 +1.0086356e-04 7.24615800e+01 7.81616400e-03 1.22670800e-01
      -11 -1    0    0    0    0 +0.0000000000e+00 +0.0000000000e+00 +4.5593999997e+01 4.5594000000e+01 5.1100000000e-04 0.0000e+00 1.0000e+00
       11 -1    0    0    0    0 -0.0000000000e+00 -0.0000000000e+00 -4.5593999997e+01 4.5594000000e+01 5.1100000000e-04 0.0000e+00 -1.0000e+00
  9990012  2    1    2    0    0 +5.7123547061e-01 +1.5830513501e+01 -9.9873522833e+00 7.2461583544e+01 7.0000017260e+01 2.3085e-04 0.0000e+00
       24  2    3    3    0    0 +5.6399804759e+00 +2.3626031866e+01 -1.3606370989e+01 6.2483628886e+01 5.5938106741e+01 4.5654e-14 0.0000e+00
      -11  1    4    4    0    0 -1.2819638307e+01 +1.2852297308e+00 +1.6341344565e+01 2.0809480634e+01 5.1100000000e-04 0.0000e+00 1.0000e+00
       11  1    3    3    0    0 -5.0687450053e+00 -7.7955183646e+00 +3.6190187056e+00 9.9779546579e+00 5.1100000000e-04 0.0000e+00 -1.0000e+00
       12  1    4    4    0    0 +1.8459618783e+01 +2.2340802135e+01 -2.9947715554e+01 4.1674148252e+01 0.0000000000e+00 0.0000e+00 -1.0000e+00
      -12  1    1    2    0    0 -5.7123547061e-01 -1.5830513501e+01 +9.9873522833e+00 1.8726416456e+01 0.0000000000e+00 0.0000e+00 1.0000e+00
</event>
<event>
 9      1 +1.0086356e-04 9.11880000e+01 7.81616400e-03 1.18400000e-01
      -11 -1    0    0    0    0 +0.0000000000e+00 +0.0000000000e+00 +4.5593999997e+01 4.5594000000e+01 5.1100000000e-04 0.0000e+00 1.0000e+00
       11 -1    0    0    0    0 -0.0000000000e+00 -0.0000000000e+00 -4.5593999997e+01 4.5594000000e+01 5.1100000000e-04 0.0000e+00 -1.0000e+00
       23  2    1    2    0    0 +0.0000000000e+00 -1.7763568394e-15 -2.2204460493e-16 9.1188000000e+01 9.1188000000e+01 4.8786e-14 0.0000e+00
  9990012  2    3    3    0    0 +1.8295477335e+01 -3.7449106891e+00 +1.3890972535e+00 7.2461589821e+01 7.0000025438e+01 7.8087e-05 0.0000e+00
       23  2    4    4    0    0 +9.4546107134e+00 -1.5024269573e+01 +6.8276551047e+00 5.7133094430e+01 5.3874439811e+01 1.6357e-14 0.0000e+00
      -11  1    5    5    0    0 -6.2152699086e+00 -1.0761024525e+01 -2.1296543695e+01 2.4657088281e+01 5.1100000000e-04 0.0000e+00 -1.0000e+00
       11  1    5    5    0    0 +1.5669880622e+01 -4.2632450480e+00 +2.8124198799e+01 3.2476006149e+01 5.1100000000e-04 0.0000e+00 1.0000e+00
       12  1    4    4    0    0 +8.8408666219e+00 +1.1279358884e+01 -5.4385578513e+00 1.5328495391e+01 0.0000000000e+00 0.0000e+00 -1.0000e+00
      -12  1    3    3    0    0 -1.8295477335e+01 +3.7449106891e+00 -1.3890972535e+00 1.8726410179e+01 0.0000000000e+00 0.0000e+00 1.0000e+00
</event>
<event>
 9      4 +1.0086356e-04 9.11880000e+01 7.81616400e-03 1.18400000e-01
      -11 -1    0    0    0    0 +0.0000000000e+00 +0.0000000000e+00 +4.5593999997e+01 4.5594000000e+01 5.1100000000e-04 0.0000e+00 1.0000e+00
       11 -1    0    0    0    0 -0.0000000000e+00 -0.0000000000e+00 -4.5593999997e+01 4.5594000000e+01 5.1100000000e-04 0.0000e+00 -1.0000e+00
       23  2    1    2    0    0 +1.7763568394e-15 +0.0000000000e+00 +2.6645352591e-15 9.1188000000e+01 9.1188000000e+01 3.9538e-14 0.0000e+00
 -9990012  2    3    3    0    0 +1.5874564173e+01 -7.7374507981e+00 +6.2298073156e+00 7.2461536593e+01 6.9999956098e+01 3.1922e-04 0.0000e+00
      -24  2    4    4    0    0 +1.2383928974e+01 +1.1241676050e+00 +1.1099365555e+00 6.1648308967e+01 6.0370991293e+01 4.3054e-14 0.0000e+00
      -11  1    4    4    0    0 +3.4906351999e+00 -8.8616184031e+00 +5.1198707601e+00 1.0813227626e+01 5.1100000000e-04 0.0000e+00 1.0000e+00
       11  1    5    5    0    0 -3.8374879664e+00 -1.9506903898e+01 -1.9825398603e+01 2.8076539025e+01 5.1100000000e-04 0.0000e+00 -1.0000e+00
      -12  1    5    5    0    0 +1.6221416940e+01 +2.0631071503e+01 +2.0935335158e+01 3.3571769943e+01 0.0000000000e+00 0.0000e+00 1.0000e+00
       12  1    3    3    0    0 -1.5874564173e+01 +7.7374507981e+00 -6.2298073156e+00 1.8726463407e+01 0.0000000000e+00 0.0000e+00 -1.0000e+00
</event>
<event>
 8      4 +1.0086356e-04 9.11880000e+01 7.81616400e-03 1.18400000e-01
      -11 -1    0    0    0    0 +0.0000000000e+00 +0.0000000000e+00 +4.5593999997e+01 4.5594000000e+01 5.1100000000e-04 0.0000e+00 1.0000e+00
       11 -1    0    0    0    0 -0.0000000000e+00 -0.0000000000e+00 -4.5593999997e+01 4.5594000000e+01 5.1100000000e-04 0.0000e+00 -1.0000e+00
       23  2    1    2    0    0 -8.8817841970e-16 -3.5527136788e-15 -4.8849813084e-15 9.1188000000e+01 9.1188000000e+01 7.4654e-14 0.0000e+00
 -9990012  2    3    3    0    0 +5.1014299054e+00 +1.7866355792e+01 +2.3340778600e+00 7.2461570126e+01 6.9999999780e+01 2.0873e-05 0.0000e+00
      -11  1    4    4    0    0 +6.9100037709e+00 +3.6254264679e+01 +2.0832946927e+01 4.2380792081e+01 5.1100000000e-04 0.0000e+00 1.0000e+00
       11  1    4    4    0    0 +1.9330222733e+00 +1.7041121451e+00 -9.5745880272e-02 2.5787091435e+00 5.1100000000e-04 0.0000e+00 -1.0000e+00
      -12  1    4    4    0    0 -3.7415961388e+00 -2.0092021032e+01 -1.8403123186e+01 2.7502068901e+01 0.0000000000e+00 0.0000e+00 1.0000e+00
       12  1    3    3    0    0 -5.1014299054e+00 -1.7866355792e+01 -2.3340778600e+00 1.8726429874e+01 0.0000000000e+00 0.0000e+00 -1.0000e+00
</event>
<event>
 8      4 +1.0086356e-04 9.11880000e+01 7.81616400e-03 1.18400000e-01
      -11 -1    0    0    0    0 +0.0000000000e+00 +0.0000000000e+00 +4.5593999997e+01 4.5594000000e+01 5.1100000000e-04 0.0000e+00 1.0000e+00
       11 -1    0    0    0    0 -0.0000000000e+00 -0.0000000000e+00 -4.5593999997e+01 4.5594000000e+01 5.1100000000e-04 0.0000e+00 -1.0000e+00
       23  2    1    2    0    0 +0.0000000000e+00 +2.7755575616e-16 -1.3322676296e-15 9.1188000000e+01 9.1188000000e+01 3.4620e-13 0.0000e+00
 -9990012  2    3    3    0    0 -1.8554432527e+01 +2.6432641253e-01 +2.5183468625e+00 7.2461577336e+01 7.0000009174e+01 3.2879e-04 0.0000e+00
      -11  1    4    4    0    0 -8.1216137520e+00 +7.0428644527e-01 -2.1198022468e+01 2.2711512194e+01 5.1100000000e-04 0.0000e+00 1.0000e+00
       11  1    4    4    0    0 -2.2767387008e+01 -1.2753529004e+01 +1.6574168329e+01 3.0914551094e+01 5.1100000000e-04 0.0000e+00 -1.0000e+00
      -12  1    4    4    0    0 +1.2334568233e+01 +1.2313568971e+01 +7.1422010017e+00 1.8835514048e+01 0.0000000000e+00 0.0000e+00 1.0000e+00
       12  1    3    3    0    0 +1.8554432527e+01 -2.6432641253e-01 -2.5183468625e+00 1.8726422664e+01 0.0000000000e+00 0.0000e+00 -1.0000e+00
</event>
<event>
 8      4 +1.0086356e-04 9.11880000e+01 7.81616400e-03 1.18400000e-01
      -11 -1    0    0    0    0 +0.0000000000e+00 +0.0000000000e+00 +4.5593999997e+01 4.5594000000e+01 5.1100000000e-04 0.0000e+00 -1.0000e+00
       11 -1    0    0    0    0 -0.0000000000e+00 -0.0000000000e+00 -4.5593999997e+01 4.5594000000e+01 5.1100000000e-04 0.0000e+00 1.0000e+00
       23  2    1    2    0    0 +0.0000000000e+00 -1.9984014443e-15 -1.7763568394e-15 9.1188000000e+01 9.1188000000e+01 1.3873e-13 0.0000e+00
 -9990012  2    3    3    0    0 +1.8087690314e+01 +1.8835383853e+00 -4.4684276192e+00 7.2461572067e+01 7.0000002309e+01 7.0067e-06 0.0000e+00
      -11  1    4    4    0    0 +1.7093395823e+01 -1.5150918245e+01 +3.9287417115e+00 2.3176917744e+01 5.1100000000e-04 0.0000e+00 1.0000e+00
       11  1    4    4    0    0 -8.7057626464e+00 +9.2869576378e+00 +1.6869261839e+01 2.1133146492e+01 5.1100000000e-04 0.0000e+00 -1.0000e+00
      -12  1    4    4    0    0 +9.7000571369e+00 +7.7474989922e+00 -2.5266431169e+01 2.8151507831e+01 0.0000000000e+00 0.0000e+00 1.0000e+00
       12  1    3    3    0    0 -1.8087690314e+01 -1.8835383853e+00 +4.4684276192e+00 1.8726427933e+01 0.0000000000e+00 0.0000e+00 -1.0000e+00
</event>
<event>
 8      3 +1.0086356e-04 9.11880000e+01 7.81616400e-03 1.18400000e-01
      -11 -1    0    0    0    0 +0.0000000000e+00 +0.0000000000e+00 +4.5593999997e+01 4.5594000000e+01 5.1100000000e-04 0.0000e+00 1.0000e+00
       11 -1    0    0    0    0 -0.0000000000e+00 -0.0000000000e+00 -4.5593999997e+01 4.5594000000e+01 5.1100000000e-04 0.0000e+00 -1.0000e+00
       23  2    1    2    0    0 -1.7763568394e-15 -2.6645352591e-15 +0.0000000000e+00 9.1188000000e+01 9.1188000000e+01 7.3623e-15 0.0000e+00
  9990012  2    3    3    0    0 -1.3958162155e+01 -4.9788777372e+00 +1.1448141447e+01 7.2461562623e+01 6.9999990007e+01 2.5512e-05 0.0000e+00
      -11  1    4    4    0    0 -8.6000895809e+00 -2.3289386106e+01 -4.9653648946e+00 2.5318212710e+01 5.1100000000e-04 0.0000e+00 1.0000e+00
       11  1    4    4    0    0 +5.6155772413e+00 +2.7259279973e+01 +1.7606798559e+01 3.2933302419e+01 5.1100000000e-04 0.0000e+00 -1.0000e+00
       12  1    4    4    0    0 -1.0973649815e+01 -8.9487716040e+00 -1.1932922183e+00 1.4210047495e+01 0.0000000000e+00 0.0000e+00 -1.0000e+00
      -12  1    3    3    0    0 +1.3958162155e+01 +4.9788777372e+00 -1.1448141447e+01 1.8726437377e+01 0.0000000000e+00 0.0000e+00 1.0000e+00
</event>
<event>
 9      4 +1.0086356e-04 9.11880000e+01 7.81616400e-03 1.18400000e-01
      -11 -1    0    0    0    0 +0.0000000000e+00 +0.0000000000e+00 +4.5593999997e+01 4.5594000000e+01 5.1100000000e-04 0.0000e+00 -1.0000e+00
       11 -1    0    0    0    0 -0.0000000000e+00 -0.0000000000e+00 -4.5593999997e+01 4.5594000000e+01 5.1100000000e-04 0.0000e+00 1.0000e+00
       23  2    1    2    0    0 +1.7763568394e-15 -1.7763568394e-15 +1.7763568394e-15 9.1188000000e+01 9.1188000000e+01 1.1038e-13 0.0000e+00
 -9990012  2    3    3    0    0 +8.0646283340e+00 +1.3916280295e+01 -9.5905232941e+00 7.2461568827e+01 6.9999998089e+01 1.5777e-04 0.0000e+00
      -24  2    4    4    0    0 -4.4340938612e+00 +7.6978812426e+00 -7.7358314373e+00 5.8378727302e+01 5.7177916623e+01 8.3317e-14 0.0000e+00
      -11  1    4    4    0    0 +1.2498722195e+01 +6.2183990522e+00 -1.8546918568e+00 1.4082841525e+01 5.1100000000e-04 0.0000e+00 1.0000e+00
       11  1    5    5    0    0 -1.7455283734e+01 +6.7139726352e+00 -2.8358089175e+01 3.3969774517e+01 5.1100000000e-04 0.0000e+00 -1.0000e+00
      -12  1    5    5    0    0 +1.3021189873e+01 +9.8390860744e-01 +2.0622257738e+01 2.4408952785e+01 0.0000000000e+00 0.0000e+00 1.0000e+00
       12  1    3    3    0    0 -8.0646283340e+00 -1.3916280295e+01 +9.5905232941e+00 1.8726431173e+01 0.0000000000e+00 0.0000e+00 -1.0000e+00
</event>
<event>
 9      2 +1.0086356e-04 9.11880000e+01 7.81616400e-03 1.18400000e-01
      -11 -1    0    0    0    0 +0.0000000000e+00 +0.0000000000e+00 +4.5593999997e+01 4.5594000000e+01 5.1100000000e-04 0.0000e+00 1.0000e+00
       11 -1    0    0    0    0 -0.0000000000e+00 -0.0000000000e+00 -4.5593999997e+01 4.5594000000e+01 5.1100000000e-04 0.0000e+00 -1.0000e+00
       23  2    1    2    0    0 -1.7763568394e-15 +1.7763568394e-15 +0.0000000000e+00 9.1188000000e+01 9.1188000000e+01 7.1727e-14 0.0000e+00
 -9990012  2    3    3    0    0 +1.1354886055e+01 +1.3330212871e+01 +6.6371591617e+00 7.2461550944e+01 6.9999974793e+01 1.0336e-04 0.0000e+00
       23  2    4    4    0    0 +1.2931100869e+01 +1.5399787665e+01 +9.4768889066e-01 6.6205540639e+01 6.3070664078e+01 7.1773e-14 0.0000e+00
      -11  1    5    5    0    0 -1.2902683968e+01 +3.2091871713e+01 -4.7869492009e+00 3.4918223989e+01 5.1100000000e-04 0.0000e+00 1.0000e+00
       11  1    5    5    0    0 +2.5833784837e+01 -1.6692084048e+01 +5.7346380916e+00 3.1287316650e+01 5.1100000000e-04 0.0000e+00 -1.0000e+00
      -12  1    4    4    0    0 -1.5762148143e+00 -2.0695747939e+00 +5.6894702710e+00 6.2560103047e+00 0.0000000000e+00 0.0000e+00 1.0000e+00
       12  1    3    3    0    0 -1.1354886055e+01 -1.3330212871e+01 -6.6371591617e+00 1.8726449056e+01 0.0000000000e+00 0.0000e+00 -1.0000e+00
</event>
<event>
 8      4 +1.0086356e-04 9.11880000e+01 7.81616400e-03 1.18400000e-01
      -11 -1    0    0    0    0 +0.0000000000e+00 +0.0000000000e+00 +4.5593999997e+01 4.5594000000e+01 5.1100000000e-04 0.0000e+00 1.0000e+00
       11 -1    0    0    0    0 -0.0000000000e+00 -0.0000000000e+00 -4.5593999997e+01 4.5594000000e+01 5.1100000000e-04 0.0000e+00 -1.0000e+00
       23  2    1    2    0    0 -2.4980018054e-16 -1.7763568394e-15 +0.0000000000e+00 9.1188000000e+01 9.1188000000e+01 1.3542e-13 0.0000e+00
 -9990012  2    3    3    0    0 -1.1774728148e-01 +1.0253910093e+01 +1.5669174611e+01 7.2461559612e+01 6.9999986084e+01 2.3533e-04 0.0000e+00
      -11  1    4    4    0    0 -2.2686530637e+01 -1.9337207668e+01 +1.3941028817e+01 3.2908335684e+01 5.1100000000e-04 0.0000e+00 1.0000e+00
       11  1    4    4    0    0 +1.1085135309e+01 +5.6332932194e+00 +3.5258063106e+00 1.2924609383e+01 5.1100000000e-04 0.0000e+00 -1.0000e+00
      -12  1    4    4    0    0 +1.1483648047e+01 +2.3957824542e+01 -1.7976605165e+00 2.6628614544e+01 0.0000000000e+00 0.0000e+00 1.0000e+00
       12  1    3    3    0    0 +1.1774728148e-01 -1.0253910093e+01 -1.5669174611e+01 1.8726440388e+01 0.0000000000e+00 0.0000e+00 -1.0000e+00
</event>
<event>
 9      3 +1.0086356e-04 9.11880000e+01 7.81616400e-03 1.18400000e-01
      -11 -1    0    0    0    0 +0.0000000000e+00 +0.0000000000e+00 +4.5593999997e+01 4.5594000000e+01 5.1100000000e-04 0.0000e+00 -1.0000e+00
       11 -1    0    0    0    0 -0.0000000000e+00 -0.0000000000e+00 -4.5593999997e+01 4.5594000000e+01 5.1100000000e-04 0.0000e+00 1.0000e+00
       23  2    1    2    0    0 -4.4408920985e-16 -4.4408920985e-16 +0.0000000000e+00 9.1188000000e+01 9.1188000000e+01 2.6010e-14 0.0000e+00
  9990012  2    3    3    0    0 +3.0269866164e+00 -3.6058421596e+00 +1.8124930893e+01 7.2461605111e+01 7.0000045356e+01 4.4179e-06 0.0000e+00
       24  2    4    4    0    0 +5.9954954742e+00 -2.6945725514e+00 +1.9865733112e+01 6.8901710483e+01 6.5647480288e+01 1.1833e-14 0.0000e+00
      -11  1    5    5    0    0 -1.5396199890e+01 -3.9430530622e+00 -1.8847386988e+01 2.4653896954e+01 5.1100000000e-04 0.0000e+00 1.0000e+00
       11  1    4    4    0    0 -2.9685088578e+00 -9.1126960825e-01 -1.7408022195e+00 3.5598946286e+00 5.1100000000e-04 0.0000e+00 -1.0000e+00
       12  1    5    5    0    0 +2.1391695364e+01 +1.2484805108e+00 +3.8713120100e+01 4.4247813528e+01 0.0000000000e+00 0.0000e+00 -1.0000e+00
      -12  1    3    3    0    0 -3.0269866164e+00 +3.6058421596e+00 -1.8124930893e+01 1.8726394889e+01 0.0000000000e+00 0.0000e+00 1.0000e+00
</event>
<event>
 8      4 +1.0086356e-04 9.11880000e+01 7.81616400e-03 1.18400000e-01
      -11 -1    0    0    0    0 +0.0000000000e+00 +0.0000000000e+00 +4.5593999997e+01 4.5594000000e+01 5.1100000000e-04 0.0000e+00 1.0000e+00
       11 -1    0    0    0    0 -0.0000000000e+00 -0.0000000000e+00 -4.5593999997e+01 4.5594000000e+01 5.1100000000e-04 0.0000e+00 -1.0000e+00
       23  2    1    2    0    0 -8.8817841970e-16 +1.5543122345e-15 -3.5527136788e-15 9.1188000000e+01 9.1188000000e+01 4.8116e-14 0.0000e+00
 -9990012  2    3    3    0    0 +5.7548217409e+00 +2.7834973961e-01 +1.7818080268e+01 7.2461563171e+01 6.9999990721e+01 6.1291e-04 0.0000e+00
      -11  1    4    4    0    0 +1.6748224460e+01 -1.1615387582e+01 +3.4848993286e+01 4.0371680477e+01 5.1100000000e-04 0.0000e+00 1.0000e+00
       11  1    4    4    0    0 +5.0006429665e+00 -5.7739626371e-01 +7.8486510226e-01 5.0946864490e+00 5.1100000000e-04 0.0000e+00 -1.0000e+00
      -12  1    4    4    0    0 -1.5994045686e+01 +1.2471133585e+01 -1.7815778120e+01 2.6995196245e+01 0.0000000000e+00 0.0000e+00 1.0000e+00
       12  1    3    3    0    0 -5.7548217409e+00 -2.7834973961e-01 -1.7818080268e+01 1.8726436829e+01 0.0000000000e+00 0.0000e+00 -1.0000e+00
</event>
<event>
 8      3 +1.0086356e-04 9.11880000e+01 7.81616400e-03 1.18400000e-01
      -11 -1    0    0    0    0 +0.0000000000e+00 +0.0000000000e+00 +4.5593999997e+01 4.5594000000e+01 5.1100000000e-04 0.0000e+00 -1.0000e+00
       11 -1    0    0    0    0 -0.0000000000e+00 -0.0000000000e+00 -4.5593999997e+01 4.5594000000e+01 5.1100000000e-04 0.0000e+00 1.0000e+00
       23  2    1    2    0    0 +1.7763568394e-15 +2.2204460493e-15 +3.5527136788e-15 9.1188000000e+01 9.1188000000e+01 5.4778e-14 0.0000e+00
  9990012  2    3    3    0    0 +1.3314529343e+01 +2.5800899873e+00 -1.2912996763e+01 7.2461573716e+01 7.0000004458e+01 5.3549e-04 0.0000e+00
      -11  1    4    4    0    0 -2.8773512082e+00 +1.9337960545e+01 -1.9910144839e+00 1.9651972088e+01 5.1100000000e-04 0.0000e+00 1.0000e+00
       11  1    4    4    0    0 -1.3928606388e+01 -8.2710724537e+00 +5.9503943576e+00 1.7257575401e+01 5.1100000000e-04 0.0000e+00 -1.0000e+00
       12  1    4    4    0    0 +3.0120486939e+01 -8.4867981043e+00 -1.6872376636e+01 3.5552026227e+01 0.0000000000e+00 0.0000e+00 -1.0000e+00
      -12  1    3    3    0    0 -1.3314529343e+01 -2.5800899873e+00 +1.2912996763e+01 1.8726426284e+01 0.0000000000e+00 0.0000e+00 1.0000e+00
</event>
<event>
 9      3 +1.0086356e-04 9.11880000e+01 7.81616400e-03 1.18400000e-01
      -11 -1    0    0    0    0 +0.0000000000e+00 +0.0000000000e+00 +4.5593999997e+01 4.5594000000e+01 5.1100000000e-04 0.0000e+00 1.0000e+00
       11 -1    0    0    0    0 -0.0000000000e+00 -0.0000000000e+00 -4.5593999997e+01 4.5594000000e+01 5.1100000000e-04 0.0000e+00 -1.0000e+00
       23  2    1    2    0    0 +0.0000000000e+00 +8.8817841970e-16 +1.1102230246e-16 9.1188000000e+01 9.1188000000e+01 2.7532e-14 0.0000e+00
  9990012  2    3    3    0    0 +1.8456781271e+01 +3.1599792766e+00 -2.0772107260e-01 7.2461510955e+01 6.9999922700e+01 3.1340e-04 0.0000e+00
       24  2    4    4    0    0 +2.1418176849e+01 +6.2183114806e+00 -3.9384268664e+00 6.6800996348e+01 6.2844699138e+01 1.1150e-14 0.0000e+00
      -11  1    5    5    0    0 -1.7723219245e+01 +1.2090595417e+01 -1.4428610483e+01 2.5854976284e+01 5.1100000000e-04 0.0000e+00 1.0000e+00
       11  1    4    4    0    0 -2.9613955779e+00 -3.0583322040e+00 +3.7307057938e+00 5.6605146074e+00 5.1100000000e-04 0.0000e+00 -1.0000e+00
       12  1    5    5    0    0 +3.9141396093e+01 -5.8722839367e+00 +1.0490183616e+01 4.0946020064e+01 0.0000000000e+00 0.0000e+00 -1.0000e+00
      -12  1    3    3    0    0 -1.8456781271e+01 -3.1599792766e+00 +2.0772107260e-01 1.8726489045e+01 0.0000000000e+00 0.0000e+00 1.0000e+00
</event>
<event>
 9      3 +1.0086356e-04 9.11880000e+01 7.81616400e-03 1.18400000e-01
      -11 -1    0    0    0    0 +0.0000000000e+00 +0.0000000000e+00 +4.5593999997e+01 4.5594000000e+01 5.1100000000e-04 0.0000e+00 -1.0000e+00
       11 -1    0    0    0    0 -0.0000000000e+00 -0.0000000000e+00 -4.5593999997e+01 4.5594000000e+01 5.1100000000e-04 0.0000e+00 1.0000e+00
       23  2    1    2    0    0 +8.8817841970e-16 -3.5527136788e-15 -4.4408920985e-16 9.1188000000e+01 9.1188000000e+01 5.9149e-14 0.0000e+00
  9990012  2    3    3    0    0 +2.1833828794e+00 -1.8461147363e+01 -2.2580939241e+00 7.2461545158e+01 6.9999967256e+01 6.0093e-04 0.0000e+00
       24  2    4    4    0    0 +1.8474103565e+01 -1.2619281511e+01 -1.7225390285e+00 5.5146759673e+01 5.0375184301e+01 2.2090e-13 0.0000e+00
      -11  1    5    5    0    0 +7.6559834736e+00 +8.5994282422e+00 -2.1368091886e+01 2.4272610082e+01 5.1100000000e-04 0.0000e+00 1.0000e+00
       11  1    4    4    0    0 -1.6290720685e+01 -5.8418658519e+00 -5.3555489560e-01 1.7314785485e+01 5.1100000000e-04 0.0000e+00 -1.0000e+00
       12  1    5    5    0    0 +1.0818120091e+01 -2.1218709754e+01 +1.9645552858e+01 3.0874149592e+01 0.0000000000e+00 0.0000e+00 -1.0000e+00
      -12  1    3    3    0    0 -2.1833828794e+00 +1.8461147363e+01 +2.2580939241e+00 1.8726454842e+01 0.0000000000e+00 0.0000e+00 1.0000e+00
</event>
<event>
 8      4 +1.0086356e-04 9.11880000e+01 7.81616400e-03 1.18400000e-01
      -11 -1    0    0    0    0 +0.0000000000e+00 +0.0000000000e+00 +4.5593999997e+01 4.5594000000e+01 5.1100000000e-04 0.0000e+00 -1.0000e+00
       11 -1    0    0    0    0 -0.0000000000e+00 -0.0000000000e+00 -4.5593999997e+01 4.5594000000e+01 5.1100000000e-04 0.0000e+00 1.0000e+00
       23  2    1    2    0    0 +3.5527136788e-15 +0.0000000000e+00 -1.7763568394e-15 9.1188000000e+01 9.1188000000e+01 5.5217e-14 0.0000e+00
 -9990012  2    3    3    0    0 +1.7522013677e+01 -6.2772349754e+00 -2.0625392471e+00 7.2461582553e+01 7.0000015970e+01 6.0389e-04 0.0000e+00
      -11  1    4    4    0    0 +2.0202842884e+01 +4.8227294069e+00 -2.0799719365e+01 2.9394589731e+01 5.1100000000e-04 0.0000e+00 1.0000e+00
       11  1    4    4    0    0 +2.4271499482e+00 -1.0205466255e+01 -9.6237645564e+00 1.4235850619e+01 5.1100000000e-04 0.0000e+00 -1.0000e+00
      -12  1    4    4    0    0 -5.1079791552e+00 -8.9449812784e-01 +2.8360944674e+01 2.8831142204e+01 0.0000000000e+00 0.0000e+00 1.0000e+00
       12  1    3    3    0    0 -1.7522013677e+01 +6.2772349754e+00 +2.0625392471e+00 1.8726417447e+01 0.0000000000e+00 0.0000e+00 -1.0000e+00
</event>
<event>
 9      4 +1.0086356e-04 9.11880000e+01 7.81616400e-03 1.18400000e-01
      -11 -1    0    0    0    0 +0.0000000000e+00 +0.0000000000e+00 +4.5593999997e+01 4.5594000000e+01 5.1100000000e-04 0.0000e+00 1.0000e+00
       11 -1    0    0    0    0 -0.0000000000e+00 -0.0000000000e+00 -4.5593999997e+01 4.5594000000e+01 5.1100000000e-04 0.0000e+00 -1.0000e+00
       23  2    1    2    0    0 -8.8817841970e-16 +0.0000000000e+00 +3.5527136788e-15 9.1188000000e+01 9.1188000000e+01 6.0283e-14 0.0000e+00
 -9990012  2    3    3    0    0 -4.6546146857e+00 +3.5460748264e+00 +1.7788693494e+01 7.2461609510e+01 7.0000051086e+01 3.0610e-05 0.0000e+00
      -24  2    4    4    0    0 -1.7901128440e+00 +1.7609271251e+00 +2.0090842651e+01 6.8376023369e+01 6.5309518793e+01 4.1448e-14 0.0000e+00
      -11  1    4    4    0    0 -2.8645018417e+00 +1.7851477014e+00 -2.3021491567e+00 4.0855861413e+00 5.1100000000e-04 0.0000e+00 1.0000e+00
       11  1    5    5    0    0 +2.4133504149e+01 +8.4957834334e-01 -1.2119766259e+01 2.7019188373e+01 5.1100000000e-04 0.0000e+00 -1.0000e+00
      -12  1    5    5    0    0 -2.5923616993e+01 +9.1134878174e-01 +3.2210608909e+01 4.1356834997e+01 0.0000000000e+00 0.0000e+00 1.0000e+00
       12  1    3    3    0    0 +4.6546146857e+00 -3.5460748264e+00 -1.7788693494e+01 1.8726390490e+01 0.0000000000e+00 0.0000e+00 -1.0000e+00
</event>
<event>
 9      4 +1.0086356e-04 9.11880000e+01 7.81616400e-03 1.18400000e-01
      -11 -1    0    0    0    0 +0.0000000000e+00 +0.0000000000e+00 +4.5593999997e+01 4.5594000000e+01 5.1100000000e-04 0.0000e+00 -1.0000e+00
       11 -1    0    0    0    0 -0.0000000000e+00 -0.0000000000e+00 -4.5593999997e+01 4.5594000000e+01 5.1100000000e-04 0.0000e+00 1.0000e+00
       23  2    1    2    0    0 +0.0000000000e+00 -2.4424906542e-15 +0.0000000000e+00 9.1188000000e+01 9.1188000000e+01 4.8221e-14 0.0000e+00
 -9990012  2    3    3    0    0 +5.1007963090e+00 -1.8756920832e+00 -1.7920460439e+01 7.2461568249e+01 6.9999997336e+01 1.6261e-04 0.0000e+00
      -24  2    4    4    0    0 +1.1287443748e+01 -9.9263568699e+00 -1.6291711285e+01 6.2178541744e+01 5.8093134274e+01 1.1019e-13 0.0000e+00
      -11  1    4    4    0    0 -6.1866474387e+00 +8.0506647866e+00 -1.6287491540e+00 1.0283026505e+01 5.1100000000e-04 0.0000e+00 1.0000e+00
       11  1    5    5    0    0 +1.9200941592e+01 +1.2246872864e+01 -2.7829501651e+01 3.5960300546e+01 5.1100000000e-04 0.0000e+00 -1.0000e+00
      -12  1    5    5    0    0 -7.9134978443e+00 -2.2173229734e+01 +1.1537790367e+01 2.6218241198e+01 0.0000000000e+00 0.0000e+00 1.0000e+00
       12  1    3    3    0    0 -5.1007963090e+00 +1.8756920832e+00 +1.7920460439e+01 1.8726431751e+01 0.0000000000e+00 0.0000e+00 -1.0000e+00
</event>
<event>
 8      3 +1.0086356e-04 9.11880000e+01 7.81616400e-03 1.18400000e-01
      -11 -1    0    0    0    0 +0.0000000000e+00 +0.0000000000e+00 +4.5593999997e+01 4.5594000000e+01 5.1100000000e-04 0.0000e+00 -1.0000e+00
       11 -1    0    0    0    0 -0.0000000000e+00 -0.0000000000e+00 -4.5593999997e+01 4.5594000000e+01 5.1100000000e-04 0.0000e+00 1.0000e+00
       23  2    1    2    0    0 +0.0000000000e+00 +1.7763568394e-15 +0.0000000000e+00 9.1188000000e+01 9.1188000000e+01 2.0053e-13 0.0000e+00
  9990012  2    3    3    0    0 +1.1504633600e+01 -6.0924900690e+00 +1.3461243404e+01 7.2461545357e+01 6.9999967514e+01 2.5678e-04 0.0000e+00
      -11  1    4    4    0    0 -5.3317843745e+00 -1.7424944071e+01 -5.4709832013e+00 1.9025989013e+01 5.1100000000e-04 0.0000e+00 1.0000e+00
       11  1    4    4    0    0 +1.2235924938e+01 +2.6004905287e+01 +2.3791091395e+01 3.7309368637e+01 5.1100000000e-04 0.0000e+00 -1.0000e+00
       12  1    4    4    0    0 +4.6004930369e+00 -1.4672451285e+01 -4.8588647896e+00 1.6126187706e+01 0.0000000000e+00 0.0000e+00 -1.0000e+00
      -12  1    3    3    0    0 -1.1504633600e+01 +6.0924900690e+00 -1.3461243404e+01 1.8726454643e+01 0.0000000000e+00 0.0000e+00 1.0000e+00
</event>
<event>
 8      4 +1.0086356e-04 9.11880000e+01 7.81616400e-03 1.18400000e-01
      -11 -1    0    0    0    0 +0.0000000000e+00 +0.0000000000e+00 +4.5593999997e+01 4.5594000000e+01 5.1100000000e-04 0.0000e+00 -1.0000e+00
       11 -1    0    0    0    0 -0.0000000000e+00 -0.0000000000e+00 -4.5593999997e+01 4.5594000000e+01 5.1100000000e-04 0.0000e+00 1.0000e+00
       23  2    1    2    0    0 +8.8817841970e-16 +0.0000000000e+00 +0.0000000000e+00 9.1188000000e+01 9.1188000000e+01 8.7823e-15 0.0000e+00
 -9990012  2    3    3    0    0 -7.2603588640e+00 -1.4465521533e+01 -9.4188862342e+00 7.2461560350e+01 6.9999987046e+01 1.9305e-05 0.0000e+00
      -11  1    4    4    0    0 -2.0799495024e+01 -8.8622818489e+00 -4.2800017159e+00 2.3010376958e+01 5.1100000000e-04 0.0000e+00 1.0000e+00
       11  1    4    4    0    0 -6.0546540872e-01 -1.7613307628e+01 +1.4212878828e+01 2.2640696076e+01 5.1100000000e-04 0.0000e+00 -1.0000e+00
      -12  1    4    4    0    0 +1.4144601568e+01 +1.2010067943e+01 -1.9351763346e+01 2.6810487316e+01 0.0000000000e+00 0.0000e+00 1.0000e+00
       12  1    3    3    0    0 +7.2603588640e+00 +1.4465521533e+01 +9.4188862342e+00 1.8726439650e+01 0.0000000000e+00 0.0000e+00 -1.0000e+00
</event>
<event>
 9      3 +1.0086356e-04 9.11880000e+01 7.81616400e-03 1.18400000e-01
      -11 -1    0    0    0    0 +0.0000000000e+00 +0.0000000000e+00 +4.5593999997e+01 4.5594000000e+01 5.1100000000e-04 0.0000e+00 1.0000e+00
       11 -1    0    0    0    0 -0.0000000000e+00 -0.0000000000e+00 -4.5593999997e+01 4.5594000000e+01 5.1100000000e-04 0.0000e+00 -1.0000e+00
       23  2    1    2    0    0 +0.0000000000e+00 +0.0000000000e+00 +0.0000000000e+00 9.1188000000e+01 9.1188000000e+01 1.0172e-14 0.0000e+00
  9990012  2    3    3    0    0 -3.0845529481e+00 +1.8359848697e+01 +2.0199899846e+00 7.2461578275e+01 7.0000010397e+01 6.9144e-04 0.0000e+00
       24  2    4    4    0    0 -1.2248181810e+00 +6.9701604692e+00 -2.5743013703e+00 6.0040180421e+01 5.9566038318e+01 1.3231e-13 0.0000e+00
      -11  1    5    5    0    0 +2.5672731502e+00 +2.3589426083e+01 +2.0496228125e+01 3.1355179508e+01 5.1100000000e-04 0.0000e+00 1.0000e+00
       11  1    4    4    0    0 -1.8597347671e+00 +1.1389688228e+01 +4.5942913548e+00 1.2421397854e+01 5.1100000000e-04 0.0000e+00 -1.0000e+00
       12  1    5    5    0    0 -3.7920913312e+00 -1.6619265614e+01 -2.3070529495e+01 2.8685000913e+01 0.0000000000e+00 0.0000e+00 -1.0000e+00
      -12  1    3    3    0    0 +3.0845529481e+00 -1.8359848697e+01 -2.0199899846e+00 1.8726421725e+01 0.0000000000e+00 0.0000e+00 1.0000e+00
</event>
<event>
 9      4 +1.0086356e-04 9.11880000e+01 7.81616400e-03 1.18400000e-01
      -11 -1    0    0    0    0 +0.0000000000e+00 +0.0000000000e+00 +4.5593999997e+01 4.5594000000e+01 5.1100000000e-04 0.0000e+00 1.0000e+00
       11 -1    0    0    0    0 -0.0000000000e+00 -0.0000000000e+00 -4.5593999997e+01 4.5594000000e+01 5.1100000000e-04 0.0000e+00 -1.0000e+00
       23  2    1    2    0    0 +0.0000000000e+00 +0.0000000000e+00 +8.8817841970e-16 9.1188000000e+01 9.1188000000e+01 4.2700e-14 0.0000e+00
 -9990012  2    3    3    0    0 -1.6247501951e+01 -5.3382604443e+00 +7.6294684396e+00 7.2461357672e+01 6.9999723019e+01 4.9431e-05 0.0000e+00
      -24  2    4    4    0    0 -5.9596098239e+00 -4.2829130726e+00 +4.9882700969e+00 6.1787538700e+01 6.1147009792e+01 1.1528e-13 0.0000e+00
      -11  1    4    4    0    0 -1.0287892127e+01 -1.0553473717e+00 +2.6411983427e+00 1.0673818971e+01 5.1100000000e-04 0.0000e+00 1.0000e+00
       11  1    5    5    0    0 -1.1892051613e+01 +2.6233605571e+01 +9.5970828109e+00 3.0359956383e+01 5.1100000000e-04 0.0000e+00 -1.0000e+00
      -12  1    5    5    0    0 +5.9324417894e+00 -3.0516518643e+01 -4.6088127139e+00 3.1427582318e+01 0.0000000000e+00 0.0000e+00 1.0000e+00
       12  1    3    3    0    0 +1.6247501951e+01 +5.3382604443e+00 -7.6294684396e+00 1.8726642328e+01 0.0000000000e+00 0.0000e+00 -1.0000e+00
</event>
<event>
 9      4 +1.0086356e-04 9.11880000e+01 7.81616400e-03 1.18400000e-01
      -11 -1    0    0    0    0 +0.0000000000e+00 +0.0000000000e+00 +4.5593999997e+01 4.5594000000e+01 5.1100000000e-04 0.0000e+00 -1.0000e+00
       11 -1    0    0    0    0 -0.0000000000e+00 -0.0000000000e+00 -4.5593999997e+01 4.5594000000e+01 5.1100000000e-04 0.0000e+00 1.0000e+00
       23  2    1    2    0    0 +8.8817841970e-16 +0.0000000000e+00 +1.3322676296e-15 9.1188000000e+01 9.1188000000e+01 4.0610e-14 0.0000e+00
 -9990012  2    3    3    0    0 +7.6797342551e+00 -1.6739764949e+01 +3.3884289525e+00 7.2461561483e+01 6.9999988522e+01 4.3893e-05 0.0000e+00
      -24  2    4    4    0    0 +1.1192088905e+01 -1.2134301553e+01 -5.7258436245e+00 6.1662631298e+01 5.9135359009e+01 5.7896e-14 0.0000e+00
      -11  1    4    4    0    0 -3.5123546499e+00 -4.6054633952e+00 +9.1142725770e+00 1.0798930185e+01 5.1100000000e-04 0.0000e+00 1.0000e+00
       11  1    5    5    0    0 -6.0118323452e-01 -7.1909621282e+00 +2.6250479117e+01 2.7224235742e+01 5.1100000000e-04 0.0000e+00 -1.0000e+00
      -12  1    5    5    0    0 +1.1793272140e+01 -4.9433394251e+00 -3.1976322741e+01 3.4438395556e+01 0.0000000000e+00 0.0000e+00 1.0000e+00
       12  1    3    3    0    0 -7.6797342551e+00 +1.6739764949e+01 -3.3884289525e+00 1.8726438517e+01 0.0000000000e+00 0.0000e+00 -1.0000e+00
</event>
<event>
 8      4 +1.0086356e-04 9.11880000e+01 7.81616400e-03 1.18400000e-01
      -11 -1    0    0    0    0 +0.0000000000e+00 +0.0000000000e+00 +4.5593999997e+01 4.5594000000e+01 5.1100000000e-04 0.0000e+00 1.0000e+00
       11 -1    0    0    0    0 -0.0000000000e+00 -0.0000000000e+00 -4.5593999997e+01 4.5594000000e+01 5.1100000000e-04 0.0000e+00 -1.0000e+00
       23  2    1    2    0    0 +1.7763568394e-15 +5.3290705182e-15 +0.0000000000e+00 9.1188000000e+01 9.1188000000e+01 2.8156e-13 0.0000e+00
 -9990012  2    3    3    0    0 +1.4596060274e+01 +8.3429365623e+00 +8.2479404911e+00 7.2461599162e+01 7.0000037605e+01 1.8004e-04 0.0000e+00
      -11  1    4    4    0    0 +1.3641665888e+01 -1.6812092534e+01 +7.8334875024e+00 2.3024009866e+01 5.1100000000e-04 0.0000e+00 1.0000e+00
       11  1    4    4    0    0 -1.4540884372e+01 +2.6438983105e+00 -1.2363963593e+01 1.9269019502e+01 5.1100000000e-04 0.0000e+00 -1.0000e+00
      -12  1    4    4    0    0 +1.5495278758e+01 +2.2511130786e+01 +1.2778416582e+01 3.0168569794e+01 0.0000000000e+00 0.0000e+00 1.0000e+00
       12  1    3    3    0    0 -1.4596060274e+01 -8.3429365623e+00 -8.2479404911e+00 1.8726400838e+01 0.0000000000e+00 0.0000e+00 -1.0000e+00
</event>
<event>
 8      4 +1.0086356e-04 9.11880000e+01 7.81616400e-03 1.18400000e-01
      -11 -1    0    0    0    0 +0.0000000000e+00 +0.0000000000e+00 +4.5593999997e+01 4.5594000000e+01 5.1100000000e-04 0.0000e+00 -1.0000e+00
       11 -1    0    0    0    0 -0.0000000000e+00 -0.0000000000e+00 -4.5593999997e+01 4.5594000000e+01 5.1100000000e-04 0.0000e+00 1.0000e+00
       23  2    1    2    0    0 -1.7763568394e-15 +6.6613381478e-16 +0.0000000000e+00 9.1188000000e+01 9.1188000000e+01 1.7710e-13 0.0000e+00
 -9990012  2    3    3    0    0 -1.0323102191e+00 -1.0044403236e+00 -1.8670879809e+01 7.2461646442e+01 7.0000099196e+01 3.7042e-04 0.0000e+00
      -11  1    4    4    0    0 -9.5461458106e+00 -1.8351393752e+01 -1.3169232928e+01 2.4522056371e+01 5.1100000000e-04 0.0000e+00 -1.0000e+00
       11  1    4    4    0    0 +2.1422667875e+01 +1.1382016489e+01 -1.7024799292e+01 2.9636544830e+01 5.1100000000e-04 0.0000e+00 1.0000e+00
      -12  1    4    4    0    0 -1.2908832284e+01 +5.9649369392e+00 +1.1523152411e+01 1.8303045241e+01 0.0000000000e+00 0.0000e+00 1.0000e+00
       12  1    3    3    0    0 +1.0323102191e+00 +1.0044403236e+00 +1.8670879809e+01 1.8726353558e+01 0.0000000000e+00 0.0000e+00 -1.0000e+00
</event>
<event>
 9      3 +1.0086356e-04 9.11880000e+01 7.81616400e-03 1.18400000e-01
      -11 -1    0    0    0    0 +0.0000000000e+00 +0.0000000000e+00 +4.5593999997e+01 4.5594000000e+01 5.1100000000e-04 0.0000e+00 1.0000e+00
       11 -1    0    0    0    0 -0.0000000000e+00 -0.0000000000e+00 -4.5593999997e+01 4.5594000000e+01 5.1100000000e-04 0.0000e+00 -1.0000e+00
       23  2    1    2    0    0 +0.0000000000e+00 +0.0000000000e+00 -1.7763568394e-15 9.1188000000e+01 9.1188000000e+01 8.7871e-14 0.0000e+00
  9990012  2    3    3    0    0 +1.0714972635e+01 -1.3596947785e+01 +7.1409130905e+00 7.2461540981e+01 6.9999961814e+01 3.2941e-04 0.0000e+00
       24  2    4    4    0    0 +2.5272162494e+01 -1.0301161844e+01 +2.4282805310e-01 5.6018987681e+01 4.8921078104e+01 1.5936e-13 0.0000e+00
      -11  1    5    5    0    0 +1.0236151436e+01 -3.4725409275e+00 +2.4440046711e+01 2.6723645339e+01 5.1100000000e-04 0.0000e+00 1.0000e+00
       11  1    4    4    0    0 -1.4557189860e+01 -3.2957859410e+00 +6.8980850374e+00 1.6442553300e+01 5.1100000000e-04 0.0000e+00 -1.0000e+00
       12  1    5    5    0    0 +1.5036011059e+01 -6.8286209166e+00 -2.4197218658e+01 2.9295342342e+01 0.0000000000e+00 0.0000e+00 -1.0000e+00
      -12  1    3    3    0    0 -1.0714972635e+01 +1.3596947785e+01 -7.1409130905e+00 1.8726459019e+01 0.0000000000e+00 0.0000e+00 1.0000e+00
</event>
<event>
 8      4 +1.0086356e-04 9.11880000e+01 7.81616400e-03 1.18400000e-01
      -11 -1    0    0    0    0 +0.0000000000e+00 +0.0000000000e+00 +4.5593999997e+01 4.5594000000e+01 5.1100000000e-04 0.0000e+00 1.0000e+00
       11 -1    0    0    0    0 -0.0000000000e+00 -0.0000000000e+00 -4.5593999997e+01 4.5594000000e+01 5.1100000000e-04 0.0000e+00 -1.0000e+00
       23  2    1    2    0    0 +2.0816681712e-17 +1.7763568394e-15 +1.7763568394e-15 9.1188000000e+01 9.1188000000e+01 3.7906e-14 0.0000e+00
 -9990012  2    3    3    0    0 -5.3456825826e-02 +1.2173760711e+01 +1.4229425946e+01 7.2461551585e+01 6.9999975628e+01 1.0445e-04 0.0000e+00
      -11  1    4    4    0    0 +9.3319610277e-01 -1.5455234199e+01 -1.1527558543e+00 1.5526234748e+01 5.1100000000e-04 0.0000e+00 1.0000e+00
       11  1    4    4    0    0 -2.1681394554e+00 -1.3438677399e+01 +2.2097358772e+00 1.3790642184e+01 5.1100000000e-04 0.0000e+00 -1.0000e+00
      -12  1    4    4    0    0 +1.1814865268e+00 +4.1067672310e+01 +1.3172445923e+01 4.3144674653e+01 0.0000000000e+00 0.0000e+00 1.0000e+00
       12  1    3    3    0    0 +5.3456825826e-02 -1.2173760711e+01 -1.4229425946e+01 1.8726448415e+01 0.0000000000e+00 0.0000e+00 -1.0000e+00
</event>
<event>
 8      3 +1.0086356e-04 9.11880000e+01 7.81616400e-03 1.18400000e-01
      -11 -1    0    0    0    0 +0.0000000000e+00 +0.0000000000e+00 +4.5593999997e+01 4.5594000000e+01 5.1100000000e-04 0.0000e+00 1.0000e+00
       11 -1    0    0    0    0 -0.0000000000e+00 -0.0000000000e+00 -4.5593999997e+01 4.5594000000e+01 5.1100000000e-04 0.0000e+00 -1.0000e+00
       23  2    1    2    0    0 -4.4408920985e-15 +0.0000000000e+00 -1.7763568394e-15 9.1188000000e+01 9.1188000000e+01 9.3421e-15 0.0000e+00
  9990012  2    3    3    0    0 -4.3277557975e+00 +9.5865376679e+00 +1.5493521290e+01 7.2461538063e+01 6.9999958013e+01 6.8776e-05 0.0000e+00
      -11  1    4    4    0    0 +1.8677533831e+00 +3.1025653383e+00 +9.3666521407e+00 1.0042339716e+01 5.1100000000e-04 0.0000e+00 1.0000e+00
       11  1    4    4    0    0 +2.1979098172e+01 +2.0926692384e+01 +4.8461423783e+00 3.0732593558e+01 5.1100000000e-04 0.0000e+00 -1.0000e+00
       12  1    4    4    0    0 -2.8174607353e+01 -1.4442720054e+01 +1.2807267709e+00 3.1686604790e+01 0.0000000000e+00 0.0000e+00 -1.0000e+00
      -12  1    3    3    0    0 +4.3277557975e+00 -9.5865376679e+00 -1.5493521290e+01 1.8726461937e+01 0.0000000000e+00 0.0000e+00 1.0000e+00
</event>
<event>
 9      3 +1.0086356e-04 9.11880000e+01 7.81616400e-03 1.18400000e-01
      -11 -1    0    0    0    0 +0.0000000000e+00 +0.0000000000e+00 +4.5593999997e+01 4.5594000000e+01 5.1100000000e-04 0.0000e+00 1.0000e+00
       11 -1    0    0    0    0 -0.0000000000e+00 -0.0000000000e+00 -4.5593999997e+01 4.5594000000e+01 5.1100000000e-04 0.0000e+00 -1.0000e+00
       23  2    1    2    0    0 +0.0000000000e+00 +8.8817841970e-16 +0.0000000000e+00 9.1188000000e+01 9.1188000000e+01 9.5055e-14 0.0000e+00
  9990012  2    3    3    0    0 -9.3338004942e+00 -6.5716682139e+00 -1.4844907731e+01 7.2461603114e+01 7.0000042754e+01 3.5428e-05 0.0000e+00
       24  2    4    4    0    0 +3.6304856916e+00 +3.2530606846e+00 -5.7180449186e+00 5.3809588765e+01 5.3282388978e+01 4.9920e-14 0.0000e+00
      -11  1    5    5    0    0 -1.2184146804e+01 +1.4392268555e+01 +1.5996834097e+01 2.4728314315e+01 5.1100000000e-04 0.0000e+00 1.0000e+00
       11  1    4    4    0    0 -1.2964286186e+01 -9.8247288985e+00 -9.1268628121e+00 1.8652014349e+01 5.1100000000e-04 0.0000e+00 -1.0000e+00
       12  1    5    5    0    0 +1.5814632496e+01 -1.1139207870e+01 -2.1714879016e+01 2.9081274450e+01 0.0000000000e+00 0.0000e+00 -1.0000e+00
      -12  1    3    3    0    0 +9.3338004942e+00 +6.5716682139e+00 +1.4844907731e+01 1.8726396886e+01 0.0000000000e+00 0.0000e+00 1.0000e+00
</event>
<event>
 9      3 +1.0086356e-04 9.11880000e+01 7.81616400e-03 1.18400000e-01
      -11 -1    0    0    0    0 +0.0000000000e+00 +0.0000000000e+00 +4.5593999997e+01 4.5594000000e+01 5.1100000000e-04 0.0000e+00 1.0000e+00
       11 -1    0    0    0    0 -0.0000000000e+00 -0.0000000000e+00 -4.5593999997e+01 4.5594000000e+01 5.1100000000e-04 0.0000e+00 -1.0000e+00
       23  2    1    2    0    0 +4.4408920985e-16 +0.0000000000e+00 -1.7763568394e-15 9.1188000000e+01 9.1188000000e+01 6.0665e-14 0.0000e+00
  9990012  2    3    3    0    0 -2.7353635808e+00 -1.6251777707e+01 -8.8926600625e+00 7.2461497509e+01 6.9999905184e+01 1.4142e-04 0.0000e+00
       24  2    4    4    0    0 -4.5656645928e+00 -2.4125957604e+01 -1.2165014131e+01 6.3740201031e+01 5.7549270501e+01 8.2969e-15 0.0000e+00
      -11  1    5    5    0    0 -2.6918868066e+01 -2.1890464295e+01 -1.9879681891e+01 3.9987743589e+01 5.1100000000e-04 0.0000e+00 1.0000e+00
       11  1    4    4    0    0 +1.8303010120e+00 +7.8741798969e+00 +3.2723540685e+00 8.7212964779e+00 5.1100000000e-04 0.0000e+00 -1.0000e+00
       12  1    5    5    0    0 +2.2353203474e+01 -2.2354933091e+00 +7.7146677601e+00 2.3752457442e+01 0.0000000000e+00 0.0000e+00 -1.0000e+00
      -12  1    3    3    0    0 +2.7353635808e+00 +1.6251777707e+01 +8.8926600625e+00 1.8726502491e+01 0.0000000000e+00 0.0000e+00 1.0000e+00
</event>
<event>
 9      4 +1.0086356e-04 9.11880000e+01 7.81616400e-03 1.18400000e-01
      -11 -1    0    0    0    0 +0.0000000000e+00 +0.0000000000e+00 +4.5593999997e+01 4.5594000000e+01 5.1100000000e-04 0.0000e+00 1.0000e+00
       11 -1    0    0    0    0 -0.0000000000e+00 -0.0000000000e+00 -4.5593999997e+01 4.5594000000e+01 5.1100000000e-04 0.0000e+00 -1.0000e+00
       23  2    1    2    0    0 -7.1054273576e-15 +0.0000000000e+00 +8.8817841970e-16 9.1188000000e+01 9.1188000000e+01 1.0335e-13 0.0000e+00
 -9990012  2    3    3    0    0 -1.6823223840e+01 +3.6318318845e+00 +7.3811825775e+00 7.2461203172e+01 6.9999521753e+01 1.9142e-04 0.0000e+00
       23  2    4    4    0    0 -1.8433446786e+01 +1.1167657390e+01 -2.4217521147e+00 5.9992080806e+01 5.5934571994e+01 9.3090e-14 0.0000e+00
      -11  1    5    5    0    0 +1.1904399485e+01 +1.5042331045e+01 +1.5395072069e+01 2.4596639905e+01 5.1100000000e-04 0.0000e+00 1.0000e+00
       11  1    5    5    0    0 -3.0337846271e+01 -3.8746736546e+00 -1.7816824184e+01 3.5395440901e+01 5.1100000000e-04 0.0000e+00 -1.0000e+00
      -12  1    4    4    0    0 +1.6102229460e+00 -7.5358255058e+00 +9.8029346922e+00 1.2469122366e+01 0.0000000000e+00 0.0000e+00 1.0000e+00
       12  1    3    3    0    0 +1.6823223840e+01 -3.6318318845e+00 -7.3811825775e+00 1.8726796828e+01 0.0000000000e+00 0.0000e+00 -1.0000e+00
</event>
<event>
 8      3 +1.0086356e-04 9.11880000e+01 7.81616400e-03 1.18400000e-01
      -11 -1    0    0    0    0 +0.0000000000e+00 +0.0000000000e+00 +4.5593999997e+01 4.5594000000e+01 5.1100000000e-04 0.0000e+00 -1.0000e+00
       11 -1    0    0    0    0 -0.0000000000e+00 -0.0000000000e+00 -4.5593999997e+01 4.5594000000e+01 5.1100000000e-04 0.0000e+00 1.0000e+00
       23  2    1    2    0    0 +0.0000000000e+00 +0.0000000000e+00 +5.3290705182e-15 9.1188000000e+01 9.1188000000e+01 1.4823e-15 0.0000e+00
  9990012  2    3    3    0    0 +6.7558395516e+00 -1.1149840277e+01 +1.3443186741e+01 7.2461559442e+01 6.9999985862e+01 4.2463e-04 0.0000e+00
      -11  1    4    4    0    0 -4.2764005065e+00 -6.9000430478e+00 -6.7682036310e+00 1.0569142633e+01 5.1100000000e-04 0.0000e+00 1.0000e+00
       11  1    4    4    0    0 -1.2999076864e+00 -1.0234510171e+00 -1.9815660915e+01 1.9884607860e+01 5.1100000000e-04 0.0000e+00 -1.0000e+00
       12  1    4    4    0    0 +1.2332147744e+01 -3.2263462120e+00 +4.0027051287e+01 4.2007808948e+01 0.0000000000e+00 0.0000e+00 -1.0000e+00
      -12  1    3    3    0    0 -6.7558395516e+00 +1.1149840277e+01 -1.3443186741e+01 1.8726440558e+01 0.0000000000e+00 0.0000e+00 1.0000e+00
</event>
<event>
 8      4 +1.0086356e-04 9.11880000e+01 7.81616400e-03 1.18400000e-01
      -11 -1    0    0    0    0 +0.0000000000e+00 +0.0000000000e+00 +4.5593999997e+01 4.5594000000e+01 5.1100000000e-04 0.0000e+00 -1.0000e+00
       11 -1    0    0    0    0 -0.0000000000e+00 -0.0000000000e+00 -4.5593999997e+01 4.5594000000e+01 5.1100000000e-04 0.0000e+00 1.0000e+00
       23  2    1    2    0    0 +8.6042284408e-16 -3.5527136788e-15 -2.6645352591e-15 9.1188000000e+01 9.1188000000e+01 9.1688e-14 0.0000e+00
 -9990012  2    3    3    0    0 -2.0618072239e-01 +1.7426994654e+01 +6.8508295035e+00 7.2461641090e+01 7.0000092224e+01 6.1324e-06 0.0000e+00
      -11  1    4    4    0    0 +1.9186139177e+01 -1.0750756854e+00 -6.9342742235e+00 2.0429094045e+01 5.1100000000e-04 0.0000e+00 1.0000e+00
       11  1    4    4    0    0 +1.1082108869e+01 +1.3584249932e+01 +1.1734034551e+01 2.1095794611e+01 5.1100000000e-04 0.0000e+00 -1.0000e+00
      -12  1    4    4    0    0 -3.0474428768e+01 +4.9178204076e+00 +2.0510691765e+00 3.0936752433e+01 0.0000000000e+00 0.0000e+00 1.0000e+00
       12  1    3    3    0    0 +2.0618072239e-01 -1.7426994654e+01 -6.8508295035e+00 1.8726358910e+01 0.0000000000e+00 0.0000e+00 -1.0000e+00
</event>
<event>
 8      4 +1.0086356e-04 9.11880000e+01 7.81616400e-03 1.18400000e-01
      -11 -1    0    0    0    0 +0.0000000000e+00 +0.0000000000e+00 +4.5593999997e+01 4.5594000000e+01 5.1100000000e-04 0.0000e+00 1.0000e+00
       11 -1    0    0    0    0 -0.0000000000e+00 -0.0000000000e+00 -4.5593999997e+01 4.5594000000e+01 5.1100000000e-04 0.0000e+00 -1.0000e+00
       23  2    1    2    0    0 +0.0000000000e+00 +1.3322676296e-15 +0.0000000000e+00 9.1188000000e+01 9.1188000000e+01 7.8958e-14 0.0000e+00
 -9990012  2    3    3    0    0 +1.5429158029e+01 -1.9657798570e+00 -1.0428635395e+01 7.2461557622e+01 6.9999983492e+01 1.2637e-04 0.0000e+00
      -11  1    4    4    0    0 +3.1322564373e+00 -2.8888249696e+01 -5.2202426815e-01 2.9062252330e+01 5.1100000000e-04 0.0000e+00 1.0000e+00
       11  1    4    4    0    0 +9.3699883961e+00 +8.8459840892e+00 -1.8997123409e+01 2.2955147900e+01 5.1100000000e-04 0.0000e+00 -1.0000e+00
      -12  1    4    4    0    0 +2.9269131961e+00 +1.8076485750e+01 +9.0905122820e+00 2.0444157392e+01 0.0000000000e+00 0.0000e+00 1.0000e+00
       12  1    3    3    0    0 -1.5429158029e+01 +1.9657798570e+00 +1.0428635395e+01 1.8726442378e+01 0.0000000000e+00 0.0000e+00 -1.0000e+00
</event>
<event>
 8      4 +1.0086356e-04 9.11880000e+01 7.81616400e-03 1.18400000e-01
      -11 -1    0    0    0    0 +0.0000000000e+00 +0.0000000000e+00 +4.5593999997e+01 4.5594000000e+01 5.1100000000e-04 0.0000e+00 -1.0000e+00
       11 -1    0    0    0    0 -0.0000000000e+00 -0.0000000000e+00 -4.5593999997e+01 4.5594000000e+01 5.1100000000e-04 0.0000e+00 1.0000e+00
       23  2    1    2    0    0 +0.0000000000e+00 -1.7763568394e-15 +1.7763568394e-15 9.1188000000e+01 9.1188000000e+01 1.2147e-13 0.0000e+00
 -9990012  2    3    3    0    0 -1.6896448162e+01 +4.0001787792e+00 -7.0132265032e+00 7.2461635251e+01 7.0000084618e+01 2.8062e-04 0.0000e+00
      -11  1    4    4    0    0 +1.5977909443e+01 +2.3173550887e+01 -5.2267412636e+00 2.8629108882e+01 5.1100000000e-04 0.0000e+00 1.0000e+00
       11  1    4    4    0    0 -1.2787924122e+01 -4.9983273089e+00 +9.5857531611e+00 1.6745176713e+01 5.1100000000e-04 0.0000e+00 -1.0000e+00
      -12  1    4    4    0    0 -2.0086433483e+01 -1.4175044799e+01 -1.1372238401e+01 2.7087349655e+01 0.0000000000e+00 0.0000e+00 1.0000e+00
       12  1    3    3    0    0 +1.6896448162e+01 -4.0001787792e+00 +7.0132265032e+00 1.8726364749e+01 0.0000000000e+00 0.0000e+00 -1.0000e+00
</event>
<event>
 9      4 +1.0086356e-04 9.11880000e+01 7.81616400e-03 1.18400000e-01
      -11 -1    0    0    0    0 +0.0000000000e+00 +0.0000000000e+00 +4.5593999997e+01 4.5594000000e+01 5.1100000000e-04 0.0000e+00 -1.0000e+00
       11 -1    0    0    0    0 -0.0000000000e+00 -0.0000000000e+00 -4.5593999997e+01 4.5594000000e+01 5.1100000000e-04 0.0000e+00 1.0000e+00
       23  2    1    2    0    0 +8.8817841970e-16 +3.5527136788e-15 +1.7763568394e-15 9.1188000000e+01 9.1188000000e+01 8.1565e-14 0.0000e+00
 -9990012  2    3    3    0    0 +6.6051070310e+00 +1.5082361257e+01 -8.9199189252e+00 7.2461814761e+01 7.0000318463e+01 1.0989e-04 0.0000e+00
      -24  2    4    4    0    0 +1.5962442501e+00 +1.9241104353e+01 -1.9869298384e+01 5.9723182131e+01 5.2908424406e+01 6.4585e-14 0.0000e+00
      -11  1    4    4    0    0 +5.0088627809e+00 -4.1587430966e+00 +1.0949379458e+01 1.2738632630e+01 5.1100000000e-04 0.0000e+00 1.0000e+00
       11  1    5    5    0    0 +2.0597577816e+01 -1.7546085910e+00 -2.3357839348e+01 3.1191786137e+01 5.1100000000e-04 0.0000e+00 -1.0000e+00
      -12  1    5    5    0    0 -1.9001333565e+01 +2.0995712944e+01 +3.4885409639e+00 2.8531395994e+01 0.0000000000e+00 0.0000e+00 1.0000e+00
       12  1    3    3    0    0 -6.6051070310e+00 -1.5082361257e+01 +8.9199189252e+00 1.8726185239e+01 0.0000000000e+00 0.0000e+00 -1.0000e+00
</event>
<event>
 8      4 +1.0086356e-04 9.11880000e+01 7.81616400e-03 1.18400000e-01
      -11 -1    0    0    0    0 +0.0000000000e+00 +0.0000000000e+00 +4.5593999997e+01 4.5594000000e+01 5.1100000000e-04 0.0000e+00 1.0000e+00
       11 -1    0    0    0    0 -0.0000000000e+00 -0.0000000000e+00 -4.5593999997e+01 4.5594000000e+01 5.1100000000e-04 0.0000e+00 -1.0000e+00
       23  2    1    2    0    0 -3.5527136788e-15 -8.8817841970e-16 -1.7763568394e-15 9.1188000000e+01 9.1188000000e+01 2.8290e-13 0.0000e+00
 -9990012  2    3    3    0    0 +1.5301796460e+01 +1.8860993770e+00 +1.0628713633e+01 7.2461764413e+01 7.0000252875e+01 5.7392e-05 0.0000e+00
      -11  1    4    4    0    0 +1.2203872140e+01 +1.6701836153e+01 -7.7304200467e+00 2.2082690517e+01 5.1100000000e-04 0.0000e+00 1.0000e+00
       11  1    4    4    0    0 +2.2152575244e+01 -9.8247201848e+00 +1.8809153934e+01 3.0676472884e+01 5.1100000000e-04 0.0000e+00 -1.0000e+00
      -12  1    4    4    0    0 -1.9054650923e+01 -4.9910165916e+00 -4.5002025424e-01 1.9702601012e+01 0.0000000000e+00 0.0000e+00 1.0000e+00
       12  1    3    3    0    0 -1.5301796460e+01 -1.8860993770e+00 -1.0628713633e+01 1.8726235587e+01 0.0000000000e+00 0.0000e+00 -1.0000e+00
</event>
<event>
 9      4 +1.0086356e-04 9.11880000e+01 7.81616400e-03 1.18400000e-01
      -11 -1    0    0    0    0 +0.0000000000e+00 +0.0000000000e+00 +4.5593999997e+01 4.5594000000e+01 5.1100000000e-04 0.0000e+00 1.0000e+00
       11 -1    0    0    0    0 -0.0000000000e+00 -0.0000000000e+00 -4.5593999997e+01 4.5594000000e+01 5.1100000000e-04 0.0000e+00 -1.0000e+00
       23  2    1    2    0    0 +1.7763568394e-15 -8.8817841970e-16 -1.7763568394e-15 9.1188000000e+01 9.1188000000e+01 1.8226e-13 0.0000e+00
 -9990012  2    3    3    0    0 -1.2298132359e+01 -5.1891108959e+00 +1.3134278286e+01 7.2461542847e+01 6.9999964244e+01 3.1897e-06 0.0000e+00
      -24  2    4    4    0    0 -1.4702579446e+01 -9.5016744990e+00 +1.7064738727e+01 6.6150592826e+01 6.1467454501e+01 1.3612e-14 0.0000e+00
      -11  1    4    4    0    0 +2.4044470865e+00 +4.3125636031e+00 -3.9304604410e+00 6.3109500206e+00 5.1100000000e-04 0.0000e+00 1.0000e+00
       11  1    5    5    0    0 +2.1281345949e+00 -1.7093683942e+01 -1.8992705738e+01 2.5640707071e+01 5.1100000000e-04 0.0000e+00 -1.0000e+00
      -12  1    5    5    0    0 -1.6830714041e+01 +7.5920094433e+00 +3.6057444466e+01 4.0509885755e+01 0.0000000000e+00 0.0000e+00 1.0000e+00
       12  1    3    3    0    0 +1.2298132359e+01 +5.1891108959e+00 -1.3134278286e+01 1.8726457153e+01 0.0000000000e+00 0.0000e+00 -1.0000e+00
</event>
<event>
 8      4 +1.0086356e-04 9.11880000e+01 7.81616400e-03 1.18400000e-01
      -11 -1    0    0    0    0 +0.0000000000e+00 +0.0000000000e+00 +4.5593999997e+01 4.5594000000e+01 5.1100000000e-04 0.0000e+00 1.0000e+00
       11 -1    0    0    0    0 -0.0000000000e+00 -0.0000000000e+00 -4.5593999997e+01 4.5594000000e+01 5.1100000000e-04 0.0000e+00 -1.0000e+00
       23  2    1    2    0    0 +0.0000000000e+00 +3.5527136788e-15 +0.0000000000e+00 9.1188000000e+01 9.1188000000e+01 1.8533e-13 0.0000e+00
 -9990012  2    3    3    0    0 +5.6983385364e+00 -2.6412455084e+00 +1.7641763915e+01 7.2461572846e+01 7.0000003324e+01 1.8694e-06 0.0000e+00
      -11  1    4    4    0    0 +1.9516036618e+01 -7.0593714428e+00 +1.9759543538e+01 2.8655714466e+01 5.1100000000e-04 0.0000e+00 -1.0000e+00
       11  1    4    4    0    0 -2.0259311715e+01 -1.3586283405e+01 -3.4572082033e+00 2.4636945767e+01 5.1100000000e-04 0.0000e+00 1.0000e+00
      -12  1    4    4    0    0 +6.4416136334e+00 +1.8004409339e+01 +1.3394285804e+00 1.9168912613e+01 0.0000000000e+00 0.0000e+00 1.0000e+00
       12  1    3    3    0    0 -5.6983385364e+00 +2.6412455084e+00 -1.7641763915e+01 1.8726427154e+01 0.0000000000e+00 0.0000e+00 -1.0000e+00
</event>
<event>
 8      4 +1.0086356e-04 9.11880000e+01 7.81616400e-03 1.18400000e-01
      -11 -1    0    0    0    0 +0.0000000000e+00 +0.0000000000e+00 +4.5593999997e+01 4.5594000000e+01 5.1100000000e-04 0.0000e+00 1.0000e+00
       11 -1    0    0    0    0 -0.0000000000e+00 -0.0000000000e+00 -4.5593999997e+01 4.5594000000e+01 5.1100000000e-04 0.0000e+00 -1.0000e+00
       23  2    1    2    0    0 +8.8817841970e-16 +0.0000000000e+00 +8.8817841970e-16 9.1188000000e+01 9.1188000000e+01 1.6412e-14 0.0000e+00
 -9990012  2    3    3    0    0 +4.2053891845e+00 +1.7833413552e+01 +3.8683678674e+00 7.2461542592e+01 6.9999963912e+01 1.3297e-04 0.0000e+00
      -11  1    4    4    0    0 +8.3107111479e+00 -5.5746969155e+00 -2.1515444844e+01 2.3728875502e+01 5.1100000000e-04 0.0000e+00 1.0000e+00
       11  1    4    4    0    0 +1.9029131690e+00 -8.2414913819e+00 +1.4072693915e+00 8.5745942253e+00 5.1100000000e-04 0.0000e+00 -1.0000e+00
      -12  1    4    4    0    0 -6.0082351323e+00 +3.1649601849e+01 +2.3976543320e+01 4.0158072865e+01 0.0000000000e+00 0.0000e+00 1.0000e+00
       12  1    3    3    0    0 -4.2053891845e+00 -1.7833413552e+01 -3.8683678674e+00 1.8726457408e+01 0.0000000000e+00 0.0000e+00 -1.0000e+00
</event>
<event>
 8      3 +1.0086356e-04 9.11880000e+01 7.81616400e-03 1.18400000e-01
      -11 -1    0    0    0    0 +0.0000000000e+00 +0.0000000000e+00 +4.5593999997e+01 4.5594000000e+01 5.1100000000e-04 0.0000e+00 1.0000e+00
       11 -1    0    0    0    0 -0.0000000000e+00 -0.0000000000e+00 -4.5593999997e+01 4.5594000000e+01 5.1100000000e-04 0.0000e+00 -1.0000e+00
       23  2    1    2    0    0 +3.5527136788e-15 +3.5527136788e-15 -2.2204460493e-15 9.1188000000e+01 9.1188000000e+01 1.1691e-13 0.0000e+00
  9990012  2    3    3    0    0 -1.2005107880e+01 +1.4119453331e+01 -2.6830545280e+00 7.2461538530e+01 6.9999958621e+01 6.0068e-05 0.0000e+00
      -11  1    4    4    0    0 -2.2845784448e+01 +4.3590881243e-01 +5.0740702354e+00 2.3406539098e+01 5.1100000000e-04 0.0000e+00 1.0000e+00
       11  1    4    4    0    0 -3.4379655074e+00 -9.0241068411e+00 +1.2244899883e+01 1.5594604340e+01 5.1100000000e-04 0.0000e+00 -1.0000e+00
       12  1    4    4    0    0 +1.4278642075e+01 +2.2707651360e+01 -2.0002024646e+01 3.3460395093e+01 0.0000000000e+00 0.0000e+00 -1.0000e+00
      -12  1    3    3    0    0 +1.2005107880e+01 -1.4119453331e+01 +2.6830545280e+00 1.8726461470e+01 0.0000000000e+00 0.0000e+00 1.0000e+00
</event>
<event>
 9      4 +1.0086356e-04 9.11880000e+01 7.81616400e-03 1.18400000e-01
      -11 -1    0    0    0    0 +0.0000000000e+00 +0.0000000000e+00 +4.5593999997e+01 4.5594000000e+01 5.1100000000e-04 0.0000e+00 -1.0000e+00
       11 -1    0    0    0    0 -0.0000000000e+00 -0.0000000000e+00 -4.5593999997e+01 4.5594000000e+01 5.1100000000e-04 0.0000e+00 1.0000e+00
       23  2    1    2    0    0 +1.0130785100e-15 -3.5527136788e-15 +4.4408920985e-16 9.1188000000e+01 9.1188000000e+01 7.5547e-14 0.0000e+00
 -9990012  2    3    3    0    0 +6.9259057358e-02 +1.8415067535e+01 +3.3981266404e+00 7.2461901266e+01 7.0000431151e+01 3.4709e-04 0.0000e+00
      -24  2    4    4    0    0 +8.0266412469e+00 +2.6874243910e+01 +1.1322277422e+01 5.8402393376e+01 4.9959920242e+01 3.1573e-14 0.0000e+00
      -11  1    4    4    0    0 -7.9573821896e+00 -8.4591763750e+00 -7.9241507813e+00 1.4059507890e+01 5.1100000000e-04 0.0000e+00 1.0000e+00
       11  1    5    5    0    0 +1.6068296382e+01 -1.0181867593e+01 +7.4972020549e-01 1.9037401528e+01 5.1100000000e-04 0.0000e+00 -1.0000e+00
      -12  1    5    5    0    0 -8.0416551351e+00 +3.7056111503e+01 +1.0572557216e+01 3.9364991847e+01 0.0000000000e+00 0.0000e+00 1.0000e+00
       12  1    3    3    0    0 -6.9259057358e-02 -1.8415067535e+01 -3.3981266404e+00 1.8726098734e+01 0.0000000000e+00 0.0000e+00 -1.0000e+00
</event>
<event>
 9      4 +1.0086356e-04 9.11880000e+01 7.81616400e-03 1.18400000e-01
      -11 -1    0    0    0    0 +0.0000000000e+00 +0.0000000000e+00 +4.5593999997e+01 4.5594000000e+01 5.1100000000e-04 0.0000e+00 -1.0000e+00
       11 -1    0    0    0    0 -0.0000000000e+00 -0.0000000000e+00 -4.5593999997e+01 4.5594000000e+01 5.1100000000e-04 0.0000e+00 1.0000e+00
       23  2    1    2    0    0 +0.0000000000e+00 +8.6042284408e-16 +0.0000000000e+00 9.1188000000e+01 9.1188000000e+01 1.7606e-13 0.0000e+00
 -9990012  2    3    3    0    0 -5.4350415113e+00 -1.5707778816e-01 -1.7919636057e+01 7.2461609368e+01 7.0000050901e+01 1.8794e-04 0.0000e+00
      -24  2    4    4    0    0 +2.0672795997e+00 +8.4927154910e-01 -1.6298408476e+01 6.4720424693e+01 6.2594730981e+01 2.9646e-13 0.0000e+00
      -11  1    4    4    0    0 -7.5023211110e+00 -1.0063493373e+00 -1.6212275814e+00 7.7411846750e+00 5.1100000000e-04 0.0000e+00 1.0000e+00
       11  1    5    5    0    0 -1.7155198732e+01 -2.3159022556e+01 +2.0736895547e+00 2.8895351839e+01 5.1100000000e-04 0.0000e+00 -1.0000e+00
      -12  1    5    5    0    0 +1.9222478331e+01 +2.4008294105e+01 -1.8372098031e+01 3.5825072855e+01 0.0000000000e+00 0.0000e+00 1.0000e+00
       12  1    3    3    0    0 +5.4350415113e+00 +1.5707778816e-01 +1.7919636057e+01 1.8726390632e+01 0.0000000000e+00 0.0000e+00 -1.0000e+00
</event>
<event>
 8      3 +1.0086356e-04 9.11880000e+01 7.81616400e-03 1.18400000e-01
      -11 -1    0    0    0    0 +0.0000000000e+00 +0.0000000000e+00 +4.5593999997e+01 4.5594000000e+01 5.1100000000e-04 0.0000e+00 -1.0000e+00
       11 -1    0    0    0    0 -0.0000000000e+00 -0.0000000000e+00 -4.5593999997e+01 4.5594000000e+01 5.1100000000e-04 0.0000e+00 1.0000e+00
       23  2    1    2    0    0 -3.5527136788e-15 +0.0000000000e+00 -1.7763568394e-15 9.1188000000e+01 9.1188000000e+01 1.2194e-13 0.0000e+00
  9990012  2    3    3    0    0 +1.6431686548e+01 +1.8032970849e+00 +8.7989736032e+00 7.2461704594e+01 7.0000174949e+01 3.0181e-04 0.0000e+00
      -11  1    4    4    0    0 +5.6021626237e+00 -1.0760725725e+01 -1.9598513310e+01 2.3049493886e+01 5.1100000000e-04 0.0000e+00 1.0000e+00
       11  1    4    4    0    0 -2.3842610540e+00 -5.2540046146e+00 +2.6530654175e+01 2.7150780403e+01 5.1100000000e-04 0.0000e+00 -1.0000e+00
       12  1    4    4    0    0 +1.3213784978e+01 +1.7818027424e+01 +1.8668327377e+00 2.2261430305e+01 0.0000000000e+00 0.0000e+00 -1.0000e+00
      -12  1    3    3    0    0 -1.6431686548e+01 -1.8032970849e+00 -8.7989736032e+00 1.8726295406e+01 0.0000000000e+00 0.0000e+00 1.0000e+00
</event>
<event>
 8      4 +1.0086356e-04 9.11880000e+01 7.81616400e-03 1.18400000e-01
      -11 -1    0    0    0    0 +0.0000000000e+00 +0.0000000000e+00 +4.5593999997e+01 4.5594000000e+01 5.1100000000e-04 0.0000e+00 1.0000e+00
       11 -1    0    0    0    0 -0.0000000000e+00 -0.0000000000e+00 -4.5593999997e+01 4.5594000000e+01 5.1100000000e-04 0.0000e+00 -1.0000e+00
       23  2    1    2    0    0 +2.2204460493e-15 +0.0000000000e+00 +0.0000000000e+00 9.1188000000e+01 9.1188000000e+01 1.0081e-13 0.0000e+00
 -9990012  2    3    3    0    0 -2.8479115874e+00 +5.7750728952e+00 +1.7584605790e+01 7.2461536689e+01 6.9999956222e+01 1.9846e-04 0.0000e+00
      -11  1    4    4    0    0 +2.3481091291e+01 +2.9594725750e+00 +5.6839886462e+00 2.4339840865e+01 5.1100000000e-04 0.0000e+00 -1.0000e+00
       11  1    4    4    0    0 -2.6840656805e+01 +1.6722318641e+01 +3.3789349272e+00 3.1803679032e+01 5.1100000000e-04 0.0000e+00 1.0000e+00
      -12  1    4    4    0    0 +5.1165392631e-01 -1.3906718321e+01 +8.5216822169e+00 1.6318016791e+01 0.0000000000e+00 0.0000e+00 1.0000e+00
       12  1    3    3    0    0 +2.8479115874e+00 -5.7750728952e+00 -1.7584605790e+01 1.8726463311e+01 0.0000000000e+00 0.0000e+00 -1.0000e+00
</event>
<event>
 9      4 +1.0086356e-04 9.11880000e+01 7.81616400e-03 1.18400000e-01
      -11 -1    0    0    0    0 +0.0000000000e+00 +0.0000000000e+00 +4.5593999997e+01 4.5594000000e+01 5.1100000000e-04 0.0000e+00 1.0000e+00
       11 -1    0    0    0    0 -0.0000000000e+00 -0.0000000000e+00 -4.5593999997e+01 4.5594000000e+01 5.1100000000e-04 0.0000e+00 -1.0000e+00
       23  2    1    2    0    0 +3.5527136788e-15 +1.7763568394e-15 +8.8817841970e-16 9.1188000000e+01 9.1188000000e+01 2.4358e-13 0.0000e+00
 -9990012  2    3    3    0    0 -1.5685703061e+01 -1.0147267484e+01 +1.2927919266e+00 7.2461558029e+01 6.9999984023e+01 1.1898e-04 0.0000e+00
      -24  2    4    4    0    0 -1.9826960655e+01 -1.0336884520e+01 +4.4114848930e+00 6.7273859584e+01 6.3295745781e+01 7.8578e-15 0.0000e+00
      -11  1    4    4    0    0 +4.1412575939e+00 +1.8961703519e-01 -3.1186929664e+00 5.1876984453e+00 5.1100000000e-04 0.0000e+00 -1.0000e+00
       11  1    5    5    0    0 -1.8568841203e+01 -3.5027926265e+01 +1.1984004775e+01 4.1417071996e+01 5.1100000000e-04 0.0000e+00 1.0000e+00
      -12  1    5    5    0    0 -1.2581194519e+00 +2.4691041745e+01 -7.5725198820e+00 2.5856787588e+01 0.0000000000e+00 0.0000e+00 1.0000e+00
       12  1    3    3    0    0 +1.5685703061e+01 +1.0147267484e+01 -1.2927919266e+00 1.8726441971e+01 0.0000000000e+00 0.0000e+00 -1.0000e+00
</event>
<event>
 8      3 +1.0086356e-04 9.11880000e+01 7.81616400e-03 1.18400000e-01
      -11 -1    0    0    0    0 +0.0000000000e+00 +0.0000000000e+00 +4.5593999997e+01 4.5594000000e+01 5.1100000000e-04 0.0000e+00 1.0000e+00
       11 -1    0    0    0    0 -0.0000000000e+00 -0.0000000000e+00 -4.5593999997e+01 4.5594000000e+01 5.1100000000e-04 0.0000e+00 -1.0000e+00
       23  2    1    2    0    0 +3.5527136788e-15 -1.7763568394e-15 +0.0000000000e+00 9.1188000000e+01 9.1188000000e+01 4.1858e-13 0.0000e+00
  9990012  2    3    3    0    0 +1.4618979620e+01 -6.6511028098e+00 -9.6286196274e+00 7.2462027405e+01 7.0000595469e+01 9.1994e-05 0.0000e+00
      -11  1    4    4    0    0 +3.1693742125e+01 -1.8585546482e+01 -1.5556669969e+01 3.9898944957e+01 5.1100000000e-04 0.0000e+00 1.0000e+00
       11  1    4    4    0    0 -6.5323042239e+00 +1.2091713467e+01 +1.3745449663e+01 1.9437538933e+01 5.1100000000e-04 0.0000e+00 -1.0000e+00
       12  1    4    4    0    0 -1.0542458282e+01 -1.5726979527e-01 -7.8173993223e+00 1.3125543515e+01 0.0000000000e+00 0.0000e+00 -1.0000e+00
      -12  1    3    3    0    0 -1.4618979620e+01 +6.6511028098e+00 +9.6286196274e+00 1.8725972595e+01 0.0000000000e+00 0.0000e+00 1.0000e+00
</event>
<event>
 8      3 +1.0086356e-04 9.11880000e+01 7.81616400e-03 1.18400000e-01
      -11 -1    0    0    0    0 +0.0000000000e+00 +0.0000000000e+00 +4.5593999997e+01 4.5594000000e+01 5.1100000000e-04 0.0000e+00 1.0000e+00
       11 -1    0    0    0    0 -0.0000000000e+00 -0.0000000000e+00 -4.5593999997e+01 4.5594000000e+01 5.1100000000e-04 0.0000e+00 -1.0000e+00
       23  2    1    2    0    0 +0.0000000000e+00 -2.7755575616e-16 +1.7763568394e-15 9.1188000000e+01 9.1188000000e+01 1.8372e-13 0.0000e+00
  9990012  2    3    3    0    0 -1.3366729753e+01 -2.5086528347e-01 -1.3112826996e+01 7.2461584713e+01 7.0000018783e+01 1.1988e-04 0.0000e+00
      -11  1    4    4    0    0 -1.1821283151e+01 -4.1177472124e+00 +2.6694990509e+01 2.9484251660e+01 5.1100000000e-04 0.0000e+00 1.0000e+00
       11  1    4    4    0    0 -7.7737162966e+00 +1.1992798832e+00 -3.0287085062e+01 3.1291795396e+01 5.1100000000e-04 0.0000e+00 -1.0000e+00
       12  1    4    4    0    0 +6.2282696950e+00 +2.6676020458e+00 -9.5207324426e+00 1.1685537656e+01 0.0000000000e+00 0.0000e+00 -1.0000e+00
      -12  1    3    3    0    0 +1.3366729753e+01 +2.5086528347e-01 +1.3112826996e+01 1.8726415287e+01 0.0000000000e+00 0.0000e+00 1.0000e+00
</event>
<event>
 8      3 +1.0086356e-04 9.11880000e+01 7.81616400e-03 1.18400000e-01
      -11 -1    0    0    0    0 +0.0000000000e+00 +0.0000000000e+00 +4.5593999997e+01 4.5594000000e+01 5.1100000000e-04 0.0000e+00 1.0000e+00
       11 -1    0    0    0    0 -0.0000000000e+00 -0.0000000000e+00 -4.5593999997e+01 4.5594000000e+01 5.1100000000e-04 0.0000e+00 -1.0000e+00
       23  2    1    2    0    0 +0.0000000000e+00 +4.4408920985e-16 +1.7763568394e-15 9.1188000000e+01 9.1188000000e+01 4.5149e-14 0.0000e+00
  9990012  2    3    3    0    0 -1.6118661661e+01 -2.5592327478e+00 -9.1825105508e+00 7.2461563446e+01 6.9999991079e+01 1.4068e-05 0.0000e+00
      -11  1    4    4    0    0 -4.1308457651e+00 -2.0785096390e+01 -8.6953812049e+00 2.2906195085e+01 5.1100000000e-04 0.0000e+00 1.0000e+00
       11  1    4    4    0    0 +1.0670414205e+01 +2.5279237330e+00 +1.4500044975e+01 1.8179643623e+01 5.1100000000e-04 0.0000e+00 -1.0000e+00
       12  1    4    4    0    0 -2.2658230101e+01 +1.5697939910e+01 -1.4987174321e+01 3.1375724738e+01 0.0000000000e+00 0.0000e+00 -1.0000e+00
      -12  1    3    3    0    0 +1.6118661661e+01 +2.5592327478e+00 +9.1825105508e+00 1.8726436554e+01 0.0000000000e+00 0.0000e+00 1.0000e+00
</event>
<event>
 9      4 +1.0086356e-04 9.11880000e+01 7.81616400e-03 1.18400000e-01
      -11 -1    0    0    0    0 +0.0000000000e+00 +0.0000000000e+00 +4.5593999997e+01 4.5594000000e+01 5.1100000000e-04 0.0000e+00 1.0000e+00
       11 -1    0    0    0    0 -0.0000000000e+00 -0.0000000000e+00 -4.5593999997e+01 4.5594000000e+01 5.1100000000e-04 0.0000e+00 -1.0000e+00
       23  2    1    2    0    0 -1.7763568394e-15 +0.0000000000e+00 +4.4408920985e-16 9.1188000000e+01 9.1188000000e+01 5.8630e-14 0.0000e+00
 -9990012  2    3    3    0    0 -1.3126890277e+01 -1.2966130037e+01 +3.2006112447e+00 7.2461556429e+01 6.9999981938e+01 2.1009e-04 0.0000e+00
       23  2    4    4    0    0 -1.9081934164e+01 -1.6484178292e+01 +1.0720742780e+01 6.2244336185e+01 5.5888949856e+01 5.1480e-14 0.0000e+00
      -11  1    5    5    0    0 -3.4011533243e+01 -1.9313381579e+01 -6.0900092150e+00 3.9583826420e+01 5.1100000000e-04 0.0000e+00 -1.0000e+00
       11  1    5    5    0    0 +1.4929599079e+01 +2.8292032875e+00 +1.6810751995e+01 2.2660509765e+01 5.1100000000e-04 0.0000e+00 1.0000e+00
      -12  1    4    4    0    0 +5.9550438866e+00 +3.5180482548e+00 -7.5201315351e+00 1.0217220244e+01 0.0000000000e+00 0.0000e+00 1.0000e+00
       12  1    3    3    0    0 +1.3126890277e+01 +1.2966130037e+01 -3.2006112447e+00 1.8726443571e+01 0.0000000000e+00 0.0000e+00 -1.0000e+00
</event>
<event>
 9      3 +1.0086356e-04 9.11880000e+01 7.81616400e-03 1.18400000e-01
      -11 -1    0    0    0    0 +0.0000000000e+00 +0.0000000000e+00 +4.5593999997e+01 4.5594000000e+01 5.1100000000e-04 0.0000e+00 1.0000e+00
       11 -1    0    0    0    0 -0.0000000000e+00 -0.0000000000e+00 -4.5593999997e+01 4.5594000000e+01 5.1100000000e-04 0.0000e+00 -1.0000e+00
       23  2    1    2    0    0 +1.7763568394e-15 -1.7763568394e-15 -1.7763568394e-15 9.1188000000e+01 9.1188000000e+01 2.2809e-14 0.0000e+00
  9990012  2    3    3    0    0 +1.0316411197e+01 -1.1754679895e+01 -1.0299444886e+01 7.2461564024e+01 6.9999991832e+01 2.9426e-06 0.0000e+00
       24  2    4    4    0    0 +1.9364084511e+01 +4.7260637268e+00 -6.6667904670e+00 5.3312896156e+01 4.8995054385e+01 2.0174e-13 0.0000e+00
      -11  1    5    5    0    0 +1.2514557403e+01 -2.0860339349e+01 +4.1943173493e+00 2.4685222361e+01 5.1100000000e-04 0.0000e+00 1.0000e+00
       11  1    4    4    0    0 -9.0476733144e+00 -1.6480743621e+01 -3.6326544189e+00 1.9148667868e+01 5.1100000000e-04 0.0000e+00 -1.0000e+00
       12  1    5    5    0    0 +6.8495271080e+00 +2.5586403075e+01 -1.0861107816e+01 2.8627673795e+01 0.0000000000e+00 0.0000e+00 -1.0000e+00
      -12  1    3    3    0    0 -1.0316411197e+01 +1.1754679895e+01 +1.0299444886e+01 1.8726435976e+01 0.0000000000e+00 0.0000e+00 1.0000e+00
</event>
<event>
 8      3 +1.0086356e-04 9.11880000e+01 7.81616400e-03 1.18400000e-01
      -11 -1    0    0    0    0 +0.0000000000e+00 +0.0000000000e+00 +4.5593999997e+01 4.5594000000e+01 5.1100000000e-04 0.0000e+00 -1.0000e+00
       11 -1    0    0    0    0 -0.0000000000e+00 -0.0000000000e+00 -4.5593999997e+01 4.5594000000e+01 5.1100000000e-04 0.0000e+00 1.0000e+00
       23  2    1    2    0    0 +8.8817841970e-16 +3.5527136788e-15 +5.3290705182e-15 9.1188000000e+01 9.1188000000e+01 9.9603e-14 0.0000e+00
  9990012  2    3    3    0    0 -6.6721987188e+00 +7.2697760161e+00 -1.5915758203e+01 7.2461568460e+01 6.9999997610e+01 3.0464e-04 0.0000e+00
      -11  1    4    4    0    0 -4.2694512969e+00 -4.0729891574e+00 -2.4952500053e+01 2.5640684745e+01 5.1100000000e-04 0.0000e+00 1.0000e+00
       11  1    4    4    0    0 +1.4203495944e+01 -1.0895448940e+01 +1.0121284887e+00 1.7929710231e+01 5.1100000000e-04 0.0000e+00 -1.0000e+00
       12  1    4    4    0    0 -1.6606243366e+01 +2.2238214113e+01 +8.0246133616e+00 2.8891173484e+01 0.0000000000e+00 0.0000e+00 -1.0000e+00
      -12  1    3    3    0    0 +6.6721987188e+00 -7.2697760161e+00 +1.5915758203e+01 1.8726431540e+01 0.0000000000e+00 0.0000e+00 1.0000e+00
</event>
<event>
 8      4 +1.0086356e-04 9.11880000e+01 7.81616400e-03 1.18400000e-01
      -11 -1    0    0    0    0 +0.0000000000e+00 +0.0000000000e+00 +4.5593999997e+01 4.5594000000e+01 5.1100000000e-04 0.0000e+00 1.0000e+00
       11 -1    0    0    0    0 -0.0000000000e+00 -0.0000000000e+00 -4.5593999997e+01 4.5594000000e+01 5.1100000000e-04 0.0000e+00 -1.0000e+00
       23  2    1    2    0    0 -2.2204460493e-16 -8.8817841970e-16 +0.0000000000e+00 9.1188000000e+01 9.1188000000e+01 1.0949e-13 0.0000e+00
 -9990012  2    3    3    0    0 -1.7698733406e+00 +3.9422605012e+00 +1.8220980094e+01 7.2461601919e+01 7.0000041197e+01 2.9659e-04 0.0000e+00
      -11  1    4    4    0    0 +1.8957696704e+01 -1.2156910984e+01 +1.1237522013e+01 2.5168763383e+01 5.1100000000e-04 0.0000e+00 1.0000e+00
       11  1    4    4    0    0 -1.5381052935e+01 +7.0873448392e+00 -1.5201811357e+01 2.2757467237e+01 5.1100000000e-04 0.0000e+00 -1.0000e+00
      -12  1    4    4    0    0 -5.3465171097e+00 +9.0118266464e+00 +2.2185269438e+01 2.4535371299e+01 0.0000000000e+00 0.0000e+00 1.0000e+00
       12  1    3    3    0    0 +1.7698733406e+00 -3.9422605012e+00 -1.8220980094e+01 1.8726398081e+01 0.0000000000e+00 0.0000e+00 -1.0000e+00
</event>
<event>
 8      4 +1.0086356e-04 9.11880000e+01 7.81616400e-03 1.18400000e-01
      -11 -1    0    0    0    0 +0.0000000000e+00 +0.0000000000e+00 +4.5593999997e+01 4.5594000000e+01 5.1100000000e-04 0.0000e+00 -1.0000e+00
       11 -1    0    0    0    0 -0.0000000000e+00 -0.0000000000e+00 -4.5593999997e+01 4.5594000000e+01 5.1100000000e-04 0.0000e+00 1.0000e+00
       23  2    1    2    0    0 -1.7763568394e-15 +2.6090241079e-15 -3.5527136788e-15 9.1188000000e+01 9.1188000000e+01 1.2524e-13 0.0000e+00
 -9990012  2    3    3    0    0 +1.2644585077e+01 -3.2698172049e-01 -1.3808951394e+01 7.2461559137e+01 6.9999985465e+01 1.0600e-04 0.0000e+00
      -11  1    4    4    0    0 +1.6372552930e+01 +1.1440369496e+01 -8.9743305254e-01 1.9993697257e+01 5.1100000000e-04 0.0000e+00 1.0000e+00
       11  1    4    4    0    0 +1.6203417849e+01 -1.7628771284e+01 +5.6574698730e+00 2.4603481311e+01 5.1100000000e-04 0.0000e+00 -1.0000e+00
      -12  1    4    4    0    0 -1.9931385702e+01 +5.8614200670e+00 -1.8568988215e+01 2.7864380569e+01 0.0000000000e+00 0.0000e+00 1.0000e+00
       12  1    3    3    0    0 -1.2644585077e+01 +3.2698172049e-01 +1.3808951394e+01 1.8726440863e+01 0.0000000000e+00 0.0000e+00 -1.0000e+00
</event>
<event>
 8      4 +1.0086356e-04 9.11880000e+01 7.81616400e-03 1.18400000e-01
      -11 -1    0    0    0    0 +0.0000000000e+00 +0.0000000000e+00 +4.5593999997e+01 4.5594000000e+01 5.1100000000e-04 0.0000e+00 1.0000e+00
       11 -1    0    0    0    0 -0.0000000000e+00 -0.0000000000e+00 -4.5593999997e+01 4.5594000000e+01 5.1100000000e-04 0.0000e+00 -1.0000e+00
       23  2    1    2    0    0 -8.8817841970e-16 -1.7763568394e-15 -3.5527136788e-15 9.1188000000e+01 9.1188000000e+01 4.0382e-15 0.0000e+00
 -9990012  2    3    3    0    0 +6.8949837619e+00 +9.7531641237e+00 +1.4422656564e+01 7.2461600616e+01 7.0000039500e+01 1.4755e-04 0.0000e+00
      -11  1    4    4    0    0 -2.1950513365e+01 -1.2128646839e-01 -1.2180006388e+01 2.5103631276e+01 5.1100000000e-04 0.0000e+00 -1.0000e+00
       11  1    4    4    0    0 -1.3678196208e+00 -5.0856382905e+00 +5.3334420903e+00 7.4953486996e+00 5.1100000000e-04 0.0000e+00 1.0000e+00
      -12  1    4    4    0    0 +3.0213316747e+01 +1.4960088883e+01 +2.1269220862e+01 3.9862620641e+01 0.0000000000e+00 0.0000e+00 1.0000e+00
       12  1    3    3    0    0 -6.8949837619e+00 -9.7531641237e+00 -1.4422656564e+01 1.8726399384e+01 0.0000000000e+00 0.0000e+00 -1.0000e+00
</event>
<event>
 9      4 +1.0086356e-04 9.11880000e+01 7.81616400e-03 1.18400000e-01
      -11 -1    0    0    0    0 +0.0000000000e+00 +0.0000000000e+00 +4.5593999997e+01 4.5594000000e+01 5.1100000000e-04 0.0000e+00 1.0000e+00
       11 -1    0    0    0    0 -0.0000000000e+00 -0.0000000000e+00 -4.5593999997e+01 4.5594000000e+01 5.1100000000e-04 0.0000e+00 -1.0000e+00
       23  2    1    2    0    0 -5.3290705182e-15 +4.4408920985e-16 +1.7763568394e-15 9.1188000000e+01 9.1188000000e+01 2.3089e-13 0.0000e+00
 -9990012  2    3    3    0    0 +1.5397851962e+01 -2.9770211825e+00 +1.0233407506e+01 7.2461571367e+01 7.0000001398e+01 3.8644e-04 0.0000e+00
      -24  2    4    4    0    0 +2.3169093226e+01 -2.2776546865e+00 +4.1439697392e-01 5.9919870033e+01 5.5210728198e+01 1.7369e-13 0.0000e+00
      -11  1    4    4    0    0 -7.7712412641e+00 -6.9936649599e-01 +9.8190105321e+00 1.2541701335e+01 5.1100000000e-04 0.0000e+00 1.0000e+00
       11  1    5    5    0    0 +8.5055181391e+00 +7.7784369090e+00 -2.5792415399e+01 2.8250603744e+01 5.1100000000e-04 0.0000e+00 -1.0000e+00
      -12  1    5    5    0    0 +1.4663575087e+01 -1.0056091595e+01 +2.6206812373e+01 3.1669266288e+01 0.0000000000e+00 0.0000e+00 1.0000e+00
       12  1    3    3    0    0 -1.5397851962e+01 +2.9770211825e+00 -1.0233407506e+01 1.8726428633e+01 0.0000000000e+00 0.0000e+00 -1.0000e+00
</event>
<event>
 8      4 +1.0086356e-04 9.11880000e+01 7.81616400e-03 1.18400000e-01
      -11 -1    0    0    0    0 +0.0000000000e+00 +0.0000000000e+00 +4.5593999997e+01 4.5594000000e+01 5.1100000000e-04 0.0000e+00 -1.0000e+00
       11 -1    0    0    0    0 -0.0000000000e+00 -0.0000000000e+00 -4.5593999997e+01 4.5594000000e+01 5.1100000000e-04 0.0000e+00 1.0000e+00
       23  2    1    2    0    0 +4.4408920985e-16 +1.7763568394e-15 +0.0000000000e+00 9.1188000000e+01 9.1188000000e+01 1.7361e-13 0.0000e+00
 -9990012  2    3    3    0    0 -2.9832346104e+00 +8.3578642863e+00 -1.6490148997e+01 7.2461585551e+01 7.0000019874e+01 1.4101e-04 0.0000e+00
      -11  1    4    4    0    0 +1.5848421348e+01 +2.5093161190e+00 -1.6694905381e+01 2.3155755063e+01 5.1100000000e-04 0.0000e+00 1.0000e+00
       11  1    4    4    0    0 -4.7186232934e+00 -1.8169589700e+01 +7.9579044486e+00 2.0389400166e+01 5.1100000000e-04 0.0000e+00 -1.0000e+00
      -12  1    4    4    0    0 -1.4113032665e+01 +2.4018137867e+01 -7.7531480647e+00 2.8916430321e+01 0.0000000000e+00 0.0000e+00 1.0000e+00
       12  1    3    3    0    0 +2.9832346104e+00 -8.3578642863e+00 +1.6490148997e+01 1.8726414449e+01 0.0000000000e+00 0.0000e+00 -1.0000e+00
</event>
<event>
 8      3 +1.0086356e-04 9.11880000e+01 7.81616400e-03 1.18400000e-01
      -11 -1    0    0    0    0 +0.0000000000e+00 +0.0000000000e+00 +4.5593999997e+01 4.5594000000e+01 5.1100000000e-04 0.0000e+00 1.0000e+00
       11 -1    0    0    0    0 -0.0000000000e+00 -0.0000000000e+00 -4.5593999997e+01 4.5594000000e+01 5.1100000000e-04 0.0000e+00 -1.0000e+00
       23  2    1    2    0    0 +0.0000000000e+00 +0.0000000000e+00 +0.0000000000e+00 9.1188000000e+01 9.1188000000e+01 7.8458e-14 0.0000e+00
  9990012  2    3    3    0    0 +8.8504814497e+00 -1.4315778547e+01 +8.2101272507e+00 7.2461582116e+01 7.0000015400e+01 5.3378e-05 0.0000e+00
      -11  1    4    4    0    0 +6.3632186164e+00 +2.9425540979e+00 -1.2143305756e+00 7.1150386356e+00 5.1100000000e-04 0.0000e+00 1.0000e+00
       11  1    4    4    0    0 -1.1593189019e+01 -3.5074216764e+01 -6.6372971678e+00 3.7532071981e+01 5.1100000000e-04 0.0000e+00 -1.0000e+00
       12  1    4    4    0    0 +1.4080451852e+01 +1.7815884119e+01 +1.6061754994e+01 2.7814471500e+01 0.0000000000e+00 0.0000e+00 -1.0000e+00
      -12  1    3    3    0    0 -8.8504814497e+00 +1.4315778547e+01 -8.2101272507e+00 1.8726417884e+01 0.0000000000e+00 0.0000e+00 1.0000e+00
</event>
<event>
 8      3 +1.0086356e-04 9.11880000e+01 7.81616400e-03 1.18400000e-01
      -11 -1    0    0    0    0 +0.0000000000e+00 +0.0000000000e+00 +4.5593999997e+01 4.5594000000e+01 5.1100000000e-04 0.0000e+00 -1.0000e+00
       11 -1    0    0    0    0 -0.0000000000e+00 -0.0000000000e+00 -4.5593999997e+01 4.5594000000e+01 5.1100000000e-04 0.0000e+00 1.0000e+00
       23  2    1    2    0    0 +0.0000000000e+00 +2.6645352591e-15 -1.7763568394e-15 9.1188000000e+01 9.1188000000e+01 2.2308e-14 0.0000e+00
  9990012  2    3    3    0    0 -1.3926232155e+01 -3.8147688753e+00 +1.1924161329e+01 7.2461600800e+01 7.0000039739e+01 2.4657e-04 0.0000e+00
      -11  1    4    4    0    0 +1.3306459523e+01 -2.1245857653e+00 -1.1134976061e+00 1.3520932176e+01 5.1100000000e-04 0.0000e+00 1.0000e+00
       11  1    4    4    0    0 -1.5917436568e+01 -1.8918756493e+01 +2.4957096681e+01 3.5130340294e+01 5.1100000000e-04 0.0000e+00 -1.0000e+00
       12  1    4    4    0    0 -1.1315255110e+01 +1.7228573383e+01 -1.1919437746e+01 2.3810328331e+01 0.0000000000e+00 0.0000e+00 -1.0000e+00
      -12  1    3    3    0    0 +1.3926232155e+01 +3.8147688753e+00 -1.1924161329e+01 1.8726399200e+01 0.0000000000e+00 0.0000e+00 1.0000e+00
</event>
<event>
 9      4 +1.0086356e-04 9.11880000e+01 7.81616400e-03 1.18400000e-01
      -11 -1    0    0    0    0 +0.0000000000e+00 +0.0000000000e+00 +4.5593999997e+01 4.5594000000e+01 5.1100000000e-04 0.0000e+00 1.0000e+00
       11 -1    0    0    0    0 -0.0000000000e+00 -0.0000000000e+00 -4.5593999997e+01 4.5594000000e+01 5.1100000000e-04 0.0000e+00 -1.0000e+00
       23  2    1    2    0    0 -1.7763568394e-15 +0.0000000000e+00 +0.0000000000e+00 9.1188000000e+01 9.1188000000e+01 3.7262e-15 0.0000e+00
 -9990012  2    3    3    0    0 -1.5146978505e+01 -1.0860911834e+01 +1.8134119318e+00 7.2461579452e+01 7.0000011930e+01 4.3077e-04 0.0000e+00
      -24  2    4    4    0    0 -9.8965002967e+00 +9.0863257983e-01 +9.9557185642e+00 5.7217339403e+01 5.5461168983e+01 3.6023e-14 0.0000e+00
      -11  1    4    4    0    0 -5.2504782086e+00 -1.1769544413e+01 -8.1423066324e+00 1.5244240049e+01 5.1100000000e-04 0.0000e+00 1.0000e+00
       11  1    5    5    0    0 +2.0431444085e+01 -1.1628043699e+01 +4.8878391729e+00 2.4011378130e+01 5.1100000000e-04 0.0000e+00 -1.0000e+00
      -12  1    5    5    0    0 -3.0327944382e+01 +1.2536676279e+01 +5.0678793914e+00 3.3205961273e+01 0.0000000000e+00 0.0000e+00 1.0000e+00
       12  1    3    3    0    0 +1.5146978505e+01 +1.0860911834e+01 -1.8134119318e+00 1.8726420548e+01 0.0000000000e+00 0.0000e+00 -1.0000e+00
</event>
<event>
 9      3 +1.0086356e-04 9.11880000e+01 7.81616400e-03 1.18400000e-01
      -11 -1    0    0    0    0 +0.0000000000e+00 +0.0000000000e+00 +4.5593999997e+01 4.5594000000e+01 5.1100000000e-04 0.0000e+00 -1.0000e+00
       11 -1    0    0    0    0 -0.0000000000e+00 -0.0000000000e+00 -4.5593999997e+01 4.5594000000e+01 5.1100000000e-04 0.0000e+00 1.0000e+00
       23  2    1    2    0    0 +0.0000000000e+00 +3.5527136788e-15 -2.2204460493e-16 9.1188000000e+01 9.1188000000e+01 5.6478e-14 0.0000e+00
  9990012  2    3    3    0    0 +2.9342961882e+00 +1.8481692643e+01 -7.0612293049e-01 7.2461503620e+01 6.9999913145e+01 8.5003e-04 0.0000e+00
       24  2    4    4    0    0 -4.0499443422e+00 +1.7826431129e+01 -4.2113625410e+00 6.4619584951e+01 6.1836651662e+01 2.7957e-15 0.0000e+00
      -11  1    5    5    0    0 -1.5990997371e+01 -1.9151694093e+01 -6.2056495826e+00 2.5710104445e+01 5.1100000000e-04 0.0000e+00 1.0000e+00
       11  1    4    4    0    0 +6.9842405304e+00 +6.5526151328e-01 +3.5052396105e+00 7.8419186699e+00 5.1100000000e-04 0.0000e+00 -1.0000e+00
       12  1    5    5    0    0 +1.1941053028e+01 +3.6978125223e+01 +1.9942870417e+00 3.8909480506e+01 0.0000000000e+00 0.0000e+00 -1.0000e+00
      -12  1    3    3    0    0 -2.9342961882e+00 -1.8481692643e+01 +7.0612293049e-01 1.8726496380e+01 0.0000000000e+00 0.0000e+00 1.0000e+00
</event>
<event>
 8      3 +1.0086356e-04 9.11880000e+01 7.81616400e-03 1.18400000e-01
      -11 -1    0    0    0    0 +0.0000000000e+00 +0.0000000000e+00 +4.5593999997e+01 4.5594000000e+01 5.1100000000e-04 0.0000e+00 1.0000e+00
       11 -1    0    0    0    0 -0.0000000000e+00 -0.0000000000e+00 -4.5593999997e+01 4.5594000000e+01 5.1100000000e-04 0.0000e+00 -1.0000e+00
       23  2    1    2    0    0 -1.7763568394e-15 -1.7763568394e-15 -1.7763568394e-15 9.1188000000e+01 9.1188000000e+01 1.1941e-13 0.0000e+00
  9990012  2    3    3    0    0 +1.4785048934e+01 +9.9923513084e+00 +5.6775573236e+00 7.2461563772e+01 6.9999991503e+01 1.4478e-04 0.0000e+00
      -11  1    4    4    0    0 -3.4325238269e+00 +5.0977642176e+00 +1.9879572332e+01 2.0807854675e+01 5.1100000000e-04 0.0000e+00 1.0000e+00
       11  1    4    4    0    0 -1.3322246079e+01 +8.9002593892e-01 -1.4697579547e+01 1.9856818263e+01 5.1100000000e-04 0.0000e+00 -1.0000e+00
       12  1    4    4    0    0 +3.1539818839e+01 +4.0045611518e+00 +4.9556453875e-01 3.1796890833e+01 0.0000000000e+00 0.0000e+00 -1.0000e+00
      -12  1    3    3    0    0 -1.4785048934e+01 -9.9923513084e+00 -5.6775573236e+00 1.8726436228e+01 0.0000000000e+00 0.0000e+00 1.0000e+00
</event>
<event>
 9      3 +1.0086356e-04 9.11880000e+01 7.81616400e-03 1.18400000e-01
      -11 -1    0    0    0    0 +0.0000000000e+00 +0.0000000000e+00 +4.5593999997e+01 4.5594000000e+01 5.1100000000e-04 0.0000e+00 1.0000e+00
       11 -1    0    0    0    0 -0.0000000000e+00 -0.0000000000e+00 -4.5593999997e+01 4.5594000000e+01 5.1100000000e-04 0.0000e+00 -1.0000e+00
       23  2    1    2    0    0 +0.0000000000e+00 +0.0000000000e+00 +1.7763568394e-15 9.1188000000e+01 9.1188000000e+01 3.7441e-14 0.0000e+00
  9990012  2    3    3    0    0 -1.2675555334e+01 -3.4825773174e+00 -1.3337213947e+01 7.2461566178e+01 6.9999994638e+01 2.0679e-04 0.0000e+00
       23  2    4    4    0    0 -1.8713047290e+01 -5.4441447678e-01 -1.2276240934e+01 6.5663789061e+01 6.1729673386e+01 1.5496e-14 0.0000e+00
      -11  1    5    5    0    0 +1.7464459158e+01 -1.2789980075e+01 -1.6526179641e+01 2.7234271384e+01 5.1100000000e-04 0.0000e+00 1.0000e+00
       11  1    5    5    0    0 -3.6177506449e+01 +1.2245565599e+01 +4.2499387066e+00 3.8429517678e+01 5.1100000000e-04 0.0000e+00 -1.0000e+00
       12  1    4    4    0    0 +6.0374919562e+00 -2.9381628406e+00 -1.0609730135e+00 6.7977771171e+00 0.0000000000e+00 0.0000e+00 -1.0000e+00
      -12  1    3    3    0    0 +1.2675555334e+01 +3.4825773174e+00 +1.3337213947e+01 1.8726433822e+01 0.0000000000e+00 0.0000e+00 1.0000e+00
</event>
<event>
 8      4 +1.0086356e-04 9.11880000e+01 7.81616400e-03 1.18400000e-01
      -11 -1    0    0    0    0 +0.0000000000e+00 +0.0000000000e+00 +4.5593999997e+01 4.5594000000e+01 5.1100000000e-04 0.0000e+00 1.0000e+00
       11 -1    0    0    0    0 -0.0000000000e+00 -0.0000000000e+00 -4.5593999997e+01 4.5594000000e+01 5.1100000000e-04 0.0000e+00 -1.0000e+00
       23  2    1    2    0    0 +0.0000000000e+00 +2.2204460493e-15 +2.2204460493e-16 9.1188000000e+01 9.1188000000e+01 8.4634e-15 0.0000e+00
 -9990012  2    3    3    0    0 -1.8578880843e+01 -2.2056931163e+00 +8.0040796097e-01 7.2461533478e+01 6.9999952040e+01 1.4641e-04 0.0000e+00
      -11  1    4    4    0    0 -2.4110049712e+01 +3.6806844914e+00 +1.1883619217e+01 2.7130468875e+01 5.1100000000e-04 0.0000e+00 1.0000e+00
       11  1    4    4    0    0 -2.6126853574e+00 +1.6249320317e+01 -1.3945429373e+01 2.1571776380e+01 5.1100000000e-04 0.0000e+00 -1.0000e+00
      -12  1    4    4    0    0 +8.1438542265e+00 -2.2135697925e+01 +2.8622181164e+00 2.3759288222e+01 0.0000000000e+00 0.0000e+00 1.0000e+00
       12  1    3    3    0    0 +1.8578880843e+01 +2.2056931163e+00 -8.0040796097e-01 1.8726466522e+01 0.0000000000e+00 0.0000e+00 -1.0000e+00
</event>
<event>
 8      4 +1.0086356e-04 9.11880000e+01 7.81616400e-03 1.18400000e-01
      -11 -1    0    0    0    0 +0.0000000000e+00 +0.0000000000e+00 +4.5593999997e+01 4.5594000000e+01 5.1100000000e-04 0.0000e+00 1.0000e+00
       11 -1    0    0    0    0 -0.0000000000e+00 -0.0000000000e+00 -4.5593999997e+01 4.5594000000e+01 5.1100000000e-04 0.0000e+00 -1.0000e+00
       23  2    1    2    0    0 +0.0000000000e+00 +0.0000000000e+00 +3.5527136788e-15 9.1188000000e+01 9.1188000000e+01 1.2858e-13 0.0000e+00
 -9990012  2    3    3    0    0 +7.7775321727e+00 -1.4751518218e+01 +8.5194582677e+00 7.2461589089e+01 7.0000024483e+01 3.5433e-05 0.0000e+00
      -11  1    4    4    0    0 +9.9665033173e+00 -2.3273268121e+00 -2.5123898027e+01 2.7128543838e+01 5.1100000000e-04 0.0000e+00 -1.0000e+00
       11  1    4    4    0    0 -8.7530187494e+00 +9.6927806923e-01 +3.0681746075e-01 8.8118655470e+00 5.1100000000e-04 0.0000e+00 1.0000e+00
      -12  1    4    4    0    0 +6.5640476048e+00 -1.3393469476e+01 +3.3336538833e+01 3.6521179704e+01 0.0000000000e+00 0.0000e+00 1.0000e+00
       12  1    3    3    0    0 -7.7775321727e+00 +1.4751518218e+01 -8.5194582677e+00 1.8726410911e+01 0.0000000000e+00 0.0000e+00 -1.0000e+00
</event>
<event>
 8      3 +1.0086356e-04 9.11880000e+01 7.81616400e-03 1.18400000e-01
      -11 -1    0    0    0    0 +0.0000000000e+00 +0.0000000000e+00 +4.5593999997e+01 4.5594000000e+01 5.1100000000e-04 0.0000e+00 -1.0000e+00
       11 -1    0    0    0    0 -0.0000000000e+00 -0.0000000000e+00 -4.5593999997e+01 4.5594000000e+01 5.1100000000e-04 0.0000e+00 1.0000e+00
       23  2    1    2    0    0 +8.8817841970e-16 +0.0000000000e+00 +3.9968028887e-15 9.1188000000e+01 9.1188000000e+01 7.0492e-14 0.0000e+00
  9990012  2    3    3    0    0 +2.9719056382e+00 -1.8229555963e+01 +3.0871290684e+00 7.2461566821e+01 6.9999995475e+01 2.4471e-04 0.0000e+00
      -11  1    4    4    0    0 -1.1046623305e+00 -5.0951914055e+00 -1.3046374347e+01 1.4049524483e+01 5.1100000000e-04 0.0000e+00 1.0000e+00
       11  1    4    4    0    0 +1.1894318312e+01 +1.5247925389e+01 +2.1028336250e+01 2.8568600989e+01 5.1100000000e-04 0.0000e+00 -1.0000e+00
       12  1    4    4    0    0 -7.8177503436e+00 -2.8382289947e+01 -4.8948328347e+00 2.9843441349e+01 0.0000000000e+00 0.0000e+00 -1.0000e+00
      -12  1    3    3    0    0 -2.9719056382e+00 +1.8229555963e+01 -3.0871290684e+00 1.8726433179e+01 0.0000000000e+00 0.0000e+00 1.0000e+00
</event>
<event>
 8      4 +1.0086356e-04 9.11880000e+01 7.81616400e-03 1.18400000e-01
      -11 -1    0    0    0    0 +0.0000000000e+00 +0.0000000000e+00 +4.5593999997e+01 4.5594000000e+01 5.1100000000e-04 0.0000e+00 1.0000e+00
       11 -1    0    0    0    0 -0.0000000000e+00 -0.0000000000e+00 -4.5593999997e+01 4.5594000000e+01 5.1100000000e-04 0.0000e+00 -1.0000e+00
       23  2    1    2    0    0 +0.0000000000e+00 +3.1086244690e-15 +1.3322676296e-15 9.1188000000e+01 9.1188000000e+01 2.0453e-14 0.0000e+00
 -9990012  2    3    3    0    0 +1.8384604263e+01 -3.1496078605e+00 +1.6629810012e+00 7.2461569230e+01 6.9999998613e+01 5.6025e-04 0.0000e+00
      -11  1    4    4    0    0 +1.6344823568e+01 -1.6684733763e+01 -7.9881049158e+00 2.4684882390e+01 5.1100000000e-04 0.0000e+00 1.0000e+00
       11  1    4    4    0    0 -1.7122921950e+01 +1.2719241447e+01 -6.9252390309e+00 2.2426156492e+01 5.1100000000e-04 0.0000e+00 -1.0000e+00
      -12  1    4    4    0    0 +1.9162702645e+01 +8.1588445494e-01 +1.6576324948e+01 2.5350530348e+01 0.0000000000e+00 0.0000e+00 1.0000e+00
       12  1    3    3    0    0 -1.8384604263e+01 +3.1496078605e+00 -1.6629810012e+00 1.8726430770e+01 0.0000000000e+00 0.0000e+00 -1.0000e+00
</event>
<event>
 9      4 +1.0086356e-04 9.11880000e+01 7.81616400e-03 1.18400000e-01
      -11 -1    0    0    0    0 +0.0000000000e+00 +0.0000000000e+00 +4.5593999997e+01 4.5594000000e+01 5.1100000000e-04 0.0000e+00 -1.0000e+00
       11 -1    0    0    0    0 -0.0000000000e+00 -0.0000000000e+00 -4.5593999997e+01 4.5594000000e+01 5.1100000000e-04 0.0000e+00 1.0000e+00
       23  2    1    2    0    0 -8.8817841970e-16 -3.5527136788e-15 +0.0000000000e+00 9.1188000000e+01 9.1188000000e+01 3.4779e-13 0.0000e+00
 -9990012  2    3    3    0    0 -5.6796044876e+00 -1.6058071482e+01 -7.7819731394e+00 7.2461583557e+01 7.0000017277e+01 2.7540e-05 0.0000e+00
      -24  2    4    4    0    0 -7.9381356662e+00 -1.0851100179e+01 +4.4606030773e+00 5.8967355683e+01 5.7240647127e+01 1.2127e-13 0.0000e+00
      -11  1    4    4    0    0 +2.2585311786e+00 -5.2069713028e+00 -1.2242576217e+01 1.3494227874e+01 5.1100000000e-04 0.0000e+00 1.0000e+00
       11  1    5    5    0    0 +1.3558003819e+01 -2.6973351348e+01 +9.4587364972e+00 3.1636195203e+01 5.1100000000e-04 0.0000e+00 -1.0000e+00
      -12  1    5    5    0    0 -2.1496139485e+01 +1.6122251169e+01 -4.9981334198e+00 2.7331160481e+01 0.0000000000e+00 0.0000e+00 1.0000e+00
       12  1    3    3    0    0 +5.6796044876e+00 +1.6058071482e+01 +7.7819731394e+00 1.8726416443e+01 0.0000000000e+00 0.0000e+00 -1.0000e+00
</event>
<event>
 8      3 +1.0086356e-04 9.11880000e+01 7.81616400e-03 1.18400000e-01
      -11 -1    0    0    0    0 +0.0000000000e+00 +0.0000000000e+00 +4.5593999997e+01 4.5594000000e+01 5.1100000000e-04 0.0000e+00 -1.0000e+00
       11 -1    0    0    0    0 -0.0000000000e+00 -0.0000000000e+00 -4.5593999997e+01 4.5594000000e+01 5.1100000000e-04 0.0000e+00 1.0000e+00
       23  2    1    2    0    0 +0.0000000000e+00 +3.1086244690e-15 +4.4408920985e-16 9.1188000000e+01 9.1188000000e+01 7.8138e-13 0.0000e+00
  9990012  2    3    3    0    0 -1.8175921751e+01 +3.8217405120e+00 -2.3892320363e+00 7.2461594531e+01 7.0000031573e+01 3.8105e-04 0.0000e+00
      -11  1    4    4    0    0 -2.9416348971e-01 -2.5434625885e+00 -1.5393576306e+01 1.5605060905e+01 5.1100000000e-04 0.0000e+00 1.0000e+00
       11  1    4    4    0    0 +5.5966536050e+00 +2.4626824908e+01 +2.7952405614e+00 2.5408982795e+01 5.1100000000e-04 0.0000e+00 -1.0000e+00
       12  1    4    4    0    0 -2.3478411867e+01 -1.8261621807e+01 +1.0209103708e+01 3.1447550832e+01 0.0000000000e+00 0.0000e+00 -1.0000e+00
      -12  1    3    3    0    0 +1.8175921751e+01 -3.8217405120e+00 +2.3892320363e+00 1.8726405469e+01 0.0000000000e+00 0.0000e+00 1.0000e+00
</event>
<event>
 8      4 +1.0086356e-04 9.11880000e+01 7.81616400e-03 1.18400000e-01
      -11 -1    0    0    0    0 +0.0000000000e+00 +0.0000000000e+00 +4.5593999997e+01 4.5594000000e+01 5.1100000000e-04 0.0000e+00 1.0000e+00
       11 -1    0    0    0    0 -0.0000000000e+00 -0.0000000000e+00 -4.5593999997e+01 4.5594000000e+01 5.1100000000e-04 0.0000e+00 -1.0000e+00
       23  2    1    2    0    0 -1.7763568394e-15 +0.0000000000e+00 +1.7763568394e-15 9.1188000000e+01 9.1188000000e+01 1.9509e-14 0.0000e+00
 -9990012  2    3    3    0    0 +3.9129797244e+00 +1.4003532674e+01 +1.1801258200e+01 7.2461547246e+01 6.9999969975e+01 1.2810e-03 0.0000e+00
      -11  1    4    4    0    0 +1.7742755209e+01 +1.1341677158e+01 +3.3003587756e+00 2.1315050351e+01 5.1100000000e-04 0.0000e+00 1.0000e+00
       11  1    4    4    0    0 -1.7922199432e+01 +1.6204201524e+01 -1.1410933304e+01 2.6720605881e+01 5.1100000000e-04 0.0000e+00 -1.0000e+00
      -12  1    4    4    0    0 +4.0924239475e+00 -1.3542346009e+01 +1.9911832728e+01 2.4425891013e+01 0.0000000000e+00 0.0000e+00 1.0000e+00
       12  1    3    3    0    0 -3.9129797244e+00 -1.4003532674e+01 -1.1801258200e+01 1.8726452754e+01 0.0000000000e+00 0.0000e+00 -1.0000e+00
</event>
<event>
 8      4 +1.0086356e-04 9.11880000e+01 7.81616400e-03 1.18400000e-01
      -11 -1    0    0    0    0 +0.0000000000e+00 +0.0000000000e+00 +4.5593999997e+01 4.5594000000e+01 5.1100000000e-04 0.0000e+00 1.0000e+00
       11 -1    0    0    0    0 -0.0000000000e+00 -0.0000000000e+00 -4.5593999997e+01 4.5594000000e+01 5.1100000000e-04 0.0000e+00 -1.0000e+00
       23  2    1    2    0    0 -1.2212453271e-15 +0.0000000000e+00 +0.0000000000e+00 9.1188000000e+01 9.1188000000e+01 4.2904e-14 0.0000e+00
 -9990012  2    3    3    0    0 -7.6808062725e-01 -9.1541268349e+00 +1.6318599963e+01 7.2461422878e+01 6.9999807963e+01 8.5952e-05 0.0000e+00
      -11  1    4    4    0    0 -1.4246291878e+01 +9.9844129242e+00 +2.5550037093e+01 3.0910349876e+01 5.1100000000e-04 0.0000e+00 1.0000e+00
       11  1    4    4    0    0 -4.1886528885e+00 +5.9277072542e+00 -8.0822705062e+00 1.0863039313e+01 5.1100000000e-04 0.0000e+00 -1.0000e+00
      -12  1    4    4    0    0 +1.7666864139e+01 -2.5066247013e+01 -1.1491666244e+00 3.0688033690e+01 0.0000000000e+00 0.0000e+00 1.0000e+00
       12  1    3    3    0    0 +7.6808062725e-01 +9.1541268349e+00 -1.6318599963e+01 1.8726577122e+01 0.0000000000e+00 0.0000e+00 -1.0000e+00
</event>
<event>
 9      4 +1.0086356e-04 9.11880000e+01 7.81616400e-03 1.18400000e-01
      -11 -1    0    0    0    0 +0.0000000000e+00 +0.0000000000e+00 +4.5593999997e+01 4.5594000000e+01 5.1100000000e-04 0.0000e+00 1.0000e+00
       11 -1    0    0    0    0 -0.0000000000e+00 -0.0000000000e+00 -4.5593999997e+01 4.5594000000e+01 5.1100000000e-04 0.0000e+00 -1.0000e+00
       23  2    1    2    0    0 +3.5527136788e-15 -4.4408920985e-16 -4.4408920985e-15 9.1188000000e+01 9.1188000000e+01 2.7543e-13 0.0000e+00
 -9990012  2    3    3    0    0 -1.7427003639e+01 +2.9842506635e+00 +6.1703399434e+00 7.2461566734e+01 6.9999995361e+01 2.6825e-04 0.0000e+00
      -24  2    4    4    0    0 -2.0688617613e+01 -4.1272190039e+00 +8.8298060737e+00 6.4198160238e+01 5.9986544051e+01 9.6183e-15 0.0000e+00
      -11  1    4    4    0    0 +3.2616139742e+00 +7.1114696674e+00 -2.6594661303e+00 8.2634064953e+00 5.1100000000e-04 0.0000e+00 1.0000e+00
       11  1    5    5    0    0 -5.8024150245e+00 +1.7188994186e+00 -2.5562563369e+01 2.6269131725e+01 5.1100000000e-04 0.0000e+00 -1.0000e+00
      -12  1    5    5    0    0 -1.4886202589e+01 -5.8461184225e+00 +3.4392369442e+01 3.7929028514e+01 0.0000000000e+00 0.0000e+00 1.0000e+00
       12  1    3    3    0    0 +1.7427003639e+01 -2.9842506635e+00 -6.1703399434e+00 1.8726433266e+01 0.0000000000e+00 0.0000e+00 -1.0000e+00
</event>
<event>
 8      3 +1.0086356e-04 9.11880000e+01 7.81616400e-03 1.18400000e-01
      -11 -1    0    0    0    0 +0.0000000000e+00 +0.0000000000e+00 +4.5593999997e+01 4.5594000000e+01 5.1100000000e-04 0.0000e+00 1.0000e+00
       11 -1    0    0    0    0 -0.0000000000e+00 -0.0000000000e+00 -4.5593999997e+01 4.5594000000e+01 5.1100000000e-04 0.0000e+00 -1.0000e+00
       23  2    1    2    0    0 +1.7763568394e-15 -8.3266726847e-17 -1.7763568394e-15 9.1188000000e+01 9.1188000000e+01 1.1060e-13 0.0000e+00
  9990012  2    3    3    0    0 -1.1948801558e+01 +1.7630924078e-01 -1.4417841035e+01 7.2461572585e+01 7.0000002984e+01 9.6881e-05 0.0000e+00
      -11  1    4    4    0    0 -5.2366679078e+00 +8.1104468946e+00 +1.3832692706e+01 1.6868474364e+01 5.1100000000e-04 0.0000e+00 1.0000e+00
       11  1    4    4    0    0 +1.8102413548e+01 -1.1663545399e+01 -6.8045777030e+00 2.2584019694e+01 5.1100000000e-04 0.0000e+00 -1.0000e+00
       12  1    4    4    0    0 -2.4814547198e+01 +3.7294077451e+00 -2.1445956039e+01 3.3009078527e+01 0.0000000000e+00 0.0000e+00 -1.0000e+00
      -12  1    3    3    0    0 +1.1948801558e+01 -1.7630924078e-01 +1.4417841035e+01 1.8726427415e+01 0.0000000000e+00 0.0000e+00 1.0000e+00
</event>
<event>
 9      3 +1.0086356e-04 9.11880000e+01 7.81616400e-03 1.18400000e-01
      -11 -1    0    0    0    0 +0.0000000000e+00 +0.0000000000e+00 +4.5593999997e+01 4.5594000000e+01 5.1100000000e-04 0.0000e+00 -1.0000e+00
       11 -1    0    0    0    0 -0.0000000000e+00 -0.0000000000e+00 -4.5593999997e+01 4.5594000000e+01 5.1100000000e-04 0.0000e+00 1.0000e+00
       23  2    1    2    0    0 -7.1054273576e-15 -1.7763568394e-15 +8.8817841970e-16 9.1188000000e+01 9.1188000000e+01 1.1229e-14 0.0000e+00
  9990012  2    3    3    0    0 +1.6286852914e+01 +5.4187622107e+00 +7.4867992600e+00 7.2461635567e+01 7.0000085029e+01 1.1932e-04 0.0000e+00
       24  2    4    4    0    0 +1.9728031122e+01 +5.0331763909e+00 +7.0870384112e+00 6.8975922888e+01 6.5520407113e+01 8.5482e-14 0.0000e+00
      -11  1    5    5    0    0 -1.9632386549e+01 +1.7504778388e+01 -2.9973690390e+00 2.6473233453e+01 5.1100000000e-04 0.0000e+00 1.0000e+00
       11  1    4    4    0    0 -3.4411782080e+00 +3.8558581983e-01 +3.9976084886e-01 3.4857126791e+00 5.1100000000e-04 0.0000e+00 -1.0000e+00
       12  1    5    5    0    0 +3.9360417671e+01 -1.2471601997e+01 +1.0084407450e+01 4.2502689435e+01 0.0000000000e+00 0.0000e+00 -1.0000e+00
      -12  1    3    3    0    0 -1.6286852914e+01 -5.4187622107e+00 -7.4867992600e+00 1.8726364433e+01 0.0000000000e+00 0.0000e+00 1.0000e+00
</event>
<event>
 9      3 +1.0086356e-04 9.11880000e+01 7.81616400e-03 1.18400000e-01
      -11 -1    0    0    0    0 +0.0000000000e+00 +0.0000000000e+00 +4.5593999997e+01 4.5594000000e+01 5.1100000000e-04 0.0000e+00 1.0000e+00
       11 -1    0    0    0    0 -0.0000000000e+00 -0.0000000000e+00 -4.5593999997e+01 4.5594000000e+01 5.1100000000e-04 0.0000e+00 -1.0000e+00
       23  2    1    2    0    0 -1.7763568394e-15 +0.0000000000e+00 +8.8817841970e-16 9.1188000000e+01 9.1188000000e+01 1.4756e-13 0.0000e+00
  9990012  2    3    3    0    0 -7.3676707873e+00 -1.5436474233e+01 -7.6230343133e+00 7.2461602543e+01 7.0000042010e+01 2.4457e-04 0.0000e+00
       24  2    4    4    0    0 -1.0597460861e+01 -2.3167710262e+01 -1.8136897656e+01 5.9017463407e+01 5.0050623921e+01 6.3108e-14 0.0000e+00
      -11  1    5    5    0    0 -2.4304250134e+01 +4.3803275468e+00 -3.4956222755e+00 2.4941997100e+01 5.1100000000e-04 0.0000e+00 1.0000e+00
       11  1    4    4    0    0 +3.2297900736e+00 +7.7312360283e+00 +1.0513863343e+01 1.3444139136e+01 5.1100000000e-04 0.0000e+00 -1.0000e+00
       12  1    5    5    0    0 +1.3706789273e+01 -2.7548037808e+01 -1.4641275381e+01 3.4075466307e+01 0.0000000000e+00 0.0000e+00 -1.0000e+00
      -12  1    3    3    0    0 +7.3676707873e+00 +1.5436474233e+01 +7.6230343133e+00 1.8726397457e+01 0.0000000000e+00 0.0000e+00 1.0000e+00
</event>
<event>
 8      4 +1.0086356e-04 9.11880000e+01 7.81616400e-03 1.18400000e-01
      -11 -1    0    0    0    0 +0.0000000000e+00 +0.0000000000e+00 +4.5593999997e+01 4.5594000000e+01 5.1100000000e-04 0.0000e+00 1.0000e+00
       11 -1    0    0    0    0 -0.0000000000e+00 -0.0000000000e+00 -4.5593999997e+01 4.5594000000e+01 5.1100000000e-04 0.0000e+00 -1.0000e+00
       23  2    1    2    0    0 +0.0000000000e+00 -1.3322676296e-15 +0.0000000000e+00 9.1188000000e+01 9.1188000000e+01 2.8871e-15 0.0000e+00
 -9990012  2    3    3    0    0 +1.0776112136e+01 +2.0260757140e+00 +1.5180573349e+01 7.2461564601e+01 6.9999992583e+01 1.4753e-04 0.0000e+00
      -11  1    4    4    0    0 +1.4373947095e+01 +3.1976242190e-01 -6.4833083775e+00 1.5771680027e+01 5.1100000000e-04 0.0000e+00 1.0000e+00
       11  1    4    4    0    0 -1.2801385773e+01 +2.4523341382e+01 +9.5458914892e+00 2.9264206718e+01 5.1100000000e-04 0.0000e+00 -1.0000e+00
      -12  1    4    4    0    0 +9.2035508142e+00 -2.2817028090e+01 +1.2117990237e+01 2.7425677856e+01 0.0000000000e+00 0.0000e+00 1.0000e+00
       12  1    3    3    0    0 -1.0776112136e+01 -2.0260757140e+00 -1.5180573349e+01 1.8726435399e+01 0.0000000000e+00 0.0000e+00 -1.0000e+00
</event>
<event>
 8      3 +1.0086356e-04 9.11880000e+01 7.81616400e-03 1.18400000e-01
      -11 -1    0    0    0    0 +0.0000000000e+00 +0.0000000000e+00 +4.5593999997e+01 4.5594000000e+01 5.1100000000e-04 0.0000e+00 -1.0000e+00
       11 -1    0    0    0    0 -0.0000000000e+00 -0.0000000000e+00 -4.5593999997e+01 4.5594000000e+01 5.1100000000e-04 0.0000e+00 1.0000e+00
       23  2    1    2    0    0 +4.8849813084e-15 +3.5527136788e-15 -3.5527136788e-15 9.1188000000e+01 9.1188000000e+01 1.4311e-13 0.0000e+00
  9990012  2    3    3    0    0 +3.7756955138e+00 +1.8045264983e+01 -3.2849021144e+00 7.2461600271e+01 7.0000039050e+01 5.4214e-04 0.0000e+00
      -11  1    4    4    0    0 -3.5690265581e+00 +1.6126286187e+01 -2.0524311489e+01 2.6344684836e+01 5.1100000000e-04 0.0000e+00 1.0000e+00
       11  1    4    4    0    0 -1.7039882607e+01 +3.9346607115e+00 +1.1666464635e+01 2.1022501076e+01 5.1100000000e-04 0.0000e+00 -1.0000e+00
       12  1    4    4    0    0 +2.4384604679e+01 -2.0156819158e+00 +5.5729447395e+00 2.5094414358e+01 0.0000000000e+00 0.0000e+00 -1.0000e+00
      -12  1    3    3    0    0 -3.7756955138e+00 -1.8045264983e+01 +3.2849021144e+00 1.8726399729e+01 0.0000000000e+00 0.0000e+00 1.0000e+00
</event>
<event>
 8      3 +1.0086356e-04 9.11880000e+01 7.81616400e-03 1.18400000e-01
      -11 -1    0    0    0    0 +0.0000000000e+00 +0.0000000000e+00 +4.5593999997e+01 4.5594000000e+01 5.1100000000e-04 0.0000e+00 1.0000e+00
       11 -1    0    0    0    0 -0.0000000000e+00 -0.0000000000e+00 -4.5593999997e+01 4.5594000000e+01 5.1100000000e-04 0.0000e+00 -1.0000e+00
       23  2    1    2    0    0 +1.7763568394e-15 +1.5543122345e-15 -1.7763568394e-15 9.1188000000e+01 9.1188000000e+01 1.6018e-14 0.0000e+00
  9990012  2    3    3    0    0 -1.1200773202e+01 +1.0705236179e+00 -1.4969173389e+01 7.2461561655e+01 6.9999988746e+01 1.9887e-04 0.0000e+00
      -11  1    4    4    0    0 -2.0455303519e+01 +2.6854381618e+01 +5.0847666458e+00 3.4138425656e+01 5.1100000000e-04 0.0000e+00 1.0000e+00
       11  1    4    4    0    0 +6.5754479581e+00 -1.7967152886e+01 -2.9913311452e+00 1.9364998346e+01 5.1100000000e-04 0.0000e+00 -1.0000e+00
       12  1    4    4    0    0 +2.6790823591e+00 -7.8167051148e+00 -1.7062608890e+01 1.8958137653e+01 0.0000000000e+00 0.0000e+00 -1.0000e+00
      -12  1    3    3    0    0 +1.1200773202e+01 -1.0705236179e+00 +1.4969173389e+01 1.8726438345e+01 0.0000000000e+00 0.0000e+00 1.0000e+00
</event>
<event>
 9      3 +1.0086356e-04 9.11880000e+01 7.81616400e-03 1.18400000e-01
      -11 -1    0    0    0    0 +0.0000000000e+00 +0.0000000000e+00 +4.5593999997e+01 4.5594000000e+01 5.1100000000e-04 0.0000e+00 1.0000e+00
       11 -1    0    0    0    0 -0.0000000000e+00 -0.0000000000e+00 -4.5593999997e+01 4.5594000000e+01 5.1100000000e-04 0.0000e+00 -1.0000e+00
       23  2    1    2    0    0 +0.0000000000e+00 -4.4408920985e-16 -8.8817841970e-16 9.1188000000e+01 9.1188000000e+01 1.9921e-14 0.0000e+00
  9990012  2    3    3    0    0 +1.7581055991e+01 +1.8372822984e+00 -6.1814971997e+00 7.2461546956e+01 6.9999969597e+01 3.3938e-04 0.0000e+00
       24  2    4    4    0    0 +2.2736750933e+01 -1.2790308027e+01 -5.0262709714e-01 5.5944974825e+01 4.9487733346e+01 1.2933e-13 0.0000e+00
      -11  1    5    5    0    0 +2.7008846700e+01 -4.3763608811e+00 +1.9654287221e+01 3.3688593635e+01 5.1100000000e-04 0.0000e+00 1.0000e+00
       11  1    4    4    0    0 -5.1556949418e+00 +1.4627590325e+01 -5.6788701025e+00 1.6516572131e+01 5.1100000000e-04 0.0000e+00 -1.0000e+00
       12  1    5    5    0    0 -4.2720957679e+00 -8.4139471458e+00 -2.0156914319e+01 2.2256381190e+01 0.0000000000e+00 0.0000e+00 -1.0000e+00
      -12  1    3    3    0    0 -1.7581055991e+01 -1.8372822984e+00 +6.1814971997e+00 1.8726453044e+01 0.0000000000e+00 0.0000e+00 1.0000e+00
</event>
<event>
 9      3 +1.0086356e-04 9.11880000e+01 7.81616400e-03 1.18400000e-01
      -11 -1    0    0    0    0 +0.0000000000e+00 +0.0000000000e+00 +4.5593999997e+01 4.5594000000e+01 5.1100000000e-04 0.0000e+00 1.0000e+00
       11 -1    0    0    0    0 -0.0000000000e+00 -0.0000000000e+00 -4.5593999997e+01 4.5594000000e+01 5.1100000000e-04 0.0000e+00 -1.0000e+00
       23  2    1    2    0    0 -1.7763568394e-15 +1.7763568394e-15 -1.3322676296e-15 9.1188000000e+01 9.1188000000e+01 2.5542e-13 0.0000e+00
  9990012  2    3    3    0    0 -1.3047868441e+01 +1.3178949699e+01 +2.5975561993e+00 7.2461577912e+01 7.0000009924e+01 2.1013e-05 0.0000e+00
       24  2    4    4    0    0 -1.9560920760e+01 +1.1736410322e+01 +1.3660234168e+01 5.9543233805e+01 5.3276840618e+01 1.5364e-13 0.0000e+00
      -11  1    5    5    0    0 -2.8695174641e+01 +9.1383960622e+00 -1.1819296671e+01 3.2351493077e+01 5.1100000000e-04 0.0000e+00 1.0000e+00
       11  1    4    4    0    0 +6.5130523194e+00 +1.4425393769e+00 -1.1062677969e+01 1.2918344107e+01 5.1100000000e-04 0.0000e+00 -1.0000e+00
       12  1    5    5    0    0 +9.1342538812e+00 +2.5980142596e+00 +2.5479530839e+01 2.7191740728e+01 0.0000000000e+00 0.0000e+00 -1.0000e+00
      -12  1    3    3    0    0 +1.3047868441e+01 -1.3178949699e+01 -2.5975561993e+00 1.8726422088e+01 0.0000000000e+00 0.0000e+00 1.0000e+00
</event>
<event>
 8      3 +1.0086356e-04 9.11880000e+01 7.81616400e-03 1.18400000e-01
      -11 -1    0    0    0    0 +0.0000000000e+00 +0.0000000000e+00 +4.5593999997e+01 4.5594000000e+01 5.1100000000e-04 0.0000e+00 1.0000e+00
       11 -1    0    0    0    0 -0.0000000000e+00 -0.0000000000e+00 -4.5593999997e+01 4.5594000000e+01 5.1100000000e-04 0.0000e+00 -1.0000e+00
       23  2    1    2    0    0 +2.2204460493e-16 +0.0000000000e+00 +4.4408920985e-16 9.1188000000e+01 9.1188000000e+01 2.5026e-14 0.0000e+00
  9990012  2    3    3    0    0 -1.6694595668e+00 -1.8404315976e+01 -3.0287578910e+00 7.2461566380e+01 6.9999994900e+01 7.7780e-05 0.0000e+00
      -11  1    4    4    0    0 -7.7487450103e+00 -3.0411282532e+01 -5.2047795210e+00 3.1811615561e+01 5.1100000000e-04 0.0000e+00 -1.0000e+00
       11  1    4    4    0    0 +1.6631193529e+01 +2.1832288408e+00 +1.4121861552e+01 2.1926925465e+01 5.1100000000e-04 0.0000e+00 1.0000e+00
       12  1    4    4    0    0 -1.0551908086e+01 +9.8237377158e+00 -1.1945839922e+01 1.8723025354e+01 0.0000000000e+00 0.0000e+00 -1.0000e+00
      -12  1    3    3    0    0 +1.6694595668e+00 +1.8404315976e+01 +3.0287578910e+00 1.8726433620e+01 0.0000000000e+00 0.0000e+00 1.0000e+00
</event>
<event>
 9      3 +1.0086356e-04 9.11880000e+01 7.81616400e-03 1.18400000e-01
      -11 -1    0    0    0    0 +0.0000000000e+00 +0.0000000000e+00 +4.5593999997e+01 4.5594000000e+01 5.1100000000e-04 0.0000e+00 1.0000e+00
       11 -1    0    0    0    0 -0.0000000000e+00 -0.0000000000e+00 -4.5593999997e+01 4.5594000000e+01 5.1100000000e-04 0.0000e+00 -1.0000e+00
       23  2    1    2    0    0 -2.6645352591e-15 +0.0000000000e+00 +1.7763568394e-15 9.1188000000e+01 9.1188000000e+01 2.2537e-14 0.0000e+00
  9990012  2    3    3    0    0 -7.9968621543e+00 +8.3680425840e+00 +1.4720883005e+01 7.2461592511e+01 7.0000028942e+01 5.1550e-04 0.0000e+00
       24  2    4    4    0    0 +3.5200509107e+00 +7.3169508546e+00 +1.3888935885e+01 6.0866929228e+01 5.8702231691e+01 3.2469e-14 0.0000e+00
      -11  1    5    5    0    0 -2.1624635335e+01 +2.3805699234e+00 +2.4822832253e+01 3.3007044216e+01 5.1100000000e-04 0.0000e+00 1.0000e+00
       11  1    4    4    0    0 -1.1516913065e+01 +1.0510917294e+00 +8.3194711959e-01 1.1594663283e+01 5.1100000000e-04 0.0000e+00 -1.0000e+00
       12  1    5    5    0    0 +2.5144686246e+01 +4.9363809311e+00 -1.0933896368e+01 2.7859885012e+01 0.0000000000e+00 0.0000e+00 -1.0000e+00
      -12  1    3    3    0    0 +7.9968621543e+00 -8.3680425840e+00 -1.4720883005e+01 1.8726407489e+01 0.0000000000e+00 0.0000e+00 1.0000e+00
</event>
<event>
 9      4 +1.0086356e-04 9.11880000e+01 7.81616400e-03 1.18400000e-01
      -11 -1    0    0    0    0 +0.0000000000e+00 +0.0000000000e+00 +4.5593999997e+01 4.5594000000e+01 5.1100000000e-04 0.0000e+00 1.0000e+00
       11 -1    0    0    0    0 -0.0000000000e+00 -0.0000000000e+00 -4.5593999997e+01 4.5594000000e+01 5.1100000000e-04 0.0000e+00 -1.0000e+00
       23  2    1    2    0    0 +1.7763568394e-15 +0.0000000000e+00 -8.8817841970e-16 9.1188000000e+01 9.1188000000e+01 1.3072e-13 0.0000e+00
 -9990012  2    3    3    0    0 +1.5315413333e+01 -8.1167706394e+00 +7.0877951686e+00 7.2461529657e+01 6.9999947062e+01 3.0376e-04 0.0000e+00
      -24  2    4    4    0    0 +9.7110982696e+00 -2.0444444489e+01 +1.3934616254e+01 5.7287247166e+01 5.0748146938e+01 2.0355e-14 0.0000e+00
      -11  1    4    4    0    0 +5.6043150630e+00 +1.2327673850e+01 -6.8468210853e+00 1.5174282491e+01 5.1100000000e-04 0.0000e+00 1.0000e+00
       11  1    5    5    0    0 -7.2383990030e+00 +9.0249379918e+00 +1.9661054325e+01 2.2812298948e+01 5.1100000000e-04 0.0000e+00 -1.0000e+00
      -12  1    5    5    0    0 +1.6949497273e+01 -2.9469382481e+01 -5.7264380710e+00 3.4474948218e+01 0.0000000000e+00 0.0000e+00 1.0000e+00
       12  1    3    3    0    0 -1.5315413333e+01 +8.1167706394e+00 -7.0877951686e+00 1.8726470343e+01 0.0000000000e+00 0.0000e+00 -1.0000e+00
</event>
<event>
 9      3 +1.0086356e-04 9.11880000e+01 7.81616400e-03 1.18400000e-01
      -11 -1    0    0    0    0 +0.0000000000e+00 +0.0000000000e+00 +4.5593999997e+01 4.5594000000e+01 5.1100000000e-04 0.0000e+00 1.0000e+00
       11 -1    0    0    0    0 -0.0000000000e+00 -0.0000000000e+00 -4.5593999997e+01 4.5594000000e+01 5.1100000000e-04 0.0000e+00 -1.0000e+00
       23  2    1    2    0    0 +0.0000000000e+00 -1.7763568394e-15 +3.5527136788e-15 9.1188000000e+01 9.1188000000e+01 7.2452e-14 0.0000e+00
  9990012  2    3    3    0    0 -9.9482167028e+00 +8.1274002115e+00 -1.3625608339e+01 7.2461578762e+01 7.0000011031e+01 9.8906e-05 0.0000e+00
       24  2    4    4    0    0 +3.7712260292e+00 +4.8237824836e+00 -3.3154849504e+00 5.4984861578e+01 5.4542199617e+01 9.3699e-15 0.0000e+00
      -11  1    5    5    0    0 +3.0794730729e+00 -1.5976308406e+01 -2.1764045259e+01 2.7173502737e+01 5.1100000000e-04 0.0000e+00 1.0000e+00
       11  1    4    4    0    0 -1.3719442732e+01 +3.3036177278e+00 -1.0310123389e+01 1.7476717184e+01 5.1100000000e-04 0.0000e+00 -1.0000e+00
       12  1    5    5    0    0 +6.9175295630e-01 +2.0800090890e+01 +1.8448560308e+01 2.7811358842e+01 0.0000000000e+00 0.0000e+00 -1.0000e+00
      -12  1    3    3    0    0 +9.9482167028e+00 -8.1274002115e+00 +1.3625608339e+01 1.8726421238e+01 0.0000000000e+00 0.0000e+00 1.0000e+00
</event>
<event>
 8      4 +1.0086356e-04 9.11880000e+01 7.81616400e-03 1.18400000e-01
      -11 -1    0    0    0    0 +0.0000000000e+00 +0.0000000000e+00 +4.5593999997e+01 4.5594000000e+01 5.1100000000e-04 0.0000e+00 -1.0000e+00
       11 -1    0    0    0    0 -0.0000000000e+00 -0.0000000000e+00 -4.5593999997e+01 4.5594000000e+01 5.1100000000e-04 0.0000e+00 1.0000e+00
       23  2    1    2    0    0 +3.5527136788e-15 -3.5527136788e-15 +0.0000000000e+00 9.1188000000e+01 9.1188000000e+01 3.6131e-14 0.0000e+00
 -9990012  2    3    3    0    0 -9.0657057457e+00 +1.4207973786e+01 -8.1625087260e+00 7.2461545758e+01 6.9999968037e+01 5.7069e-04 0.0000e+00
      -11  1    4    4    0    0 +9.5227205758e+00 +1.0626286688e+01 -2.3780211153e+01 2.7732627331e+01 5.1100000000e-04 0.0000e+00 1.0000e+00
       11  1    4    4    0    0 +6.0249192295e+00 +1.3475474649e+01 +1.9554195311e+00 1.4889987728e+01 5.1100000000e-04 0.0000e+00 -1.0000e+00
      -12  1    4    4    0    0 -2.4613345551e+01 -9.8937875520e+00 +1.3662282896e+01 2.9838930699e+01 0.0000000000e+00 0.0000e+00 1.0000e+00
       12  1    3    3    0    0 +9.0657057457e+00 -1.4207973786e+01 +8.1625087260e+00 1.8726454242e+01 0.0000000000e+00 0.0000e+00 -1.0000e+00
</event>
<event>
 9      3 +1.0086356e-04 9.11880000e+01 7.81616400e-03 1.18400000e-01
      -11 -1    0    0    0    0 +0.0000000000e+00 +0.0000000000e+00 +4.5593999997e+01 4.5594000000e+01 5.1100000000e-04 0.0000e+00 1.0000e+00
       11 -1    0    0    0    0 -0.0000000000e+00 -0.0000000000e+00 -4.5593999997e+01 4.5594000000e+01 5.1100000000e-04 0.0000e+00 -1.0000e+00
       23  2    1    2    0    0 +0.0000000000e+00 +2.2204460493e-16 +1.7763568394e-15 9.1188000000e+01 9.1188000000e+01 3.4932e-14 0.0000e+00
  9990012  2    3    3    0    0 +1.5684524273e+01 -1.0970411327e+00 -1.0171930556e+01 7.2461655665e+01 7.0000111211e+01 4.0115e-05 0.0000e+00
       24  2    4    4    0    0 +7.3262306837e+00 +7.4151151865e+00 -1.9941155075e+01 5.7042329321e+01 5.2416791960e+01 7.6121e-14 0.0000e+00
      -11  1    5    5    0    0 -2.1470432764e+01 +1.1263402719e+01 -1.1167696549e+01 2.6693841432e+01 5.1100000000e-04 0.0000e+00 1.0000e+00
       11  1    4    4    0    0 +8.3582935895e+00 -8.5121563191e+00 +9.7692245193e+00 1.5419326344e+01 5.1100000000e-04 0.0000e+00 -1.0000e+00
       12  1    5    5    0    0 +2.8796663448e+01 -3.8482875329e+00 -8.7734585260e+00 3.0348487890e+01 0.0000000000e+00 0.0000e+00 -1.0000e+00
      -12  1    3    3    0    0 -1.5684524273e+01 +1.0970411327e+00 +1.0171930556e+01 1.8726344335e+01 0.0000000000e+00 0.0000e+00 1.0000e+00
</event>
<event>
 9      3 +1.0086356e-04 9.11880000e+01 7.81616400e-03 1.18400000e-01
      -11 -1    0    0    0    0 +0.0000000000e+00 +0.0000000000e+00 +4.5593999997e+01 4.5594000000e+01 5.1100000000e-04 0.0000e+00 1.0000e+00
       11 -1    0    0    0    0 -0.0000000000e+00 -0.0000000000e+00 -4.5593999997e+01 4.5594000000e+01 5.1100000000e-04 0.0000e+00 -1.0000e+00
       23  2    1    2    0    0 -5.3290705182e-15 +0.0000000000e+00 -1.7763568394e-15 9.1188000000e+01 9.1188000000e+01 1.9038e-13 0.0000e+00
  9990012  2    3    3    0    0 -1.5864911461e+01 -8.3228069232e+00 -5.4510767270e+00 7.2461581009e+01 7.0000013958e+01 5.4196e-04 0.0000e+00
       24  2    4    4    0    0 -1.3894126399e+01 -1.0163062822e+01 -4.7114365488e+00 6.9665583265e+01 6.7340636045e+01 2.1408e-14 0.0000e+00
      -11  1    5    5    0    0 -3.5015034581e+01 -2.7290207196e+00 +1.6516809650e+01 3.8811147910e+01 5.1100000000e-04 0.0000e+00 1.0000e+00
       11  1    4    4    0    0 -1.9707850616e+00 +1.8402558992e+00 -7.3964017817e-01 2.7959977446e+00 5.1100000000e-04 0.0000e+00 -1.0000e+00
       12  1    5    5    0    0 +2.1120908182e+01 -7.4340421028e+00 -2.1228246199e+01 3.0854435355e+01 0.0000000000e+00 0.0000e+00 -1.0000e+00
      -12  1    3    3    0    0 +1.5864911461e+01 +8.3228069232e+00 +5.4510767270e+00 1.8726418991e+01 0.0000000000e+00 0.0000e+00 1.0000e+00
</event>
<event>
 9      4 +1.0086356e-04 9.11880000e+01 7.81616400e-03 1.18400000e-01
      -11 -1    0    0    0    0 +0.0000000000e+00 +0.0000000000e+00 +4.5593999997e+01 4.5594000000e+01 5.1100000000e-04 0.0000e+00 -1.0000e+00
       11 -1    0    0    0    0 -0.0000000000e+00 -0.0000000000e+00 -4.5593999997e+01 4.5594000000e+01 5.1100000000e-04 0.0000e+00 1.0000e+00
       23  2    1    2    0    0 +0.0000000000e+00 +0.0000000000e+00 -5.3290705182e-15 9.1188000000e+01 9.1188000000e+01 7.8708e-14 0.0000e+00
 -9990012  2    3    3    0    0 -8.0293145276e+00 -1.0633445422e+01 -1.3158226121e+01 7.2461575676e+01 7.0000007010e+01 1.4009e-04 0.0000e+00
      -24  2    4    4    0    0 -1.0078257070e+01 -8.8286683235e+00 -1.8194677511e+01 6.6732594197e+01 6.2790733302e+01 7.6276e-17 0.0000e+00
      -11  1    4    4    0    0 +2.0489425427e+00 -1.8047770984e+00 +5.0364513905e+00 5.7289814791e+00 5.1100000000e-04 0.0000e+00 1.0000e+00
       11  1    5    5    0    0 +1.6316645790e+01 -1.5095610663e+01 +1.2713435783e+01 2.5607456742e+01 5.1100000000e-04 0.0000e+00 -1.0000e+00
      -12  1    5    5    0    0 -2.6394902861e+01 +6.2669423394e+00 -3.0908113294e+01 4.1125137455e+01 0.0000000000e+00 0.0000e+00 1.0000e+00
       12  1    3    3    0    0 +8.0293145276e+00 +1.0633445422e+01 +1.3158226121e+01 1.8726424324e+01 0.0000000000e+00 0.0000e+00 -1.0000e+00
</event>
<event>
 9      4 +1.0086356e-04 9.11880000e+01 7.81616400e-03 1.18400000e-01
      -11 -1    0    0    0    0 +0.0000000000e+00 +0.0000000000e+00 +4.5593999997e+01 4.5594000000e+01 5.1100000000e-04 0.0000e+00 1.0000e+00
       11 -1    0    0    0    0 -0.0000000000e+00 -0.0000000000e+00 -4.5593999997e+01 4.5594000000e+01 5.1100000000e-04 0.0000e+00 -1.0000e+00
       23  2    1    2    0    0 +0.0000000000e+00 +0.0000000000e+00 +2.2204460493e-16 9.1188000000e+01 9.1188000000e+01 2.3074e-14 0.0000e+00
 -9990012  2    3    3    0    0 -5.7157359448e+00 -1.7805203849e+01 -9.9175994506e-01 7.2461587923e+01 7.0000022964e+01 8.7884e-05 0.0000e+00
      -24  2    4    4    0    0 +1.4695157538e+00 -6.2105153494e+00 +1.0925190157e+01 5.4348654881e+01 5.2855335871e+01 4.8023e-14 0.0000e+00
      -11  1    4    4    0    0 -7.1852516987e+00 -1.1594688500e+01 -1.1916950102e+01 1.8112933042e+01 5.1100000000e-04 0.0000e+00 1.0000e+00
       11  1    5    5    0    0 +7.9349022392e+00 -2.5767439054e+01 -6.0795235780e+00 2.7638455024e+01 5.1100000000e-04 0.0000e+00 -1.0000e+00
      -12  1    5    5    0    0 -6.4653864854e+00 +1.9556923704e+01 +1.7004713735e+01 2.6710199857e+01 0.0000000000e+00 0.0000e+00 1.0000e+00
       12  1    3    3    0    0 +5.7157359448e+00 +1.7805203849e+01 +9.9175994506e-01 1.8726412077e+01 0.0000000000e+00 0.0000e+00 -1.0000e+00
</event>
<event>
 8      3 +1.0086356e-04 9.11880000e+01 7.81616400e-03 1.18400000e-01
      -11 -1    0    0    0    0 +0.0000000000e+00 +0.0000000000e+00 +4.5593999997e+01 4.5594000000e+01 5.1100000000e-04 0.0000e+00 1.0000e+00
       11 -1    0    0    0    0 -0.0000000000e+00 -0.0000000000e+00 -4.5593999997e+01 4.5594000000e+01 5.1100000000e-04 0.0000e+00 -1.0000e+00
       23  2    1    2    0    0 +2.2204460493e-16 +1.7763568394e-15 -3.5527136788e-15 9.1188000000e+01 9.1188000000e+01 5.9581e-14 0.0000e+00
  9990012  2    3    3    0    0 +1.2347372382e+00 -6.4517811826e+00 -1.7536607213e+01 7.2461477391e+01 6.9999878976e+01 1.6788e-04 0.0000e+00
      -11  1    4    4    0    0 -2.2811322516e+01 +5.0652412586e+00 -1.9654060354e+01 3.0533509340e+01 5.1100000000e-04 0.0000e+00 -1.0000e+00
       11  1    4    4    0    0 +9.5356139149e+00 -1.9195041740e+01 +1.0076663211e+01 2.3683680075e+01 5.1100000000e-04 0.0000e+00 1.0000e+00
       12  1    4    4    0    0 +1.4510445840e+01 +7.6780192993e+00 -7.9592100702e+00 1.8244287977e+01 0.0000000000e+00 0.0000e+00 -1.0000e+00
      -12  1    3    3    0    0 -1.2347372382e+00 +6.4517811826e+00 +1.7536607213e+01 1.8726522609e+01 0.0000000000e+00 0.0000e+00 1.0000e+00
</event>
<event>
 9      3 +1.0086356e-04 9.11880000e+01 7.81616400e-03 1.18400000e-01
      -11 -1    0    0    0    0 +0.0000000000e+00 +0.0000000000e+00 +4.5593999997e+01 4.5594000000e+01 5.1100000000e-04 0.0000e+00 -1.0000e+00
       11 -1    0    0    0    0 -0.0000000000e+00 -0.0000000000e+00 -4.5593999997e+01 4.5594000000e+01 5.1100000000e-04 0.0000e+00 1.0000e+00
       23  2    1    2    0    0 +3.5527136788e-15 -1.3322676296e-15 -1.7763568394e-15 9.1188000000e+01 9.1188000000e+01 1.4443e-13 0.0000e+00
  9990012  2    3    3    0    0 +1.6163732234e+01 -2.8781430730e+00 +9.0070467768e+00 7.2461632522e+01 7.0000081064e+01 2.3712e-05 0.0000e+00
       24  2    4    4    0    0 +1.8383252450e+01 -8.6261186565e+00 +1.3030790830e+01 6.5102555830e+01 6.0466415242e+01 2.9047e-14 0.0000e+00
      -11  1    5    5    0    0 -1.6410927627e+01 -1.7587565032e+01 -5.4999388769e+00 2.4675702974e+01 5.1100000000e-04 0.0000e+00 1.0000e+00
       11  1    4    4    0    0 -2.2195202162e+00 +5.7479755835e+00 -4.0237440534e+00 7.3590766926e+00 5.1100000000e-04 0.0000e+00 -1.0000e+00
       12  1    5    5    0    0 +3.4794180077e+01 +8.9614463758e+00 +1.8530729707e+01 4.0426852856e+01 0.0000000000e+00 0.0000e+00 -1.0000e+00
      -12  1    3    3    0    0 -1.6163732234e+01 +2.8781430730e+00 -9.0070467768e+00 1.8726367478e+01 0.0000000000e+00 0.0000e+00 1.0000e+00
</event>
<event>
 9      3 +1.0086356e-04 9.11880000e+01 7.81616400e-03 1.18400000e-01
      -11 -1    0    0    0    0 +0.0000000000e+00 +0.0000000000e+00 +4.5593999997e+01 4.5594000000e+01 5.1100000000e-04 0.0000e+00 -1.0000e+00
       11 -1    0    0    0    0 -0.0000000000e+00 -0.0000000000e+00 -4.5593999997e+01 4.5594000000e+01 5.1100000000e-04 0.0000e+00 1.0000e+00
       23  2    1    2    0    0 +0.0000000000e+00 -1.7763568394e-15 +8.8817841970e-16 9.1188000000e+01 9.1188000000e+01 1.4617e-13 0.0000e+00
  9990012  2    3    3    0    0 +8.6142479613e+00 +1.5335649426e+01 -6.4263517151e+00 7.2461403737e+01 6.9999783027e+01 3.3619e-06 0.0000e+00
       24  2    4    4    0    0 +8.6569933424e+00 +1.0918724130e+01 +7.9059715644e+00 5.7463852367e+01 5.5185395460e+01 3.4535e-13 0.0000e+00
      -11  1    5    5    0    0 -1.8807934820e+01 +1.5401530779e+00 -1.1916353159e+01 2.2318377105e+01 5.1100000000e-04 0.0000e+00 1.0000e+00
       11  1    4    4    0    0 -4.2745381107e-02 +4.4169252958e+00 -1.4332323279e+01 1.4997551370e+01 5.1100000000e-04 0.0000e+00 -1.0000e+00
       12  1    5    5    0    0 +2.7464928163e+01 +9.3785710521e+00 +1.9822324723e+01 3.5145475262e+01 0.0000000000e+00 0.0000e+00 -1.0000e+00
      -12  1    3    3    0    0 -8.6142479613e+00 -1.5335649426e+01 +6.4263517151e+00 1.8726596263e+01 0.0000000000e+00 0.0000e+00 1.0000e+00
</event>
<event>
 8      3 +1.0086356e-04 9.11880000e+01 7.81616400e-03 1.18400000e-01
      -11 -1    0    0    0    0 +0.0000000000e+00 +0.0000000000e+00 +4.5593999997e+01 4.5594000000e+01 5.1100000000e-04 0.0000e+00 1.0000e+00
       11 -1    0    0    0    0 -0.0000000000e+00 -0.0000000000e+00 -4.5593999997e+01 4.5594000000e+01 5.1100000000e-04 0.0000e+00 -1.0000e+00
       23  2    1    2    0    0 +8.8817841970e-16 -1.1102230246e-16 -3.5527136788e-15 9.1188000000e+01 9.1188000000e+01 2.7649e-15 0.0000e+00
  9990012  2    3    3    0    0 -7.4430890100e+00 -7.4519648834e-01 -1.7167567380e+01 7.2461541137e+01 6.9999962017e+01 6.9952e-06 0.0000e+00
      -11  1    4    4    0    0 +1.9423876912e+00 +6.0276365684e+00 +8.1575242134e+00 1.0327171641e+01 5.1100000000e-04 0.0000e+00 1.0000e+00
       11  1    4    4    0    0 -2.3135709219e+01 +2.8609077123e+00 +8.1413620925e+00 2.4692663100e+01 5.1100000000e-04 0.0000e+00 -1.0000e+00
       12  1    4    4    0    0 +1.3750232518e+01 -9.6337407690e+00 -3.3466453686e+01 3.7441706396e+01 0.0000000000e+00 0.0000e+00 -1.0000e+00
      -12  1    3    3    0    0 +7.4430890100e+00 +7.4519648834e-01 +1.7167567380e+01 1.8726458863e+01 0.0000000000e+00 0.0000e+00 1.0000e+00
</event>
<event>
 8      4 +1.0086356e-04 9.11880000e+01 7.81616400e-03 1.18400000e-01
      -11 -1    0    0    0    0 +0.0000000000e+00 +0.0000000000e+00 +4.5593999997e+01 4.5594000000e+01 5.1100000000e-04 0.0000e+00 1.0000e+00
       11 -1    0    0    0    0 -0.0000000000e+00 -0.0000000000e+00 -4.5593999997e+01 4.5594000000e+01 5.1100000000e-04 0.0000e+00 -1.0000e+00
       23  2    1    2    0    0 +8.8817841970e-16 +1.9984014443e-15 -3.5527136788e-15 9.1188000000e+01 9.1188000000e+01 1.2696e-15 0.0000e+00
 -9990012  2    3    3    0    0 -6.7228723864e+00 -1.6691119515e+00 +1.7398140201e+01 7.2461595372e+01 7.0000032668e+01 1.1665e-04 0.0000e+00
      -11  1    4    4    0    0 -1.0656126894e+01 -1.4315541475e+01 +3.9548692033e+01 4.3388786684e+01 5.1100000000e-04 0.0000e+00 1.0000e+00
       11  1    4    4    0    0 +5.4707837255e+00 +6.6456340620e+00 -3.2800410256e+00 9.2115468868e+00 5.1100000000e-04 0.0000e+00 -1.0000e+00
      -12  1    4    4    0    0 -1.5375292184e+00 +6.0007954612e+00 -1.8870510806e+01 1.9861261802e+01 0.0000000000e+00 0.0000e+00 1.0000e+00
       12  1    3    3    0    0 +6.7228723864e+00 +1.6691119515e+00 -1.7398140201e+01 1.8726404628e+01 0.0000000000e+00 0.0000e+00 -1.0000e+00
</event>
<event>
 9      3 +1.0086356e-04 9.11880000e+01 7.81616400e-03 1.18400000e-01
      -11 -1    0    0    0    0 +0.0000000000e+00 +0.0000000000e+00 +4.5593999997e+01 4.5594000000e+01 5.1100000000e-04 0.0000e+00 1.0000e+00
       11 -1    0    0    0    0 -0.0000000000e+00 -0.0000000000e+00 -4.5593999997e+01 4.5594000000e+01 5.1100000000e-04 0.0000e+00 -1.0000e+00
       23  2    1    2    0    0 +8.8817841970e-16 +0.0000000000e+00 -3.5527136788e-15 9.1188000000e+01 9.1188000000e+01 1.2650e-13 0.0000e+00
  9990012  2    3    3    0    0 -6.4355033815e+00 +5.6243717882e+00 +1.6662229977e+01 7.2461570292e+01 6.9999999997e+01 4.6044e-06 0.0000e+00
       24  2    4    4    0    0 +4.3630847780e+00 +3.4519920993e+00 +1.9230417755e+01 6.1151206528e+01 5.7781557045e+01 7.3547e-14 0.0000e+00
      -11  1    5    5    0    0 -1.7565574610e+00 +2.8506389868e+01 +2.0770232168e+01 3.5314335644e+01 5.1100000000e-04 0.0000e+00 1.0000e+00
       11  1    4    4    0    0 -1.0798588159e+01 +2.1723796889e+00 -2.5681877779e+00 1.1310363764e+01 5.1100000000e-04 0.0000e+00 -1.0000e+00
       12  1    5    5    0    0 +6.1196422389e+00 -2.5054397768e+01 -1.5398144129e+00 2.5836870884e+01 0.0000000000e+00 0.0000e+00 -1.0000e+00
      -12  1    3    3    0    0 +6.4355033815e+00 -5.6243717882e+00 -1.6662229977e+01 1.8726429708e+01 0.0000000000e+00 0.0000e+00 1.0000e+00
</event>
<event>
 8      4 +1.0086356e-04 9.11880000e+01 7.81616400e-03 1.18400000e-01
      -11 -1    0    0    0    0 +0.0000000000e+00 +0.0000000000e+00 +4.5593999997e+01 4.5594000000e+01 5.1100000000e-04 0.0000e+00 -1.0000e+00
       11 -1    0    0    0    0 -0.0000000000e+00 -0.0000000000e+00 -4.5593999997e+01 4.5594000000e+01 5.1100000000e-04 0.0000e+00 1.0000e+00
       23  2    1    2    0    0 +8.8817841970e-16 -1.7763568394e-15 +0.0000000000e+00 9.1188000000e+01 9.1188000000e+01 2.3158e-13 0.0000e+00
 -9990012  2    3    3    0    0 -7.3279080168e+00 +4.4965305063e+00 -1.6636152686e+01 7.2461585536e+01 7.0000019855e+01 9.2013e-05 0.0000e+00
      -11  1    4    4    0    0 +1.2710950502e+01 -2.1457513755e+01 -1.1090603981e+01 2.7294590236e+01 5.1100000000e-04 0.0000e+00 1.0000e+00
       11  1    4    4    0    0 -6.3072428673e+00 +5.2879940680e+00 +1.2161216948e+01 1.4684665191e+01 5.1100000000e-04 0.0000e+00 -1.0000e+00
      -12  1    4    4    0    0 -1.3731615651e+01 +2.0666050194e+01 -1.7706765652e+01 3.0482330109e+01 0.0000000000e+00 0.0000e+00 1.0000e+00
       12  1    3    3    0    0 +7.3279080168e+00 -4.4965305063e+00 +1.6636152686e+01 1.8726414464e+01 0.0000000000e+00 0.0000e+00 -1.0000e+00
</event>
<event>
 9      3 +1.0086356e-04 9.11880000e+01 7.81616400e-03 1.18400000e-01
      -11 -1    0    0    0    0 +0.0000000000e+00 +0.0000000000e+00 +4.5593999997e+01 4.5594000000e+01 5.1100000000e-04 0.0000e+00 -1.0000e+00
       11 -1    0    0    0    0 -0.0000000000e+00 -0.0000000000e+00 -4.5593999997e+01 4.5594000000e+01 5.1100000000e-04 0.0000e+00 1.0000e+00
       23  2    1    2    0    0 -3.5527136788e-15 -2.2204460493e-15 +1.7763568394e-15 9.1188000000e+01 9.1188000000e+01 2.4525e-14 0.0000e+00
  9990012  2    3    3    0    0 -1.6375405624e+01 -2.6416696816e+00 +8.6919309567e+00 7.2461494939e+01 6.9999901836e+01 6.0416e-05 0.0000e+00
       24  2    4    4    0    0 -1.0584290692e+01 +2.5916305752e-01 +6.9606806596e+00 6.5757088136e+01 6.4524795156e+01 1.7363e-13 0.0000e+00
      -11  1    5    5    0    0 -1.0870501570e+01 +2.8231352863e+01 -1.1363894038e+01 3.2315865714e+01 5.1100000000e-04 0.0000e+00 1.0000e+00
       11  1    4    4    0    0 -5.7911149319e+00 -2.9008327391e+00 +1.7312502971e+00 6.7044068035e+00 5.1100000000e-04 0.0000e+00 -1.0000e+00
       12  1    5    5    0    0 +2.8621087798e-01 -2.7972189806e+01 +1.8324574697e+01 3.3441222422e+01 0.0000000000e+00 0.0000e+00 -1.0000e+00
      -12  1    3    3    0    0 +1.6375405624e+01 +2.6416696816e+00 -8.6919309567e+00 1.8726505061e+01 0.0000000000e+00 0.0000e+00 1.0000e+00
</event>
<event>
 9      4 +1.0086356e-04 9.11880000e+01 7.81616400e-03 1.18400000e-01
      -11 -1    0    0    0    0 +0.0000000000e+00 +0.0000000000e+00 +4.5593999997e+01 4.5594000000e+01 5.1100000000e-04 0.0000e+00 -1.0000e+00
       11 -1    0    0    0    0 -0.0000000000e+00 -0.0000000000e+00 -4.5593999997e+01 4.5594000000e+01 5.1100000000e-04 0.0000e+00 1.0000e+00
       23  2    1    2    0    0 +0.0000000000e+00 +0.0000000000e+00 +1.7763568394e-15 9.1188000000e+01 9.1188000000e+01 2.7013e-13 0.0000e+00
 -9990012  2    3    3    0    0 -1.3554051232e+01 -6.7155598760e+00 -1.1039639074e+01 7.2461423161e+01 6.9999808331e+01 2.7069e-04 0.0000e+00
      -24  2    4    4    0    0 -8.8991090832e+00 -6.2053526815e+00 -4.1393009328e+00 6.4122150740e+01 6.3062000118e+01 2.9989e-13 0.0000e+00
      -11  1    4    4    0    0 -4.6549421486e+00 -5.1020719456e-01 -6.9003381409e+00 8.3392724208e+00 5.1100000000e-04 0.0000e+00 1.0000e+00
       11  1    5    5    0    0 -1.3824195093e+00 -4.7961741981e+00 -3.3455017886e+01 3.3825324724e+01 5.1100000000e-04 0.0000e+00 -1.0000e+00
      -12  1    5    5    0    0 -7.5166895739e+00 -1.4091784833e+00 +2.9315716953e+01 3.0296826016e+01 0.0000000000e+00 0.0000e+00 1.0000e+00
       12  1    3    3    0    0 +1.3554051232e+01 +6.7155598760e+00 +1.1039639074e+01 1.8726576839e+01 0.0000000000e+00 0.0000e+00 -1.0000e+00
</event>
<event>
 8      3 +1.0086356e-04 9.11880000e+01 7.81616400e-03 1.18400000e-01
      -11 -1    0    0    0    0 +0.0000000000e+00 +0.0000000000e+00 +4.5593999997e+01 4.5594000000e+01 5.1100000000e-04 0.0000e+00 1.0000e+00
       11 -1    0    0    0    0 -0.0000000000e+00 -0.0000000000e+00 -4.5593999997e+01 4.5594000000e+01 5.1100000000e-04 0.0000e+00 -1.0000e+00
       23  2    1    2    0    0 +1.7763568394e-15 -3.5527136788e-15 +4.4408920985e-16 9.1188000000e+01 9.1188000000e+01 5.5452e-16 0.0000e+00
  9990012  2    3    3    0    0 -2.8533281334e+00 -1.8322720795e+01 -2.6105038512e+00 7.2461593267e+01 7.0000029927e+01 9.9411e-05 0.0000e+00
      -11  1    4    4    0    0 -1.5136219314e+01 +3.7363078965e+00 +8.6316566879e+00 1.7820511476e+01 5.1100000000e-04 0.0000e+00 1.0000e+00
       11  1    4    4    0    0 +2.6693372349e+01 -2.1057031273e+01 -1.8247974572e+01 3.8586568513e+01 5.1100000000e-04 0.0000e+00 -1.0000e+00
       12  1    4    4    0    0 -1.4410481169e+01 -1.0019974182e+00 +7.0058140328e+00 1.6054513278e+01 0.0000000000e+00 0.0000e+00 -1.0000e+00
      -12  1    3    3    0    0 +2.8533281334e+00 +1.8322720795e+01 +2.6105038512e+00 1.8726406733e+01 0.0000000000e+00 0.0000e+00 1.0000e+00
</event>
<event>
 8      4 +1.0086356e-04 9.11880000e+01 7.81616400e-03 1.18400000e-01
      -11 -1    0    0    0    0 +0.0000000000e+00 +0.0000000000e+00 +4.5593999997e+01 4.5594000000e+01 5.1100000000e-04 0.0000e+00 -1.0000e+00
       11 -1    0    0    0    0 -0.0000000000e+00 -0.0000000000e+00 -4.5593999997e+01 4.5594000000e+01 5.1100000000e-04 0.0000e+00 1.0000e+00
       23  2    1    2    0    0 +1.7763568394e-15 -2.6645352591e-15 +1.7763568394e-15 9.1188000000e+01 9.1188000000e+01 1.6427e-14 0.0000e+00
 -9990012  2    3    3    0    0 +9.0996107581e+00 -5.8344707332e+00 +1.5291684271e+01 7.2461559534e+01 6.9999985982e+01 1.9398e-04 0.0000e+00
      -11  1    4    4    0    0 +3.0059178088e+01 -1.7672826323e+01 -3.7119189372e-01 3.4871489232e+01 5.1100000000e-04 0.0000e+00 1.0000e+00
       11  1    4    4    0    0 -1.2273639731e+01 -1.7787040743e+00 +1.7376158857e+01 2.1347995627e+01 5.1100000000e-04 0.0000e+00 -1.0000e+00
      -12  1    4    4    0    0 -8.6859275990e+00 +1.3617059664e+01 -1.7132826916e+00 1.6242074674e+01 0.0000000000e+00 0.0000e+00 1.0000e+00
       12  1    3    3    0    0 -9.0996107581e+00 +5.8344707332e+00 -1.5291684271e+01 1.8726440466e+01 0.0000000000e+00 0.0000e+00 -1.0000e+00
</event>
<event>
 9      4 +1.0086356e-04 9.11880000e+01 7.81616400e-03 1.18400000e-01
      -11 -1    0    0    0    0 +0.0000000000e+00 +0.0000000000e+00 +4.5593999997e+01 4.5594000000e+01 5.1100000000e-04 0.0000e+00 1.0000e+00
       11 -1    0    0    0    0 -0.0000000000e+00 -0.0000000000e+00 -4.5593999997e+01 4.5594000000e+01 5.1100000000e-04 0.0000e+00 -1.0000e+00
       23  2    1    2    0    0 +0.0000000000e+00 +8.8817841970e-16 +0.0000000000e+00 9.1188000000e+01 9.1188000000e+01 2.3127e-13 0.0000e+00
 -9990012  2    3    3    0    0 -4.5348391435e+00 -3.5849048567e+00 +1.7811926366e+01 7.2461520626e+01 6.9999935298e+01 3.7344e-05 0.0000e+00
      -24  2    4    4    0    0 +3.9210466069e+00 +8.3463404938e+00 +9.0474522026e+00 5.5412396688e+01 5.3885446173e+01 5.2499e-14 0.0000e+00
      -11  1    4    4    0    0 -8.4558857504e+00 -1.1931245350e+01 +8.7644741630e+00 1.7049123938e+01 5.1100000000e-04 0.0000e+00 1.0000e+00
       11  1    5    5    0    0 -9.6496888420e+00 +1.6772516926e+00 -2.0221325855e+01 2.2468459840e+01 5.1100000000e-04 0.0000e+00 -1.0000e+00
      -12  1    5    5    0    0 +1.3570735449e+01 +6.6690888012e+00 +2.9268778058e+01 3.2943936848e+01 0.0000000000e+00 0.0000e+00 1.0000e+00
       12  1    3    3    0    0 +4.5348391435e+00 +3.5849048567e+00 -1.7811926366e+01 1.8726479374e+01 0.0000000000e+00 0.0000e+00 -1.0000e+00
</event>
<event>
 9      3 +1.0086356e-04 9.11880000e+01 7.81616400e-03 1.18400000e-01
      -11 -1    0    0    0    0 +0.0000000000e+00 +0.0000000000e+00 +4.5593999997e+01 4.5594000000e+01 5.1100000000e-04 0.0000e+00 1.0000e+00
       11 -1    0    0    0    0 -0.0000000000e+00 -0.0000000000e+00 -4.5593999997e+01 4.5594000000e+01 5.1100000000e-04 0.0000e+00 -1.0000e+00
       23  2    1    2    0    0 +1.7763568394e-15 -2.2204460493e-16 +3.5527136788e-15 9.1188000000e+01 9.1188000000e+01 1.9694e-14 0.0000e+00
  9990012  2    3    3    0    0 -3.8667214586e+00 +1.2249287085e+00 -1.8281930373e+01 7.2461522399e+01 6.9999937608e+01 4.5545e-04 0.0000e+00
       24  2    4    4    0    0 +2.4459118198e+00 -1.5056641099e+00 -1.3542258861e+01 6.4108680826e+01 6.2596171393e+01 5.2007e-14 0.0000e+00
      -11  1    5    5    0    0 -2.1365894896e+01 +1.5041096256e+01 +8.7264152592e+00 2.7547892203e+01 5.1100000000e-04 0.0000e+00 1.0000e+00
       11  1    4    4    0    0 -6.3126332784e+00 +2.7305928185e+00 -4.7396715122e+00 8.3528415735e+00 5.1100000000e-04 0.0000e+00 -1.0000e+00
       12  1    5    5    0    0 +2.3811806716e+01 -1.6546760366e+01 -2.2268674120e+01 3.6560788623e+01 0.0000000000e+00 0.0000e+00 -1.0000e+00
      -12  1    3    3    0    0 +3.8667214586e+00 -1.2249287085e+00 +1.8281930373e+01 1.8726477601e+01 0.0000000000e+00 0.0000e+00 1.0000e+00
</event>
<event>
 9      3 +1.0086356e-04 9.11880000e+01 7.81616400e-03 1.18400000e-01
      -11 -1    0    0    0    0 +0.0000000000e+00 +0.0000000000e+00 +4.5593999997e+01 4.5594000000e+01 5.1100000000e-04 0.0000e+00 1.0000e+00
       11 -1    0    0    0    0 -0.0000000000e+00 -0.0000000000e+00 -4.5593999997e+01 4.5594000000e+01 5.1100000000e-04 0.0000e+00 -1.0000e+00
       23  2    1    2    0    0 +1.7763568394e-15 +1.7763568394e-15 -6.6613381478e-16 9.1188000000e+01 9.1188000000e+01 3.8358e-14 0.0000e+00
  9990012  2    3    3    0    0 -1.4467948132e+01 -1.1881314183e+01 +4.3831127695e-01 7.2461567701e+01 6.9999996622e+01 8.8136e-06 0.0000e+00
       24  2    4    4    0    0 -9.4780528610e+00 -3.4716491008e+00 +1.1805146617e+01 5.7467353233e+01 5.5328558335e+01 6.0743e-15 0.0000e+00
      -11  1    5    5    0    0 -2.5991114653e+00 +2.2744668529e+01 -7.6131471325e+00 2.4125408524e+01 5.1100000000e-04 0.0000e+00 1.0000e+00
       11  1    4    4    0    0 -4.9898952709e+00 -8.4096650826e+00 -1.1366835340e+01 1.4994214469e+01 5.1100000000e-04 0.0000e+00 -1.0000e+00
       12  1    5    5    0    0 -6.8789413958e+00 -2.6216317630e+01 +1.9418293750e+01 3.3341944709e+01 0.0000000000e+00 0.0000e+00 -1.0000e+00
      -12  1    3    3    0    0 +1.4467948132e+01 +1.1881314183e+01 -4.3831127695e-01 1.8726432299e+01 0.0000000000e+00 0.0000e+00 1.0000e+00
</event>
<event>
 9      3 +1.0086356e-04 9.11880000e+01 7.81616400e-03 1.18400000e-01
      -11 -1    0    0    0    0 +0.0000000000e+00 +0.0000000000e+00 +4.5593999997e+01 4.5594000000e+01 5.1100000000e-04 0.0000e+00 1.0000e+00
       11 -1    0    0    0    0 -0.0000000000e+00 -0.0000000000e+00 -4.5593999997e+01 4.5594000000e+01 5.1100000000e-04 0.0000e+00 -1.0000e+00
       23  2    1    2    0    0 +0.0000000000e+00 +0.0000000000e+00 -7.1054273576e-15 9.1188000000e+01 9.1188000000e+01 6.5599e-14 0.0000e+00
  9990012  2    3    3    0    0 +5.4726790727e+00 +7.5454265739e+00 -1.6241551178e+01 7.2461770719e+01 7.0000261090e+01 5.4673e-05 0.0000e+00
       23  2    4    4    0    0 +8.9299718638e+00 +2.7262421946e+00 -1.8613994016e+01 6.6073821397e+01 6.2706397654e+01 8.0336e-14 0.0000e+00
      -11  1    5    5    0    0 +1.5993238406e+01 +3.4503755449e+00 +2.0552104906e+01 2.6269331595e+01 5.1100000000e-04 0.0000e+00 1.0000e+00
       11  1    5    5    0    0 -7.0632665423e+00 -7.2413335030e-01 -3.9166098922e+01 3.9804489802e+01 5.1100000000e-04 0.0000e+00 -1.0000e+00
       12  1    4    4    0    0 -3.4572927910e+00 +4.8191843793e+00 +2.3724428382e+00 6.3879493224e+00 0.0000000000e+00 0.0000e+00 -1.0000e+00
      -12  1    3    3    0    0 -5.4726790727e+00 -7.5454265739e+00 +1.6241551178e+01 1.8726229281e+01 0.0000000000e+00 0.0000e+00 1.0000e+00
</event>
<event>
 8      4 +1.0086356e-04 9.11880000e+01 7.81616400e-03 1.18400000e-01
      -11 -1    0    0    0    0 +0.0000000000e+00 +0.0000000000e+00 +4.5593999997e+01 4.5594000000e+01 5.1100000000e-04 0.0000e+00 -1.0000e+00
       11 -1    0    0    0    0 -0.0000000000e+00 -0.0000000000e+00 -4.5593999997e+01 4.5594000000e+01 5.1100000000e-04 0.0000e+00 1.0000e+00
       23  2    1    2    0    0 +0.0000000000e+00 +3.5527136788e-15 +8.8817841970e-16 9.1188000000e+01 9.1188000000e+01 8.7614e-14 0.0000e+00
 -9990012  2    3    3    0    0 -1.7379200611e+01 +6.6051540886e+00 -2.2392185779e+00 7.2461580848e+01 7.0000013748e+01 2.3532e-04 0.0000e+00
      -11  1    4    4    0    0 -6.0528653780e+00 -2.1530670977e+01 +1.6957544142e+01 2.8067156529e+01 5.1100000000e-04 0.0000e+00 1.0000e+00
       11  1    4    4    0    0 -2.2788275267e+00 -3.1576169251e+00 +3.0510459656e+00 4.9469668775e+00 5.1100000000e-04 0.0000e+00 -1.0000e+00
      -12  1    4    4    0    0 -9.0475077063e+00 +3.1293441991e+01 -2.2247808686e+01 3.9447457442e+01 0.0000000000e+00 0.0000e+00 1.0000e+00
       12  1    3    3    0    0 +1.7379200611e+01 -6.6051540886e+00 +2.2392185779e+00 1.8726419152e+01 0.0000000000e+00 0.0000e+00 -1.0000e+00
</event>
<event>
 8      4 +1.0086356e-04 9.11880000e+01 7.81616400e-03 1.18400000e-01
      -11 -1    0    0    0    0 +0.0000000000e+00 +0.0000000000e+00 +4.5593999997e+01 4.5594000000e+01 5.1100000000e-04 0.0000e+00 -1.0000e+00
       11 -1    0    0    0    0 -0.0000000000e+00 -0.0000000000e+00 -4.5593999997e+01 4.5594000000e+01 5.1100000000e-04 0.0000e+00 1.0000e+00
       23  2    1    2    0    0 +0.0000000000e+00 +1.4432899320e-15 +1.7763568394e-15 9.1188000000e+01 9.1188000000e+01 1.1675e-13 0.0000e+00
 -9990012  2    3    3    0    0 +1.2967703089e+01 +6.9980321532e-01 -1.3491838207e+01 7.2461528198e+01 6.9999945162e+01 3.5187e-04 0.0000e+00
      -11  1    4    4    0    0 -5.3259269023e+00 -1.9022728841e+01 +1.1462761118e+01 2.2839102492e+01 5.1100000000e-04 0.0000e+00 1.0000e+00
       11  1    4    4    0    0 +1.2172188275e-02 -7.0361852437e+00 -1.3548005953e+01 1.5266188670e+01 5.1100000000e-04 0.0000e+00 -1.0000e+00
      -12  1    4    4    0    0 +1.8281457803e+01 +2.6758717300e+01 -1.1406593372e+01 3.4356237036e+01 0.0000000000e+00 0.0000e+00 1.0000e+00
       12  1    3    3    0    0 -1.2967703089e+01 -6.9980321532e-01 +1.3491838207e+01 1.8726471802e+01 0.0000000000e+00 0.0000e+00 -1.0000e+00
</event>
<event>
 8      4 +1.0086356e-04 9.11880000e+01 7.81616400e-03 1.18400000e-01
      -11 -1    0    0    0    0 +0.0000000000e+00 +0.0000000000e+00 +4.5593999997e+01 4.5594000000e+01 5.1100000000e-04 0.0000e+00 1.0000e+00
       11 -1    0    0    0    0 -0.0000000000e+00 -0.0000000000e+00 -4.5593999997e+01 4.5594000000e+01 5.1100000000e-04 0.0000e+00 -1.0000e+00
       23  2    1    2    0    0 +1.7763568394e-15 -1.7763568394e-15 +8.8817841970e-16 9.1188000000e+01 9.1188000000e+01 8.5024e-14 0.0000e+00
 -9990012  2    3    3    0    0 +1.5742066394e+01 -8.4688291902e+00 +5.5798154905e+00 7.2461866841e+01 7.0000386306e+01 2.7217e-04 0.0000e+00
      -11  1    4    4    0    0 +2.7881404139e+00 +2.2684444587e+00 +2.0309220172e+01 2.0624839187e+01 5.1100000000e-04 0.0000e+00 1.0000e+00
       11  1    4    4    0    0 +7.1700138732e+00 +1.8491428006e+01 -4.5243358072e+00 2.0342360320e+01 5.1100000000e-04 0.0000e+00 -1.0000e+00
      -12  1    4    4    0    0 +5.7839121065e+00 -2.9228701655e+01 -1.0205068875e+01 3.1494667333e+01 0.0000000000e+00 0.0000e+00 1.0000e+00
       12  1    3    3    0    0 -1.5742066394e+01 +8.4688291902e+00 -5.5798154905e+00 1.8726133159e+01 0.0000000000e+00 0.0000e+00 -1.0000e+00
</event>
<event>
 9      3 +1.0086356e-04 9.11880000e+01 7.81616400e-03 1.18400000e-01
      -11 -1    0    0    0    0 +0.0000000000e+00 +0.0000000000e+00 +4.5593999997e+01 4.5594000000e+01 5.1100000000e-04 0.0000e+00 1.0000e+00
       11 -1    0    0    0    0 -0.0000000000e+00 -0.0000000000e+00 -4.5593999997e+01 4.5594000000e+01 5.1100000000e-04 0.0000e+00 -1.0000e+00
       23  2    1    2    0    0 +2.6645352591e-15 +0.0000000000e+00 -1.3322676296e-15 9.1188000000e+01 9.1188000000e+01 1.4313e-13 0.0000e+00
  9990012  2    3    3    0    0 +2.4671377843e+00 +1.8158312342e+01 -3.8559261968e+00 7.2461568338e+01 6.9999997452e+01 1.0991e-04 0.0000e+00
       24  2    4    4    0    0 +5.6733955053e+00 +1.9603371291e+01 +3.3332305719e+00 6.4458302802e+01 6.1051476571e+01 1.5360e-13 0.0000e+00
      -11  1    5    5    0    0 -1.8147596302e+01 -3.0245433003e+00 +2.0370134912e+01 2.7448597602e+01 5.1100000000e-04 0.0000e+00 1.0000e+00
       11  1    4    4    0    0 -3.2062577210e+00 -1.4450589498e+00 -7.1891567687e+00 8.0032655365e+00 5.1100000000e-04 0.0000e+00 -1.0000e+00
       12  1    5    5    0    0 +2.3820991807e+01 +2.2627914592e+01 -1.7036904340e+01 3.7009705200e+01 0.0000000000e+00 0.0000e+00 -1.0000e+00
      -12  1    3    3    0    0 -2.4671377843e+00 -1.8158312342e+01 +3.8559261968e+00 1.8726431662e+01 0.0000000000e+00 0.0000e+00 1.0000e+00
</event>
<event>
 8      3 +1.0086356e-04 9.11880000e+01 7.81616400e-03 1.18400000e-01
      -11 -1    0    0    0    0 +0.0000000000e+00 +0.0000000000e+00 +4.5593999997e+01 4.5594000000e+01 5.1100000000e-04 0.0000e+00 -1.0000e+00
       11 -1    0    0    0    0 -0.0000000000e+00 -0.0000000000e+00 -4.5593999997e+01 4.5594000000e+01 5.1100000000e-04 0.0000e+00 1.0000e+00
       23  2    1    2    0    0 +1.7763568394e-15 -3.5527136788e-15 +1.3322676296e-15 9.1188000000e+01 9.1188000000e+01 1.2891e-13 0.0000e+00
  9990012  2    3    3    0    0 +8.8230937587e+00 -1.6431337644e+01 +1.6864266234e+00 7.2461551458e+01 6.9999975462e+01 1.2697e-04 0.0000e+00
      -11  1    4    4    0    0 -1.5127388306e+01 -2.1561759664e+01 +6.6300399972e-02 2.6339167655e+01 5.1100000000e-04 0.0000e+00 1.0000e+00
       11  1    4    4    0    0 +8.5547416869e-01 +1.5850426501e+01 -9.3227881216e+00 1.8408754301e+01 5.1100000000e-04 0.0000e+00 -1.0000e+00
       12  1    4    4    0    0 +2.3095007896e+01 -1.0720004480e+01 +1.0942914345e+01 2.7713629501e+01 0.0000000000e+00 0.0000e+00 -1.0000e+00
      -12  1    3    3    0    0 -8.8230937587e+00 +1.6431337644e+01 -1.6864266234e+00 1.8726448542e+01 0.0000000000e+00 0.0000e+00 1.0000e+00
</event>
<event>
 8      3 +1.0086356e-04 9.11880000e+01 7.81616400e-03 1.18400000e-01
      -11 -1    0    0    0    0 +0.0000000000e+00 +0.0000000000e+00 +4.5593999997e+01 4.5594000000e+01 5.1100000000e-04 0.0000e+00 1.0000e+00
       11 -1    0    0    0    0 -0.0000000000e+00 -0.0000000000e+00 -4.5593999997e+01 4.5594000000e+01 5.1100000000e-04 0.0000e+00 -1.0000e+00
       23  2    1    2    0    0 +0.0000000000e+00 -8.8817841970e-16 +0.0000000000e+00 9.1188000000e+01 9.1188000000e+01 1.5976e-13 0.0000e+00
  9990012  2    3    3    0    0 -1.4375327785e+01 +5.6137293754e+00 +1.0607283515e+01 7.2461588972e+01 7.0000024331e+01 1.2611e-04 0.0000e+00
      -11  1    4    4    0    0 +6.1632599791e+00 +1.7263157531e+01 +4.9876283427e+00 1.8996810739e+01 5.1100000000e-04 0.0000e+00 1.0000e+00
       11  1    4    4    0    0 -5.2456990151e+00 +1.0589010091e+01 -1.5289352625e+01 1.9323788367e+01 5.1100000000e-04 0.0000e+00 -1.0000e+00
       12  1    4    4    0    0 -1.5292888749e+01 -2.2238438247e+01 +2.0909007798e+01 3.4140989866e+01 0.0000000000e+00 0.0000e+00 -1.0000e+00
      -12  1    3    3    0    0 +1.4375327785e+01 -5.6137293754e+00 -1.0607283515e+01 1.8726411028e+01 0.0000000000e+00 0.0000e+00 1.0000e+00
</event>
<event>
 8      3 +1.0086356e-04 9.11880000e+01 7.81616400e-03 1.18400000e-01
      -11 -1    0    0    0    0 +0.0000000000e+00 +0.0000000000e+00 +4.5593999997e+01 4.5594000000e+01 5.1100000000e-04 0.0000e+00 -1.0000e+00
       11 -1    0    0    0    0 -0.0000000000e+00 -0.0000000000e+00 -4.5593999997e+01 4.5594000000e+01 5.1100000000e-04 0.0000e+00 1.0000e+00
       23  2    1    2    0    0 +8.8817841970e-16 +0.0000000000e+00 +0.0000000000e+00 9.1188000000e+01 9.1188000000e+01 1.4187e-14 0.0000e+00
  9990012  2    3    3    0    0 +5.0383808992e+00 -6.0313582763e+00 +1.6997541273e+01 7.2461575513e+01 7.0000006799e+01 1.9257e-04 0.0000e+00
      -11  1    4    4    0    0 +9.9214042415e+00 -6.5185154984e+00 +6.3209764761e+00 1.3449165413e+01 5.1100000000e-04 0.0000e+00 1.0000e+00
       11  1    4    4    0    0 +3.2115447681e-01 -2.7037577746e+00 -2.3822410194e+01 2.3977503498e+01 5.1100000000e-04 0.0000e+00 -1.0000e+00
       12  1    4    4    0    0 -5.2041778191e+00 +3.1909149966e+00 +3.4498974990e+01 3.5034906603e+01 0.0000000000e+00 0.0000e+00 -1.0000e+00
      -12  1    3    3    0    0 -5.0383808992e+00 +6.0313582763e+00 -1.6997541273e+01 1.8726424487e+01 0.0000000000e+00 0.0000e+00 1.0000e+00
</event>
<event>
 8      4 +1.0086356e-04 9.11880000e+01 7.81616400e-03 1.18400000e-01
      -11 -1    0    0    0    0 +0.0000000000e+00 +0.0000000000e+00 +4.5593999997e+01 4.5594000000e+01 5.1100000000e-04 0.0000e+00 1.0000e+00
       11 -1    0    0    0    0 -0.0000000000e+00 -0.0000000000e+00 -4.5593999997e+01 4.5594000000e+01 5.1100000000e-04 0.0000e+00 -1.0000e+00
       23  2    1    2    0    0 +0.0000000000e+00 -1.7763568394e-15 +1.7763568394e-15 9.1188000000e+01 9.1188000000e+01 2.0284e-13 0.0000e+00
 -9990012  2    3    3    0    0 +1.1992025299e+01 +1.1389756350e+01 +8.7831635286e+00 7.2461569960e+01 6.9999999565e+01 4.9538e-05 0.0000e+00
      -11  1    4    4    0    0 +5.0113001825e+00 +2.3396370404e+01 +5.8075816628e+00 2.4621764409e+01 5.1100000000e-04 0.0000e+00 -1.0000e+00
       11  1    4    4    0    0 -3.5147427720e+00 -9.8667479029e+00 -1.9951644153e+01 2.2533846445e+01 5.1100000000e-04 0.0000e+00 1.0000e+00
      -12  1    4    4    0    0 +1.0495467888e+01 -2.1398661513e+00 +2.2927226019e+01 2.5305959106e+01 0.0000000000e+00 0.0000e+00 1.0000e+00
       12  1    3    3    0    0 -1.1992025299e+01 -1.1389756350e+01 -8.7831635286e+00 1.8726430040e+01 0.0000000000e+00 0.0000e+00 -1.0000e+00
</event>
<event>
 9      4 +1.0086356e-04 9.11880000e+01 7.81616400e-03 1.18400000e-01
      -11 -1    0    0    0    0 +0.0000000000e+00 +0.0000000000e+00 +4.5593999997e+01 4.5594000000e+01 5.1100000000e-04 0.0000e+00 1.0000e+00
       11 -1    0    0    0    0 -0.0000000000e+00 -0.0000000000e+00 -4.5593999997e+01 4.5594000000e+01 5.1100000000e-04 0.0000e+00 -1.0000e+00
       23  2    1    2    0    0 -1.7763568394e-15 +0.0000000000e+00 -1.7763568394e-15 9.1188000000e+01 9.1188000000e+01 9.4467e-14 0.0000e+00
 -9990012  2    3    3    0    0 -8.8915629165e+00 -7.8241844549e+00 +1.4505207663e+01 7.2461580085e+01 7.0000012755e+01 2.6837e-04 0.0000e+00
      -24  2    4    4    0    0 +7.9712698687e+00 -1.9331199205e+00 +1.4986302937e+01 5.4592858144e+01 5.1850870664e+01 2.2573e-13 0.0000e+00
      -11  1    4    4    0    0 -1.6862832785e+01 -5.8910645344e+00 -4.8109527443e-01 1.7868721941e+01 5.1100000000e-04 0.0000e+00 1.0000e+00
       11  1    5    5    0    0 -3.1716198325e+00 -2.2842120116e+01 -4.9988026421e+00 2.3596814443e+01 5.1100000000e-04 0.0000e+00 -1.0000e+00
      -12  1    5    5    0    0 +1.1142889701e+01 +2.0909000196e+01 +1.9985105579e+01 3.0996043701e+01 0.0000000000e+00 0.0000e+00 1.0000e+00
       12  1    3    3    0    0 +8.8915629165e+00 +7.8241844549e+00 -1.4505207663e+01 1.8726419915e+01 0.0000000000e+00 0.0000e+00 -1.0000e+00
</event>
<event>
 8      4 +1.0086356e-04 9.11880000e+01 7.81616400e-03 1.18400000e-01
      -11 -1    0    0    0    0 +0.0000000000e+00 +0.0000000000e+00 +4.5593999997e+01 4.5594000000e+01 5.1100000000e-04 0.0000e+00 -1.0000e+00
       11 -1    0    0    0    0 -0.0000000000e+00 -0.0000000000e+00 -4.5593999997e+01 4.5594000000e+01 5.1100000000e-04 0.0000e+00 1.0000e+00
       23  2    1    2    0    0 +0.0000000000e+00 -3.5527136788e-15 +0.0000000000e+00 9.1188000000e+01 9.1188000000e+01 1.6837e-14 0.0000e+00
 -9990012  2    3    3    0    0 -9.9422921953e+00 +8.0075239605e+00 -1.3700819383e+01 7.2461492962e+01 6.9999899260e+01 1.0152e-05 0.0000e+00
      -11  1    4    4    0    0 -4.9169560218e+00 +2.2193860528e+01 -1.8405699870e+01 2.9249165623e+01 5.1100000000e-04 0.0000e+00 1.0000e+00
       11  1    4    4    0    0 -1.1490277366e+01 -2.6590901168e+01 +3.1833546935e+00 2.9141658262e+01 5.1100000000e-04 0.0000e+00 -1.0000e+00
      -12  1    4    4    0    0 +6.4649411920e+00 +1.2404564601e+01 +1.5215257931e+00 1.4070669077e+01 0.0000000000e+00 0.0000e+00 1.0000e+00
       12  1    3    3    0    0 +9.9422921953e+00 -8.0075239605e+00 +1.3700819383e+01 1.8726507038e+01 0.0000000000e+00 0.0000e+00 -1.0000e+00
</event>
<event>
 9      4 +1.0086356e-04 9.11880000e+01 7.81616400e-03 1.18400000e-01
      -11 -1    0    0    0    0 +0.0000000000e+00 +0.0000000000e+00 +4.5593999997e+01 4.5594000000e+01 5.1100000000e-04 0.0000e+00 1.0000e+00
       11 -1    0    0    0    0 -0.0000000000e+00 -0.0000000000e+00 -4.5593999997e+01 4.5594000000e+01 5.1100000000e-04 0.0000e+00 -1.0000e+00
       23  2    1    2    0    0 -3.5527136788e-15 +4.4408920985e-16 +1.7763568394e-15 9.1188000000e+01 9.1188000000e+01 1.5354e-14 0.0000e+00
 -9990012  2    3    3    0    0 +1.7917136533e+01 -2.1949547712e+00 -4.9837899517e+00 7.2461554254e+01 6.9999979104e+01 4.3749e-05 0.0000e+00
      -24  2    4    4    0    0 +1.8818626750e+01 -2.4268068453e+00 -4.9390751674e+00 7.1529653149e+01 6.8790018985e+01 1.4493e-14 0.0000e+00
      -11  1    4    4    0    0 -9.0149021664e-01 +2.3185207411e-01 -4.4714784301e-02 9.3190110421e-01 5.1100000000e-04 0.0000e+00 1.0000e+00
       11  1    5    5    0    0 +2.7636185415e+01 +2.0155262153e+00 -3.2232105268e+01 4.2505643160e+01 5.1100000000e-04 0.0000e+00 -1.0000e+00
      -12  1    5    5    0    0 -8.8175586644e+00 -4.4423330607e+00 +2.7293030100e+01 2.9024009990e+01 0.0000000000e+00 0.0000e+00 1.0000e+00
       12  1    3    3    0    0 -1.7917136533e+01 +2.1949547712e+00 +4.9837899517e+00 1.8726445746e+01 0.0000000000e+00 0.0000e+00 -1.0000e+00
</event>
<event>
 9      3 +1.0086356e-04 9.11880000e+01 7.81616400e-03 1.18400000e-01
      -11 -1    0    0    0    0 +0.0000000000e+00 +0.0000000000e+00 +4.5593999997e+01 4.5594000000e+01 5.1100000000e-04 0.0000e+00 1.0000e+00
       11 -1    0    0    0    0 -0.0000000000e+00 -0.0000000000e+00 -4.5593999997e+01 4.5594000000e+01 5.1100000000e-04 0.0000e+00 -1.0000e+00
       23  2    1    2    0    0 +0.0000000000e+00 -8.8817841970e-16 +8.8817841970e-16 9.1188000000e+01 9.1188000000e+01 2.9777e-13 0.0000e+00
  9990012  2    3    3    0    0 +1.7371671291e+01 -2.2706988832e+00 -6.6143766761e+00 7.2461521001e+01 6.9999935787e+01 1.2561e-04 0.0000e+00
       24  2    4    4    0    0 +2.3777168003e+01 +8.2576488879e+00 -5.2285370321e+00 6.0060027273e+01 5.4280077313e+01 6.1035e-14 0.0000e+00
      -11  1    5    5    0    0 +2.0438732690e+01 +6.5214899290e+00 +2.3074928407e+01 3.1507522056e+01 5.1100000000e-04 0.0000e+00 -1.0000e+00
       11  1    4    4    0    0 -6.4054967119e+00 -1.0528347771e+01 -1.3858396440e+00 1.2401493728e+01 5.1100000000e-04 0.0000e+00 1.0000e+00
       12  1    5    5    0    0 +3.3384353129e+00 +1.7361589590e+00 -2.8303465439e+01 2.8552505217e+01 0.0000000000e+00 0.0000e+00 -1.0000e+00
      -12  1    3    3    0    0 -1.7371671291e+01 +2.2706988832e+00 +6.6143766761e+00 1.8726478999e+01 0.0000000000e+00 0.0000e+00 1.0000e+00
</event>
<event>
 8      4 +1.0086356e-04 9.11880000e+01 7.81616400e-03 1.18400000e-01
      -11 -1    0    0    0    0 +0.0000000000e+00 +0.0000000000e+00 +4.5593999997e+01 4.5594000000e+01 5.1100000000e-04 0.0000e+00 1.0000e+00
       11 -1    0    0    0    0 -0.0000000000e+00 -0.0000000000e+00 -4.5593999997e+01 4.5594000000e+01 5.1100000000e-04 0.0000e+00 -1.0000e+00
       23  2    1    2    0    0 +8.8817841970e-16 +0.0000000000e+00 +0.0000000000e+00 9.1188000000e+01 9.1188000000e+01 4.4561e-14 0.0000e+00
 -9990012  2    3    3    0    0 -5.8505733652e+00 +8.4862980487e+00 +1.5634292900e+01 7.2461612795e+01 7.0000055365e+01 1.8333e-04 0.0000e+00
      -11  1    4    4    0    0 -1.6676336964e+01 +1.4882061085e+01 +5.6672545103e+00 2.3058485002e+01 5.1100000000e-04 0.0000e+00 1.0000e+00
       11  1    4    4    0    0 -1.5060911716e+01 +7.0932130396e+00 -3.8818319015e+00 1.7094249094e+01 5.1100000000e-04 0.0000e+00 -1.0000e+00
      -12  1    4    4    0    0 +2.5886675314e+01 -1.3488976076e+01 +1.3848870291e+01 3.2308878698e+01 0.0000000000e+00 0.0000e+00 1.0000e+00
       12  1    3    3    0    0 +5.8505733652e+00 -8.4862980487e+00 -1.5634292900e+01 1.8726387205e+01 0.0000000000e+00 0.0000e+00 -1.0000e+00
</event>
<event>
 8      4 +1.0086356e-04 9.11880000e+01 7.81616400e-03 1.18400000e-01
      -11 -1    0    0    0    0 +0.0000000000e+00 +0.0000000000e+00 +4.5593999997e+01 4.5594000000e+01 5.1100000000e-04 0.0000e+00 -1.0000e+00
       11 -1    0    0    0    0 -0.0000000000e+00 -0.0000000000e+00 -4.5593999997e+01 4.5594000000e+01 5.1100000000e-04 0.0000e+00 1.0000e+00
       23  2    1    2    0    0 +8.8817841970e-16 +0.0000000000e+00 +1.7763568394e-15 9.1188000000e+01 9.1188000000e+01 1.0583e-13 0.0000e+00
 -9990012  2    3    3    0    0 +2.9287068281e+00 -1.7834995198e+01 +4.9005877638e+00 7.2461544440e+01 6.9999966320e+01 1.6175e-04 0.0000e+00
      -11  1    4    4    0    0 -1.5162920705e+01 -2.3620022426e+01 -6.8878086273e+00 2.8900891537e+01 5.1100000000e-04 0.0000e+00 1.0000e+00
       11  1    4    4    0    0 +5.8404590361e+00 -1.1375852879e+01 +1.7538625994e+01 2.1705400077e+01 5.1100000000e-04 0.0000e+00 -1.0000e+00
      -12  1    4    4    0    0 +1.2251168497e+01 +1.7160880107e+01 -5.7502296033e+00 2.1855252825e+01 0.0000000000e+00 0.0000e+00 1.0000e+00
       12  1    3    3    0    0 -2.9287068281e+00 +1.7834995198e+01 -4.9005877638e+00 1.8726455560e+01 0.0000000000e+00 0.0000e+00 -1.0000e+00
</event>
<event>
 8      3 +1.0086356e-04 9.11880000e+01 7.81616400e-03 1.18400000e-01
      -11 -1    0    0    0    0 +0.0000000000e+00 +0.0000000000e+00 +4.5593999997e+01 4.5594000000e+01 5.1100000000e-04 0.0000e+00 1.0000e+00
       11 -1    0    0    0    0 -0.0000000000e+00 -0.0000000000e+00 -4.5593999997e+01 4.5594000000e+01 5.1100000000e-04 0.0000e+00 -1.0000e+00
       23  2    1    2    0    0 -1.7763568394e-15 +0.0000000000e+00 +0.0000000000e+00 9.1188000000e+01 9.1188000000e+01 1.2340e-13 0.0000e+00
  9990012  2    3    3    0    0 -1.3837764425e+01 -1.0302177951e+01 -7.2843379361e+00 7.2461543475e+01 6.9999965063e+01 1.8362e-04 0.0000e+00
      -11  1    4    4    0    0 +4.5738492097e+00 +1.4087619145e+01 +1.6800303989e+01 2.2397127587e+01 5.1100000000e-04 0.0000e+00 1.0000e+00
       11  1    4    4    0    0 -2.3103956166e+01 -9.6161402571e+00 -5.0727468372e+00 2.5534206561e+01 5.1100000000e-04 0.0000e+00 -1.0000e+00
       12  1    4    4    0    0 +4.6923425313e+00 -1.4773656839e+01 -1.9011895088e+01 2.4530209328e+01 0.0000000000e+00 0.0000e+00 -1.0000e+00
      -12  1    3    3    0    0 +1.3837764425e+01 +1.0302177951e+01 +7.2843379361e+00 1.8726456525e+01 0.0000000000e+00 0.0000e+00 1.0000e+00
</event>
<event>
 9      4 +1.0086356e-04 9.11880000e+01 7.81616400e-03 1.18400000e-01
      -11 -1    0    0    0    0 +0.0000000000e+00 +0.0000000000e+00 +4.5593999997e+01 4.5594000000e+01 5.1100000000e-04 0.0000e+00 -1.0000e+00
       11 -1    0    0    0    0 -0.0000000000e+00 -0.0000000000e+00 -4.5593999997e+01 4.5594000000e+01 5.1100000000e-04 0.0000e+00 1.0000e+00
       23  2    1    2    0    0 +0.0000000000e+00 -3.5527136788e-15 +3.5527136788e-15 9.1188000000e+01 9.1188000000e+01 2.5658e-14 0.0000e+00
 -9990012  2    3    3    0    0 -1.6586053214e+00 -1.5134341975e+01 +1.0903160524e+01 7.2461596500e+01 7.0000034138e+01 5.1068e-05 0.0000e+00
      -24  2    4    4    0    0 -4.1402349161e-01 -1.8442497983e+01 +7.9171418408e+00 6.7834590130e+01 6.4796244767e+01 9.3906e-14 0.0000e+00
      -11  1    4    4    0    0 -1.2445818298e+00 +3.3081560086e+00 +2.9860186837e+00 4.6270063701e+00 5.1100000000e-04 0.0000e+00 1.0000e+00
       11  1    5    5    0    0 +9.9832938930e+00 +2.0444135482e+01 +1.4596970761e+01 2.7031470330e+01 5.1100000000e-04 0.0000e+00 -1.0000e+00
      -12  1    5    5    0    0 -1.0397317385e+01 -3.8886633465e+01 -6.6798289199e+00 4.0803119800e+01 0.0000000000e+00 0.0000e+00 1.0000e+00
       12  1    3    3    0    0 +1.6586053214e+00 +1.5134341975e+01 -1.0903160524e+01 1.8726403500e+01 0.0000000000e+00 0.0000e+00 -1.0000e+00
</event>
<event>
 8      3 +1.0086356e-04 9.11880000e+01 7.81616400e-03 1.18400000e-01
      -11 -1    0    0    0    0 +0.0000000000e+00 +0.0000000000e+00 +4.5593999997e+01 4.5594000000e+01 5.1100000000e-04 0.0000e+00 -1.0000e+00
       11 -1    0    0    0    0 -0.0000000000e+00 -0.0000000000e+00 -4.5593999997e+01 4.5594000000e+01 5.1100000000e-04 0.0000e+00 1.0000e+00
       23  2    1    2    0    0 +2.2204460493e-16 +0.0000000000e+00 +8.8817841970e-16 9.1188000000e+01 9.1188000000e+01 3.2945e-13 0.0000e+00
  9990012  2    3    3    0    0 +1.5570595605e+00 -1.8160290266e+01 +4.2963411789e+00 7.2461571495e+01 7.0000001564e+01 5.7574e-05 0.0000e+00
      -11  1    4    4    0    0 +1.4434500708e+01 -3.9840027969e+00 -2.0578613657e+01 2.5450077196e+01 5.1100000000e-04 0.0000e+00 1.0000e+00
       11  1    4    4    0    0 -1.4615048013e+01 -1.5370996134e+00 -4.1802614316e+00 1.5278641613e+01 5.1100000000e-04 0.0000e+00 -1.0000e+00
       12  1    4    4    0    0 +1.7376068652e+00 -1.2639187856e+01 +2.9055216268e+01 3.1732852687e+01 0.0000000000e+00 0.0000e+00 -1.0000e+00
      -12  1    3    3    0    0 -1.5570595605e+00 +1.8160290266e+01 -4.2963411789e+00 1.8726428505e+01 0.0000000000e+00 0.0000e+00 1.0000e+00
</event>
<event>
 9      2 +1.0086356e-04 9.11880000e+01 7.81616400e-03 1.18400000e-01
      -11 -1    0    0    0    0 +0.0000000000e+00 +0.0000000000e+00 +4.5593999997e+01 4.5594000000e+01 5.1100000000e-04 0.0000e+00 1.0000e+00
       11 -1    0    0    0    0 -0.0000000000e+00 -0.0000000000e+00 -4.5593999997e+01 4.5594000000e+01 5.1100000000e-04 0.0000e+00 -1.0000e+00
       23  2    1    2    0    0 +0.0000000000e+00 +8.8817841970e-16 +0.0000000000e+00 9.1188000000e+01 9.1188000000e+01 9.0293e-14 0.0000e+00
 -9990012  2    3    3    0    0 +1.6313628417e+01 +3.9871632185e+00 +8.2852218103e+00 7.2461632410e+01 7.0000080918e+01 4.0650e-05 0.0000e+00
       23  2    4    4    0    0 +1.8544299870e+01 -9.4457633429e+00 +1.0067820895e+01 5.8728567544e+01 5.3986758796e+01 1.4130e-14 0.0000e+00
      -11  1    5    5    0    0 +3.1479002817e+00 -2.3063933690e+01 +2.4359624044e+01 3.3693405843e+01 5.1100000000e-04 0.0000e+00 1.0000e+00
       11  1    5    5    0    0 +1.5396399589e+01 +1.3618170347e+01 -1.4291803149e+01 2.5035161701e+01 5.1100000000e-04 0.0000e+00 -1.0000e+00
      -12  1    4    4    0    0 -2.2306714533e+00 +1.3432926561e+01 -1.7825990849e+00 1.3733064867e+01 0.0000000000e+00 0.0000e+00 1.0000e+00
       12  1    3    3    0    0 -1.6313628417e+01 -3.9871632185e+00 -8.2852218103e+00 1.8726367590e+01 0.0000000000e+00 0.0000e+00 -1.0000e+00
</event>
<event>
 8      4 +1.0086356e-04 9.11880000e+01 7.81616400e-03 1.18400000e-01
      -11 -1    0    0    0    0 +0.0000000000e+00 +0.0000000000e+00 +4.5593999997e+01 4.5594000000e+01 5.1100000000e-04 0.0000e+00 1.0000e+00
       11 -1    0    0    0    0 -0.0000000000e+00 -0.0000000000e+00 -4.5593999997e+01 4.5594000000e+01 5.1100000000e-04 0.0000e+00 -1.0000e+00
       23  2    1    2    0    0 +1.7763568394e-15 -3.5527136788e-15 -2.6645352591e-15 9.1188000000e+01 9.1188000000e+01 6.0112e-14 0.0000e+00
 -9990012  2    3    3    0    0 -1.0065527659e+01 +1.4488672325e+01 -6.2804632498e+00 7.2461529659e+01 6.9999947065e+01 1.3145e-03 0.0000e+00
      -11  1    4    4    0    0 -1.3713798889e+00 +2.4167426952e+01 -1.9913420982e+01 3.1344689243e+01 5.1100000000e-04 0.0000e+00 1.0000e+00
       11  1    4    4    0    0 +3.0169395842e+00 +4.7440966249e+00 -9.7480670583e+00 1.1253141289e+01 5.1100000000e-04 0.0000e+00 -1.0000e+00
      -12  1    4    4    0    0 -1.1711087355e+01 -1.4422851252e+01 +2.3381024791e+01 2.9863699127e+01 0.0000000000e+00 0.0000e+00 1.0000e+00
       12  1    3    3    0    0 +1.0065527659e+01 -1.4488672325e+01 +6.2804632498e+00 1.8726470341e+01 0.0000000000e+00 0.0000e+00 -1.0000e+00
</event>
<event>
 9      3 +1.0086356e-04 9.11880000e+01 7.81616400e-03 1.18400000e-01
      -11 -1    0    0    0    0 +0.0000000000e+00 +0.0000000000e+00 +4.5593999997e+01 4.5594000000e+01 5.1100000000e-04 0.0000e+00 1.0000e+00
       11 -1    0    0    0    0 -0.0000000000e+00 -0.0000000000e+00 -4.5593999997e+01 4.5594000000e+01 5.1100000000e-04 0.0000e+00 -1.0000e+00
       23  2    1    2    0    0 -3.5527136788e-15 +2.6645352591e-15 -4.4408920985e-16 9.1188000000e+01 9.1188000000e+01 6.5048e-14 0.0000e+00
  9990012  2    3    3    0    0 +1.7923935659e+01 -5.3788162998e+00 +6.9098945139e-01 7.2461638882e+01 7.0000089348e+01 2.6358e-04 0.0000e+00
       24  2    4    4    0    0 +9.8938245857e+00 -7.6411093519e-02 +7.8526373389e+00 6.0466332069e+01 5.9132223001e+01 2.0157e-14 0.0000e+00
      -11  1    5    5    0    0 +1.7931123691e+01 +2.5366825556e+01 -3.9035283636e+00 3.1308761866e+01 5.1100000000e-04 0.0000e+00 1.0000e+00
       11  1    4    4    0    0 +8.0301110732e+00 -5.3024052063e+00 -7.1616478875e+00 1.1995306813e+01 5.1100000000e-04 0.0000e+00 -1.0000e+00
       12  1    5    5    0    0 -8.0372991051e+00 -2.5443236650e+01 +1.1756165702e+01 2.9157570203e+01 0.0000000000e+00 0.0000e+00 -1.0000e+00
      -12  1    3    3    0    0 -1.7923935659e+01 +5.3788162998e+00 -6.9098945139e-01 1.8726361118e+01 0.0000000000e+00 0.0000e+00 1.0000e+00
</event>
<event>
 8      3 +1.0086356e-04 9.11880000e+01 7.81616400e-03 1.18400000e-01
      -11 -1    0    0    0    0 +0.0000000000e+00 +0.0000000000e+00 +4.5593999997e+01 4.5594000000e+01 5.1100000000e-04 0.0000e+00 -1.0000e+00
       11 -1    0    0    0    0 -0.0000000000e+00 -0.0000000000e+00 -4.5593999997e+01 4.5594000000e+01 5.1100000000e-04 0.0000e+00 1.0000e+00
       23  2    1    2    0    0 +1.3322676296e-15 +8.8817841970e-16 +0.0000000000e+00 9.1188000000e+01 9.1188000000e+01 1.9206e-14 0.0000e+00
  9990012  2    3    3    0    0 +2.0914612552e+00 -6.4617104421e+00 +1.7451290197e+01 7.2461669832e+01 7.0000129667e+01 1.9853e-04 0.0000e+00
      -11  1    4    4    0    0 -2.7659970634e+01 +1.6779634991e+01 +7.9219147892e+00 3.3307459526e+01 5.1100000000e-04 0.0000e+00 -1.0000e+00
       11  1    4    4    0    0 +2.0525026468e+01 -1.8333846956e+01 +6.6087277854e+00 2.8303390944e+01 5.1100000000e-04 0.0000e+00 1.0000e+00
       12  1    4    4    0    0 +9.2264054215e+00 -4.9074984773e+00 +2.9206476220e+00 1.0850819363e+01 0.0000000000e+00 0.0000e+00 -1.0000e+00
      -12  1    3    3    0    0 -2.0914612552e+00 +6.4617104421e+00 -1.7451290197e+01 1.8726330168e+01 0.0000000000e+00 0.0000e+00 1.0000e+00
</event>
<event>
 9      2 +1.0086356e-04 9.11880000e+01 7.81616400e-03 1.18400000e-01
      -11 -1    0    0    0    0 +0.0000000000e+00 +0.0000000000e+00 +4.5593999997e+01 4.5594000000e+01 5.1100000000e-04 0.0000e+00 1.0000e+00
       11 -1    0    0    0    0 -0.0000000000e+00 -0.0000000000e+00 -4.5593999997e+01 4.5594000000e+01 5.1100000000e-04 0.0000e+00 -1.0000e+00
       23  2    1    2    0    0 +1.7763568394e-15 -3.5527136788e-15 -1.7763568394e-15 9.1188000000e+01 9.1188000000e+01 7.1130e-14 0.0000e+00
 -9990012  2    3    3    0    0 +2.1614851159e+00 +1.6213153703e+01 +9.1181578365e+00 7.2461570195e+01 6.9999999871e+01 1.0059e-04 0.0000e+00
       23  2    4    4    0    0 +8.4645314711e+00 +2.1602313511e+01 +7.9622282154e+00 6.4088541467e+01 5.9208410105e+01 1.4429e-13 0.0000e+00
      -11  1    5    5    0    0 -2.2441683415e+01 -1.7360624942e+00 -5.3508146973e+00 2.3135995454e+01 5.1100000000e-04 0.0000e+00 -1.0000e+00
       11  1    5    5    0    0 +3.0906214886e+01 +2.3338376005e+01 +1.3313042913e+01 4.0952546013e+01 5.1100000000e-04 0.0000e+00 1.0000e+00
      -12  1    4    4    0    0 -6.3030463551e+00 -5.3891598076e+00 +1.1559296211e+00 8.3730287278e+00 0.0000000000e+00 0.0000e+00 1.0000e+00
       12  1    3    3    0    0 -2.1614851159e+00 -1.6213153703e+01 -9.1181578365e+00 1.8726429805e+01 0.0000000000e+00 0.0000e+00 -1.0000e+00
</event>
<event>
 9      4 +1.0086356e-04 9.11880000e+01 7.81616400e-03 1.18400000e-01
      -11 -1    0    0    0    0 +0.0000000000e+00 +0.0000000000e+00 +4.5593999997e+01 4.5594000000e+01 5.1100000000e-04 0.0000e+00 -1.0000e+00
       11 -1    0    0    0    0 -0.0000000000e+00 -0.0000000000e+00 -4.5593999997e+01 4.5594000000e+01 5.1100000000e-04 0.0000e+00 1.0000e+00
       23  2    1    2    0    0 +1.7763568394e-15 +1.3322676296e-15 -3.5527136788e-15 9.1188000000e+01 9.1188000000e+01 3.8842e-14 0.0000e+00
 -9990012  2    3    3    0    0 -4.7095856735e+00 +3.7210039839e+00 -1.7738464913e+01 7.2461569338e+01 6.9999998754e+01 2.4224e-04 0.0000e+00
      -24  2    4    4    0    0 -1.3531794250e+01 -2.5652356341e-01 -1.8849580847e+01 6.2720590515e+01 5.8269979547e+01 1.2153e-14 0.0000e+00
      -11  1    4    4    0    0 +8.8222085764e+00 +3.9775275473e+00 +1.1111159337e+00 9.7409788232e+00 5.1100000000e-04 0.0000e+00 1.0000e+00
       11  1    5    5    0    0 -1.6425432717e+01 +2.6020702581e+01 -9.3343444088e-01 3.0785436539e+01 5.1100000000e-04 0.0000e+00 -1.0000e+00
      -12  1    5    5    0    0 +2.8936384668e+00 -2.6277226145e+01 -1.7916146406e+01 3.1935153976e+01 0.0000000000e+00 0.0000e+00 1.0000e+00
       12  1    3    3    0    0 +4.7095856735e+00 -3.7210039839e+00 +1.7738464913e+01 1.8726430662e+01 0.0000000000e+00 0.0000e+00 -1.0000e+00
</event>
<event>
 9      4 +1.0086356e-04 9.11880000e+01 7.81616400e-03 1.18400000e-01
      -11 -1    0    0    0    0 +0.0000000000e+00 +0.0000000000e+00 +4.5593999997e+01 4.5594000000e+01 5.1100000000e-04 0.0000e+00 1.0000e+00
       11 -1    0    0    0    0 -0.0000000000e+00 -0.0000000000e+00 -4.5593999997e+01 4.5594000000e+01 5.1100000000e-04 0.0000e+00 -1.0000e+00
       23  2    1    2    0    0 +0.0000000000e+00 +0.0000000000e+00 +8.8817841970e-16 9.1188000000e+01 9.1188000000e+01 4.4118e-14 0.0000e+00
 -9990012  2    3    3    0    0 +1.5721731522e+01 -7.5155468575e+00 -6.8573145689e+00 7.2461573494e+01 7.0000004168e+01 1.4685e-04 0.0000e+00
      -24  2    4    4    0    0 +1.0257218308e+01 -7.3760828260e-01 -5.9583893703e+00 6.3708892604e+01 6.2590462528e+01 4.1772e-14 0.0000e+00
      -11  1    4    4    0    0 +5.4645132138e+00 -6.7779385749e+00 -8.9892519861e-01 8.7526808900e+00 5.1100000000e-04 0.0000e+00 1.0000e+00
       11  1    5    5    0    0 +2.6144043864e+00 -1.2790659285e+01 -3.1695866745e+01 3.4279207170e+01 5.1100000000e-04 0.0000e+00 -1.0000e+00
      -12  1    5    5    0    0 +7.6428139214e+00 +1.2053051003e+01 +2.5737477375e+01 2.9429685433e+01 0.0000000000e+00 0.0000e+00 1.0000e+00
       12  1    3    3    0    0 -1.5721731522e+01 +7.5155468575e+00 +6.8573145689e+00 1.8726426506e+01 0.0000000000e+00 0.0000e+00 -1.0000e+00
</event>
<event>
 8      4 +1.0086356e-04 9.11880000e+01 7.81616400e-03 1.18400000e-01
      -11 -1    0    0    0    0 +0.0000000000e+00 +0.0000000000e+00 +4.5593999997e+01 4.5594000000e+01 5.1100000000e-04 0.0000e+00 -1.0000e+00
       11 -1    0    0    0    0 -0.0000000000e+00 -0.0000000000e+00 -4.5593999997e+01 4.5594000000e+01 5.1100000000e-04 0.0000e+00 1.0000e+00
       23  2    1    2    0    0 +0.0000000000e+00 +0.0000000000e+00 -1.7763568394e-15 9.1188000000e+01 9.1188000000e+01 1.2335e-13 0.0000e+00
 -9990012  2    3    3    0    0 -1.3981183311e+01 +1.1791220422e+01 -4.0214456906e+00 7.2461591074e+01 7.0000027069e+01 4.3122e-04 0.0000e+00
      -11  1    4    4    0    0 -2.1490812000e+01 -9.5638142252e+00 +1.2991155091e+01 2.6871763131e+01 5.1100000000e-04 0.0000e+00 -1.0000e+00
       11  1    4    4    0    0 -2.8570326342e+00 -4.5811111579e+00 +6.9413681566e+00 8.7938505253e+00 5.1100000000e-04 0.0000e+00 1.0000e+00
      -12  1    4    4    0    0 +1.0366661323e+01 +2.5936145805e+01 -2.3953968938e+01 3.6795977417e+01 0.0000000000e+00 0.0000e+00 1.0000e+00
       12  1    3    3    0    0 +1.3981183311e+01 -1.1791220422e+01 +4.0214456906e+00 1.8726408926e+01 0.0000000000e+00 0.0000e+00 -1.0000e+00
</event>
<event>
 9      4 +1.0086356e-04 9.11880000e+01 7.81616400e-03 1.18400000e-01
      -11 -1    0    0    0    0 +0.0000000000e+00 +0.0000000000e+00 +4.5593999997e+01 4.5594000000e+01 5.1100000000e-04 0.0000e+00 1.0000e+00
       11 -1    0    0    0    0 -0.0000000000e+00 -0.0000000000e+00 -4.5593999997e+01 4.5594000000e+01 5.1100000000e-04 0.0000e+00 -1.0000e+00
       23  2    1    2    0    0 -1.7763568394e-15 -1.7763568394e-15 +1.7763568394e-15 9.1188000000e+01 9.1188000000e+01 3.5852e-14 0.0000e+00
 -9990012  2    3    3    0    0 -4.7327764075e+00 +9.8703633941e+00 +1.5193941573e+01 7.2461571975e+01 7.0000002189e+01 6.0540e-05 0.0000e+00
      -24  2    4    4    0    0 -1.6826635933e+01 +7.8531098828e+00 +1.1751991316e+01 5.9726668293e+01 5.5537002025e+01 5.6507e-14 0.0000e+00
      -11  1    4    4    0    0 +1.2093859525e+01 +2.0172535113e+00 +3.4419502573e+00 1.2734903682e+01 5.1100000000e-04 0.0000e+00 1.0000e+00
       11  1    5    5    0    0 +6.0574747703e+00 -1.2414224589e+01 -1.4065669126e+01 1.9714183243e+01 5.1100000000e-04 0.0000e+00 -1.0000e+00
      -12  1    5    5    0    0 -2.2884110703e+01 +2.0267334471e+01 +2.5817660441e+01 4.0012485050e+01 0.0000000000e+00 0.0000e+00 1.0000e+00
       12  1    3    3    0    0 +4.7327764075e+00 -9.8703633941e+00 -1.5193941573e+01 1.8726428025e+01 0.0000000000e+00 0.0000e+00 -1.0000e+00
</event>
<event>
 8      3 +1.0086356e-04 9.11880000e+01 7.81616400e-03 1.18400000e-01
      -11 -1    0    0    0    0 +0.0000000000e+00 +0.0000000000e+00 +4.5593999997e+01 4.5594000000e+01 5.1100000000e-04 0.0000e+00 -1.0000e+00
       11 -1    0    0    0    0 -0.0000000000e+00 -0.0000000000e+00 -4.5593999997e+01 4.5594000000e+01 5.1100000000e-04 0.0000e+00 1.0000e+00
       23  2    1    2    0    0 +1.7763568394e-15 -1.7763568394e-15 +0.0000000000e+00 9.1188000000e+01 9.1188000000e+01 5.1887e-14 0.0000e+00
  9990012  2    3    3    0    0 -1.1764770367e+01 -8.3017295414e+00 +1.1972913055e+01 7.2461569956e+01 6.9999999559e+01 1.8251e-05 0.0000e+00
      -11  1    4    4    0    0 -4.7725440943e+00 -6.9078949078e+00 -2.6175477348e-01 8.4002800556e+00 5.1100000000e-04 0.0000e+00 1.0000e+00
       11  1    4    4    0    0 -2.1245558244e+01 -2.5043285777e+01 -2.1786040189e+00 3.2913313770e+01 5.1100000000e-04 0.0000e+00 -1.0000e+00
       12  1    4    4    0    0 +1.4253331971e+01 +2.3649451143e+01 +1.4413271848e+01 3.1147976130e+01 0.0000000000e+00 0.0000e+00 -1.0000e+00
      -12  1    3    3    0    0 +1.1764770367e+01 +8.3017295414e+00 -1.1972913055e+01 1.8726430044e+01 0.0000000000e+00 0.0000e+00 1.0000e+00
</event>
<event>
 8      4 +1.0086356e-04 9.11880000e+01 7.81616400e-03 1.18400000e-01
      -11 -1    0    0    0    0 +0.0000000000e+00 +0.0000000000e+00 +4.5593999997e+01 4.5594000000e+01 5.1100000000e-04 0.0000e+00 1.0000e+00
       11 -1    0    0    0    0 -0.0000000000e+00 -0.0000000000e+00 -4.5593999997e+01 4.5594000000e+01 5.1100000000e-04 0.0000e+00 -1.0000e+00
       23  2    1    2    0    0 +1.7763568394e-15 +0.0000000000e+00 -1.6653345369e-16 9.1188000000e+01 9.1188000000e+01 1.2013e-13 0.0000e+00
 -9990012  2    3    3    0    0 +3.2367981194e+00 -1.8440192919e+01 -4.0223301389e-01 7.2461564986e+01 6.9999993084e+01 1.0711e-04 0.0000e+00
      -11  1    4    4    0    0 -4.3885065434e+00 -2.3450858803e+01 +3.9139120761e+00 2.4176858280e+01 5.1100000000e-04 0.0000e+00 1.0000e+00
       11  1    4    4    0    0 -1.3133801832e+01 -1.4499166871e+01 -7.9085195378e-01 1.9579275717e+01 5.1100000000e-04 0.0000e+00 -1.0000e+00
      -12  1    4    4    0    0 +2.0759106495e+01 +1.9509832755e+01 -3.5252931362e+00 2.8705430989e+01 0.0000000000e+00 0.0000e+00 1.0000e+00
       12  1    3    3    0    0 -3.2367981194e+00 +1.8440192919e+01 +4.0223301389e-01 1.8726435014e+01 0.0000000000e+00 0.0000e+00 -1.0000e+00
</event>
<event>
 9      4 +1.0086356e-04 9.11880000e+01 7.81616400e-03 1.18400000e-01
      -11 -1    0    0    0    0 +0.0000000000e+00 +0.0000000000e+00 +4.5593999997e+01 4.5594000000e+01 5.1100000000e-04 0.0000e+00 1.0000e+00
       11 -1    0    0    0    0 -0.0000000000e+00 -0.0000000000e+00 -4.5593999997e+01 4.5594000000e+01 5.1100000000e-04 0.0000e+00 -1.0000e+00
       23  2    1    2    0    0 +7.1054273576e-15 +8.8817841970e-16 -8.8817841970e-16 9.1188000000e+01 9.1188000000e+01 4.8160e-13 0.0000e+00
 -9990012  2    3    3    0    0 -1.7452286473e+01 -2.9794673804e+00 -6.1009007798e+00 7.2461534254e+01 6.9999953051e+01 4.6964e-04 0.0000e+00
      -24  2    4    4    0    0 -2.2272142475e+01 -6.6835061568e+00 -5.7550495119e+00 6.6372977077e+01 6.1899385346e+01 1.6824e-13 0.0000e+00
      -11  1    4    4    0    0 +4.8198560015e+00 +3.7040387764e+00 -3.4585126784e-01 6.0885571766e+00 5.1100000000e-04 0.0000e+00 1.0000e+00
       11  1    5    5    0    0 +1.0835342718e+00 -2.1026635353e+01 -2.5147699463e+01 3.2797869280e+01 5.1100000000e-04 0.0000e+00 -1.0000e+00
      -12  1    5    5    0    0 -2.3355676747e+01 +1.4343129196e+01 +1.9392649952e+01 3.3575107797e+01 0.0000000000e+00 0.0000e+00 1.0000e+00
       12  1    3    3    0    0 +1.7452286473e+01 +2.9794673804e+00 +6.1009007798e+00 1.8726465746e+01 0.0000000000e+00 0.0000e+00 -1.0000e+00
</event>
<event>
 8      3 +1.0086356e-04 9.11880000e+01 7.81616400e-03 1.18400000e-01
      -11 -1    0    0    0    0 +0.0000000000e+00 +0.0000000000e+00 +4.5593999997e+01 4.5594000000e+01 5.1100000000e-04 0.0000e+00 1.0000e+00
       11 -1    0    0    0    0 -0.0000000000e+00 -0.0000000000e+00 -4.5593999997e+01 4.5594000000e+01 5.1100000000e-04 0.0000e+00 -1.0000e+00
       23  2    1    2    0    0 +0.0000000000e+00 -4.4408920985e-16 -8.8817841970e-16 9.1188000000e+01 9.1188000000e+01 1.3725e-14 0.0000e+00
  9990012  2    3    3    0    0 +1.7774065017e+01 -1.9337911032e+00 -5.5692266714e+00 7.2461729122e+01 7.0000206903e+01 1.2100e-04 0.0000e+00
      -11  1    4    4    0    0 +2.6584129901e+01 +9.6313173043e+00 -2.8003815230e+00 2.8413383687e+01 5.1100000000e-04 0.0000e+00 1.0000e+00
       11  1    4    4    0    0 -9.9390821858e+00 -9.3841721288e+00 -2.1325266316e+01 2.5330120903e+01 5.1100000000e-04 0.0000e+00 -1.0000e+00
       12  1    4    4    0    0 +1.1290173021e+00 -2.1809362787e+00 +1.8556421167e+01 1.8718224533e+01 0.0000000000e+00 0.0000e+00 -1.0000e+00
      -12  1    3    3    0    0 -1.7774065017e+01 +1.9337911032e+00 +5.5692266714e+00 1.8726270878e+01 0.0000000000e+00 0.0000e+00 1.0000e+00
</event>
<event>
 9      4 +1.0086356e-04 9.11880000e+01 7.81616400e-03 1.18400000e-01
      -11 -1    0    0    0    0 +0.0000000000e+00 +0.0000000000e+00 +4.5593999997e+01 4.5594000000e+01 5.1100000000e-04 0.0000e+00 1.0000e+00
       11 -1    0    0    0    0 -0.0000000000e+00 -0.0000000000e+00 -4.5593999997e+01 4.5594000000e+01 5.1100000000e-04 0.0000e+00 -1.0000e+00
       23  2    1    2    0    0 +0.0000000000e+00 -2.6645352591e-15 +0.0000000000e+00 9.1188000000e+01 9.1188000000e+01 1.1232e-13 0.0000e+00
 -9990012  2    3    3    0    0 -1.6674709537e+01 -7.0173978891e+00 -4.8364067257e+00 7.2461530997e+01 6.9999948808e+01 2.0940e-04 0.0000e+00
      -24  2    4    4    0    0 -6.1884804062e+00 -5.0678750102e-01 -1.4420150601e+00 5.9660322302e+01 5.9318804156e+01 4.2488e-13 0.0000e+00
      -11  1    4    4    0    0 -1.0486229131e+01 -6.5106103881e+00 -3.3943916656e+00 1.2801208695e+01 5.1100000000e-04 0.0000e+00 1.0000e+00
       11  1    5    5    0    0 -8.1095964573e+00 -2.9368888975e+01 +1.9822100096e+00 3.0532382009e+01 5.1100000000e-04 0.0000e+00 -1.0000e+00
      -12  1    5    5    0    0 +1.9211160511e+00 +2.8862101474e+01 -3.4242250697e+00 2.9127940293e+01 0.0000000000e+00 0.0000e+00 1.0000e+00
       12  1    3    3    0    0 +1.6674709537e+01 +7.0173978891e+00 +4.8364067257e+00 1.8726469003e+01 0.0000000000e+00 0.0000e+00 -1.0000e+00
</event>
<event>
 9      4 +1.0086356e-04 9.11880000e+01 7.81616400e-03 1.18400000e-01
      -11 -1    0    0    0    0 +0.0000000000e+00 +0.0000000000e+00 +4.5593999997e+01 4.5594000000e+01 5.1100000000e-04 0.0000e+00 1.0000e+00
       11 -1    0    0    0    0 -0.0000000000e+00 -0.0000000000e+00 -4.5593999997e+01 4.5594000000e+01 5.1100000000e-04 0.0000e+00 -1.0000e+00
       23  2    1    2    0    0 +0.0000000000e+00 +0.0000000000e+00 -8.8817841970e-16 9.1188000000e+01 9.1188000000e+01 3.0114e-14 0.0000e+00
 -9990012  2    3    3    0    0 +1.6079400322e+01 -6.6946192537e+00 +6.8785521025e+00 7.2461560918e+01 6.9999987786e+01 7.7162e-05 0.0000e+00
      -24  2    4    4    0    0 +1.8141720407e+01 -3.6826981957e-02 +3.3797655450e+00 6.4662787315e+01 6.1973622395e+01 6.0058e-14 0.0000e+00
      -11  1    4    4    0    0 -2.0623200854e+00 -6.6577922717e+00 +3.4987865575e+00 7.7987736026e+00 5.1100000000e-04 0.0000e+00 1.0000e+00
       11  1    5    5    0    0 +1.5232285422e+01 -1.9554604929e+01 -2.1565898564e+01 3.2855639915e+01 5.1100000000e-04 0.0000e+00 -1.0000e+00
      -12  1    5    5    0    0 +2.9094349857e+00 +1.9517777947e+01 +2.4945664109e+01 3.1807147400e+01 0.0000000000e+00 0.0000e+00 1.0000e+00
       12  1    3    3    0    0 -1.6079400322e+01 +6.6946192537e+00 -6.8785521025e+00 1.8726439082e+01 0.0000000000e+00 0.0000e+00 -1.0000e+00
</event>
<event>
 8      4 +1.0086356e-04 9.11880000e+01 7.81616400e-03 1.18400000e-01
      -11 -1    0    0    0    0 +0.0000000000e+00 +0.0000000000e+00 +4.5593999997e+01 4.5594000000e+01 5.1100000000e-04 0.0000e+00 1.0000e+00
       11 -1    0    0    0    0 -0.0000000000e+00 -0.0000000000e+00 -4.5593999997e+01 4.5594000000e+01 5.1100000000e-04 0.0000e+00 -1.0000e+00
       23  2    1    2    0    0 +4.4408920985e-16 +1.7763568394e-15 +1.7763568394e-15 9.1188000000e+01 9.1188000000e+01 2.0095e-14 0.0000e+00
 -9990012  2    3    3    0    0 -3.5328044735e+00 +1.2535002661e+01 +1.3456442288e+01 7.2461472340e+01 6.9999872396e+01 6.7408e-05 0.0000e+00
      -11  1    4    4    0    0 -1.5278163031e+00 +2.0616688620e+01 +2.8633898633e+01 3.5316882981e+01 5.1100000000e-04 0.0000e+00 1.0000e+00
       11  1    4    4    0    0 -1.5171522714e+01 +4.3351060138e+00 -6.3493235459e+00 1.7008296663e+01 5.1100000000e-04 0.0000e+00 -1.0000e+00
      -12  1    4    4    0    0 +1.3166534544e+01 -1.2416791973e+01 -8.8281327993e+00 2.0136292695e+01 0.0000000000e+00 0.0000e+00 1.0000e+00
       12  1    3    3    0    0 +3.5328044735e+00 -1.2535002661e+01 -1.3456442288e+01 1.8726527660e+01 0.0000000000e+00 0.0000e+00 -1.0000e+00
</event>
<event>
 8      4 +1.0086356e-04 9.11880000e+01 7.81616400e-03 1.18400000e-01
      -11 -1    0    0    0    0 +0.0000000000e+00 +0.0000000000e+00 +4.5593999997e+01 4.5594000000e+01 5.1100000000e-04 0.0000e+00 -1.0000e+00
       11 -1    0    0    0    0 -0.0000000000e+00 -0.0000000000e+00 -4.5593999997e+01 4.5594000000e+01 5.1100000000e-04 0.0000e+00 1.0000e+00
       23  2    1    2    0    0 -1.7763568394e-15 +1.4432899320e-15 +0.0000000000e+00 9.1188000000e+01 9.1188000000e+01 6.9620e-14 0.0000e+00
 -9990012  2    3    3    0    0 -8.6437548350e+00 -9.2806120203e-01 -1.6586243399e+01 7.2461567736e+01 6.9999996667e+01 1.8566e-04 0.0000e+00
      -11  1    4    4    0    0 -6.7452716022e+00 +8.8000567699e+00 -2.8931601555e+01 3.0983499753e+01 5.1100000000e-04 0.0000e+00 1.0000e+00
       11  1    4    4    0    0 -4.3206052452e+00 +1.2846860838e+01 -3.2439947186e+00 1.3936748727e+01 5.1100000000e-04 0.0000e+00 -1.0000e+00
      -12  1    4    4    0    0 +2.4221220124e+00 -2.2574978810e+01 +1.5589352875e+01 2.7541319256e+01 0.0000000000e+00 0.0000e+00 1.0000e+00
       12  1    3    3    0    0 +8.6437548350e+00 +9.2806120203e-01 +1.6586243399e+01 1.8726432264e+01 0.0000000000e+00 0.0000e+00 -1.0000e+00
</event>
<event>
 9      3 +1.0086356e-04 9.11880000e+01 7.81616400e-03 1.18400000e-01
      -11 -1    0    0    0    0 +0.0000000000e+00 +0.0000000000e+00 +4.5593999997e+01 4.5594000000e+01 5.1100000000e-04 0.0000e+00 1.0000e+00
       11 -1    0    0    0    0 -0.0000000000e+00 -0.0000000000e+00 -4.5593999997e+01 4.5594000000e+01 5.1100000000e-04 0.0000e+00 -1.0000e+00
       23  2    1    2    0    0 -8.8817841970e-16 +1.7763568394e-15 -3.5527136788e-15 9.1188000000e+01 9.1188000000e+01 3.6804e-14 0.0000e+00
  9990012  2    3    3    0    0 +4.4143429771e+00 +6.1839095242e+00 -1.7115780155e+01 7.2461625785e+01 7.0000072287e+01 5.7429e-05 0.0000e+00
       23  2    4    4    0    0 +1.0584664165e+01 +3.6842877971e+00 -2.2244993609e+00 5.6149936233e+01 5.4975065707e+01 8.7514e-14 0.0000e+00
      -11  1    5    5    0    0 +2.3121610386e+00 +2.4566710324e+01 +1.4066178626e+01 2.8402935169e+01 5.1100000000e-04 0.0000e+00 1.0000e+00
       11  1    5    5    0    0 +8.2725031263e+00 -2.0882422527e+01 -1.6290677987e+01 2.7747001065e+01 5.1100000000e-04 0.0000e+00 -1.0000e+00
       12  1    4    4    0    0 -6.1703211878e+00 +2.4996217271e+00 -1.4891280794e+01 1.6311689552e+01 0.0000000000e+00 0.0000e+00 -1.0000e+00
      -12  1    3    3    0    0 -4.4143429771e+00 -6.1839095242e+00 +1.7115780155e+01 1.8726374215e+01 0.0000000000e+00 0.0000e+00 1.0000e+00
</event>
<event>
 9      4 +1.0086356e-04 9.11880000e+01 7.81616400e-03 1.18400000e-01
      -11 -1    0    0    0    0 +0.0000000000e+00 +0.0000000000e+00 +4.5593999997e+01 4.5594000000e+01 5.1100000000e-04 0.0000e+00 1.0000e+00
       11 -1    0    0    0    0 -0.0000000000e+00 -0.0000000000e+00 -4.5593999997e+01 4.5594000000e+01 5.1100000000e-04 0.0000e+00 -1.0000e+00
       23  2    1    2    0    0 +0.0000000000e+00 -8.8817841970e-16 -1.1102230246e-15 9.1188000000e+01 9.1188000000e+01 7.4062e-14 0.0000e+00
 -9990012  2    3    3    0    0 +1.7135892571e+01 +7.4080104648e+00 -1.4739578292e+00 7.2461281523e+01 6.9999623820e+01 7.2022e-05 0.0000e+00
      -24  2    4    4    0    0 +1.3902799488e+01 +1.2288283277e+01 -1.1825996845e+01 6.0568650794e+01 5.6430643431e+01 2.0053e-14 0.0000e+00
      -11  1    4    4    0    0 +3.2330930827e+00 -4.8802728125e+00 +1.0352039016e+01 1.1892630729e+01 5.1100000000e-04 0.0000e+00 1.0000e+00
       11  1    5    5    0    0 -1.1986876628e+01 -1.3261499652e+01 -1.5955481906e+01 2.3961009733e+01 5.1100000000e-04 0.0000e+00 -1.0000e+00
      -12  1    5    5    0    0 +2.5889676117e+01 +2.5549782929e+01 +4.1294850607e+00 3.6607641061e+01 0.0000000000e+00 0.0000e+00 1.0000e+00
       12  1    3    3    0    0 -1.7135892571e+01 -7.4080104648e+00 +1.4739578292e+00 1.8726718477e+01 0.0000000000e+00 0.0000e+00 -1.0000e+00
</event>
<event>
 8      3 +1.0086356e-04 9.11880000e+01 7.81616400e-03 1.18400000e-01
      -11 -1    0    0    0    0 +0.0000000000e+00 +0.0000000000e+00 +4.5593999997e+01 4.5594000000e+01 5.1100000000e-04 0.0000e+00 -1.0000e+00
       11 -1    0    0    0    0 -0.0000000000e+00 -0.0000000000e+00 -4.5593999997e+01 4.5594000000e+01 5.1100000000e-04 0.0000e+00 1.0000e+00
       23  2    1    2    0    0 +0.0000000000e+00 +0.0000000000e+00 +1.7763568394e-15 9.1188000000e+01 9.1188000000e+01 2.9262e-13 0.0000e+00
  9990012  2    3    3    0    0 +1.5387492407e+01 +3.7999462414e+00 -9.9731819711e+00 7.2461578221e+01 7.0000010326e+01 6.3420e-05 0.0000e+00
      -11  1    4    4    0    0 +1.3440252863e+00 -3.0431916612e+00 +7.3571292397e-01 3.4071532435e+00 5.1100000000e-04 0.0000e+00 1.0000e+00
       11  1    4    4    0    0 -6.8164262354e+00 +4.9179161416e+00 -3.5566870474e+01 3.6546570857e+01 5.1100000000e-04 0.0000e+00 -1.0000e+00
       12  1    4    4    0    0 +2.0859893356e+01 +1.9252217610e+00 +2.4857975579e+01 3.2507854121e+01 0.0000000000e+00 0.0000e+00 -1.0000e+00
      -12  1    3    3    0    0 -1.5387492407e+01 -3.7999462414e+00 +9.9731819711e+00 1.8726421779e+01 0.0000000000e+00 0.0000e+00 1.0000e+00
</event>
<event>
 8      4 +1.0086356e-04 9.11880000e+01 7.81616400e-03 1.18400000e-01
      -11 -1    0    0    0    0 +0.0000000000e+00 +0.0000000000e+00 +4.5593999997e+01 4.5594000000e+01 5.1100000000e-04 0.0000e+00 -1.0000e+00
       11 -1    0    0    0    0 -0.0000000000e+00 -0.0000000000e+00 -4.5593999997e+01 4.5594000000e+01 5.1100000000e-04 0.0000e+00 1.0000e+00
       23  2    1    2    0    0 +8.8817841970e-16 +0.0000000000e+00 +0.0000000000e+00 9.1188000000e+01 9.1188000000e+01 1.0726e-13 0.0000e+00
 -9990012  2    3    3    0    0 +4.2288805870e+00 -4.2650238440e+00 -1.7737104426e+01 7.2461581954e+01 7.0000015189e+01 6.1602e-06 0.0000e+00
      -11  1    4    4    0    0 +2.9595243622e+00 -1.4840065473e+00 -3.3704420475e+01 3.3866635789e+01 5.1100000000e-04 0.0000e+00 1.0000e+00
       11  1    4    4    0    0 +9.1699277968e+00 +1.3162524565e+01 +2.4031647647e+00 1.6220814711e+01 5.1100000000e-04 0.0000e+00 -1.0000e+00
      -12  1    4    4    0    0 -7.9005715719e+00 -1.5943541862e+01 +1.3564151284e+01 2.2374131454e+01 0.0000000000e+00 0.0000e+00 1.0000e+00
       12  1    3    3    0    0 -4.2288805870e+00 +4.2650238440e+00 +1.7737104426e+01 1.8726418046e+01 0.0000000000e+00 0.0000e+00 -1.0000e+00
</event>
<event>
 9      1 +1.0086356e-04 9.11880000e+01 7.81616400e-03 1.18400000e-01
      -11 -1    0    0    0    0 +0.0000000000e+00 +0.0000000000e+00 +4.5593999997e+01 4.5594000000e+01 5.1100000000e-04 0.0000e+00 1.0000e+00
       11 -1    0    0    0    0 -0.0000000000e+00 -0.0000000000e+00 -4.5593999997e+01 4.5594000000e+01 5.1100000000e-04 0.0000e+00 -1.0000e+00
       23  2    1    2    0    0 +3.5527136788e-15 +0.0000000000e+00 -3.5527136788e-15 9.1188000000e+01 9.1188000000e+01 1.2191e-14 0.0000e+00
  9990012  2    3    3    0    0 +1.1226749564e+01 +1.1662738667e+01 -9.4137948233e+00 7.2461577171e+01 7.0000008958e+01 7.5224e-05 0.0000e+00
       23  2    4    4    0    0 +1.3299497529e+01 +3.0040658129e+00 -1.3097072175e+01 6.2826462653e+01 5.9914356076e+01 3.2041e-14 0.0000e+00
      -11  1    5    5    0    0 -1.3022015792e+01 -1.6441198734e+01 -2.0441504610e+01 2.9287216018e+01 5.1100000000e-04 0.0000e+00 -1.0000e+00
       11  1    5    5    0    0 +2.6321513321e+01 +1.9445264547e+01 +7.3444324345e+00 3.3539246635e+01 5.1100000000e-04 0.0000e+00 1.0000e+00
       12  1    4    4    0    0 -2.0727479651e+00 +8.6586728542e+00 +3.6832773518e+00 9.6351145179e+00 0.0000000000e+00 0.0000e+00 -1.0000e+00
      -12  1    3    3    0    0 -1.1226749564e+01 -1.1662738667e+01 +9.4137948233e+00 1.8726422829e+01 0.0000000000e+00 0.0000e+00 1.0000e+00
</event>
<event>
 9      4 +1.0086356e-04 9.11880000e+01 7.81616400e-03 1.18400000e-01
      -11 -1    0    0    0    0 +0.0000000000e+00 +0.0000000000e+00 +4.5593999997e+01 4.5594000000e+01 5.1100000000e-04 0.0000e+00 1.0000e+00
       11 -1    0    0    0    0 -0.0000000000e+00 -0.0000000000e+00 -4.5593999997e+01 4.5594000000e+01 5.1100000000e-04 0.0000e+00 -1.0000e+00
       23  2    1    2    0    0 +0.0000000000e+00 +0.0000000000e+00 +1.7763568394e-15 9.1188000000e+01 9.1188000000e+01 1.0016e-13 0.0000e+00
 -9990012  2    3    3    0    0 -1.2626630172e+01 +1.2673796476e+01 +5.5337424170e+00 7.2461569167e+01 6.9999998531e+01 5.5518e-04 0.0000e+00
      -24  2    4    4    0    0 -1.2302418347e+01 +5.1314796094e+00 +1.9493812539e+01 5.6590992142e+01 5.1428105975e+01 7.9382e-14 0.0000e+00
      -11  1    4    4    0    0 -3.2421182465e-01 +7.5423168665e+00 -1.3960070122e+01 1.5870577025e+01 5.1100000000e-04 0.0000e+00 1.0000e+00
       11  1    5    5    0    0 -1.0758175916e+01 -6.5058563263e+00 -1.5339079162e+01 1.9833100246e+01 5.1100000000e-04 0.0000e+00 -1.0000e+00
      -12  1    5    5    0    0 -1.5442424312e+00 +1.1637335936e+01 +3.4832891701e+01 3.6757891896e+01 0.0000000000e+00 0.0000e+00 1.0000e+00
       12  1    3    3    0    0 +1.2626630172e+01 -1.2673796476e+01 -5.5337424170e+00 1.8726430833e+01 0.0000000000e+00 0.0000e+00 -1.0000e+00
</event>
<event>
 9      4 +1.0086356e-04 9.11880000e+01 7.81616400e-03 1.18400000e-01
      -11 -1    0    0    0    0 +0.0000000000e+00 +0.0000000000e+00 +4.5593999997e+01 4.5594000000e+01 5.1100000000e-04 0.0000e+00 -1.0000e+00
       11 -1    0    0    0    0 -0.0000000000e+00 -0.0000000000e+00 -4.5593999997e+01 4.5594000000e+01 5.1100000000e-04 0.0000e+00 1.0000e+00
       23  2    1    2    0    0 +2.2204460493e-16 -8.8817841970e-16 +0.0000000000e+00 9.1188000000e+01 9.1188000000e+01 9.1809e-14 0.0000e+00
 -9990012  2    3    3    0    0 -9.6491718047e-01 +7.8679501710e+00 -1.6965998891e+01 7.2461526135e+01 6.9999942474e+01 2.6811e-04 0.0000e+00
      -24  2    4    4    0    0 -2.8519452232e+00 +1.1825486679e+01 -1.9205735116e+01 6.7538174769e+01 6.3596926522e+01 2.8236e-14 0.0000e+00
      -11  1    4    4    0    0 +1.8870280427e+00 -3.9575365084e+00 +2.2397362246e+00 4.9233513653e+00 5.1100000000e-04 0.0000e+00 1.0000e+00
       11  1    5    5    0    0 -1.4867069087e+01 -1.6033088718e+01 +1.1215629552e+01 2.4573970449e+01 5.1100000000e-04 0.0000e+00 -1.0000e+00
      -12  1    5    5    0    0 +1.2015123864e+01 +2.7858575398e+01 -3.0421364668e+01 4.2964204321e+01 0.0000000000e+00 0.0000e+00 1.0000e+00
       12  1    3    3    0    0 +9.6491718047e-01 -7.8679501710e+00 +1.6965998891e+01 1.8726473865e+01 0.0000000000e+00 0.0000e+00 -1.0000e+00
</event>
<event>
 8      3 +1.0086356e-04 9.11880000e+01 7.81616400e-03 1.18400000e-01
      -11 -1    0    0    0    0 +0.0000000000e+00 +0.0000000000e+00 +4.5593999997e+01 4.5594000000e+01 5.1100000000e-04 0.0000e+00 1.0000e+00
       11 -1    0    0    0    0 -0.0000000000e+00 -0.0000000000e+00 -4.5593999997e+01 4.5594000000e+01 5.1100000000e-04 0.0000e+00 -1.0000e+00
       23  2    1    2    0    0 -1.7763568394e-15 +8.8817841970e-16 -3.5527136788e-15 9.1188000000e+01 9.1188000000e+01 2.9678e-13 0.0000e+00
  9990012  2    3    3    0    0 -7.6294968125e+00 +6.7386952378e+00 -1.5718124827e+01 7.2461583279e+01 7.0000016915e+01 1.4968e-04 0.0000e+00
      -11  1    4    4    0    0 -1.3951071677e+01 +2.0590819759e+01 +6.0665654854e+00 2.5601122560e+01 5.1100000000e-04 0.0000e+00 1.0000e+00
       11  1    4    4    0    0 -1.5992285164e+01 -9.2589310573e+00 -7.3291641757e+00 1.9879578387e+01 5.1100000000e-04 0.0000e+00 -1.0000e+00
       12  1    4    4    0    0 +2.2313860028e+01 -4.5931934636e+00 -1.4455526137e+01 2.6980882332e+01 0.0000000000e+00 0.0000e+00 -1.0000e+00
      -12  1    3    3    0    0 +7.6294968125e+00 -6.7386952378e+00 +1.5718124827e+01 1.8726416721e+01 0.0000000000e+00 0.0000e+00 1.0000e+00
</event>
<event>
 8      3 +1.0086356e-04 9.11880000e+01 7.81616400e-03 1.18400000e-01
      -11 -1    0    0    0    0 +0.0000000000e+00 +0.0000000000e+00 +4.5593999997e+01 4.5594000000e+01 5.1100000000e-04 0.0000e+00 -1.0000e+00
       11 -1    0    0    0    0 -0.0000000000e+00 -0.0000000000e+00 -4.5593999997e+01 4.5594000000e+01 5.1100000000e-04 0.0000e+00 1.0000e+00
       23  2    1    2    0    0 +1.1657341759e-15 +0.0000000000e+00 +8.8817841970e-16 9.1188000000e+01 9.1188000000e+01 9.3402e-14 0.0000e+00
  9990012  2    3    3    0    0 -3.4532015688e-01 +1.7206637324e+01 +7.3818699307e+00 7.2461558328e+01 6.9999984412e+01 2.8005e-04 0.0000e+00
      -11  1    4    4    0    0 +2.6350154844e+01 +9.6255023566e+00 -6.4013665483e+00 2.8774267148e+01 5.1100000000e-04 0.0000e+00 1.0000e+00
       11  1    4    4    0    0 -1.5937254411e+01 +1.6464706969e+01 -1.5369402225e+00 2.2966167274e+01 5.1100000000e-04 0.0000e+00 -1.0000e+00
       12  1    4    4    0    0 -1.0758220590e+01 -8.8835720020e+00 +1.5320176701e+01 2.0721123906e+01 0.0000000000e+00 0.0000e+00 -1.0000e+00
      -12  1    3    3    0    0 +3.4532015688e-01 -1.7206637324e+01 -7.3818699307e+00 1.8726441672e+01 0.0000000000e+00 0.0000e+00 1.0000e+00
</event>
<event>
 9      2 +1.0086356e-04 9.11880000e+01 7.81616400e-03 1.18400000e-01
      -11 -1    0    0    0    0 +0.0000000000e+00 +0.0000000000e+00 +4.5593999997e+01 4.5594000000e+01 5.1100000000e-04 0.0000e+00 1.0000e+00
       11 -1    0    0    0    0 -0.0000000000e+00 -0.0000000000e+00 -4.5593999997e+01 4.5594000000e+01 5.1100000000e-04 0.0000e+00 -1.0000e+00
       23  2    1    2    0    0 -2.6645352591e-15 +2.2204460493e-16 +0.0000000000e+00 9.1188000000e+01 9.1188000000e+01 1.5396e-14 0.0000e+00
 -9990012  2    3    3    0    0 +3.7338313406e+00 +1.6906870769e+00 +1.8272363284e+01 7.2461570035e+01 6.9999999662e+01 5.8408e-04 0.0000e+00
       23  2    4    4    0    0 -6.7661933631e+00 -2.7170222259e+00 +2.1177250936e+01 6.0709259949e+01 5.6426719770e+01 1.0686e-14 0.0000e+00
      -11  1    5    5    0    0 -1.9908377505e+01 -3.5211933797e+00 +3.5749102830e+01 4.1069948272e+01 5.1100000000e-04 0.0000e+00 1.0000e+00
       11  1    5    5    0    0 +1.3142184141e+01 +8.0417115389e-01 -1.4571851894e+01 1.9639311677e+01 5.1100000000e-04 0.0000e+00 -1.0000e+00
      -12  1    4    4    0    0 +1.0500024704e+01 +4.4077093027e+00 -2.9048876523e+00 1.1752310086e+01 0.0000000000e+00 0.0000e+00 1.0000e+00
       12  1    3    3    0    0 -3.7338313406e+00 -1.6906870769e+00 -1.8272363284e+01 1.8726429965e+01 0.0000000000e+00 0.0000e+00 -1.0000e+00
</event>
<event>
 8      4 +1.0086356e-04 9.11880000e+01 7.81616400e-03 1.18400000e-01
      -11 -1    0    0    0    0 +0.0000000000e+00 +0.0000000000e+00 +4.5593999997e+01 4.5594000000e+01 5.1100000000e-04 0.0000e+00 1.0000e+00
       11 -1    0    0    0    0 -0.0000000000e+00 -0.0000000000e+00 -4.5593999997e+01 4.5594000000e+01 5.1100000000e-04 0.0000e+00 -1.0000e+00
       23  2    1    2    0    0 -3.5527136788e-15 -4.4408920985e-16 +3.5527136788e-15 9.1188000000e+01 9.1188000000e+01 3.8334e-14 0.0000e+00
 -9990012  2    3    3    0    0 -1.6031106293e+01 +2.4060623790e+00 +9.3755476423e+00 7.2461377273e+01 6.9999748554e+01 5.0731e-05 0.0000e+00
      -11  1    4    4    0    0 -2.3210912468e+01 +9.3494324890e+00 +2.2668781512e-02 2.5023166459e+01 5.1100000000e-04 0.0000e+00 1.0000e+00
       11  1    4    4    0    0 +6.7459839163e+00 -1.0100608986e+01 +2.6946924367e+01 2.9557864164e+01 5.1100000000e-04 0.0000e+00 -1.0000e+00
      -12  1    4    4    0    0 +4.3382225875e-01 +3.1572388755e+00 -1.7594045506e+01 1.7880346650e+01 0.0000000000e+00 0.0000e+00 1.0000e+00
       12  1    3    3    0    0 +1.6031106293e+01 -2.4060623790e+00 -9.3755476423e+00 1.8726622727e+01 0.0000000000e+00 0.0000e+00 -1.0000e+00
</event>
<event>
 9      3 +1.0086356e-04 9.11880000e+01 7.81616400e-03 1.18400000e-01
      -11 -1    0    0    0    0 +0.0000000000e+00 +0.0000000000e+00 +4.5593999997e+01 4.5594000000e+01 5.1100000000e-04 0.0000e+00 1.0000e+00
       11 -1    0    0    0    0 -0.0000000000e+00 -0.0000000000e+00 -4.5593999997e+01 4.5594000000e+01 5.1100000000e-04 0.0000e+00 -1.0000e+00
       23  2    1    2    0    0 +0.0000000000e+00 +8.8817841970e-16 +1.7763568394e-15 9.1188000000e+01 9.1188000000e+01 3.8568e-13 0.0000e+00
  9990012  2    3    3    0    0 +1.5028351938e+01 -2.0286363640e+00 -1.0986868885e+01 7.2461601111e+01 7.0000040144e+01 4.1303e-04 0.0000e+00
       24  2    4    4    0    0 +8.6394666065e+00 -2.6471000476e+00 -3.7134462210e+00 6.2760929453e+01 6.1995943908e+01 1.8616e-13 0.0000e+00
      -11  1    5    5    0    0 +1.4100904246e+01 +2.5359959790e+01 +1.0530987105e+01 3.0868507428e+01 5.1100000000e-04 0.0000e+00 1.0000e+00
       11  1    4    4    0    0 +6.3888853313e+00 +6.1846368359e-01 -7.2734226637e+00 9.7006716577e+00 5.1100000000e-04 0.0000e+00 -1.0000e+00
       12  1    5    5    0    0 -5.4614376398e+00 -2.8007059838e+01 -1.4244433326e+01 3.1892422026e+01 0.0000000000e+00 0.0000e+00 -1.0000e+00
      -12  1    3    3    0    0 -1.5028351938e+01 +2.0286363640e+00 +1.0986868885e+01 1.8726398889e+01 0.0000000000e+00 0.0000e+00 1.0000e+00
</event>
<event>
 9      4 +1.0086356e-04 9.11880000e+01 7.81616400e-03 1.18400000e-01
      -11 -1    0    0    0    0 +0.0000000000e+00 +0.0000000000e+00 +4.5593999997e+01 4.5594000000e+01 5.1100000000e-04 0.0000e+00 -1.0000e+00
       11 -1    0    0    0    0 -0.0000000000e+00 -0.0000000000e+00 -4.5593999997e+01 4.5594000000e+01 5.1100000000e-04 0.0000e+00 1.0000e+00
       23  2    1    2    0    0 +1.7763568394e-15 +0.0000000000e+00 -1.7763568394e-15 9.1188000000e+01 9.1188000000e+01 2.7092e-13 0.0000e+00
 -9990012  2    3    3    0    0 -1.1352291833e+01 -8.8085039182e+00 -1.2009259362e+01 7.2461372393e+01 6.9999742196e+01 4.3111e-06 0.0000e+00
      -24  2    4    4    0    0 -1.3717544371e+01 +2.6015529562e+00 -7.0611436230e+00 5.9801685703e+01 5.7718651771e+01 6.6578e-14 0.0000e+00
      -11  1    4    4    0    0 +2.3652525386e+00 -1.1410056874e+01 -4.9481157388e+00 1.2659686689e+01 5.1100000000e-04 0.0000e+00 -1.0000e+00
       11  1    5    5    0    0 -1.2938399133e+01 +4.8076835184e+00 +2.4517862307e+01 2.8136125627e+01 5.1100000000e-04 0.0000e+00 1.0000e+00
      -12  1    5    5    0    0 -7.7914523860e-01 -2.2061305622e+00 -3.1579005930e+01 3.1665560076e+01 0.0000000000e+00 0.0000e+00 1.0000e+00
       12  1    3    3    0    0 +1.1352291833e+01 +8.8085039182e+00 +1.2009259362e+01 1.8726627607e+01 0.0000000000e+00 0.0000e+00 -1.0000e+00
</event>
<event>
 9      4 +1.0086356e-04 9.11880000e+01 7.81616400e-03 1.18400000e-01
      -11 -1    0    0    0    0 +0.0000000000e+00 +0.0000000000e+00 +4.5593999997e+01 4.5594000000e+01 5.1100000000e-04 0.0000e+00 -1.0000e+00
       11 -1    0    0    0    0 -0.0000000000e+00 -0.0000000000e+00 -4.5593999997e+01 4.5594000000e+01 5.1100000000e-04 0.0000e+00 1.0000e+00
       23  2    1    2    0    0 -2.2204460493e-16 +0.0000000000e+00 +0.0000000000e+00 9.1188000000e+01 9.1188000000e+01 6.1529e-14 0.0000e+00
 -9990012  2    3    3    0    0 -7.6064117958e-01 +7.1982786286e+00 -1.7270906855e+01 7.2461601152e+01 7.0000040198e+01 5.3854e-05 0.0000e+00
      -24  2    4    4    0    0 +8.0851197311e-01 +1.2038418524e+01 -1.2479703349e+01 6.5472693718e+01 6.3129655590e+01 1.1999e-13 0.0000e+00
      -11  1    4    4    0    0 -1.5691531527e+00 -4.8401398949e+00 -4.7912035063e+00 6.9889074339e+00 5.1100000000e-04 0.0000e+00 1.0000e+00
       11  1    5    5    0    0 -1.4515010509e+01 +1.7687386340e+00 +2.1972278641e+01 2.6393086128e+01 5.1100000000e-04 0.0000e+00 -1.0000e+00
      -12  1    5    5    0    0 +1.5323522482e+01 +1.0269679889e+01 -3.4451981990e+01 3.9079607590e+01 0.0000000000e+00 0.0000e+00 1.0000e+00
       12  1    3    3    0    0 +7.6064117958e-01 -7.1982786286e+00 +1.7270906855e+01 1.8726398848e+01 0.0000000000e+00 0.0000e+00 -1.0000e+00
</event>
<event>
 9      3 +1.0086356e-04 9.11880000e+01 7.81616400e-03 1.18400000e-01
      -11 -1    0    0    0    0 +0.0000000000e+00 +0.0000000000e+00 +4.5593999997e+01 4.5594000000e+01 5.1100000000e-04 0.0000e+00 -1.0000e+00
       11 -1    0    0    0    0 -0.0000000000e+00 -0.0000000000e+00 -4.5593999997e+01 4.5594000000e+01 5.1100000000e-04 0.0000e+00 1.0000e+00
       23  2    1    2    0    0 +0.0000000000e+00 -8.8817841970e-16 +3.5527136788e-15 9.1188000000e+01 9.1188000000e+01 2.1581e-13 0.0000e+00
  9990012  2    3    3    0    0 -1.0651155482e+01 +2.1218320248e+00 +1.5255492535e+01 7.2461565830e+01 6.9999994184e+01 2.1037e-04 0.0000e+00
       24  2    4    4    0    0 -7.1344583358e-01 -5.3080041153e+00 +2.2426100410e+01 5.8130545082e+01 5.3362406048e+01 1.4858e-13 0.0000e+00
      -11  1    5    5    0    0 +1.7407222167e+01 +1.1525540648e+01 -4.7229397766e+00 2.1404570334e+01 5.1100000000e-04 0.0000e+00 1.0000e+00
       11  1    4    4    0    0 -9.9377096480e+00 +7.4298361402e+00 -7.1706078747e+00 1.4331020748e+01 5.1100000000e-04 0.0000e+00 -1.0000e+00
       12  1    5    5    0    0 -1.8120668001e+01 -1.6833544763e+01 +2.7149040187e+01 3.6725974748e+01 0.0000000000e+00 0.0000e+00 -1.0000e+00
      -12  1    3    3    0    0 +1.0651155482e+01 -2.1218320248e+00 -1.5255492535e+01 1.8726434170e+01 0.0000000000e+00 0.0000e+00 1.0000e+00
</event>
<event>
 8      4 +1.0086356e-04 9.11880000e+01 7.81616400e-03 1.18400000e-01
      -11 -1    0    0    0    0 +0.0000000000e+00 +0.0000000000e+00 +4.5593999997e+01 4.5594000000e+01 5.1100000000e-04 0.0000e+00 -1.0000e+00
       11 -1    0    0    0    0 -0.0000000000e+00 -0.0000000000e+00 -4.5593999997e+01 4.5594000000e+01 5.1100000000e-04 0.0000e+00 1.0000e+00
       23  2    1    2    0    0 +0.0000000000e+00 +0.0000000000e+00 +0.0000000000e+00 9.1188000000e+01 9.1188000000e+01 3.4686e-13 0.0000e+00
 -9990012  2    3    3    0    0 -1.7323237770e+01 -5.0208943682e+00 -5.0373547224e+00 7.2461577766e+01 7.0000009733e+01 1.0292e-03 0.0000e+00
      -11  1    4    4    0    0 -1.1975947694e+01 -2.9095888403e+00 +2.2881332341e+01 2.5989313195e+01 5.1100000000e-04 0.0000e+00 1.0000e+00
       11  1    4    4    0    0 -1.4141369977e+01 -3.3111789440e+00 +2.5421950144e+00 1.4744660273e+01 5.1100000000e-04 0.0000e+00 -1.0000e+00
      -12  1    4    4    0    0 +8.7940799010e+00 +1.1998734161e+00 -3.0460882078e+01 3.1727604297e+01 0.0000000000e+00 0.0000e+00 1.0000e+00
       12  1    3    3    0    0 +1.7323237770e+01 +5.0208943682e+00 +5.0373547224e+00 1.8726422234e+01 0.0000000000e+00 0.0000e+00 -1.0000e+00
</event>
<event>
 8      3 +1.0086356e-04 9.11880000e+01 7.81616400e-03 1.18400000e-01
      -11 -1    0    0    0    0 +0.0000000000e+00 +0.0000000000e+00 +4.5593999997e+01 4.5594000000e+01 5.1100000000e-04 0.0000e+00 1.0000e+00
       11 -1    0    0    0    0 -0.0000000000e+00 -0.0000000000e+00 -4.5593999997e+01 4.5594000000e+01 5.1100000000e-04 0.0000e+00 -1.0000e+00
       23  2    1    2    0    0 +5.5511151231e-17 +0.0000000000e+00 +0.0000000000e+00 9.1188000000e+01 9.1188000000e+01 1.7201e-13 0.0000e+00
  9990012  2    3    3    0    0 -1.4330627318e-01 +1.6533787781e+01 -8.7916119476e+00 7.2461571731e+01 7.0000001872e+01 1.1087e-03 0.0000e+00
      -11  1    4    4    0    0 +1.9785631403e+01 +9.0140865790e+00 -1.2396397114e+00 2.1777549764e+01 5.1100000000e-04 0.0000e+00 1.0000e+00
       11  1    4    4    0    0 -1.9557435300e+00 -1.6738751459e+01 +5.5914023012e+00 1.7755971196e+01 5.1100000000e-04 0.0000e+00 -1.0000e+00
       12  1    4    4    0    0 -1.7973194146e+01 +2.4258452661e+01 -1.3143374537e+01 3.2928050771e+01 0.0000000000e+00 0.0000e+00 -1.0000e+00
      -12  1    3    3    0    0 +1.4330627318e-01 -1.6533787781e+01 +8.7916119476e+00 1.8726428269e+01 0.0000000000e+00 0.0000e+00 1.0000e+00
</event>
<event>
 8      4 +1.0086356e-04 9.11880000e+01 7.81616400e-03 1.18400000e-01
      -11 -1    0    0    0    0 +0.0000000000e+00 +0.0000000000e+00 +4.5593999997e+01 4.5594000000e+01 5.1100000000e-04 0.0000e+00 -1.0000e+00
       11 -1    0    0    0    0 -0.0000000000e+00 -0.0000000000e+00 -4.5593999997e+01 4.5594000000e+01 5.1100000000e-04 0.0000e+00 1.0000e+00
       23  2    1    2    0    0 -1.7763568394e-15 +1.7763568394e-15 +0.0000000000e+00 9.1188000000e+01 9.1188000000e+01 1.1607e-13 0.0000e+00
 -9990012  2    3    3    0    0 -1.4078625748e+01 +5.4731859708e+00 -1.1068668750e+01 7.2461577610e+01 7.0000009530e+01 6.5336e-05 0.0000e+00
      -11  1    4    4    0    0 +1.2645555625e-01 +3.0943356095e+01 -2.3879162268e+01 3.9086080237e+01 5.1100000000e-04 0.0000e+00 1.0000e+00
       11  1    4    4    0    0 -1.4670891885e+01 -2.1794091399e+01 +1.3605158832e+01 2.9585770832e+01 5.1100000000e-04 0.0000e+00 -1.0000e+00
      -12  1    4    4    0    0 +4.6581058029e-01 -3.6760787252e+00 -7.9466531454e-01 3.7897265406e+00 0.0000000000e+00 0.0000e+00 1.0000e+00
       12  1    3    3    0    0 +1.4078625748e+01 -5.4731859708e+00 +1.1068668750e+01 1.8726422390e+01 0.0000000000e+00 0.0000e+00 -1.0000e+00
</event>
<event>
 9      4 +1.0086356e-04 9.11880000e+01 7.81616400e-03 1.18400000e-01
      -11 -1    0    0    0    0 +0.0000000000e+00 +0.0000000000e+00 +4.5593999997e+01 4.5594000000e+01 5.1100000000e-04 0.0000e+00 -1.0000e+00
       11 -1    0    0    0    0 -0.0000000000e+00 -0.0000000000e+00 -4.5593999997e+01 4.5594000000e+01 5.1100000000e-04 0.0000e+00 1.0000e+00
       23  2    1    2    0    0 +0.0000000000e+00 +0.0000000000e+00 +2.6645352591e-15 9.1188000000e+01 9.1188000000e+01 2.9856e-15 0.0000e+00
 -9990012  2    3    3    0    0 +1.4934180904e+01 -9.4379249547e+00 -6.2110627597e+00 7.2461508409e+01 6.9999919382e+01 3.1074e-06 0.0000e+00
      -24  2    4    4    0    0 +4.2240694218e+00 +5.1779589561e+00 -5.0643570840e+00 5.4305366621e+01 5.3654180729e+01 7.6875e-15 0.0000e+00
      -11  1    4    4    0    0 +1.0710111482e+01 -1.4615883911e+01 -1.1467056757e+00 1.8156141788e+01 5.1100000000e-04 0.0000e+00 1.0000e+00
       11  1    5    5    0    0 +5.0039692574e+00 -3.5060703387e+00 +2.3582430209e+01 2.4361101214e+01 5.1100000000e-04 0.0000e+00 -1.0000e+00
      -12  1    5    5    0    0 -7.7989983567e-01 +8.6840292948e+00 -2.8646787293e+01 2.9944265407e+01 0.0000000000e+00 0.0000e+00 1.0000e+00
       12  1    3    3    0    0 -1.4934180904e+01 +9.4379249547e+00 +6.2110627597e+00 1.8726491591e+01 0.0000000000e+00 0.0000e+00 -1.0000e+00
</event>
<event>
 8      3 +1.0086356e-04 9.11880000e+01 7.81616400e-03 1.18400000e-01
      -11 -1    0    0    0    0 +0.0000000000e+00 +0.0000000000e+00 +4.5593999997e+01 4.5594000000e+01 5.1100000000e-04 0.0000e+00 -1.0000e+00
       11 -1    0    0    0    0 -0.0000000000e+00 -0.0000000000e+00 -4.5593999997e+01 4.5594000000e+01 5.1100000000e-04 0.0000e+00 1.0000e+00
       23  2    1    2    0    0 +5.3290705182e-15 +3.1086244690e-15 -3.5527136788e-15 9.1188000000e+01 9.1188000000e+01 1.3478e-13 0.0000e+00
  9990012  2    3    3    0    0 -1.1375659341e+01 -2.4140141009e+00 +1.4678078257e+01 7.2461572929e+01 7.0000003432e+01 6.3929e-05 0.0000e+00
      -11  1    4    4    0    0 -1.2799711142e+01 +1.1000233990e+00 +5.5858498034e+00 1.4008724963e+01 5.1100000000e-04 0.0000e+00 1.0000e+00
       11  1    4    4    0    0 +1.3399358550e+01 +2.3643898715e+01 -7.3667436115e-01 2.7186751284e+01 5.1100000000e-04 0.0000e+00 -1.0000e+00
       12  1    4    4    0    0 -1.1975306749e+01 -2.7157936215e+01 +9.8289028151e+00 3.1266096682e+01 0.0000000000e+00 0.0000e+00 -1.0000e+00
      -12  1    3    3    0    0 +1.1375659341e+01 +2.4140141009e+00 -1.4678078257e+01 1.8726427071e+01 0.0000000000e+00 0.0000e+00 1.0000e+00
</event>
<event>
 9      3 +1.0086356e-04 9.11880000e+01 7.81616400e-03 1.18400000e-01
      -11 -1    0    0    0    0 +0.0000000000e+00 +0.0000000000e+00 +4.5593999997e+01 4.5594000000e+01 5.1100000000e-04 0.0000e+00 -1.0000e+00
       11 -1    0    0    0    0 -0.0000000000e+00 -0.0000000000e+00 -4.5593999997e+01 4.5594000000e+01 5.1100000000e-04 0.0000e+00 1.0000e+00
       23  2    1    2    0    0 +8.8817841970e-16 +0.0000000000e+00 +5.3290705182e-15 9.1188000000e+01 9.1188000000e+01 2.2978e-14 0.0000e+00
  9990012  2    3    3    0    0 +3.2316707360e+00 +1.7250400748e+01 +6.5312788820e+00 7.2461611519e+01 7.0000053703e+01 4.7365e-04 0.0000e+00
       24  2    4    4    0    0 +1.8561209939e+00 +1.0002928047e+01 +9.6189364897e+00 6.4464635378e+01 6.2925841437e+01 1.9873e-13 0.0000e+00
      -11  1    5    5    0    0 +1.1629404250e+01 -5.5443600099e+00 -2.3383045284e+01 2.6697373993e+01 5.1100000000e-04 0.0000e+00 1.0000e+00
       11  1    4    4    0    0 +1.3755497420e+00 +7.2474727005e+00 -3.0876576078e+00 7.9969761411e+00 5.1100000000e-04 0.0000e+00 -1.0000e+00
       12  1    5    5    0    0 -9.7732832560e+00 +1.5547288057e+01 +3.3001981773e+01 3.7767261385e+01 0.0000000000e+00 0.0000e+00 -1.0000e+00
      -12  1    3    3    0    0 -3.2316707360e+00 -1.7250400748e+01 -6.5312788820e+00 1.8726388481e+01 0.0000000000e+00 0.0000e+00 1.0000e+00
</event>
<event>
 8      4 +1.0086356e-04 9.11880000e+01 7.81616400e-03 1.18400000e-01
      -11 -1    0    0    0    0 +0.0000000000e+00 +0.0000000000e+00 +4.5593999997e+01 4.5594000000e+01 5.1100000000e-04 0.0000e+00 1.0000e+00
       11 -1    0    0    0    0 -0.0000000000e+00 -0.0000000000e+00 -4.5593999997e+01 4.5594000000e+01 5.1100000000e-04 0.0000e+00 -1.0000e+00
       23  2    1    2    0    0 -8.8817841970e-16 -1.7763568394e-15 +0.0000000000e+00 9.1188000000e+01 9.1188000000e+01 6.0506e-14 0.0000e+00
 -9990012  2    3    3    0    0 -2.5929853412e+00 -5.4726473883e+00 +1.7720226611e+01 7.2461551497e+01 6.9999975513e+01 2.5603e-04 0.0000e+00
      -11  1    4    4    0    0 -1.7764929304e+01 +1.9869024894e+01 +2.0933848006e+01 3.3890955372e+01 5.1100000000e-04 0.0000e+00 1.0000e+00
       11  1    4    4    0    0 +5.4964531262e+00 -1.1532585276e+01 +1.0735486538e+01 1.6687186449e+01 5.1100000000e-04 0.0000e+00 -1.0000e+00
      -12  1    4    4    0    0 +9.6754908371e+00 -1.3809087007e+01 -1.3949107933e+01 2.1883409675e+01 0.0000000000e+00 0.0000e+00 1.0000e+00
       12  1    3    3    0    0 +2.5929853412e+00 +5.4726473883e+00 -1.7720226611e+01 1.8726448503e+01 0.0000000000e+00 0.0000e+00 -1.0000e+00
</event>
<event>
 9      3 +1.0086356e-04 9.11880000e+01 7.81616400e-03 1.18400000e-01
      -11 -1    0    0    0    0 +0.0000000000e+00 +0.0000000000e+00 +4.5593999997e+01 4.5594000000e+01 5.1100000000e-04 0.0000e+00 1.0000e+00
       11 -1    0    0    0    0 -0.0000000000e+00 -0.0000000000e+00 -4.5593999997e+01 4.5594000000e+01 5.1100000000e-04 0.0000e+00 -1.0000e+00
       23  2    1    2    0    0 +0.0000000000e+00 +0.0000000000e+00 -8.8817841970e-16 9.1188000000e+01 9.1188000000e+01 8.4961e-14 0.0000e+00
  9990012  2    3    3    0    0 -1.4025461091e+01 +1.0379856245e+01 -6.7988067470e+00 7.2461581558e+01 7.0000014673e+01 2.4481e-04 0.0000e+00
       24  2    4    4    0    0 -1.3148938207e+01 +7.9348035349e+00 -1.3957564370e+01 6.4846177033e+01 6.1435798925e+01 7.8826e-14 0.0000e+00
      -11  1    5    5    0    0 +1.4533397549e+01 -3.9468209985e+00 +1.6270517662e+01 2.2170403369e+01 5.1100000000e-04 0.0000e+00 1.0000e+00
       11  1    4    4    0    0 -8.7652288404e-01 +2.4450527102e+00 +7.1587576225e+00 7.6154045251e+00 5.1100000000e-04 0.0000e+00 -1.0000e+00
       12  1    5    5    0    0 -2.7682335756e+01 +1.1881624533e+01 -3.0228082032e+01 4.2675773663e+01 0.0000000000e+00 0.0000e+00 -1.0000e+00
      -12  1    3    3    0    0 +1.4025461091e+01 -1.0379856245e+01 +6.7988067470e+00 1.8726418442e+01 0.0000000000e+00 0.0000e+00 1.0000e+00
</event>
<event>
 9      3 +1.0086356e-04 9.11880000e+01 7.81616400e-03 1.18400000e-01
      -11 -1    0    0    0    0 +0.0000000000e+00 +0.0000000000e+00 +4.5593999997e+01 4.5594000000e+01 5.1100000000e-04 0.0000e+00 1.0000e+00
       11 -1    0    0    0    0 -0.0000000000e+00 -0.0000000000e+00 -4.5593999997e+01 4.5594000000e+01 5.1100000000e-04 0.0000e+00 -1.0000e+00
       23  2    1    2    0    0 +1.7763568394e-15 -1.7763568394e-15 +1.3322676296e-15 9.1188000000e+01 9.1188000000e+01 1.5438e-13 0.0000e+00
  9990012  2    3    3    0    0 -1.3055429467e+01 +1.3056073965e+01 -3.1263361533e+00 7.2461567246e+01 6.9999996029e+01 7.3270e-04 0.0000e+00
       24  2    4    4    0    0 -1.1258531336e+01 +1.1473494101e+01 -4.1338766508e+00 6.9863772020e+01 6.7863555094e+01 5.3485e-14 0.0000e+00
      -11  1    5    5    0    0 -2.5364908339e+01 +4.5070106711e+00 +2.5540423574e+01 3.6276782614e+01 5.1100000000e-04 0.0000e+00 1.0000e+00
       11  1    4    4    0    0 -1.7968981307e+00 +1.5825798644e+00 +1.0075404975e+00 2.5977952256e+00 5.1100000000e-04 0.0000e+00 -1.0000e+00
       12  1    5    5    0    0 +1.4106377003e+01 +6.9664834299e+00 -2.9674300225e+01 3.3586989406e+01 0.0000000000e+00 0.0000e+00 -1.0000e+00
      -12  1    3    3    0    0 +1.3055429467e+01 -1.3056073965e+01 +3.1263361533e+00 1.8726432754e+01 0.0000000000e+00 0.0000e+00 1.0000e+00
</event>
<event>
 8      3 +1.0086356e-04 9.11880000e+01 7.81616400e-03 1.18400000e-01
      -11 -1    0    0    0    0 +0.0000000000e+00 +0.0000000000e+00 +4.5593999997e+01 4.5594000000e+01 5.1100000000e-04 0.0000e+00 -1.0000e+00
       11 -1    0    0    0    0 -0.0000000000e+00 -0.0000000000e+00 -4.5593999997e+01 4.5594000000e+01 5.1100000000e-04 0.0000e+00 1.0000e+00
       23  2    1    2    0    0 +8.8817841970e-16 +0.0000000000e+00 +0.0000000000e+00 9.1188000000e+01 9.1188000000e+01 2.1900e-13 0.0000e+00
  9990012  2    3    3    0    0 -7.4903933717e+00 +8.3153173691e+00 +1.5014279289e+01 7.2461572728e+01 7.0000003170e+01 3.8286e-04 0.0000e+00
      -11  1    4    4    0    0 +1.1836636277e+01 -6.9829807465e+00 -1.1927023198e+01 1.8196754136e+01 5.1100000000e-04 0.0000e+00 1.0000e+00
       11  1    4    4    0    0 -2.0343332737e+01 +2.6002307744e-01 -3.1712497868e+00 2.0590668379e+01 5.1100000000e-04 0.0000e+00 -1.0000e+00
       12  1    4    4    0    0 +1.0163030880e+00 +1.5038275038e+01 +3.0112552274e+01 3.3674150213e+01 0.0000000000e+00 0.0000e+00 -1.0000e+00
      -12  1    3    3    0    0 +7.4903933717e+00 -8.3153173691e+00 -1.5014279289e+01 1.8726427272e+01 0.0000000000e+00 0.0000e+00 1.0000e+00
</event>
<event>
 9      3 +1.0086356e-04 9.11880000e+01 7.81616400e-03 1.18400000e-01
      -11 -1    0    0    0    0 +0.0000000000e+00 +0.0000000000e+00 +4.5593999997e+01 4.5594000000e+01 5.1100000000e-04 0.0000e+00 1.0000e+00
       11 -1    0    0    0    0 -0.0000000000e+00 -0.0000000000e+00 -4.5593999997e+01 4.5594000000e+01 5.1100000000e-04 0.0000e+00 -1.0000e+00
       23  2    1    2    0    0 +0.0000000000e+00 +6.6613381478e-16 +0.0000000000e+00 9.1188000000e+01 9.1188000000e+01 3.9020e-15 0.0000e+00
  9990012  2    3    3    0    0 +1.7687038926e+01 -1.8089575533e+00 +5.8802274060e+00 7.2461528156e+01 6.9999945107e+01 9.0680e-05 0.0000e+00
       24  2    4    4    0    0 +2.5242842934e+01 +1.1009138614e+00 +4.5961338206e+00 6.4263575823e+01 5.8908994226e+01 1.7900e-13 0.0000e+00
      -11  1    5    5    0    0 +3.6817150609e+01 -1.3968910338e+01 -9.6156978990e+00 4.0535104309e+01 5.1100000000e-04 0.0000e+00 1.0000e+00
       11  1    4    4    0    0 -7.5558040081e+00 -2.9098714147e+00 +1.2840935854e+00 8.1979523331e+00 5.1100000000e-04 0.0000e+00 -1.0000e+00
       12  1    5    5    0    0 -1.1574307675e+01 +1.5069824200e+01 +1.4211831720e+01 2.3728471514e+01 0.0000000000e+00 0.0000e+00 -1.0000e+00
      -12  1    3    3    0    0 -1.7687038926e+01 +1.8089575533e+00 -5.8802274060e+00 1.8726471844e+01 0.0000000000e+00 0.0000e+00 1.0000e+00
</event>
<event>
 8      3 +1.0086356e-04 9.11880000e+01 7.81616400e-03 1.18400000e-01
      -11 -1    0    0    0    0 +0.0000000000e+00 +0.0000000000e+00 +4.5593999997e+01 4.5594000000e+01 5.1100000000e-04 0.0000e+00 -1.0000e+00
       11 -1    0    0    0    0 -0.0000000000e+00 -0.0000000000e+00 -4.5593999997e+01 4.5594000000e+01 5.1100000000e-04 0.0000e+00 1.0000e+00
       23  2    1    2    0    0 +2.2204460493e-15 -1.7763568394e-15 +0.0000000000e+00 9.1188000000e+01 9.1188000000e+01 2.9464e-13 0.0000e+00
  9990012  2    3    3    0    0 +3.6804969056e+00 -1.5973899989e+01 +9.0535835424e+00 7.2461577136e+01 7.0000008913e+01 6.5847e-05 0.0000e+00
      -11  1    4    4    0    0 +2.9721572741e-01 +1.2443586243e+01 +3.3823488010e+00 1.2898506094e+01 5.1100000000e-04 0.0000e+00 1.0000e+00
       11  1    4    4    0    0 -2.0145529853e+01 +1.8180666502e+00 -2.5248911955e+00 2.0384376743e+01 5.1100000000e-04 0.0000e+00 -1.0000e+00
       12  1    4    4    0    0 +2.3528811031e+01 -3.0235552882e+01 +8.1961259369e+00 3.9178694299e+01 0.0000000000e+00 0.0000e+00 -1.0000e+00
      -12  1    3    3    0    0 -3.6804969056e+00 +1.5973899989e+01 -9.0535835424e+00 1.8726422864e+01 0.0000000000e+00 0.0000e+00 1.0000e+00
</event>
<event>
 9      4 +1.0086356e-04 9.11880000e+01 7.81616400e-03 1.18400000e-01
      -11 -1    0    0    0    0 +0.0000000000e+00 +0.0000000000e+00 +4.5593999997e+01 4.5594000000e+01 5.1100000000e-04 0.0000e+00 -1.0000e+00
       11 -1    0    0    0    0 -0.0000000000e+00 -0.0000000000e+00 -4.5593999997e+01 4.5594000000e+01 5.1100000000e-04 0.0000e+00 1.0000e+00
       23  2    1    2    0    0 -1.7763568394e-15 +0.0000000000e+00 +0.0000000000e+00 9.1188000000e+01 9.1188000000e+01 1.1984e-13 0.0000e+00
 -9990012  2    3    3    0    0 -1.2705613447e+01 -8.6467644931e+00 -1.0699428856e+01 7.2461630168e+01 7.0000077996e+01 5.9856e-05 0.0000e+00
      -24  2    4    4    0    0 -1.1575083911e+00 -7.1346537036e+00 -1.2448566991e+01 6.0684334473e+01 5.8952341100e+01 1.6171e-13 0.0000e+00
      -11  1    4    4    0    0 -1.1548105055e+01 -1.5121107895e+00 +1.7491381350e+00 1.1777295695e+01 5.1100000000e-04 0.0000e+00 1.0000e+00
       11  1    5    5    0    0 +1.6827623976e+01 +3.8223350374e+00 +1.7169121280e+01 2.4342512187e+01 5.1100000000e-04 0.0000e+00 -1.0000e+00
      -12  1    5    5    0    0 -1.7985132367e+01 -1.0956988741e+01 -2.9617688271e+01 3.6341822285e+01 0.0000000000e+00 0.0000e+00 1.0000e+00
       12  1    3    3    0    0 +1.2705613447e+01 +8.6467644931e+00 +1.0699428856e+01 1.8726369832e+01 0.0000000000e+00 0.0000e+00 -1.0000e+00
</event>
<event>
 7      4 +1.0086356e-04 7.24615900e+01 7.81616400e-03 1.22670800e-01
      -11 -1    0    0    0    0 +0.0000000000e+00 +0.0000000000e+00 +4.5593999997e+01 4.5594000000e+01 5.1100000000e-04 0.0000e+00 1.0000e+00
       11 -1    0    0    0    0 -0.0000000000e+00 -0.0000000000e+00 -4.5593999997e+01 4.5594000000e+01 5.1100000000e-04 0.0000e+00 -1.0000e+00
 -9990012  2    1    2    0    0 +1.6306940835e+01 +9.2052546323e+00 -1.5937830756e-01 7.2461589941e+01 7.0000025594e+01 1.4278e-04 0.0000e+00
      -11  1    3    3    0    0 +1.1839751128e+01 +2.0497263093e+00 +2.4989984012e+01 2.7728692467e+01 5.1100000000e-04 0.0000e+00 1.0000e+00
       11  1    3    3    0    0 +1.2400924576e+01 -1.1229273400e+01 -1.3998892498e+01 2.1813952023e+01 5.1100000000e-04 0.0000e+00 -1.0000e+00
      -12  1    3    3    0    0 -7.9337348689e+00 +1.8384801723e+01 -1.1150469821e+01 2.2918945451e+01 0.0000000000e+00 0.0000e+00 1.0000e+00
       12  1    1    2    0    0 -1.6306940835e+01 -9.2052546323e+00 +1.5937830756e-01 1.8726410059e+01 0.0000000000e+00 0.0000e+00 -1.0000e+00
</event>
<event>
 8      3 +1.0086356e-04 9.11880000e+01 7.81616400e-03 1.18400000e-01
      -11 -1    0    0    0    0 +0.0000000000e+00 +0.0000000000e+00 +4.5593999997e+01 4.5594000000e+01 5.1100000000e-04 0.0000e+00 1.0000e+00
       11 -1    0    0    0    0 -0.0000000000e+00 -0.0000000000e+00 -4.5593999997e+01 4.5594000000e+01 5.1100000000e-04 0.0000e+00 -1.0000e+00
       23  2    1    2    0    0 -4.4408920985e-16 +0.0000000000e+00 +4.9960036108e-16 9.1188000000e+01 9.1188000000e+01 2.9670e-14 0.0000e+00
  9990012  2    3    3    0    0 +3.2923566931e+00 +1.8433776569e+01 +1.8965605825e-01 7.2461556114e+01 6.9999981528e+01 4.0444e-04 0.0000e+00
      -11  1    4    4    0    0 -1.6343510649e+01 -1.8348515838e+01 -2.9504739257e+00 2.4748407432e+01 5.1100000000e-04 0.0000e+00 -1.0000e+00
       11  1    4    4    0    0 +1.6860590166e+01 +1.5382193914e+01 +1.0213505298e+01 2.5004141279e+01 5.1100000000e-04 0.0000e+00 1.0000e+00
       12  1    4    4    0    0 +2.7752771765e+00 +2.1400098493e+01 -7.0733753140e+00 2.2709007403e+01 0.0000000000e+00 0.0000e+00 -1.0000e+00
      -12  1    3    3    0    0 -3.2923566931e+00 -1.8433776569e+01 -1.8965605825e-01 1.8726443886e+01 0.0000000000e+00 0.0000e+00 1.0000e+00
</event>
<event>
 9      3 +1.0086356e-04 9.11880000e+01 7.81616400e-03 1.18400000e-01
      -11 -1    0    0    0    0 +0.0000000000e+00 +0.0000000000e+00 +4.5593999997e+01 4.5594000000e+01 5.1100000000e-04 0.0000e+00 1.0000e+00
       11 -1    0    0    0    0 -0.0000000000e+00 -0.0000000000e+00 -4.5593999997e+01 4.5594000000e+01 5.1100000000e-04 0.0000e+00 -1.0000e+00
       23  2    1    2    0    0 -4.4408920985e-16 +0.0000000000e+00 +1.7763568394e-15 9.1188000000e+01 9.1188000000e+01 7.6467e-14 0.0000e+00
  9990012  2    3    3    0    0 +2.6592235221e+00 -1.5546139708e+01 -1.0095789231e+01 7.2461577764e+01 7.0000009730e+01 3.1777e-05 0.0000e+00
       24  2    4    4    0    0 +3.9702632849e+00 -1.3523591967e+01 -1.2997275869e+01 6.8689555813e+01 6.5959649541e+01 1.0349e-14 0.0000e+00
      -11  1    5    5    0    0 +4.2230826597e+00 -1.0209200440e+01 +2.6678034827e+01 2.8875244471e+01 5.1100000000e-04 0.0000e+00 1.0000e+00
       11  1    4    4    0    0 -1.3110397628e+00 -2.0225477412e+00 +2.9014866376e+00 3.7720219504e+00 5.1100000000e-04 0.0000e+00 -1.0000e+00
       12  1    5    5    0    0 -2.5281937475e-01 -3.3143915272e+00 -3.9675310696e+01 3.9814311342e+01 0.0000000000e+00 0.0000e+00 -1.0000e+00
      -12  1    3    3    0    0 -2.6592235221e+00 +1.5546139708e+01 +1.0095789231e+01 1.8726422236e+01 0.0000000000e+00 0.0000e+00 1.0000e+00
</event>
<event>
 8      4 +1.0086356e-04 9.11880000e+01 7.81616400e-03 1.18400000e-01
      -11 -1    0    0    0    0 +0.0000000000e+00 +0.0000000000e+00 +4.5593999997e+01 4.5594000000e+01 5.1100000000e-04 0.0000e+00 1.0000e+00
       11 -1    0    0    0    0 -0.0000000000e+00 -0.0000000000e+00 -4.5593999997e+01 4.5594000000e+01 5.1100000000e-04 0.0000e+00 -1.0000e+00
       23  2    1    2    0    0 +4.4408920985e-16 +1.7763568394e-15 +1.7763568394e-15 9.1188000000e+01 9.1188000000e+01 1.8266e-13 0.0000e+00
 -9990012  2    3    3    0    0 +2.6591756742e+00 -1.3913523022e+01 +1.2248592449e+01 7.2461405138e+01 6.9999784853e+01 1.3979e-05 0.0000e+00
      -11  1    4    4    0    0 -1.2679938601e+01 -6.9905221704e-01 +1.8425762668e+01 2.2378075142e+01 5.1100000000e-04 0.0000e+00 1.0000e+00
       11  1    4    4    0    0 +5.2094925275e-01 +1.5824439614e+01 -7.3614054849e+00 1.7460657725e+01 5.1100000000e-04 0.0000e+00 -1.0000e+00
      -12  1    4    4    0    0 +1.4818165022e+01 -2.9038910419e+01 +1.1842352655e+00 3.2622672271e+01 0.0000000000e+00 0.0000e+00 1.0000e+00
       12  1    3    3    0    0 -2.6591756742e+00 +1.3913523022e+01 -1.2248592449e+01 1.8726594862e+01 0.0000000000e+00 0.0000e+00 -1.0000e+00
</event>
</LesHouchesEvents>
