<event>
 8    1  0.3186330E-007  0.9118800E+02  0.7816164E-02  0.1184000E+00
        -11   -1    0    0    0    0  0.00000000000E+00  0.00000000000E+00  0.45593999997E+02  0.45594000000E+02  0.51100000000E-03 0.  1.
         11   -1    0    0    0    0 -0.00000000000E+00 -0.00000000000E+00 -0.45593999997E+02  0.45594000000E+02  0.51100000000E-03 0. -1.
         23    2    1    2    0    0  0.00000000000E+00  0.00000000000E+00  0.00000000000E+00  0.91188000000E+02  0.91188000000E+02 0.  0.
    9900012    2    3    3    0    0  0.22366689889E+01 -0.32361020733E+02 -0.17422450664E+02  0.54367080156E+02  0.39999990831E+02 0.  0.
        -12    1    3    3    0    0 -0.22366689889E+01  0.32361020733E+02  0.17422450664E+02  0.36820919844E+02  0.00000000000E+00 0.  1.
         11    1    4    4    0    0  0.59121908330E+01 -0.11361567614E+02  0.10240525943E+02  0.16398402085E+02  0.51100000000E-03 0. -1.
        -11    1    4    4    0    0 -0.15106270783E+01 -0.46339753291E+01  0.92096763204E+00  0.49602321680E+01  0.51100000000E-03 0.  1.
         12    1    4    4    0    0 -0.21648947657E+01 -0.16365477789E+02 -0.28583944239E+02  0.33008445902E+02  0.00000000000E+00 0. -1.
</event>
<event>
 8    1  0.3186330E-007  0.9118800E+02  0.7816164E-02  0.1184000E+00
        -11   -1    0    0    0    0  0.00000000000E+00  0.00000000000E+00  0.45593999997E+02  0.45594000000E+02  0.51100000000E-03 0.  1.
         11   -1    0    0    0    0 -0.00000000000E+00 -0.00000000000E+00 -0.45593999997E+02  0.45594000000E+02  0.51100000000E-03 0. -1.
         23    2    1    2    0    0  0.35527136788E-14  0.00000000000E+00 -0.17763568394E-14  0.91188000000E+02  0.91188000000E+02 0.  0.
    9900012    2    3    3    0    0 -0.27730682639E+02 -0.20106736829E+02  0.13509611551E+02  0.54367065333E+02  0.39999957039E+02 0.  0.
         12    1    3    3    0    0  0.27730682639E+02  0.20106736829E+02 -0.13509611551E+02  0.36820934667E+02  0.00000000000E+00 0. -1.
         11    1    4    4    0    0 -0.22538091111E+02 -0.18269533089E+02 -0.45418949295E+00  0.29016334686E+02  0.51100000000E-03 0.  1.
        -11    1    4    4    0    0 -0.26327730566E+01  0.70886452564E+01 -0.11136161647E+01  0.76433321766E+01  0.51100000000E-03 0. -1.
        -12    1    4    4    0    0 -0.25598184711E+01 -0.89258489962E+01  0.15077417209E+02  0.17707398470E+02  0.00000000000E+00 0.  1.
</event>
<event>
 8    1  0.3186330E-007  0.9118800E+02  0.7816164E-02  0.1184000E+00
        -11   -1    0    0    0    0  0.00000000000E+00  0.00000000000E+00  0.45593999997E+02  0.45594000000E+02  0.51100000000E-03 0.  1.
         11   -1    0    0    0    0 -0.00000000000E+00 -0.00000000000E+00 -0.45593999997E+02  0.45594000000E+02  0.51100000000E-03 0. -1.
         23    2    1    2    0    0 -0.35527136788E-14 -0.17763568394E-14 -0.17763568394E-14  0.91188000000E+02  0.91188000000E+02 0.  0.
    9900012    2    3    3    0    0 -0.30542934090E+02  0.13739770182E+02 -0.15301262201E+02  0.54367072086E+02  0.39999972435E+02 0.  0.
        -12    1    3    3    0    0  0.30542934090E+02 -0.13739770182E+02  0.15301262201E+02  0.36820927914E+02  0.00000000000E+00 0.  1.
         11    1    4    4    0    0  0.26739201646E+01 -0.15740241695E+00 -0.44695466215E+01  0.52107074214E+01  0.51100000000E-03 0. -1.
        -11    1    4    4    0    0 -0.59456408869E+01  0.18441231858E+02 -0.92318507470E+01  0.21462915610E+02  0.51100000000E-03 0.  1.
         12    1    4    4    0    0 -0.27271213368E+02 -0.45440592585E+01 -0.15998648324E+01  0.27693449055E+02  0.00000000000E+00 0. -1.
</event>
<event>
 8    1  0.3186330E-007  0.9118800E+02  0.7816164E-02  0.1184000E+00
        -11   -1    0    0    0    0  0.00000000000E+00  0.00000000000E+00  0.45593999997E+02  0.45594000000E+02  0.51100000000E-03 0.  1.
         11   -1    0    0    0    0 -0.00000000000E+00 -0.00000000000E+00 -0.45593999997E+02  0.45594000000E+02  0.51100000000E-03 0. -1.
         23    2    1    2    0    0 -0.22204460493E-15  0.35527136788E-14  0.00000000000E+00  0.91188000000E+02  0.91188000000E+02 0.  0.
    9900012    2    3    3    0    0  0.12571550194E+01  0.30195355562E+02 -0.21034254806E+02  0.54367084592E+02  0.40000000943E+02 0.  0.
        -12    1    3    3    0    0 -0.12571550194E+01 -0.30195355562E+02  0.21034254806E+02  0.36820915408E+02  0.00000000000E+00 0.  1.
         11    1    4    4    0    0  0.75796922259E+01  0.16027717044E+02 -0.17976089693E+02  0.25248351407E+02  0.51100000000E-03 0. -1.
        -11    1    4    4    0    0  0.21186800867E+01  0.12979922313E+01 -0.11362049748E+02  0.11630553034E+02  0.51100000000E-03 0.  1.
        -12    1    4    4    0    0 -0.84412172932E+01  0.12869646287E+02  0.83038846345E+01  0.17488180150E+02  0.00000000000E+00 0.  1.
</event>
<event>
 8    1  0.3186330E-007  0.9118800E+02  0.7816164E-02  0.1184000E+00
        -11   -1    0    0    0    0  0.00000000000E+00  0.00000000000E+00  0.45593999997E+02  0.45594000000E+02  0.51100000000E-03 0.  1.
         11   -1    0    0    0    0 -0.00000000000E+00 -0.00000000000E+00 -0.45593999997E+02  0.45594000000E+02  0.51100000000E-03 0. -1.
         23    2    1    2    0    0  0.00000000000E+00  0.00000000000E+00  0.71054273576E-14  0.91188000000E+02  0.91188000000E+02 0.  0.
    9900012    2    3    3    0    0 -0.52866906430E+01  0.15899878877E+02  0.32787568389E+02  0.54367083565E+02  0.39999998602E+02 0.  0.
         12    1    3    3    0    0  0.52866906430E+01 -0.15899878877E+02 -0.32787568389E+02  0.36820916435E+02  0.00000000000E+00 0. -1.
         11    1    4    4    0    0  0.48636753998E+01 -0.69349964918E+01 -0.25736211328E+01  0.88528549481E+01  0.51100000000E-03 0. -1.
        -11    1    4    4    0    0 -0.44815899839E+01  0.17901759226E+02  0.14905727824E+02  0.23722106871E+02  0.51100000000E-03 0.  1.
         12    1    4    4    0    0 -0.56687760589E+01  0.49331161424E+01  0.20455461698E+02  0.21792121745E+02  0.00000000000E+00 0. -1.
</event>
<event>
 8    1  0.3186330E-007  0.9118800E+02  0.7816164E-02  0.1184000E+00
        -11   -1    0    0    0    0  0.00000000000E+00  0.00000000000E+00  0.45593999997E+02  0.45594000000E+02  0.51100000000E-03 0.  1.
         11   -1    0    0    0    0 -0.00000000000E+00 -0.00000000000E+00 -0.45593999997E+02  0.45594000000E+02  0.51100000000E-03 0. -1.
         23    2    1    2    0    0  0.71054273576E-14 -0.11102230246E-15 -0.19984014443E-14  0.91188000000E+02  0.91188000000E+02 0.  0.
    9900012    2    3    3    0    0  0.36797220513E+02  0.95356891854E+00 -0.91349940857E+00  0.54367092728E+02  0.40000019491E+02 0.  0.
        -12    1    3    3    0    0 -0.36797220513E+02 -0.95356891854E+00  0.91349940857E+00  0.36820907272E+02  0.00000000000E+00 0.  1.
         11    1    4    4    0    0  0.18105171310E+02  0.10110032683E+02  0.82246407690E+01  0.22308175745E+02  0.51100000000E-03 0. -1.
        -11    1    4    4    0    0  0.19244753384E+02 -0.64657096517E+01 -0.15227933737E+02  0.25378256446E+02  0.51100000000E-03 0.  1.
         12    1    4    4    0    0 -0.55270418036E+00 -0.26907541132E+01  0.60897935595E+01  0.66806605366E+01  0.00000000000E+00 0. -1.
</event>
<event>
 8    1  0.3186330E-007  0.9118800E+02  0.7816164E-02  0.1184000E+00
        -11   -1    0    0    0    0  0.00000000000E+00  0.00000000000E+00  0.45593999997E+02  0.45594000000E+02  0.51100000000E-03 0.  1.
         11   -1    0    0    0    0 -0.00000000000E+00 -0.00000000000E+00 -0.45593999997E+02  0.45594000000E+02  0.51100000000E-03 0. -1.
         23    2    1    2    0    0 -0.13322676296E-14  0.88817841970E-15  0.00000000000E+00  0.91188000000E+02  0.91188000000E+02 0.  0.
    9900012    2    3    3    0    0  0.38793150447E+01  0.22995591145E+01 -0.36543542487E+02  0.54367251028E+02  0.40000380367E+02 0.  0.
        -12    1    3    3    0    0 -0.38793150447E+01 -0.22995591145E+01  0.36543542487E+02  0.36820748972E+02  0.00000000000E+00 0.  1.
         11    1    4    4    0    0  0.17135717650E+02 -0.70129159943E+01 -0.14055766689E+02  0.23246040257E+02  0.51100000000E-03 0. -1.
        -11    1    4    4    0    0 -0.12619026545E+02  0.70295254211E+00 -0.11028042791E+02  0.16773541704E+02  0.51100000000E-03 0.  1.
         12    1    4    4    0    0 -0.63737606025E+00  0.86095225667E+01 -0.11459733007E+02  0.14347669067E+02  0.00000000000E+00 0. -1.
</event>
<event>
 8    1  0.3186330E-007  0.9118800E+02  0.7816164E-02  0.1184000E+00
        -11   -1    0    0    0    0  0.00000000000E+00  0.00000000000E+00  0.45593999997E+02  0.45594000000E+02  0.51100000000E-03 0.  1.
         11   -1    0    0    0    0 -0.00000000000E+00 -0.00000000000E+00 -0.45593999997E+02  0.45594000000E+02  0.51100000000E-03 0. -1.
         23    2    1    2    0    0 -0.17763568394E-14  0.00000000000E+00  0.00000000000E+00  0.91188000000E+02  0.91188000000E+02 0.  0.
    9900012    2    3    3    0    0 -0.15603785616E+02  0.25205244983E+02  0.21840280469E+02  0.54367077263E+02  0.39999984237E+02 0.  0.
         12    1    3    3    0    0  0.15603785616E+02 -0.25205244983E+02 -0.21840280469E+02  0.36820922737E+02  0.00000000000E+00 0. -1.
         11    1    4    4    0    0 -0.49011964186E+01  0.13237235322E+02  0.83715219042E+01  0.16411231050E+02  0.51100000000E-03 0.  1.
        -11    1    4    4    0    0 -0.82108096935E+01  0.57922554269E+01  0.23703433655E+02  0.25745298329E+02  0.51100000000E-03 0. -1.
         12    1    4    4    0    0 -0.24917795037E+01  0.61757542340E+01 -0.10234675090E+02  0.12210547885E+02  0.00000000000E+00 0. -1.
</event>
<event>
 8    1  0.3186330E-007  0.9118800E+02  0.7816164E-02  0.1184000E+00
        -11   -1    0    0    0    0  0.00000000000E+00  0.00000000000E+00  0.45593999997E+02  0.45594000000E+02  0.51100000000E-03 0. -1.
         11   -1    0    0    0    0 -0.00000000000E+00 -0.00000000000E+00 -0.45593999997E+02  0.45594000000E+02  0.51100000000E-03 0.  1.
         23    2    1    2    0    0  0.35527136788E-14  0.35527136788E-14  0.17763568394E-14  0.91188000000E+02  0.91188000000E+02 0.  0.
    9900012    2    3    3    0    0  0.30496504585E+02  0.19743308299E+02 -0.59953020545E+01  0.54367100212E+02  0.40000036552E+02 0.  0.
         12    1    3    3    0    0 -0.30496504585E+02 -0.19743308299E+02  0.59953020545E+01  0.36820899788E+02  0.00000000000E+00 0. -1.
         11    1    4    4    0    0  0.20066010366E+02  0.18672495471E+02 -0.13141792018E+02  0.30397591299E+02  0.51100000000E-03 0. -1.
        -11    1    4    4    0    0  0.83858684051E+01  0.44543505119E+01 -0.53248332654E+01  0.10886591613E+02  0.51100000000E-03 0.  1.
         12    1    4    4    0    0  0.20446258145E+01 -0.33835376839E+01  0.12471323229E+02  0.13082917299E+02  0.00000000000E+00 0. -1.
</event>
<event>
 8    1  0.3186330E-007  0.9118800E+02  0.7816164E-02  0.1184000E+00
        -11   -1    0    0    0    0  0.00000000000E+00  0.00000000000E+00  0.45593999997E+02  0.45594000000E+02  0.51100000000E-03 0. -1.
         11   -1    0    0    0    0 -0.00000000000E+00 -0.00000000000E+00 -0.45593999997E+02  0.45594000000E+02  0.51100000000E-03 0.  1.
         23    2    1    2    0    0 -0.35527136788E-14  0.00000000000E+00  0.35527136788E-14  0.91188000000E+02  0.91188000000E+02 0.  0.
    9900012    2    3    3    0    0 -0.25153569846E+02  0.17345926597E+02 -0.20547413536E+02  0.54367089521E+02  0.40000012180E+02 0.  0.
         12    1    3    3    0    0  0.25153569846E+02 -0.17345926597E+02  0.20547413536E+02  0.36820910479E+02  0.00000000000E+00 0. -1.
         11    1    4    4    0    0 -0.37400333828E+01  0.12678674605E+02 -0.10701090442E+02  0.17007350656E+02  0.51100000000E-03 0. -1.
        -11    1    4    4    0    0 -0.15968316059E+02  0.50451729458E+01 -0.19845977262E+02  0.25967358386E+02  0.51100000000E-03 0.  1.
         12    1    4    4    0    0 -0.54452204044E+01 -0.37792095386E+00  0.99996541672E+01  0.11392380478E+02  0.00000000000E+00 0. -1.
</event>
<event>
 8    1  0.3186330E-007  0.9118800E+02  0.7816164E-02  0.1184000E+00
        -11   -1    0    0    0    0  0.00000000000E+00  0.00000000000E+00  0.45593999997E+02  0.45594000000E+02  0.51100000000E-03 0. -1.
         11   -1    0    0    0    0 -0.00000000000E+00 -0.00000000000E+00 -0.45593999997E+02  0.45594000000E+02  0.51100000000E-03 0.  1.
         23    2    1    2    0    0  0.00000000000E+00  0.00000000000E+00  0.88817841970E-15  0.91188000000E+02  0.91188000000E+02 0.  0.
    9900012    2    3    3    0    0 -0.34923388901E+02  0.10583211278E+02 -0.49122977276E+01  0.54367107530E+02  0.40000053237E+02 0.  0.
        -12    1    3    3    0    0  0.34923388901E+02 -0.10583211278E+02  0.49122977276E+01  0.36820892470E+02  0.00000000000E+00 0.  1.
         11    1    4    4    0    0  0.82957265699E+01  0.26663900658E+01 -0.34512168485E+00  0.87205403814E+01  0.51100000000E-03 0.  1.
        -11    1    4    4    0    0 -0.19734709742E+02  0.87039877710E+01 -0.50168014455E+01  0.22144671339E+02  0.51100000000E-03 0. -1.
        -12    1    4    4    0    0 -0.23484405729E+02 -0.78716655909E+00  0.44962540271E+00  0.23501895810E+02  0.00000000000E+00 0.  1.
</event>
<event>
 8    1  0.3186330E-007  0.9118800E+02  0.7816164E-02  0.1184000E+00
        -11   -1    0    0    0    0  0.00000000000E+00  0.00000000000E+00  0.45593999997E+02  0.45594000000E+02  0.51100000000E-03 0. -1.
         11   -1    0    0    0    0 -0.00000000000E+00 -0.00000000000E+00 -0.45593999997E+02  0.45594000000E+02  0.51100000000E-03 0.  1.
         23    2    1    2    0    0 -0.17763568394E-14  0.00000000000E+00  0.00000000000E+00  0.91188000000E+02  0.91188000000E+02 0.  0.
    9900012    2    3    3    0    0 -0.15177674221E+02  0.26315446859E+02  0.20806617175E+02  0.54367083982E+02  0.39999999554E+02 0.  0.
        -12    1    3    3    0    0  0.15177674221E+02 -0.26315446859E+02 -0.20806617175E+02  0.36820916018E+02  0.00000000000E+00 0.  1.
         11    1    4    4    0    0  0.10459571574E+01  0.15834800957E+01 -0.16392702390E+00  0.19048117804E+01  0.51100000000E-03 0. -1.
        -11    1    4    4    0    0 -0.21686298695E+02  0.27048176673E+02  0.45045281794E+01  0.34959836768E+02  0.51100000000E-03 0.  1.
        -12    1    4    4    0    0  0.54626673172E+01 -0.23162099100E+01  0.16466016019E+02  0.17502435434E+02  0.00000000000E+00 0.  1.
</event>
<event>
 8    1  0.3186330E-007  0.9118800E+02  0.7816164E-02  0.1184000E+00
        -11   -1    0    0    0    0  0.00000000000E+00  0.00000000000E+00  0.45593999997E+02  0.45594000000E+02  0.51100000000E-03 0.  1.
         11   -1    0    0    0    0 -0.00000000000E+00 -0.00000000000E+00 -0.45593999997E+02  0.45594000000E+02  0.51100000000E-03 0. -1.
         23    2    1    2    0    0 -0.44408920985E-15 -0.71054273576E-14  0.00000000000E+00  0.91188000000E+02  0.91188000000E+02 0.  0.
    9900012    2    3    3    0    0  0.28785942220E+01  0.36303369161E+02  0.54367887615E+01  0.54367087611E+02  0.40000007826E+02 0.  0.
        -12    1    3    3    0    0 -0.28785942220E+01 -0.36303369161E+02 -0.54367887615E+01  0.36820912389E+02  0.00000000000E+00 0.  1.
         11    1    4    4    0    0  0.85897054414E+01  0.18541302944E+02 -0.34546994401E+01  0.20724331181E+02  0.51100000000E-03 0. -1.
        -11    1    4    4    0    0  0.49632078614E+01  0.19734318966E+02  0.12878302625E+01  0.20389587646E+02  0.51100000000E-03 0.  1.
         12    1    4    4    0    0 -0.10674319081E+02 -0.19722527489E+01  0.76036579392E+01  0.13253168783E+02  0.00000000000E+00 0. -1.
</event>
<event>
 8    1  0.3186330E-007  0.9118800E+02  0.7816164E-02  0.1184000E+00
        -11   -1    0    0    0    0  0.00000000000E+00  0.00000000000E+00  0.45593999997E+02  0.45594000000E+02  0.51100000000E-03 0.  1.
         11   -1    0    0    0    0 -0.00000000000E+00 -0.00000000000E+00 -0.45593999997E+02  0.45594000000E+02  0.51100000000E-03 0. -1.
         23    2    1    2    0    0 -0.35527136788E-14  0.00000000000E+00  0.00000000000E+00  0.91188000000E+02  0.91188000000E+02 0.  0.
    9900012    2    3    3    0    0 -0.10230984928E+02  0.18647579503E+02  0.30056190135E+02  0.54367084214E+02  0.40000000083E+02 0.  0.
        -12    1    3    3    0    0  0.10230984928E+02 -0.18647579503E+02 -0.30056190135E+02  0.36820915786E+02  0.00000000000E+00 0.  1.
         11    1    4    4    0    0  0.12162783499E+02  0.92479412298E+01  0.71958512902E+00  0.15296258446E+02  0.51100000000E-03 0. -1.
        -11    1    4    4    0    0 -0.19942348109E+00 -0.63936230729E+00  0.34927697355E+01  0.35564019136E+01  0.51100000000E-03 0.  1.
        -12    1    4    4    0    0 -0.22194344946E+02  0.10039000580E+02  0.25843835270E+02  0.35514423854E+02  0.00000000000E+00 0.  1.
</event>
<event>
 8    1  0.3186330E-007  0.9118800E+02  0.7816164E-02  0.1184000E+00
        -11   -1    0    0    0    0  0.00000000000E+00  0.00000000000E+00  0.45593999997E+02  0.45594000000E+02  0.51100000000E-03 0.  1.
         11   -1    0    0    0    0 -0.00000000000E+00 -0.00000000000E+00 -0.45593999997E+02  0.45594000000E+02  0.51100000000E-03 0. -1.
         23    2    1    2    0    0  0.00000000000E+00 -0.17763568394E-14 -0.71054273576E-14  0.91188000000E+02  0.91188000000E+02 0.  0.
    9900012    2    3    3    0    0  0.20201574209E+02 -0.13549166368E+02 -0.27642295486E+02  0.54367081903E+02  0.39999994814E+02 0.  0.
        -12    1    3    3    0    0 -0.20201574209E+02  0.13549166368E+02  0.27642295486E+02  0.36820918097E+02  0.00000000000E+00 0.  1.
         11    1    4    4    0    0 -0.83865705790E+01 -0.14812629394E+01  0.12256374122E+01  0.86041207162E+01  0.51100000000E-03 0.  1.
        -11    1    4    4    0    0  0.17985319891E+02 -0.91283285776E+01 -0.28291780816E+02  0.34745114422E+02  0.51100000000E-03 0. -1.
         12    1    4    4    0    0  0.10602824897E+02 -0.29395748511E+01 -0.57615208154E+00  0.11017846764E+02  0.00000000000E+00 0. -1.
</event>
<event>
 8    1  0.3186330E-007  0.9118800E+02  0.7816164E-02  0.1184000E+00
        -11   -1    0    0    0    0  0.00000000000E+00  0.00000000000E+00  0.45593999997E+02  0.45594000000E+02  0.51100000000E-03 0. -1.
         11   -1    0    0    0    0 -0.00000000000E+00 -0.00000000000E+00 -0.45593999997E+02  0.45594000000E+02  0.51100000000E-03 0.  1.
         23    2    1    2    0    0 -0.71054273576E-14  0.00000000000E+00 -0.44408920985E-15  0.91188000000E+02  0.91188000000E+02 0.  0.
    9900012    2    3    3    0    0  0.36533754521E+02  0.23113774155E+01  0.39651315752E+01  0.54367082665E+02  0.39999996551E+02 0.  0.
        -12    1    3    3    0    0 -0.36533754521E+02 -0.23113774155E+01 -0.39651315752E+01  0.36820917335E+02  0.00000000000E+00 0.  1.
         11    1    4    4    0    0  0.17363348117E+02  0.15546233736E+01 -0.16328472131E+02  0.23885596372E+02  0.51100000000E-03 0. -1.
        -11    1    4    4    0    0  0.19117713555E+02 -0.26647415480E+01  0.16772805292E+02  0.25571758186E+02  0.51100000000E-03 0.  1.
        -12    1    4    4    0    0  0.52692848785E-01  0.34214955898E+01  0.35207984141E+01  0.49097281065E+01  0.00000000000E+00 0.  1.
</event>
<event>
 8    1  0.3186330E-007  0.9118800E+02  0.7816164E-02  0.1184000E+00
        -11   -1    0    0    0    0  0.00000000000E+00  0.00000000000E+00  0.45593999997E+02  0.45594000000E+02  0.51100000000E-03 0. -1.
         11   -1    0    0    0    0 -0.00000000000E+00 -0.00000000000E+00 -0.45593999997E+02  0.45594000000E+02  0.51100000000E-03 0.  1.
         23    2    1    2    0    0  0.35527136788E-14 -0.17763568394E-14  0.71054273576E-14  0.91188000000E+02  0.91188000000E+02 0.  0.
    9900012    2    3    3    0    0 -0.27169994073E+02  0.73405551970E+01 -0.23742090208E+02  0.54367093222E+02  0.40000020618E+02 0.  0.
         12    1    3    3    0    0  0.27169994073E+02 -0.73405551970E+01  0.23742090208E+02  0.36820906778E+02  0.00000000000E+00 0. -1.
         11    1    4    4    0    0 -0.12612189113E+02  0.44841396399E+01 -0.32456188413E+02  0.35108104322E+02  0.51100000000E-03 0. -1.
        -11    1    4    4    0    0 -0.10167691751E+02  0.10846051936E+01  0.10052618880E+02  0.14339228381E+02  0.51100000000E-03 0.  1.
         12    1    4    4    0    0 -0.43901132097E+01  0.17718103634E+01 -0.13385206751E+01  0.49197605180E+01  0.00000000000E+00 0. -1.
</event>
<event>
 8    1  0.3186330E-007  0.9118800E+02  0.7816164E-02  0.1184000E+00
        -11   -1    0    0    0    0  0.00000000000E+00  0.00000000000E+00  0.45593999997E+02  0.45594000000E+02  0.51100000000E-03 0.  1.
         11   -1    0    0    0    0 -0.00000000000E+00 -0.00000000000E+00 -0.45593999997E+02  0.45594000000E+02  0.51100000000E-03 0. -1.
         23    2    1    2    0    0  0.00000000000E+00  0.00000000000E+00  0.00000000000E+00  0.91188000000E+02  0.91188000000E+02 0.  0.
    9900012    2    3    3    0    0  0.21318405163E+02  0.10690683206E+02 -0.28053861542E+02  0.54367024272E+02  0.39999863433E+02 0.  0.
        -12    1    3    3    0    0 -0.21318405163E+02 -0.10690683206E+02  0.28053861542E+02  0.36820975728E+02  0.00000000000E+00 0.  1.
         11    1    4    4    0    0 -0.67803239619E+01 -0.37281112986E+01 -0.12436037260E+02  0.14646727616E+02  0.51100000000E-03 0. -1.
        -11    1    4    4    0    0  0.39974172487E+01  0.73147852395E+01  0.25461041903E+01  0.87159666457E+01  0.51100000000E-03 0.  1.
         12    1    4    4    0    0  0.24101311877E+02  0.71040092651E+01 -0.18163928473E+02  0.31004330010E+02  0.00000000000E+00 0. -1.
</event>
<event>
 8    1  0.3186330E-007  0.9118800E+02  0.7816164E-02  0.1184000E+00
        -11   -1    0    0    0    0  0.00000000000E+00  0.00000000000E+00  0.45593999997E+02  0.45594000000E+02  0.51100000000E-03 0.  1.
         11   -1    0    0    0    0 -0.00000000000E+00 -0.00000000000E+00 -0.45593999997E+02  0.45594000000E+02  0.51100000000E-03 0. -1.
         23    2    1    2    0    0  0.35527136788E-14  0.00000000000E+00  0.00000000000E+00  0.91188000000E+02  0.91188000000E+02 0.  0.
    9900012    2    3    3    0    0 -0.21608353780E+02  0.13098982313E+02 -0.26782003879E+02  0.54367081726E+02  0.39999994411E+02 0.  0.
        -12    1    3    3    0    0  0.21608353780E+02 -0.13098982313E+02  0.26782003879E+02  0.36820918274E+02  0.00000000000E+00 0.  1.
         11    1    4    4    0    0  0.14812215621E+01  0.13252103202E+02 -0.18305070838E+02  0.22647027956E+02  0.51100000000E-03 0. -1.
        -11    1    4    4    0    0 -0.20404872643E+02  0.71151403159E+01 -0.21494683143E+01  0.21716451450E+02  0.51100000000E-03 0.  1.
         12    1    4    4    0    0 -0.26847026997E+01 -0.72682612043E+01 -0.63274647270E+01  0.10003602321E+02  0.00000000000E+00 0. -1.
</event>
<event>
 8    1  0.3186330E-007  0.9118800E+02  0.7816164E-02  0.1184000E+00
        -11   -1    0    0    0    0  0.00000000000E+00  0.00000000000E+00  0.45593999997E+02  0.45594000000E+02  0.51100000000E-03 0. -1.
         11   -1    0    0    0    0 -0.00000000000E+00 -0.00000000000E+00 -0.45593999997E+02  0.45594000000E+02  0.51100000000E-03 0.  1.
         23    2    1    2    0    0  0.00000000000E+00  0.00000000000E+00  0.00000000000E+00  0.91188000000E+02  0.91188000000E+02 0.  0.
    9900012    2    3    3    0    0  0.22207454840E+02 -0.22772264606E+02 -0.18548123529E+02  0.54367082409E+02  0.39999995969E+02 0.  0.
         12    1    3    3    0    0 -0.22207454840E+02  0.22772264606E+02  0.18548123529E+02  0.36820917591E+02  0.00000000000E+00 0. -1.
         11    1    4    4    0    0  0.18668086248E+02 -0.89035454383E+01  0.37969429898E+01  0.21028251042E+02  0.51100000000E-03 0. -1.
        -11    1    4    4    0    0  0.82427584605E+01 -0.11533581661E+01 -0.14763540126E+01  0.84529831142E+01  0.51100000000E-03 0.  1.
        -12    1    4    4    0    0 -0.47033898685E+01 -0.12715361002E+02 -0.20868712506E+02  0.24885848254E+02  0.00000000000E+00 0.  1.
</event>
<event>
 8    1  0.3186330E-007  0.9118800E+02  0.7816164E-02  0.1184000E+00
        -11   -1    0    0    0    0  0.00000000000E+00  0.00000000000E+00  0.45593999997E+02  0.45594000000E+02  0.51100000000E-03 0.  1.
         11   -1    0    0    0    0 -0.00000000000E+00 -0.00000000000E+00 -0.45593999997E+02  0.45594000000E+02  0.51100000000E-03 0. -1.
         23    2    1    2    0    0 -0.44408920985E-15  0.00000000000E+00 -0.88817841970E-15  0.91188000000E+02  0.91188000000E+02 0.  0.
    9900012    2    3    3    0    0  0.17739619671E+01 -0.36513565961E+02 -0.44038612204E+01  0.54367062561E+02  0.39999950720E+02 0.  0.
        -12    1    3    3    0    0 -0.17739619671E+01  0.36513565961E+02  0.44038612204E+01  0.36820937439E+02  0.00000000000E+00 0.  1.
         11    1    4    4    0    0  0.23412642174E+01  0.40666269210E+01  0.40810132185E+01  0.62188135364E+01  0.51100000000E-03 0. -1.
        -11    1    4    4    0    0 -0.67279211431E+01 -0.23755118218E+01  0.30617253762E+01  0.77641575115E+01  0.51100000000E-03 0.  1.
         12    1    4    4    0    0  0.61606188927E+01 -0.38204681060E+02 -0.11546599815E+02  0.40384091513E+02  0.00000000000E+00 0. -1.
</event>
<event>
 8    1  0.3186330E-007  0.9118800E+02  0.7816164E-02  0.1184000E+00
        -11   -1    0    0    0    0  0.00000000000E+00  0.00000000000E+00  0.45593999997E+02  0.45594000000E+02  0.51100000000E-03 0. -1.
         11   -1    0    0    0    0 -0.00000000000E+00 -0.00000000000E+00 -0.45593999997E+02  0.45594000000E+02  0.51100000000E-03 0.  1.
         23    2    1    2    0    0 -0.13322676296E-14  0.35527136788E-14  0.00000000000E+00  0.91188000000E+02  0.91188000000E+02 0.  0.
    9900012    2    3    3    0    0 -0.36271751105E+01  0.30944111503E+02  0.19623560659E+02  0.54367101465E+02  0.40000039409E+02 0.  0.
        -12    1    3    3    0    0  0.36271751105E+01 -0.30944111503E+02 -0.19623560659E+02  0.36820898535E+02  0.00000000000E+00 0.  1.
         11    1    4    4    0    0  0.59593964996E+01  0.31247933429E+02  0.14341436133E+02  0.34894477225E+02  0.51100000000E-03 0. -1.
        -11    1    4    4    0    0 -0.43135391218E+01 -0.35542189917E+01 -0.49799762660E+01  0.74859372338E+01  0.51100000000E-03 0.  1.
         12    1    4    4    0    0 -0.52730324882E+01  0.32503970663E+01  0.10262100792E+02  0.11986687006E+02  0.00000000000E+00 0. -1.
</event>
<event>
 8    1  0.3186330E-007  0.9118800E+02  0.7816164E-02  0.1184000E+00
        -11   -1    0    0    0    0  0.00000000000E+00  0.00000000000E+00  0.45593999997E+02  0.45594000000E+02  0.51100000000E-03 0. -1.
         11   -1    0    0    0    0 -0.00000000000E+00 -0.00000000000E+00 -0.45593999997E+02  0.45594000000E+02  0.51100000000E-03 0.  1.
         23    2    1    2    0    0  0.00000000000E+00  0.00000000000E+00  0.35527136788E-14  0.91188000000E+02  0.91188000000E+02 0.  0.
    9900012    2    3    3    0    0  0.17293372005E+02 -0.17186071864E+02 -0.27592717219E+02  0.54367084409E+02  0.40000000527E+02 0.  0.
         12    1    3    3    0    0 -0.17293372005E+02  0.17186071864E+02  0.27592717219E+02  0.36820915591E+02  0.00000000000E+00 0. -1.
         11    1    4    4    0    0  0.61727577124E+01 -0.87912484988E+00  0.63018392520E+01  0.88650423855E+01  0.51100000000E-03 0. -1.
        -11    1    4    4    0    0  0.15546210839E+02 -0.27372005204E+01 -0.20965757375E+02  0.26243854913E+02  0.51100000000E-03 0.  1.
         12    1    4    4    0    0 -0.44255965462E+01 -0.13569746494E+02 -0.12928799097E+02  0.19258187110E+02  0.00000000000E+00 0. -1.
</event>
<event>
 8    1  0.3186330E-007  0.9118800E+02  0.7816164E-02  0.1184000E+00
        -11   -1    0    0    0    0  0.00000000000E+00  0.00000000000E+00  0.45593999997E+02  0.45594000000E+02  0.51100000000E-03 0.  1.
         11   -1    0    0    0    0 -0.00000000000E+00 -0.00000000000E+00 -0.45593999997E+02  0.45594000000E+02  0.51100000000E-03 0. -1.
         23    2    1    2    0    0  0.00000000000E+00  0.00000000000E+00  0.00000000000E+00  0.91188000000E+02  0.91188000000E+02 0.  0.
    9900012    2    3    3    0    0 -0.14857281367E+02 -0.30277926776E+02  0.14774606642E+02  0.54367073057E+02  0.39999974649E+02 0.  0.
         12    1    3    3    0    0  0.14857281367E+02  0.30277926776E+02 -0.14774606642E+02  0.36820926943E+02  0.00000000000E+00 0. -1.
         11    1    4    4    0    0 -0.11838593291E+02 -0.10616782776E+02  0.22174302538E+02  0.27286774469E+02  0.51100000000E-03 0. -1.
        -11    1    4    4    0    0  0.40912110427E+01 -0.51723939221E+01 -0.86677313916E+01  0.10891337586E+02  0.51100000000E-03 0.  1.
        -12    1    4    4    0    0 -0.71098991188E+01 -0.14488750078E+02  0.12680354955E+01  0.16188961002E+02  0.00000000000E+00 0.  1.
</event>
<event>
 8    1  0.3186330E-007  0.9118800E+02  0.7816164E-02  0.1184000E+00
        -11   -1    0    0    0    0  0.00000000000E+00  0.00000000000E+00  0.45593999997E+02  0.45594000000E+02  0.51100000000E-03 0.  1.
         11   -1    0    0    0    0 -0.00000000000E+00 -0.00000000000E+00 -0.45593999997E+02  0.45594000000E+02  0.51100000000E-03 0. -1.
         23    2    1    2    0    0  0.00000000000E+00 -0.35527136788E-14 -0.35527136788E-14  0.91188000000E+02  0.91188000000E+02 0.  0.
    9900012    2    3    3    0    0  0.10456304231E+02 -0.25657915869E+02 -0.24251118950E+02  0.54367085899E+02  0.40000003924E+02 0.  0.
        -12    1    3    3    0    0 -0.10456304231E+02  0.25657915869E+02  0.24251118950E+02  0.36820914101E+02  0.00000000000E+00 0.  1.
         11    1    4    4    0    0 -0.48674797493E+01 -0.21456841119E+02 -0.14169364531E+01  0.22047587149E+02  0.51100000000E-03 0. -1.
        -11    1    4    4    0    0 -0.29724291990E+01 -0.75385075878E+00 -0.28846561176E+00  0.30800712621E+01  0.51100000000E-03 0.  1.
         12    1    4    4    0    0  0.18296213179E+02 -0.34472239913E+01 -0.22545716885E+02  0.29239427488E+02  0.00000000000E+00 0. -1.
</event>
<event>
 8    1  0.3186330E-007  0.9118800E+02  0.7816164E-02  0.1184000E+00
        -11   -1    0    0    0    0  0.00000000000E+00  0.00000000000E+00  0.45593999997E+02  0.45594000000E+02  0.51100000000E-03 0. -1.
         11   -1    0    0    0    0 -0.00000000000E+00 -0.00000000000E+00 -0.45593999997E+02  0.45594000000E+02  0.51100000000E-03 0.  1.
         23    2    1    2    0    0  0.00000000000E+00  0.00000000000E+00 -0.35527136788E-14  0.91188000000E+02  0.91188000000E+02 0.  0.
    9900012    2    3    3    0    0 -0.22280758887E+02  0.23890870308E+02  0.16987458880E+02  0.54367086651E+02  0.40000005638E+02 0.  0.
        -12    1    3    3    0    0  0.22280758887E+02 -0.23890870308E+02 -0.16987458880E+02  0.36820913349E+02  0.00000000000E+00 0.  1.
         11    1    4    4    0    0 -0.71376365124E+01 -0.27483249674E+01  0.10154253003E+02  0.12712513498E+02  0.51100000000E-03 0. -1.
        -11    1    4    4    0    0 -0.16172567031E+02  0.74413649970E+01  0.12334063187E+02  0.21657676522E+02  0.51100000000E-03 0.  1.
        -12    1    4    4    0    0  0.10294446569E+01  0.19197830279E+02 -0.55008573102E+01  0.19996896631E+02  0.00000000000E+00 0.  1.
</event>
<event>
 8    1  0.3186330E-007  0.9118800E+02  0.7816164E-02  0.1184000E+00
        -11   -1    0    0    0    0  0.00000000000E+00  0.00000000000E+00  0.45593999997E+02  0.45594000000E+02  0.51100000000E-03 0. -1.
         11   -1    0    0    0    0 -0.00000000000E+00 -0.00000000000E+00 -0.45593999997E+02  0.45594000000E+02  0.51100000000E-03 0.  1.
         23    2    1    2    0    0  0.00000000000E+00  0.00000000000E+00  0.00000000000E+00  0.91188000000E+02  0.91188000000E+02 0.  0.
    9900012    2    3    3    0    0 -0.16258799819E+02  0.32055591629E+02 -0.79923273837E+01  0.54366989378E+02  0.39999783884E+02 0.  0.
         12    1    3    3    0    0  0.16258799819E+02 -0.32055591629E+02  0.79923273837E+01  0.36821010622E+02  0.00000000000E+00 0. -1.
         11    1    4    4    0    0 -0.18913159297E+01  0.23611214798E+01 -0.44915654767E+01  0.54153606787E+01  0.51100000000E-03 0. -1.
        -11    1    4    4    0    0 -0.22064278584E+02  0.29515023164E+02  0.53321587177E+01  0.37234404772E+02  0.51100000000E-03 0.  1.
        -12    1    4    4    0    0  0.76967946953E+01  0.17944698514E+00 -0.88329206246E+01  0.11717223927E+02  0.00000000000E+00 0.  1.
</event>
<event>
 8    1  0.3186330E-007  0.9118800E+02  0.7816164E-02  0.1184000E+00
        -11   -1    0    0    0    0  0.00000000000E+00  0.00000000000E+00  0.45593999997E+02  0.45594000000E+02  0.51100000000E-03 0. -1.
         11   -1    0    0    0    0 -0.00000000000E+00 -0.00000000000E+00 -0.45593999997E+02  0.45594000000E+02  0.51100000000E-03 0.  1.
         23    2    1    2    0    0  0.88817841970E-15  0.00000000000E+00  0.00000000000E+00  0.91188000000E+02  0.91188000000E+02 0.  0.
    9900012    2    3    3    0    0  0.58345971955E+01 -0.74954623446E+01 -0.35574648759E+02  0.54367080477E+02  0.39999991564E+02 0.  0.
         12    1    3    3    0    0 -0.58345971955E+01  0.74954623446E+01  0.35574648759E+02  0.36820919523E+02  0.00000000000E+00 0. -1.
         11    1    4    4    0    0  0.58698702389E+01  0.11950983291E+02 -0.13194461422E+01  0.13379922146E+02  0.51100000000E-03 0. -1.
        -11    1    4    4    0    0 -0.15436586420E+00 -0.87675745716E+01 -0.26147373220E+02  0.27578602562E+02  0.51100000000E-03 0.  1.
         12    1    4    4    0    0  0.11909282084E+00 -0.10678871064E+02 -0.81078293968E+01  0.13408555770E+02  0.00000000000E+00 0. -1.
</event>
<event>
 8    1  0.3186330E-007  0.9118800E+02  0.7816164E-02  0.1184000E+00
        -11   -1    0    0    0    0  0.00000000000E+00  0.00000000000E+00  0.45593999997E+02  0.45594000000E+02  0.51100000000E-03 0.  1.
         11   -1    0    0    0    0 -0.00000000000E+00 -0.00000000000E+00 -0.45593999997E+02  0.45594000000E+02  0.51100000000E-03 0. -1.
         23    2    1    2    0    0  0.00000000000E+00  0.71054273576E-14  0.44408920985E-15  0.91188000000E+02  0.91188000000E+02 0.  0.
    9900012    2    3    3    0    0  0.16147735849E+02 -0.32972620267E+02  0.27994580779E+01  0.54367081681E+02  0.39999994309E+02 0.  0.
        -12    1    3    3    0    0 -0.16147735849E+02  0.32972620267E+02 -0.27994580779E+01  0.36820918319E+02  0.00000000000E+00 0.  1.
         11    1    4    4    0    0 -0.16290798792E+01  0.10314683411E+01  0.43290432517E+01  0.47390340712E+01  0.51100000000E-03 0. -1.
        -11    1    4    4    0    0 -0.91070924884E+01 -0.71567164816E+01 -0.10642308924E+01  0.11631436371E+02  0.51100000000E-03 0.  1.
         12    1    4    4    0    0  0.26883908217E+02 -0.26847372126E+02 -0.46535428139E+00  0.37996611240E+02  0.00000000000E+00 0. -1.
</event>
<event>
 8    1  0.3186330E-007  0.9118800E+02  0.7816164E-02  0.1184000E+00
        -11   -1    0    0    0    0  0.00000000000E+00  0.00000000000E+00  0.45593999997E+02  0.45594000000E+02  0.51100000000E-03 0.  1.
         11   -1    0    0    0    0 -0.00000000000E+00 -0.00000000000E+00 -0.45593999997E+02  0.45594000000E+02  0.51100000000E-03 0. -1.
         23    2    1    2    0    0 -0.17763568394E-14 -0.35527136788E-14  0.00000000000E+00  0.91188000000E+02  0.91188000000E+02 0.  0.
    9900012    2    3    3    0    0  0.46134938623E+01  0.26678474549E+02  0.24955085261E+02  0.54367060166E+02  0.39999945261E+02 0.  0.
         12    1    3    3    0    0 -0.46134938623E+01 -0.26678474549E+02 -0.24955085261E+02  0.36820939834E+02  0.00000000000E+00 0. -1.
         11    1    4    4    0    0 -0.78307842635E+00  0.10162264512E+01  0.18962878877E+02  0.19006228021E+02  0.51100000000E-03 0. -1.
        -11    1    4    4    0    0  0.68343021018E+01 -0.16737613528E+01  0.35422943570E+01  0.78776272987E+01  0.51100000000E-03 0.  1.
        -12    1    4    4    0    0 -0.14377298131E+01  0.27336009451E+02  0.24499120268E+01  0.27483204847E+02  0.00000000000E+00 0.  1.
</event>
<event>
 8    1  0.3186330E-007  0.9118800E+02  0.7816164E-02  0.1184000E+00
        -11   -1    0    0    0    0  0.00000000000E+00  0.00000000000E+00  0.45593999997E+02  0.45594000000E+02  0.51100000000E-03 0. -1.
         11   -1    0    0    0    0 -0.00000000000E+00 -0.00000000000E+00 -0.45593999997E+02  0.45594000000E+02  0.51100000000E-03 0.  1.
         23    2    1    2    0    0  0.00000000000E+00  0.00000000000E+00  0.71054273576E-14  0.91188000000E+02  0.91188000000E+02 0.  0.
    9900012    2    3    3    0    0  0.10406807019E+02 -0.10989508018E+02  0.33566459146E+02  0.54367107854E+02  0.40000053975E+02 0.  0.
        -12    1    3    3    0    0 -0.10406807019E+02  0.10989508018E+02 -0.33566459146E+02  0.36820892146E+02  0.00000000000E+00 0.  1.
         11    1    4    4    0    0  0.33441774154E+01 -0.11886118683E+02  0.41692994658E+02  0.43482975333E+02  0.51100000000E-03 0. -1.
        -11    1    4    4    0    0  0.44712959237E+01  0.28204554507E+00 -0.42097316063E+01  0.61476725177E+01  0.51100000000E-03 0.  1.
         12    1    4    4    0    0  0.25913336803E+01  0.61456511993E+00 -0.39168039061E+01  0.47364600038E+01  0.00000000000E+00 0. -1.
</event>
<event>
 8    1  0.3186330E-007  0.9118800E+02  0.7816164E-02  0.1184000E+00
        -11   -1    0    0    0    0  0.00000000000E+00  0.00000000000E+00  0.45593999997E+02  0.45594000000E+02  0.51100000000E-03 0.  1.
         11   -1    0    0    0    0 -0.00000000000E+00 -0.00000000000E+00 -0.45593999997E+02  0.45594000000E+02  0.51100000000E-03 0. -1.
         23    2    1    2    0    0  0.00000000000E+00  0.00000000000E+00  0.00000000000E+00  0.91188000000E+02  0.91188000000E+02 0.  0.
    9900012    2    3    3    0    0  0.26942701376E+02  0.24933626979E+02 -0.28600983261E+01  0.54367148921E+02  0.40000147594E+02 0.  0.
         12    1    3    3    0    0 -0.26942701376E+02 -0.24933626979E+02  0.28600983261E+01  0.36820851079E+02  0.00000000000E+00 0. -1.
         11    1    4    4    0    0  0.90013201201E+00  0.42053561779E+01 -0.68473660839E+01  0.80858939376E+01  0.51100000000E-03 0. -1.
        -11    1    4    4    0    0 -0.13455494285E+00 -0.72783337709E+01  0.31625379024E+01  0.79368692668E+01  0.51100000000E-03 0.  1.
        -12    1    4    4    0    0  0.26177124307E+02  0.28006604572E+02  0.82472985537E+00  0.38344385716E+02  0.00000000000E+00 0.  1.
</event>
<event>
 8    1  0.3186330E-007  0.9118800E+02  0.7816164E-02  0.1184000E+00
        -11   -1    0    0    0    0  0.00000000000E+00  0.00000000000E+00  0.45593999997E+02  0.45594000000E+02  0.51100000000E-03 0.  1.
         11   -1    0    0    0    0 -0.00000000000E+00 -0.00000000000E+00 -0.45593999997E+02  0.45594000000E+02  0.51100000000E-03 0. -1.
         23    2    1    2    0    0  0.35527136788E-14  0.35527136788E-14  0.00000000000E+00  0.91188000000E+02  0.91188000000E+02 0.  0.
    9900012    2    3    3    0    0 -0.19748468294E+02  0.27059112116E+02 -0.15283368766E+02  0.54367096842E+02  0.40000028872E+02 0.  0.
        -12    1    3    3    0    0  0.19748468294E+02 -0.27059112116E+02  0.15283368766E+02  0.36820903158E+02  0.00000000000E+00 0.  1.
         11    1    4    4    0    0 -0.12945811390E+02  0.26045535573E+02 -0.24028140702E+02  0.37726853854E+02  0.51100000000E-03 0. -1.
        -11    1    4    4    0    0 -0.85630082318E+01  0.34744430872E+01  0.23036145998E+01  0.95238387864E+01  0.51100000000E-03 0.  1.
         12    1    4    4    0    0  0.17603513277E+01 -0.24608665444E+01  0.64411573358E+01  0.71164042023E+01  0.00000000000E+00 0. -1.
</event>
<event>
 8    1  0.3186330E-007  0.9118800E+02  0.7816164E-02  0.1184000E+00
        -11   -1    0    0    0    0  0.00000000000E+00  0.00000000000E+00  0.45593999997E+02  0.45594000000E+02  0.51100000000E-03 0.  1.
         11   -1    0    0    0    0 -0.00000000000E+00 -0.00000000000E+00 -0.45593999997E+02  0.45594000000E+02  0.51100000000E-03 0. -1.
         23    2    1    2    0    0  0.00000000000E+00  0.66613381478E-15  0.35527136788E-14  0.91188000000E+02  0.91188000000E+02 0.  0.
    9900012    2    3    3    0    0  0.20966616127E+02  0.13805272709E+01 -0.30236988304E+02  0.54367077835E+02  0.39999985541E+02 0.  0.
        -12    1    3    3    0    0 -0.20966616127E+02 -0.13805272709E+01  0.30236988304E+02  0.36820922165E+02  0.00000000000E+00 0.  1.
         11    1    4    4    0    0 -0.33800524671E+00  0.12555013709E+02 -0.51531389012E+01  0.13575619971E+02  0.51100000000E-03 0.  1.
        -11    1    4    4    0    0  0.20006125592E+02 -0.66279580605E+01 -0.28143097091E+02  0.35159761139E+02  0.51100000000E-03 0. -1.
        -12    1    4    4    0    0  0.12984957823E+01 -0.45465283780E+01  0.30592476879E+01  0.56316967252E+01  0.00000000000E+00 0.  1.
</event>
<event>
 8    1  0.3186330E-007  0.9118800E+02  0.7816164E-02  0.1184000E+00
        -11   -1    0    0    0    0  0.00000000000E+00  0.00000000000E+00  0.45593999997E+02  0.45594000000E+02  0.51100000000E-03 0. -1.
         11   -1    0    0    0    0 -0.00000000000E+00 -0.00000000000E+00 -0.45593999997E+02  0.45594000000E+02  0.51100000000E-03 0.  1.
         23    2    1    2    0    0  0.88817841970E-15 -0.71054273576E-14  0.00000000000E+00  0.91188000000E+02  0.91188000000E+02 0.  0.
    9900012    2    3    3    0    0  0.28171607382E+01 -0.29713043837E+02  0.21563380549E+02  0.54367071856E+02  0.39999971910E+02 0.  0.
        -12    1    3    3    0    0 -0.28171607382E+01  0.29713043837E+02 -0.21563380549E+02  0.36820928144E+02  0.00000000000E+00 0.  1.
         11    1    4    4    0    0  0.76334961667E+01 -0.12622122920E+02 -0.11530991036E+01  0.14795874038E+02  0.51100000000E-03 0. -1.
        -11    1    4    4    0    0  0.53449209590E+01 -0.19769349851E+02  0.20201214028E+02  0.28766028959E+02  0.51100000000E-03 0.  1.
         12    1    4    4    0    0 -0.10161256387E+02  0.26784289336E+01  0.25152656242E+01  0.10805168860E+02  0.00000000000E+00 0. -1.
</event>
<event>
 8    1  0.3186330E-007  0.9118800E+02  0.7816164E-02  0.1184000E+00
        -11   -1    0    0    0    0  0.00000000000E+00  0.00000000000E+00  0.45593999997E+02  0.45594000000E+02  0.51100000000E-03 0. -1.
         11   -1    0    0    0    0 -0.00000000000E+00 -0.00000000000E+00 -0.45593999997E+02  0.45594000000E+02  0.51100000000E-03 0.  1.
         23    2    1    2    0    0  0.00000000000E+00  0.00000000000E+00  0.00000000000E+00  0.91188000000E+02  0.91188000000E+02 0.  0.
    9900012    2    3    3    0    0 -0.16068210364E+02 -0.48056994895E+01  0.32779540268E+02  0.54367076708E+02  0.39999982972E+02 0.  0.
        -12    1    3    3    0    0  0.16068210364E+02  0.48056994895E+01 -0.32779540268E+02  0.36820923292E+02  0.00000000000E+00 0.  1.
         11    1    4    4    0    0 -0.17106694452E+02 -0.13230065545E+02  0.17844508091E+02  0.28037476682E+02  0.51100000000E-03 0. -1.
        -11    1    4    4    0    0 -0.30054875212E+01  0.13720351041E+02  0.62257658814E+01  0.15363630724E+02  0.51100000000E-03 0.  1.
        -12    1    4    4    0    0  0.40439716095E+01 -0.52959849863E+01  0.87092662953E+01  0.10965969303E+02  0.00000000000E+00 0.  1.
</event>
<event>
 8    1  0.3186330E-007  0.9118800E+02  0.7816164E-02  0.1184000E+00
        -11   -1    0    0    0    0  0.00000000000E+00  0.00000000000E+00  0.45593999997E+02  0.45594000000E+02  0.51100000000E-03 0. -1.
         11   -1    0    0    0    0 -0.00000000000E+00 -0.00000000000E+00 -0.45593999997E+02  0.45594000000E+02  0.51100000000E-03 0.  1.
         23    2    1    2    0    0  0.17763568394E-14  0.35527136788E-14  0.00000000000E+00  0.91188000000E+02  0.91188000000E+02 0.  0.
    9900012    2    3    3    0    0 -0.14445651421E+02 -0.26830069290E+02  0.20669953392E+02  0.54367130424E+02  0.40000105428E+02 0.  0.
        -12    1    3    3    0    0  0.14445651421E+02  0.26830069290E+02 -0.20669953392E+02  0.36820869576E+02  0.00000000000E+00 0.  1.
         11    1    4    4    0    0  0.31010790697E+01  0.13985086387E+01  0.14873041144E+01  0.37127606439E+01  0.51100000000E-03 0. -1.
        -11    1    4    4    0    0 -0.12053773234E+02 -0.21956403968E+02 -0.45877663081E+01  0.25464185130E+02  0.51100000000E-03 0.  1.
         12    1    4    4    0    0 -0.54929572573E+01 -0.62721739608E+01  0.23770415585E+02  0.25190184650E+02  0.00000000000E+00 0. -1.
</event>
<event>
 8    1  0.3186330E-007  0.9118800E+02  0.7816164E-02  0.1184000E+00
        -11   -1    0    0    0    0  0.00000000000E+00  0.00000000000E+00  0.45593999997E+02  0.45594000000E+02  0.51100000000E-03 0.  1.
         11   -1    0    0    0    0 -0.00000000000E+00 -0.00000000000E+00 -0.45593999997E+02  0.45594000000E+02  0.51100000000E-03 0. -1.
         23    2    1    2    0    0  0.00000000000E+00  0.88817841970E-15  0.35527136788E-14  0.91188000000E+02  0.91188000000E+02 0.  0.
    9900012    2    3    3    0    0  0.23662955663E+02 -0.16597628291E+01  0.28161861178E+02  0.54367072413E+02  0.39999973180E+02 0.  0.
         12    1    3    3    0    0 -0.23662955663E+02  0.16597628291E+01 -0.28161861178E+02  0.36820927587E+02  0.00000000000E+00 0. -1.
         11    1    4    4    0    0 -0.33703830290E+01 -0.15956471676E-01 -0.44182400382E+01  0.55570299323E+01  0.51100000000E-03 0. -1.
        -11    1    4    4    0    0  0.23806386641E+02  0.71707618891E+01  0.30216102127E+02  0.39130252989E+02  0.51100000000E-03 0.  1.
        -12    1    4    4    0    0  0.32269520503E+01 -0.88145682465E+01  0.23639990898E+01  0.96797894917E+01  0.00000000000E+00 0.  1.
</event>
<event>
 8    1  0.3186330E-007  0.9118800E+02  0.7816164E-02  0.1184000E+00
        -11   -1    0    0    0    0  0.00000000000E+00  0.00000000000E+00  0.45593999997E+02  0.45594000000E+02  0.51100000000E-03 0.  1.
         11   -1    0    0    0    0 -0.00000000000E+00 -0.00000000000E+00 -0.45593999997E+02  0.45594000000E+02  0.51100000000E-03 0. -1.
         23    2    1    2    0    0  0.00000000000E+00 -0.71054273576E-14  0.00000000000E+00  0.91188000000E+02  0.91188000000E+02 0.  0.
    9900012    2    3    3    0    0  0.14630688761E+02  0.31578713895E+02  0.12021403020E+02  0.54366995730E+02  0.39999798366E+02 0.  0.
         12    1    3    3    0    0 -0.14630688761E+02 -0.31578713895E+02 -0.12021403020E+02  0.36821004270E+02  0.00000000000E+00 0. -1.
         11    1    4    4    0    0  0.19956240473E+02  0.23443547576E+02  0.19863105594E+01  0.30851205595E+02  0.51100000000E-03 0.  1.
        -11    1    4    4    0    0  0.13912180842E+01 -0.41841206803E+01  0.82723378962E+01  0.93741094593E+01  0.51100000000E-03 0. -1.
        -12    1    4    4    0    0 -0.67167697971E+01  0.12319286999E+02  0.17627545640E+01  0.14141680676E+02  0.00000000000E+00 0.  1.
</event>
<event>
 8    1  0.3186330E-007  0.9118800E+02  0.7816164E-02  0.1184000E+00
        -11   -1    0    0    0    0  0.00000000000E+00  0.00000000000E+00  0.45593999997E+02  0.45594000000E+02  0.51100000000E-03 0.  1.
         11   -1    0    0    0    0 -0.00000000000E+00 -0.00000000000E+00 -0.45593999997E+02  0.45594000000E+02  0.51100000000E-03 0. -1.
         23    2    1    2    0    0  0.00000000000E+00  0.35527136788E-14 -0.17763568394E-14  0.91188000000E+02  0.91188000000E+02 0.  0.
    9900012    2    3    3    0    0  0.25859604135E+02 -0.24398670733E+02  0.95794202846E+01  0.54367088108E+02  0.40000008961E+02 0.  0.
         12    1    3    3    0    0 -0.25859604135E+02  0.24398670733E+02 -0.95794202846E+01  0.36820911892E+02  0.00000000000E+00 0. -1.
         11    1    4    4    0    0  0.52675254682E+01 -0.17291536607E+02  0.18239593149E+02  0.25679307259E+02  0.51100000000E-03 0. -1.
        -11    1    4    4    0    0  0.16042013799E+02 -0.12461870383E+02 -0.61126442721E+01  0.21213411806E+02  0.51100000000E-03 0.  1.
         12    1    4    4    0    0  0.45500648673E+01  0.53547362569E+01 -0.25475285924E+01  0.74743690441E+01  0.00000000000E+00 0. -1.
</event>
<event>
 8    1  0.3186330E-007  0.9118800E+02  0.7816164E-02  0.1184000E+00
        -11   -1    0    0    0    0  0.00000000000E+00  0.00000000000E+00  0.45593999997E+02  0.45594000000E+02  0.51100000000E-03 0. -1.
         11   -1    0    0    0    0 -0.00000000000E+00 -0.00000000000E+00 -0.45593999997E+02  0.45594000000E+02  0.51100000000E-03 0.  1.
         23    2    1    2    0    0  0.00000000000E+00 -0.35527136788E-14  0.00000000000E+00  0.91188000000E+02  0.91188000000E+02 0.  0.
    9900012    2    3    3    0    0 -0.28721707329E+02 -0.22494270041E+02  0.49850162884E+01  0.54367095014E+02  0.40000024704E+02 0.  0.
        -12    1    3    3    0    0  0.28721707329E+02  0.22494270041E+02 -0.49850162884E+01  0.36820904986E+02  0.00000000000E+00 0.  1.
         11    1    4    4    0    0 -0.19613021653E+02 -0.11404335581E+01 -0.70254997319E-01  0.19646275553E+02  0.51100000000E-03 0. -1.
        -11    1    4    4    0    0 -0.35696953771E+01  0.28729361500E+01 -0.59760814834E+01  0.75306067063E+01  0.51100000000E-03 0.  1.
         12    1    4    4    0    0 -0.55389902987E+01 -0.24226772633E+02  0.11031352769E+02  0.27190212755E+02  0.00000000000E+00 0. -1.
</event>
<event>
 8    1  0.3186330E-007  0.9118800E+02  0.7816164E-02  0.1184000E+00
        -11   -1    0    0    0    0  0.00000000000E+00  0.00000000000E+00  0.45593999997E+02  0.45594000000E+02  0.51100000000E-03 0.  1.
         11   -1    0    0    0    0 -0.00000000000E+00 -0.00000000000E+00 -0.45593999997E+02  0.45594000000E+02  0.51100000000E-03 0. -1.
         23    2    1    2    0    0  0.00000000000E+00  0.00000000000E+00  0.00000000000E+00  0.91188000000E+02  0.91188000000E+02 0.  0.
    9900012    2    3    3    0    0 -0.78082233865E+01 -0.13238113275E+02  0.33459915460E+02  0.54367055714E+02  0.39999935111E+02 0.  0.
         12    1    3    3    0    0  0.78082233865E+01  0.13238113275E+02 -0.33459915460E+02  0.36820944286E+02  0.00000000000E+00 0. -1.
         11    1    4    4    0    0  0.31336342978E+01  0.10691339056E+01 -0.44883679982E+01  0.55774688497E+01  0.51100000000E-03 0. -1.
        -11    1    4    4    0    0 -0.30378811162E+01 -0.54031040347E+01  0.36234325928E+02  0.36760694099E+02  0.51100000000E-03 0.  1.
        -12    1    4    4    0    0 -0.79039765681E+01 -0.89041431456E+01  0.17139575298E+01  0.12028892765E+02  0.00000000000E+00 0.  1.
</event>
<event>
 8    1  0.3186330E-007  0.9118800E+02  0.7816164E-02  0.1184000E+00
        -11   -1    0    0    0    0  0.00000000000E+00  0.00000000000E+00  0.45593999997E+02  0.45594000000E+02  0.51100000000E-03 0.  1.
         11   -1    0    0    0    0 -0.00000000000E+00 -0.00000000000E+00 -0.45593999997E+02  0.45594000000E+02  0.51100000000E-03 0. -1.
         23    2    1    2    0    0  0.35527136788E-14 -0.35527136788E-14  0.00000000000E+00  0.91188000000E+02  0.91188000000E+02 0.  0.
    9900012    2    3    3    0    0 -0.20553717589E+02  0.26037158818E+02 -0.15980843259E+02  0.54367132312E+02  0.40000109732E+02 0.  0.
        -12    1    3    3    0    0  0.20553717589E+02 -0.26037158818E+02  0.15980843259E+02  0.36820867688E+02  0.00000000000E+00 0.  1.
         11    1    4    4    0    0 -0.19743610488E+01  0.14105678469E+02 -0.15570601485E+02  0.21102414494E+02  0.51100000000E-03 0. -1.
        -11    1    4    4    0    0 -0.17975739080E+02  0.18247379961E+02  0.34382784372E+01  0.25844067593E+02  0.51100000000E-03 0.  1.
        -12    1    4    4    0    0 -0.60361746058E+00 -0.63158996118E+01 -0.38485202105E+01  0.74206502246E+01  0.00000000000E+00 0.  1.
</event>
<event>
 8    1  0.3186330E-007  0.9118800E+02  0.7816164E-02  0.1184000E+00
        -11   -1    0    0    0    0  0.00000000000E+00  0.00000000000E+00  0.45593999997E+02  0.45594000000E+02  0.51100000000E-03 0.  1.
         11   -1    0    0    0    0 -0.00000000000E+00 -0.00000000000E+00 -0.45593999997E+02  0.45594000000E+02  0.51100000000E-03 0. -1.
         23    2    1    2    0    0  0.35527136788E-14  0.00000000000E+00  0.00000000000E+00  0.91188000000E+02  0.91188000000E+02 0.  0.
    9900012    2    3    3    0    0 -0.28270431814E+02  0.94746290833E+01  0.21605407487E+02  0.54367088226E+02  0.40000009228E+02 0.  0.
         12    1    3    3    0    0  0.28270431814E+02 -0.94746290833E+01 -0.21605407487E+02  0.36820911774E+02  0.00000000000E+00 0. -1.
         11    1    4    4    0    0 -0.12130040286E+02  0.41620752643E+01 -0.43716150568E+01  0.13548865868E+02  0.51100000000E-03 0. -1.
        -11    1    4    4    0    0 -0.22257677388E+02  0.75264623362E+01  0.24879912316E+02  0.34220781334E+02  0.51100000000E-03 0.  1.
        -12    1    4    4    0    0  0.61172858598E+01 -0.22139085172E+01  0.10971102284E+01  0.65974410241E+01  0.00000000000E+00 0.  1.
</event>
<event>
 8    1  0.3186330E-007  0.9118800E+02  0.7816164E-02  0.1184000E+00
        -11   -1    0    0    0    0  0.00000000000E+00  0.00000000000E+00  0.45593999997E+02  0.45594000000E+02  0.51100000000E-03 0.  1.
         11   -1    0    0    0    0 -0.00000000000E+00 -0.00000000000E+00 -0.45593999997E+02  0.45594000000E+02  0.51100000000E-03 0. -1.
         23    2    1    2    0    0 -0.44408920985E-15  0.71054273576E-14  0.00000000000E+00  0.91188000000E+02  0.91188000000E+02 0.  0.
    9900012    2    3    3    0    0  0.30824994836E+01  0.24841244278E+02  0.27003534282E+02  0.54367080891E+02  0.39999992507E+02 0.  0.
         12    1    3    3    0    0 -0.30824994836E+01 -0.24841244278E+02 -0.27003534282E+02  0.36820919109E+02  0.00000000000E+00 0. -1.
         11    1    4    4    0    0 -0.61710178443E+01  0.21376922314E+02  0.17765666464E+01  0.22320628535E+02  0.51100000000E-03 0. -1.
        -11    1    4    4    0    0  0.14183106732E+02  0.11491789360E+01  0.16847592196E+02  0.22052720736E+02  0.51100000000E-03 0.  1.
        -12    1    4    4    0    0 -0.49295894044E+01  0.23151430272E+01  0.83793754402E+01  0.99937316203E+01  0.00000000000E+00 0.  1.
</event>
<event>
 8    1  0.3186330E-007  0.9118800E+02  0.7816164E-02  0.1184000E+00
        -11   -1    0    0    0    0  0.00000000000E+00  0.00000000000E+00  0.45593999997E+02  0.45594000000E+02  0.51100000000E-03 0. -1.
         11   -1    0    0    0    0 -0.00000000000E+00 -0.00000000000E+00 -0.45593999997E+02  0.45594000000E+02  0.51100000000E-03 0.  1.
         23    2    1    2    0    0  0.11102230246E-15  0.00000000000E+00  0.71054273576E-14  0.91188000000E+02  0.91188000000E+02 0.  0.
    9900012    2    3    3    0    0  0.63087497290E+00  0.11181634323E+02 -0.35076383617E+02  0.54367086961E+02  0.40000006345E+02 0.  0.
         12    1    3    3    0    0 -0.63087497290E+00 -0.11181634323E+02  0.35076383617E+02  0.36820913039E+02  0.00000000000E+00 0. -1.
         11    1    4    4    0    0  0.10470248188E+02  0.27632379308E+01 -0.19975852935E+02  0.22722153985E+02  0.51100000000E-03 0. -1.
        -11    1    4    4    0    0 -0.11041106672E+02 -0.23945983074E+00  0.30861227128E+01  0.11466801263E+02  0.51100000000E-03 0.  1.
         12    1    4    4    0    0  0.12017334568E+01  0.86578562227E+01 -0.18186653396E+02  0.20178131712E+02  0.00000000000E+00 0. -1.
</event>
<event>
 8    1  0.3186330E-007  0.9118800E+02  0.7816164E-02  0.1184000E+00
        -11   -1    0    0    0    0  0.00000000000E+00  0.00000000000E+00  0.45593999997E+02  0.45594000000E+02  0.51100000000E-03 0.  1.
         11   -1    0    0    0    0 -0.00000000000E+00 -0.00000000000E+00 -0.45593999997E+02  0.45594000000E+02  0.51100000000E-03 0. -1.
         23    2    1    2    0    0  0.00000000000E+00  0.00000000000E+00  0.00000000000E+00  0.91188000000E+02  0.91188000000E+02 0.  0.
    9900012    2    3    3    0    0  0.10906588089E+02 -0.30237261077E+02 -0.17959235489E+02  0.54367085284E+02  0.40000002522E+02 0.  0.
        -12    1    3    3    0    0 -0.10906588089E+02  0.30237261077E+02  0.17959235489E+02  0.36820914716E+02  0.00000000000E+00 0.  1.
         11    1    4    4    0    0 -0.15541821861E+01 -0.24807003267E+01  0.21843130403E+01  0.36524758860E+01  0.51100000000E-03 0. -1.
        -11    1    4    4    0    0  0.25173618638E+01 -0.17396623726E+02  0.78514506906E+01  0.19251620867E+02  0.51100000000E-03 0.  1.
         12    1    4    4    0    0  0.99434084113E+01 -0.10359937024E+02 -0.27994999220E+02  0.31462988531E+02  0.00000000000E+00 0. -1.
</event>
<event>
 8    1  0.3186330E-007  0.9118800E+02  0.7816164E-02  0.1184000E+00
        -11   -1    0    0    0    0  0.00000000000E+00  0.00000000000E+00  0.45593999997E+02  0.45594000000E+02  0.51100000000E-03 0.  1.
         11   -1    0    0    0    0 -0.00000000000E+00 -0.00000000000E+00 -0.45593999997E+02  0.45594000000E+02  0.51100000000E-03 0. -1.
         23    2    1    2    0    0  0.00000000000E+00 -0.17763568394E-14  0.11102230246E-14  0.91188000000E+02  0.91188000000E+02 0.  0.
    9900012    2    3    3    0    0 -0.33303230778E+02 -0.15688824613E+02  0.73209074401E+00  0.54367077213E+02  0.39999984123E+02 0.  0.
         12    1    3    3    0    0  0.33303230778E+02  0.15688824613E+02 -0.73209074401E+00  0.36820922787E+02  0.00000000000E+00 0. -1.
         11    1    4    4    0    0 -0.10338683293E+01 -0.87078500636E+01  0.13044267666E+02  0.15717775149E+02  0.51100000000E-03 0. -1.
        -11    1    4    4    0    0 -0.21703618358E+02 -0.24027326174E+01 -0.61387826779E-01  0.21836298739E+02  0.51100000000E-03 0.  1.
         12    1    4    4    0    0 -0.10565744090E+02 -0.45782419322E+01 -0.12250789095E+02  0.16813003325E+02  0.00000000000E+00 0. -1.
</event>
<event>
 8    1  0.3186330E-007  0.9118800E+02  0.7816164E-02  0.1184000E+00
        -11   -1    0    0    0    0  0.00000000000E+00  0.00000000000E+00  0.45593999997E+02  0.45594000000E+02  0.51100000000E-03 0.  1.
         11   -1    0    0    0    0 -0.00000000000E+00 -0.00000000000E+00 -0.45593999997E+02  0.45594000000E+02  0.51100000000E-03 0. -1.
         23    2    1    2    0    0 -0.17763568394E-14  0.00000000000E+00  0.00000000000E+00  0.91188000000E+02  0.91188000000E+02 0.  0.
    9900012    2    3    3    0    0 -0.10586839749E+02  0.16492578207E+02 -0.31171984197E+02  0.54367096825E+02  0.40000028833E+02 0.  0.
        -12    1    3    3    0    0  0.10586839749E+02 -0.16492578207E+02  0.31171984197E+02  0.36820903175E+02  0.00000000000E+00 0.  1.
         11    1    4    4    0    0 -0.99236275251E+00 -0.62750012843E+00  0.54185551296E+01  0.55443015969E+01  0.51100000000E-03 0.  1.
        -11    1    4    4    0    0 -0.58744956744E+01  0.21752617807E+02 -0.36483649956E+02  0.42880564307E+02  0.51100000000E-03 0. -1.
         12    1    4    4    0    0 -0.37199813224E+01 -0.46325394713E+01 -0.10688937108E+00  0.59422309219E+01  0.00000000000E+00 0. -1.
</event>
<event>
 8    1  0.3186330E-007  0.9118800E+02  0.7816164E-02  0.1184000E+00
        -11   -1    0    0    0    0  0.00000000000E+00  0.00000000000E+00  0.45593999997E+02  0.45594000000E+02  0.51100000000E-03 0. -1.
         11   -1    0    0    0    0 -0.00000000000E+00 -0.00000000000E+00 -0.45593999997E+02  0.45594000000E+02  0.51100000000E-03 0.  1.
         23    2    1    2    0    0  0.71054273576E-14  0.00000000000E+00 -0.44408920985E-15  0.91188000000E+02  0.91188000000E+02 0.  0.
    9900012    2    3    3    0    0  0.35932838918E+02 -0.74615114896E+01  0.29894376105E+01  0.54367084698E+02  0.40000001186E+02 0.  0.
         12    1    3    3    0    0 -0.35932838918E+02  0.74615114896E+01 -0.29894376105E+01  0.36820915302E+02  0.00000000000E+00 0. -1.
         11    1    4    4    0    0  0.81826693181E+01 -0.16949357563E+02  0.72625452450E+01  0.20173779087E+02  0.51100000000E-03 0. -1.
        -11    1    4    4    0    0  0.17510065378E+02 -0.14821378491E+01  0.24624143546E+01  0.17744368314E+02  0.51100000000E-03 0.  1.
         12    1    4    4    0    0  0.10240104222E+02  0.10969983922E+02 -0.67355219891E+01  0.16448937297E+02  0.00000000000E+00 0. -1.
</event>
<event>
 8    1  0.3186330E-007  0.9118800E+02  0.7816164E-02  0.1184000E+00
        -11   -1    0    0    0    0  0.00000000000E+00  0.00000000000E+00  0.45593999997E+02  0.45594000000E+02  0.51100000000E-03 0.  1.
         11   -1    0    0    0    0 -0.00000000000E+00 -0.00000000000E+00 -0.45593999997E+02  0.45594000000E+02  0.51100000000E-03 0. -1.
         23    2    1    2    0    0 -0.11102230246E-14  0.35527136788E-14 -0.35527136788E-14  0.91188000000E+02  0.91188000000E+02 0.  0.
    9900012    2    3    3    0    0  0.10740006176E+01 -0.19449312563E+02 -0.31246650701E+02  0.54367049217E+02  0.39999920300E+02 0.  0.
        -12    1    3    3    0    0 -0.10740006176E+01  0.19449312563E+02  0.31246650701E+02  0.36820950783E+02  0.00000000000E+00 0.  1.
         11    1    4    4    0    0  0.29127724039E+01 -0.14108669535E+02 -0.76749845529E+01  0.16323118185E+02  0.51100000000E-03 0. -1.
        -11    1    4    4    0    0 -0.14434644161E+02 -0.76497644472E+00 -0.19022954605E+02  0.23891775639E+02  0.51100000000E-03 0.  1.
        -12    1    4    4    0    0  0.12595872375E+02 -0.45756665835E+01 -0.45487115438E+01  0.14152155394E+02  0.00000000000E+00 0.  1.
</event>
<event>
 8    1  0.3186330E-007  0.9118800E+02  0.7816164E-02  0.1184000E+00
        -11   -1    0    0    0    0  0.00000000000E+00  0.00000000000E+00  0.45593999997E+02  0.45594000000E+02  0.51100000000E-03 0.  1.
         11   -1    0    0    0    0 -0.00000000000E+00 -0.00000000000E+00 -0.45593999997E+02  0.45594000000E+02  0.51100000000E-03 0. -1.
         23    2    1    2    0    0  0.00000000000E+00  0.00000000000E+00 -0.17763568394E-14  0.91188000000E+02  0.91188000000E+02 0.  0.
    9900012    2    3    3    0    0  0.23520950118E+02  0.23609867061E+02 -0.15656269772E+02  0.54367086102E+02  0.40000004386E+02 0.  0.
        -12    1    3    3    0    0 -0.23520950118E+02 -0.23609867061E+02  0.15656269772E+02  0.36820913898E+02  0.00000000000E+00 0.  1.
         11    1    4    4    0    0  0.16965335292E+02  0.17283304131E+02 -0.17382973122E+02  0.29811121383E+02  0.51100000000E-03 0. -1.
        -11    1    4    4    0    0  0.14599478602E+02  0.61534194850E+01 -0.14419632350E+01  0.15908758753E+02  0.51100000000E-03 0.  1.
         12    1    4    4    0    0 -0.80438637762E+01  0.17314344489E+00  0.31686665846E+01  0.86472059665E+01  0.00000000000E+00 0. -1.
</event>
<event>
 8    1  0.3186330E-007  0.9118800E+02  0.7816164E-02  0.1184000E+00
        -11   -1    0    0    0    0  0.00000000000E+00  0.00000000000E+00  0.45593999997E+02  0.45594000000E+02  0.51100000000E-03 0. -1.
         11   -1    0    0    0    0 -0.00000000000E+00 -0.00000000000E+00 -0.45593999997E+02  0.45594000000E+02  0.51100000000E-03 0.  1.
         23    2    1    2    0    0 -0.35527136788E-14  0.00000000000E+00  0.00000000000E+00  0.91188000000E+02  0.91188000000E+02 0.  0.
    9900012    2    3    3    0    0 -0.22144311045E+02  0.20622010307E+02  0.20979549471E+02  0.54367091310E+02  0.40000016259E+02 0.  0.
        -12    1    3    3    0    0  0.22144311045E+02 -0.20622010307E+02 -0.20979549471E+02  0.36820908690E+02  0.00000000000E+00 0.  1.
         11    1    4    4    0    0 -0.11194435063E+02  0.67689920763E+01  0.61252783908E+01  0.14444849107E+02  0.51100000000E-03 0. -1.
        -11    1    4    4    0    0 -0.18566617679E+02  0.92562952177E+00  0.16463365922E+02  0.24831804199E+02  0.51100000000E-03 0.  1.
        -12    1    4    4    0    0  0.76167416970E+01  0.12927388709E+02 -0.16090948416E+01  0.15090438003E+02  0.00000000000E+00 0.  1.
</event>
<event>
 8    1  0.3186330E-007  0.9118800E+02  0.7816164E-02  0.1184000E+00
        -11   -1    0    0    0    0  0.00000000000E+00  0.00000000000E+00  0.45593999997E+02  0.45594000000E+02  0.51100000000E-03 0. -1.
         11   -1    0    0    0    0 -0.00000000000E+00 -0.00000000000E+00 -0.45593999997E+02  0.45594000000E+02  0.51100000000E-03 0.  1.
         23    2    1    2    0    0 -0.35527136788E-14  0.00000000000E+00  0.00000000000E+00  0.91188000000E+02  0.91188000000E+02 0.  0.
    9900012    2    3    3    0    0 -0.15058235398E+02  0.33251036139E+02  0.48370776861E+01  0.54367093192E+02  0.40000020549E+02 0.  0.
         12    1    3    3    0    0  0.15058235398E+02 -0.33251036139E+02 -0.48370776861E+01  0.36820906808E+02  0.00000000000E+00 0. -1.
         11    1    4    4    0    0 -0.88249856179E+00  0.16082084314E+02 -0.54029330969E+01  0.16988346768E+02  0.51100000000E-03 0. -1.
        -11    1    4    4    0    0  0.68293730274E+01  0.20573185081E+00 -0.28139232423E+01  0.73892371607E+01  0.51100000000E-03 0.  1.
         12    1    4    4    0    0 -0.21005109864E+02  0.16963219975E+02  0.13053934025E+02  0.29989509263E+02  0.00000000000E+00 0. -1.
</event>
<event>
 8    1  0.3186330E-007  0.9118800E+02  0.7816164E-02  0.1184000E+00
        -11   -1    0    0    0    0  0.00000000000E+00  0.00000000000E+00  0.45593999997E+02  0.45594000000E+02  0.51100000000E-03 0.  1.
         11   -1    0    0    0    0 -0.00000000000E+00 -0.00000000000E+00 -0.45593999997E+02  0.45594000000E+02  0.51100000000E-03 0. -1.
         23    2    1    2    0    0  0.00000000000E+00 -0.71054273576E-14  0.13322676296E-14  0.91188000000E+02  0.91188000000E+02 0.  0.
    9900012    2    3    3    0    0 -0.21349240390E+02  0.29966924226E+02 -0.14001023244E+01  0.54367259930E+02  0.40000400660E+02 0.  0.
         12    1    3    3    0    0  0.21349240390E+02 -0.29966924226E+02  0.14001023244E+01  0.36820740070E+02  0.00000000000E+00 0. -1.
         11    1    4    4    0    0 -0.10783446515E+02  0.11238427275E+02 -0.12194381631E+02  0.19780998710E+02  0.51100000000E-03 0. -1.
        -11    1    4    4    0    0 -0.13815922349E+02  0.19699158928E+02  0.84639363088E+00  0.24075982956E+02  0.51100000000E-03 0.  1.
        -12    1    4    4    0    0  0.32501284744E+01 -0.97066197688E+00  0.99478856756E+01  0.10510278264E+02  0.00000000000E+00 0.  1.
</event>
<event>
 8    1  0.3186330E-007  0.9118800E+02  0.7816164E-02  0.1184000E+00
        -11   -1    0    0    0    0  0.00000000000E+00  0.00000000000E+00  0.45593999997E+02  0.45594000000E+02  0.51100000000E-03 0.  1.
         11   -1    0    0    0    0 -0.00000000000E+00 -0.00000000000E+00 -0.45593999997E+02  0.45594000000E+02  0.51100000000E-03 0. -1.
         23    2    1    2    0    0  0.17763568394E-14  0.35527136788E-14  0.00000000000E+00  0.91188000000E+02  0.91188000000E+02 0.  0.
    9900012    2    3    3    0    0  0.12374300561E+02 -0.30933860258E+02  0.15676510618E+02  0.54367081896E+02  0.39999994799E+02 0.  0.
         12    1    3    3    0    0 -0.12374300561E+02  0.30933860258E+02 -0.15676510618E+02  0.36820918104E+02  0.00000000000E+00 0. -1.
         11    1    4    4    0    0  0.11338194791E+02 -0.16331983733E+02 -0.20067868171E+01  0.19982881358E+02  0.51100000000E-03 0. -1.
        -11    1    4    4    0    0 -0.66547943646E+01 -0.16505899087E+02  0.34998516104E+01  0.18137804560E+02  0.51100000000E-03 0.  1.
        -12    1    4    4    0    0  0.76909001349E+01  0.19040225623E+01  0.14183445825E+02  0.16246395978E+02  0.00000000000E+00 0.  1.
</event>
<event>
 8    1  0.3186330E-007  0.9118800E+02  0.7816164E-02  0.1184000E+00
        -11   -1    0    0    0    0  0.00000000000E+00  0.00000000000E+00  0.45593999997E+02  0.45594000000E+02  0.51100000000E-03 0.  1.
         11   -1    0    0    0    0 -0.00000000000E+00 -0.00000000000E+00 -0.45593999997E+02  0.45594000000E+02  0.51100000000E-03 0. -1.
         23    2    1    2    0    0  0.35527136788E-14  0.00000000000E+00  0.35527136788E-14  0.91188000000E+02  0.91188000000E+02 0.  0.
    9900012    2    3    3    0    0  0.10219073246E+02 -0.17188483165E+02 -0.30917742123E+02  0.54367079459E+02  0.39999989243E+02 0.  0.
        -12    1    3    3    0    0 -0.10219073246E+02  0.17188483165E+02  0.30917742123E+02  0.36820920541E+02  0.00000000000E+00 0.  1.
         11    1    4    4    0    0 -0.69170036851E+01 -0.72611379950E+00 -0.93965741615E+01  0.11690499881E+02  0.51100000000E-03 0. -1.
        -11    1    4    4    0    0 -0.55206846184E+01 -0.85621419924E+01  0.37278238678E+00  0.10194469144E+02  0.51100000000E-03 0.  1.
         12    1    4    4    0    0  0.22656761549E+02 -0.79002273726E+01 -0.21893950348E+02  0.32482110435E+02  0.00000000000E+00 0. -1.
</event>
<event>
 8    1  0.3186330E-007  0.9118800E+02  0.7816164E-02  0.1184000E+00
        -11   -1    0    0    0    0  0.00000000000E+00  0.00000000000E+00  0.45593999997E+02  0.45594000000E+02  0.51100000000E-03 0. -1.
         11   -1    0    0    0    0 -0.00000000000E+00 -0.00000000000E+00 -0.45593999997E+02  0.45594000000E+02  0.51100000000E-03 0.  1.
         23    2    1    2    0    0  0.00000000000E+00  0.35527136788E-14  0.00000000000E+00  0.91188000000E+02  0.91188000000E+02 0.  0.
    9900012    2    3    3    0    0  0.28249890371E+02 -0.22479061658E+02  0.72400009999E+01  0.54367053061E+02  0.39999929064E+02 0.  0.
         12    1    3    3    0    0 -0.28249890371E+02  0.22479061658E+02 -0.72400009999E+01  0.36820946939E+02  0.00000000000E+00 0. -1.
         11    1    4    4    0    0  0.35773850350E+02 -0.22084561874E+02  0.44416126942E+00  0.42043947502E+02  0.51100000000E-03 0. -1.
        -11    1    4    4    0    0 -0.31540630931E+01 -0.24212852296E+01 -0.20675549164E-01  0.39763254265E+01  0.51100000000E-03 0.  1.
        -12    1    4    4    0    0 -0.43698968856E+01  0.20267854458E+01  0.68165152796E+01  0.83467801332E+01  0.00000000000E+00 0.  1.
</event>
<event>
 8    1  0.3186330E-007  0.9118800E+02  0.7816164E-02  0.1184000E+00
        -11   -1    0    0    0    0  0.00000000000E+00  0.00000000000E+00  0.45593999997E+02  0.45594000000E+02  0.51100000000E-03 0.  1.
         11   -1    0    0    0    0 -0.00000000000E+00 -0.00000000000E+00 -0.45593999997E+02  0.45594000000E+02  0.51100000000E-03 0. -1.
         23    2    1    2    0    0  0.71054273576E-14  0.99920072216E-15  0.00000000000E+00  0.91188000000E+02  0.91188000000E+02 0.  0.
    9900012    2    3    3    0    0  0.36674328491E+02  0.88467509916E+00  0.31611067839E+01  0.54367060083E+02  0.39999945071E+02 0.  0.
         12    1    3    3    0    0 -0.36674328491E+02 -0.88467509916E+00 -0.31611067839E+01  0.36820939917E+02  0.00000000000E+00 0. -1.
         11    1    4    4    0    0  0.12322226390E+02  0.27729696031E+01 -0.15445923990E+02  0.19952523444E+02  0.51100000000E-03 0.  1.
        -11    1    4    4    0    0  0.61878948789E+01  0.51447288178E+01  0.10709940712E+02  0.13396309490E+02  0.51100000000E-03 0. -1.
        -12    1    4    4    0    0  0.18164207222E+02 -0.70330233217E+01  0.78970900619E+01  0.21018227149E+02  0.00000000000E+00 0.  1.
</event>
<event>
 8    1  0.3186330E-007  0.9118800E+02  0.7816164E-02  0.1184000E+00
        -11   -1    0    0    0    0  0.00000000000E+00  0.00000000000E+00  0.45593999997E+02  0.45594000000E+02  0.51100000000E-03 0.  1.
         11   -1    0    0    0    0 -0.00000000000E+00 -0.00000000000E+00 -0.45593999997E+02  0.45594000000E+02  0.51100000000E-03 0. -1.
         23    2    1    2    0    0  0.00000000000E+00  0.00000000000E+00  0.35527136788E-14  0.91188000000E+02  0.91188000000E+02 0.  0.
    9900012    2    3    3    0    0  0.10681609950E+02 -0.21676348006E+02 -0.27781593799E+02  0.54367111797E+02  0.40000062964E+02 0.  0.
        -12    1    3    3    0    0 -0.10681609950E+02  0.21676348006E+02  0.27781593799E+02  0.36820888203E+02  0.00000000000E+00 0.  1.
         11    1    4    4    0    0 -0.39751226636E+01 -0.11221235166E+02  0.57199988291E+01  0.13207426157E+02  0.51100000000E-03 0.  1.
        -11    1    4    4    0    0  0.17578589401E+02 -0.90660678666E+01 -0.23872106285E+02  0.31001255630E+02  0.51100000000E-03 0. -1.
         12    1    4    4    0    0 -0.29218567881E+01 -0.13890449739E+01 -0.96294863430E+01  0.10158430010E+02  0.00000000000E+00 0. -1.
</event>
<event>
 8    1  0.3186330E-007  0.9118800E+02  0.7816164E-02  0.1184000E+00
        -11   -1    0    0    0    0  0.00000000000E+00  0.00000000000E+00  0.45593999997E+02  0.45594000000E+02  0.51100000000E-03 0. -1.
         11   -1    0    0    0    0 -0.00000000000E+00 -0.00000000000E+00 -0.45593999997E+02  0.45594000000E+02  0.51100000000E-03 0.  1.
         23    2    1    2    0    0 -0.35527136788E-14  0.35527136788E-14  0.00000000000E+00  0.91188000000E+02  0.91188000000E+02 0.  0.
    9900012    2    3    3    0    0 -0.18940877367E+02 -0.19259171994E+02 -0.25022112104E+02  0.54367100561E+02  0.40000037349E+02 0.  0.
         12    1    3    3    0    0  0.18940877367E+02  0.19259171994E+02  0.25022112104E+02  0.36820899439E+02  0.00000000000E+00 0. -1.
         11    1    4    4    0    0 -0.17417657201E+02 -0.23161914387E+01  0.48373437998E+01  0.18224692603E+02  0.51100000000E-03 0. -1.
        -11    1    4    4    0    0  0.79379605215E+00  0.18686086656E+00  0.67235120783E+00  0.10569226857E+01  0.51100000000E-03 0.  1.
        -12    1    4    4    0    0 -0.23170162175E+01 -0.17129841422E+02 -0.30531807112E+02  0.35085485273E+02  0.00000000000E+00 0.  1.
</event>
<event>
 8    1  0.3186330E-007  0.9118800E+02  0.7816164E-02  0.1184000E+00
        -11   -1    0    0    0    0  0.00000000000E+00  0.00000000000E+00  0.45593999997E+02  0.45594000000E+02  0.51100000000E-03 0. -1.
         11   -1    0    0    0    0 -0.00000000000E+00 -0.00000000000E+00 -0.45593999997E+02  0.45594000000E+02  0.51100000000E-03 0.  1.
         23    2    1    2    0    0  0.88817841970E-15  0.00000000000E+00  0.00000000000E+00  0.91188000000E+02  0.91188000000E+02 0.  0.
    9900012    2    3    3    0    0  0.68883980872E+01  0.13523316184E+02  0.33547724449E+02  0.54367083057E+02  0.39999997444E+02 0.  0.
        -12    1    3    3    0    0 -0.68883980872E+01 -0.13523316184E+02 -0.33547724449E+02  0.36820916943E+02  0.00000000000E+00 0.  1.
         11    1    4    4    0    0 -0.37288113063E+01  0.11565851672E+02 -0.44285745929E+01  0.12933879227E+02  0.51100000000E-03 0. -1.
        -11    1    4    4    0    0  0.12857854804E+02 -0.83777966280E+00  0.27696328806E+02  0.30546897298E+02  0.51100000000E-03 0.  1.
         12    1    4    4    0    0 -0.22406454109E+01  0.27952441748E+01  0.10279970236E+02  0.10886306532E+02  0.00000000000E+00 0. -1.
</event>
<event>
 8    1  0.3186330E-007  0.9118800E+02  0.7816164E-02  0.1184000E+00
        -11   -1    0    0    0    0  0.00000000000E+00  0.00000000000E+00  0.45593999997E+02  0.45594000000E+02  0.51100000000E-03 0.  1.
         11   -1    0    0    0    0 -0.00000000000E+00 -0.00000000000E+00 -0.45593999997E+02  0.45594000000E+02  0.51100000000E-03 0. -1.
         23    2    1    2    0    0  0.00000000000E+00  0.00000000000E+00  0.00000000000E+00  0.91188000000E+02  0.91188000000E+02 0.  0.
    9900012    2    3    3    0    0 -0.11510724267E+02  0.95747980856E+01 -0.33639392370E+02  0.54367051471E+02  0.39999925439E+02 0.  0.
        -12    1    3    3    0    0  0.11510724267E+02 -0.95747980856E+01  0.33639392370E+02  0.36820948529E+02  0.00000000000E+00 0.  1.
         11    1    4    4    0    0  0.19624534544E+01 -0.11091968604E+02 -0.21988251637E+01  0.11476838564E+02  0.51100000000E-03 0. -1.
        -11    1    4    4    0    0 -0.56215175264E+01 -0.10962969849E+01 -0.39391658283E+01  0.69512843463E+01  0.51100000000E-03 0.  1.
         12    1    4    4    0    0 -0.78516601955E+01  0.21763063674E+02 -0.27501401378E+02  0.35938928560E+02  0.00000000000E+00 0. -1.
</event>
<event>
 8    1  0.3186330E-007  0.9118800E+02  0.7816164E-02  0.1184000E+00
        -11   -1    0    0    0    0  0.00000000000E+00  0.00000000000E+00  0.45593999997E+02  0.45594000000E+02  0.51100000000E-03 0. -1.
         11   -1    0    0    0    0 -0.00000000000E+00 -0.00000000000E+00 -0.45593999997E+02  0.45594000000E+02  0.51100000000E-03 0.  1.
         23    2    1    2    0    0  0.00000000000E+00  0.71054273576E-14  0.00000000000E+00  0.91188000000E+02  0.91188000000E+02 0.  0.
    9900012    2    3    3    0    0 -0.15215449876E+02 -0.31571734419E+02  0.11291400731E+02  0.54367081222E+02  0.39999993263E+02 0.  0.
         12    1    3    3    0    0  0.15215449876E+02  0.31571734419E+02 -0.11291400731E+02  0.36820918778E+02  0.00000000000E+00 0. -1.
         11    1    4    4    0    0  0.24345181501E+01 -0.18881727735E+02  0.21700204601E+02  0.28867722475E+02  0.51100000000E-03 0. -1.
        -11    1    4    4    0    0 -0.32553809210E+01 -0.54919800929E+01 -0.61197430286E+01  0.88436760048E+01  0.51100000000E-03 0.  1.
        -12    1    4    4    0    0 -0.14394587105E+02 -0.71980265918E+01 -0.42890608418E+01  0.16655682743E+02  0.00000000000E+00 0.  1.
</event>
<event>
 8    1  0.3186330E-007  0.9118800E+02  0.7816164E-02  0.1184000E+00
        -11   -1    0    0    0    0  0.00000000000E+00  0.00000000000E+00  0.45593999997E+02  0.45594000000E+02  0.51100000000E-03 0. -1.
         11   -1    0    0    0    0 -0.00000000000E+00 -0.00000000000E+00 -0.45593999997E+02  0.45594000000E+02  0.51100000000E-03 0.  1.
         23    2    1    2    0    0  0.00000000000E+00  0.35527136788E-14  0.00000000000E+00  0.91188000000E+02  0.91188000000E+02 0.  0.
    9900012    2    3    3    0    0 -0.10011422740E+02  0.31469592150E+02 -0.16285446607E+02  0.54367087647E+02  0.40000007908E+02 0.  0.
        -12    1    3    3    0    0  0.10011422740E+02 -0.31469592150E+02  0.16285446607E+02  0.36820912353E+02  0.00000000000E+00 0.  1.
         11    1    4    4    0    0 -0.48552551388E+01  0.18573779001E+01 -0.51106123202E+01  0.72898363271E+01  0.51100000000E-03 0.  1.
        -11    1    4    4    0    0  0.34860732227E+01  0.54922101110E+01 -0.19164847260E+02  0.20238785763E+02  0.51100000000E-03 0. -1.
         12    1    4    4    0    0 -0.86422408238E+01  0.24120004139E+02  0.79900129732E+01  0.26838465556E+02  0.00000000000E+00 0. -1.
</event>
<event>
 8    1  0.3186330E-007  0.9118800E+02  0.7816164E-02  0.1184000E+00
        -11   -1    0    0    0    0  0.00000000000E+00  0.00000000000E+00  0.45593999997E+02  0.45594000000E+02  0.51100000000E-03 0.  1.
         11   -1    0    0    0    0 -0.00000000000E+00 -0.00000000000E+00 -0.45593999997E+02  0.45594000000E+02  0.51100000000E-03 0. -1.
         23    2    1    2    0    0  0.44408920985E-15 -0.17763568394E-14  0.00000000000E+00  0.91188000000E+02  0.91188000000E+02 0.  0.
    9900012    2    3    3    0    0 -0.11584911740E+01 -0.14120053070E+02  0.33986205387E+02  0.54367079899E+02  0.39999990245E+02 0.  0.
         12    1    3    3    0    0  0.11584911740E+01  0.14120053070E+02 -0.33986205387E+02  0.36820920101E+02  0.00000000000E+00 0. -1.
         11    1    4    4    0    0 -0.81842124140E+00  0.98619316094E+01  0.19221370846E+02  0.21619172182E+02  0.51100000000E-03 0. -1.
        -11    1    4    4    0    0 -0.27086039397E+01 -0.17349638463E+02  0.13683207070E+01  0.17613029038E+02  0.51100000000E-03 0.  1.
        -12    1    4    4    0    0  0.23685340071E+01 -0.66323462173E+01  0.13396513834E+02  0.15134878678E+02  0.00000000000E+00 0.  1.
</event>
<event>
 8    1  0.3186330E-007  0.9118800E+02  0.7816164E-02  0.1184000E+00
        -11   -1    0    0    0    0  0.00000000000E+00  0.00000000000E+00  0.45593999997E+02  0.45594000000E+02  0.51100000000E-03 0.  1.
         11   -1    0    0    0    0 -0.00000000000E+00 -0.00000000000E+00 -0.45593999997E+02  0.45594000000E+02  0.51100000000E-03 0. -1.
         23    2    1    2    0    0  0.17763568394E-14  0.00000000000E+00  0.35527136788E-14  0.91188000000E+02  0.91188000000E+02 0.  0.
    9900012    2    3    3    0    0  0.13291043613E+02 -0.17276528487E+02 -0.29675764745E+02  0.54367064514E+02  0.39999955173E+02 0.  0.
        -12    1    3    3    0    0 -0.13291043613E+02  0.17276528487E+02  0.29675764745E+02  0.36820935486E+02  0.00000000000E+00 0.  1.
         11    1    4    4    0    0 -0.66405327852E+01 -0.98346158569E+01 -0.19789669157E+02  0.23074820700E+02  0.51100000000E-03 0. -1.
        -11    1    4    4    0    0  0.91799815509E+00 -0.44242915518E+00  0.56620258825E+01  0.57529993504E+01  0.51100000000E-03 0.  1.
         12    1    4    4    0    0  0.19013578244E+02 -0.69994834745E+01 -0.15548121470E+02  0.25539244464E+02  0.00000000000E+00 0. -1.
</event>
<event>
 8    1  0.3186330E-007  0.9118800E+02  0.7816164E-02  0.1184000E+00
        -11   -1    0    0    0    0  0.00000000000E+00  0.00000000000E+00  0.45593999997E+02  0.45594000000E+02  0.51100000000E-03 0.  1.
         11   -1    0    0    0    0 -0.00000000000E+00 -0.00000000000E+00 -0.45593999997E+02  0.45594000000E+02  0.51100000000E-03 0. -1.
         23    2    1    2    0    0  0.00000000000E+00  0.00000000000E+00  0.00000000000E+00  0.91188000000E+02  0.91188000000E+02 0.  0.
    9900012    2    3    3    0    0  0.25641097063E+02 -0.86150689359E+01  0.24981873273E+02  0.54367092033E+02  0.40000017907E+02 0.  0.
         12    1    3    3    0    0 -0.25641097063E+02  0.86150689359E+01 -0.24981873273E+02  0.36820907967E+02  0.00000000000E+00 0. -1.
         11    1    4    4    0    0  0.19288654303E+02  0.33598918544E+01  0.27332403150E+02  0.33621441377E+02  0.51100000000E-03 0.  1.
        -11    1    4    4    0    0 -0.67366939171E+00 -0.79795945596E+01 -0.76546979494E+01  0.11078003464E+02  0.51100000000E-03 0. -1.
         12    1    4    4    0    0  0.70261121514E+01 -0.39953662307E+01  0.53041680725E+01  0.96676471917E+01  0.00000000000E+00 0. -1.
</event>
<event>
 8    1  0.3186330E-007  0.9118800E+02  0.7816164E-02  0.1184000E+00
        -11   -1    0    0    0    0  0.00000000000E+00  0.00000000000E+00  0.45593999997E+02  0.45594000000E+02  0.51100000000E-03 0.  1.
         11   -1    0    0    0    0 -0.00000000000E+00 -0.00000000000E+00 -0.45593999997E+02  0.45594000000E+02  0.51100000000E-03 0. -1.
         23    2    1    2    0    0  0.17763568394E-14 -0.35527136788E-14  0.00000000000E+00  0.91188000000E+02  0.91188000000E+02 0.  0.
    9900012    2    3    3    0    0  0.10506529388E+02 -0.16705303942E+02 -0.31085788976E+02  0.54367073670E+02  0.39999976045E+02 0.  0.
        -12    1    3    3    0    0 -0.10506529388E+02  0.16705303942E+02  0.31085788976E+02  0.36820926330E+02  0.00000000000E+00 0.  1.
         11    1    4    4    0    0  0.76474248263E+01 -0.58997459688E-01  0.93122494285E+00  0.77041396229E+01  0.51100000000E-03 0. -1.
        -11    1    4    4    0    0 -0.31381617537E+01 -0.12856489328E+02  0.63493363952E+00  0.13249170465E+02  0.51100000000E-03 0.  1.
        -12    1    4    4    0    0  0.59972663157E+01 -0.37898171543E+01 -0.32651947558E+02  0.33413763581E+02  0.00000000000E+00 0.  1.
</event>
<event>
 8    1  0.3186330E-007  0.9118800E+02  0.7816164E-02  0.1184000E+00
        -11   -1    0    0    0    0  0.00000000000E+00  0.00000000000E+00  0.45593999997E+02  0.45594000000E+02  0.51100000000E-03 0.  1.
         11   -1    0    0    0    0 -0.00000000000E+00 -0.00000000000E+00 -0.45593999997E+02  0.45594000000E+02  0.51100000000E-03 0. -1.
         23    2    1    2    0    0  0.26645352591E-14  0.00000000000E+00  0.35527136788E-14  0.91188000000E+02  0.91188000000E+02 0.  0.
    9900012    2    3    3    0    0  0.54344552081E+01  0.21010189995E+02  0.29745895091E+02  0.54367086625E+02  0.40000005579E+02 0.  0.
         12    1    3    3    0    0 -0.54344552081E+01 -0.21010189995E+02 -0.29745895091E+02  0.36820913375E+02  0.00000000000E+00 0. -1.
         11    1    4    4    0    0 -0.49175850748E+01  0.89154085798E+01 -0.12241562974E+01  0.10255033497E+02  0.51100000000E-03 0. -1.
        -11    1    4    4    0    0 -0.39290370255E+01 -0.64818753058E+01  0.47378930311E+01  0.89386615364E+01  0.51100000000E-03 0.  1.
        -12    1    4    4    0    0  0.14281077308E+02  0.18576656721E+02  0.26232158357E+02  0.35173391592E+02  0.00000000000E+00 0.  1.
</event>
<event>
 8    1  0.3186330E-007  0.9118800E+02  0.7816164E-02  0.1184000E+00
        -11   -1    0    0    0    0  0.00000000000E+00  0.00000000000E+00  0.45593999997E+02  0.45594000000E+02  0.51100000000E-03 0. -1.
         11   -1    0    0    0    0 -0.00000000000E+00 -0.00000000000E+00 -0.45593999997E+02  0.45594000000E+02  0.51100000000E-03 0.  1.
         23    2    1    2    0    0  0.71054273576E-14 -0.88817841970E-15  0.44408920985E-15  0.91188000000E+02  0.91188000000E+02 0.  0.
    9900012    2    3    3    0    0 -0.36411650568E+02  0.40448668057E+01 -0.36891425651E+01  0.54367095375E+02  0.40000025526E+02 0.  0.
        -12    1    3    3    0    0  0.36411650568E+02 -0.40448668057E+01  0.36891425651E+01  0.36820904625E+02  0.00000000000E+00 0.  1.
         11    1    4    4    0    0 -0.36981093172E+02 -0.75526251539E+01 -0.34019722573E+01  0.37897451291E+02  0.51100000000E-03 0. -1.
        -11    1    4    4    0    0 -0.31386215001E+01  0.10845576930E+02 -0.31537865291E+01  0.11722792056E+02  0.51100000000E-03 0.  1.
         12    1    4    4    0    0  0.37080641037E+01  0.75191502989E+00  0.28666162213E+01  0.47468520273E+01  0.00000000000E+00 0. -1.
</event>
<event>
 8    1  0.3186330E-007  0.9118800E+02  0.7816164E-02  0.1184000E+00
        -11   -1    0    0    0    0  0.00000000000E+00  0.00000000000E+00  0.45593999997E+02  0.45594000000E+02  0.51100000000E-03 0.  1.
         11   -1    0    0    0    0 -0.00000000000E+00 -0.00000000000E+00 -0.45593999997E+02  0.45594000000E+02  0.51100000000E-03 0. -1.
         23    2    1    2    0    0  0.71054273576E-14 -0.71054273576E-14  0.00000000000E+00  0.91188000000E+02  0.91188000000E+02 0.  0.
    9900012    2    3    3    0    0 -0.23538767372E+02  0.28311963177E+02 -0.37315012973E+00  0.54367081091E+02  0.39999992962E+02 0.  0.
         12    1    3    3    0    0  0.23538767372E+02 -0.28311963177E+02  0.37315012973E+00  0.36820918909E+02  0.00000000000E+00 0. -1.
         11    1    4    4    0    0  0.46181005018E+00 -0.35507515252E+00 -0.10223999088E+02  0.10240581258E+02  0.51100000000E-03 0. -1.
        -11    1    4    4    0    0 -0.25839639865E+02  0.28522251215E+02  0.12876027550E+02  0.40583221761E+02  0.51100000000E-03 0.  1.
        -12    1    4    4    0    0  0.18390624437E+01  0.14478711482E+00 -0.30251785919E+01  0.35432780717E+01  0.00000000000E+00 0.  1.
</event>
<event>
 8    1  0.3186330E-007  0.9118800E+02  0.7816164E-02  0.1184000E+00
        -11   -1    0    0    0    0  0.00000000000E+00  0.00000000000E+00  0.45593999997E+02  0.45594000000E+02  0.51100000000E-03 0.  1.
         11   -1    0    0    0    0 -0.00000000000E+00 -0.00000000000E+00 -0.45593999997E+02  0.45594000000E+02  0.51100000000E-03 0. -1.
         23    2    1    2    0    0 -0.17763568394E-14  0.00000000000E+00  0.44408920985E-14  0.91188000000E+02  0.91188000000E+02 0.  0.
    9900012    2    3    3    0    0 -0.15318242357E+02  0.33179971044E+02 -0.44967300244E+01  0.54367087351E+02  0.40000007233E+02 0.  0.
        -12    1    3    3    0    0  0.15318242357E+02 -0.33179971044E+02  0.44967300244E+01  0.36820912649E+02  0.00000000000E+00 0.  1.
         11    1    4    4    0    0 -0.23669845536E+01  0.18048561474E+02 -0.17768315485E+02  0.25437496390E+02  0.51100000000E-03 0. -1.
        -11    1    4    4    0    0 -0.37619287716E+01  0.13441474446E+02  0.17066586096E+01  0.14061935401E+02  0.51100000000E-03 0.  1.
        -12    1    4    4    0    0 -0.91893290315E+01  0.16899351251E+01  0.11564926851E+02  0.14867655560E+02  0.00000000000E+00 0.  1.
</event>
<event>
 8    1  0.3186330E-007  0.9118800E+02  0.7816164E-02  0.1184000E+00
        -11   -1    0    0    0    0  0.00000000000E+00  0.00000000000E+00  0.45593999997E+02  0.45594000000E+02  0.51100000000E-03 0. -1.
         11   -1    0    0    0    0 -0.00000000000E+00 -0.00000000000E+00 -0.45593999997E+02  0.45594000000E+02  0.51100000000E-03 0.  1.
         23    2    1    2    0    0  0.00000000000E+00 -0.17763568394E-14  0.00000000000E+00  0.91188000000E+02  0.91188000000E+02 0.  0.
    9900012    2    3    3    0    0 -0.29839791464E+02 -0.13224488951E+02  0.17043470752E+02  0.54367079888E+02  0.39999990221E+02 0.  0.
        -12    1    3    3    0    0  0.29839791464E+02  0.13224488951E+02 -0.17043470752E+02  0.36820920112E+02  0.00000000000E+00 0.  1.
         11    1    4    4    0    0 -0.28392279766E+00 -0.12370774630E+02  0.15165168216E+01  0.12466615444E+02  0.51100000000E-03 0. -1.
        -11    1    4    4    0    0 -0.24684291101E+02 -0.82517378101E+00 -0.95206885557E+00  0.24716423170E+02  0.51100000000E-03 0.  1.
         12    1    4    4    0    0 -0.48715775648E+01 -0.28540539990E-01  0.16479022786E+02  0.17184041274E+02  0.00000000000E+00 0. -1.
</event>
<event>
 8    1  0.3186330E-007  0.9118800E+02  0.7816164E-02  0.1184000E+00
        -11   -1    0    0    0    0  0.00000000000E+00  0.00000000000E+00  0.45593999997E+02  0.45594000000E+02  0.51100000000E-03 0.  1.
         11   -1    0    0    0    0 -0.00000000000E+00 -0.00000000000E+00 -0.45593999997E+02  0.45594000000E+02  0.51100000000E-03 0. -1.
         23    2    1    2    0    0  0.00000000000E+00  0.88817841970E-15 -0.35527136788E-14  0.91188000000E+02  0.91188000000E+02 0.  0.
    9900012    2    3    3    0    0 -0.33819613139E+02  0.52597370787E+01 -0.13577470835E+02  0.54367098581E+02  0.40000032836E+02 0.  0.
        -12    1    3    3    0    0  0.33819613139E+02 -0.52597370787E+01  0.13577470835E+02  0.36820901419E+02  0.00000000000E+00 0.  1.
         11    1    4    4    0    0 -0.20372182389E+01  0.53264089355E+00 -0.17072981671E+02  0.17202344837E+02  0.51100000000E-03 0. -1.
        -11    1    4    4    0    0 -0.13891330015E+02 -0.23589447852E+01 -0.64580465128E+01  0.15499678549E+02  0.51100000000E-03 0.  1.
         12    1    4    4    0    0 -0.17891064885E+02  0.70860409704E+01  0.99535573488E+01  0.21665075196E+02  0.00000000000E+00 0. -1.
</event>
<event>
 8    1  0.3186330E-007  0.9118800E+02  0.7816164E-02  0.1184000E+00
        -11   -1    0    0    0    0  0.00000000000E+00  0.00000000000E+00  0.45593999997E+02  0.45594000000E+02  0.51100000000E-03 0.  1.
         11   -1    0    0    0    0 -0.00000000000E+00 -0.00000000000E+00 -0.45593999997E+02  0.45594000000E+02  0.51100000000E-03 0. -1.
         23    2    1    2    0    0  0.00000000000E+00  0.44408920985E-15  0.00000000000E+00  0.91188000000E+02  0.91188000000E+02 0.  0.
    9900012    2    3    3    0    0  0.33595102209E+02 -0.36179303342E+01 -0.14630771408E+02  0.54367084961E+02  0.40000001785E+02 0.  0.
        -12    1    3    3    0    0 -0.33595102209E+02  0.36179303342E+01  0.14630771408E+02  0.36820915039E+02  0.00000000000E+00 0.  1.
         11    1    4    4    0    0  0.55595576334E+00 -0.95174794375E+01  0.44694766244E+01  0.10529374303E+02  0.51100000000E-03 0. -1.
        -11    1    4    4    0    0  0.26268208240E+01 -0.85041070999E+00 -0.11424795560E+02  0.11753694733E+02  0.51100000000E-03 0.  1.
        -12    1    4    4    0    0  0.30412325622E+02  0.67499598133E+01 -0.76754524717E+01  0.32084015925E+02  0.00000000000E+00 0.  1.
</event>
<event>
 8    1  0.3186330E-007  0.9118800E+02  0.7816164E-02  0.1184000E+00
        -11   -1    0    0    0    0  0.00000000000E+00  0.00000000000E+00  0.45593999997E+02  0.45594000000E+02  0.51100000000E-03 0.  1.
         11   -1    0    0    0    0 -0.00000000000E+00 -0.00000000000E+00 -0.45593999997E+02  0.45594000000E+02  0.51100000000E-03 0. -1.
         23    2    1    2    0    0  0.17763568394E-14  0.00000000000E+00  0.00000000000E+00  0.91188000000E+02  0.91188000000E+02 0.  0.
    9900012    2    3    3    0    0 -0.13560206473E+02  0.14642269356E+01 -0.34201701098E+02  0.54367088576E+02  0.40000010027E+02 0.  0.
        -12    1    3    3    0    0  0.13560206473E+02 -0.14642269356E+01  0.34201701098E+02  0.36820911424E+02  0.00000000000E+00 0.  1.
         11    1    4    4    0    0 -0.26583245951E+01 -0.25470191340E+01 -0.60921903583E+01  0.71182005974E+01  0.51100000000E-03 0. -1.
        -11    1    4    4    0    0 -0.26016121830E+01  0.36004496620E+01  0.85629782333E+01  0.96465652024E+01  0.51100000000E-03 0.  1.
        -12    1    4    4    0    0 -0.83002696953E+01  0.41079640756E+00 -0.36672488973E+02  0.37602322776E+02  0.00000000000E+00 0.  1.
</event>
<event>
 8    1  0.3186330E-007  0.9118800E+02  0.7816164E-02  0.1184000E+00
        -11   -1    0    0    0    0  0.00000000000E+00  0.00000000000E+00  0.45593999997E+02  0.45594000000E+02  0.51100000000E-03 0. -1.
         11   -1    0    0    0    0 -0.00000000000E+00 -0.00000000000E+00 -0.45593999997E+02  0.45594000000E+02  0.51100000000E-03 0.  1.
         23    2    1    2    0    0 -0.35527136788E-14 -0.17763568394E-14 -0.35527136788E-14  0.91188000000E+02  0.91188000000E+02 0.  0.
    9900012    2    3    3    0    0  0.24954330778E+02 -0.77992439484E+01  0.25927485081E+02  0.54367064197E+02  0.39999954450E+02 0.  0.
        -12    1    3    3    0    0 -0.24954330778E+02  0.77992439484E+01 -0.25927485081E+02  0.36820935803E+02  0.00000000000E+00 0.  1.
         11    1    4    4    0    0  0.10860540039E+02 -0.12919712067E+02  0.29106835297E+02  0.33646369062E+02  0.51100000000E-03 0. -1.
        -11    1    4    4    0    0  0.32700490124E+00 -0.87474765745E+00 -0.54543965353E+01  0.55337652186E+01  0.51100000000E-03 0.  1.
         12    1    4    4    0    0  0.13766785838E+02  0.59952157759E+01  0.22750463201E+01  0.15186929916E+02  0.00000000000E+00 0. -1.
</event>
<event>
 8    1  0.3186330E-007  0.9118800E+02  0.7816164E-02  0.1184000E+00
        -11   -1    0    0    0    0  0.00000000000E+00  0.00000000000E+00  0.45593999997E+02  0.45594000000E+02  0.51100000000E-03 0. -1.
         11   -1    0    0    0    0 -0.00000000000E+00 -0.00000000000E+00 -0.45593999997E+02  0.45594000000E+02  0.51100000000E-03 0.  1.
         23    2    1    2    0    0  0.00000000000E+00  0.00000000000E+00 -0.88817841970E-15  0.91188000000E+02  0.91188000000E+02 0.  0.
    9900012    2    3    3    0    0  0.34837200394E+02 -0.11263963641E+02 -0.39080454229E+01  0.54367078947E+02  0.39999988075E+02 0.  0.
         12    1    3    3    0    0 -0.34837200394E+02  0.11263963641E+02  0.39080454229E+01  0.36820921053E+02  0.00000000000E+00 0. -1.
         11    1    4    4    0    0 -0.42889543622E+01 -0.40781664328E+01  0.85269849253E+01  0.10379597447E+02  0.51100000000E-03 0. -1.
        -11    1    4    4    0    0  0.16316158594E+02 -0.30532622494E+01 -0.12543769233E+02  0.20805902731E+02  0.51100000000E-03 0.  1.
         12    1    4    4    0    0  0.22809996162E+02 -0.41325349588E+01  0.10873888445E+00  0.23181578769E+02  0.00000000000E+00 0. -1.
</event>
<event>
 8    1  0.3186330E-007  0.9118800E+02  0.7816164E-02  0.1184000E+00
        -11   -1    0    0    0    0  0.00000000000E+00  0.00000000000E+00  0.45593999997E+02  0.45594000000E+02  0.51100000000E-03 0. -1.
         11   -1    0    0    0    0 -0.00000000000E+00 -0.00000000000E+00 -0.45593999997E+02  0.45594000000E+02  0.51100000000E-03 0.  1.
         23    2    1    2    0    0 -0.35527136788E-14  0.00000000000E+00  0.00000000000E+00  0.91188000000E+02  0.91188000000E+02 0.  0.
    9900012    2    3    3    0    0  0.20968451885E+02 -0.18108086792E+02 -0.24252866677E+02  0.54367077636E+02  0.39999985087E+02 0.  0.
         12    1    3    3    0    0 -0.20968451885E+02  0.18108086792E+02  0.24252866677E+02  0.36820922364E+02  0.00000000000E+00 0. -1.
         11    1    4    4    0    0  0.24833542113E+02 -0.14201583097E+02 -0.47497858688E+01  0.28999142097E+02  0.51100000000E-03 0. -1.
        -11    1    4    4    0    0  0.39255379146E+01  0.36284117891E+01 -0.56370314186E+01  0.77686127143E+01  0.51100000000E-03 0.  1.
         12    1    4    4    0    0 -0.77906281428E+01 -0.75349154845E+01 -0.13866049389E+02  0.17599322824E+02  0.00000000000E+00 0. -1.
</event>
<event>
 8    1  0.3186330E-007  0.9118800E+02  0.7816164E-02  0.1184000E+00
        -11   -1    0    0    0    0  0.00000000000E+00  0.00000000000E+00  0.45593999997E+02  0.45594000000E+02  0.51100000000E-03 0.  1.
         11   -1    0    0    0    0 -0.00000000000E+00 -0.00000000000E+00 -0.45593999997E+02  0.45594000000E+02  0.51100000000E-03 0. -1.
         23    2    1    2    0    0  0.35527136788E-14  0.17763568394E-14  0.00000000000E+00  0.91188000000E+02  0.91188000000E+02 0.  0.
    9900012    2    3    3    0    0 -0.31225950368E+02 -0.48753299456E+01 -0.18893170096E+02  0.54367072598E+02  0.39999973602E+02 0.  0.
        -12    1    3    3    0    0  0.31225950368E+02  0.48753299456E+01  0.18893170096E+02  0.36820927402E+02  0.00000000000E+00 0.  1.
         11    1    4    4    0    0  0.12205079533E+01 -0.86780143242E+01 -0.14147161199E+02  0.16641506619E+02  0.51100000000E-03 0. -1.
        -11    1    4    4    0    0 -0.49924095015E-02  0.43733380628E+01  0.16139319103E+01  0.46616399698E+01  0.51100000000E-03 0.  1.
        -12    1    4    4    0    0 -0.32441465911E+02 -0.57065368419E+00 -0.63599408075E+01  0.33063926010E+02  0.00000000000E+00 0.  1.
</event>
<event>
 8    1  0.3186330E-007  0.9118800E+02  0.7816164E-02  0.1184000E+00
        -11   -1    0    0    0    0  0.00000000000E+00  0.00000000000E+00  0.45593999997E+02  0.45594000000E+02  0.51100000000E-03 0.  1.
         11   -1    0    0    0    0 -0.00000000000E+00 -0.00000000000E+00 -0.45593999997E+02  0.45594000000E+02  0.51100000000E-03 0. -1.
         23    2    1    2    0    0  0.00000000000E+00  0.00000000000E+00  0.35527136788E-14  0.91188000000E+02  0.91188000000E+02 0.  0.
    9900012    2    3    3    0    0  0.31902582908E+01  0.20105252753E+02  0.30681939364E+02  0.54367077424E+02  0.39999984603E+02 0.  0.
         12    1    3    3    0    0 -0.31902582908E+01 -0.20105252753E+02 -0.30681939364E+02  0.36820922576E+02  0.00000000000E+00 0. -1.
         11    1    4    4    0    0  0.10263437376E+02 -0.78739645825E+01  0.15957654657E+02  0.20542254195E+02  0.51100000000E-03 0. -1.
        -11    1    4    4    0    0 -0.90882112573E+01  0.23059539438E+02  0.10050160820E+02  0.26745909514E+02  0.51100000000E-03 0.  1.
         12    1    4    4    0    0  0.20150321717E+01  0.49196778971E+01  0.46741238872E+01  0.70789137145E+01  0.00000000000E+00 0. -1.
</event>
<event>
 8    1  0.3186330E-007  0.9118800E+02  0.7816164E-02  0.1184000E+00
        -11   -1    0    0    0    0  0.00000000000E+00  0.00000000000E+00  0.45593999997E+02  0.45594000000E+02  0.51100000000E-03 0. -1.
         11   -1    0    0    0    0 -0.00000000000E+00 -0.00000000000E+00 -0.45593999997E+02  0.45594000000E+02  0.51100000000E-03 0.  1.
         23    2    1    2    0    0  0.00000000000E+00  0.00000000000E+00  0.00000000000E+00  0.91188000000E+02  0.91188000000E+02 0.  0.
    9900012    2    3    3    0    0  0.25573530591E+02  0.14655690745E+02  0.22067624661E+02  0.54367152695E+02  0.40000156198E+02 0.  0.
        -12    1    3    3    0    0 -0.25573530591E+02 -0.14655690745E+02 -0.22067624661E+02  0.36820847305E+02  0.00000000000E+00 0.  1.
         11    1    4    4    0    0  0.15611205384E+02  0.20425183224E+02  0.17109542738E+01  0.25764805609E+02  0.51100000000E-03 0. -1.
        -11    1    4    4    0    0  0.11940276456E+02 -0.69442632289E+01  0.21857033421E+02  0.25855809867E+02  0.51100000000E-03 0.  1.
        -12    1    4    4    0    0 -0.19779512489E+01  0.11747707498E+01 -0.15003630347E+01  0.27465372187E+01  0.00000000000E+00 0.  1.
</event>
<event>
 8    1  0.3186330E-007  0.9118800E+02  0.7816164E-02  0.1184000E+00
        -11   -1    0    0    0    0  0.00000000000E+00  0.00000000000E+00  0.45593999997E+02  0.45594000000E+02  0.51100000000E-03 0. -1.
         11   -1    0    0    0    0 -0.00000000000E+00 -0.00000000000E+00 -0.45593999997E+02  0.45594000000E+02  0.51100000000E-03 0.  1.
         23    2    1    2    0    0  0.17763568394E-14  0.00000000000E+00 -0.88817841970E-15  0.91188000000E+02  0.91188000000E+02 0.  0.
    9900012    2    3    3    0    0 -0.13371739462E+02  0.33382531984E+02 -0.79105730017E+01  0.54367163193E+02  0.40000180132E+02 0.  0.
         12    1    3    3    0    0  0.13371739462E+02 -0.33382531984E+02  0.79105730017E+01  0.36820836807E+02  0.00000000000E+00 0. -1.
         11    1    4    4    0    0  0.40116797382E+01 -0.41142685574E+01 -0.82624863319E+01  0.10064266527E+02  0.51100000000E-03 0. -1.
        -11    1    4    4    0    0  0.23658498765E+01  0.86300490267E+01  0.24070178459E+01  0.92665380274E+01  0.51100000000E-03 0.  1.
        -12    1    4    4    0    0 -0.19749269077E+02  0.28866751515E+02 -0.20551045157E+01  0.35036358639E+02  0.00000000000E+00 0.  1.
</event>
<event>
 8    1  0.3186330E-007  0.9118800E+02  0.7816164E-02  0.1184000E+00
        -11   -1    0    0    0    0  0.00000000000E+00  0.00000000000E+00  0.45593999997E+02  0.45594000000E+02  0.51100000000E-03 0.  1.
         11   -1    0    0    0    0 -0.00000000000E+00 -0.00000000000E+00 -0.45593999997E+02  0.45594000000E+02  0.51100000000E-03 0. -1.
         23    2    1    2    0    0 -0.88817841970E-15  0.00000000000E+00  0.00000000000E+00  0.91188000000E+02  0.91188000000E+02 0.  0.
    9900012    2    3    3    0    0 -0.74223355204E+01  0.35811130717E+02  0.42717397486E+01  0.54367137595E+02  0.40000121774E+02 0.  0.
        -12    1    3    3    0    0  0.74223355204E+01 -0.35811130717E+02 -0.42717397486E+01  0.36820862405E+02  0.00000000000E+00 0.  1.
         11    1    4    4    0    0 -0.86410843775E+01  0.91905646343E+01 -0.10489969566E+02  0.16406531604E+02  0.51100000000E-03 0. -1.
        -11    1    4    4    0    0  0.83611786913E+01  0.12763195712E+02  0.16261341153E+02  0.22298871950E+02  0.51100000000E-03 0.  1.
         12    1    4    4    0    0 -0.71424298341E+01  0.13857370370E+02 -0.14996318380E+01  0.15661734041E+02  0.00000000000E+00 0. -1.
</event>
<event>
 8    1  0.3186330E-007  0.9118800E+02  0.7816164E-02  0.1184000E+00
        -11   -1    0    0    0    0  0.00000000000E+00  0.00000000000E+00  0.45593999997E+02  0.45594000000E+02  0.51100000000E-03 0.  1.
         11   -1    0    0    0    0 -0.00000000000E+00 -0.00000000000E+00 -0.45593999997E+02  0.45594000000E+02  0.51100000000E-03 0. -1.
         23    2    1    2    0    0 -0.35527136788E-14 -0.17763568394E-14  0.00000000000E+00  0.91188000000E+02  0.91188000000E+02 0.  0.
    9900012    2    3    3    0    0 -0.29758173497E+02 -0.12191906767E+02 -0.17932848874E+02  0.54367101732E+02  0.40000040019E+02 0.  0.
        -12    1    3    3    0    0  0.29758173497E+02  0.12191906767E+02  0.17932848874E+02  0.36820898268E+02  0.00000000000E+00 0.  1.
         11    1    4    4    0    0 -0.32992512777E+02  0.70084109867E-01 -0.47364403321E+01  0.33330836749E+02  0.51100000000E-03 0.  1.
        -11    1    4    4    0    0  0.43452997900E+01 -0.58117876089E+01 -0.12500625293E+02  0.14454208330E+02  0.51100000000E-03 0. -1.
        -12    1    4    4    0    0 -0.11109605106E+01 -0.64502032683E+01 -0.69578324933E+00  0.65820566534E+01  0.00000000000E+00 0.  1.
</event>
<event>
 8    1  0.3186330E-007  0.9118800E+02  0.7816164E-02  0.1184000E+00
        -11   -1    0    0    0    0  0.00000000000E+00  0.00000000000E+00  0.45593999997E+02  0.45594000000E+02  0.51100000000E-03 0.  1.
         11   -1    0    0    0    0 -0.00000000000E+00 -0.00000000000E+00 -0.45593999997E+02  0.45594000000E+02  0.51100000000E-03 0. -1.
         23    2    1    2    0    0  0.00000000000E+00  0.17763568394E-14 -0.35527136788E-14  0.91188000000E+02  0.91188000000E+02 0.  0.
    9900012    2    3    3    0    0  0.32137609243E+02  0.88378505261E+01 -0.15647582499E+02  0.54367077037E+02  0.39999983722E+02 0.  0.
        -12    1    3    3    0    0 -0.32137609243E+02 -0.88378505261E+01  0.15647582499E+02  0.36820922963E+02  0.00000000000E+00 0.  1.
         11    1    4    4    0    0  0.32584281921E+02  0.13596112966E+02 -0.54514619567E+01  0.35725455264E+02  0.51100000000E-03 0. -1.
        -11    1    4    4    0    0  0.16059044732E+01 -0.14748834879E+01 -0.13424355929E+02  0.13600277308E+02  0.51100000000E-03 0.  1.
         12    1    4    4    0    0 -0.20525771511E+01 -0.32833789521E+01  0.32282353870E+01  0.50413444653E+01  0.00000000000E+00 0. -1.
</event>
<event>
 8    1  0.3186330E-007  0.9118800E+02  0.7816164E-02  0.1184000E+00
        -11   -1    0    0    0    0  0.00000000000E+00  0.00000000000E+00  0.45593999997E+02  0.45594000000E+02  0.51100000000E-03 0.  1.
         11   -1    0    0    0    0 -0.00000000000E+00 -0.00000000000E+00 -0.45593999997E+02  0.45594000000E+02  0.51100000000E-03 0. -1.
         23    2    1    2    0    0 -0.35527136788E-14 -0.35527136788E-14 -0.35527136788E-14  0.91188000000E+02  0.91188000000E+02 0.  0.
    9900012    2    3    3    0    0 -0.26244394579E+02 -0.20250230726E+02  0.16029350233E+02  0.54367079857E+02  0.39999990150E+02 0.  0.
         12    1    3    3    0    0  0.26244394579E+02  0.20250230726E+02 -0.16029350233E+02  0.36820920143E+02  0.00000000000E+00 0. -1.
         11    1    4    4    0    0 -0.94071285555E+01  0.21292509679E+01 -0.52372635618E+01  0.10975277091E+02  0.51100000000E-03 0. -1.
        -11    1    4    4    0    0 -0.75271644950E+01 -0.21721887602E+02  0.34066167920E+01  0.23240130046E+02  0.51100000000E-03 0.  1.
         12    1    4    4    0    0 -0.93101015287E+01 -0.65759409159E+00  0.17859997003E+02  0.20151672720E+02  0.00000000000E+00 0. -1.
</event>
<event>
 8    1  0.3186330E-007  0.9118800E+02  0.7816164E-02  0.1184000E+00
        -11   -1    0    0    0    0  0.00000000000E+00  0.00000000000E+00  0.45593999997E+02  0.45594000000E+02  0.51100000000E-03 0.  1.
         11   -1    0    0    0    0 -0.00000000000E+00 -0.00000000000E+00 -0.45593999997E+02  0.45594000000E+02  0.51100000000E-03 0. -1.
         23    2    1    2    0    0  0.00000000000E+00 -0.71054273576E-14  0.13322676296E-14  0.91188000000E+02  0.91188000000E+02 0.  0.
    9900012    2    3    3    0    0 -0.48402540545E+01 -0.36346179085E+02 -0.33625472504E+01  0.54367088586E+02  0.40000010049E+02 0.  0.
        -12    1    3    3    0    0  0.48402540545E+01  0.36346179085E+02  0.33625472504E+01  0.36820911414E+02  0.00000000000E+00 0.  1.
         11    1    4    4    0    0 -0.13482962462E+02 -0.20249656551E+02 -0.26922003937E+01  0.24476249925E+02  0.51100000000E-03 0. -1.
        -11    1    4    4    0    0 -0.25936862209E+01 -0.10108881724E+02  0.90963422088E+01  0.13844137379E+02  0.51100000000E-03 0.  1.
        -12    1    4    4    0    0  0.11236394629E+02 -0.59876408096E+01 -0.97666890656E+01  0.16046701282E+02  0.00000000000E+00 0.  1.
</event>
<event>
 8    1  0.3186330E-007  0.9118800E+02  0.7816164E-02  0.1184000E+00
        -11   -1    0    0    0    0  0.00000000000E+00  0.00000000000E+00  0.45593999997E+02  0.45594000000E+02  0.51100000000E-03 0.  1.
         11   -1    0    0    0    0 -0.00000000000E+00 -0.00000000000E+00 -0.45593999997E+02  0.45594000000E+02  0.51100000000E-03 0. -1.
         23    2    1    2    0    0  0.88817841970E-15  0.00000000000E+00 -0.35527136788E-14  0.91188000000E+02  0.91188000000E+02 0.  0.
    9900012    2    3    3    0    0  0.16963300700E+01  0.18527009996E+02  0.31775037233E+02  0.54367073528E+02  0.39999975723E+02 0.  0.
         12    1    3    3    0    0 -0.16963300700E+01 -0.18527009996E+02 -0.31775037233E+02  0.36820926472E+02  0.00000000000E+00 0. -1.
         11    1    4    4    0    0  0.90415812431E+01  0.50689129771E+01  0.27873009739E+01  0.10733737333E+02  0.51100000000E-03 0. -1.
        -11    1    4    4    0    0 -0.46121769555E+01 -0.14759781613E+01  0.28003756529E+02  0.28419378385E+02  0.51100000000E-03 0.  1.
         12    1    4    4    0    0 -0.27330742177E+01  0.14934075180E+02  0.98397972997E+00  0.15213957811E+02  0.00000000000E+00 0. -1.
</event>
<event>
 8    1  0.3186330E-007  0.9118800E+02  0.7816164E-02  0.1184000E+00
        -11   -1    0    0    0    0  0.00000000000E+00  0.00000000000E+00  0.45593999997E+02  0.45594000000E+02  0.51100000000E-03 0.  1.
         11   -1    0    0    0    0 -0.00000000000E+00 -0.00000000000E+00 -0.45593999997E+02  0.45594000000E+02  0.51100000000E-03 0. -1.
         23    2    1    2    0    0  0.00000000000E+00  0.35527136788E-14  0.00000000000E+00  0.91188000000E+02  0.91188000000E+02 0.  0.
    9900012    2    3    3    0    0  0.21522423107E+02 -0.12507984170E+02  0.27131471115E+02  0.54367067241E+02  0.39999961390E+02 0.  0.
         12    1    3    3    0    0 -0.21522423107E+02  0.12507984170E+02 -0.27131471115E+02  0.36820932759E+02  0.00000000000E+00 0. -1.
         11    1    4    4    0    0  0.81285017080E+01 -0.54188916154E+01  0.53187586444E+01  0.11123224359E+02  0.51100000000E-03 0. -1.
        -11    1    4    4    0    0  0.19792485126E+02 -0.66036412038E+01  0.27602302091E+02  0.34601121739E+02  0.51100000000E-03 0.  1.
         12    1    4    4    0    0 -0.63985637267E+01 -0.48545135092E+00 -0.57895896213E+01  0.86427211434E+01  0.00000000000E+00 0. -1.
</event>
<event>
 8    1  0.3186330E-007  0.9118800E+02  0.7816164E-02  0.1184000E+00
        -11   -1    0    0    0    0  0.00000000000E+00  0.00000000000E+00  0.45593999997E+02  0.45594000000E+02  0.51100000000E-03 0. -1.
         11   -1    0    0    0    0 -0.00000000000E+00 -0.00000000000E+00 -0.45593999997E+02  0.45594000000E+02  0.51100000000E-03 0.  1.
         23    2    1    2    0    0  0.71054273576E-14  0.00000000000E+00  0.00000000000E+00  0.91188000000E+02  0.91188000000E+02 0.  0.
    9900012    2    3    3    0    0 -0.32060104027E+02  0.17928513695E+02 -0.25491722333E+01  0.54367079960E+02  0.39999990384E+02 0.  0.
         12    1    3    3    0    0  0.32060104027E+02 -0.17928513695E+02  0.25491722333E+01  0.36820920040E+02  0.00000000000E+00 0. -1.
         11    1    4    4    0    0 -0.16816124521E+02  0.13245123640E+02  0.51064120746E+01  0.22006607842E+02  0.51100000000E-03 0. -1.
        -11    1    4    4    0    0 -0.19446050911E+02  0.34486333488E+01 -0.14313653322E+02  0.24391036052E+02  0.51100000000E-03 0.  1.
        -12    1    4    4    0    0  0.42020714051E+01  0.12347567058E+01  0.66580690139E+01  0.79694360660E+01  0.00000000000E+00 0.  1.
</event>
<event>
 8    1  0.3186330E-007  0.9118800E+02  0.7816164E-02  0.1184000E+00
        -11   -1    0    0    0    0  0.00000000000E+00  0.00000000000E+00  0.45593999997E+02  0.45594000000E+02  0.51100000000E-03 0.  1.
         11   -1    0    0    0    0 -0.00000000000E+00 -0.00000000000E+00 -0.45593999997E+02  0.45594000000E+02  0.51100000000E-03 0. -1.
         23    2    1    2    0    0  0.35527136788E-14  0.88817841970E-15  0.00000000000E+00  0.91188000000E+02  0.91188000000E+02 0.  0.
    9900012    2    3    3    0    0 -0.28099247368E+02 -0.64214641465E+01  0.22912383721E+02  0.54367078879E+02  0.39999987920E+02 0.  0.
         12    1    3    3    0    0  0.28099247368E+02  0.64214641465E+01 -0.22912383721E+02  0.36820921121E+02  0.00000000000E+00 0. -1.
         11    1    4    4    0    0 -0.22461935086E+02 -0.13133375594E+02  0.32899020314E+01  0.26226847655E+02  0.51100000000E-03 0. -1.
        -11    1    4    4    0    0 -0.24354581807E+01 -0.38109850006E+01  0.15895997268E+02  0.16526880910E+02  0.51100000000E-03 0.  1.
         12    1    4    4    0    0 -0.32018541014E+01  0.10522896448E+02  0.37264844219E+01  0.11613350313E+02  0.00000000000E+00 0. -1.
</event>
<event>
 8    1  0.3186330E-007  0.9118800E+02  0.7816164E-02  0.1184000E+00
        -11   -1    0    0    0    0  0.00000000000E+00  0.00000000000E+00  0.45593999997E+02  0.45594000000E+02  0.51100000000E-03 0. -1.
         11   -1    0    0    0    0 -0.00000000000E+00 -0.00000000000E+00 -0.45593999997E+02  0.45594000000E+02  0.51100000000E-03 0.  1.
         23    2    1    2    0    0  0.17763568394E-14  0.00000000000E+00  0.00000000000E+00  0.91188000000E+02  0.91188000000E+02 0.  0.
    9900012    2    3    3    0    0 -0.12115938713E+02 -0.12202618781E+02 -0.32558868405E+02  0.54367084913E+02  0.40000001677E+02 0.  0.
         12    1    3    3    0    0  0.12115938713E+02  0.12202618781E+02  0.32558868405E+02  0.36820915087E+02  0.00000000000E+00 0. -1.
         11    1    4    4    0    0 -0.12668523762E+02 -0.98905494683E+01 -0.86236572987E+01  0.18239570405E+02  0.51100000000E-03 0. -1.
        -11    1    4    4    0    0  0.65611745806E+01 -0.50703203513E+01  0.26714656146E+01  0.87117098857E+01  0.51100000000E-03 0.  1.
         12    1    4    4    0    0 -0.60085895315E+01  0.27582510388E+01 -0.26606676721E+02  0.27415804622E+02  0.00000000000E+00 0. -1.
</event>
<event>
 8    1  0.3186330E-007  0.9118800E+02  0.7816164E-02  0.1184000E+00
        -11   -1    0    0    0    0  0.00000000000E+00  0.00000000000E+00  0.45593999997E+02  0.45594000000E+02  0.51100000000E-03 0.  1.
         11   -1    0    0    0    0 -0.00000000000E+00 -0.00000000000E+00 -0.45593999997E+02  0.45594000000E+02  0.51100000000E-03 0. -1.
         23    2    1    2    0    0  0.00000000000E+00 -0.17763568394E-14 -0.35527136788E-14  0.91188000000E+02  0.91188000000E+02 0.  0.
    9900012    2    3    3    0    0  0.28174581905E+02 -0.12687873359E+02 -0.20024714200E+02  0.54367104102E+02  0.40000045422E+02 0.  0.
        -12    1    3    3    0    0 -0.28174581905E+02  0.12687873359E+02  0.20024714200E+02  0.36820895898E+02  0.00000000000E+00 0.  1.
         11    1    4    4    0    0  0.17508792949E+02  0.15621939129E+01 -0.20741488390E+02  0.27188372906E+02  0.51100000000E-03 0. -1.
        -11    1    4    4    0    0  0.76723811603E+00 -0.54604077681E+01  0.97160378189E+01  0.11171664982E+02  0.51100000000E-03 0.  1.
         12    1    4    4    0    0  0.98985508401E+01 -0.87896595036E+01 -0.89992636291E+01  0.16007066214E+02  0.00000000000E+00 0. -1.
</event>
<event>
 8    1  0.3186330E-007  0.9118800E+02  0.7816164E-02  0.1184000E+00
        -11   -1    0    0    0    0  0.00000000000E+00  0.00000000000E+00  0.45593999997E+02  0.45594000000E+02  0.51100000000E-03 0.  1.
         11   -1    0    0    0    0 -0.00000000000E+00 -0.00000000000E+00 -0.45593999997E+02  0.45594000000E+02  0.51100000000E-03 0. -1.
         23    2    1    2    0    0 -0.35527136788E-14  0.17763568394E-14 -0.35527136788E-14  0.91188000000E+02  0.91188000000E+02 0.  0.
    9900012    2    3    3    0    0  0.21675073228E+02 -0.57781756377E+01  0.29199036086E+02  0.54367084456E+02  0.40000000634E+02 0.  0.
         12    1    3    3    0    0 -0.21675073228E+02  0.57781756377E+01 -0.29199036086E+02  0.36820915544E+02  0.00000000000E+00 0. -1.
         11    1    4    4    0    0  0.74747138511E+00 -0.53823098661E+00  0.20903080262E+02  0.20923364232E+02  0.51100000000E-03 0.  1.
        -11    1    4    4    0    0  0.62156771927E+01 -0.10950126272E+02 -0.42436112084E+01  0.13287142081E+02  0.51100000000E-03 0. -1.
         12    1    4    4    0    0  0.14711924651E+02  0.57101816208E+01  0.12539567033E+02  0.20156578143E+02  0.00000000000E+00 0. -1.
</event>
<event>
 8    1  0.3186330E-007  0.9118800E+02  0.7816164E-02  0.1184000E+00
        -11   -1    0    0    0    0  0.00000000000E+00  0.00000000000E+00  0.45593999997E+02  0.45594000000E+02  0.51100000000E-03 0. -1.
         11   -1    0    0    0    0 -0.00000000000E+00 -0.00000000000E+00 -0.45593999997E+02  0.45594000000E+02  0.51100000000E-03 0.  1.
         23    2    1    2    0    0  0.35527136788E-14  0.00000000000E+00  0.35527136788E-14  0.91188000000E+02  0.91188000000E+02 0.  0.
    9900012    2    3    3    0    0  0.31035828842E+02  0.79895055780E+01  0.18130778711E+02  0.54367081924E+02  0.39999994862E+02 0.  0.
        -12    1    3    3    0    0 -0.31035828842E+02 -0.79895055780E+01 -0.18130778711E+02  0.36820918076E+02  0.00000000000E+00 0.  1.
         11    1    4    4    0    0  0.13630804996E+02 -0.74085552353E+01 -0.98143534205E+00  0.15545055519E+02  0.51100000000E-03 0. -1.
        -11    1    4    4    0    0 -0.32299596817E+01  0.95998201102E+01  0.13103242066E+02  0.16561525854E+02  0.51100000000E-03 0.  1.
         12    1    4    4    0    0  0.20634983528E+02  0.57982407031E+01  0.60089719872E+01  0.22260500551E+02  0.00000000000E+00 0. -1.
</event>
<event>
 8    1  0.3186330E-007  0.9118800E+02  0.7816164E-02  0.1184000E+00
        -11   -1    0    0    0    0  0.00000000000E+00  0.00000000000E+00  0.45593999997E+02  0.45594000000E+02  0.51100000000E-03 0.  1.
         11   -1    0    0    0    0 -0.00000000000E+00 -0.00000000000E+00 -0.45593999997E+02  0.45594000000E+02  0.51100000000E-03 0. -1.
         23    2    1    2    0    0  0.35527136788E-14  0.35527136788E-14  0.35527136788E-14  0.91188000000E+02  0.91188000000E+02 0.  0.
    9900012    2    3    3    0    0  0.12355193048E+02 -0.19540306006E+02 -0.28658611784E+02  0.54366941033E+02  0.39999673671E+02 0.  0.
        -12    1    3    3    0    0 -0.12355193048E+02  0.19540306006E+02  0.28658611784E+02  0.36821058967E+02  0.00000000000E+00 0.  1.
         11    1    4    4    0    0  0.11032017836E+02 -0.14624271424E+02 -0.23977092303E+02  0.30174089676E+02  0.51100000000E-03 0. -1.
        -11    1    4    4    0    0  0.11405022857E+02 -0.59233574044E+00 -0.63965329571E+01  0.13089730407E+02  0.51100000000E-03 0.  1.
        -12    1    4    4    0    0 -0.10081847645E+02 -0.43236988413E+01  0.17150134753E+01  0.11103120950E+02  0.00000000000E+00 0.  1.
</event>
<event>
 8    1  0.3186330E-007  0.9118800E+02  0.7816164E-02  0.1184000E+00
        -11   -1    0    0    0    0  0.00000000000E+00  0.00000000000E+00  0.45593999997E+02  0.45594000000E+02  0.51100000000E-03 0. -1.
         11   -1    0    0    0    0 -0.00000000000E+00 -0.00000000000E+00 -0.45593999997E+02  0.45594000000E+02  0.51100000000E-03 0.  1.
         23    2    1    2    0    0  0.00000000000E+00  0.17763568394E-14  0.35527136788E-14  0.91188000000E+02  0.91188000000E+02 0.  0.
    9900012    2    3    3    0    0  0.26556840696E+02 -0.93030168390E+01 -0.23748036339E+02  0.54367066551E+02  0.39999959816E+02 0.  0.
         12    1    3    3    0    0 -0.26556840696E+02  0.93030168390E+01  0.23748036339E+02  0.36820933449E+02  0.00000000000E+00 0. -1.
         11    1    4    4    0    0  0.87495374167E+01 -0.81052933703E+00  0.50994711927E+01  0.10159526048E+02  0.51100000000E-03 0. -1.
        -11    1    4    4    0    0  0.14160194539E+02  0.39318144303E+01 -0.25782646453E+01  0.14920379450E+02  0.51100000000E-03 0.  1.
        -12    1    4    4    0    0  0.36471087406E+01 -0.12424301932E+02 -0.26269242887E+02  0.29287161053E+02  0.00000000000E+00 0.  1.
</event>
<event>
 8    1  0.3186330E-007  0.9118800E+02  0.7816164E-02  0.1184000E+00
        -11   -1    0    0    0    0  0.00000000000E+00  0.00000000000E+00  0.45593999997E+02  0.45594000000E+02  0.51100000000E-03 0.  1.
         11   -1    0    0    0    0 -0.00000000000E+00 -0.00000000000E+00 -0.45593999997E+02  0.45594000000E+02  0.51100000000E-03 0. -1.
         23    2    1    2    0    0  0.17763568394E-14  0.00000000000E+00  0.00000000000E+00  0.91188000000E+02  0.91188000000E+02 0.  0.
    9900012    2    3    3    0    0 -0.10404473405E+02 -0.30917776809E+02 -0.17076823144E+02  0.54367083685E+02  0.39999998876E+02 0.  0.
         12    1    3    3    0    0  0.10404473405E+02  0.30917776809E+02  0.17076823144E+02  0.36820916315E+02  0.00000000000E+00 0. -1.
         11    1    4    4    0    0  0.11894756885E+02 -0.10702323793E+02 -0.57404350223E+00  0.16011074359E+02  0.51100000000E-03 0.  1.
        -11    1    4    4    0    0 -0.10276374911E+02 -0.11911824461E+02 -0.17717496398E+02  0.23693989157E+02  0.51100000000E-03 0. -1.
        -12    1    4    4    0    0 -0.12022855379E+02 -0.83036285548E+01  0.12147167565E+01  0.14662020169E+02  0.00000000000E+00 0.  1.
</event>
<event>
 8    1  0.3186330E-007  0.9118800E+02  0.7816164E-02  0.1184000E+00
        -11   -1    0    0    0    0  0.00000000000E+00  0.00000000000E+00  0.45593999997E+02  0.45594000000E+02  0.51100000000E-03 0.  1.
         11   -1    0    0    0    0 -0.00000000000E+00 -0.00000000000E+00 -0.45593999997E+02  0.45594000000E+02  0.51100000000E-03 0. -1.
         23    2    1    2    0    0  0.36082248300E-15  0.00000000000E+00  0.35527136788E-14  0.91188000000E+02  0.91188000000E+02 0.  0.
    9900012    2    3    3    0    0  0.74688391042E-01  0.29005143685E+02 -0.22682069133E+02  0.54367079334E+02  0.39999988958E+02 0.  0.
        -12    1    3    3    0    0 -0.74688391042E-01 -0.29005143685E+02  0.22682069133E+02  0.36820920666E+02  0.00000000000E+00 0.  1.
         11    1    4    4    0    0 -0.93130741167E+01  0.78412629273E+01 -0.17509332376E+02  0.21325934313E+02  0.51100000000E-03 0.  1.
        -11    1    4    4    0    0 -0.45603124942E+01  0.15235315013E+02  0.24260041841E+01  0.16087161657E+02  0.51100000000E-03 0. -1.
        -12    1    4    4    0    0  0.13948075002E+02  0.59285657441E+01 -0.75987409414E+01  0.16953983365E+02  0.00000000000E+00 0.  1.
</event>
<event>
 8    1  0.3186330E-007  0.9118800E+02  0.7816164E-02  0.1184000E+00
        -11   -1    0    0    0    0  0.00000000000E+00  0.00000000000E+00  0.45593999997E+02  0.45594000000E+02  0.51100000000E-03 0. -1.
         11   -1    0    0    0    0 -0.00000000000E+00 -0.00000000000E+00 -0.45593999997E+02  0.45594000000E+02  0.51100000000E-03 0.  1.
         23    2    1    2    0    0 -0.88817841970E-15 -0.71054273576E-14  0.35527136788E-14  0.91188000000E+02  0.91188000000E+02 0.  0.
    9900012    2    3    3    0    0  0.68989997986E+01  0.31824638065E+02 -0.17186493764E+02  0.54367090803E+02  0.40000015104E+02 0.  0.
         12    1    3    3    0    0 -0.68989997986E+01 -0.31824638065E+02  0.17186493764E+02  0.36820909197E+02  0.00000000000E+00 0. -1.
         11    1    4    4    0    0 -0.88199951762E+01  0.86558610452E+01 -0.10094334249E+02  0.15956560705E+02  0.51100000000E-03 0.  1.
        -11    1    4    4    0    0  0.12844905907E+02  0.28727867807E+02 -0.64144133329E+01  0.32115832469E+02  0.51100000000E-03 0. -1.
         12    1    4    4    0    0  0.28740890681E+01 -0.55590907872E+01 -0.67774618144E+00  0.62946976288E+01  0.00000000000E+00 0. -1.
</event>
<event>
 8    1  0.3186330E-007  0.9118800E+02  0.7816164E-02  0.1184000E+00
        -11   -1    0    0    0    0  0.00000000000E+00  0.00000000000E+00  0.45593999997E+02  0.45594000000E+02  0.51100000000E-03 0.  1.
         11   -1    0    0    0    0 -0.00000000000E+00 -0.00000000000E+00 -0.45593999997E+02  0.45594000000E+02  0.51100000000E-03 0. -1.
         23    2    1    2    0    0 -0.44408920985E-15  0.00000000000E+00  0.71054273576E-14  0.91188000000E+02  0.91188000000E+02 0.  0.
    9900012    2    3    3    0    0  0.14145588444E+01 -0.97586316028E+01 -0.35476011914E+02  0.54367091689E+02  0.40000017124E+02 0.  0.
        -12    1    3    3    0    0 -0.14145588444E+01  0.97586316028E+01  0.35476011914E+02  0.36820908311E+02  0.00000000000E+00 0.  1.
         11    1    4    4    0    0 -0.31314666450E+01 -0.78059542302E+01 -0.22173892909E+02  0.23715407055E+02  0.51100000000E-03 0. -1.
        -11    1    4    4    0    0  0.53362097998E+00 -0.53556052286E+01 -0.20803961297E+02  0.21488882350E+02  0.51100000000E-03 0.  1.
        -12    1    4    4    0    0  0.40124045094E+01  0.34029278559E+01  0.75018422915E+01  0.91628022846E+01  0.00000000000E+00 0.  1.
</event>
<event>
 8    1  0.3186330E-007  0.9118800E+02  0.7816164E-02  0.1184000E+00
        -11   -1    0    0    0    0  0.00000000000E+00  0.00000000000E+00  0.45593999997E+02  0.45594000000E+02  0.51100000000E-03 0.  1.
         11   -1    0    0    0    0 -0.00000000000E+00 -0.00000000000E+00 -0.45593999997E+02  0.45594000000E+02  0.51100000000E-03 0. -1.
         23    2    1    2    0    0  0.00000000000E+00 -0.17763568394E-14  0.00000000000E+00  0.91188000000E+02  0.91188000000E+02 0.  0.
    9900012    2    3    3    0    0 -0.13545239220E+02 -0.83718681790E+01 -0.33199668351E+02  0.54367086636E+02  0.40000005604E+02 0.  0.
        -12    1    3    3    0    0  0.13545239220E+02  0.83718681790E+01  0.33199668351E+02  0.36820913364E+02  0.00000000000E+00 0.  1.
         11    1    4    4    0    0 -0.43143900609E+01 -0.18612227442E+01  0.49596685879E+01  0.68320146709E+01  0.51100000000E-03 0. -1.
        -11    1    4    4    0    0  0.57332622141E+01  0.62072247448E+01 -0.14549842302E+02  0.16825511758E+02  0.51100000000E-03 0.  1.
         12    1    4    4    0    0 -0.14964111373E+02 -0.12717870180E+02 -0.23609494637E+02  0.30709560207E+02  0.00000000000E+00 0. -1.
</event>
<event>
 8    1  0.3186330E-007  0.9118800E+02  0.7816164E-02  0.1184000E+00
        -11   -1    0    0    0    0  0.00000000000E+00  0.00000000000E+00  0.45593999997E+02  0.45594000000E+02  0.51100000000E-03 0. -1.
         11   -1    0    0    0    0 -0.00000000000E+00 -0.00000000000E+00 -0.45593999997E+02  0.45594000000E+02  0.51100000000E-03 0.  1.
         23    2    1    2    0    0 -0.35527136788E-14 -0.17763568394E-14 -0.35527136788E-14  0.91188000000E+02  0.91188000000E+02 0.  0.
    9900012    2    3    3    0    0 -0.22610920699E+02 -0.14235583069E+02  0.25335232147E+02  0.54367088169E+02  0.40000009098E+02 0.  0.
        -12    1    3    3    0    0  0.22610920699E+02  0.14235583069E+02 -0.25335232147E+02  0.36820911831E+02  0.00000000000E+00 0.  1.
         11    1    4    4    0    0 -0.16873428633E+01 -0.64851710178E+01 -0.53061071615E+01  0.85474757993E+01  0.51100000000E-03 0.  1.
        -11    1    4    4    0    0 -0.23378385449E+02 -0.11928119984E+02  0.31390062592E+02  0.40916561223E+02  0.51100000000E-03 0. -1.
         12    1    4    4    0    0  0.24548076135E+01  0.41777079322E+01 -0.74872328406E+00  0.49030511462E+01  0.00000000000E+00 0. -1.
</event>
<event>
 8    1  0.3186330E-007  0.9118800E+02  0.7816164E-02  0.1184000E+00
        -11   -1    0    0    0    0  0.00000000000E+00  0.00000000000E+00  0.45593999997E+02  0.45594000000E+02  0.51100000000E-03 0.  1.
         11   -1    0    0    0    0 -0.00000000000E+00 -0.00000000000E+00 -0.45593999997E+02  0.45594000000E+02  0.51100000000E-03 0. -1.
         23    2    1    2    0    0 -0.11102230246E-14  0.35527136788E-14  0.00000000000E+00  0.91188000000E+02  0.91188000000E+02 0.  0.
    9900012    2    3    3    0    0  0.16858693569E+01  0.31568825360E+02  0.18877123378E+02  0.54367099996E+02  0.40000036060E+02 0.  0.
         12    1    3    3    0    0 -0.16858693569E+01 -0.31568825360E+02 -0.18877123378E+02  0.36820900004E+02  0.00000000000E+00 0. -1.
         11    1    4    4    0    0 -0.13722624703E+02  0.14484400068E+01  0.12886935158E+02  0.18880717816E+02  0.51100000000E-03 0. -1.
        -11    1    4    4    0    0  0.65014938796E+01  0.10900810857E+02  0.65766735429E+01  0.14295094794E+02  0.51100000000E-03 0.  1.
        -12    1    4    4    0    0  0.89070001808E+01  0.19219574497E+02 -0.58648532340E+00  0.21191287386E+02  0.00000000000E+00 0.  1.
</event>
<event>
 8    1  0.3186330E-007  0.9118800E+02  0.7816164E-02  0.1184000E+00
        -11   -1    0    0    0    0  0.00000000000E+00  0.00000000000E+00  0.45593999997E+02  0.45594000000E+02  0.51100000000E-03 0. -1.
         11   -1    0    0    0    0 -0.00000000000E+00 -0.00000000000E+00 -0.45593999997E+02  0.45594000000E+02  0.51100000000E-03 0.  1.
         23    2    1    2    0    0  0.00000000000E+00  0.00000000000E+00 -0.71054273576E-14  0.91188000000E+02  0.91188000000E+02 0.  0.
    9900012    2    3    3    0    0 -0.16293923084E+02 -0.38442864792E+01 -0.32794973858E+02  0.54367071463E+02  0.39999971013E+02 0.  0.
         12    1    3    3    0    0  0.16293923084E+02  0.38442864792E+01  0.32794973858E+02  0.36820928537E+02  0.00000000000E+00 0. -1.
         11    1    4    4    0    0  0.39665952146E+01  0.26524382394E+01  0.55767032842E+01  0.73395453532E+01  0.51100000000E-03 0. -1.
        -11    1    4    4    0    0 -0.37250328387E+00  0.20224865774E+01  0.85704289296E+00  0.22279437681E+01  0.51100000000E-03 0.  1.
        -12    1    4    4    0    0 -0.19888015015E+02 -0.85192112960E+01 -0.39228720035E+02  0.44799582341E+02  0.00000000000E+00 0.  1.
</event>
<event>
 8    1  0.3186330E-007  0.9118800E+02  0.7816164E-02  0.1184000E+00
        -11   -1    0    0    0    0  0.00000000000E+00  0.00000000000E+00  0.45593999997E+02  0.45594000000E+02  0.51100000000E-03 0. -1.
         11   -1    0    0    0    0 -0.00000000000E+00 -0.00000000000E+00 -0.45593999997E+02  0.45594000000E+02  0.51100000000E-03 0.  1.
         23    2    1    2    0    0  0.19984014443E-14  0.35527136788E-14  0.00000000000E+00  0.91188000000E+02  0.91188000000E+02 0.  0.
    9900012    2    3    3    0    0 -0.13996274644E+01 -0.15972390307E+02  0.33146698926E+02  0.54367083949E+02  0.39999999479E+02 0.  0.
        -12    1    3    3    0    0  0.13996274644E+01  0.15972390307E+02 -0.33146698926E+02  0.36820916051E+02  0.00000000000E+00 0.  1.
         11    1    4    4    0    0 -0.49509614324E+01 -0.51123341475E+01  0.17253042521E+02  0.18663211301E+02  0.51100000000E-03 0. -1.
        -11    1    4    4    0    0 -0.10114796700E+02 -0.14574700138E+02  0.76732293389E+01  0.19328979413E+02  0.51100000000E-03 0.  1.
        -12    1    4    4    0    0  0.13666130668E+02  0.37146439789E+01  0.82204270653E+01  0.16374893235E+02  0.00000000000E+00 0.  1.
</event>
<event>
 8    1  0.3186330E-007  0.9118800E+02  0.7816164E-02  0.1184000E+00
        -11   -1    0    0    0    0  0.00000000000E+00  0.00000000000E+00  0.45593999997E+02  0.45594000000E+02  0.51100000000E-03 0.  1.
         11   -1    0    0    0    0 -0.00000000000E+00 -0.00000000000E+00 -0.45593999997E+02  0.45594000000E+02  0.51100000000E-03 0. -1.
         23    2    1    2    0    0  0.00000000000E+00  0.00000000000E+00 -0.88817841970E-15  0.91188000000E+02  0.91188000000E+02 0.  0.
    9900012    2    3    3    0    0  0.11866922020E+02 -0.34212640615E+02 -0.66672080469E+01  0.54367078241E+02  0.39999986466E+02 0.  0.
        -12    1    3    3    0    0 -0.11866922020E+02  0.34212640615E+02  0.66672080469E+01  0.36820921759E+02  0.00000000000E+00 0.  1.
         11    1    4    4    0    0 -0.56599171887E+01  0.50687773164E+01 -0.71592476398E+01  0.10439444099E+02  0.51100000000E-03 0.  1.
        -11    1    4    4    0    0  0.13287318681E+02 -0.30807009671E+02  0.40755288265E+01  0.33796961670E+02  0.51100000000E-03 0. -1.
        -12    1    4    4    0    0  0.42395205276E+01 -0.84744082597E+01 -0.35834892335E+01  0.10130672472E+02  0.00000000000E+00 0.  1.
</event>
<event>
 8    1  0.3186330E-007  0.9118800E+02  0.7816164E-02  0.1184000E+00
        -11   -1    0    0    0    0  0.00000000000E+00  0.00000000000E+00  0.45593999997E+02  0.45594000000E+02  0.51100000000E-03 0.  1.
         11   -1    0    0    0    0 -0.00000000000E+00 -0.00000000000E+00 -0.45593999997E+02  0.45594000000E+02  0.51100000000E-03 0. -1.
         23    2    1    2    0    0  0.00000000000E+00  0.71054273576E-14  0.35527136788E-14  0.91188000000E+02  0.91188000000E+02 0.  0.
    9900012    2    3    3    0    0  0.96567172551E+01 -0.29560302276E+02 -0.19715796038E+02  0.54367132652E+02  0.40000110507E+02 0.  0.
        -12    1    3    3    0    0 -0.96567172551E+01  0.29560302276E+02  0.19715796038E+02  0.36820867348E+02  0.00000000000E+00 0.  1.
         11    1    4    4    0    0  0.16251311605E+02 -0.25037971754E+02 -0.29172582102E+02  0.41737809061E+02  0.51100000000E-03 0. -1.
        -11    1    4    4    0    0 -0.55382670708E+01 -0.46995248087E+01  0.78166127057E+01  0.10670396901E+02  0.51100000000E-03 0.  1.
         12    1    4    4    0    0 -0.10563272791E+01  0.17719428643E+00  0.16401733576E+01  0.19589266905E+01  0.00000000000E+00 0. -1.
</event>
<event>
 8    1  0.3186330E-007  0.9118800E+02  0.7816164E-02  0.1184000E+00
        -11   -1    0    0    0    0  0.00000000000E+00  0.00000000000E+00  0.45593999997E+02  0.45594000000E+02  0.51100000000E-03 0. -1.
         11   -1    0    0    0    0 -0.00000000000E+00 -0.00000000000E+00 -0.45593999997E+02  0.45594000000E+02  0.51100000000E-03 0.  1.
         23    2    1    2    0    0 -0.35527136788E-14  0.00000000000E+00  0.35527136788E-14  0.91188000000E+02  0.91188000000E+02 0.  0.
    9900012    2    3    3    0    0  0.19989696731E+02 -0.12763481510E+02 -0.28165320551E+02  0.54367085869E+02  0.40000003857E+02 0.  0.
         12    1    3    3    0    0 -0.19989696731E+02  0.12763481510E+02  0.28165320551E+02  0.36820914131E+02  0.00000000000E+00 0. -1.
         11    1    4    4    0    0  0.26846908249E+01 -0.10446688035E+02 -0.19761054880E+01  0.10965666823E+02  0.51100000000E-03 0. -1.
        -11    1    4    4    0    0 -0.26836333136E+01  0.63508141685E+01 -0.19388215253E+02  0.20577599941E+02  0.51100000000E-03 0.  1.
         12    1    4    4    0    0  0.19988639220E+02 -0.86676076441E+01 -0.68009998098E+01  0.22823819105E+02  0.00000000000E+00 0. -1.
</event>
<event>
 8    1  0.3186330E-007  0.9118800E+02  0.7816164E-02  0.1184000E+00
        -11   -1    0    0    0    0  0.00000000000E+00  0.00000000000E+00  0.45593999997E+02  0.45594000000E+02  0.51100000000E-03 0.  1.
         11   -1    0    0    0    0 -0.00000000000E+00 -0.00000000000E+00 -0.45593999997E+02  0.45594000000E+02  0.51100000000E-03 0. -1.
         23    2    1    2    0    0 -0.17763568394E-14  0.00000000000E+00  0.35527136788E-14  0.91188000000E+02  0.91188000000E+02 0.  0.
    9900012    2    3    3    0    0  0.11356374668E+02  0.23170393147E+02 -0.26266810751E+02  0.54367085954E+02  0.40000004049E+02 0.  0.
        -12    1    3    3    0    0 -0.11356374668E+02 -0.23170393147E+02  0.26266810751E+02  0.36820914046E+02  0.00000000000E+00 0.  1.
         11    1    4    4    0    0 -0.60638923552E+01  0.14492000869E+02  0.60243808392E+00  0.15721062674E+02  0.51100000000E-03 0. -1.
        -11    1    4    4    0    0  0.36124794174E+01 -0.61221801396E+01 -0.10154762303E+02  0.12395575618E+02  0.51100000000E-03 0.  1.
         12    1    4    4    0    0  0.13807787605E+02  0.14800572417E+02 -0.16714486532E+02  0.26250447662E+02  0.00000000000E+00 0. -1.
</event>
<event>
 8    1  0.3186330E-007  0.9118800E+02  0.7816164E-02  0.1184000E+00
        -11   -1    0    0    0    0  0.00000000000E+00  0.00000000000E+00  0.45593999997E+02  0.45594000000E+02  0.51100000000E-03 0. -1.
         11   -1    0    0    0    0 -0.00000000000E+00 -0.00000000000E+00 -0.45593999997E+02  0.45594000000E+02  0.51100000000E-03 0.  1.
         23    2    1    2    0    0  0.00000000000E+00  0.35527136788E-14 -0.17763568394E-14  0.91188000000E+02  0.91188000000E+02 0.  0.
    9900012    2    3    3    0    0  0.28371960889E+02  0.23015959429E+02 -0.45912559193E+01  0.54367052374E+02  0.39999927497E+02 0.  0.
         12    1    3    3    0    0 -0.28371960889E+02 -0.23015959429E+02  0.45912559193E+01  0.36820947626E+02  0.00000000000E+00 0. -1.
         11    1    4    4    0    0  0.69490470342E+01  0.16336078768E+02 -0.10498523092E+01  0.17783669878E+02  0.51100000000E-03 0. -1.
        -11    1    4    4    0    0 -0.50163760624E+01  0.14238599662E+01  0.60354351091E+01  0.79760819467E+01  0.51100000000E-03 0.  1.
        -12    1    4    4    0    0  0.26439289917E+02  0.52560206951E+01 -0.95768387193E+01  0.28607300550E+02  0.00000000000E+00 0.  1.
</event>
<event>
 8    1  0.3186330E-007  0.9118800E+02  0.7816164E-02  0.1184000E+00
        -11   -1    0    0    0    0  0.00000000000E+00  0.00000000000E+00  0.45593999997E+02  0.45594000000E+02  0.51100000000E-03 0. -1.
         11   -1    0    0    0    0 -0.00000000000E+00 -0.00000000000E+00 -0.45593999997E+02  0.45594000000E+02  0.51100000000E-03 0.  1.
         23    2    1    2    0    0 -0.26645352591E-14  0.00000000000E+00 -0.35527136788E-14  0.91188000000E+02  0.91188000000E+02 0.  0.
    9900012    2    3    3    0    0  0.44469187498E+01  0.19311642064E+02  0.31033293890E+02  0.54367082911E+02  0.39999997113E+02 0.  0.
        -12    1    3    3    0    0 -0.44469187498E+01 -0.19311642064E+02 -0.31033293890E+02  0.36820917089E+02  0.00000000000E+00 0.  1.
         11    1    4    4    0    0  0.88621360001E+01  0.68619758040E+01  0.28159198321E+02  0.30307830948E+02  0.51100000000E-03 0. -1.
        -11    1    4    4    0    0  0.19028293315E+01 -0.17213609544E+01 -0.57581173268E+01  0.63039478432E+01  0.51100000000E-03 0.  1.
         12    1    4    4    0    0 -0.63180465819E+01  0.14171027215E+02  0.86322128957E+01  0.17755304120E+02  0.00000000000E+00 0. -1.
</event>
<event>
 8    1  0.3186330E-007  0.9118800E+02  0.7816164E-02  0.1184000E+00
        -11   -1    0    0    0    0  0.00000000000E+00  0.00000000000E+00  0.45593999997E+02  0.45594000000E+02  0.51100000000E-03 0. -1.
         11   -1    0    0    0    0 -0.00000000000E+00 -0.00000000000E+00 -0.45593999997E+02  0.45594000000E+02  0.51100000000E-03 0.  1.
         23    2    1    2    0    0  0.88817841970E-15  0.00000000000E+00  0.00000000000E+00  0.91188000000E+02  0.91188000000E+02 0.  0.
    9900012    2    3    3    0    0  0.74842311396E+01 -0.25917240036E+02 -0.25061158997E+02  0.54367099181E+02  0.40000034203E+02 0.  0.
         12    1    3    3    0    0 -0.74842311396E+01  0.25917240036E+02  0.25061158997E+02  0.36820900819E+02  0.00000000000E+00 0. -1.
         11    1    4    4    0    0  0.17853817409E+02 -0.53560272276E+01 -0.14357549296E+02  0.23528388083E+02  0.51100000000E-03 0.  1.
        -11    1    4    4    0    0 -0.45992403137E+01 -0.14983759753E+01  0.38406866908E+01  0.61764890144E+01  0.51100000000E-03 0. -1.
        -12    1    4    4    0    0 -0.57703459558E+01 -0.19062836833E+02 -0.14544296392E+02  0.24662222084E+02  0.00000000000E+00 0.  1.
</event>
<event>
 8    1  0.3186330E-007  0.9118800E+02  0.7816164E-02  0.1184000E+00
        -11   -1    0    0    0    0  0.00000000000E+00  0.00000000000E+00  0.45593999997E+02  0.45594000000E+02  0.51100000000E-03 0. -1.
         11   -1    0    0    0    0 -0.00000000000E+00 -0.00000000000E+00 -0.45593999997E+02  0.45594000000E+02  0.51100000000E-03 0.  1.
         23    2    1    2    0    0  0.00000000000E+00  0.00000000000E+00 -0.88817841970E-15  0.91188000000E+02  0.91188000000E+02 0.  0.
    9900012    2    3    3    0    0 -0.36210779238E+02 -0.62358508292E+01 -0.23828433306E+01  0.54367023493E+02  0.39999861657E+02 0.  0.
         12    1    3    3    0    0  0.36210779238E+02  0.62358508292E+01  0.23828433306E+01  0.36820976507E+02  0.00000000000E+00 0. -1.
         11    1    4    4    0    0 -0.60657788022E+01 -0.53716821567E+01  0.45388006782E+01  0.92870530055E+01  0.51100000000E-03 0. -1.
        -11    1    4    4    0    0 -0.20259921528E+02  0.26616659629E+01 -0.19809173768E+02  0.28459660076E+02  0.51100000000E-03 0.  1.
         12    1    4    4    0    0 -0.98850789084E+01 -0.35258346354E+01  0.12887529759E+02  0.16620310412E+02  0.00000000000E+00 0. -1.
</event>
<event>
 8    1  0.3186330E-007  0.9118800E+02  0.7816164E-02  0.1184000E+00
        -11   -1    0    0    0    0  0.00000000000E+00  0.00000000000E+00  0.45593999997E+02  0.45594000000E+02  0.51100000000E-03 0. -1.
         11   -1    0    0    0    0 -0.00000000000E+00 -0.00000000000E+00 -0.45593999997E+02  0.45594000000E+02  0.51100000000E-03 0.  1.
         23    2    1    2    0    0  0.00000000000E+00  0.00000000000E+00 -0.17763568394E-14  0.91188000000E+02  0.91188000000E+02 0.  0.
    9900012    2    3    3    0    0 -0.20804608447E+02 -0.28431516842E+02 -0.10704996832E+02  0.54367084208E+02  0.40000000070E+02 0.  0.
        -12    1    3    3    0    0  0.20804608447E+02  0.28431516842E+02  0.10704996832E+02  0.36820915792E+02  0.00000000000E+00 0.  1.
         11    1    4    4    0    0 -0.73749722833E+01 -0.29913071030E+02  0.46330406298E+01  0.31155209843E+02  0.51100000000E-03 0. -1.
        -11    1    4    4    0    0 -0.23879221230E+01  0.50360094076E+00  0.16365867485E+01  0.29384013373E+01  0.51100000000E-03 0.  1.
        -12    1    4    4    0    0 -0.11041714041E+02  0.97795324777E+00 -0.16974624211E+02  0.20273473028E+02  0.00000000000E+00 0.  1.
</event>
<event>
 8    1  0.3186330E-007  0.9118800E+02  0.7816164E-02  0.1184000E+00
        -11   -1    0    0    0    0  0.00000000000E+00  0.00000000000E+00  0.45593999997E+02  0.45594000000E+02  0.51100000000E-03 0.  1.
         11   -1    0    0    0    0 -0.00000000000E+00 -0.00000000000E+00 -0.45593999997E+02  0.45594000000E+02  0.51100000000E-03 0. -1.
         23    2    1    2    0    0 -0.17763568394E-14 -0.17763568394E-14  0.00000000000E+00  0.91188000000E+02  0.91188000000E+02 0.  0.
    9900012    2    3    3    0    0 -0.11160241671E+02 -0.12973913281E+02  0.32602247344E+02  0.54367082686E+02  0.39999996600E+02 0.  0.
         12    1    3    3    0    0  0.11160241671E+02  0.12973913281E+02 -0.32602247344E+02  0.36820917314E+02  0.00000000000E+00 0. -1.
         11    1    4    4    0    0 -0.41000994561E+01  0.47672539707E+01  0.65378916119E+01  0.90709179779E+01  0.51100000000E-03 0. -1.
        -11    1    4    4    0    0 -0.12554265820E+02 -0.10162502353E+02 -0.14656134544E+01  0.16218325049E+02  0.51100000000E-03 0.  1.
         12    1    4    4    0    0  0.54941236053E+01 -0.75786648985E+01  0.27529969186E+02  0.29077839659E+02  0.00000000000E+00 0. -1.
</event>
<event>
 8    1  0.3186330E-007  0.9118800E+02  0.7816164E-02  0.1184000E+00
        -11   -1    0    0    0    0  0.00000000000E+00  0.00000000000E+00  0.45593999997E+02  0.45594000000E+02  0.51100000000E-03 0.  1.
         11   -1    0    0    0    0 -0.00000000000E+00 -0.00000000000E+00 -0.45593999997E+02  0.45594000000E+02  0.51100000000E-03 0. -1.
         23    2    1    2    0    0  0.00000000000E+00 -0.17763568394E-14  0.00000000000E+00  0.91188000000E+02  0.91188000000E+02 0.  0.
    9900012    2    3    3    0    0 -0.36118877844E+02 -0.65015794581E+01  0.29892657407E+01  0.54367087711E+02  0.40000008054E+02 0.  0.
        -12    1    3    3    0    0  0.36118877844E+02  0.65015794581E+01 -0.29892657407E+01  0.36820912289E+02  0.00000000000E+00 0.  1.
         11    1    4    4    0    0  0.13890211502E+01 -0.52069036883E+01  0.26122922318E+01  0.59887642081E+01  0.51100000000E-03 0. -1.
        -11    1    4    4    0    0  0.26808595781E+01 -0.70947523746E+01 -0.14939872317E+01  0.77301046205E+01  0.51100000000E-03 0.  1.
        -12    1    4    4    0    0 -0.40188758572E+02  0.58000766048E+01  0.18709607407E+01  0.40648218882E+02  0.00000000000E+00 0.  1.
</event>
<event>
 8    1  0.3186330E-007  0.9118800E+02  0.7816164E-02  0.1184000E+00
        -11   -1    0    0    0    0  0.00000000000E+00  0.00000000000E+00  0.45593999997E+02  0.45594000000E+02  0.51100000000E-03 0. -1.
         11   -1    0    0    0    0 -0.00000000000E+00 -0.00000000000E+00 -0.45593999997E+02  0.45594000000E+02  0.51100000000E-03 0.  1.
         23    2    1    2    0    0  0.00000000000E+00  0.00000000000E+00  0.00000000000E+00  0.91188000000E+02  0.91188000000E+02 0.  0.
    9900012    2    3    3    0    0 -0.28110239334E+02  0.28910579858E+01  0.23605838026E+02  0.54367090715E+02  0.40000014902E+02 0.  0.
        -12    1    3    3    0    0  0.28110239334E+02 -0.28910579858E+01 -0.23605838026E+02  0.36820909285E+02  0.00000000000E+00 0.  1.
         11    1    4    4    0    0 -0.82398801098E+01  0.74803074720E+01  0.80122129292E+01  0.13712993123E+02  0.51100000000E-03 0. -1.
        -11    1    4    4    0    0  0.47476644380E+01 -0.10366621917E+02  0.97008905136E+00  0.11443261799E+02  0.51100000000E-03 0.  1.
        -12    1    4    4    0    0 -0.24618023662E+02  0.57773724306E+01  0.14623536045E+02  0.29210835793E+02  0.00000000000E+00 0.  1.
</event>
<event>
 8    1  0.3186330E-007  0.9118800E+02  0.7816164E-02  0.1184000E+00
        -11   -1    0    0    0    0  0.00000000000E+00  0.00000000000E+00  0.45593999997E+02  0.45594000000E+02  0.51100000000E-03 0.  1.
         11   -1    0    0    0    0 -0.00000000000E+00 -0.00000000000E+00 -0.45593999997E+02  0.45594000000E+02  0.51100000000E-03 0. -1.
         23    2    1    2    0    0  0.71054273576E-14  0.35527136788E-14  0.17763568394E-14  0.91188000000E+02  0.91188000000E+02 0.  0.
    9900012    2    3    3    0    0  0.27312887250E+02  0.20004192573E+02  0.14478169569E+02  0.54367096636E+02  0.40000028402E+02 0.  0.
         12    1    3    3    0    0 -0.27312887250E+02 -0.20004192573E+02 -0.14478169569E+02  0.36820903364E+02  0.00000000000E+00 0. -1.
         11    1    4    4    0    0  0.16858801174E+02  0.10697063396E+02 -0.79397555673E+01  0.21486881138E+02  0.51100000000E-03 0. -1.
        -11    1    4    4    0    0 -0.57507211773E+01  0.31137763764E+01  0.44875717334E+01  0.79312481807E+01  0.51100000000E-03 0.  1.
         12    1    4    4    0    0  0.16204807254E+02  0.61933528007E+01  0.17930353403E+02  0.24948967317E+02  0.00000000000E+00 0. -1.
</event>
<event>
 8    1  0.3186330E-007  0.9118800E+02  0.7816164E-02  0.1184000E+00
        -11   -1    0    0    0    0  0.00000000000E+00  0.00000000000E+00  0.45593999997E+02  0.45594000000E+02  0.51100000000E-03 0. -1.
         11   -1    0    0    0    0 -0.00000000000E+00 -0.00000000000E+00 -0.45593999997E+02  0.45594000000E+02  0.51100000000E-03 0.  1.
         23    2    1    2    0    0  0.00000000000E+00  0.71054273576E-14  0.00000000000E+00  0.91188000000E+02  0.91188000000E+02 0.  0.
    9900012    2    3    3    0    0 -0.27505740173E+01  0.35656471483E+02  0.87652136761E+01  0.54367101222E+02  0.40000038856E+02 0.  0.
        -12    1    3    3    0    0  0.27505740173E+01 -0.35656471483E+02 -0.87652136761E+01  0.36820898778E+02  0.00000000000E+00 0.  1.
         11    1    4    4    0    0  0.46819408241E+01  0.95895981644E+01 -0.93592479115E+01  0.14194241247E+02  0.51100000000E-03 0.  1.
        -11    1    4    4    0    0 -0.23235658086E+01  0.26383096709E+02  0.21438848493E+02  0.34074785032E+02  0.51100000000E-03 0. -1.
         12    1    4    4    0    0 -0.51089490328E+01 -0.31622339039E+00 -0.33143869055E+01  0.60980749431E+01  0.00000000000E+00 0. -1.
</event>
<event>
 8    1  0.3186330E-007  0.9118800E+02  0.7816164E-02  0.1184000E+00
        -11   -1    0    0    0    0  0.00000000000E+00  0.00000000000E+00  0.45593999997E+02  0.45594000000E+02  0.51100000000E-03 0. -1.
         11   -1    0    0    0    0 -0.00000000000E+00 -0.00000000000E+00 -0.45593999997E+02  0.45594000000E+02  0.51100000000E-03 0.  1.
         23    2    1    2    0    0  0.00000000000E+00 -0.88817841970E-15 -0.17763568394E-14  0.91188000000E+02  0.91188000000E+02 0.  0.
    9900012    2    3    3    0    0 -0.33985601105E+02 -0.76259618359E+01 -0.11941664378E+02  0.54367085773E+02  0.40000003636E+02 0.  0.
         12    1    3    3    0    0  0.33985601105E+02  0.76259618359E+01  0.11941664378E+02  0.36820914227E+02  0.00000000000E+00 0. -1.
         11    1    4    4    0    0 -0.31319360619E+02  0.10453031252E+02 -0.32971499920E+01  0.33181913903E+02  0.51100000000E-03 0. -1.
        -11    1    4    4    0    0  0.64198715589E-01 -0.15616570977E+02 -0.63987204593E+01  0.16876760185E+02  0.51100000000E-03 0.  1.
         12    1    4    4    0    0 -0.27304392021E+01 -0.24624221107E+01 -0.22457939271E+01  0.43084116853E+01  0.00000000000E+00 0. -1.
</event>
<event>
 8    1  0.3186330E-007  0.9118800E+02  0.7816164E-02  0.1184000E+00
        -11   -1    0    0    0    0  0.00000000000E+00  0.00000000000E+00  0.45593999997E+02  0.45594000000E+02  0.51100000000E-03 0.  1.
         11   -1    0    0    0    0 -0.00000000000E+00 -0.00000000000E+00 -0.45593999997E+02  0.45594000000E+02  0.51100000000E-03 0. -1.
         23    2    1    2    0    0 -0.35527136788E-14 -0.35527136788E-14  0.00000000000E+00  0.91188000000E+02  0.91188000000E+02 0.  0.
    9900012    2    3    3    0    0  0.24579409719E+02  0.24608437372E+02 -0.12085439193E+02  0.54367076430E+02  0.39999982338E+02 0.  0.
        -12    1    3    3    0    0 -0.24579409719E+02 -0.24608437372E+02  0.12085439193E+02  0.36820923570E+02  0.00000000000E+00 0.  1.
         11    1    4    4    0    0  0.18408202817E+02  0.14303619566E+02 -0.25960691072E+01  0.23456236670E+02  0.51100000000E-03 0. -1.
        -11    1    4    4    0    0 -0.89772116054E+00  0.18414854486E+02 -0.78077928565E+01  0.20021848031E+02  0.51100000000E-03 0.  1.
        -12    1    4    4    0    0  0.70689280625E+01 -0.81100366800E+01 -0.16815772297E+01  0.10888991729E+02  0.00000000000E+00 0.  1.
</event>
<event>
 8    1  0.3186330E-007  0.9118800E+02  0.7816164E-02  0.1184000E+00
        -11   -1    0    0    0    0  0.00000000000E+00  0.00000000000E+00  0.45593999997E+02  0.45594000000E+02  0.51100000000E-03 0. -1.
         11   -1    0    0    0    0 -0.00000000000E+00 -0.00000000000E+00 -0.45593999997E+02  0.45594000000E+02  0.51100000000E-03 0.  1.
         23    2    1    2    0    0 -0.35527136788E-14  0.00000000000E+00  0.00000000000E+00  0.91188000000E+02  0.91188000000E+02 0.  0.
    9900012    2    3    3    0    0  0.30203000416E+02  0.80262296823E+01 -0.19471453672E+02  0.54367094184E+02  0.40000022811E+02 0.  0.
         12    1    3    3    0    0 -0.30203000416E+02 -0.80262296823E+01  0.19471453672E+02  0.36820905816E+02  0.00000000000E+00 0. -1.
         11    1    4    4    0    0  0.12095826134E+02 -0.12302553785E+02  0.41092884386E+01  0.17735503693E+02  0.51100000000E-03 0. -1.
        -11    1    4    4    0    0  0.91385080480E+01  0.12654739642E+02 -0.17149047293E+02  0.23189320560E+02  0.51100000000E-03 0.  1.
         12    1    4    4    0    0  0.89686662341E+01  0.76740438261E+01 -0.64316948176E+01  0.13442269931E+02  0.00000000000E+00 0. -1.
</event>
<event>
 8    1  0.3186330E-007  0.9118800E+02  0.7816164E-02  0.1184000E+00
        -11   -1    0    0    0    0  0.00000000000E+00  0.00000000000E+00  0.45593999997E+02  0.45594000000E+02  0.51100000000E-03 0. -1.
         11   -1    0    0    0    0 -0.00000000000E+00 -0.00000000000E+00 -0.45593999997E+02  0.45594000000E+02  0.51100000000E-03 0.  1.
         23    2    1    2    0    0  0.88817841970E-15  0.00000000000E+00  0.00000000000E+00  0.91188000000E+02  0.91188000000E+02 0.  0.
    9900012    2    3    3    0    0 -0.70200721426E+01  0.31214373570E+02 -0.18225132346E+02  0.54367163789E+02  0.40000181490E+02 0.  0.
         12    1    3    3    0    0  0.70200721426E+01 -0.31214373570E+02  0.18225132346E+02  0.36820836211E+02  0.00000000000E+00 0. -1.
         11    1    4    4    0    0 -0.85038000390E+01 -0.33726211433E+01 -0.82300700310E+01  0.12305415127E+02  0.51100000000E-03 0. -1.
        -11    1    4    4    0    0 -0.12503749397E+01  0.71662279172E+00 -0.78851418346E+01  0.80157624546E+01  0.51100000000E-03 0.  1.
         12    1    4    4    0    0  0.27341028360E+01  0.33870371921E+02 -0.21099204800E+01  0.34045986207E+02  0.00000000000E+00 0. -1.
</event>
<event>
 8    1  0.3186330E-007  0.9118800E+02  0.7816164E-02  0.1184000E+00
        -11   -1    0    0    0    0  0.00000000000E+00  0.00000000000E+00  0.45593999997E+02  0.45594000000E+02  0.51100000000E-03 0.  1.
         11   -1    0    0    0    0 -0.00000000000E+00 -0.00000000000E+00 -0.45593999997E+02  0.45594000000E+02  0.51100000000E-03 0. -1.
         23    2    1    2    0    0 -0.17763568394E-14  0.35527136788E-14  0.00000000000E+00  0.91188000000E+02  0.91188000000E+02 0.  0.
    9900012    2    3    3    0    0  0.12767560953E+02 -0.24260377715E+02 -0.24580522340E+02  0.54367100798E+02  0.40000037889E+02 0.  0.
         12    1    3    3    0    0 -0.12767560953E+02  0.24260377715E+02  0.24580522340E+02  0.36820899202E+02  0.00000000000E+00 0. -1.
         11    1    4    4    0    0 -0.48776717777E+01  0.29161126280E+01 -0.78878506361E+01  0.97218096437E+01  0.51100000000E-03 0. -1.
        -11    1    4    4    0    0  0.18542017969E+02 -0.14273802398E+02  0.16158967712E+00  0.23400298646E+02  0.51100000000E-03 0.  1.
         12    1    4    4    0    0 -0.89678523848E+00 -0.12902687945E+02 -0.16854261381E+02  0.21244992508E+02  0.00000000000E+00 0. -1.
</event>
<event>
 8    1  0.3186330E-007  0.9118800E+02  0.7816164E-02  0.1184000E+00
        -11   -1    0    0    0    0  0.00000000000E+00  0.00000000000E+00  0.45593999997E+02  0.45594000000E+02  0.51100000000E-03 0. -1.
         11   -1    0    0    0    0 -0.00000000000E+00 -0.00000000000E+00 -0.45593999997E+02  0.45594000000E+02  0.51100000000E-03 0.  1.
         23    2    1    2    0    0  0.00000000000E+00  0.00000000000E+00  0.00000000000E+00  0.91188000000E+02  0.91188000000E+02 0.  0.
    9900012    2    3    3    0    0 -0.16082504598E+02  0.21874060851E+02  0.24872772362E+02  0.54367132313E+02  0.40000109734E+02 0.  0.
        -12    1    3    3    0    0  0.16082504598E+02 -0.21874060851E+02 -0.24872772362E+02  0.36820867687E+02  0.00000000000E+00 0.  1.
         11    1    4    4    0    0 -0.10607264518E+02  0.10867344355E+02  0.10371807168E+02  0.18389878142E+02  0.51100000000E-03 0. -1.
        -11    1    4    4    0    0  0.53942087215E+01 -0.86194553490E+01  0.69052567962E+01  0.12291259900E+02  0.51100000000E-03 0.  1.
        -12    1    4    4    0    0 -0.10869448801E+02  0.19626171845E+02  0.75957083977E+01  0.23685994271E+02  0.00000000000E+00 0.  1.
</event>
<event>
 8    1  0.3186330E-007  0.9118800E+02  0.7816164E-02  0.1184000E+00
        -11   -1    0    0    0    0  0.00000000000E+00  0.00000000000E+00  0.45593999997E+02  0.45594000000E+02  0.51100000000E-03 0. -1.
         11   -1    0    0    0    0 -0.00000000000E+00 -0.00000000000E+00 -0.45593999997E+02  0.45594000000E+02  0.51100000000E-03 0.  1.
         23    2    1    2    0    0  0.66613381478E-15  0.00000000000E+00  0.00000000000E+00  0.91188000000E+02  0.91188000000E+02 0.  0.
    9900012    2    3    3    0    0  0.11157880640E+01 -0.21537385620E+02  0.29844201994E+02  0.54367077211E+02  0.39999984117E+02 0.  0.
        -12    1    3    3    0    0 -0.11157880640E+01  0.21537385620E+02 -0.29844201994E+02  0.36820922789E+02  0.00000000000E+00 0.  1.
         11    1    4    4    0    0  0.10449835504E+02 -0.54329691825E-01  0.41229087812E+01  0.11233894732E+02  0.51100000000E-03 0. -1.
        -11    1    4    4    0    0 -0.15771066428E+02 -0.44599000944E+01  0.11209130034E+02  0.19856027838E+02  0.51100000000E-03 0.  1.
        -12    1    4    4    0    0  0.64370189884E+01 -0.17023155834E+02  0.14512163179E+02  0.23277154640E+02  0.00000000000E+00 0.  1.
</event>
<event>
 8    1  0.3186330E-007  0.9118800E+02  0.7816164E-02  0.1184000E+00
        -11   -1    0    0    0    0  0.00000000000E+00  0.00000000000E+00  0.45593999997E+02  0.45594000000E+02  0.51100000000E-03 0.  1.
         11   -1    0    0    0    0 -0.00000000000E+00 -0.00000000000E+00 -0.45593999997E+02  0.45594000000E+02  0.51100000000E-03 0. -1.
         23    2    1    2    0    0  0.00000000000E+00  0.17763568394E-14  0.00000000000E+00  0.91188000000E+02  0.91188000000E+02 0.  0.
    9900012    2    3    3    0    0 -0.16161751948E+02  0.10165345442E+02  0.31484105229E+02  0.54367009301E+02  0.39999829303E+02 0.  0.
         12    1    3    3    0    0  0.16161751948E+02 -0.10165345442E+02 -0.31484105229E+02  0.36820990699E+02  0.00000000000E+00 0. -1.
         11    1    4    4    0    0 -0.18211896950E+01 -0.11785982388E+01 -0.74211908639E+01  0.77317462331E+01  0.51100000000E-03 0. -1.
        -11    1    4    4    0    0 -0.66943042885E+01 -0.35673682282E+01  0.58652912750E+01  0.95886113690E+01  0.51100000000E-03 0.  1.
         12    1    4    4    0    0 -0.76462579641E+01  0.14911311909E+02  0.33040004818E+02  0.37046651699E+02  0.00000000000E+00 0. -1.
</event>
<event>
 8    1  0.3186330E-007  0.9118800E+02  0.7816164E-02  0.1184000E+00
        -11   -1    0    0    0    0  0.00000000000E+00  0.00000000000E+00  0.45593999997E+02  0.45594000000E+02  0.51100000000E-03 0.  1.
         11   -1    0    0    0    0 -0.00000000000E+00 -0.00000000000E+00 -0.45593999997E+02  0.45594000000E+02  0.51100000000E-03 0. -1.
         23    2    1    2    0    0  0.71054273576E-14  0.00000000000E+00 -0.27755575616E-15  0.91188000000E+02  0.91188000000E+02 0.  0.
    9900012    2    3    3    0    0  0.33385109554E+02 -0.15529837091E+02 -0.19644389715E+00  0.54367082436E+02  0.39999996030E+02 0.  0.
         12    1    3    3    0    0 -0.33385109554E+02  0.15529837091E+02  0.19644389715E+00  0.36820917564E+02  0.00000000000E+00 0. -1.
         11    1    4    4    0    0  0.13434511405E+02 -0.14824326975E+02  0.48079763606E+01  0.20575796556E+02  0.51100000000E-03 0.  1.
        -11    1    4    4    0    0  0.32269718475E+01  0.11990278328E+02 -0.21423317328E+01  0.12600385201E+02  0.51100000000E-03 0. -1.
         12    1    4    4    0    0  0.16723626302E+02 -0.12695788444E+02 -0.28620885250E+01  0.21190900680E+02  0.00000000000E+00 0. -1.
</event>
<event>
 8    1  0.3186330E-007  0.9118800E+02  0.7816164E-02  0.1184000E+00
        -11   -1    0    0    0    0  0.00000000000E+00  0.00000000000E+00  0.45593999997E+02  0.45594000000E+02  0.51100000000E-03 0.  1.
         11   -1    0    0    0    0 -0.00000000000E+00 -0.00000000000E+00 -0.45593999997E+02  0.45594000000E+02  0.51100000000E-03 0. -1.
         23    2    1    2    0    0  0.00000000000E+00  0.00000000000E+00  0.00000000000E+00  0.91188000000E+02  0.91188000000E+02 0.  0.
    9900012    2    3    3    0    0  0.10121763775E+02  0.13876141765E+02  0.32569655046E+02  0.54367084177E+02  0.39999999999E+02 0.  0.
         12    1    3    3    0    0 -0.10121763775E+02 -0.13876141765E+02 -0.32569655046E+02  0.36820915823E+02  0.00000000000E+00 0. -1.
         11    1    4    4    0    0 -0.63809080527E+01  0.43312238295E+01  0.21947273490E+02  0.23262809403E+02  0.51100000000E-03 0. -1.
        -11    1    4    4    0    0  0.13559808797E+02 -0.31728150629E+01 -0.52864335271E+00  0.13936091062E+02  0.51100000000E-03 0.  1.
        -12    1    4    4    0    0  0.29428630305E+01  0.12717732999E+02  0.11151024909E+02  0.17168183712E+02  0.00000000000E+00 0.  1.
</event>
<event>
 8    1  0.3186330E-007  0.9118800E+02  0.7816164E-02  0.1184000E+00
        -11   -1    0    0    0    0  0.00000000000E+00  0.00000000000E+00  0.45593999997E+02  0.45594000000E+02  0.51100000000E-03 0. -1.
         11   -1    0    0    0    0 -0.00000000000E+00 -0.00000000000E+00 -0.45593999997E+02  0.45594000000E+02  0.51100000000E-03 0.  1.
         23    2    1    2    0    0 -0.17763568394E-14  0.71054273576E-14  0.00000000000E+00  0.91188000000E+02  0.91188000000E+02 0.  0.
    9900012    2    3    3    0    0 -0.11784706788E+02 -0.33502573605E+02 -0.97199705009E+01  0.54367087752E+02  0.40000008148E+02 0.  0.
         12    1    3    3    0    0  0.11784706788E+02  0.33502573605E+02  0.97199705009E+01  0.36820912248E+02  0.00000000000E+00 0. -1.
         11    1    4    4    0    0 -0.15253823953E+02 -0.18237135903E+02 -0.10025338756E+02  0.25802707000E+02  0.51100000000E-03 0.  1.
        -11    1    4    4    0    0  0.75125331689E+01 -0.55228822707E+01  0.10397399789E+02  0.13965897960E+02  0.51100000000E-03 0. -1.
         12    1    4    4    0    0 -0.40434160035E+01 -0.97425554320E+01 -0.10092031534E+02  0.14598482791E+02  0.00000000000E+00 0. -1.
</event>
<event>
 8    1  0.3186330E-007  0.9118800E+02  0.7816164E-02  0.1184000E+00
        -11   -1    0    0    0    0  0.00000000000E+00  0.00000000000E+00  0.45593999997E+02  0.45594000000E+02  0.51100000000E-03 0.  1.
         11   -1    0    0    0    0 -0.00000000000E+00 -0.00000000000E+00 -0.45593999997E+02  0.45594000000E+02  0.51100000000E-03 0. -1.
         23    2    1    2    0    0  0.00000000000E+00  0.17763568394E-14 -0.35527136788E-14  0.91188000000E+02  0.91188000000E+02 0.  0.
    9900012    2    3    3    0    0 -0.29762470005E+02 -0.96942203558E+01  0.19390920887E+02  0.54366941596E+02  0.39999674956E+02 0.  0.
         12    1    3    3    0    0  0.29762470005E+02  0.96942203558E+01 -0.19390920887E+02  0.36821058404E+02  0.00000000000E+00 0. -1.
         11    1    4    4    0    0 -0.19541300280E+02  0.11108664593E+02  0.12812115918E+02  0.25873058579E+02  0.51100000000E-03 0. -1.
        -11    1    4    4    0    0 -0.11989467547E+01 -0.46261149048E+00 -0.37485009810E+01  0.39626686182E+01  0.51100000000E-03 0.  1.
        -12    1    4    4    0    0 -0.90222229701E+01 -0.20340273458E+02  0.10327305950E+02  0.24531214399E+02  0.00000000000E+00 0.  1.
</event>
<event>
 8    1  0.3186330E-007  0.9118800E+02  0.7816164E-02  0.1184000E+00
        -11   -1    0    0    0    0  0.00000000000E+00  0.00000000000E+00  0.45593999997E+02  0.45594000000E+02  0.51100000000E-03 0. -1.
         11   -1    0    0    0    0 -0.00000000000E+00 -0.00000000000E+00 -0.45593999997E+02  0.45594000000E+02  0.51100000000E-03 0.  1.
         23    2    1    2    0    0 -0.18318679906E-14  0.00000000000E+00 -0.71054273576E-14  0.91188000000E+02  0.91188000000E+02 0.  0.
    9900012    2    3    3    0    0 -0.36295148737E+00  0.67550005357E+01 -0.36194169529E+02  0.54367086460E+02  0.40000005204E+02 0.  0.
         12    1    3    3    0    0  0.36295148737E+00 -0.67550005357E+01  0.36194169529E+02  0.36820913540E+02  0.00000000000E+00 0. -1.
         11    1    4    4    0    0  0.74963513332E+01 -0.25877192186E+01 -0.28249679491E+01  0.84185520275E+01  0.51100000000E-03 0. -1.
        -11    1    4    4    0    0  0.64290480669E+01 -0.19274467947E+01 -0.25059802589E+02  0.25943041770E+02  0.51100000000E-03 0.  1.
         12    1    4    4    0    0 -0.14288350887E+02  0.11270166549E+02 -0.83093989904E+01  0.20005492663E+02  0.00000000000E+00 0. -1.
</event>
<event>
 8    1  0.3186330E-007  0.9118800E+02  0.7816164E-02  0.1184000E+00
        -11   -1    0    0    0    0  0.00000000000E+00  0.00000000000E+00  0.45593999997E+02  0.45594000000E+02  0.51100000000E-03 0.  1.
         11   -1    0    0    0    0 -0.00000000000E+00 -0.00000000000E+00 -0.45593999997E+02  0.45594000000E+02  0.51100000000E-03 0. -1.
         23    2    1    2    0    0  0.00000000000E+00  0.00000000000E+00  0.00000000000E+00  0.91188000000E+02  0.91188000000E+02 0.  0.
    9900012    2    3    3    0    0  0.89279609450E+01 -0.47034645863E+01 -0.35411167596E+02  0.54367056825E+02  0.39999937645E+02 0.  0.
        -12    1    3    3    0    0 -0.89279609450E+01  0.47034645863E+01  0.35411167596E+02  0.36820943175E+02  0.00000000000E+00 0.  1.
         11    1    4    4    0    0 -0.51612990760E+01  0.51224435768E+01 -0.23342685142E+02  0.24449118312E+02  0.51100000000E-03 0. -1.
        -11    1    4    4    0    0  0.16968161160E+02  0.74659496995E-01 -0.62771750084E+01  0.18092180453E+02  0.51100000000E-03 0.  1.
         12    1    4    4    0    0 -0.28789011394E+01 -0.99005676601E+01 -0.57913074460E+01  0.11825758060E+02  0.00000000000E+00 0. -1.
</event>
<event>
 8    1  0.3186330E-007  0.9118800E+02  0.7816164E-02  0.1184000E+00
        -11   -1    0    0    0    0  0.00000000000E+00  0.00000000000E+00  0.45593999997E+02  0.45594000000E+02  0.51100000000E-03 0. -1.
         11   -1    0    0    0    0 -0.00000000000E+00 -0.00000000000E+00 -0.45593999997E+02  0.45594000000E+02  0.51100000000E-03 0.  1.
         23    2    1    2    0    0  0.00000000000E+00  0.00000000000E+00  0.00000000000E+00  0.91188000000E+02  0.91188000000E+02 0.  0.
    9900012    2    3    3    0    0 -0.24370090389E+02  0.15801704622E+02 -0.22631554151E+02  0.54367049200E+02  0.39999920261E+02 0.  0.
         12    1    3    3    0    0  0.24370090389E+02 -0.15801704622E+02  0.22631554151E+02  0.36820950800E+02  0.00000000000E+00 0. -1.
         11    1    4    4    0    0 -0.45361912111E+01 -0.55446918127E+00 -0.11639704610E+02  0.12504686740E+02  0.51100000000E-03 0.  1.
        -11    1    4    4    0    0 -0.11450897769E+02  0.13204501700E+02  0.92159242586E+01  0.19758926718E+02  0.51100000000E-03 0. -1.
         12    1    4    4    0    0 -0.83830014097E+01  0.31516721028E+01 -0.20207773799E+02  0.22103435742E+02  0.00000000000E+00 0. -1.
</event>
<event>
 8    1  0.3186330E-007  0.9118800E+02  0.7816164E-02  0.1184000E+00
        -11   -1    0    0    0    0  0.00000000000E+00  0.00000000000E+00  0.45593999997E+02  0.45594000000E+02  0.51100000000E-03 0. -1.
         11   -1    0    0    0    0 -0.00000000000E+00 -0.00000000000E+00 -0.45593999997E+02  0.45594000000E+02  0.51100000000E-03 0.  1.
         23    2    1    2    0    0 -0.17763568394E-14  0.71054273576E-14  0.00000000000E+00  0.91188000000E+02  0.91188000000E+02 0.  0.
    9900012    2    3    3    0    0 -0.13614121396E+02  0.25224788874E+02  0.23111600375E+02  0.54367077320E+02  0.39999984366E+02 0.  0.
        -12    1    3    3    0    0  0.13614121396E+02 -0.25224788874E+02 -0.23111600375E+02  0.36820922680E+02  0.00000000000E+00 0.  1.
         11    1    4    4    0    0 -0.16740731153E+02 -0.16567362191E+01  0.14646862531E+02  0.22305323057E+02  0.51100000000E-03 0. -1.
        -11    1    4    4    0    0 -0.37414682281E+01  0.22288644544E+02  0.70855311055E+01  0.23685164374E+02  0.51100000000E-03 0.  1.
         12    1    4    4    0    0  0.68680779850E+01  0.45928805492E+01  0.13792067389E+01  0.83765898895E+01  0.00000000000E+00 0. -1.
</event>
<event>
 8    1  0.3186330E-007  0.9118800E+02  0.7816164E-02  0.1184000E+00
        -11   -1    0    0    0    0  0.00000000000E+00  0.00000000000E+00  0.45593999997E+02  0.45594000000E+02  0.51100000000E-03 0. -1.
         11   -1    0    0    0    0 -0.00000000000E+00 -0.00000000000E+00 -0.45593999997E+02  0.45594000000E+02  0.51100000000E-03 0.  1.
         23    2    1    2    0    0 -0.88817841970E-15 -0.35527136788E-14 -0.71054273576E-14  0.91188000000E+02  0.91188000000E+02 0.  0.
    9900012    2    3    3    0    0 -0.53895824917E+01 -0.28987515768E+02 -0.22055732488E+02  0.54367095538E+02  0.40000025898E+02 0.  0.
         12    1    3    3    0    0  0.53895824917E+01  0.28987515768E+02  0.22055732488E+02  0.36820904462E+02  0.00000000000E+00 0. -1.
         11    1    4    4    0    0 -0.42445334409E+01  0.30990689322E+01 -0.89657994806E+01  0.10392586442E+02  0.51100000000E-03 0. -1.
        -11    1    4    4    0    0  0.62902038551E+01 -0.32775929941E+02 -0.14478560817E+02  0.36379348147E+02  0.51100000000E-03 0.  1.
         12    1    4    4    0    0 -0.74352529059E+01  0.68934524133E+00  0.13886278096E+01  0.75951609483E+01  0.00000000000E+00 0. -1.
</event>
<event>
 8    1  0.3186330E-007  0.9118800E+02  0.7816164E-02  0.1184000E+00
        -11   -1    0    0    0    0  0.00000000000E+00  0.00000000000E+00  0.45593999997E+02  0.45594000000E+02  0.51100000000E-03 0.  1.
         11   -1    0    0    0    0 -0.00000000000E+00 -0.00000000000E+00 -0.45593999997E+02  0.45594000000E+02  0.51100000000E-03 0. -1.
         23    2    1    2    0    0 -0.17763568394E-14  0.00000000000E+00 -0.35527136788E-14  0.91188000000E+02  0.91188000000E+02 0.  0.
    9900012    2    3    3    0    0 -0.14034888307E+02  0.17635812233E+02  0.29116648802E+02  0.54367092891E+02  0.40000019863E+02 0.  0.
         12    1    3    3    0    0  0.14034888307E+02 -0.17635812233E+02 -0.29116648802E+02  0.36820907109E+02  0.00000000000E+00 0. -1.
         11    1    4    4    0    0 -0.81307605481E+01 -0.10965608759E+02  0.18024980363E+01  0.13769634780E+02  0.51100000000E-03 0. -1.
        -11    1    4    4    0    0 -0.45469556703E+00  0.15131954750E+02  0.10771993487E+02  0.18580060456E+02  0.51100000000E-03 0.  1.
         12    1    4    4    0    0 -0.54494321918E+01  0.13469466242E+02  0.16542157279E+02  0.22017397655E+02  0.00000000000E+00 0. -1.
</event>
<event>
 8    1  0.3186330E-007  0.9118800E+02  0.7816164E-02  0.1184000E+00
        -11   -1    0    0    0    0  0.00000000000E+00  0.00000000000E+00  0.45593999997E+02  0.45594000000E+02  0.51100000000E-03 0. -1.
         11   -1    0    0    0    0 -0.00000000000E+00 -0.00000000000E+00 -0.45593999997E+02  0.45594000000E+02  0.51100000000E-03 0.  1.
         23    2    1    2    0    0 -0.17763568394E-14  0.00000000000E+00 -0.35527136788E-14  0.91188000000E+02  0.91188000000E+02 0.  0.
    9900012    2    3    3    0    0 -0.62424923940E+01 -0.18040329672E+02 -0.31485823640E+02  0.54367091588E+02  0.40000016894E+02 0.  0.
         12    1    3    3    0    0  0.62424923940E+01  0.18040329672E+02  0.31485823640E+02  0.36820908412E+02  0.00000000000E+00 0. -1.
         11    1    4    4    0    0 -0.45010885394E+01  0.87825359925E+01 -0.36484950327E+00  0.98755178052E+01  0.51100000000E-03 0. -1.
        -11    1    4    4    0    0 -0.42366424409E+01 -0.14502946819E+02 -0.57293761553E+01  0.16158909523E+02  0.51100000000E-03 0.  1.
         12    1    4    4    0    0  0.24952385864E+01 -0.12319918846E+02 -0.25391597982E+02  0.28332664260E+02  0.00000000000E+00 0. -1.
</event>
<event>
 8    1  0.3186330E-007  0.9118800E+02  0.7816164E-02  0.1184000E+00
        -11   -1    0    0    0    0  0.00000000000E+00  0.00000000000E+00  0.45593999997E+02  0.45594000000E+02  0.51100000000E-03 0. -1.
         11   -1    0    0    0    0 -0.00000000000E+00 -0.00000000000E+00 -0.45593999997E+02  0.45594000000E+02  0.51100000000E-03 0.  1.
         23    2    1    2    0    0  0.00000000000E+00  0.00000000000E+00  0.00000000000E+00  0.91188000000E+02  0.91188000000E+02 0.  0.
    9900012    2    3    3    0    0 -0.17193961847E+02 -0.55731572153E+01  0.32079386331E+02  0.54367089736E+02  0.40000012670E+02 0.  0.
        -12    1    3    3    0    0  0.17193961847E+02  0.55731572153E+01 -0.32079386331E+02  0.36820910264E+02  0.00000000000E+00 0.  1.
         11    1    4    4    0    0 -0.16900964659E+02 -0.23943465935E+01 -0.25076104825E+01  0.17252930551E+02  0.51100000000E-03 0. -1.
        -11    1    4    4    0    0 -0.43284589262E+01 -0.67354170152E+01  0.18722736946E+02  0.20362766955E+02  0.51100000000E-03 0.  1.
         12    1    4    4    0    0  0.40354617386E+01  0.35566063934E+01  0.15864259868E+02  0.16751392230E+02  0.00000000000E+00 0. -1.
</event>
<event>
 8    1  0.3186330E-007  0.9118800E+02  0.7816164E-02  0.1184000E+00
        -11   -1    0    0    0    0  0.00000000000E+00  0.00000000000E+00  0.45593999997E+02  0.45594000000E+02  0.51100000000E-03 0.  1.
         11   -1    0    0    0    0 -0.00000000000E+00 -0.00000000000E+00 -0.45593999997E+02  0.45594000000E+02  0.51100000000E-03 0. -1.
         23    2    1    2    0    0  0.00000000000E+00 -0.17763568394E-14  0.35527136788E-14  0.91188000000E+02  0.91188000000E+02 0.  0.
    9900012    2    3    3    0    0  0.29496496212E+02 -0.95376203270E+01  0.19868835917E+02  0.54367080254E+02  0.39999991055E+02 0.  0.
         12    1    3    3    0    0 -0.29496496212E+02  0.95376203270E+01 -0.19868835917E+02  0.36820919746E+02  0.00000000000E+00 0. -1.
         11    1    4    4    0    0  0.24887674599E+02 -0.18993650523E+02  0.16096572290E+02  0.35203050250E+02  0.51100000000E-03 0. -1.
        -11    1    4    4    0    0 -0.22332039415E+00  0.12305919628E+02  0.52217960922E+01  0.13369842355E+02  0.51100000000E-03 0.  1.
         12    1    4    4    0    0  0.48321420063E+01 -0.28498894322E+01 -0.14495324658E+01  0.57941876492E+01  0.00000000000E+00 0. -1.
</event>
<event>
 8    1  0.3186330E-007  0.9118800E+02  0.7816164E-02  0.1184000E+00
        -11   -1    0    0    0    0  0.00000000000E+00  0.00000000000E+00  0.45593999997E+02  0.45594000000E+02  0.51100000000E-03 0.  1.
         11   -1    0    0    0    0 -0.00000000000E+00 -0.00000000000E+00 -0.45593999997E+02  0.45594000000E+02  0.51100000000E-03 0. -1.
         23    2    1    2    0    0  0.88817841970E-15  0.00000000000E+00  0.00000000000E+00  0.91188000000E+02  0.91188000000E+02 0.  0.
    9900012    2    3    3    0    0 -0.55223246823E+01  0.20029977409E+02  0.30398751215E+02  0.54367080127E+02  0.39999990765E+02 0.  0.
         12    1    3    3    0    0  0.55223246823E+01 -0.20029977409E+02 -0.30398751215E+02  0.36820919873E+02  0.00000000000E+00 0. -1.
         11    1    4    4    0    0  0.26379873149E+01 -0.51596283880E+01  0.27307243247E+01  0.64060594576E+01  0.51100000000E-03 0. -1.
        -11    1    4    4    0    0 -0.40116548051E+01 -0.52521695042E+01 -0.10075052022E-01  0.66089908869E+01  0.51100000000E-03 0.  1.
        -12    1    4    4    0    0 -0.41486571921E+01  0.30441775301E+02  0.27678101942E+02  0.41352029782E+02  0.00000000000E+00 0.  1.
</event>
<event>
 8    1  0.3186330E-007  0.9118800E+02  0.7816164E-02  0.1184000E+00
        -11   -1    0    0    0    0  0.00000000000E+00  0.00000000000E+00  0.45593999997E+02  0.45594000000E+02  0.51100000000E-03 0.  1.
         11   -1    0    0    0    0 -0.00000000000E+00 -0.00000000000E+00 -0.45593999997E+02  0.45594000000E+02  0.51100000000E-03 0. -1.
         23    2    1    2    0    0  0.00000000000E+00  0.00000000000E+00  0.00000000000E+00  0.91188000000E+02  0.91188000000E+02 0.  0.
    9900012    2    3    3    0    0  0.11721137025E+02 -0.34010981664E+02  0.78517981565E+01  0.54367045895E+02  0.39999912727E+02 0.  0.
        -12    1    3    3    0    0 -0.11721137025E+02  0.34010981664E+02 -0.78517981565E+01  0.36820954105E+02  0.00000000000E+00 0.  1.
         11    1    4    4    0    0 -0.24560736371E+01  0.76973969824E+00  0.14229816480E+02  0.14460721774E+02  0.51100000000E-03 0. -1.
        -11    1    4    4    0    0  0.11159498333E+02 -0.23310535702E+02  0.11306968372E+01  0.25868783376E+02  0.51100000000E-03 0.  1.
         12    1    4    4    0    0  0.30177123291E+01 -0.11470185661E+02 -0.75087151610E+01  0.14037540745E+02  0.00000000000E+00 0. -1.
</event>
<event>
 8    1  0.3186330E-007  0.9118800E+02  0.7816164E-02  0.1184000E+00
        -11   -1    0    0    0    0  0.00000000000E+00  0.00000000000E+00  0.45593999997E+02  0.45594000000E+02  0.51100000000E-03 0. -1.
         11   -1    0    0    0    0 -0.00000000000E+00 -0.00000000000E+00 -0.45593999997E+02  0.45594000000E+02  0.51100000000E-03 0.  1.
         23    2    1    2    0    0 -0.17763568394E-14  0.00000000000E+00  0.35527136788E-14  0.91188000000E+02  0.91188000000E+02 0.  0.
    9900012    2    3    3    0    0 -0.12388045592E+02  0.15699078553E+02  0.30916918037E+02  0.54367074402E+02  0.39999977714E+02 0.  0.
        -12    1    3    3    0    0  0.12388045592E+02 -0.15699078553E+02 -0.30916918037E+02  0.36820925598E+02  0.00000000000E+00 0.  1.
         11    1    4    4    0    0  0.79394708964E+01  0.13935998972E+02  0.31517615320E+01  0.16345668125E+02  0.51100000000E-03 0. -1.
        -11    1    4    4    0    0 -0.96050119554E+01 -0.64145114039E+01  0.78308037919E+01  0.13954343392E+02  0.51100000000E-03 0.  1.
         12    1    4    4    0    0 -0.10722504533E+02  0.81775909855E+01  0.19934352713E+02  0.24067062884E+02  0.00000000000E+00 0. -1.
</event>
<event>
 8    1  0.3186330E-007  0.9118800E+02  0.7816164E-02  0.1184000E+00
        -11   -1    0    0    0    0  0.00000000000E+00  0.00000000000E+00  0.45593999997E+02  0.45594000000E+02  0.51100000000E-03 0. -1.
         11   -1    0    0    0    0 -0.00000000000E+00 -0.00000000000E+00 -0.45593999997E+02  0.45594000000E+02  0.51100000000E-03 0.  1.
         23    2    1    2    0    0  0.35527136788E-14  0.00000000000E+00  0.35527136788E-14  0.91188000000E+02  0.91188000000E+02 0.  0.
    9900012    2    3    3    0    0  0.11581886157E+02  0.18363204214E+02  0.29739530347E+02  0.54366986690E+02  0.39999777756E+02 0.  0.
        -12    1    3    3    0    0 -0.11581886157E+02 -0.18363204214E+02 -0.29739530347E+02  0.36821013310E+02  0.00000000000E+00 0.  1.
         11    1    4    4    0    0 -0.12720280260E+01  0.15482435815E+01 -0.11366833326E+01  0.23037280104E+01  0.51100000000E-03 0.  1.
        -11    1    4    4    0    0  0.23868790551E+02  0.19178397232E+02  0.21619284825E+02  0.37482309952E+02  0.51100000000E-03 0. -1.
         12    1    4    4    0    0 -0.11014876368E+02 -0.23634365996E+01  0.92569288542E+01  0.14580948727E+02  0.00000000000E+00 0. -1.
</event>
<event>
 8    1  0.3186330E-007  0.9118800E+02  0.7816164E-02  0.1184000E+00
        -11   -1    0    0    0    0  0.00000000000E+00  0.00000000000E+00  0.45593999997E+02  0.45594000000E+02  0.51100000000E-03 0. -1.
         11   -1    0    0    0    0 -0.00000000000E+00 -0.00000000000E+00 -0.45593999997E+02  0.45594000000E+02  0.51100000000E-03 0.  1.
         23    2    1    2    0    0  0.00000000000E+00  0.00000000000E+00  0.17763568394E-14  0.91188000000E+02  0.91188000000E+02 0.  0.
    9900012    2    3    3    0    0 -0.30921047070E+02 -0.15408419437E+02  0.12737717234E+02  0.54367082279E+02  0.39999995671E+02 0.  0.
        -12    1    3    3    0    0  0.30921047070E+02  0.15408419437E+02 -0.12737717234E+02  0.36820917721E+02  0.00000000000E+00 0.  1.
         11    1    4    4    0    0 -0.43459485244E+01  0.21587673591E+01  0.14265682684E+02  0.15068418888E+02  0.51100000000E-03 0.  1.
        -11    1    4    4    0    0 -0.24702376671E+02 -0.22698675614E+02  0.26755966271E+00  0.33548604684E+02  0.51100000000E-03 0. -1.
         12    1    4    4    0    0 -0.18727218752E+01  0.51314888177E+01 -0.17955251121E+01  0.57500587072E+01  0.00000000000E+00 0. -1.
</event>
<event>
 8    1  0.3186330E-007  0.9118800E+02  0.7816164E-02  0.1184000E+00
        -11   -1    0    0    0    0  0.00000000000E+00  0.00000000000E+00  0.45593999997E+02  0.45594000000E+02  0.51100000000E-03 0.  1.
         11   -1    0    0    0    0 -0.00000000000E+00 -0.00000000000E+00 -0.45593999997E+02  0.45594000000E+02  0.51100000000E-03 0. -1.
         23    2    1    2    0    0  0.35527136788E-14 -0.17763568394E-14 -0.35527136788E-14  0.91188000000E+02  0.91188000000E+02 0.  0.
    9900012    2    3    3    0    0  0.29293701536E+02 -0.11219818690E+02 -0.19281477606E+02  0.54367073073E+02  0.39999974684E+02 0.  0.
        -12    1    3    3    0    0 -0.29293701536E+02  0.11219818690E+02  0.19281477606E+02  0.36820926927E+02  0.00000000000E+00 0.  1.
         11    1    4    4    0    0 -0.84846052339E+01 -0.38509116026E+01  0.94964540146E+00  0.93658887883E+01  0.51100000000E-03 0. -1.
        -11    1    4    4    0    0  0.20314750212E+02 -0.45078673359E+00 -0.15700080385E+02  0.25678489231E+02  0.51100000000E-03 0.  1.
        -12    1    4    4    0    0  0.17463556558E+02 -0.69181203537E+01 -0.45310426223E+01  0.19322695053E+02  0.00000000000E+00 0.  1.
</event>
<event>
 8    1  0.3186330E-007  0.9118800E+02  0.7816164E-02  0.1184000E+00
        -11   -1    0    0    0    0  0.00000000000E+00  0.00000000000E+00  0.45593999997E+02  0.45594000000E+02  0.51100000000E-03 0.  1.
         11   -1    0    0    0    0 -0.00000000000E+00 -0.00000000000E+00 -0.45593999997E+02  0.45594000000E+02  0.51100000000E-03 0. -1.
         23    2    1    2    0    0  0.00000000000E+00 -0.35527136788E-14  0.00000000000E+00  0.91188000000E+02  0.91188000000E+02 0.  0.
    9900012    2    3    3    0    0 -0.12577653676E+02 -0.17913867887E+02 -0.29608698286E+02  0.54367094947E+02  0.40000024551E+02 0.  0.
        -12    1    3    3    0    0  0.12577653676E+02  0.17913867887E+02  0.29608698286E+02  0.36820905053E+02  0.00000000000E+00 0.  1.
         11    1    4    4    0    0 -0.56437882856E+01 -0.20158071086E+02 -0.13935480060E+02  0.25147520373E+02  0.51100000000E-03 0. -1.
        -11    1    4    4    0    0 -0.54058879752E+00 -0.10279390088E+02 -0.43879279227E+01  0.11189817181E+02  0.51100000000E-03 0.  1.
         12    1    4    4    0    0 -0.63932765934E+01  0.12523593287E+02 -0.11285290303E+02  0.18029757393E+02  0.00000000000E+00 0. -1.
</event>
<event>
 8    1  0.3186330E-007  0.9118800E+02  0.7816164E-02  0.1184000E+00
        -11   -1    0    0    0    0  0.00000000000E+00  0.00000000000E+00  0.45593999997E+02  0.45594000000E+02  0.51100000000E-03 0.  1.
         11   -1    0    0    0    0 -0.00000000000E+00 -0.00000000000E+00 -0.45593999997E+02  0.45594000000E+02  0.51100000000E-03 0. -1.
         23    2    1    2    0    0  0.00000000000E+00  0.00000000000E+00  0.35527136788E-14  0.91188000000E+02  0.91188000000E+02 0.  0.
    9900012    2    3    3    0    0 -0.22248169186E+01  0.31875913729E+02 -0.18296347816E+02  0.54367081627E+02  0.39999994186E+02 0.  0.
        -12    1    3    3    0    0  0.22248169186E+01 -0.31875913729E+02  0.18296347816E+02  0.36820918373E+02  0.00000000000E+00 0.  1.
         11    1    4    4    0    0 -0.11470220289E+01  0.14209346070E+02 -0.72410541834E+01  0.15989185133E+02  0.51100000000E-03 0. -1.
        -11    1    4    4    0    0  0.47216268433E+01 -0.86219477466E+01 -0.28835644083E+01  0.10244349025E+02  0.51100000000E-03 0.  1.
        -12    1    4    4    0    0 -0.57994217330E+01  0.26288515406E+02 -0.81717292240E+01  0.28133547469E+02  0.00000000000E+00 0.  1.
</event>
<event>
 8    1  0.3186330E-007  0.9118800E+02  0.7816164E-02  0.1184000E+00
        -11   -1    0    0    0    0  0.00000000000E+00  0.00000000000E+00  0.45593999997E+02  0.45594000000E+02  0.51100000000E-03 0. -1.
         11   -1    0    0    0    0 -0.00000000000E+00 -0.00000000000E+00 -0.45593999997E+02  0.45594000000E+02  0.51100000000E-03 0.  1.
         23    2    1    2    0    0 -0.35527136788E-14  0.88817841970E-15 -0.35527136788E-14  0.91188000000E+02  0.91188000000E+02 0.  0.
    9900012    2    3    3    0    0 -0.20292007356E+02  0.69715964659E+01 -0.29923429738E+02  0.54367077047E+02  0.39999983744E+02 0.  0.
         12    1    3    3    0    0  0.20292007356E+02 -0.69715964659E+01  0.29923429738E+02  0.36820922953E+02  0.00000000000E+00 0. -1.
         11    1    4    4    0    0 -0.98170636613E+01 -0.11384464856E+02 -0.80301541311E+01  0.17043008966E+02  0.51100000000E-03 0. -1.
        -11    1    4    4    0    0 -0.15061237062E+02  0.13203267818E+02 -0.22820852525E+02  0.30363768757E+02  0.51100000000E-03 0.  1.
        -12    1    4    4    0    0  0.45862933674E+01  0.51527935036E+01  0.92757691774E+00  0.69602993241E+01  0.00000000000E+00 0.  1.
</event>
<event>
 8    1  0.3186330E-007  0.9118800E+02  0.7816164E-02  0.1184000E+00
        -11   -1    0    0    0    0  0.00000000000E+00  0.00000000000E+00  0.45593999997E+02  0.45594000000E+02  0.51100000000E-03 0.  1.
         11   -1    0    0    0    0 -0.00000000000E+00 -0.00000000000E+00 -0.45593999997E+02  0.45594000000E+02  0.51100000000E-03 0. -1.
         23    2    1    2    0    0  0.00000000000E+00  0.35527136788E-14  0.17763568394E-14  0.91188000000E+02  0.91188000000E+02 0.  0.
    9900012    2    3    3    0    0 -0.24528246602E+02  0.24136842944E+02  0.13098009287E+02  0.54367083173E+02  0.39999997709E+02 0.  0.
         12    1    3    3    0    0  0.24528246602E+02 -0.24136842944E+02 -0.13098009287E+02  0.36820916827E+02  0.00000000000E+00 0. -1.
         11    1    4    4    0    0  0.68158532863E+01  0.14684510291E+02  0.10507419268E+02  0.19300169907E+02  0.51100000000E-03 0. -1.
        -11    1    4    4    0    0 -0.25331384067E+01 -0.28773144570E+00  0.38619126440E+01  0.46275208377E+01  0.51100000000E-03 0.  1.
         12    1    4    4    0    0 -0.28810961482E+02  0.97400640990E+01 -0.12713226255E+01  0.30439392428E+02  0.00000000000E+00 0. -1.
</event>
<event>
 8    1  0.3186330E-007  0.9118800E+02  0.7816164E-02  0.1184000E+00
        -11   -1    0    0    0    0  0.00000000000E+00  0.00000000000E+00  0.45593999997E+02  0.45594000000E+02  0.51100000000E-03 0. -1.
         11   -1    0    0    0    0 -0.00000000000E+00 -0.00000000000E+00 -0.45593999997E+02  0.45594000000E+02  0.51100000000E-03 0.  1.
         23    2    1    2    0    0 -0.44408920985E-15  0.00000000000E+00  0.00000000000E+00  0.91188000000E+02  0.91188000000E+02 0.  0.
    9900012    2    3    3    0    0  0.34062697339E+01  0.35211763967E+02  0.10213183929E+02  0.54367080387E+02  0.39999991358E+02 0.  0.
         12    1    3    3    0    0 -0.34062697339E+01 -0.35211763967E+02 -0.10213183929E+02  0.36820919613E+02  0.00000000000E+00 0. -1.
         11    1    4    4    0    0 -0.45482831320E+01  0.10569187371E+02  0.12055503525E+02  0.16665226270E+02  0.51100000000E-03 0. -1.
        -11    1    4    4    0    0  0.93673551890E+01 -0.30981667104E+01 -0.93064264203E+00  0.99102006130E+01  0.51100000000E-03 0.  1.
        -12    1    4    4    0    0 -0.14128023232E+01  0.27740743306E+02 -0.91167695438E+00  0.27791653504E+02  0.00000000000E+00 0.  1.
</event>
<event>
 8    1  0.3186330E-007  0.9118800E+02  0.7816164E-02  0.1184000E+00
        -11   -1    0    0    0    0  0.00000000000E+00  0.00000000000E+00  0.45593999997E+02  0.45594000000E+02  0.51100000000E-03 0.  1.
         11   -1    0    0    0    0 -0.00000000000E+00 -0.00000000000E+00 -0.45593999997E+02  0.45594000000E+02  0.51100000000E-03 0. -1.
         23    2    1    2    0    0  0.00000000000E+00  0.00000000000E+00 -0.88817841970E-15  0.91188000000E+02  0.91188000000E+02 0.  0.
    9900012    2    3    3    0    0  0.26215207238E+02  0.25095807965E+02 -0.62242333964E+01  0.54367112595E+02  0.40000064782E+02 0.  0.
        -12    1    3    3    0    0 -0.26215207238E+02 -0.25095807965E+02  0.62242333964E+01  0.36820887405E+02  0.00000000000E+00 0.  1.
         11    1    4    4    0    0 -0.48159734457E+01 -0.31388975870E+01 -0.17061005032E+01  0.59964203888E+01  0.51100000000E-03 0. -1.
        -11    1    4    4    0    0  0.45768816130E+01  0.33209137587E+01 -0.10129450077E+02  0.11600951367E+02  0.51100000000E-03 0.  1.
        -12    1    4    4    0    0  0.26454299071E+02  0.24913791793E+02  0.56113171837E+01  0.36769740839E+02  0.00000000000E+00 0.  1.
</event>
<event>
 8    1  0.3186330E-007  0.9118800E+02  0.7816164E-02  0.1184000E+00
        -11   -1    0    0    0    0  0.00000000000E+00  0.00000000000E+00  0.45593999997E+02  0.45594000000E+02  0.51100000000E-03 0.  1.
         11   -1    0    0    0    0 -0.00000000000E+00 -0.00000000000E+00 -0.45593999997E+02  0.45594000000E+02  0.51100000000E-03 0. -1.
         23    2    1    2    0    0  0.00000000000E+00 -0.17763568394E-14 -0.35527136788E-14  0.91188000000E+02  0.91188000000E+02 0.  0.
    9900012    2    3    3    0    0 -0.30199676384E+02 -0.81230545262E+01 -0.19436431547E+02  0.54367090997E+02  0.40000015545E+02 0.  0.
        -12    1    3    3    0    0  0.30199676384E+02  0.81230545262E+01  0.19436431547E+02  0.36820909003E+02  0.00000000000E+00 0.  1.
         11    1    4    4    0    0 -0.14293485541E+02 -0.16629007845E+02 -0.13401423131E+02  0.25698750418E+02  0.51100000000E-03 0. -1.
        -11    1    4    4    0    0  0.19287085444E+01  0.95428245219E+01 -0.45358141848E+01  0.10740531974E+02  0.51100000000E-03 0.  1.
        -12    1    4    4    0    0 -0.17834899387E+02 -0.10368712030E+01 -0.14991942320E+01  0.17927808605E+02  0.00000000000E+00 0.  1.
</event>
<event>
 8    1  0.3186330E-007  0.9118800E+02  0.7816164E-02  0.1184000E+00
        -11   -1    0    0    0    0  0.00000000000E+00  0.00000000000E+00  0.45593999997E+02  0.45594000000E+02  0.51100000000E-03 0.  1.
         11   -1    0    0    0    0 -0.00000000000E+00 -0.00000000000E+00 -0.45593999997E+02  0.45594000000E+02  0.51100000000E-03 0. -1.
         23    2    1    2    0    0  0.00000000000E+00  0.35527136788E-14 -0.35527136788E-14  0.91188000000E+02  0.91188000000E+02 0.  0.
    9900012    2    3    3    0    0 -0.13034104430E+02  0.26770356789E+02 -0.21662002054E+02  0.54367051970E+02  0.39999926575E+02 0.  0.
        -12    1    3    3    0    0  0.13034104430E+02 -0.26770356789E+02  0.21662002054E+02  0.36820948030E+02  0.00000000000E+00 0.  1.
         11    1    4    4    0    0  0.86212972563E+01  0.82453692936E+01  0.33883317066E+01  0.12401357715E+02  0.51100000000E-03 0. -1.
        -11    1    4    4    0    0 -0.93729869908E+01 -0.21404787286E+01 -0.66000392848E+01  0.11661691693E+02  0.51100000000E-03 0.  1.
         12    1    4    4    0    0 -0.12282414696E+02  0.20665466224E+02 -0.18450294476E+02  0.30304002561E+02  0.00000000000E+00 0. -1.
</event>
<event>
 8    1  0.3186330E-007  0.9118800E+02  0.7816164E-02  0.1184000E+00
        -11   -1    0    0    0    0  0.00000000000E+00  0.00000000000E+00  0.45593999997E+02  0.45594000000E+02  0.51100000000E-03 0.  1.
         11   -1    0    0    0    0 -0.00000000000E+00 -0.00000000000E+00 -0.45593999997E+02  0.45594000000E+02  0.51100000000E-03 0. -1.
         23    2    1    2    0    0  0.35527136788E-14  0.00000000000E+00  0.35527136788E-14  0.91188000000E+02  0.91188000000E+02 0.  0.
    9900012    2    3    3    0    0 -0.26920818786E+02 -0.11504830999E+02 -0.22331363509E+02  0.54367062795E+02  0.39999951254E+02 0.  0.
        -12    1    3    3    0    0  0.26920818786E+02  0.11504830999E+02  0.22331363509E+02  0.36820937205E+02  0.00000000000E+00 0.  1.
         11    1    4    4    0    0  0.57486988345E+01 -0.48923262905E+01 -0.21583440927E+01  0.78511683402E+01  0.51100000000E-03 0. -1.
        -11    1    4    4    0    0  0.40387985743E+01  0.11165608183E+01 -0.35196226962E+01  0.54723254810E+01  0.51100000000E-03 0.  1.
         12    1    4    4    0    0 -0.36708316195E+02 -0.77290655271E+01 -0.16653396720E+02  0.41043568974E+02  0.00000000000E+00 0. -1.
</event>
<event>
 8    1  0.3186330E-007  0.9118800E+02  0.7816164E-02  0.1184000E+00
        -11   -1    0    0    0    0  0.00000000000E+00  0.00000000000E+00  0.45593999997E+02  0.45594000000E+02  0.51100000000E-03 0.  1.
         11   -1    0    0    0    0 -0.00000000000E+00 -0.00000000000E+00 -0.45593999997E+02  0.45594000000E+02  0.51100000000E-03 0. -1.
         23    2    1    2    0    0 -0.17763568394E-14 -0.35527136788E-14  0.17763568394E-14  0.91188000000E+02  0.91188000000E+02 0.  0.
    9900012    2    3    3    0    0  0.11740303060E+02 -0.31944017645E+02  0.14054346645E+02  0.54367086936E+02  0.40000006288E+02 0.  0.
         12    1    3    3    0    0 -0.11740303060E+02  0.31944017645E+02 -0.14054346645E+02  0.36820913064E+02  0.00000000000E+00 0. -1.
         11    1    4    4    0    0 -0.68763032807E+01  0.31828817352E+01  0.13188808386E+01  0.76911462004E+01  0.51100000000E-03 0. -1.
        -11    1    4    4    0    0  0.22947681019E+02 -0.31663045409E+02  0.12749046656E+02  0.41130070503E+02  0.51100000000E-03 0.  1.
        -12    1    4    4    0    0 -0.43310746777E+01 -0.34638539712E+01 -0.13580849436E-01  0.55458702326E+01  0.00000000000E+00 0.  1.
</event>
<event>
 8    1  0.3186330E-007  0.9118800E+02  0.7816164E-02  0.1184000E+00
        -11   -1    0    0    0    0  0.00000000000E+00  0.00000000000E+00  0.45593999997E+02  0.45594000000E+02  0.51100000000E-03 0. -1.
         11   -1    0    0    0    0 -0.00000000000E+00 -0.00000000000E+00 -0.45593999997E+02  0.45594000000E+02  0.51100000000E-03 0.  1.
         23    2    1    2    0    0 -0.35527136788E-14  0.00000000000E+00  0.00000000000E+00  0.91188000000E+02  0.91188000000E+02 0.  0.
    9900012    2    3    3    0    0  0.29015539483E+02  0.14784688613E+02 -0.17184002037E+02  0.54367102742E+02  0.40000042320E+02 0.  0.
         12    1    3    3    0    0 -0.29015539483E+02 -0.14784688613E+02  0.17184002037E+02  0.36820897258E+02  0.00000000000E+00 0. -1.
         11    1    4    4    0    0  0.10413554744E+02 -0.11265848079E+02 -0.87316735519E+01  0.17652296696E+02  0.51100000000E-03 0. -1.
        -11    1    4    4    0    0  0.10672991276E+02  0.61605919417E+01  0.26357028789E+01  0.12602085771E+02  0.51100000000E-03 0.  1.
        -12    1    4    4    0    0  0.79289934633E+01  0.19889944751E+02 -0.11088031364E+02  0.24112720275E+02  0.00000000000E+00 0.  1.
</event>
<event>
 8    1  0.3186330E-007  0.9118800E+02  0.7816164E-02  0.1184000E+00
        -11   -1    0    0    0    0  0.00000000000E+00  0.00000000000E+00  0.45593999997E+02  0.45594000000E+02  0.51100000000E-03 0. -1.
         11   -1    0    0    0    0 -0.00000000000E+00 -0.00000000000E+00 -0.45593999997E+02  0.45594000000E+02  0.51100000000E-03 0.  1.
         23    2    1    2    0    0  0.14210854715E-13 -0.17763568394E-14  0.17763568394E-14  0.91188000000E+02  0.91188000000E+02 0.  0.
    9900012    2    3    3    0    0  0.34315518490E+02 -0.79305843617E+01  0.10739177867E+02  0.54367096714E+02  0.40000028578E+02 0.  0.
         12    1    3    3    0    0 -0.34315518490E+02  0.79305843617E+01 -0.10739177867E+02  0.36820903286E+02  0.00000000000E+00 0. -1.
         11    1    4    4    0    0  0.17826710105E+01 -0.31002502390E+01  0.10035559442E+02  0.10653728036E+02  0.51100000000E-03 0. -1.
        -11    1    4    4    0    0  0.35433478485E+02 -0.82713301331E+01 -0.46918585654E+01  0.36687325288E+02  0.51100000000E-03 0.  1.
         12    1    4    4    0    0 -0.29006310055E+01  0.34409960104E+01  0.53954769899E+01  0.70260433903E+01  0.00000000000E+00 0. -1.
</event>
<event>
 8    1  0.3186330E-007  0.9118800E+02  0.7816164E-02  0.1184000E+00
        -11   -1    0    0    0    0  0.00000000000E+00  0.00000000000E+00  0.45593999997E+02  0.45594000000E+02  0.51100000000E-03 0. -1.
         11   -1    0    0    0    0 -0.00000000000E+00 -0.00000000000E+00 -0.45593999997E+02  0.45594000000E+02  0.51100000000E-03 0.  1.
         23    2    1    2    0    0  0.17763568394E-14  0.35527136788E-14  0.00000000000E+00  0.91188000000E+02  0.91188000000E+02 0.  0.
    9900012    2    3    3    0    0 -0.10286547599E+02 -0.31560599035E+02 -0.15934115884E+02  0.54367074945E+02  0.39999978952E+02 0.  0.
         12    1    3    3    0    0  0.10286547599E+02  0.31560599035E+02  0.15934115884E+02  0.36820925055E+02  0.00000000000E+00 0. -1.
         11    1    4    4    0    0 -0.13338245833E+02 -0.15309130006E+02 -0.95733002198E+01  0.22448303740E+02  0.51100000000E-03 0.  1.
        -11    1    4    4    0    0  0.71228893987E+01 -0.18660837690E+01  0.82198245712E+01  0.11035548843E+02  0.51100000000E-03 0. -1.
         12    1    4    4    0    0 -0.40711911642E+01 -0.14385385260E+02 -0.14580640235E+02  0.20883222362E+02  0.00000000000E+00 0. -1.
</event>
<event>
 8    1  0.3186330E-007  0.9118800E+02  0.7816164E-02  0.1184000E+00
        -11   -1    0    0    0    0  0.00000000000E+00  0.00000000000E+00  0.45593999997E+02  0.45594000000E+02  0.51100000000E-03 0. -1.
         11   -1    0    0    0    0 -0.00000000000E+00 -0.00000000000E+00 -0.45593999997E+02  0.45594000000E+02  0.51100000000E-03 0.  1.
         23    2    1    2    0    0 -0.88817841970E-15  0.00000000000E+00 -0.17763568394E-14  0.91188000000E+02  0.91188000000E+02 0.  0.
    9900012    2    3    3    0    0 -0.60536117352E+01 -0.33237646072E+02  0.14642139163E+02  0.54367087861E+02  0.40000008397E+02 0.  0.
        -12    1    3    3    0    0  0.60536117352E+01  0.33237646072E+02 -0.14642139163E+02  0.36820912139E+02  0.00000000000E+00 0.  1.
         11    1    4    4    0    0  0.10349033449E+02  0.14056626825E+01  0.10878198702E+01  0.10500558710E+02  0.51100000000E-03 0.  1.
        -11    1    4    4    0    0  0.33529325074E+01 -0.35685540008E+01  0.15242707581E+01  0.51283657885E+01  0.51100000000E-03 0. -1.
         12    1    4    4    0    0 -0.19755577691E+02 -0.31074754754E+02  0.12030048535E+02  0.38738163362E+02  0.00000000000E+00 0. -1.
</event>
<event>
 8    1  0.3186330E-007  0.9118800E+02  0.7816164E-02  0.1184000E+00
        -11   -1    0    0    0    0  0.00000000000E+00  0.00000000000E+00  0.45593999997E+02  0.45594000000E+02  0.51100000000E-03 0. -1.
         11   -1    0    0    0    0 -0.00000000000E+00 -0.00000000000E+00 -0.45593999997E+02  0.45594000000E+02  0.51100000000E-03 0.  1.
         23    2    1    2    0    0 -0.35527136788E-14 -0.17763568394E-14  0.00000000000E+00  0.91188000000E+02  0.91188000000E+02 0.  0.
    9900012    2    3    3    0    0 -0.16709615528E+02  0.14372041523E+02  0.29495904136E+02  0.54367147356E+02  0.40000144027E+02 0.  0.
        -12    1    3    3    0    0  0.16709615528E+02 -0.14372041523E+02 -0.29495904136E+02  0.36820852644E+02  0.00000000000E+00 0.  1.
         11    1    4    4    0    0 -0.20813401525E+01  0.36986065815E+01  0.92492633901E+01  0.10176469967E+02  0.51100000000E-03 0. -1.
        -11    1    4    4    0    0 -0.61123874568E+01  0.23142124348E+02  0.14785425615E+02  0.28134107603E+02  0.51100000000E-03 0.  1.
         12    1    4    4    0    0 -0.85158879189E+01 -0.12468689406E+02  0.54612151311E+01  0.16056569785E+02  0.00000000000E+00 0. -1.
</event>
<event>
 8    1  0.3186330E-007  0.9118800E+02  0.7816164E-02  0.1184000E+00
        -11   -1    0    0    0    0  0.00000000000E+00  0.00000000000E+00  0.45593999997E+02  0.45594000000E+02  0.51100000000E-03 0. -1.
         11   -1    0    0    0    0 -0.00000000000E+00 -0.00000000000E+00 -0.45593999997E+02  0.45594000000E+02  0.51100000000E-03 0.  1.
         23    2    1    2    0    0  0.00000000000E+00 -0.35527136788E-14  0.00000000000E+00  0.91188000000E+02  0.91188000000E+02 0.  0.
    9900012    2    3    3    0    0 -0.17211660160E+02 -0.31829450196E+02 -0.68135638377E+01  0.54367084783E+02  0.40000001380E+02 0.  0.
        -12    1    3    3    0    0  0.17211660160E+02  0.31829450196E+02  0.68135638377E+01  0.36820915217E+02  0.00000000000E+00 0.  1.
         11    1    4    4    0    0 -0.11856788337E+02 -0.25320725644E+02 -0.97474895771E+00  0.27976288399E+02  0.51100000000E-03 0. -1.
        -11    1    4    4    0    0 -0.10197853870E+02 -0.14708644200E+01 -0.12864170207E+02  0.16481703222E+02  0.51100000000E-03 0.  1.
        -12    1    4    4    0    0  0.48429820475E+01 -0.50378601324E+01  0.70253553273E+01  0.99090931624E+01  0.00000000000E+00 0.  1.
</event>
<event>
 8    1  0.3186330E-007  0.9118800E+02  0.7816164E-02  0.1184000E+00
        -11   -1    0    0    0    0  0.00000000000E+00  0.00000000000E+00  0.45593999997E+02  0.45594000000E+02  0.51100000000E-03 0. -1.
         11   -1    0    0    0    0 -0.00000000000E+00 -0.00000000000E+00 -0.45593999997E+02  0.45594000000E+02  0.51100000000E-03 0.  1.
         23    2    1    2    0    0  0.00000000000E+00  0.00000000000E+00 -0.71054273576E-14  0.91188000000E+02  0.91188000000E+02 0.  0.
    9900012    2    3    3    0    0 -0.12549569604E+02  0.77469033790E+01  0.33738291768E+02  0.54367101850E+02  0.40000040286E+02 0.  0.
        -12    1    3    3    0    0  0.12549569604E+02 -0.77469033790E+01 -0.33738291768E+02  0.36820898150E+02  0.00000000000E+00 0.  1.
         11    1    4    4    0    0 -0.71283795899E+01 -0.15770699027E+01  0.15511538804E+02  0.17143768005E+02  0.51100000000E-03 0. -1.
        -11    1    4    4    0    0  0.57458941667E+01 -0.39847219324E+01 -0.47240045831E+01  0.84385738259E+01  0.51100000000E-03 0.  1.
        -12    1    4    4    0    0 -0.11167084181E+02  0.13308695214E+02  0.22950757546E+02  0.28784760019E+02  0.00000000000E+00 0.  1.
</event>
<event>
 8    1  0.3186330E-007  0.9118800E+02  0.7816164E-02  0.1184000E+00
        -11   -1    0    0    0    0  0.00000000000E+00  0.00000000000E+00  0.45593999997E+02  0.45594000000E+02  0.51100000000E-03 0.  1.
         11   -1    0    0    0    0 -0.00000000000E+00 -0.00000000000E+00 -0.45593999997E+02  0.45594000000E+02  0.51100000000E-03 0. -1.
         23    2    1    2    0    0  0.00000000000E+00  0.00000000000E+00  0.00000000000E+00  0.91188000000E+02  0.91188000000E+02 0.  0.
    9900012    2    3    3    0    0  0.21329312591E+02 -0.26949660916E+02  0.13211990928E+02  0.54367075197E+02  0.39999979527E+02 0.  0.
         12    1    3    3    0    0 -0.21329312591E+02  0.26949660916E+02 -0.13211990928E+02  0.36820924803E+02  0.00000000000E+00 0. -1.
         11    1    4    4    0    0  0.12450969447E+02 -0.19234356445E+01 -0.52080122455E+01  0.13632667995E+02  0.51100000000E-03 0.  1.
        -11    1    4    4    0    0  0.56701407573E+01  0.37848298760E+01  0.93690170868E+00  0.68813674855E+01  0.51100000000E-03 0. -1.
        -12    1    4    4    0    0  0.32082023867E+01 -0.28811055147E+02  0.17483101465E+02  0.33853039717E+02  0.00000000000E+00 0.  1.
</event>
<event>
 8    1  0.3186330E-007  0.9118800E+02  0.7816164E-02  0.1184000E+00
        -11   -1    0    0    0    0  0.00000000000E+00  0.00000000000E+00  0.45593999997E+02  0.45594000000E+02  0.51100000000E-03 0. -1.
         11   -1    0    0    0    0 -0.00000000000E+00 -0.00000000000E+00 -0.45593999997E+02  0.45594000000E+02  0.51100000000E-03 0.  1.
         23    2    1    2    0    0  0.00000000000E+00 -0.35527136788E-14  0.00000000000E+00  0.91188000000E+02  0.91188000000E+02 0.  0.
    9900012    2    3    3    0    0  0.29222914170E+02  0.20821397252E+02  0.82624749849E+01  0.54367112056E+02  0.40000063555E+02 0.  0.
        -12    1    3    3    0    0 -0.29222914170E+02 -0.20821397252E+02 -0.82624749849E+01  0.36820887944E+02  0.00000000000E+00 0.  1.
         11    1    4    4    0    0  0.14352931325E+02  0.20048524363E+02 -0.22905461066E+01  0.24762806151E+02  0.51100000000E-03 0. -1.
        -11    1    4    4    0    0  0.86663895937E+00  0.90537744653E+01 -0.16807549375E+01  0.92491530734E+01  0.51100000000E-03 0.  1.
        -12    1    4    4    0    0  0.14003343885E+02 -0.82809015762E+01  0.12233776029E+02  0.20355152832E+02  0.00000000000E+00 0.  1.
</event>
<event>
 8    1  0.3186330E-007  0.9118800E+02  0.7816164E-02  0.1184000E+00
        -11   -1    0    0    0    0  0.00000000000E+00  0.00000000000E+00  0.45593999997E+02  0.45594000000E+02  0.51100000000E-03 0.  1.
         11   -1    0    0    0    0 -0.00000000000E+00 -0.00000000000E+00 -0.45593999997E+02  0.45594000000E+02  0.51100000000E-03 0. -1.
         23    2    1    2    0    0  0.00000000000E+00  0.35527136788E-14 -0.88817841970E-15  0.91188000000E+02  0.91188000000E+02 0.  0.
    9900012    2    3    3    0    0 -0.22844827762E+02  0.28537591602E+02 -0.44163896892E+01  0.54367017017E+02  0.39999846894E+02 0.  0.
        -12    1    3    3    0    0  0.22844827762E+02 -0.28537591602E+02  0.44163896892E+01  0.36820982983E+02  0.00000000000E+00 0.  1.
         11    1    4    4    0    0 -0.48698733905E+01  0.44429146788E+01 -0.38489525330E+01  0.76334522691E+01  0.51100000000E-03 0. -1.
        -11    1    4    4    0    0  0.83546179594E+01  0.15832620928E+01 -0.75781364822E+01  0.11390105922E+02  0.51100000000E-03 0.  1.
        -12    1    4    4    0    0 -0.26329572331E+02  0.22511414830E+02  0.70106993259E+01  0.35343458827E+02  0.00000000000E+00 0.  1.
</event>
<event>
 8    1  0.3186330E-007  0.9118800E+02  0.7816164E-02  0.1184000E+00
        -11   -1    0    0    0    0  0.00000000000E+00  0.00000000000E+00  0.45593999997E+02  0.45594000000E+02  0.51100000000E-03 0.  1.
         11   -1    0    0    0    0 -0.00000000000E+00 -0.00000000000E+00 -0.45593999997E+02  0.45594000000E+02  0.51100000000E-03 0. -1.
         23    2    1    2    0    0  0.00000000000E+00  0.00000000000E+00  0.00000000000E+00  0.91188000000E+02  0.91188000000E+02 0.  0.
    9900012    2    3    3    0    0  0.16233931618E+02 -0.36366112708E+01 -0.32848355743E+02  0.54367082679E+02  0.39999996583E+02 0.  0.
        -12    1    3    3    0    0 -0.16233931618E+02  0.36366112708E+01  0.32848355743E+02  0.36820917321E+02  0.00000000000E+00 0.  1.
         11    1    4    4    0    0  0.38331580965E+01  0.48595953989E+01 -0.51589322628E+01  0.80575027637E+01  0.51100000000E-03 0. -1.
        -11    1    4    4    0    0 -0.92025274753E+01 -0.10904584067E+02 -0.56281902371E+01  0.15338611124E+02  0.51100000000E-03 0.  1.
         12    1    4    4    0    0  0.21603300997E+02  0.24083773969E+01 -0.22061233243E+02  0.30970968791E+02  0.00000000000E+00 0. -1.
</event>
<event>
 8    1  0.3186330E-007  0.9118800E+02  0.7816164E-02  0.1184000E+00
        -11   -1    0    0    0    0  0.00000000000E+00  0.00000000000E+00  0.45593999997E+02  0.45594000000E+02  0.51100000000E-03 0.  1.
         11   -1    0    0    0    0 -0.00000000000E+00 -0.00000000000E+00 -0.45593999997E+02  0.45594000000E+02  0.51100000000E-03 0. -1.
         23    2    1    2    0    0  0.11102230246E-14  0.00000000000E+00  0.35527136788E-14  0.91188000000E+02  0.91188000000E+02 0.  0.
    9900012    2    3    3    0    0 -0.15616615521E+01 -0.27306493828E+02  0.24651514480E+02  0.54367074453E+02  0.39999977831E+02 0.  0.
         12    1    3    3    0    0  0.15616615521E+01  0.27306493828E+02 -0.24651514480E+02  0.36820925547E+02  0.00000000000E+00 0. -1.
         11    1    4    4    0    0  0.12009818376E+02 -0.17933834017E+02  0.20201633543E+02  0.29562884467E+02  0.51100000000E-03 0. -1.
        -11    1    4    4    0    0 -0.73150584117E+01 -0.12632394122E+02  0.82743544233E+01  0.16779523301E+02  0.51100000000E-03 0.  1.
         12    1    4    4    0    0 -0.62564215161E+01  0.32597343112E+01 -0.38244734863E+01  0.80246666856E+01  0.00000000000E+00 0. -1.
</event>
<event>
 8    1  0.3186330E-007  0.9118800E+02  0.7816164E-02  0.1184000E+00
        -11   -1    0    0    0    0  0.00000000000E+00  0.00000000000E+00  0.45593999997E+02  0.45594000000E+02  0.51100000000E-03 0.  1.
         11   -1    0    0    0    0 -0.00000000000E+00 -0.00000000000E+00 -0.45593999997E+02  0.45594000000E+02  0.51100000000E-03 0. -1.
         23    2    1    2    0    0  0.71054273576E-14  0.17763568394E-14  0.17763568394E-14  0.91188000000E+02  0.91188000000E+02 0.  0.
    9900012    2    3    3    0    0 -0.33304953054E+02 -0.73693613310E+01 -0.13865497219E+02  0.54367090214E+02  0.40000013761E+02 0.  0.
         12    1    3    3    0    0  0.33304953054E+02  0.73693613310E+01  0.13865497219E+02  0.36820909786E+02  0.00000000000E+00 0. -1.
         11    1    4    4    0    0 -0.18304336408E+02 -0.13132903859E+02 -0.13120959779E+02  0.26070701580E+02  0.51100000000E-03 0. -1.
        -11    1    4    4    0    0 -0.17780160521E+02  0.56621893826E+01 -0.81677119011E+01  0.20369241879E+02  0.51100000000E-03 0.  1.
        -12    1    4    4    0    0  0.27795438748E+01  0.10135314538E+00  0.74231744607E+01  0.79271467557E+01  0.00000000000E+00 0.  1.
</event>
<event>
 8    1  0.3186330E-007  0.9118800E+02  0.7816164E-02  0.1184000E+00
        -11   -1    0    0    0    0  0.00000000000E+00  0.00000000000E+00  0.45593999997E+02  0.45594000000E+02  0.51100000000E-03 0. -1.
         11   -1    0    0    0    0 -0.00000000000E+00 -0.00000000000E+00 -0.45593999997E+02  0.45594000000E+02  0.51100000000E-03 0.  1.
         23    2    1    2    0    0  0.00000000000E+00  0.35527136788E-14  0.00000000000E+00  0.91188000000E+02  0.91188000000E+02 0.  0.
    9900012    2    3    3    0    0 -0.21666399902E+02  0.22246556512E+02 -0.19784746314E+02  0.54367104464E+02  0.40000046246E+02 0.  0.
         12    1    3    3    0    0  0.21666399902E+02 -0.22246556512E+02  0.19784746314E+02  0.36820895536E+02  0.00000000000E+00 0. -1.
         11    1    4    4    0    0 -0.69938241466E+01 -0.12059531655E+01  0.91718645840E+00  0.71560555121E+01  0.51100000000E-03 0. -1.
        -11    1    4    4    0    0 -0.19935031444E+02  0.13749943750E+02 -0.53721271783E+00  0.24223026846E+02  0.51100000000E-03 0.  1.
         12    1    4    4    0    0  0.52624556884E+01  0.97025659279E+01 -0.20164720055E+02  0.22988022106E+02  0.00000000000E+00 0. -1.
</event>
<event>
 8    1  0.3186330E-007  0.9118800E+02  0.7816164E-02  0.1184000E+00
        -11   -1    0    0    0    0  0.00000000000E+00  0.00000000000E+00  0.45593999997E+02  0.45594000000E+02  0.51100000000E-03 0.  1.
         11   -1    0    0    0    0 -0.00000000000E+00 -0.00000000000E+00 -0.45593999997E+02  0.45594000000E+02  0.51100000000E-03 0. -1.
         23    2    1    2    0    0  0.00000000000E+00  0.00000000000E+00  0.35527136788E-14  0.91188000000E+02  0.91188000000E+02 0.  0.
    9900012    2    3    3    0    0 -0.28098487802E+02 -0.17129957094E+02  0.16517230057E+02  0.54367091054E+02  0.40000015677E+02 0.  0.
        -12    1    3    3    0    0  0.28098487802E+02  0.17129957094E+02 -0.16517230057E+02  0.36820908946E+02  0.00000000000E+00 0.  1.
         11    1    4    4    0    0 -0.19059838198E+01 -0.66928872695E+01 -0.52737170239E+01  0.87315294097E+01  0.51100000000E-03 0. -1.
        -11    1    4    4    0    0 -0.27727831010E+02  0.16093102609E+01  0.17104657965E+02  0.32618887418E+02  0.51100000000E-03 0.  1.
         12    1    4    4    0    0  0.15353270273E+01 -0.12046380086E+02  0.46862891157E+01  0.13016674227E+02  0.00000000000E+00 0. -1.
</event>
<event>
 8    1  0.3186330E-007  0.9118800E+02  0.7816164E-02  0.1184000E+00
        -11   -1    0    0    0    0  0.00000000000E+00  0.00000000000E+00  0.45593999997E+02  0.45594000000E+02  0.51100000000E-03 0. -1.
         11   -1    0    0    0    0 -0.00000000000E+00 -0.00000000000E+00 -0.45593999997E+02  0.45594000000E+02  0.51100000000E-03 0.  1.
         23    2    1    2    0    0  0.17763568394E-14  0.71054273576E-14  0.17763568394E-14  0.91188000000E+02  0.91188000000E+02 0.  0.
    9900012    2    3    3    0    0 -0.66499646822E+01 -0.34618875342E+02 -0.10634543198E+02  0.54367053933E+02  0.39999931052E+02 0.  0.
         12    1    3    3    0    0  0.66499646822E+01  0.34618875342E+02  0.10634543198E+02  0.36820946067E+02  0.00000000000E+00 0. -1.
         11    1    4    4    0    0 -0.11794411381E+02 -0.19930881687E+02 -0.20708343189E+01  0.23251592197E+02  0.51100000000E-03 0. -1.
        -11    1    4    4    0    0 -0.91857762452E+01 -0.11306280380E+02 -0.11025901675E+01  0.14609112451E+02  0.51100000000E-03 0.  1.
         12    1    4    4    0    0  0.14330222944E+02 -0.33817132747E+01 -0.74611187120E+01  0.16506349286E+02  0.00000000000E+00 0. -1.
</event>
<event>
 8    1  0.3186330E-007  0.9118800E+02  0.7816164E-02  0.1184000E+00
        -11   -1    0    0    0    0  0.00000000000E+00  0.00000000000E+00  0.45593999997E+02  0.45594000000E+02  0.51100000000E-03 0. -1.
         11   -1    0    0    0    0 -0.00000000000E+00 -0.00000000000E+00 -0.45593999997E+02  0.45594000000E+02  0.51100000000E-03 0.  1.
         23    2    1    2    0    0  0.88817841970E-15  0.00000000000E+00 -0.71054273576E-14  0.91188000000E+02  0.91188000000E+02 0.  0.
    9900012    2    3    3    0    0  0.79203005373E+01  0.16143222720E+02 -0.32131697284E+02  0.54367071566E+02  0.39999971249E+02 0.  0.
         12    1    3    3    0    0 -0.79203005373E+01 -0.16143222720E+02  0.32131697284E+02  0.36820928434E+02  0.00000000000E+00 0. -1.
         11    1    4    4    0    0 -0.10186663692E+02 -0.40026593813E+01 -0.13543028318E+02  0.17412725679E+02  0.51100000000E-03 0. -1.
        -11    1    4    4    0    0  0.67929708685E+01  0.17319352260E+02 -0.16969578236E+02  0.25180766503E+02  0.51100000000E-03 0.  1.
         12    1    4    4    0    0  0.11313993361E+02  0.28265298413E+01 -0.16190907301E+01  0.11773579384E+02  0.00000000000E+00 0. -1.
</event>
<event>
 8    1  0.3186330E-007  0.9118800E+02  0.7816164E-02  0.1184000E+00
        -11   -1    0    0    0    0  0.00000000000E+00  0.00000000000E+00  0.45593999997E+02  0.45594000000E+02  0.51100000000E-03 0. -1.
         11   -1    0    0    0    0 -0.00000000000E+00 -0.00000000000E+00 -0.45593999997E+02  0.45594000000E+02  0.51100000000E-03 0.  1.
         23    2    1    2    0    0 -0.44408920985E-15  0.00000000000E+00 -0.22204460493E-15  0.91188000000E+02  0.91188000000E+02 0.  0.
    9900012    2    3    3    0    0  0.16998844716E+01 -0.36749050506E+02  0.15484014207E+01  0.54367083835E+02  0.39999999218E+02 0.  0.
         12    1    3    3    0    0 -0.16998844716E+01  0.36749050506E+02 -0.15484014207E+01  0.36820916165E+02  0.00000000000E+00 0. -1.
         11    1    4    4    0    0  0.74156319125E+01  0.33191362216E+01  0.32808310017E+00  0.81311684709E+01  0.51100000000E-03 0. -1.
        -11    1    4    4    0    0 -0.11232537754E+02 -0.99872730772E+01 -0.31082023360E+01  0.15348499925E+02  0.51100000000E-03 0.  1.
        -12    1    4    4    0    0  0.55167903136E+01 -0.30080913650E+02  0.43285206565E+01  0.30887415439E+02  0.00000000000E+00 0.  1.
</event>
<event>
 8    1  0.3186330E-007  0.9118800E+02  0.7816164E-02  0.1184000E+00
        -11   -1    0    0    0    0  0.00000000000E+00  0.00000000000E+00  0.45593999997E+02  0.45594000000E+02  0.51100000000E-03 0. -1.
         11   -1    0    0    0    0 -0.00000000000E+00 -0.00000000000E+00 -0.45593999997E+02  0.45594000000E+02  0.51100000000E-03 0.  1.
         23    2    1    2    0    0 -0.71054273576E-14  0.15543122345E-14  0.00000000000E+00  0.91188000000E+02  0.91188000000E+02 0.  0.
    9900012    2    3    3    0    0  0.25066480665E+02 -0.14627554670E+01 -0.26931662371E+02  0.54367047479E+02  0.39999916337E+02 0.  0.
         12    1    3    3    0    0 -0.25066480665E+02  0.14627554670E+01  0.26931662371E+02  0.36820952521E+02  0.00000000000E+00 0. -1.
         11    1    4    4    0    0 -0.19941211117E+01  0.39261268409E+01  0.11236908379E+01  0.45446311555E+01  0.51100000000E-03 0. -1.
        -11    1    4    4    0    0  0.25722003089E+02  0.41373364360E+01 -0.74734271552E+01  0.27103341296E+02  0.51100000000E-03 0.  1.
        -12    1    4    4    0    0  0.13385986880E+01 -0.95262187440E+01 -0.20581926054E+02  0.22719075027E+02  0.00000000000E+00 0.  1.
</event>
<event>
 8    1  0.3186330E-007  0.9118800E+02  0.7816164E-02  0.1184000E+00
        -11   -1    0    0    0    0  0.00000000000E+00  0.00000000000E+00  0.45593999997E+02  0.45594000000E+02  0.51100000000E-03 0. -1.
         11   -1    0    0    0    0 -0.00000000000E+00 -0.00000000000E+00 -0.45593999997E+02  0.45594000000E+02  0.51100000000E-03 0.  1.
         23    2    1    2    0    0  0.00000000000E+00  0.00000000000E+00  0.88817841970E-15  0.91188000000E+02  0.91188000000E+02 0.  0.
    9900012    2    3    3    0    0  0.35739889865E+02  0.44701394011E+01 -0.76457327705E+01  0.54367094207E+02  0.40000022864E+02 0.  0.
         12    1    3    3    0    0 -0.35739889865E+02 -0.44701394011E+01  0.76457327705E+01  0.36820905793E+02  0.00000000000E+00 0. -1.
         11    1    4    4    0    0  0.15549163486E+01 -0.30375369313E+01  0.17895949065E+01  0.38531864282E+01  0.51100000000E-03 0. -1.
        -11    1    4    4    0    0  0.11418008920E+01  0.54100276373E+01  0.10499320759E+02  0.11866248142E+02  0.51100000000E-03 0.  1.
        -12    1    4    4    0    0  0.33043172624E+02  0.20976486951E+01 -0.19934648436E+02  0.38647659637E+02  0.00000000000E+00 0.  1.
</event>
<event>
 8    1  0.3186330E-007  0.9118800E+02  0.7816164E-02  0.1184000E+00
        -11   -1    0    0    0    0  0.00000000000E+00  0.00000000000E+00  0.45593999997E+02  0.45594000000E+02  0.51100000000E-03 0. -1.
         11   -1    0    0    0    0 -0.00000000000E+00 -0.00000000000E+00 -0.45593999997E+02  0.45594000000E+02  0.51100000000E-03 0.  1.
         23    2    1    2    0    0  0.00000000000E+00  0.44408920985E-15  0.00000000000E+00  0.91188000000E+02  0.91188000000E+02 0.  0.
    9900012    2    3    3    0    0  0.23613036444E+02 -0.23413903046E+01  0.28155323808E+02  0.54367083969E+02  0.39999999523E+02 0.  0.
        -12    1    3    3    0    0 -0.23613036444E+02  0.23413903046E+01 -0.28155323808E+02  0.36820916031E+02  0.00000000000E+00 0.  1.
         11    1    4    4    0    0  0.26120319154E+01  0.61080391419E+01 -0.16791244954E+01  0.68520297882E+01  0.51100000000E-03 0. -1.
        -11    1    4    4    0    0  0.15344748899E+02  0.53069144013E+01  0.25441143419E+01  0.16434633470E+02  0.51100000000E-03 0.  1.
         12    1    4    4    0    0  0.56562556290E+01 -0.13756343848E+02  0.27290333961E+02  0.31080420710E+02  0.00000000000E+00 0. -1.
</event>
<event>
 8    1  0.3186330E-007  0.9118800E+02  0.7816164E-02  0.1184000E+00
        -11   -1    0    0    0    0  0.00000000000E+00  0.00000000000E+00  0.45593999997E+02  0.45594000000E+02  0.51100000000E-03 0.  1.
         11   -1    0    0    0    0 -0.00000000000E+00 -0.00000000000E+00 -0.45593999997E+02  0.45594000000E+02  0.51100000000E-03 0. -1.
         23    2    1    2    0    0  0.00000000000E+00  0.00000000000E+00  0.00000000000E+00  0.91188000000E+02  0.91188000000E+02 0.  0.
    9900012    2    3    3    0    0 -0.30692059465E+02 -0.45249246072E+01 -0.19831836381E+02  0.54367093015E+02  0.40000020147E+02 0.  0.
         12    1    3    3    0    0  0.30692059465E+02  0.45249246072E+01  0.19831836381E+02  0.36820906985E+02  0.00000000000E+00 0. -1.
         11    1    4    4    0    0 -0.27141709436E+02 -0.56286087452E+01 -0.99420698071E+01  0.29448232202E+02  0.51100000000E-03 0.  1.
        -11    1    4    4    0    0 -0.61559490044E+01  0.10936523036E+02 -0.40384254478E+01  0.13183782637E+02  0.51100000000E-03 0. -1.
         12    1    4    4    0    0  0.26055989755E+01 -0.98328388980E+01 -0.58513411264E+01  0.11735078176E+02  0.00000000000E+00 0. -1.
</event>
<event>
 8    1  0.3186330E-007  0.9118800E+02  0.7816164E-02  0.1184000E+00
        -11   -1    0    0    0    0  0.00000000000E+00  0.00000000000E+00  0.45593999997E+02  0.45594000000E+02  0.51100000000E-03 0. -1.
         11   -1    0    0    0    0 -0.00000000000E+00 -0.00000000000E+00 -0.45593999997E+02  0.45594000000E+02  0.51100000000E-03 0.  1.
         23    2    1    2    0    0  0.00000000000E+00  0.00000000000E+00 -0.17763568394E-14  0.91188000000E+02  0.91188000000E+02 0.  0.
    9900012    2    3    3    0    0 -0.27722316366E+02 -0.23039686160E+02 -0.75118451483E+01  0.54367057853E+02  0.39999939987E+02 0.  0.
        -12    1    3    3    0    0  0.27722316366E+02  0.23039686160E+02  0.75118451483E+01  0.36820942147E+02  0.00000000000E+00 0.  1.
         11    1    4    4    0    0 -0.10438518281E+02 -0.20900343827E+02 -0.55945045148E+01  0.24022604293E+02  0.51100000000E-03 0. -1.
        -11    1    4    4    0    0 -0.24034007968E+00  0.90748783856E+01 -0.38303225784E+01  0.98530478728E+01  0.51100000000E-03 0.  1.
         12    1    4    4    0    0 -0.17043458005E+02 -0.11214220719E+02  0.19129819449E+01  0.20491405687E+02  0.00000000000E+00 0. -1.
</event>
<event>
 8    1  0.3186330E-007  0.9118800E+02  0.7816164E-02  0.1184000E+00
        -11   -1    0    0    0    0  0.00000000000E+00  0.00000000000E+00  0.45593999997E+02  0.45594000000E+02  0.51100000000E-03 0. -1.
         11   -1    0    0    0    0 -0.00000000000E+00 -0.00000000000E+00 -0.45593999997E+02  0.45594000000E+02  0.51100000000E-03 0.  1.
         23    2    1    2    0    0 -0.35527136788E-14  0.00000000000E+00  0.00000000000E+00  0.91188000000E+02  0.91188000000E+02 0.  0.
    9900012    2    3    3    0    0  0.26758180352E+02  0.17359487973E+02  0.18396455981E+02  0.54367059883E+02  0.39999944614E+02 0.  0.
         12    1    3    3    0    0 -0.26758180352E+02 -0.17359487973E+02 -0.18396455981E+02  0.36820940117E+02  0.00000000000E+00 0. -1.
         11    1    4    4    0    0  0.12090858302E+02  0.18454794401E+02  0.17469830573E+02  0.28141842004E+02  0.51100000000E-03 0. -1.
        -11    1    4    4    0    0  0.18686054864E+02 -0.58124491467E+01 -0.13684137908E+01  0.19616976526E+02  0.51100000000E-03 0.  1.
         12    1    4    4    0    0 -0.40187328132E+01  0.47171427190E+01  0.22950391992E+01  0.66082413532E+01  0.00000000000E+00 0. -1.
</event>
<event>
 8    1  0.3186330E-007  0.9118800E+02  0.7816164E-02  0.1184000E+00
        -11   -1    0    0    0    0  0.00000000000E+00  0.00000000000E+00  0.45593999997E+02  0.45594000000E+02  0.51100000000E-03 0.  1.
         11   -1    0    0    0    0 -0.00000000000E+00 -0.00000000000E+00 -0.45593999997E+02  0.45594000000E+02  0.51100000000E-03 0. -1.
         23    2    1    2    0    0  0.00000000000E+00  0.00000000000E+00  0.00000000000E+00  0.91188000000E+02  0.91188000000E+02 0.  0.
    9900012    2    3    3    0    0  0.22732728766E+02 -0.26321019311E+02 -0.12091587559E+02  0.54367088762E+02  0.40000010450E+02 0.  0.
        -12    1    3    3    0    0 -0.22732728766E+02  0.26321019311E+02  0.12091587559E+02  0.36820911238E+02  0.00000000000E+00 0.  1.
         11    1    4    4    0    0  0.30876735329E+01  0.34105866968E+01 -0.11514549952E+02  0.12399624604E+02  0.51100000000E-03 0. -1.
        -11    1    4    4    0    0  0.31764605260E+01 -0.91285307081E+01 -0.10048342620E+02  0.13942351453E+02  0.51100000000E-03 0.  1.
        -12    1    4    4    0    0  0.16468594708E+02 -0.20603075299E+02  0.94713050133E+01  0.28025112704E+02  0.00000000000E+00 0.  1.
</event>
<event>
 8    1  0.3186330E-007  0.9118800E+02  0.7816164E-02  0.1184000E+00
        -11   -1    0    0    0    0  0.00000000000E+00  0.00000000000E+00  0.45593999997E+02  0.45594000000E+02  0.51100000000E-03 0.  1.
         11   -1    0    0    0    0 -0.00000000000E+00 -0.00000000000E+00 -0.45593999997E+02  0.45594000000E+02  0.51100000000E-03 0. -1.
         23    2    1    2    0    0  0.00000000000E+00  0.35527136788E-14  0.00000000000E+00  0.91188000000E+02  0.91188000000E+02 0.  0.
    9900012    2    3    3    0    0  0.94065786716E+01 -0.28614561890E+02  0.21177890777E+02  0.54367082953E+02  0.39999997208E+02 0.  0.
         12    1    3    3    0    0 -0.94065786716E+01  0.28614561890E+02 -0.21177890777E+02  0.36820917047E+02  0.00000000000E+00 0. -1.
         11    1    4    4    0    0 -0.48680521502E+01 -0.17425594836E+02  0.75555128672E+00  0.18108565519E+02  0.51100000000E-03 0. -1.
        -11    1    4    4    0    0  0.53794791090E+01 -0.17838656110E+01  0.22450963652E+02  0.23155274587E+02  0.51100000000E-03 0.  1.
        -12    1    4    4    0    0  0.88951517128E+01 -0.94051014422E+01 -0.20286241623E+01  0.13103242848E+02  0.00000000000E+00 0.  1.
</event>
<event>
 8    1  0.3186330E-007  0.9118800E+02  0.7816164E-02  0.1184000E+00
        -11   -1    0    0    0    0  0.00000000000E+00  0.00000000000E+00  0.45593999997E+02  0.45594000000E+02  0.51100000000E-03 0. -1.
         11   -1    0    0    0    0 -0.00000000000E+00 -0.00000000000E+00 -0.45593999997E+02  0.45594000000E+02  0.51100000000E-03 0.  1.
         23    2    1    2    0    0  0.00000000000E+00  0.00000000000E+00  0.00000000000E+00  0.91188000000E+02  0.91188000000E+02 0.  0.
    9900012    2    3    3    0    0 -0.18134222248E+02 -0.20741129741E+02  0.24428177229E+02  0.54367077656E+02  0.39999985133E+02 0.  0.
         12    1    3    3    0    0  0.18134222248E+02  0.20741129741E+02 -0.24428177229E+02  0.36820922344E+02  0.00000000000E+00 0. -1.
         11    1    4    4    0    0 -0.82399518358E+01 -0.11999007583E+02  0.11645294477E+02  0.18640972961E+02  0.51100000000E-03 0.  1.
        -11    1    4    4    0    0  0.85849747242E+00 -0.14150747110E+02 -0.43128054406E+01  0.14818264160E+02  0.51100000000E-03 0. -1.
         12    1    4    4    0    0 -0.10752767885E+02  0.54086249515E+01  0.17095688193E+02  0.20907840535E+02  0.00000000000E+00 0. -1.
</event>
<event>
 8    1  0.3186330E-007  0.9118800E+02  0.7816164E-02  0.1184000E+00
        -11   -1    0    0    0    0  0.00000000000E+00  0.00000000000E+00  0.45593999997E+02  0.45594000000E+02  0.51100000000E-03 0. -1.
         11   -1    0    0    0    0 -0.00000000000E+00 -0.00000000000E+00 -0.45593999997E+02  0.45594000000E+02  0.51100000000E-03 0.  1.
         23    2    1    2    0    0 -0.35527136788E-14  0.35527136788E-14  0.35527136788E-14  0.91188000000E+02  0.91188000000E+02 0.  0.
    9900012    2    3    3    0    0  0.24136050390E+02 -0.19338249228E+02 -0.19981673778E+02  0.54367026376E+02  0.39999868229E+02 0.  0.
         12    1    3    3    0    0 -0.24136050390E+02  0.19338249228E+02  0.19981673778E+02  0.36820973624E+02  0.00000000000E+00 0. -1.
         11    1    4    4    0    0  0.24424828298E+01  0.68663014274E+01 -0.18579517358E+01  0.75208910761E+01  0.51100000000E-03 0. -1.
        -11    1    4    4    0    0  0.14286951467E+02 -0.25458749027E+02 -0.23653184618E+02  0.37573102441E+02  0.51100000000E-03 0.  1.
         12    1    4    4    0    0  0.74066160933E+01 -0.74580162848E+00  0.55294625755E+01  0.92730328586E+01  0.00000000000E+00 0. -1.
</event>
<event>
 8    1  0.3186330E-007  0.9118800E+02  0.7816164E-02  0.1184000E+00
        -11   -1    0    0    0    0  0.00000000000E+00  0.00000000000E+00  0.45593999997E+02  0.45594000000E+02  0.51100000000E-03 0. -1.
         11   -1    0    0    0    0 -0.00000000000E+00 -0.00000000000E+00 -0.45593999997E+02  0.45594000000E+02  0.51100000000E-03 0.  1.
         23    2    1    2    0    0  0.35527136788E-14  0.35527136788E-14  0.71054273576E-14  0.91188000000E+02  0.91188000000E+02 0.  0.
    9900012    2    3    3    0    0  0.22324794952E+02 -0.22218734837E+02 -0.19071210432E+02  0.54367085906E+02  0.40000003939E+02 0.  0.
        -12    1    3    3    0    0 -0.22324794952E+02  0.22218734837E+02  0.19071210432E+02  0.36820914094E+02  0.00000000000E+00 0.  1.
         11    1    4    4    0    0  0.15070294208E+02 -0.14142776207E+02 -0.17665823527E+02  0.27188475638E+02  0.51100000000E-03 0. -1.
        -11    1    4    4    0    0  0.57313399176E+01 -0.14241470489E+02 -0.85884494842E+01  0.17590599869E+02  0.51100000000E-03 0.  1.
         12    1    4    4    0    0  0.15231608267E+01  0.61655118589E+01  0.71830625797E+01  0.95880103990E+01  0.00000000000E+00 0. -1.
</event>
<event>
 8    1  0.3186330E-007  0.9118800E+02  0.7816164E-02  0.1184000E+00
        -11   -1    0    0    0    0  0.00000000000E+00  0.00000000000E+00  0.45593999997E+02  0.45594000000E+02  0.51100000000E-03 0.  1.
         11   -1    0    0    0    0 -0.00000000000E+00 -0.00000000000E+00 -0.45593999997E+02  0.45594000000E+02  0.51100000000E-03 0. -1.
         23    2    1    2    0    0  0.35527136788E-14  0.88817841970E-15  0.71054273576E-14  0.91188000000E+02  0.91188000000E+02 0.  0.
    9900012    2    3    3    0    0 -0.19332028255E+02 -0.24447595257E+01  0.31242225216E+02  0.54367071142E+02  0.39999970282E+02 0.  0.
         12    1    3    3    0    0  0.19332028255E+02  0.24447595257E+01 -0.31242225216E+02  0.36820928858E+02  0.00000000000E+00 0. -1.
         11    1    4    4    0    0 -0.10791009423E+02  0.14535659922E+02  0.14164244801E+02  0.22986020203E+02  0.51100000000E-03 0. -1.
        -11    1    4    4    0    0 -0.13853636585E+02 -0.15279401104E+02  0.12148485175E+02  0.23936771650E+02  0.51100000000E-03 0.  1.
        -12    1    4    4    0    0  0.53126177538E+01 -0.17010183438E+01  0.49294952398E+01  0.74442792884E+01  0.00000000000E+00 0.  1.
</event>
<event>
 8    1  0.3186330E-007  0.9118800E+02  0.7816164E-02  0.1184000E+00
        -11   -1    0    0    0    0  0.00000000000E+00  0.00000000000E+00  0.45593999997E+02  0.45594000000E+02  0.51100000000E-03 0.  1.
         11   -1    0    0    0    0 -0.00000000000E+00 -0.00000000000E+00 -0.45593999997E+02  0.45594000000E+02  0.51100000000E-03 0. -1.
         23    2    1    2    0    0 -0.17763568394E-14  0.00000000000E+00  0.00000000000E+00  0.91188000000E+02  0.91188000000E+02 0.  0.
    9900012    2    3    3    0    0 -0.14396405919E+02  0.14186429025E+02 -0.30777708844E+02  0.54367100588E+02  0.40000037409E+02 0.  0.
         12    1    3    3    0    0  0.14396405919E+02 -0.14186429025E+02  0.30777708844E+02  0.36820899412E+02  0.00000000000E+00 0. -1.
         11    1    4    4    0    0 -0.11237231156E+02  0.16998006972E+01 -0.13720618993E+02  0.17816286715E+02  0.51100000000E-03 0. -1.
        -11    1    4    4    0    0  0.16750317201E+01 -0.34271978874E+01  0.66055045936E+01  0.76278507995E+01  0.51100000000E-03 0.  1.
         12    1    4    4    0    0 -0.48342064829E+01  0.15913826216E+02 -0.23662594444E+02  0.28922963074E+02  0.00000000000E+00 0. -1.
</event>
<event>
 8    1  0.3186330E-007  0.9118800E+02  0.7816164E-02  0.1184000E+00
        -11   -1    0    0    0    0  0.00000000000E+00  0.00000000000E+00  0.45593999997E+02  0.45594000000E+02  0.51100000000E-03 0. -1.
         11   -1    0    0    0    0 -0.00000000000E+00 -0.00000000000E+00 -0.45593999997E+02  0.45594000000E+02  0.51100000000E-03 0.  1.
         23    2    1    2    0    0 -0.88817841970E-15  0.00000000000E+00  0.00000000000E+00  0.91188000000E+02  0.91188000000E+02 0.  0.
    9900012    2    3    3    0    0  0.45987189543E+01  0.26959403609E+02 -0.24653979326E+02  0.54367131521E+02  0.40000107927E+02 0.  0.
         12    1    3    3    0    0 -0.45987189543E+01 -0.26959403609E+02  0.24653979326E+02  0.36820868479E+02  0.00000000000E+00 0. -1.
         11    1    4    4    0    0  0.15780688470E+02  0.90783907589E+01 -0.59663513927E+01  0.19158409552E+02  0.51100000000E-03 0. -1.
        -11    1    4    4    0    0 -0.27934739450E+00 -0.27507466656E+01  0.24717226243E+01  0.37086460032E+01  0.51100000000E-03 0.  1.
        -12    1    4    4    0    0 -0.10902622121E+02  0.20631759515E+02 -0.21159350558E+02  0.31500075966E+02  0.00000000000E+00 0.  1.
</event>
<event>
 8    1  0.3186330E-007  0.9118800E+02  0.7816164E-02  0.1184000E+00
        -11   -1    0    0    0    0  0.00000000000E+00  0.00000000000E+00  0.45593999997E+02  0.45594000000E+02  0.51100000000E-03 0. -1.
         11   -1    0    0    0    0 -0.00000000000E+00 -0.00000000000E+00 -0.45593999997E+02  0.45594000000E+02  0.51100000000E-03 0.  1.
         23    2    1    2    0    0  0.00000000000E+00  0.00000000000E+00  0.00000000000E+00  0.91188000000E+02  0.91188000000E+02 0.  0.
    9900012    2    3    3    0    0 -0.26587379126E+02 -0.16586135391E+02 -0.19333702121E+02  0.54367073156E+02  0.39999974873E+02 0.  0.
         12    1    3    3    0    0  0.26587379126E+02  0.16586135391E+02  0.19333702121E+02  0.36820926844E+02  0.00000000000E+00 0. -1.
         11    1    4    4    0    0 -0.17092138877E+02  0.88380825028E+00  0.43835543055E+01  0.17667424177E+02  0.51100000000E-03 0. -1.
        -11    1    4    4    0    0 -0.12751621934E+02 -0.29523699365E+01 -0.12069469029E+02  0.17804281314E+02  0.51100000000E-03 0.  1.
         12    1    4    4    0    0  0.32563816860E+01 -0.14517573705E+02 -0.11647787397E+02  0.18895367665E+02  0.00000000000E+00 0. -1.
</event>
<event>
 8    1  0.3186330E-007  0.9118800E+02  0.7816164E-02  0.1184000E+00
        -11   -1    0    0    0    0  0.00000000000E+00  0.00000000000E+00  0.45593999997E+02  0.45594000000E+02  0.51100000000E-03 0.  1.
         11   -1    0    0    0    0 -0.00000000000E+00 -0.00000000000E+00 -0.45593999997E+02  0.45594000000E+02  0.51100000000E-03 0. -1.
         23    2    1    2    0    0 -0.35527136788E-14 -0.88817841970E-15 -0.35527136788E-14  0.91188000000E+02  0.91188000000E+02 0.  0.
    9900012    2    3    3    0    0 -0.22273479333E+02 -0.49203127695E+01 -0.28904383076E+02  0.54367072251E+02  0.39999972810E+02 0.  0.
        -12    1    3    3    0    0  0.22273479333E+02  0.49203127695E+01  0.28904383076E+02  0.36820927749E+02  0.00000000000E+00 0.  1.
         11    1    4    4    0    0 -0.96353042683E+01 -0.74082585855E+01 -0.24039383470E+01  0.12389523940E+02  0.51100000000E-03 0. -1.
        -11    1    4    4    0    0 -0.22509078601E+02  0.67514948148E+00 -0.18313141339E+02  0.29025602358E+02  0.51100000000E-03 0.  1.
        -12    1    4    4    0    0  0.98709035362E+01  0.18127963346E+01 -0.81873033899E+01  0.12951945953E+02  0.00000000000E+00 0.  1.
</event>
<event>
 8    1  0.3186330E-007  0.9118800E+02  0.7816164E-02  0.1184000E+00
        -11   -1    0    0    0    0  0.00000000000E+00  0.00000000000E+00  0.45593999997E+02  0.45594000000E+02  0.51100000000E-03 0. -1.
         11   -1    0    0    0    0 -0.00000000000E+00 -0.00000000000E+00 -0.45593999997E+02  0.45594000000E+02  0.51100000000E-03 0.  1.
         23    2    1    2    0    0  0.00000000000E+00  0.00000000000E+00  0.00000000000E+00  0.91188000000E+02  0.91188000000E+02 0.  0.
    9900012    2    3    3    0    0 -0.13161550575E+02  0.11246822057E+02 -0.32497086639E+02  0.54367108376E+02  0.40000055165E+02 0.  0.
         12    1    3    3    0    0  0.13161550575E+02 -0.11246822057E+02  0.32497086639E+02  0.36820891624E+02  0.00000000000E+00 0. -1.
         11    1    4    4    0    0  0.42510766404E+01  0.13357569165E+00 -0.15305328673E+02  0.15885294493E+02  0.51100000000E-03 0. -1.
        -11    1    4    4    0    0 -0.41953912079E+01  0.15821140703E+02 -0.99361338616E-01  0.16368251998E+02  0.51100000000E-03 0.  1.
         12    1    4    4    0    0 -0.13217236008E+02 -0.47078943378E+01 -0.17092396627E+02  0.22113561885E+02  0.00000000000E+00 0. -1.
</event>
<event>
 8    1  0.3186330E-007  0.9118800E+02  0.7816164E-02  0.1184000E+00
        -11   -1    0    0    0    0  0.00000000000E+00  0.00000000000E+00  0.45593999997E+02  0.45594000000E+02  0.51100000000E-03 0.  1.
         11   -1    0    0    0    0 -0.00000000000E+00 -0.00000000000E+00 -0.45593999997E+02  0.45594000000E+02  0.51100000000E-03 0. -1.
         23    2    1    2    0    0  0.00000000000E+00  0.00000000000E+00  0.27755575616E-15  0.91188000000E+02  0.91188000000E+02 0.  0.
    9900012    2    3    3    0    0 -0.36222350716E+02 -0.66055953837E+01 -0.29615996268E+00  0.54367078060E+02  0.39999986053E+02 0.  0.
        -12    1    3    3    0    0  0.36222350716E+02  0.66055953837E+01  0.29615996268E+00  0.36820921940E+02  0.00000000000E+00 0.  1.
         11    1    4    4    0    0 -0.76809862775E+01  0.56132154407E+01  0.14503727814E+01  0.96233735895E+01  0.51100000000E-03 0. -1.
        -11    1    4    4    0    0 -0.32537654620E+02 -0.17684277320E+01  0.27148865893E+01  0.32698576640E+02  0.51100000000E-03 0.  1.
        -12    1    4    4    0    0  0.39962901810E+01 -0.10450383092E+02 -0.44614193333E+01  0.12045127831E+02  0.00000000000E+00 0.  1.
</event>
<event>
 8    1  0.3186330E-007  0.9118800E+02  0.7816164E-02  0.1184000E+00
        -11   -1    0    0    0    0  0.00000000000E+00  0.00000000000E+00  0.45593999997E+02  0.45594000000E+02  0.51100000000E-03 0. -1.
         11   -1    0    0    0    0 -0.00000000000E+00 -0.00000000000E+00 -0.45593999997E+02  0.45594000000E+02  0.51100000000E-03 0.  1.
         23    2    1    2    0    0  0.00000000000E+00  0.00000000000E+00  0.00000000000E+00  0.91188000000E+02  0.91188000000E+02 0.  0.
    9900012    2    3    3    0    0 -0.10270579245E+02 -0.10905687880E+02  0.33635718950E+02  0.54367076390E+02  0.39999982247E+02 0.  0.
        -12    1    3    3    0    0  0.10270579245E+02  0.10905687880E+02 -0.33635718950E+02  0.36820923610E+02  0.00000000000E+00 0.  1.
         11    1    4    4    0    0 -0.91135123454E+01  0.71458665523E+01 -0.15498261767E+00  0.11582035051E+02  0.51100000000E-03 0.  1.
        -11    1    4    4    0    0  0.67284273835E+01 -0.10896042944E+02  0.85712022887E+01  0.15409769493E+02  0.51100000000E-03 0. -1.
         12    1    4    4    0    0 -0.78854942826E+01 -0.71555114888E+01  0.25219499279E+02  0.27375271846E+02  0.00000000000E+00 0. -1.
</event>
<event>
 8    1  0.3186330E-007  0.9118800E+02  0.7816164E-02  0.1184000E+00
        -11   -1    0    0    0    0  0.00000000000E+00  0.00000000000E+00  0.45593999997E+02  0.45594000000E+02  0.51100000000E-03 0. -1.
         11   -1    0    0    0    0 -0.00000000000E+00 -0.00000000000E+00 -0.45593999997E+02  0.45594000000E+02  0.51100000000E-03 0.  1.
         23    2    1    2    0    0  0.00000000000E+00 -0.35527136788E-14  0.00000000000E+00  0.91188000000E+02  0.91188000000E+02 0.  0.
    9900012    2    3    3    0    0  0.18542795727E+02 -0.25639652402E+02 -0.18829537423E+02  0.54367102018E+02  0.40000040670E+02 0.  0.
         12    1    3    3    0    0 -0.18542795727E+02  0.25639652402E+02  0.18829537423E+02  0.36820897982E+02  0.00000000000E+00 0. -1.
         11    1    4    4    0    0  0.15360094228E+02 -0.10385330897E+02 -0.30732821841E+01  0.18794484727E+02  0.51100000000E-03 0. -1.
        -11    1    4    4    0    0  0.10154803471E+02 -0.13604650937E+02  0.13463435687E+01  0.17029950145E+02  0.51100000000E-03 0.  1.
         12    1    4    4    0    0 -0.69721019726E+01 -0.16496705680E+01 -0.17102598808E+02  0.18542667146E+02  0.00000000000E+00 0. -1.
</event>
<event>
 8    1  0.3186330E-007  0.9118800E+02  0.7816164E-02  0.1184000E+00
        -11   -1    0    0    0    0  0.00000000000E+00  0.00000000000E+00  0.45593999997E+02  0.45594000000E+02  0.51100000000E-03 0.  1.
         11   -1    0    0    0    0 -0.00000000000E+00 -0.00000000000E+00 -0.45593999997E+02  0.45594000000E+02  0.51100000000E-03 0. -1.
         23    2    1    2    0    0  0.00000000000E+00  0.44408920985E-15 -0.71054273576E-14  0.91188000000E+02  0.91188000000E+02 0.  0.
    9900012    2    3    3    0    0 -0.34884016101E+01 -0.12040618342E+01 -0.36635521072E+02  0.54367080472E+02  0.39999991552E+02 0.  0.
        -12    1    3    3    0    0  0.34884016101E+01  0.12040618342E+01  0.36635521072E+02  0.36820919528E+02  0.00000000000E+00 0.  1.
         11    1    4    4    0    0  0.41194037231E+01  0.66308407971E+01 -0.74451708350E+01  0.10787404958E+02  0.51100000000E-03 0. -1.
        -11    1    4    4    0    0 -0.96311418996E+01 -0.25711614589E+01 -0.34453098868E+02  0.35866220701E+02  0.51100000000E-03 0.  1.
        -12    1    4    4    0    0  0.20233365664E+01 -0.52637411725E+01  0.52627486310E+01  0.77134548125E+01  0.00000000000E+00 0.  1.
</event>
<event>
 8    1  0.3186330E-007  0.9118800E+02  0.7816164E-02  0.1184000E+00
        -11   -1    0    0    0    0  0.00000000000E+00  0.00000000000E+00  0.45593999997E+02  0.45594000000E+02  0.51100000000E-03 0.  1.
         11   -1    0    0    0    0 -0.00000000000E+00 -0.00000000000E+00 -0.45593999997E+02  0.45594000000E+02  0.51100000000E-03 0. -1.
         23    2    1    2    0    0  0.00000000000E+00  0.00000000000E+00  0.35527136788E-14  0.91188000000E+02  0.91188000000E+02 0.  0.
    9900012    2    3    3    0    0  0.18026030685E+02 -0.15646988175E+02  0.28035941811E+02  0.54367081292E+02  0.39999993422E+02 0.  0.
         12    1    3    3    0    0 -0.18026030685E+02  0.15646988175E+02 -0.28035941811E+02  0.36820918708E+02  0.00000000000E+00 0. -1.
         11    1    4    4    0    0  0.14402170238E+02 -0.87552757652E+01  0.11390135625E+02  0.20342383123E+02  0.51100000000E-03 0. -1.
        -11    1    4    4    0    0  0.10295816842E+01 -0.13052740128E+02 -0.28627304104E+01  0.13402585160E+02  0.51100000000E-03 0.  1.
         12    1    4    4    0    0  0.25942787631E+01  0.61610277188E+01  0.19508536597E+02  0.20622113010E+02  0.00000000000E+00 0. -1.
</event>
<event>
 8    1  0.3186330E-007  0.9118800E+02  0.7816164E-02  0.1184000E+00
        -11   -1    0    0    0    0  0.00000000000E+00  0.00000000000E+00  0.45593999997E+02  0.45594000000E+02  0.51100000000E-03 0.  1.
         11   -1    0    0    0    0 -0.00000000000E+00 -0.00000000000E+00 -0.45593999997E+02  0.45594000000E+02  0.51100000000E-03 0. -1.
         23    2    1    2    0    0 -0.88817841970E-15 -0.71054273576E-14 -0.88817841970E-15  0.91188000000E+02  0.91188000000E+02 0.  0.
    9900012    2    3    3    0    0 -0.67270695257E+01  0.35383350310E+02 -0.76505935851E+01  0.54367265003E+02  0.40000412224E+02 0.  0.
        -12    1    3    3    0    0  0.67270695257E+01 -0.35383350310E+02  0.76505935851E+01  0.36820734997E+02  0.00000000000E+00 0.  1.
         11    1    4    4    0    0  0.69637794549E+01  0.96986165603E+01 -0.11507408483E+02  0.16582455721E+02  0.51100000000E-03 0. -1.
        -11    1    4    4    0    0 -0.15667460625E+02  0.19332072180E+02 -0.62760940328E+01  0.25662963464E+02  0.51100000000E-03 0.  1.
        -12    1    4    4    0    0  0.19766116442E+01  0.63526615697E+01  0.10132908931E+02  0.12121845817E+02  0.00000000000E+00 0.  1.
</event>
<event>
 8    1  0.3186330E-007  0.9118800E+02  0.7816164E-02  0.1184000E+00
        -11   -1    0    0    0    0  0.00000000000E+00  0.00000000000E+00  0.45593999997E+02  0.45594000000E+02  0.51100000000E-03 0. -1.
         11   -1    0    0    0    0 -0.00000000000E+00 -0.00000000000E+00 -0.45593999997E+02  0.45594000000E+02  0.51100000000E-03 0.  1.
         23    2    1    2    0    0  0.71054273576E-14  0.00000000000E+00  0.00000000000E+00  0.91188000000E+02  0.91188000000E+02 0.  0.
    9900012    2    3    3    0    0  0.33205801439E+02  0.15399199700E+02  0.40024396710E+01  0.54367080349E+02  0.39999991272E+02 0.  0.
        -12    1    3    3    0    0 -0.33205801439E+02 -0.15399199700E+02 -0.40024396710E+01  0.36820919651E+02  0.00000000000E+00 0.  1.
         11    1    4    4    0    0 -0.58098396435E+01 -0.50241353617E+00  0.33090290328E+01  0.67049481314E+01  0.51100000000E-03 0. -1.
        -11    1    4    4    0    0 -0.32780789695E+00  0.63074691649E+01 -0.30104639105E+01  0.69967505673E+01  0.51100000000E-03 0.  1.
         12    1    4    4    0    0  0.39343448980E+02  0.95941440710E+01  0.37038745488E+01  0.40665381650E+02  0.00000000000E+00 0. -1.
</event>
<event>
 8    1  0.3186330E-007  0.9118800E+02  0.7816164E-02  0.1184000E+00
        -11   -1    0    0    0    0  0.00000000000E+00  0.00000000000E+00  0.45593999997E+02  0.45594000000E+02  0.51100000000E-03 0. -1.
         11   -1    0    0    0    0 -0.00000000000E+00 -0.00000000000E+00 -0.45593999997E+02  0.45594000000E+02  0.51100000000E-03 0.  1.
         23    2    1    2    0    0 -0.35527136788E-14 -0.35527136788E-14  0.00000000000E+00  0.91188000000E+02  0.91188000000E+02 0.  0.
    9900012    2    3    3    0    0  0.17056686524E+02  0.31276760610E+02 -0.93066799400E+01  0.54367073871E+02  0.39999976505E+02 0.  0.
         12    1    3    3    0    0 -0.17056686524E+02 -0.31276760610E+02  0.93066799400E+01  0.36820926129E+02  0.00000000000E+00 0. -1.
         11    1    4    4    0    0 -0.48244191548E+01  0.64593475538E+01  0.68456223817E+01  0.10576423642E+02  0.51100000000E-03 0. -1.
        -11    1    4    4    0    0  0.25508614200E+02  0.14203234032E+02 -0.92787301419E+01  0.30635209950E+02  0.51100000000E-03 0.  1.
        -12    1    4    4    0    0 -0.36275085209E+01  0.10614179025E+02 -0.68735721798E+01  0.13155440280E+02  0.00000000000E+00 0.  1.
</event>
<event>
 8    1  0.3186330E-007  0.9118800E+02  0.7816164E-02  0.1184000E+00
        -11   -1    0    0    0    0  0.00000000000E+00  0.00000000000E+00  0.45593999997E+02  0.45594000000E+02  0.51100000000E-03 0.  1.
         11   -1    0    0    0    0 -0.00000000000E+00 -0.00000000000E+00 -0.45593999997E+02  0.45594000000E+02  0.51100000000E-03 0. -1.
         23    2    1    2    0    0  0.00000000000E+00 -0.71054273576E-14  0.00000000000E+00  0.91188000000E+02  0.91188000000E+02 0.  0.
    9900012    2    3    3    0    0  0.15372692728E+02  0.27018597730E+02 -0.19734624100E+02  0.54367086195E+02  0.40000004600E+02 0.  0.
        -12    1    3    3    0    0 -0.15372692728E+02 -0.27018597730E+02  0.19734624100E+02  0.36820913805E+02  0.00000000000E+00 0.  1.
         11    1    4    4    0    0 -0.27201941293E+01  0.62297079591E+01  0.38490115038E+01  0.78117608242E+01  0.51100000000E-03 0. -1.
        -11    1    4    4    0    0  0.75543711996E+01  0.26897254344E+02 -0.17112125559E+02  0.32762107027E+02  0.51100000000E-03 0.  1.
         12    1    4    4    0    0  0.10538515658E+02 -0.61083645725E+01 -0.64715100457E+01  0.13793218344E+02  0.00000000000E+00 0. -1.
</event>
<event>
 8    1  0.3186330E-007  0.9118800E+02  0.7816164E-02  0.1184000E+00
        -11   -1    0    0    0    0  0.00000000000E+00  0.00000000000E+00  0.45593999997E+02  0.45594000000E+02  0.51100000000E-03 0. -1.
         11   -1    0    0    0    0 -0.00000000000E+00 -0.00000000000E+00 -0.45593999997E+02  0.45594000000E+02  0.51100000000E-03 0.  1.
         23    2    1    2    0    0  0.17763568394E-14 -0.71054273576E-14  0.35527136788E-14  0.91188000000E+02  0.91188000000E+02 0.  0.
    9900012    2    3    3    0    0  0.14459606165E+02 -0.22572572828E+02  0.25242384280E+02  0.54367092642E+02  0.40000019295E+02 0.  0.
        -12    1    3    3    0    0 -0.14459606165E+02  0.22572572828E+02 -0.25242384280E+02  0.36820907358E+02  0.00000000000E+00 0.  1.
         11    1    4    4    0    0  0.15487639512E+02 -0.10175206860E+02 -0.10976406971E+01  0.18563583373E+02  0.51100000000E-03 0. -1.
        -11    1    4    4    0    0 -0.27683955732E+01 -0.84318712595E+01 -0.23512401126E+00  0.88778235254E+01  0.51100000000E-03 0.  1.
        -12    1    4    4    0    0  0.17403622261E+01 -0.39654947087E+01  0.26575148989E+02  0.26925685743E+02  0.00000000000E+00 0.  1.
</event>
<event>
 8    1  0.3186330E-007  0.9118800E+02  0.7816164E-02  0.1184000E+00
        -11   -1    0    0    0    0  0.00000000000E+00  0.00000000000E+00  0.45593999997E+02  0.45594000000E+02  0.51100000000E-03 0.  1.
         11   -1    0    0    0    0 -0.00000000000E+00 -0.00000000000E+00 -0.45593999997E+02  0.45594000000E+02  0.51100000000E-03 0. -1.
         23    2    1    2    0    0 -0.17763568394E-14  0.00000000000E+00  0.00000000000E+00  0.91188000000E+02  0.91188000000E+02 0.  0.
    9900012    2    3    3    0    0 -0.10465367294E+02 -0.80951914811E+01  0.34361690529E+02  0.54367057403E+02  0.39999938961E+02 0.  0.
         12    1    3    3    0    0  0.10465367294E+02  0.80951914811E+01 -0.34361690529E+02  0.36820942597E+02  0.00000000000E+00 0. -1.
         11    1    4    4    0    0 -0.48715961982E+00 -0.57592376113E+01  0.27011310906E+01  0.63798316426E+01  0.51100000000E-03 0. -1.
        -11    1    4    4    0    0 -0.18886576029E+02 -0.11385477777E+02  0.25975141619E+02  0.34074034700E+02  0.51100000000E-03 0.  1.
        -12    1    4    4    0    0  0.89083683555E+01  0.90495239071E+01  0.56854178196E+01  0.13913191060E+02  0.00000000000E+00 0.  1.
</event>
<event>
 8    1  0.3186330E-007  0.9118800E+02  0.7816164E-02  0.1184000E+00
        -11   -1    0    0    0    0  0.00000000000E+00  0.00000000000E+00  0.45593999997E+02  0.45594000000E+02  0.51100000000E-03 0.  1.
         11   -1    0    0    0    0 -0.00000000000E+00 -0.00000000000E+00 -0.45593999997E+02  0.45594000000E+02  0.51100000000E-03 0. -1.
         23    2    1    2    0    0  0.00000000000E+00 -0.17763568394E-14 -0.35527136788E-14  0.91188000000E+02  0.91188000000E+02 0.  0.
    9900012    2    3    3    0    0  0.29153231742E+02  0.15520837134E+02 -0.16277981677E+02  0.54367082116E+02  0.39999995300E+02 0.  0.
        -12    1    3    3    0    0 -0.29153231742E+02 -0.15520837134E+02  0.16277981677E+02  0.36820917884E+02  0.00000000000E+00 0.  1.
         11    1    4    4    0    0 -0.37269630183E+01  0.43034568933E+01  0.68918058389E+01  0.89390705644E+01  0.51100000000E-03 0. -1.
        -11    1    4    4    0    0  0.89153419744E+01 -0.45520971841E+01 -0.33358590493E+01  0.10551439103E+02  0.51100000000E-03 0.  1.
         12    1    4    4    0    0  0.23964852786E+02  0.15769477425E+02 -0.19833928467E+02  0.34876572448E+02  0.00000000000E+00 0. -1.
</event>
<event>
 8    1  0.3186330E-007  0.9118800E+02  0.7816164E-02  0.1184000E+00
        -11   -1    0    0    0    0  0.00000000000E+00  0.00000000000E+00  0.45593999997E+02  0.45594000000E+02  0.51100000000E-03 0.  1.
         11   -1    0    0    0    0 -0.00000000000E+00 -0.00000000000E+00 -0.45593999997E+02  0.45594000000E+02  0.51100000000E-03 0. -1.
         23    2    1    2    0    0  0.00000000000E+00  0.00000000000E+00 -0.35527136788E-14  0.91188000000E+02  0.91188000000E+02 0.  0.
    9900012    2    3    3    0    0 -0.11472603164E+02 -0.21182004110E+02  0.27847483998E+02  0.54367078142E+02  0.39999986241E+02 0.  0.
        -12    1    3    3    0    0  0.11472603164E+02  0.21182004110E+02 -0.27847483998E+02  0.36820921858E+02  0.00000000000E+00 0.  1.
         11    1    4    4    0    0 -0.93858942847E+01 -0.13866545785E+02  0.29732245723E+02  0.34123049974E+02  0.51100000000E-03 0. -1.
        -11    1    4    4    0    0  0.15341926717E+00  0.37473379057E+01 -0.69305181239E+01  0.78802386118E+01  0.51100000000E-03 0.  1.
         12    1    4    4    0    0 -0.22401281463E+01 -0.11062796231E+02  0.50457563980E+01  0.12363789556E+02  0.00000000000E+00 0. -1.
</event>
<event>
 8    1  0.3186330E-007  0.9118800E+02  0.7816164E-02  0.1184000E+00
        -11   -1    0    0    0    0  0.00000000000E+00  0.00000000000E+00  0.45593999997E+02  0.45594000000E+02  0.51100000000E-03 0.  1.
         11   -1    0    0    0    0 -0.00000000000E+00 -0.00000000000E+00 -0.45593999997E+02  0.45594000000E+02  0.51100000000E-03 0. -1.
         23    2    1    2    0    0  0.00000000000E+00  0.00000000000E+00  0.00000000000E+00  0.91188000000E+02  0.91188000000E+02 0.  0.
    9900012    2    3    3    0    0 -0.50407113715E+01  0.22419586319E+02 -0.28770344365E+02  0.54367091039E+02  0.40000015641E+02 0.  0.
        -12    1    3    3    0    0  0.50407113715E+01 -0.22419586319E+02  0.28770344365E+02  0.36820908961E+02  0.00000000000E+00 0.  1.
         11    1    4    4    0    0  0.10446278085E+02 -0.19430191969E+01 -0.52577280025E+00  0.10638443811E+02  0.51100000000E-03 0. -1.
        -11    1    4    4    0    0 -0.12828652240E+02  0.77133635088E+01 -0.67766456366E+01  0.16431470453E+02  0.51100000000E-03 0.  1.
         12    1    4    4    0    0 -0.26583372166E+01  0.16649242007E+02 -0.21467925928E+02  0.27297176774E+02  0.00000000000E+00 0. -1.
</event>
<event>
 8    1  0.3186330E-007  0.9118800E+02  0.7816164E-02  0.1184000E+00
        -11   -1    0    0    0    0  0.00000000000E+00  0.00000000000E+00  0.45593999997E+02  0.45594000000E+02  0.51100000000E-03 0. -1.
         11   -1    0    0    0    0 -0.00000000000E+00 -0.00000000000E+00 -0.45593999997E+02  0.45594000000E+02  0.51100000000E-03 0.  1.
         23    2    1    2    0    0 -0.88817841970E-15  0.35527136788E-14  0.00000000000E+00  0.91188000000E+02  0.91188000000E+02 0.  0.
    9900012    2    3    3    0    0  0.40611460066E+01 -0.19556986506E+02 -0.30932363982E+02  0.54367085161E+02  0.40000002241E+02 0.  0.
         12    1    3    3    0    0 -0.40611460066E+01  0.19556986506E+02  0.30932363982E+02  0.36820914839E+02  0.00000000000E+00 0. -1.
         11    1    4    4    0    0  0.27787771260E+00 -0.21693951035E+02  0.54188318870E+00  0.21702496750E+02  0.51100000000E-03 0. -1.
        -11    1    4    4    0    0 -0.83284374127E+00  0.13144954974E+01 -0.22368280844E+02  0.22422344107E+02  0.51100000000E-03 0.  1.
        -12    1    4    4    0    0  0.46161120352E+01  0.82246903144E+00 -0.91059663268E+01  0.10242244304E+02  0.00000000000E+00 0.  1.
</event>
<event>
 8    1  0.3186330E-007  0.9118800E+02  0.7816164E-02  0.1184000E+00
        -11   -1    0    0    0    0  0.00000000000E+00  0.00000000000E+00  0.45593999997E+02  0.45594000000E+02  0.51100000000E-03 0.  1.
         11   -1    0    0    0    0 -0.00000000000E+00 -0.00000000000E+00 -0.45593999997E+02  0.45594000000E+02  0.51100000000E-03 0. -1.
         23    2    1    2    0    0 -0.35527136788E-14  0.17763568394E-14  0.00000000000E+00  0.91188000000E+02  0.91188000000E+02 0.  0.
    9900012    2    3    3    0    0  0.12943182215E+02 -0.14151091290E+02 -0.31432492389E+02  0.54367069426E+02  0.39999966371E+02 0.  0.
        -12    1    3    3    0    0 -0.12943182215E+02  0.14151091290E+02  0.31432492389E+02  0.36820930574E+02  0.00000000000E+00 0.  1.
         11    1    4    4    0    0  0.46073766687E+01 -0.15386468092E+01 -0.10258788938E+02  0.11350687403E+02  0.51100000000E-03 0. -1.
        -11    1    4    4    0    0 -0.96997658920E+01 -0.67520855342E+01 -0.20947210020E+02  0.24051231264E+02  0.51100000000E-03 0.  1.
         12    1    4    4    0    0  0.18035571438E+02 -0.58603589470E+01 -0.22649343085E+00  0.18965150760E+02  0.00000000000E+00 0. -1.
</event>
<event>
 8    1  0.3186330E-007  0.9118800E+02  0.7816164E-02  0.1184000E+00
        -11   -1    0    0    0    0  0.00000000000E+00  0.00000000000E+00  0.45593999997E+02  0.45594000000E+02  0.51100000000E-03 0.  1.
         11   -1    0    0    0    0 -0.00000000000E+00 -0.00000000000E+00 -0.45593999997E+02  0.45594000000E+02  0.51100000000E-03 0. -1.
         23    2    1    2    0    0 -0.17763568394E-14  0.00000000000E+00 -0.35527136788E-14  0.91188000000E+02  0.91188000000E+02 0.  0.
    9900012    2    3    3    0    0 -0.11172494614E+02  0.25016702066E+02 -0.24599308865E+02  0.54367000356E+02  0.39999808910E+02 0.  0.
        -12    1    3    3    0    0  0.11172494614E+02 -0.25016702066E+02  0.24599308865E+02  0.36820999644E+02  0.00000000000E+00 0.  1.
         11    1    4    4    0    0 -0.63579095259E+01  0.68484563530E+01 -0.19920327657E+02  0.22003268443E+02  0.51100000000E-03 0. -1.
        -11    1    4    4    0    0 -0.14329025881E+02  0.16598194892E+02 -0.71965682824E+00  0.21939438521E+02  0.51100000000E-03 0.  1.
        -12    1    4    4    0    0  0.95144407927E+01  0.15700508213E+01 -0.39593243797E+01  0.10424293392E+02  0.00000000000E+00 0.  1.
</event>
<event>
 8    1  0.3186330E-007  0.9118800E+02  0.7816164E-02  0.1184000E+00
        -11   -1    0    0    0    0  0.00000000000E+00  0.00000000000E+00  0.45593999997E+02  0.45594000000E+02  0.51100000000E-03 0.  1.
         11   -1    0    0    0    0 -0.00000000000E+00 -0.00000000000E+00 -0.45593999997E+02  0.45594000000E+02  0.51100000000E-03 0. -1.
         23    2    1    2    0    0  0.17763568394E-14  0.00000000000E+00  0.00000000000E+00  0.91188000000E+02  0.91188000000E+02 0.  0.
    9900012    2    3    3    0    0 -0.15095627796E+02 -0.28393538445E+02 -0.17936246546E+02  0.54367082790E+02  0.39999996837E+02 0.  0.
        -12    1    3    3    0    0  0.15095627796E+02  0.28393538445E+02  0.17936246546E+02  0.36820917210E+02  0.00000000000E+00 0.  1.
         11    1    4    4    0    0  0.11402185699E+02 -0.10219376491E+01 -0.42788139347E+01  0.12221392892E+02  0.51100000000E-03 0. -1.
        -11    1    4    4    0    0 -0.25985244753E+02 -0.20845996468E+02 -0.11024304250E+02  0.35090223683E+02  0.51100000000E-03 0.  1.
        -12    1    4    4    0    0 -0.51256874228E+00 -0.65256043276E+01 -0.26331283614E+01  0.70554662159E+01  0.00000000000E+00 0.  1.
</event>
<event>
 8    1  0.3186330E-007  0.9118800E+02  0.7816164E-02  0.1184000E+00
        -11   -1    0    0    0    0  0.00000000000E+00  0.00000000000E+00  0.45593999997E+02  0.45594000000E+02  0.51100000000E-03 0. -1.
         11   -1    0    0    0    0 -0.00000000000E+00 -0.00000000000E+00 -0.45593999997E+02  0.45594000000E+02  0.51100000000E-03 0.  1.
         23    2    1    2    0    0  0.00000000000E+00  0.11449174941E-14 -0.22204460493E-15  0.91188000000E+02  0.91188000000E+02 0.  0.
    9900012    2    3    3    0    0 -0.36793771336E+02  0.53498809205E-01 -0.14130048397E+01  0.54367067721E+02  0.39999962483E+02 0.  0.
        -12    1    3    3    0    0  0.36793771336E+02 -0.53498809205E-01  0.14130048397E+01  0.36820932279E+02  0.00000000000E+00 0.  1.
         11    1    4    4    0    0 -0.20613893813E+02 -0.14443456736E+02 -0.43882319232E+01  0.25550002745E+02  0.51100000000E-03 0. -1.
        -11    1    4    4    0    0  0.12674100775E+01  0.97648194781E+01 -0.20417365103E+01  0.10056178001E+02  0.51100000000E-03 0.  1.
         12    1    4    4    0    0 -0.17447287600E+02  0.47321360672E+01  0.50169635938E+01  0.18760886975E+02  0.00000000000E+00 0. -1.
</event>
<event>
 8    1  0.3186330E-007  0.9118800E+02  0.7816164E-02  0.1184000E+00
        -11   -1    0    0    0    0  0.00000000000E+00  0.00000000000E+00  0.45593999997E+02  0.45594000000E+02  0.51100000000E-03 0. -1.
         11   -1    0    0    0    0 -0.00000000000E+00 -0.00000000000E+00 -0.45593999997E+02  0.45594000000E+02  0.51100000000E-03 0.  1.
         23    2    1    2    0    0  0.00000000000E+00  0.00000000000E+00  0.00000000000E+00  0.91188000000E+02  0.91188000000E+02 0.  0.
    9900012    2    3    3    0    0 -0.16607638441E+02  0.28967731336E+02  0.15518850162E+02  0.54367111585E+02  0.40000062479E+02 0.  0.
        -12    1    3    3    0    0  0.16607638441E+02 -0.28967731336E+02 -0.15518850162E+02  0.36820888415E+02  0.00000000000E+00 0.  1.
         11    1    4    4    0    0  0.90657945105E+01  0.11505686569E+02 -0.66723477673E+01  0.16096262874E+02  0.51100000000E-03 0.  1.
        -11    1    4    4    0    0 -0.73304211257E+01  0.52289993489E+01  0.80461042349E+01  0.12075483497E+02  0.51100000000E-03 0. -1.
        -12    1    4    4    0    0 -0.18343011825E+02  0.12233045419E+02  0.14145093694E+02  0.26195365213E+02  0.00000000000E+00 0.  1.
</event>
<event>
 8    1  0.3186330E-007  0.9118800E+02  0.7816164E-02  0.1184000E+00
        -11   -1    0    0    0    0  0.00000000000E+00  0.00000000000E+00  0.45593999997E+02  0.45594000000E+02  0.51100000000E-03 0.  1.
         11   -1    0    0    0    0 -0.00000000000E+00 -0.00000000000E+00 -0.45593999997E+02  0.45594000000E+02  0.51100000000E-03 0. -1.
         23    2    1    2    0    0 -0.35527136788E-14  0.00000000000E+00  0.88817841970E-15  0.91188000000E+02  0.91188000000E+02 0.  0.
    9900012    2    3    3    0    0 -0.21118899652E+02 -0.29895981986E+02  0.40003175427E+01  0.54367079291E+02  0.39999988859E+02 0.  0.
        -12    1    3    3    0    0  0.21118899652E+02  0.29895981986E+02 -0.40003175427E+01  0.36820920709E+02  0.00000000000E+00 0.  1.
         11    1    4    4    0    0  0.49815831144E+01 -0.15228958538E+02  0.58783421533E+01  0.17067286111E+02  0.51100000000E-03 0. -1.
        -11    1    4    4    0    0 -0.29974712037E+02 -0.11179270833E+02 -0.22714686391E+01  0.32072091109E+02  0.51100000000E-03 0.  1.
         12    1    4    4    0    0  0.38742292698E+01 -0.34877526150E+01  0.39344402854E+00  0.52277020709E+01  0.00000000000E+00 0. -1.
</event>
<event>
 8    1  0.3186330E-007  0.9118800E+02  0.7816164E-02  0.1184000E+00
        -11   -1    0    0    0    0  0.00000000000E+00  0.00000000000E+00  0.45593999997E+02  0.45594000000E+02  0.51100000000E-03 0.  1.
         11   -1    0    0    0    0 -0.00000000000E+00 -0.00000000000E+00 -0.45593999997E+02  0.45594000000E+02  0.51100000000E-03 0. -1.
         23    2    1    2    0    0  0.00000000000E+00  0.17763568394E-14  0.71054273576E-14  0.91188000000E+02  0.91188000000E+02 0.  0.
    9900012    2    3    3    0    0 -0.99195238927E+01 -0.14705608978E+02 -0.32266505351E+02  0.54367092118E+02  0.40000018101E+02 0.  0.
        -12    1    3    3    0    0  0.99195238927E+01  0.14705608978E+02  0.32266505351E+02  0.36820907882E+02  0.00000000000E+00 0.  1.
         11    1    4    4    0    0 -0.61607576795E+01 -0.31172246038E+01 -0.11167008973E+02  0.13129132267E+02  0.51100000000E-03 0. -1.
        -11    1    4    4    0    0  0.14893771814E+01 -0.21828016962E+01 -0.28208946413E+02  0.28332446517E+02  0.51100000000E-03 0.  1.
        -12    1    4    4    0    0 -0.52481433946E+01 -0.94055826785E+01  0.71094500349E+01  0.12905513334E+02  0.00000000000E+00 0.  1.
</event>
<event>
 8    1  0.3186330E-007  0.9118800E+02  0.7816164E-02  0.1184000E+00
        -11   -1    0    0    0    0  0.00000000000E+00  0.00000000000E+00  0.45593999997E+02  0.45594000000E+02  0.51100000000E-03 0. -1.
         11   -1    0    0    0    0 -0.00000000000E+00 -0.00000000000E+00 -0.45593999997E+02  0.45594000000E+02  0.51100000000E-03 0.  1.
         23    2    1    2    0    0  0.00000000000E+00  0.00000000000E+00  0.00000000000E+00  0.91188000000E+02  0.91188000000E+02 0.  0.
    9900012    2    3    3    0    0 -0.68195989064E+01 -0.29184946923E+02  0.21389516714E+02  0.54367089075E+02  0.40000011164E+02 0.  0.
        -12    1    3    3    0    0  0.68195989064E+01  0.29184946923E+02 -0.21389516714E+02  0.36820910925E+02  0.00000000000E+00 0.  1.
         11    1    4    4    0    0  0.11258414593E+01 -0.58066879178E+00 -0.30720785584E+01  0.33230049906E+01  0.51100000000E-03 0. -1.
        -11    1    4    4    0    0 -0.11830561182E+01  0.73774364818E+01  0.94705544630E+00  0.75314742980E+01  0.51100000000E-03 0.  1.
         12    1    4    4    0    0 -0.67623842476E+01 -0.35981714613E+02  0.23514539826E+02  0.43512609786E+02  0.00000000000E+00 0. -1.
</event>
<event>
 8    1  0.3186330E-007  0.9118800E+02  0.7816164E-02  0.1184000E+00
        -11   -1    0    0    0    0  0.00000000000E+00  0.00000000000E+00  0.45593999997E+02  0.45594000000E+02  0.51100000000E-03 0.  1.
         11   -1    0    0    0    0 -0.00000000000E+00 -0.00000000000E+00 -0.45593999997E+02  0.45594000000E+02  0.51100000000E-03 0. -1.
         23    2    1    2    0    0 -0.35527136788E-14  0.00000000000E+00  0.00000000000E+00  0.91188000000E+02  0.91188000000E+02 0.  0.
    9900012    2    3    3    0    0  0.20156748826E+02 -0.26454554786E+02  0.15800078008E+02  0.54367075823E+02  0.39999980954E+02 0.  0.
         12    1    3    3    0    0 -0.20156748826E+02  0.26454554786E+02 -0.15800078008E+02  0.36820924177E+02  0.00000000000E+00 0. -1.
         11    1    4    4    0    0  0.17369272077E+01  0.31652604544E+01 -0.62447556436E+01  0.72133739109E+01  0.51100000000E-03 0. -1.
        -11    1    4    4    0    0 -0.30806898797E+01 -0.55577866449E+01  0.11618349761E+02  0.13242571274E+02  0.51100000000E-03 0.  1.
         12    1    4    4    0    0  0.21500511498E+02 -0.24062028596E+02  0.10426483890E+02  0.33911130638E+02  0.00000000000E+00 0. -1.
</event>
<event>
 8    1  0.3186330E-007  0.9118800E+02  0.7816164E-02  0.1184000E+00
        -11   -1    0    0    0    0  0.00000000000E+00  0.00000000000E+00  0.45593999997E+02  0.45594000000E+02  0.51100000000E-03 0.  1.
         11   -1    0    0    0    0 -0.00000000000E+00 -0.00000000000E+00 -0.45593999997E+02  0.45594000000E+02  0.51100000000E-03 0. -1.
         23    2    1    2    0    0  0.00000000000E+00  0.00000000000E+00  0.00000000000E+00  0.91188000000E+02  0.91188000000E+02 0.  0.
    9900012    2    3    3    0    0  0.34880637091E+02 -0.47317718933E+01 -0.10804247596E+02  0.54367078295E+02  0.39999986588E+02 0.  0.
         12    1    3    3    0    0 -0.34880637091E+02  0.47317718933E+01  0.10804247596E+02  0.36820921705E+02  0.00000000000E+00 0. -1.
         11    1    4    4    0    0  0.32972692772E+01  0.21715759019E+01 -0.96477999208E+01  0.10424383443E+02  0.51100000000E-03 0. -1.
        -11    1    4    4    0    0  0.29272885987E+02 -0.11862584208E+02  0.86193084135E+01  0.32740116614E+02  0.51100000000E-03 0.  1.
        -12    1    4    4    0    0  0.23104818268E+01  0.49592364131E+01 -0.97757560887E+01  0.11202578238E+02  0.00000000000E+00 0.  1.
</event>
<event>
 8    1  0.3186330E-007  0.9118800E+02  0.7816164E-02  0.1184000E+00
        -11   -1    0    0    0    0  0.00000000000E+00  0.00000000000E+00  0.45593999997E+02  0.45594000000E+02  0.51100000000E-03 0.  1.
         11   -1    0    0    0    0 -0.00000000000E+00 -0.00000000000E+00 -0.45593999997E+02  0.45594000000E+02  0.51100000000E-03 0. -1.
         23    2    1    2    0    0  0.35527136788E-14 -0.17763568394E-14  0.17763568394E-14  0.91188000000E+02  0.91188000000E+02 0.  0.
    9900012    2    3    3    0    0 -0.31111608793E+02  0.15184782879E+02 -0.12540740571E+02  0.54367081940E+02  0.39999994898E+02 0.  0.
        -12    1    3    3    0    0  0.31111608793E+02 -0.15184782879E+02  0.12540740571E+02  0.36820918060E+02  0.00000000000E+00 0.  1.
         11    1    4    4    0    0  0.32779114444E+01  0.13113759460E+02 -0.19583498218E+00  0.13518644245E+02  0.51100000000E-03 0. -1.
        -11    1    4    4    0    0 -0.21306041845E+02  0.25878116468E+01  0.18433966140E+01  0.21541641060E+02  0.51100000000E-03 0.  1.
         12    1    4    4    0    0 -0.13083478392E+02 -0.51678822783E+00 -0.14188302202E+02  0.19306796635E+02  0.00000000000E+00 0. -1.
</event>
<event>
 8    1  0.3186330E-007  0.9118800E+02  0.7816164E-02  0.1184000E+00
        -11   -1    0    0    0    0  0.00000000000E+00  0.00000000000E+00  0.45593999997E+02  0.45594000000E+02  0.51100000000E-03 0.  1.
         11   -1    0    0    0    0 -0.00000000000E+00 -0.00000000000E+00 -0.45593999997E+02  0.45594000000E+02  0.51100000000E-03 0. -1.
         23    2    1    2    0    0  0.00000000000E+00  0.35527136788E-14  0.00000000000E+00  0.91188000000E+02  0.91188000000E+02 0.  0.
    9900012    2    3    3    0    0  0.30489546880E+02  0.19294109711E+02 -0.73420041304E+01  0.54367079816E+02  0.39999990057E+02 0.  0.
         12    1    3    3    0    0 -0.30489546880E+02 -0.19294109711E+02  0.73420041304E+01  0.36820920184E+02  0.00000000000E+00 0. -1.
         11    1    4    4    0    0  0.16188813753E+02  0.78067265474E+01  0.22004808172E+01  0.18107036925E+02  0.51100000000E-03 0. -1.
        -11    1    4    4    0    0  0.15100250070E+02  0.17598131942E+02  0.18970326614E+01  0.23266081175E+02  0.51100000000E-03 0.  1.
         12    1    4    4    0    0 -0.79951694264E+00 -0.61107487784E+01 -0.11439517609E+02  0.12993961717E+02  0.00000000000E+00 0. -1.
</event>
<event>
 8    1  0.3186330E-007  0.9118800E+02  0.7816164E-02  0.1184000E+00
        -11   -1    0    0    0    0  0.00000000000E+00  0.00000000000E+00  0.45593999997E+02  0.45594000000E+02  0.51100000000E-03 0.  1.
         11   -1    0    0    0    0 -0.00000000000E+00 -0.00000000000E+00 -0.45593999997E+02  0.45594000000E+02  0.51100000000E-03 0. -1.
         23    2    1    2    0    0  0.35527136788E-14  0.00000000000E+00  0.00000000000E+00  0.91188000000E+02  0.91188000000E+02 0.  0.
    9900012    2    3    3    0    0 -0.25379047014E+02 -0.18170170369E+02  0.19532705831E+02  0.54367113051E+02  0.40000065823E+02 0.  0.
        -12    1    3    3    0    0  0.25379047014E+02  0.18170170369E+02 -0.19532705831E+02  0.36820886949E+02  0.00000000000E+00 0.  1.
         11    1    4    4    0    0 -0.82600094200E+01  0.75128678356E+00 -0.72562501922E+01  0.11020224796E+02  0.51100000000E-03 0. -1.
        -11    1    4    4    0    0 -0.18232804922E+02 -0.22332271089E+02  0.18343621151E+02  0.34170951765E+02  0.51100000000E-03 0.  1.
        -12    1    4    4    0    0  0.11137673278E+01  0.34108139365E+01  0.84453348722E+01  0.91759364902E+01  0.00000000000E+00 0.  1.
</event>
<event>
 8    1  0.3186330E-007  0.9118800E+02  0.7816164E-02  0.1184000E+00
        -11   -1    0    0    0    0  0.00000000000E+00  0.00000000000E+00  0.45593999997E+02  0.45594000000E+02  0.51100000000E-03 0.  1.
         11   -1    0    0    0    0 -0.00000000000E+00 -0.00000000000E+00 -0.45593999997E+02  0.45594000000E+02  0.51100000000E-03 0. -1.
         23    2    1    2    0    0  0.00000000000E+00 -0.44408920985E-15  0.00000000000E+00  0.91188000000E+02  0.91188000000E+02 0.  0.
    9900012    2    3    3    0    0 -0.32639022854E+02  0.32034241745E+01 -0.16739138030E+02  0.54367265606E+02  0.40000413599E+02 0.  0.
        -12    1    3    3    0    0  0.32639022854E+02 -0.32034241745E+01  0.16739138030E+02  0.36820734394E+02  0.00000000000E+00 0.  1.
         11    1    4    4    0    0 -0.14313430790E+02  0.29190567979E+01 -0.10353908155E+02  0.17905267602E+02  0.51100000000E-03 0. -1.
        -11    1    4    4    0    0 -0.39399690504E+01  0.11568957351E+02  0.67384374142E+01  0.13956026274E+02  0.51100000000E-03 0.  1.
         12    1    4    4    0    0 -0.14385623014E+02 -0.11284589974E+02 -0.13123667289E+02  0.22505971730E+02  0.00000000000E+00 0. -1.
</event>
<event>
 8    1  0.3186330E-007  0.9118800E+02  0.7816164E-02  0.1184000E+00
        -11   -1    0    0    0    0  0.00000000000E+00  0.00000000000E+00  0.45593999997E+02  0.45594000000E+02  0.51100000000E-03 0. -1.
         11   -1    0    0    0    0 -0.00000000000E+00 -0.00000000000E+00 -0.45593999997E+02  0.45594000000E+02  0.51100000000E-03 0.  1.
         23    2    1    2    0    0  0.00000000000E+00  0.71054273576E-14  0.17763568394E-14  0.91188000000E+02  0.91188000000E+02 0.  0.
    9900012    2    3    3    0    0  0.17984674845E+02 -0.31074966473E+02 -0.81656303948E+01  0.54367087595E+02  0.40000007790E+02 0.  0.
         12    1    3    3    0    0 -0.17984674845E+02  0.31074966473E+02  0.81656303948E+01  0.36820912405E+02  0.00000000000E+00 0. -1.
         11    1    4    4    0    0 -0.14017674619E+01  0.66628887995E+01  0.33465231993E+00  0.68169664520E+01  0.51100000000E-03 0. -1.
        -11    1    4    4    0    0  0.44146022433E+01 -0.28941896013E+02 -0.71256198150E+01  0.30131321176E+02  0.51100000000E-03 0.  1.
         12    1    4    4    0    0  0.14971840064E+02 -0.87959592596E+01 -0.13746628997E+01  0.17418799967E+02  0.00000000000E+00 0. -1.
</event>
<event>
 8    1  0.3186330E-007  0.9118800E+02  0.7816164E-02  0.1184000E+00
        -11   -1    0    0    0    0  0.00000000000E+00  0.00000000000E+00  0.45593999997E+02  0.45594000000E+02  0.51100000000E-03 0.  1.
         11   -1    0    0    0    0 -0.00000000000E+00 -0.00000000000E+00 -0.45593999997E+02  0.45594000000E+02  0.51100000000E-03 0. -1.
         23    2    1    2    0    0 -0.17763568394E-14  0.35527136788E-14  0.00000000000E+00  0.91188000000E+02  0.91188000000E+02 0.  0.
    9900012    2    3    3    0    0 -0.13311001109E+02 -0.24309137347E+02 -0.24241736731E+02  0.54367099565E+02  0.40000035078E+02 0.  0.
        -12    1    3    3    0    0  0.13311001109E+02  0.24309137347E+02  0.24241736731E+02  0.36820900435E+02  0.00000000000E+00 0.  1.
         11    1    4    4    0    0 -0.63978737296E+01 -0.28266990015E+02 -0.34442940977E+01  0.29185932825E+02  0.51100000000E-03 0. -1.
        -11    1    4    4    0    0 -0.58225744103E+01 -0.33689434814E+01 -0.87226557335E+01  0.11015301914E+02  0.51100000000E-03 0.  1.
        -12    1    4    4    0    0 -0.10905529690E+01  0.73267961491E+01 -0.12074786900E+02  0.14165864826E+02  0.00000000000E+00 0.  1.
</event>
<event>
 8    1  0.3186330E-007  0.9118800E+02  0.7816164E-02  0.1184000E+00
        -11   -1    0    0    0    0  0.00000000000E+00  0.00000000000E+00  0.45593999997E+02  0.45594000000E+02  0.51100000000E-03 0.  1.
         11   -1    0    0    0    0 -0.00000000000E+00 -0.00000000000E+00 -0.45593999997E+02  0.45594000000E+02  0.51100000000E-03 0. -1.
         23    2    1    2    0    0  0.00000000000E+00  0.00000000000E+00  0.00000000000E+00  0.91188000000E+02  0.91188000000E+02 0.  0.
    9900012    2    3    3    0    0 -0.15776073181E+02  0.11997346875E+02  0.31031577591E+02  0.54367087127E+02  0.40000006722E+02 0.  0.
         12    1    3    3    0    0  0.15776073181E+02 -0.11997346875E+02 -0.31031577591E+02  0.36820912873E+02  0.00000000000E+00 0. -1.
         11    1    4    4    0    0 -0.44024180905E+01  0.20327211150E+02  0.81434739374E+01  0.22335912030E+02  0.51100000000E-03 0. -1.
        -11    1    4    4    0    0 -0.30065441668E+00  0.49005006787E+01  0.32347332868E+01  0.58795237628E+01  0.51100000000E-03 0.  1.
        -12    1    4    4    0    0 -0.11073000673E+02 -0.13230364953E+02  0.19653370367E+02  0.26151651334E+02  0.00000000000E+00 0.  1.
</event>
<event>
 8    1  0.3186330E-007  0.9118800E+02  0.7816164E-02  0.1184000E+00
        -11   -1    0    0    0    0  0.00000000000E+00  0.00000000000E+00  0.45593999997E+02  0.45594000000E+02  0.51100000000E-03 0.  1.
         11   -1    0    0    0    0 -0.00000000000E+00 -0.00000000000E+00 -0.45593999997E+02  0.45594000000E+02  0.51100000000E-03 0. -1.
         23    2    1    2    0    0  0.17763568394E-14  0.00000000000E+00  0.00000000000E+00  0.91188000000E+02  0.91188000000E+02 0.  0.
    9900012    2    3    3    0    0 -0.92729349219E+01  0.16481129162E+02  0.31593673369E+02  0.54367148061E+02  0.40000145635E+02 0.  0.
         12    1    3    3    0    0  0.92729349219E+01 -0.16481129162E+02 -0.31593673369E+02  0.36820851939E+02  0.00000000000E+00 0. -1.
         11    1    4    4    0    0 -0.12735113600E+02 -0.39327230971E+01  0.13571480334E+02  0.19021948063E+02  0.51100000000E-03 0. -1.
        -11    1    4    4    0    0  0.11007816228E+02  0.64055704360E+01  0.22344370415E+01  0.12930431542E+02  0.51100000000E-03 0.  1.
        -12    1    4    4    0    0 -0.75456375495E+01  0.14008281823E+02  0.15787755993E+02  0.22414768457E+02  0.00000000000E+00 0.  1.
</event>
<event>
 8    1  0.3186330E-007  0.9118800E+02  0.7816164E-02  0.1184000E+00
        -11   -1    0    0    0    0  0.00000000000E+00  0.00000000000E+00  0.45593999997E+02  0.45594000000E+02  0.51100000000E-03 0. -1.
         11   -1    0    0    0    0 -0.00000000000E+00 -0.00000000000E+00 -0.45593999997E+02  0.45594000000E+02  0.51100000000E-03 0.  1.
         23    2    1    2    0    0  0.00000000000E+00 -0.71054273576E-14  0.00000000000E+00  0.91188000000E+02  0.91188000000E+02 0.  0.
    9900012    2    3    3    0    0  0.90982533285E+01 -0.31789170000E+02  0.16200327673E+02  0.54367079865E+02  0.39999990167E+02 0.  0.
         12    1    3    3    0    0 -0.90982533285E+01  0.31789170000E+02 -0.16200327673E+02  0.36820920135E+02  0.00000000000E+00 0. -1.
         11    1    4    4    0    0 -0.90062771489E+01  0.70232647553E+00  0.88577983668E+01  0.12651754136E+02  0.51100000000E-03 0. -1.
        -11    1    4    4    0    0 -0.21637334823E+01  0.49613520129E+00 -0.33404689728E+00  0.22448786852E+01  0.51100000000E-03 0.  1.
        -12    1    4    4    0    0  0.20268263960E+02 -0.32987631676E+02  0.76765762039E+01  0.39470447043E+02  0.00000000000E+00 0.  1.
</event>
<event>
 8    1  0.3186330E-007  0.9118800E+02  0.7816164E-02  0.1184000E+00
        -11   -1    0    0    0    0  0.00000000000E+00  0.00000000000E+00  0.45593999997E+02  0.45594000000E+02  0.51100000000E-03 0.  1.
         11   -1    0    0    0    0 -0.00000000000E+00 -0.00000000000E+00 -0.45593999997E+02  0.45594000000E+02  0.51100000000E-03 0. -1.
         23    2    1    2    0    0  0.88817841970E-15  0.00000000000E+00 -0.22204460493E-15  0.91188000000E+02  0.91188000000E+02 0.  0.
    9900012    2    3    3    0    0 -0.43218722569E+01 -0.36561523258E+02  0.59491674607E+00  0.54367116133E+02  0.40000072849E+02 0.  0.
        -12    1    3    3    0    0  0.43218722569E+01  0.36561523258E+02 -0.59491674607E+00  0.36820883867E+02  0.00000000000E+00 0.  1.
         11    1    4    4    0    0 -0.14696211358E+02 -0.24976252615E+02 -0.86476393252E+00  0.28992061670E+02  0.51100000000E-03 0.  1.
        -11    1    4    4    0    0  0.31602543539E+01 -0.16225777244E+02  0.25575949879E+01  0.16727353261E+02  0.51100000000E-03 0. -1.
        -12    1    4    4    0    0  0.72140847470E+01  0.46405066005E+01 -0.10979143093E+01  0.86477012019E+01  0.00000000000E+00 0.  1.
</event>
<event>
 8    1  0.3186330E-007  0.9118800E+02  0.7816164E-02  0.1184000E+00
        -11   -1    0    0    0    0  0.00000000000E+00  0.00000000000E+00  0.45593999997E+02  0.45594000000E+02  0.51100000000E-03 0. -1.
         11   -1    0    0    0    0 -0.00000000000E+00 -0.00000000000E+00 -0.45593999997E+02  0.45594000000E+02  0.51100000000E-03 0.  1.
         23    2    1    2    0    0  0.88817841970E-15 -0.33306690739E-15 -0.71054273576E-14  0.91188000000E+02  0.91188000000E+02 0.  0.
    9900012    2    3    3    0    0 -0.35188655005E+01  0.60614310747E+00  0.36647385161E+02  0.54367073029E+02  0.39999974583E+02 0.  0.
        -12    1    3    3    0    0  0.35188655005E+01 -0.60614310747E+00 -0.36647385161E+02  0.36820926971E+02  0.00000000000E+00 0.  1.
         11    1    4    4    0    0 -0.81720766584E+01 -0.23521782420E+01  0.29531887731E+02  0.30731872260E+02  0.51100000000E-03 0. -1.
        -11    1    4    4    0    0 -0.44384538094E+01  0.66442319597E+01 -0.38941729644E+01  0.88887723500E+01  0.51100000000E-03 0.  1.
         12    1    4    4    0    0  0.90916649673E+01 -0.36859106102E+01  0.11009670394E+02  0.14746428418E+02  0.00000000000E+00 0. -1.
</event>
<event>
 8    1  0.3186330E-007  0.9118800E+02  0.7816164E-02  0.1184000E+00
        -11   -1    0    0    0    0  0.00000000000E+00  0.00000000000E+00  0.45593999997E+02  0.45594000000E+02  0.51100000000E-03 0.  1.
         11   -1    0    0    0    0 -0.00000000000E+00 -0.00000000000E+00 -0.45593999997E+02  0.45594000000E+02  0.51100000000E-03 0. -1.
         23    2    1    2    0    0  0.88817841970E-15 -0.22204460493E-15  0.71054273576E-14  0.91188000000E+02  0.91188000000E+02 0.  0.
    9900012    2    3    3    0    0 -0.64071747004E+01 -0.16609730229E+01 -0.36221119616E+02  0.54367078973E+02  0.39999988135E+02 0.  0.
        -12    1    3    3    0    0  0.64071747004E+01  0.16609730229E+01  0.36221119616E+02  0.36820921027E+02  0.00000000000E+00 0.  1.
         11    1    4    4    0    0  0.31189419406E+01  0.17658605332E+00 -0.22900213599E+02  0.23112307643E+02  0.51100000000E-03 0. -1.
        -11    1    4    4    0    0 -0.10966294395E+02 -0.91725490729E+01  0.17780059505E+01  0.14406823893E+02  0.51100000000E-03 0.  1.
        -12    1    4    4    0    0  0.14401777542E+01  0.73349899967E+01 -0.15098911968E+02  0.16847947437E+02  0.00000000000E+00 0.  1.
</event>
<event>
 8    1  0.3186330E-007  0.9118800E+02  0.7816164E-02  0.1184000E+00
        -11   -1    0    0    0    0  0.00000000000E+00  0.00000000000E+00  0.45593999997E+02  0.45594000000E+02  0.51100000000E-03 0.  1.
         11   -1    0    0    0    0 -0.00000000000E+00 -0.00000000000E+00 -0.45593999997E+02  0.45594000000E+02  0.51100000000E-03 0. -1.
         23    2    1    2    0    0 -0.71054273576E-14  0.00000000000E+00 -0.35527136788E-14  0.91188000000E+02  0.91188000000E+02 0.  0.
    9900012    2    3    3    0    0  0.28370329558E+02 -0.66770711180E+01  0.22501577899E+02  0.54367083582E+02  0.39999998641E+02 0.  0.
         12    1    3    3    0    0 -0.28370329558E+02  0.66770711180E+01 -0.22501577899E+02  0.36820916418E+02  0.00000000000E+00 0. -1.
         11    1    4    4    0    0  0.30039863703E+01  0.43414738756E+01  0.15519656261E+01  0.55028108355E+01  0.51100000000E-03 0. -1.
        -11    1    4    4    0    0  0.14089214252E+02 -0.14257744469E+02  0.28550440375E+02  0.34884335761E+02  0.51100000000E-03 0.  1.
         12    1    4    4    0    0  0.11277128936E+02  0.32391994757E+01 -0.76008281022E+01  0.13979936985E+02  0.00000000000E+00 0. -1.
</event>
<event>
 8    1  0.3186330E-007  0.9118800E+02  0.7816164E-02  0.1184000E+00
        -11   -1    0    0    0    0  0.00000000000E+00  0.00000000000E+00  0.45593999997E+02  0.45594000000E+02  0.51100000000E-03 0. -1.
         11   -1    0    0    0    0 -0.00000000000E+00 -0.00000000000E+00 -0.45593999997E+02  0.45594000000E+02  0.51100000000E-03 0.  1.
         23    2    1    2    0    0  0.22204460493E-14  0.71054273576E-14 -0.44408920985E-15  0.91188000000E+02  0.91188000000E+02 0.  0.
    9900012    2    3    3    0    0  0.23820985970E+01  0.36724239689E+02 -0.11973340687E+01  0.54367112133E+02  0.40000063729E+02 0.  0.
         12    1    3    3    0    0 -0.23820985970E+01 -0.36724239689E+02  0.11973340687E+01  0.36820887867E+02  0.00000000000E+00 0. -1.
         11    1    4    4    0    0  0.16255187926E+02  0.32752961998E+02 -0.45318702908E+01  0.36844612940E+02  0.51100000000E-03 0. -1.
        -11    1    4    4    0    0 -0.11468409393E+01 -0.97737205585E+00  0.35603576939E+01  0.38660894254E+01  0.51100000000E-03 0.  1.
        -12    1    4    4    0    0 -0.12726248389E+02  0.49486497469E+01 -0.22582147187E+00  0.13656409767E+02  0.00000000000E+00 0.  1.
</event>
<event>
 8    1  0.3186330E-007  0.9118800E+02  0.7816164E-02  0.1184000E+00
        -11   -1    0    0    0    0  0.00000000000E+00  0.00000000000E+00  0.45593999997E+02  0.45594000000E+02  0.51100000000E-03 0. -1.
         11   -1    0    0    0    0 -0.00000000000E+00 -0.00000000000E+00 -0.45593999997E+02  0.45594000000E+02  0.51100000000E-03 0.  1.
         23    2    1    2    0    0 -0.35527136788E-14  0.35527136788E-14 -0.26645352591E-14  0.91188000000E+02  0.91188000000E+02 0.  0.
    9900012    2    3    3    0    0 -0.22606250148E+02  0.28359255808E+02 -0.63631183181E+01  0.54367092754E+02  0.40000019550E+02 0.  0.
         12    1    3    3    0    0  0.22606250148E+02 -0.28359255808E+02  0.63631183181E+01  0.36820907246E+02  0.00000000000E+00 0. -1.
         11    1    4    4    0    0 -0.14603148063E+02  0.89575154118E+01  0.46959730878E+01  0.17763478804E+02  0.51100000000E-03 0. -1.
        -11    1    4    4    0    0  0.30790029322E+00  0.13085568620E+02  0.76635068685E+01  0.15167605166E+02  0.51100000000E-03 0.  1.
        -12    1    4    4    0    0 -0.83110023779E+01  0.63161717763E+01 -0.18722598274E+02  0.21436008784E+02  0.00000000000E+00 0.  1.
</event>
<event>
 8    1  0.3186330E-007  0.9118800E+02  0.7816164E-02  0.1184000E+00
        -11   -1    0    0    0    0  0.00000000000E+00  0.00000000000E+00  0.45593999997E+02  0.45594000000E+02  0.51100000000E-03 0. -1.
         11   -1    0    0    0    0 -0.00000000000E+00 -0.00000000000E+00 -0.45593999997E+02  0.45594000000E+02  0.51100000000E-03 0.  1.
         23    2    1    2    0    0  0.17763568394E-14  0.00000000000E+00  0.00000000000E+00  0.91188000000E+02  0.91188000000E+02 0.  0.
    9900012    2    3    3    0    0  0.91556663022E+01  0.17014342281E+02 -0.31344318074E+02  0.54367077358E+02  0.39999984452E+02 0.  0.
         12    1    3    3    0    0 -0.91556663022E+01 -0.17014342281E+02  0.31344318074E+02  0.36820922642E+02  0.00000000000E+00 0. -1.
         11    1    4    4    0    0  0.16706155092E+02  0.52442455400E+01 -0.43682785873E+00  0.17515380329E+02  0.51100000000E-03 0. -1.
        -11    1    4    4    0    0 -0.91213413869E+01  0.99297767283E+00 -0.14450948145E+02  0.17117674372E+02  0.51100000000E-03 0.  1.
        -12    1    4    4    0    0  0.15708525973E+01  0.10777119068E+02 -0.16456542071E+02  0.19734022657E+02  0.00000000000E+00 0.  1.
</event>
<event>
 8    1  0.3186330E-007  0.9118800E+02  0.7816164E-02  0.1184000E+00
        -11   -1    0    0    0    0  0.00000000000E+00  0.00000000000E+00  0.45593999997E+02  0.45594000000E+02  0.51100000000E-03 0.  1.
         11   -1    0    0    0    0 -0.00000000000E+00 -0.00000000000E+00 -0.45593999997E+02  0.45594000000E+02  0.51100000000E-03 0. -1.
         23    2    1    2    0    0 -0.17763568394E-14 -0.66613381478E-15  0.00000000000E+00  0.91188000000E+02  0.91188000000E+02 0.  0.
    9900012    2    3    3    0    0 -0.53670396559E+01  0.10101522383E+01  0.36413454484E+02  0.54367283146E+02  0.40000453585E+02 0.  0.
         12    1    3    3    0    0  0.53670396559E+01 -0.10101522383E+01 -0.36413454484E+02  0.36820716854E+02  0.00000000000E+00 0. -1.
         11    1    4    4    0    0  0.37477122782E+01 -0.39602037041E+01  0.37453567987E+00  0.54652390556E+01  0.51100000000E-03 0. -1.
        -11    1    4    4    0    0 -0.17655352099E+02 -0.60334767949E+01  0.16505334434E+02  0.24910647623E+02  0.51100000000E-03 0.  1.
         12    1    4    4    0    0  0.85406001652E+01  0.11003832737E+02  0.19533584370E+02  0.23991396467E+02  0.00000000000E+00 0. -1.
</event>
<event>
 8    1  0.3186330E-007  0.9118800E+02  0.7816164E-02  0.1184000E+00
        -11   -1    0    0    0    0  0.00000000000E+00  0.00000000000E+00  0.45593999997E+02  0.45594000000E+02  0.51100000000E-03 0. -1.
         11   -1    0    0    0    0 -0.00000000000E+00 -0.00000000000E+00 -0.45593999997E+02  0.45594000000E+02  0.51100000000E-03 0.  1.
         23    2    1    2    0    0  0.00000000000E+00  0.00000000000E+00  0.00000000000E+00  0.91188000000E+02  0.91188000000E+02 0.  0.
    9900012    2    3    3    0    0 -0.15623968994E+02  0.16432693762E+02 -0.29010989506E+02  0.54367090946E+02  0.40000015430E+02 0.  0.
         12    1    3    3    0    0  0.15623968994E+02 -0.16432693762E+02  0.29010989506E+02  0.36820909054E+02  0.00000000000E+00 0. -1.
         11    1    4    4    0    0 -0.34194035401E+01 -0.43715580885E+01  0.74747681578E+01  0.93099409217E+01  0.51100000000E-03 0. -1.
        -11    1    4    4    0    0 -0.13567452712E+01 -0.11541485816E+01 -0.13849924172E+01  0.22563290842E+01  0.51100000000E-03 0.  1.
        -12    1    4    4    0    0 -0.10847820182E+02  0.21958400432E+02 -0.35100765247E+02  0.42800820940E+02  0.00000000000E+00 0.  1.
</event>
<event>
 8    1  0.3186330E-007  0.9118800E+02  0.7816164E-02  0.1184000E+00
        -11   -1    0    0    0    0  0.00000000000E+00  0.00000000000E+00  0.45593999997E+02  0.45594000000E+02  0.51100000000E-03 0. -1.
         11   -1    0    0    0    0 -0.00000000000E+00 -0.00000000000E+00 -0.45593999997E+02  0.45594000000E+02  0.51100000000E-03 0.  1.
         23    2    1    2    0    0  0.71054273576E-14  0.35527136788E-14 -0.17763568394E-14  0.91188000000E+02  0.91188000000E+02 0.  0.
    9900012    2    3    3    0    0 -0.26075099806E+02 -0.22179292323E+02  0.13562738579E+02  0.54367085894E+02  0.40000003912E+02 0.  0.
        -12    1    3    3    0    0  0.26075099806E+02  0.22179292323E+02 -0.13562738579E+02  0.36820914106E+02  0.00000000000E+00 0.  1.
         11    1    4    4    0    0  0.53219045102E+01  0.41733874393E+01 -0.47233812980E+01  0.82492521771E+01  0.51100000000E-03 0.  1.
        -11    1    4    4    0    0 -0.28416651271E+02 -0.26378981073E+02  0.14727515541E+02  0.41475974084E+02  0.51100000000E-03 0. -1.
         12    1    4    4    0    0 -0.29803530449E+01  0.26301311107E-01  0.35586043360E+01  0.46418596329E+01  0.00000000000E+00 0. -1.
</event>
<event>
 8    1  0.3186330E-007  0.9118800E+02  0.7816164E-02  0.1184000E+00
        -11   -1    0    0    0    0  0.00000000000E+00  0.00000000000E+00  0.45593999997E+02  0.45594000000E+02  0.51100000000E-03 0.  1.
         11   -1    0    0    0    0 -0.00000000000E+00 -0.00000000000E+00 -0.45593999997E+02  0.45594000000E+02  0.51100000000E-03 0. -1.
         23    2    1    2    0    0 -0.35527136788E-14  0.35527136788E-14  0.35527136788E-14  0.91188000000E+02  0.91188000000E+02 0.  0.
    9900012    2    3    3    0    0  0.24394594321E+02 -0.20227656070E+02 -0.18749024223E+02  0.54367079160E+02  0.39999988561E+02 0.  0.
        -12    1    3    3    0    0 -0.24394594321E+02  0.20227656070E+02  0.18749024223E+02  0.36820920840E+02  0.00000000000E+00 0.  1.
         11    1    4    4    0    0  0.13383242245E+02 -0.11984110701E+02  0.98238041922E+01  0.20475282937E+02  0.51100000000E-03 0.  1.
        -11    1    4    4    0    0  0.70836611139E+01 -0.10522626032E+02 -0.25275391995E+02  0.28279840066E+02  0.51100000000E-03 0. -1.
        -12    1    4    4    0    0  0.39276909626E+01  0.22790806632E+01 -0.32974364201E+01  0.56119561573E+01  0.00000000000E+00 0.  1.
</event>
<event>
 8    1  0.3186330E-007  0.9118800E+02  0.7816164E-02  0.1184000E+00
        -11   -1    0    0    0    0  0.00000000000E+00  0.00000000000E+00  0.45593999997E+02  0.45594000000E+02  0.51100000000E-03 0. -1.
         11   -1    0    0    0    0 -0.00000000000E+00 -0.00000000000E+00 -0.45593999997E+02  0.45594000000E+02  0.51100000000E-03 0.  1.
         23    2    1    2    0    0  0.00000000000E+00  0.17763568394E-14 -0.35527136788E-14  0.91188000000E+02  0.91188000000E+02 0.  0.
    9900012    2    3    3    0    0  0.17950660782E+02 -0.58184627626E+01  0.31618014718E+02  0.54367087652E+02  0.40000007919E+02 0.  0.
        -12    1    3    3    0    0 -0.17950660782E+02  0.58184627626E+01 -0.31618014718E+02  0.36820912348E+02  0.00000000000E+00 0.  1.
         11    1    4    4    0    0  0.17538361566E+01 -0.15835353961E+01 -0.91215076735E+00  0.25328925951E+01  0.51100000000E-03 0. -1.
        -11    1    4    4    0    0  0.27648396267E+02 -0.67394341016E+01  0.20784615706E+02  0.35239949467E+02  0.51100000000E-03 0.  1.
         12    1    4    4    0    0 -0.11451571642E+02  0.25045067350E+01  0.11745549780E+02  0.16594245589E+02  0.00000000000E+00 0. -1.
</event>
<event>
 8    1  0.3186330E-007  0.9118800E+02  0.7816164E-02  0.1184000E+00
        -11   -1    0    0    0    0  0.00000000000E+00  0.00000000000E+00  0.45593999997E+02  0.45594000000E+02  0.51100000000E-03 0.  1.
         11   -1    0    0    0    0 -0.00000000000E+00 -0.00000000000E+00 -0.45593999997E+02  0.45594000000E+02  0.51100000000E-03 0. -1.
         23    2    1    2    0    0  0.00000000000E+00  0.00000000000E+00  0.00000000000E+00  0.91188000000E+02  0.91188000000E+02 0.  0.
    9900012    2    3    3    0    0  0.20119504584E+02 -0.29585702666E+02 -0.86990134907E+01  0.54367067059E+02  0.39999960974E+02 0.  0.
        -12    1    3    3    0    0 -0.20119504584E+02  0.29585702666E+02  0.86990134907E+01  0.36820932941E+02  0.00000000000E+00 0.  1.
         11    1    4    4    0    0 -0.26820286879E+01 -0.12592862093E+02 -0.32443780067E+01  0.13277780028E+02  0.51100000000E-03 0. -1.
        -11    1    4    4    0    0  0.76860873780E+01  0.82490793251E+01 -0.81755586105E+00  0.11304496749E+02  0.51100000000E-03 0.  1.
        -12    1    4    4    0    0  0.15115445894E+02 -0.25241919898E+02 -0.46370796230E+01  0.29784790282E+02  0.00000000000E+00 0.  1.
</event>
<event>
 8    1  0.3186330E-007  0.9118800E+02  0.7816164E-02  0.1184000E+00
        -11   -1    0    0    0    0  0.00000000000E+00  0.00000000000E+00  0.45593999997E+02  0.45594000000E+02  0.51100000000E-03 0.  1.
         11   -1    0    0    0    0 -0.00000000000E+00 -0.00000000000E+00 -0.45593999997E+02  0.45594000000E+02  0.51100000000E-03 0. -1.
         23    2    1    2    0    0  0.00000000000E+00  0.00000000000E+00  0.00000000000E+00  0.91188000000E+02  0.91188000000E+02 0.  0.
    9900012    2    3    3    0    0 -0.49247622432E+01 -0.34586398131E+02  0.11632155858E+02  0.54367091962E+02  0.40000017747E+02 0.  0.
         12    1    3    3    0    0  0.49247622432E+01  0.34586398131E+02 -0.11632155858E+02  0.36820908038E+02  0.00000000000E+00 0. -1.
         11    1    4    4    0    0 -0.12187817496E+02 -0.18909657509E+02  0.29579241301E+01  0.22690688792E+02  0.51100000000E-03 0. -1.
        -11    1    4    4    0    0 -0.85531281372E+01 -0.10749714748E+02  0.23100594680E+01  0.13930137943E+02  0.51100000000E-03 0.  1.
         12    1    4    4    0    0  0.15816183390E+02 -0.49270258743E+01  0.63641722597E+01  0.17746265228E+02  0.00000000000E+00 0. -1.
</event>
<event>
 8    1  0.3186330E-007  0.9118800E+02  0.7816164E-02  0.1184000E+00
        -11   -1    0    0    0    0  0.00000000000E+00  0.00000000000E+00  0.45593999997E+02  0.45594000000E+02  0.51100000000E-03 0.  1.
         11   -1    0    0    0    0 -0.00000000000E+00 -0.00000000000E+00 -0.45593999997E+02  0.45594000000E+02  0.51100000000E-03 0. -1.
         23    2    1    2    0    0  0.17763568394E-14  0.35527136788E-14  0.00000000000E+00  0.91188000000E+02  0.91188000000E+02 0.  0.
    9900012    2    3    3    0    0  0.70358618574E+01  0.31202110986E+02 -0.18240209164E+02  0.54367077790E+02  0.39999985437E+02 0.  0.
        -12    1    3    3    0    0 -0.70358618574E+01 -0.31202110986E+02  0.18240209164E+02  0.36820922210E+02  0.00000000000E+00 0.  1.
         11    1    4    4    0    0 -0.11234787982E+02  0.15577291760E+02 -0.18507023777E+02  0.26671753015E+02  0.51100000000E-03 0. -1.
        -11    1    4    4    0    0  0.12414247155E+02  0.34094772524E+01  0.42799518241E+01  0.13566726039E+02  0.51100000000E-03 0.  1.
         12    1    4    4    0    0  0.58564026842E+01  0.12215341974E+02 -0.40131372107E+01  0.14128598735E+02  0.00000000000E+00 0. -1.
</event>
<event>
 8    1  0.3186330E-007  0.9118800E+02  0.7816164E-02  0.1184000E+00
        -11   -1    0    0    0    0  0.00000000000E+00  0.00000000000E+00  0.45593999997E+02  0.45594000000E+02  0.51100000000E-03 0. -1.
         11   -1    0    0    0    0 -0.00000000000E+00 -0.00000000000E+00 -0.45593999997E+02  0.45594000000E+02  0.51100000000E-03 0.  1.
         23    2    1    2    0    0 -0.17763568394E-14 -0.44408920985E-15  0.00000000000E+00  0.91188000000E+02  0.91188000000E+02 0.  0.
    9900012    2    3    3    0    0  0.15774144958E+02  0.39718155756E+01  0.33032967206E+02  0.54367137835E+02  0.40000122322E+02 0.  0.
        -12    1    3    3    0    0 -0.15774144958E+02 -0.39718155756E+01 -0.33032967206E+02  0.36820862165E+02  0.00000000000E+00 0.  1.
         11    1    4    4    0    0  0.42079236311E+01 -0.10244272462E+02 -0.47891163127E+00  0.11085174612E+02  0.51100000000E-03 0. -1.
        -11    1    4    4    0    0  0.73785717806E+01  0.16329914330E+02  0.12739369592E+02  0.21986381272E+02  0.51100000000E-03 0.  1.
         12    1    4    4    0    0  0.41876495460E+01 -0.21138262923E+01  0.20772509245E+02  0.21295581952E+02  0.00000000000E+00 0. -1.
</event>
<event>
 8    1  0.3186330E-007  0.9118800E+02  0.7816164E-02  0.1184000E+00
        -11   -1    0    0    0    0  0.00000000000E+00  0.00000000000E+00  0.45593999997E+02  0.45594000000E+02  0.51100000000E-03 0.  1.
         11   -1    0    0    0    0 -0.00000000000E+00 -0.00000000000E+00 -0.45593999997E+02  0.45594000000E+02  0.51100000000E-03 0. -1.
         23    2    1    2    0    0  0.00000000000E+00 -0.35527136788E-14  0.00000000000E+00  0.91188000000E+02  0.91188000000E+02 0.  0.
    9900012    2    3    3    0    0  0.13789980921E+02 -0.18463498215E+02 -0.28717857162E+02  0.54367086648E+02  0.40000005631E+02 0.  0.
        -12    1    3    3    0    0 -0.13789980921E+02  0.18463498215E+02  0.28717857162E+02  0.36820913352E+02  0.00000000000E+00 0.  1.
         11    1    4    4    0    0 -0.89512533504E+01 -0.25871775964E+01 -0.81840068967E+01  0.12401467397E+02  0.51100000000E-03 0.  1.
        -11    1    4    4    0    0  0.10295248160E+02  0.45668249461E+01 -0.12245567941E+02  0.16637366355E+02  0.51100000000E-03 0. -1.
        -12    1    4    4    0    0  0.12445986111E+02 -0.20443145565E+02 -0.82882823236E+01  0.25328252895E+02  0.00000000000E+00 0.  1.
</event>
<event>
 8    1  0.3186330E-007  0.9118800E+02  0.7816164E-02  0.1184000E+00
        -11   -1    0    0    0    0  0.00000000000E+00  0.00000000000E+00  0.45593999997E+02  0.45594000000E+02  0.51100000000E-03 0.  1.
         11   -1    0    0    0    0 -0.00000000000E+00 -0.00000000000E+00 -0.45593999997E+02  0.45594000000E+02  0.51100000000E-03 0. -1.
         23    2    1    2    0    0 -0.17763568394E-14 -0.35527136788E-14  0.35527136788E-14  0.91188000000E+02  0.91188000000E+02 0.  0.
    9900012    2    3    3    0    0 -0.14510993204E+02 -0.11675076043E+02  0.31763243379E+02  0.54367082653E+02  0.39999996524E+02 0.  0.
         12    1    3    3    0    0  0.14510993204E+02  0.11675076043E+02 -0.31763243379E+02  0.36820917347E+02  0.00000000000E+00 0. -1.
         11    1    4    4    0    0 -0.81395105108E+01 -0.18264275650E+02  0.90812442664E+01  0.21961429690E+02  0.51100000000E-03 0. -1.
        -11    1    4    4    0    0 -0.42645366948E+01  0.28146700124E+00 -0.34175134720E+01  0.54721929322E+01  0.51100000000E-03 0.  1.
         12    1    4    4    0    0 -0.21069459984E+01  0.63077326058E+01  0.26099512584E+02  0.26933460030E+02  0.00000000000E+00 0. -1.
</event>
<event>
 8    1  0.3186330E-007  0.9118800E+02  0.7816164E-02  0.1184000E+00
        -11   -1    0    0    0    0  0.00000000000E+00  0.00000000000E+00  0.45593999997E+02  0.45594000000E+02  0.51100000000E-03 0. -1.
         11   -1    0    0    0    0 -0.00000000000E+00 -0.00000000000E+00 -0.45593999997E+02  0.45594000000E+02  0.51100000000E-03 0.  1.
         23    2    1    2    0    0  0.17763568394E-14  0.00000000000E+00  0.00000000000E+00  0.91188000000E+02  0.91188000000E+02 0.  0.
    9900012    2    3    3    0    0 -0.15257351571E+02 -0.98865171042E+01  0.32019542378E+02  0.54367067210E+02  0.39999961319E+02 0.  0.
        -12    1    3    3    0    0  0.15257351571E+02  0.98865171042E+01 -0.32019542378E+02  0.36820932790E+02  0.00000000000E+00 0.  1.
         11    1    4    4    0    0 -0.15491083177E+02  0.70384899350E+01 -0.78872221312E+00  0.17033381389E+02  0.51100000000E-03 0. -1.
        -11    1    4    4    0    0 -0.18734675722E+00 -0.78822598142E+00  0.58965489534E+01  0.59519483219E+01  0.51100000000E-03 0.  1.
        -12    1    4    4    0    0  0.42107836314E+00 -0.16136781058E+02  0.26911715638E+02  0.31381737499E+02  0.00000000000E+00 0.  1.
</event>
<event>
 8    1  0.3186330E-007  0.9118800E+02  0.7816164E-02  0.1184000E+00
        -11   -1    0    0    0    0  0.00000000000E+00  0.00000000000E+00  0.45593999997E+02  0.45594000000E+02  0.51100000000E-03 0.  1.
         11   -1    0    0    0    0 -0.00000000000E+00 -0.00000000000E+00 -0.45593999997E+02  0.45594000000E+02  0.51100000000E-03 0. -1.
         23    2    1    2    0    0  0.00000000000E+00  0.35527136788E-14 -0.22204460493E-15  0.91188000000E+02  0.91188000000E+02 0.  0.
    9900012    2    3    3    0    0  0.31662336669E+02 -0.18742390743E+02  0.14146885756E+01  0.54367053273E+02  0.39999929547E+02 0.  0.
         12    1    3    3    0    0 -0.31662336669E+02  0.18742390743E+02 -0.14146885756E+01  0.36820946727E+02  0.00000000000E+00 0. -1.
         11    1    4    4    0    0 -0.27122955474E+01 -0.42805886157E+01 -0.68276407240E+01  0.85027445069E+01  0.51100000000E-03 0. -1.
        -11    1    4    4    0    0  0.24913302791E+02 -0.10431671114E+02 -0.66033398687E+01  0.27804613212E+02  0.51100000000E-03 0.  1.
         12    1    4    4    0    0  0.94613294249E+01 -0.40301310139E+01  0.14845669168E+02  0.18059695555E+02  0.00000000000E+00 0. -1.
</event>
<event>
 8    1  0.3186330E-007  0.9118800E+02  0.7816164E-02  0.1184000E+00
        -11   -1    0    0    0    0  0.00000000000E+00  0.00000000000E+00  0.45593999997E+02  0.45594000000E+02  0.51100000000E-03 0. -1.
         11   -1    0    0    0    0 -0.00000000000E+00 -0.00000000000E+00 -0.45593999997E+02  0.45594000000E+02  0.51100000000E-03 0.  1.
         23    2    1    2    0    0  0.00000000000E+00  0.00000000000E+00 -0.17763568394E-14  0.91188000000E+02  0.91188000000E+02 0.  0.
    9900012    2    3    3    0    0  0.35996621931E+02  0.20204202860E+01  0.74793876092E+01  0.54367080299E+02  0.39999991158E+02 0.  0.
        -12    1    3    3    0    0 -0.35996621931E+02 -0.20204202860E+01 -0.74793876092E+01  0.36820919701E+02  0.00000000000E+00 0.  1.
         11    1    4    4    0    0 -0.50599450970E+00  0.36241526319E+01  0.56846273038E+01  0.67605843378E+01  0.51100000000E-03 0. -1.
        -11    1    4    4    0    0  0.29985288374E+01 -0.38372516478E+01  0.11637359970E+02  0.12615221866E+02  0.51100000000E-03 0.  1.
         12    1    4    4    0    0  0.33504087604E+02  0.22335193019E+01 -0.98425996651E+01  0.34991274095E+02  0.00000000000E+00 0. -1.
</event>
<event>
 8    1  0.3186330E-007  0.9118800E+02  0.7816164E-02  0.1184000E+00
        -11   -1    0    0    0    0  0.00000000000E+00  0.00000000000E+00  0.45593999997E+02  0.45594000000E+02  0.51100000000E-03 0.  1.
         11   -1    0    0    0    0 -0.00000000000E+00 -0.00000000000E+00 -0.45593999997E+02  0.45594000000E+02  0.51100000000E-03 0. -1.
         23    2    1    2    0    0  0.35527136788E-14 -0.26645352591E-14 -0.71054273576E-14  0.91188000000E+02  0.91188000000E+02 0.  0.
    9900012    2    3    3    0    0  0.24844487447E+02 -0.29417171209E+01 -0.27016256893E+02  0.54367076700E+02  0.39999982953E+02 0.  0.
        -12    1    3    3    0    0 -0.24844487447E+02  0.29417171209E+01  0.27016256893E+02  0.36820923300E+02  0.00000000000E+00 0.  1.
         11    1    4    4    0    0  0.18602839373E+01  0.61223259597E+01  0.48822409828E+01  0.80485904828E+01  0.51100000000E-03 0.  1.
        -11    1    4    4    0    0  0.12841141835E+02 -0.14300434227E+02 -0.28560865292E+02  0.34425577253E+02  0.51100000000E-03 0. -1.
        -12    1    4    4    0    0  0.10143061675E+02  0.52363911462E+01 -0.33376325842E+01  0.11892908965E+02  0.00000000000E+00 0.  1.
</event>
<event>
 8    1  0.3186330E-007  0.9118800E+02  0.7816164E-02  0.1184000E+00
        -11   -1    0    0    0    0  0.00000000000E+00  0.00000000000E+00  0.45593999997E+02  0.45594000000E+02  0.51100000000E-03 0.  1.
         11   -1    0    0    0    0 -0.00000000000E+00 -0.00000000000E+00 -0.45593999997E+02  0.45594000000E+02  0.51100000000E-03 0. -1.
         23    2    1    2    0    0 -0.88817841970E-15  0.00000000000E+00  0.00000000000E+00  0.91188000000E+02  0.91188000000E+02 0.  0.
    9900012    2    3    3    0    0 -0.69655435622E+01  0.13613800070E+02 -0.33495161754E+02  0.54367079175E+02  0.39999988595E+02 0.  0.
        -12    1    3    3    0    0  0.69655435622E+01 -0.13613800070E+02  0.33495161754E+02  0.36820920825E+02  0.00000000000E+00 0.  1.
         11    1    4    4    0    0  0.15930208162E+01 -0.92425978997E+00  0.65964042370E+01  0.68486875092E+01  0.51100000000E-03 0.  1.
        -11    1    4    4    0    0  0.45957027144E+01  0.10841086774E+02 -0.16820651344E+02  0.20532509778E+02  0.51100000000E-03 0. -1.
        -12    1    4    4    0    0 -0.13154267093E+02  0.36969730857E+01 -0.23270914647E+02  0.26985881888E+02  0.00000000000E+00 0.  1.
</event>
<event>
 8    1  0.3186330E-007  0.9118800E+02  0.7816164E-02  0.1184000E+00
        -11   -1    0    0    0    0  0.00000000000E+00  0.00000000000E+00  0.45593999997E+02  0.45594000000E+02  0.51100000000E-03 0. -1.
         11   -1    0    0    0    0 -0.00000000000E+00 -0.00000000000E+00 -0.45593999997E+02  0.45594000000E+02  0.51100000000E-03 0.  1.
         23    2    1    2    0    0  0.00000000000E+00  0.00000000000E+00  0.66613381478E-15  0.91188000000E+02  0.91188000000E+02 0.  0.
    9900012    2    3    3    0    0  0.17275292200E+02 -0.32490694327E+02 -0.13037357983E+01  0.54367072996E+02  0.39999974508E+02 0.  0.
         12    1    3    3    0    0 -0.17275292200E+02  0.32490694327E+02  0.13037357983E+01  0.36820927004E+02  0.00000000000E+00 0. -1.
         11    1    4    4    0    0 -0.22306412603E+01 -0.11232055876E+02  0.53520074476E+01  0.12640364853E+02  0.51100000000E-03 0. -1.
        -11    1    4    4    0    0 -0.52841785010E+01 -0.65466615806E+01  0.59085435585E+01  0.10280671550E+02  0.51100000000E-03 0.  1.
        -12    1    4    4    0    0  0.24790111961E+02 -0.14711976871E+02 -0.12564286804E+02  0.31446036592E+02  0.00000000000E+00 0.  1.
</event>
<event>
 8    1  0.3186330E-007  0.9118800E+02  0.7816164E-02  0.1184000E+00
        -11   -1    0    0    0    0  0.00000000000E+00  0.00000000000E+00  0.45593999997E+02  0.45594000000E+02  0.51100000000E-03 0.  1.
         11   -1    0    0    0    0 -0.00000000000E+00 -0.00000000000E+00 -0.45593999997E+02  0.45594000000E+02  0.51100000000E-03 0. -1.
         23    2    1    2    0    0  0.00000000000E+00  0.00000000000E+00  0.35527136788E-14  0.91188000000E+02  0.91188000000E+02 0.  0.
    9900012    2    3    3    0    0 -0.22718515967E+02 -0.10072302824E+02 -0.27169754013E+02  0.54367112109E+02  0.40000063676E+02 0.  0.
        -12    1    3    3    0    0  0.22718515967E+02  0.10072302824E+02  0.27169754013E+02  0.36820887891E+02  0.00000000000E+00 0.  1.
         11    1    4    4    0    0 -0.54480136535E+01  0.91403590863E+01  0.57858762374E+01  0.12112117118E+02  0.51100000000E-03 0.  1.
        -11    1    4    4    0    0 -0.88638417678E+01 -0.10413355826E+02 -0.12920373976E+02  0.18813339267E+02  0.51100000000E-03 0. -1.
        -12    1    4    4    0    0 -0.84066605455E+01 -0.87993060846E+01 -0.20035256274E+02  0.23441655724E+02  0.00000000000E+00 0.  1.
</event>
<event>
 8    1  0.3186330E-007  0.9118800E+02  0.7816164E-02  0.1184000E+00
        -11   -1    0    0    0    0  0.00000000000E+00  0.00000000000E+00  0.45593999997E+02  0.45594000000E+02  0.51100000000E-03 0. -1.
         11   -1    0    0    0    0 -0.00000000000E+00 -0.00000000000E+00 -0.45593999997E+02  0.45594000000E+02  0.51100000000E-03 0.  1.
         23    2    1    2    0    0  0.00000000000E+00  0.00000000000E+00  0.00000000000E+00  0.91188000000E+02  0.91188000000E+02 0.  0.
    9900012    2    3    3    0    0  0.18449812848E+02  0.26029134892E+02 -0.18381199040E+02  0.54367082908E+02  0.39999997106E+02 0.  0.
         12    1    3    3    0    0 -0.18449812848E+02 -0.26029134892E+02  0.18381199040E+02  0.36820917092E+02  0.00000000000E+00 0. -1.
         11    1    4    4    0    0 -0.48095174402E+01 -0.19117143947E+01 -0.36001817266E+01  0.63045553896E+01  0.51100000000E-03 0. -1.
        -11    1    4    4    0    0  0.34135256404E+01  0.45693668575E+01 -0.16395537758E+02  0.17359289427E+02  0.51100000000E-03 0.  1.
         12    1    4    4    0    0  0.19845804648E+02  0.23371482429E+02  0.16145204449E+01  0.30703238092E+02  0.00000000000E+00 0. -1.
</event>
<event>
 8    1  0.3186330E-007  0.9118800E+02  0.7816164E-02  0.1184000E+00
        -11   -1    0    0    0    0  0.00000000000E+00  0.00000000000E+00  0.45593999997E+02  0.45594000000E+02  0.51100000000E-03 0.  1.
         11   -1    0    0    0    0 -0.00000000000E+00 -0.00000000000E+00 -0.45593999997E+02  0.45594000000E+02  0.51100000000E-03 0. -1.
         23    2    1    2    0    0  0.35527136788E-14 -0.44408920985E-15  0.00000000000E+00  0.91188000000E+02  0.91188000000E+02 0.  0.
    9900012    2    3    3    0    0  0.19266077217E+02  0.12767898817E+01  0.31352420783E+02  0.54366997669E+02  0.39999802785E+02 0.  0.
         12    1    3    3    0    0 -0.19266077217E+02 -0.12767898817E+01 -0.31352420783E+02  0.36821002331E+02  0.00000000000E+00 0. -1.
         11    1    4    4    0    0 -0.10602322381E+01 -0.50539128423E+01 -0.67769932006E+01  0.85201974460E+01  0.51100000000E-03 0. -1.
        -11    1    4    4    0    0  0.11422632489E+02  0.23586441864E+01  0.32632848708E+02  0.34654618024E+02  0.51100000000E-03 0.  1.
         12    1    4    4    0    0  0.89036769658E+01  0.39720585376E+01  0.54965652755E+01  0.11192182199E+02  0.00000000000E+00 0. -1.
</event>
<event>
 8    1  0.3186330E-007  0.9118800E+02  0.7816164E-02  0.1184000E+00
        -11   -1    0    0    0    0  0.00000000000E+00  0.00000000000E+00  0.45593999997E+02  0.45594000000E+02  0.51100000000E-03 0.  1.
         11   -1    0    0    0    0 -0.00000000000E+00 -0.00000000000E+00 -0.45593999997E+02  0.45594000000E+02  0.51100000000E-03 0. -1.
         23    2    1    2    0    0  0.00000000000E+00  0.00000000000E+00  0.88817841970E-15  0.91188000000E+02  0.91188000000E+02 0.  0.
    9900012    2    3    3    0    0 -0.25749380776E+02  0.25473760868E+02 -0.66209306869E+01  0.54367084391E+02  0.40000000487E+02 0.  0.
         12    1    3    3    0    0  0.25749380776E+02 -0.25473760868E+02  0.66209306869E+01  0.36820915609E+02  0.00000000000E+00 0. -1.
         11    1    4    4    0    0  0.60372171068E+00  0.50092330579E+01 -0.16781679475E+02  0.17523745661E+02  0.51100000000E-03 0. -1.
        -11    1    4    4    0    0 -0.11875304980E+02  0.88575643396E+01  0.10707471929E+02  0.18279203204E+02  0.51100000000E-03 0.  1.
        -12    1    4    4    0    0 -0.14477797506E+02  0.11606963471E+02 -0.54672314148E+00  0.18564135526E+02  0.00000000000E+00 0.  1.
</event>
<event>
 8    1  0.3186330E-007  0.9118800E+02  0.7816164E-02  0.1184000E+00
        -11   -1    0    0    0    0  0.00000000000E+00  0.00000000000E+00  0.45593999997E+02  0.45594000000E+02  0.51100000000E-03 0.  1.
         11   -1    0    0    0    0 -0.00000000000E+00 -0.00000000000E+00 -0.45593999997E+02  0.45594000000E+02  0.51100000000E-03 0. -1.
         23    2    1    2    0    0  0.00000000000E+00  0.00000000000E+00  0.17763568394E-14  0.91188000000E+02  0.91188000000E+02 0.  0.
    9900012    2    3    3    0    0  0.24592770628E+02 -0.24209481819E+02 -0.12840440478E+02  0.54367078111E+02  0.39999986169E+02 0.  0.
        -12    1    3    3    0    0 -0.24592770628E+02  0.24209481819E+02  0.12840440478E+02  0.36820921889E+02  0.00000000000E+00 0.  1.
         11    1    4    4    0    0 -0.73788435406E+01 -0.47610586974E+01  0.46848759762E+01  0.99530435089E+01  0.51100000000E-03 0. -1.
        -11    1    4    4    0    0  0.15040842142E+02 -0.87327687037E+01 -0.17073654616E+02  0.24372071389E+02  0.51100000000E-03 0.  1.
         12    1    4    4    0    0  0.16930772026E+02 -0.10715654418E+02 -0.45166183898E+00  0.20041963213E+02  0.00000000000E+00 0. -1.
</event>
<event>
 8    1  0.3186330E-007  0.9118800E+02  0.7816164E-02  0.1184000E+00
        -11   -1    0    0    0    0  0.00000000000E+00  0.00000000000E+00  0.45593999997E+02  0.45594000000E+02  0.51100000000E-03 0.  1.
         11   -1    0    0    0    0 -0.00000000000E+00 -0.00000000000E+00 -0.45593999997E+02  0.45594000000E+02  0.51100000000E-03 0. -1.
         23    2    1    2    0    0  0.00000000000E+00 -0.17763568394E-14  0.35527136788E-14  0.91188000000E+02  0.91188000000E+02 0.  0.
    9900012    2    3    3    0    0 -0.19314211168E+02  0.69261120184E+01 -0.30573998557E+02  0.54367093323E+02  0.40000020849E+02 0.  0.
        -12    1    3    3    0    0  0.19314211168E+02 -0.69261120184E+01  0.30573998557E+02  0.36820906677E+02  0.00000000000E+00 0.  1.
         11    1    4    4    0    0 -0.16118293248E+02  0.17443161476E+02 -0.34712880518E+02  0.42060044384E+02  0.51100000000E-03 0. -1.
        -11    1    4    4    0    0  0.83511148104E-01 -0.54033570031E+01  0.28001342900E+01  0.60863776844E+01  0.51100000000E-03 0.  1.
         12    1    4    4    0    0 -0.32794290681E+01 -0.51136924544E+01  0.13387476705E+01  0.62206712544E+01  0.00000000000E+00 0. -1.
</event>
<event>
 8    1  0.3186330E-007  0.9118800E+02  0.7816164E-02  0.1184000E+00
        -11   -1    0    0    0    0  0.00000000000E+00  0.00000000000E+00  0.45593999997E+02  0.45594000000E+02  0.51100000000E-03 0.  1.
         11   -1    0    0    0    0 -0.00000000000E+00 -0.00000000000E+00 -0.45593999997E+02  0.45594000000E+02  0.51100000000E-03 0. -1.
         23    2    1    2    0    0  0.00000000000E+00 -0.35527136788E-14  0.00000000000E+00  0.91188000000E+02  0.91188000000E+02 0.  0.
    9900012    2    3    3    0    0 -0.21489972007E+02  0.27299007168E+02  0.12195286456E+02  0.54367086092E+02  0.40000004365E+02 0.  0.
         12    1    3    3    0    0  0.21489972007E+02 -0.27299007168E+02 -0.12195286456E+02  0.36820913908E+02  0.00000000000E+00 0. -1.
         11    1    4    4    0    0 -0.11855409166E+02  0.31321454829E+01  0.44682397962E+00  0.12270318405E+02  0.51100000000E-03 0. -1.
        -11    1    4    4    0    0  0.98057930226E+01  0.37667336265E+01  0.89105001014E+01  0.13774573363E+02  0.51100000000E-03 0.  1.
         12    1    4    4    0    0 -0.19440355864E+02  0.20400128059E+02  0.28379623751E+01  0.28322194325E+02  0.00000000000E+00 0. -1.
</event>
<event>
 8    1  0.3186330E-007  0.9118800E+02  0.7816164E-02  0.1184000E+00
        -11   -1    0    0    0    0  0.00000000000E+00  0.00000000000E+00  0.45593999997E+02  0.45594000000E+02  0.51100000000E-03 0. -1.
         11   -1    0    0    0    0 -0.00000000000E+00 -0.00000000000E+00 -0.45593999997E+02  0.45594000000E+02  0.51100000000E-03 0.  1.
         23    2    1    2    0    0  0.00000000000E+00 -0.88817841970E-15  0.00000000000E+00  0.91188000000E+02  0.91188000000E+02 0.  0.
    9900012    2    3    3    0    0  0.64195200856E+01 -0.52995780136E+01  0.35867583770E+02  0.54367091120E+02  0.40000015826E+02 0.  0.
        -12    1    3    3    0    0 -0.64195200856E+01  0.52995780136E+01 -0.35867583770E+02  0.36820908880E+02  0.00000000000E+00 0.  1.
         11    1    4    4    0    0  0.14290924470E+02 -0.67150950942E+01 -0.14261813606E+01  0.15854242898E+02  0.51100000000E-03 0.  1.
        -11    1    4    4    0    0 -0.58468965515E+01  0.12526771182E+01  0.34735244306E+02  0.35246171374E+02  0.51100000000E-03 0. -1.
        -12    1    4    4    0    0 -0.20245078328E+01  0.16283996243E+00  0.25585208247E+01  0.32666768479E+01  0.00000000000E+00 0.  1.
</event>
<event>
 8    1  0.3186330E-007  0.9118800E+02  0.7816164E-02  0.1184000E+00
        -11   -1    0    0    0    0  0.00000000000E+00  0.00000000000E+00  0.45593999997E+02  0.45594000000E+02  0.51100000000E-03 0.  1.
         11   -1    0    0    0    0 -0.00000000000E+00 -0.00000000000E+00 -0.45593999997E+02  0.45594000000E+02  0.51100000000E-03 0. -1.
         23    2    1    2    0    0  0.38857805862E-15 -0.44408920985E-15  0.00000000000E+00  0.91188000000E+02  0.91188000000E+02 0.  0.
    9900012    2    3    3    0    0 -0.38955585900E+00  0.29499712366E+01 -0.36700484907E+02  0.54367086425E+02  0.40000005123E+02 0.  0.
        -12    1    3    3    0    0  0.38955585900E+00 -0.29499712366E+01  0.36700484907E+02  0.36820913575E+02  0.00000000000E+00 0.  1.
         11    1    4    4    0    0  0.10296000902E+02 -0.71463300666E+00 -0.12070044015E+02  0.15880941335E+02  0.51100000000E-03 0. -1.
        -11    1    4    4    0    0 -0.10020959977E+02  0.11108400069E+02 -0.26809769006E+02  0.30701464222E+02  0.51100000000E-03 0.  1.
         12    1    4    4    0    0 -0.66459678382E+00 -0.74437958262E+01  0.21793281135E+01  0.77846808678E+01  0.00000000000E+00 0. -1.
</event>
<event>
 8    1  0.3186330E-007  0.9118800E+02  0.7816164E-02  0.1184000E+00
        -11   -1    0    0    0    0  0.00000000000E+00  0.00000000000E+00  0.45593999997E+02  0.45594000000E+02  0.51100000000E-03 0.  1.
         11   -1    0    0    0    0 -0.00000000000E+00 -0.00000000000E+00 -0.45593999997E+02  0.45594000000E+02  0.51100000000E-03 0. -1.
         23    2    1    2    0    0 -0.71054273576E-14 -0.35527136788E-14  0.00000000000E+00  0.91188000000E+02  0.91188000000E+02 0.  0.
    9900012    2    3    3    0    0  0.27676396729E+02  0.23741288797E+02 -0.51134218969E+01  0.54367098148E+02  0.40000031849E+02 0.  0.
        -12    1    3    3    0    0 -0.27676396729E+02 -0.23741288797E+02  0.51134218969E+01  0.36820901852E+02  0.00000000000E+00 0.  1.
         11    1    4    4    0    0  0.10795619791E+02 -0.72524409463E+01 -0.10074099850E+02  0.16450859990E+02  0.51100000000E-03 0. -1.
        -11    1    4    4    0    0  0.15796513348E+02  0.28489177848E+02  0.82875196944E+01  0.33613183000E+02  0.51100000000E-03 0.  1.
        -12    1    4    4    0    0  0.10842635902E+01  0.25045518955E+01 -0.33268417408E+01  0.43030551587E+01  0.00000000000E+00 0.  1.
</event>
<event>
 8    1  0.3186330E-007  0.9118800E+02  0.7816164E-02  0.1184000E+00
        -11   -1    0    0    0    0  0.00000000000E+00  0.00000000000E+00  0.45593999997E+02  0.45594000000E+02  0.51100000000E-03 0. -1.
         11   -1    0    0    0    0 -0.00000000000E+00 -0.00000000000E+00 -0.45593999997E+02  0.45594000000E+02  0.51100000000E-03 0.  1.
         23    2    1    2    0    0  0.00000000000E+00  0.71054273576E-14  0.00000000000E+00  0.91188000000E+02  0.91188000000E+02 0.  0.
    9900012    2    3    3    0    0 -0.74523988358E+01  0.33586226142E+02  0.13122669308E+02  0.54367118905E+02  0.40000079167E+02 0.  0.
        -12    1    3    3    0    0  0.74523988358E+01 -0.33586226142E+02 -0.13122669308E+02  0.36820881095E+02  0.00000000000E+00 0.  1.
         11    1    4    4    0    0  0.25784745806E+01  0.24755359260E+02  0.10186929712E+02  0.26893305495E+02  0.51100000000E-03 0. -1.
        -11    1    4    4    0    0 -0.10749513381E+02  0.71585852585E+00 -0.82968699631E+01  0.13597887439E+02  0.51100000000E-03 0.  1.
        -12    1    4    4    0    0  0.71863996469E+00  0.81150083564E+01  0.11232609559E+02  0.13875925970E+02  0.00000000000E+00 0.  1.
</event>
<event>
 8    1  0.3186330E-007  0.9118800E+02  0.7816164E-02  0.1184000E+00
        -11   -1    0    0    0    0  0.00000000000E+00  0.00000000000E+00  0.45593999997E+02  0.45594000000E+02  0.51100000000E-03 0.  1.
         11   -1    0    0    0    0 -0.00000000000E+00 -0.00000000000E+00 -0.45593999997E+02  0.45594000000E+02  0.51100000000E-03 0. -1.
         23    2    1    2    0    0 -0.11657341759E-14  0.00000000000E+00  0.00000000000E+00  0.91188000000E+02  0.91188000000E+02 0.  0.
    9900012    2    3    3    0    0  0.14747367984E+00 -0.50148290021E+01  0.36477536956E+02  0.54367068985E+02  0.39999965365E+02 0.  0.
         12    1    3    3    0    0 -0.14747367984E+00  0.50148290021E+01 -0.36477536956E+02  0.36820931015E+02  0.00000000000E+00 0. -1.
         11    1    4    4    0    0  0.18960230578E+01 -0.86566243834E+01  0.71341636720E+01  0.11376657713E+02  0.51100000000E-03 0. -1.
        -11    1    4    4    0    0  0.11889872796E+02  0.54610032978E+01  0.32345172508E+01  0.13477897990E+02  0.51100000000E-03 0.  1.
        -12    1    4    4    0    0 -0.13638422174E+02 -0.18192079164E+01  0.26108856034E+02  0.29512513282E+02  0.00000000000E+00 0.  1.
</event>
<event>
 8    1  0.3186330E-007  0.9118800E+02  0.7816164E-02  0.1184000E+00
        -11   -1    0    0    0    0  0.00000000000E+00  0.00000000000E+00  0.45593999997E+02  0.45594000000E+02  0.51100000000E-03 0. -1.
         11   -1    0    0    0    0 -0.00000000000E+00 -0.00000000000E+00 -0.45593999997E+02  0.45594000000E+02  0.51100000000E-03 0.  1.
         23    2    1    2    0    0  0.00000000000E+00  0.00000000000E+00  0.00000000000E+00  0.91188000000E+02  0.91188000000E+02 0.  0.
    9900012    2    3    3    0    0  0.22212914063E+02 -0.19451595169E+02 -0.22000033787E+02  0.54367087567E+02  0.40000007726E+02 0.  0.
         12    1    3    3    0    0 -0.22212914063E+02  0.19451595169E+02  0.22000033787E+02  0.36820912433E+02  0.00000000000E+00 0. -1.
         11    1    4    4    0    0  0.93306703424E+01 -0.14974677642E+02 -0.14934855839E+02  0.23116061488E+02  0.51100000000E-03 0.  1.
        -11    1    4    4    0    0  0.12268252492E+02 -0.38391501099E+01  0.86607188559E+01  0.15500230454E+02  0.51100000000E-03 0. -1.
        -12    1    4    4    0    0  0.61399122858E+00 -0.63776741694E+00 -0.15725896804E+02  0.15750795624E+02  0.00000000000E+00 0.  1.
</event>
<event>
 8    1  0.3186330E-007  0.9118800E+02  0.7816164E-02  0.1184000E+00
        -11   -1    0    0    0    0  0.00000000000E+00  0.00000000000E+00  0.45593999997E+02  0.45594000000E+02  0.51100000000E-03 0.  1.
         11   -1    0    0    0    0 -0.00000000000E+00 -0.00000000000E+00 -0.45593999997E+02  0.45594000000E+02  0.51100000000E-03 0. -1.
         23    2    1    2    0    0  0.00000000000E+00 -0.35527136788E-14  0.71054273576E-14  0.91188000000E+02  0.91188000000E+02 0.  0.
    9900012    2    3    3    0    0  0.51307212300E+01 -0.16954513961E+02  0.32280004761E+02  0.54367101704E+02  0.40000039955E+02 0.  0.
         12    1    3    3    0    0 -0.51307212300E+01  0.16954513961E+02 -0.32280004761E+02  0.36820898296E+02  0.00000000000E+00 0. -1.
         11    1    4    4    0    0  0.80365275787E+01 -0.20915427949E+02  0.64785904142E+01  0.23324087031E+02  0.51100000000E-03 0. -1.
        -11    1    4    4    0    0 -0.71286468563E+01  0.68460115801E+01  0.23382401079E+02  0.25385471455E+02  0.51100000000E-03 0.  1.
        -12    1    4    4    0    0  0.42228405076E+01 -0.28850975914E+01  0.24190132678E+01  0.56575432172E+01  0.00000000000E+00 0.  1.
</event>
<event>
 8    1  0.3186330E-007  0.9118800E+02  0.7816164E-02  0.1184000E+00
        -11   -1    0    0    0    0  0.00000000000E+00  0.00000000000E+00  0.45593999997E+02  0.45594000000E+02  0.51100000000E-03 0. -1.
         11   -1    0    0    0    0 -0.00000000000E+00 -0.00000000000E+00 -0.45593999997E+02  0.45594000000E+02  0.51100000000E-03 0.  1.
         23    2    1    2    0    0  0.00000000000E+00  0.88817841970E-15  0.00000000000E+00  0.91188000000E+02  0.91188000000E+02 0.  0.
    9900012    2    3    3    0    0 -0.33984983072E+02 -0.61974468884E+01  0.12743338008E+02  0.54367080866E+02  0.39999992449E+02 0.  0.
        -12    1    3    3    0    0  0.33984983072E+02  0.61974468884E+01 -0.12743338008E+02  0.36820919134E+02  0.00000000000E+00 0.  1.
         11    1    4    4    0    0 -0.10879114754E+02  0.38063171112E+01  0.27237660486E+01  0.11843229692E+02  0.51100000000E-03 0. -1.
        -11    1    4    4    0    0 -0.32467348486E+01 -0.15893631248E+01 -0.11500849061E+02  0.12055575129E+02  0.51100000000E-03 0.  1.
         12    1    4    4    0    0 -0.19859133469E+02 -0.84144008748E+01  0.21520421020E+02  0.30468276044E+02  0.00000000000E+00 0. -1.
</event>
<event>
 8    1  0.3186330E-007  0.9118800E+02  0.7816164E-02  0.1184000E+00
        -11   -1    0    0    0    0  0.00000000000E+00  0.00000000000E+00  0.45593999997E+02  0.45594000000E+02  0.51100000000E-03 0. -1.
         11   -1    0    0    0    0 -0.00000000000E+00 -0.00000000000E+00 -0.45593999997E+02  0.45594000000E+02  0.51100000000E-03 0.  1.
         23    2    1    2    0    0  0.00000000000E+00  0.00000000000E+00 -0.55511151231E-15  0.91188000000E+02  0.91188000000E+02 0.  0.
    9900012    2    3    3    0    0  0.12082445655E+02  0.34768613917E+02  0.96835626249E+00  0.54367085827E+02  0.40000003759E+02 0.  0.
         12    1    3    3    0    0 -0.12082445655E+02 -0.34768613917E+02 -0.96835626249E+00  0.36820914173E+02  0.00000000000E+00 0. -1.
         11    1    4    4    0    0  0.10047097396E+02  0.82228648147E+01 -0.61726214973E+01  0.14375706183E+02  0.51100000000E-03 0. -1.
        -11    1    4    4    0    0 -0.57010564357E+01  0.90918738720E+01  0.15741896376E+02  0.19051811377E+02  0.51100000000E-03 0.  1.
        -12    1    4    4    0    0  0.77364046942E+01  0.17453875230E+02 -0.86009186158E+01  0.20939568266E+02  0.00000000000E+00 0.  1.
</event>
<event>
 8    1  0.3186330E-007  0.9118800E+02  0.7816164E-02  0.1184000E+00
        -11   -1    0    0    0    0  0.00000000000E+00  0.00000000000E+00  0.45593999997E+02  0.45594000000E+02  0.51100000000E-03 0.  1.
         11   -1    0    0    0    0 -0.00000000000E+00 -0.00000000000E+00 -0.45593999997E+02  0.45594000000E+02  0.51100000000E-03 0. -1.
         23    2    1    2    0    0  0.00000000000E+00 -0.88817841970E-15 -0.71054273576E-14  0.91188000000E+02  0.91188000000E+02 0.  0.
    9900012    2    3    3    0    0 -0.11136958964E+02 -0.42810785341E+01 -0.34834172041E+02  0.54367095202E+02  0.40000025131E+02 0.  0.
        -12    1    3    3    0    0  0.11136958964E+02  0.42810785341E+01  0.34834172041E+02  0.36820904798E+02  0.00000000000E+00 0.  1.
         11    1    4    4    0    0 -0.23791092768E+01 -0.63534187882E+01 -0.51699931572E+01  0.85296495095E+01  0.51100000000E-03 0. -1.
        -11    1    4    4    0    0 -0.21524419821E+02 -0.15945387321E+01 -0.16858769931E+02  0.27387247511E+02  0.51100000000E-03 0.  1.
        -12    1    4    4    0    0  0.12766570133E+02  0.36668789862E+01 -0.12805408953E+02  0.18450198181E+02  0.00000000000E+00 0.  1.
</event>
<event>
 8    1  0.3186330E-007  0.9118800E+02  0.7816164E-02  0.1184000E+00
        -11   -1    0    0    0    0  0.00000000000E+00  0.00000000000E+00  0.45593999997E+02  0.45594000000E+02  0.51100000000E-03 0. -1.
         11   -1    0    0    0    0 -0.00000000000E+00 -0.00000000000E+00 -0.45593999997E+02  0.45594000000E+02  0.51100000000E-03 0.  1.
         23    2    1    2    0    0  0.00000000000E+00  0.00000000000E+00 -0.88817841970E-15  0.91188000000E+02  0.91188000000E+02 0.  0.
    9900012    2    3    3    0    0  0.15357877705E+02  0.33140803768E+02 -0.46479000508E+01  0.54367078543E+02  0.39999987155E+02 0.  0.
        -12    1    3    3    0    0 -0.15357877705E+02 -0.33140803768E+02  0.46479000508E+01  0.36820921457E+02  0.00000000000E+00 0.  1.
         11    1    4    4    0    0 -0.78499909845E+01  0.11291529569E+02 -0.11790653478E+02  0.18114648994E+02  0.51100000000E-03 0.  1.
        -11    1    4    4    0    0  0.16046774129E+02  0.76166146302E+01  0.95045280573E+01  0.20145665346E+02  0.51100000000E-03 0. -1.
         12    1    4    4    0    0  0.71610945610E+01  0.14232659569E+02 -0.23617746304E+01  0.16106764204E+02  0.00000000000E+00 0. -1.
</event>
<event>
 8    1  0.3186330E-007  0.9118800E+02  0.7816164E-02  0.1184000E+00
        -11   -1    0    0    0    0  0.00000000000E+00  0.00000000000E+00  0.45593999997E+02  0.45594000000E+02  0.51100000000E-03 0. -1.
         11   -1    0    0    0    0 -0.00000000000E+00 -0.00000000000E+00 -0.45593999997E+02  0.45594000000E+02  0.51100000000E-03 0.  1.
         23    2    1    2    0    0  0.00000000000E+00  0.00000000000E+00  0.00000000000E+00  0.91188000000E+02  0.91188000000E+02 0.  0.
    9900012    2    3    3    0    0  0.20567101568E+02 -0.11779113684E+02  0.28178392500E+02  0.54367150064E+02  0.40000150202E+02 0.  0.
        -12    1    3    3    0    0 -0.20567101568E+02  0.11779113684E+02 -0.28178392500E+02  0.36820849936E+02  0.00000000000E+00 0.  1.
         11    1    4    4    0    0  0.49180748692E+01  0.10128695623E+02 -0.19971007841E+00  0.11261341830E+02  0.51100000000E-03 0.  1.
        -11    1    4    4    0    0  0.12568797971E+02 -0.67646654877E+01  0.50840432976E+01  0.15151992546E+02  0.51100000000E-03 0. -1.
        -12    1    4    4    0    0  0.30802287273E+01 -0.15143143820E+02  0.23294059281E+02  0.27953815688E+02  0.00000000000E+00 0.  1.
</event>
<event>
 8    1  0.3186330E-007  0.9118800E+02  0.7816164E-02  0.1184000E+00
        -11   -1    0    0    0    0  0.00000000000E+00  0.00000000000E+00  0.45593999997E+02  0.45594000000E+02  0.51100000000E-03 0. -1.
         11   -1    0    0    0    0 -0.00000000000E+00 -0.00000000000E+00 -0.45593999997E+02  0.45594000000E+02  0.51100000000E-03 0.  1.
         23    2    1    2    0    0 -0.17763568394E-14  0.00000000000E+00  0.00000000000E+00  0.91188000000E+02  0.91188000000E+02 0.  0.
    9900012    2    3    3    0    0  0.50422180896E+01  0.20187748109E+02 -0.30377796687E+02  0.54367086533E+02  0.40000005370E+02 0.  0.
         12    1    3    3    0    0 -0.50422180896E+01 -0.20187748109E+02  0.30377796687E+02  0.36820913467E+02  0.00000000000E+00 0. -1.
         11    1    4    4    0    0 -0.19534316026E+01  0.68656899781E+01 -0.20030037932E+02  0.21263960443E+02  0.51100000000E-03 0. -1.
        -11    1    4    4    0    0 -0.95381364761E+01  0.10474084132E+02 -0.76829757702E+01  0.16115539171E+02  0.51100000000E-03 0.  1.
        -12    1    4    4    0    0  0.16533786168E+02  0.28479739995E+01 -0.26647829843E+01  0.16987586919E+02  0.00000000000E+00 0.  1.
</event>
<event>
 8    1  0.3186330E-007  0.9118800E+02  0.7816164E-02  0.1184000E+00
        -11   -1    0    0    0    0  0.00000000000E+00  0.00000000000E+00  0.45593999997E+02  0.45594000000E+02  0.51100000000E-03 0. -1.
         11   -1    0    0    0    0 -0.00000000000E+00 -0.00000000000E+00 -0.45593999997E+02  0.45594000000E+02  0.51100000000E-03 0.  1.
         23    2    1    2    0    0  0.71054273576E-14  0.35527136788E-14  0.88817841970E-15  0.91188000000E+02  0.91188000000E+02 0.  0.
    9900012    2    3    3    0    0  0.35358690324E+02  0.10121080783E+02 -0.17623656115E+01  0.54367093029E+02  0.40000020178E+02 0.  0.
         12    1    3    3    0    0 -0.35358690324E+02 -0.10121080783E+02  0.17623656115E+01  0.36820906971E+02  0.00000000000E+00 0. -1.
         11    1    4    4    0    0  0.19090156485E+02  0.45916120600E+01  0.12213120955E+02  0.23123090184E+02  0.51100000000E-03 0. -1.
        -11    1    4    4    0    0  0.13176815519E+02  0.13615512356E+02 -0.72723444948E+01  0.20295261482E+02  0.51100000000E-03 0.  1.
        -12    1    4    4    0    0  0.30917183204E+01 -0.80860436330E+01 -0.67031420714E+01  0.10948741363E+02  0.00000000000E+00 0.  1.
</event>
<event>
 8    1  0.3186330E-007  0.9118800E+02  0.7816164E-02  0.1184000E+00
        -11   -1    0    0    0    0  0.00000000000E+00  0.00000000000E+00  0.45593999997E+02  0.45594000000E+02  0.51100000000E-03 0.  1.
         11   -1    0    0    0    0 -0.00000000000E+00 -0.00000000000E+00 -0.45593999997E+02  0.45594000000E+02  0.51100000000E-03 0. -1.
         23    2    1    2    0    0 -0.88817841970E-15  0.00000000000E+00  0.00000000000E+00  0.91188000000E+02  0.91188000000E+02 0.  0.
    9900012    2    3    3    0    0  0.56319002143E+01  0.17096040459E+02 -0.32121422692E+02  0.54367099751E+02  0.40000035502E+02 0.  0.
        -12    1    3    3    0    0 -0.56319002143E+01 -0.17096040459E+02  0.32121422692E+02  0.36820900249E+02  0.00000000000E+00 0.  1.
         11    1    4    4    0    0  0.13664457830E+02 -0.28922184068E+01 -0.55058261499E+01  0.15013209416E+02  0.51100000000E-03 0. -1.
        -11    1    4    4    0    0  0.56288439612E+01  0.11755389390E+02 -0.12321447574E+02  0.17935750183E+02  0.51100000000E-03 0.  1.
        -12    1    4    4    0    0 -0.13661401577E+02  0.82328694755E+01 -0.14294148968E+02  0.21418140152E+02  0.00000000000E+00 0.  1.
</event>
<event>
 8    1  0.3186330E-007  0.9118800E+02  0.7816164E-02  0.1184000E+00
        -11   -1    0    0    0    0  0.00000000000E+00  0.00000000000E+00  0.45593999997E+02  0.45594000000E+02  0.51100000000E-03 0.  1.
         11   -1    0    0    0    0 -0.00000000000E+00 -0.00000000000E+00 -0.45593999997E+02  0.45594000000E+02  0.51100000000E-03 0. -1.
         23    2    1    2    0    0 -0.35527136788E-14  0.35527136788E-14 -0.11102230246E-14  0.91188000000E+02  0.91188000000E+02 0.  0.
    9900012    2    3    3    0    0 -0.27939364628E+02  0.23910090873E+02  0.18650706524E+01  0.54367095205E+02  0.40000025139E+02 0.  0.
         12    1    3    3    0    0  0.27939364628E+02 -0.23910090873E+02 -0.18650706524E+01  0.36820904795E+02  0.00000000000E+00 0. -1.
         11    1    4    4    0    0 -0.17803060175E+02  0.21320569467E+02 -0.89802582178E+01  0.29191791173E+02  0.51100000000E-03 0. -1.
        -11    1    4    4    0    0 -0.33035400294E+01  0.16372150490E+01 -0.59604576370E+01  0.70086307755E+01  0.51100000000E-03 0.  1.
        -12    1    4    4    0    0 -0.68327644237E+01  0.95230635729E+00  0.16805786507E+02  0.18166673256E+02  0.00000000000E+00 0.  1.
</event>
<event>
 8    1  0.3186330E-007  0.9118800E+02  0.7816164E-02  0.1184000E+00
        -11   -1    0    0    0    0  0.00000000000E+00  0.00000000000E+00  0.45593999997E+02  0.45594000000E+02  0.51100000000E-03 0.  1.
         11   -1    0    0    0    0 -0.00000000000E+00 -0.00000000000E+00 -0.45593999997E+02  0.45594000000E+02  0.51100000000E-03 0. -1.
         23    2    1    2    0    0  0.00000000000E+00  0.00000000000E+00  0.00000000000E+00  0.91188000000E+02  0.91188000000E+02 0.  0.
    9900012    2    3    3    0    0 -0.13952153412E+02 -0.30224612293E+02  0.15734988672E+02  0.54367086899E+02  0.40000006203E+02 0.  0.
         12    1    3    3    0    0  0.13952153412E+02  0.30224612293E+02 -0.15734988672E+02  0.36820913101E+02  0.00000000000E+00 0. -1.
         11    1    4    4    0    0  0.65515233812E+01  0.67229475461E-01 -0.22624181639E+01  0.69314871872E+01  0.51100000000E-03 0. -1.
        -11    1    4    4    0    0  0.30740248544E+01 -0.75345281482E+01  0.11404450094E+02  0.14010004477E+02  0.51100000000E-03 0.  1.
         12    1    4    4    0    0 -0.23577701648E+02 -0.22757313620E+02  0.65929567419E+01  0.33425595235E+02  0.00000000000E+00 0. -1.
</event>
<event>
 8    1  0.3186330E-007  0.9118800E+02  0.7816164E-02  0.1184000E+00
        -11   -1    0    0    0    0  0.00000000000E+00  0.00000000000E+00  0.45593999997E+02  0.45594000000E+02  0.51100000000E-03 0.  1.
         11   -1    0    0    0    0 -0.00000000000E+00 -0.00000000000E+00 -0.45593999997E+02  0.45594000000E+02  0.51100000000E-03 0. -1.
         23    2    1    2    0    0  0.00000000000E+00  0.22204460493E-15  0.35527136788E-14  0.91188000000E+02  0.91188000000E+02 0.  0.
    9900012    2    3    3    0    0  0.18257617552E+02  0.17974074174E+01  0.31925029806E+02  0.54367098324E+02  0.40000032250E+02 0.  0.
         12    1    3    3    0    0 -0.18257617552E+02 -0.17974074174E+01 -0.31925029806E+02  0.36820901676E+02  0.00000000000E+00 0. -1.
         11    1    4    4    0    0 -0.10304231888E+01  0.44467700888E+01 -0.26309997350E+01  0.52685573013E+01  0.51100000000E-03 0. -1.
        -11    1    4    4    0    0  0.30253742958E+00 -0.63628193588E+01 -0.28559266651E+01  0.69809251870E+01  0.51100000000E-03 0.  1.
        -12    1    4    4    0    0  0.18985503311E+02  0.37134566874E+01  0.37411956206E+02  0.42117615836E+02  0.00000000000E+00 0.  1.
</event>
<event>
 8    1  0.3186330E-007  0.9118800E+02  0.7816164E-02  0.1184000E+00
        -11   -1    0    0    0    0  0.00000000000E+00  0.00000000000E+00  0.45593999997E+02  0.45594000000E+02  0.51100000000E-03 0.  1.
         11   -1    0    0    0    0 -0.00000000000E+00 -0.00000000000E+00 -0.45593999997E+02  0.45594000000E+02  0.51100000000E-03 0. -1.
         23    2    1    2    0    0 -0.88817841970E-15  0.00000000000E+00  0.00000000000E+00  0.91188000000E+02  0.91188000000E+02 0.  0.
    9900012    2    3    3    0    0  0.73541866396E+01  0.32066293467E+02 -0.16536263150E+02  0.54367092395E+02  0.40000018734E+02 0.  0.
        -12    1    3    3    0    0 -0.73541866396E+01 -0.32066293467E+02  0.16536263150E+02  0.36820907605E+02  0.00000000000E+00 0.  1.
         11    1    4    4    0    0  0.20677870963E+01  0.32875843215E+02 -0.12705345166E+02  0.35306127041E+02  0.51100000000E-03 0. -1.
        -11    1    4    4    0    0 -0.47057749118E+01  0.44423335915E+01  0.13976150924E+01  0.66205719894E+01  0.51100000000E-03 0.  1.
        -12    1    4    4    0    0  0.99921744551E+01 -0.52518833391E+01 -0.52285330768E+01  0.12440393365E+02  0.00000000000E+00 0.  1.
</event>
<event>
 8    1  0.3186330E-007  0.9118800E+02  0.7816164E-02  0.1184000E+00
        -11   -1    0    0    0    0  0.00000000000E+00  0.00000000000E+00  0.45593999997E+02  0.45594000000E+02  0.51100000000E-03 0.  1.
         11   -1    0    0    0    0 -0.00000000000E+00 -0.00000000000E+00 -0.45593999997E+02  0.45594000000E+02  0.51100000000E-03 0. -1.
         23    2    1    2    0    0  0.17763568394E-14  0.71054273576E-14 -0.17763568394E-14  0.91188000000E+02  0.91188000000E+02 0.  0.
    9900012    2    3    3    0    0  0.10187196354E+02 -0.34874106459E+02 -0.59830478296E+01  0.54367093816E+02  0.40000021973E+02 0.  0.
        -12    1    3    3    0    0 -0.10187196354E+02  0.34874106459E+02  0.59830478296E+01  0.36820906184E+02  0.00000000000E+00 0.  1.
         11    1    4    4    0    0  0.10990460861E+02 -0.18627572739E+02  0.22674739650E+01  0.21746681000E+02  0.51100000000E-03 0. -1.
        -11    1    4    4    0    0  0.63987981724E+01  0.15521243133E+01  0.58425932223E+01  0.88028179441E+01  0.51100000000E-03 0.  1.
         12    1    4    4    0    0 -0.72020626793E+01 -0.17798658033E+02 -0.14093115017E+02  0.23817594872E+02  0.00000000000E+00 0. -1.
</event>
<event>
 8    1  0.3186330E-007  0.9118800E+02  0.7816164E-02  0.1184000E+00
        -11   -1    0    0    0    0  0.00000000000E+00  0.00000000000E+00  0.45593999997E+02  0.45594000000E+02  0.51100000000E-03 0. -1.
         11   -1    0    0    0    0 -0.00000000000E+00 -0.00000000000E+00 -0.45593999997E+02  0.45594000000E+02  0.51100000000E-03 0.  1.
         23    2    1    2    0    0  0.00000000000E+00  0.17763568394E-14  0.00000000000E+00  0.91188000000E+02  0.91188000000E+02 0.  0.
    9900012    2    3    3    0    0 -0.32147803189E+02  0.13242283220E+02 -0.12121916292E+02  0.54367079732E+02  0.39999989866E+02 0.  0.
         12    1    3    3    0    0  0.32147803189E+02 -0.13242283220E+02  0.12121916292E+02  0.36820920268E+02  0.00000000000E+00 0. -1.
         11    1    4    4    0    0 -0.19771002771E+02  0.11862007459E+02  0.48223038518E+01  0.23555347296E+02  0.51100000000E-03 0. -1.
        -11    1    4    4    0    0  0.43738904504E+01  0.59197195954E+01 -0.13564148210E+01  0.74842407222E+01  0.51100000000E-03 0.  1.
        -12    1    4    4    0    0 -0.16750690868E+02 -0.45394438344E+01 -0.15587805323E+02  0.23327491714E+02  0.00000000000E+00 0.  1.
</event>
<event>
 8    1  0.3186330E-007  0.9118800E+02  0.7816164E-02  0.1184000E+00
        -11   -1    0    0    0    0  0.00000000000E+00  0.00000000000E+00  0.45593999997E+02  0.45594000000E+02  0.51100000000E-03 0.  1.
         11   -1    0    0    0    0 -0.00000000000E+00 -0.00000000000E+00 -0.45593999997E+02  0.45594000000E+02  0.51100000000E-03 0. -1.
         23    2    1    2    0    0  0.35527136788E-14  0.00000000000E+00  0.00000000000E+00  0.91188000000E+02  0.91188000000E+02 0.  0.
    9900012    2    3    3    0    0 -0.28146322665E+02 -0.16481324937E+02 -0.17086003063E+02  0.54367067748E+02  0.39999962544E+02 0.  0.
        -12    1    3    3    0    0  0.28146322665E+02  0.16481324937E+02  0.17086003063E+02  0.36820932252E+02  0.00000000000E+00 0.  1.
         11    1    4    4    0    0 -0.29657156401E+02 -0.30807914881E+01 -0.89563515802E+01  0.31132851394E+02  0.51100000000E-03 0.  1.
        -11    1    4    4    0    0 -0.79260107623E+00  0.54041968077E-01 -0.94836817479E+01  0.95168984841E+01  0.51100000000E-03 0. -1.
         12    1    4    4    0    0  0.23034348120E+01 -0.13454575417E+02  0.13540302654E+01  0.13717317870E+02  0.00000000000E+00 0. -1.
</event>
<event>
 8    1  0.3186330E-007  0.9118800E+02  0.7816164E-02  0.1184000E+00
        -11   -1    0    0    0    0  0.00000000000E+00  0.00000000000E+00  0.45593999997E+02  0.45594000000E+02  0.51100000000E-03 0.  1.
         11   -1    0    0    0    0 -0.00000000000E+00 -0.00000000000E+00 -0.45593999997E+02  0.45594000000E+02  0.51100000000E-03 0. -1.
         23    2    1    2    0    0  0.00000000000E+00  0.35527136788E-14  0.35527136788E-14  0.91188000000E+02  0.91188000000E+02 0.  0.
    9900012    2    3    3    0    0 -0.36113438130E+01 -0.29660202345E+02 -0.21517730391E+02  0.54367053129E+02  0.39999929219E+02 0.  0.
        -12    1    3    3    0    0  0.36113438130E+01  0.29660202345E+02  0.21517730391E+02  0.36820946871E+02  0.00000000000E+00 0.  1.
         11    1    4    4    0    0  0.20800937165E+01  0.77387645879E+01 -0.10784503872E+02  0.13435802591E+02  0.51100000000E-03 0. -1.
        -11    1    4    4    0    0 -0.57043524681E+01 -0.29406558257E+02 -0.12954446460E+02  0.32635915629E+02  0.51100000000E-03 0.  1.
        -12    1    4    4    0    0  0.12914938692E-01 -0.79924086754E+01  0.22212199415E+01  0.82953349094E+01  0.00000000000E+00 0.  1.
</event>
<event>
 8    1  0.3186330E-007  0.9118800E+02  0.7816164E-02  0.1184000E+00
        -11   -1    0    0    0    0  0.00000000000E+00  0.00000000000E+00  0.45593999997E+02  0.45594000000E+02  0.51100000000E-03 0.  1.
         11   -1    0    0    0    0 -0.00000000000E+00 -0.00000000000E+00 -0.45593999997E+02  0.45594000000E+02  0.51100000000E-03 0. -1.
         23    2    1    2    0    0 -0.88817841970E-15  0.00000000000E+00  0.00000000000E+00  0.91188000000E+02  0.91188000000E+02 0.  0.
    9900012    2    3    3    0    0 -0.71081029221E+01 -0.80708965614E+01  0.35215283986E+02  0.54367072192E+02  0.39999972676E+02 0.  0.
         12    1    3    3    0    0  0.71081029221E+01  0.80708965614E+01 -0.35215283986E+02  0.36820927808E+02  0.00000000000E+00 0. -1.
         11    1    4    4    0    0 -0.97024909373E+01 -0.10017210349E+02  0.18985987887E+02  0.23557388860E+02  0.51100000000E-03 0. -1.
        -11    1    4    4    0    0 -0.10976681462E+01 -0.10926987868E+02  0.13029776969E+02  0.17040511358E+02  0.51100000000E-03 0.  1.
         12    1    4    4    0    0  0.36920561614E+01  0.12873301655E+02  0.31995191295E+01  0.13769171974E+02  0.00000000000E+00 0. -1.
</event>
<event>
 8    1  0.3186330E-007  0.9118800E+02  0.7816164E-02  0.1184000E+00
        -11   -1    0    0    0    0  0.00000000000E+00  0.00000000000E+00  0.45593999997E+02  0.45594000000E+02  0.51100000000E-03 0.  1.
         11   -1    0    0    0    0 -0.00000000000E+00 -0.00000000000E+00 -0.45593999997E+02  0.45594000000E+02  0.51100000000E-03 0. -1.
         23    2    1    2    0    0  0.00000000000E+00  0.00000000000E+00 -0.11102230246E-15  0.91188000000E+02  0.91188000000E+02 0.  0.
    9900012    2    3    3    0    0  0.35767065467E+02 -0.87369193342E+01 -0.41169750990E+00  0.54366997482E+02  0.39999802359E+02 0.  0.
         12    1    3    3    0    0 -0.35767065467E+02  0.87369193342E+01  0.41169750990E+00  0.36821002518E+02  0.00000000000E+00 0. -1.
         11    1    4    4    0    0  0.20671484500E+02 -0.73587104395E+01 -0.48981392852E+01  0.22482274340E+02  0.51100000000E-03 0.  1.
        -11    1    4    4    0    0 -0.20870472107E+01  0.28971631517E+01  0.12096210298E+02  0.12612201402E+02  0.51100000000E-03 0. -1.
         12    1    4    4    0    0  0.17182628178E+02 -0.42753720465E+01 -0.76097685225E+01  0.19272521740E+02  0.00000000000E+00 0. -1.
</event>
<event>
 8    1  0.3186330E-007  0.9118800E+02  0.7816164E-02  0.1184000E+00
        -11   -1    0    0    0    0  0.00000000000E+00  0.00000000000E+00  0.45593999997E+02  0.45594000000E+02  0.51100000000E-03 0.  1.
         11   -1    0    0    0    0 -0.00000000000E+00 -0.00000000000E+00 -0.45593999997E+02  0.45594000000E+02  0.51100000000E-03 0. -1.
         23    2    1    2    0    0 -0.35527136788E-14 -0.35527136788E-14  0.00000000000E+00  0.91188000000E+02  0.91188000000E+02 0.  0.
    9900012    2    3    3    0    0  0.16254802305E+02 -0.22595012179E+02 -0.24104484748E+02  0.54367090746E+02  0.40000014974E+02 0.  0.
        -12    1    3    3    0    0 -0.16254802305E+02  0.22595012179E+02  0.24104484748E+02  0.36820909254E+02  0.00000000000E+00 0.  1.
         11    1    4    4    0    0  0.80995231854E+00 -0.15478516843E+01 -0.11127168168E+02  0.11263469239E+02  0.51100000000E-03 0.  1.
        -11    1    4    4    0    0  0.23783043938E+02 -0.14647175181E+02 -0.21513158103E+01  0.28014301342E+02  0.51100000000E-03 0. -1.
         12    1    4    4    0    0 -0.83381939513E+01 -0.63999853137E+01 -0.10826000769E+02  0.15089320165E+02  0.00000000000E+00 0. -1.
</event>
<event>
 8    1  0.3186330E-007  0.9118800E+02  0.7816164E-02  0.1184000E+00
        -11   -1    0    0    0    0  0.00000000000E+00  0.00000000000E+00  0.45593999997E+02  0.45594000000E+02  0.51100000000E-03 0.  1.
         11   -1    0    0    0    0 -0.00000000000E+00 -0.00000000000E+00 -0.45593999997E+02  0.45594000000E+02  0.51100000000E-03 0. -1.
         23    2    1    2    0    0 -0.35527136788E-14 -0.35527136788E-14  0.35527136788E-14  0.91188000000E+02  0.91188000000E+02 0.  0.
    9900012    2    3    3    0    0  0.25608072695E+02  0.20676609408E+02 -0.16507109655E+02  0.54367078869E+02  0.39999987897E+02 0.  0.
        -12    1    3    3    0    0 -0.25608072695E+02 -0.20676609408E+02  0.16507109655E+02  0.36820921131E+02  0.00000000000E+00 0.  1.
         11    1    4    4    0    0  0.27948134569E+02  0.39863747517E+01 -0.22885759100E+02  0.36342088264E+02  0.51100000000E-03 0. -1.
        -11    1    4    4    0    0 -0.18023836183E+01  0.13148314082E+02  0.48448783778E+01  0.14127972136E+02  0.51100000000E-03 0.  1.
         12    1    4    4    0    0 -0.53767825523E+00  0.35419205741E+01  0.15337710677E+01  0.38970184690E+01  0.00000000000E+00 0. -1.
</event>
<event>
 8    1  0.3186330E-007  0.9118800E+02  0.7816164E-02  0.1184000E+00
        -11   -1    0    0    0    0  0.00000000000E+00  0.00000000000E+00  0.45593999997E+02  0.45594000000E+02  0.51100000000E-03 0. -1.
         11   -1    0    0    0    0 -0.00000000000E+00 -0.00000000000E+00 -0.45593999997E+02  0.45594000000E+02  0.51100000000E-03 0.  1.
         23    2    1    2    0    0  0.00000000000E+00  0.00000000000E+00  0.00000000000E+00  0.91188000000E+02  0.91188000000E+02 0.  0.
    9900012    2    3    3    0    0 -0.65914605832E+01  0.29381549009E+02  0.21190968293E+02  0.54367083227E+02  0.39999997833E+02 0.  0.
        -12    1    3    3    0    0  0.65914605832E+01 -0.29381549009E+02 -0.21190968293E+02  0.36820916773E+02  0.00000000000E+00 0.  1.
         11    1    4    4    0    0 -0.37390438980E+01 -0.22665154568E+00  0.11299146295E+02  0.11903887073E+02  0.51100000000E-03 0. -1.
        -11    1    4    4    0    0  0.36293529993E+01 -0.12076013829E+01 -0.60577279892E+01  0.71642566220E+01  0.51100000000E-03 0.  1.
        -12    1    4    4    0    0 -0.64817696845E+01  0.30815801938E+02  0.15949549988E+02  0.35298939532E+02  0.00000000000E+00 0.  1.
</event>
<event>
 8    1  0.3186330E-007  0.9118800E+02  0.7816164E-02  0.1184000E+00
        -11   -1    0    0    0    0  0.00000000000E+00  0.00000000000E+00  0.45593999997E+02  0.45594000000E+02  0.51100000000E-03 0. -1.
         11   -1    0    0    0    0 -0.00000000000E+00 -0.00000000000E+00 -0.45593999997E+02  0.45594000000E+02  0.51100000000E-03 0.  1.
         23    2    1    2    0    0  0.17763568394E-14 -0.71054273576E-14  0.35527136788E-14  0.91188000000E+02  0.91188000000E+02 0.  0.
    9900012    2    3    3    0    0 -0.26155418435E+01  0.31130627347E+02  0.19489026318E+02  0.54367093371E+02  0.40000020958E+02 0.  0.
        -12    1    3    3    0    0  0.26155418435E+01 -0.31130627347E+02 -0.19489026318E+02  0.36820906629E+02  0.00000000000E+00 0.  1.
         11    1    4    4    0    0  0.47133349498E+01  0.26011755074E+02  0.13718634672E+02  0.29783013042E+02  0.51100000000E-03 0. -1.
        -11    1    4    4    0    0  0.41135502087E+01 -0.23231030525E+01  0.93475340803E+01  0.10473514060E+02  0.51100000000E-03 0.  1.
         12    1    4    4    0    0 -0.11442427002E+02  0.74419753256E+01 -0.35771424342E+01  0.14110566269E+02  0.00000000000E+00 0. -1.
</event>
<event>
 8    1  0.3186330E-007  0.9118800E+02  0.7816164E-02  0.1184000E+00
        -11   -1    0    0    0    0  0.00000000000E+00  0.00000000000E+00  0.45593999997E+02  0.45594000000E+02  0.51100000000E-03 0.  1.
         11   -1    0    0    0    0 -0.00000000000E+00 -0.00000000000E+00 -0.45593999997E+02  0.45594000000E+02  0.51100000000E-03 0. -1.
         23    2    1    2    0    0  0.17763568394E-14 -0.35527136788E-14  0.00000000000E+00  0.91188000000E+02  0.91188000000E+02 0.  0.
    9900012    2    3    3    0    0 -0.58940447188E+01 -0.27026046642E+02  0.24302934616E+02  0.54367087583E+02  0.40000007764E+02 0.  0.
         12    1    3    3    0    0  0.58940447188E+01  0.27026046642E+02 -0.24302934616E+02  0.36820912417E+02  0.00000000000E+00 0. -1.
         11    1    4    4    0    0 -0.11758807849E+02 -0.22081298077E+02  0.98581266373E+01  0.26889327768E+02  0.51100000000E-03 0. -1.
        -11    1    4    4    0    0  0.44615953836E+01  0.86160140419E+01  0.52295269401E+01  0.11022226799E+02  0.51100000000E-03 0.  1.
        -12    1    4    4    0    0  0.14031677465E+01 -0.13560762607E+02  0.92152810384E+01  0.16455533016E+02  0.00000000000E+00 0.  1.
</event>
<event>
 8    1  0.3186330E-007  0.9118800E+02  0.7816164E-02  0.1184000E+00
        -11   -1    0    0    0    0  0.00000000000E+00  0.00000000000E+00  0.45593999997E+02  0.45594000000E+02  0.51100000000E-03 0. -1.
         11   -1    0    0    0    0 -0.00000000000E+00 -0.00000000000E+00 -0.45593999997E+02  0.45594000000E+02  0.51100000000E-03 0.  1.
         23    2    1    2    0    0  0.00000000000E+00  0.44408920985E-15 -0.35527136788E-14  0.91188000000E+02  0.91188000000E+02 0.  0.
    9900012    2    3    3    0    0 -0.27873288955E+02 -0.30830042541E+01  0.23861165497E+02  0.54367076991E+02  0.39999983615E+02 0.  0.
        -12    1    3    3    0    0  0.27873288955E+02  0.30830042541E+01 -0.23861165497E+02  0.36820923009E+02  0.00000000000E+00 0.  1.
         11    1    4    4    0    0 -0.14497003241E+02  0.33198054254E+01 -0.66251840442E+01  0.16281193904E+02  0.51100000000E-03 0. -1.
        -11    1    4    4    0    0  0.64750320905E+00  0.25566575589E+01 -0.70749122330E+00  0.27306230739E+01  0.51100000000E-03 0.  1.
         12    1    4    4    0    0 -0.14023788922E+02 -0.89594672385E+01  0.31193840765E+02  0.35355260013E+02  0.00000000000E+00 0. -1.
</event>
<event>
 8    1  0.3186330E-007  0.9118800E+02  0.7816164E-02  0.1184000E+00
        -11   -1    0    0    0    0  0.00000000000E+00  0.00000000000E+00  0.45593999997E+02  0.45594000000E+02  0.51100000000E-03 0.  1.
         11   -1    0    0    0    0 -0.00000000000E+00 -0.00000000000E+00 -0.45593999997E+02  0.45594000000E+02  0.51100000000E-03 0. -1.
         23    2    1    2    0    0  0.00000000000E+00  0.00000000000E+00  0.35527136788E-14  0.91188000000E+02  0.91188000000E+02 0.  0.
    9900012    2    3    3    0    0  0.17454010858E+02 -0.18392608264E+02  0.26699396934E+02  0.54366968912E+02  0.39999737227E+02 0.  0.
         12    1    3    3    0    0 -0.17454010858E+02  0.18392608264E+02 -0.26699396934E+02  0.36821031088E+02  0.00000000000E+00 0. -1.
         11    1    4    4    0    0  0.12959366367E+02 -0.62393882107E+00 -0.27938354848E+01  0.13271774308E+02  0.51100000000E-03 0. -1.
        -11    1    4    4    0    0  0.11066572985E+02 -0.16552592059E+01  0.10696797876E+02  0.15480000185E+02  0.51100000000E-03 0.  1.
         12    1    4    4    0    0 -0.65719284948E+01 -0.16113410237E+02  0.18796434542E+02  0.25615194419E+02  0.00000000000E+00 0. -1.
</event>
<event>
 8    1  0.3186330E-007  0.9118800E+02  0.7816164E-02  0.1184000E+00
        -11   -1    0    0    0    0  0.00000000000E+00  0.00000000000E+00  0.45593999997E+02  0.45594000000E+02  0.51100000000E-03 0. -1.
         11   -1    0    0    0    0 -0.00000000000E+00 -0.00000000000E+00 -0.45593999997E+02  0.45594000000E+02  0.51100000000E-03 0.  1.
         23    2    1    2    0    0 -0.17763568394E-14 -0.11102230246E-14  0.00000000000E+00  0.91188000000E+02  0.91188000000E+02 0.  0.
    9900012    2    3    3    0    0  0.10586827081E+02 -0.11123557386E+01 -0.35248575809E+02  0.54367077422E+02  0.39999984598E+02 0.  0.
         12    1    3    3    0    0 -0.10586827081E+02  0.11123557386E+01  0.35248575809E+02  0.36820922578E+02  0.00000000000E+00 0. -1.
         11    1    4    4    0    0  0.83010179362E+01  0.18353529285E+01 -0.18230162027E+02  0.20115024906E+02  0.51100000000E-03 0. -1.
        -11    1    4    4    0    0 -0.31842084845E+01  0.10449393350E+02 -0.16479471355E+02  0.19771241273E+02  0.51100000000E-03 0.  1.
         12    1    4    4    0    0  0.54700176294E+01 -0.13397102017E+02 -0.53894242699E+00  0.14480811243E+02  0.00000000000E+00 0. -1.
</event>
<event>
 8    1  0.3186330E-007  0.9118800E+02  0.7816164E-02  0.1184000E+00
        -11   -1    0    0    0    0  0.00000000000E+00  0.00000000000E+00  0.45593999997E+02  0.45594000000E+02  0.51100000000E-03 0.  1.
         11   -1    0    0    0    0 -0.00000000000E+00 -0.00000000000E+00 -0.45593999997E+02  0.45594000000E+02  0.51100000000E-03 0. -1.
         23    2    1    2    0    0  0.00000000000E+00  0.00000000000E+00  0.00000000000E+00  0.91188000000E+02  0.91188000000E+02 0.  0.
    9900012    2    3    3    0    0  0.29023336604E+02 -0.11093831615E+02 -0.19757371002E+02  0.54367070131E+02  0.39999967977E+02 0.  0.
        -12    1    3    3    0    0 -0.29023336604E+02  0.11093831615E+02  0.19757371002E+02  0.36820929869E+02  0.00000000000E+00 0.  1.
         11    1    4    4    0    0  0.38579761665E+01 -0.30761862567E+00  0.15126301360E+01  0.41553170168E+01  0.51100000000E-03 0. -1.
        -11    1    4    4    0    0  0.82637618516E+01 -0.68336185049E+01  0.98614425679E+01  0.14568327000E+02  0.51100000000E-03 0.  1.
         12    1    4    4    0    0  0.16901598586E+02 -0.39525944847E+01 -0.31131443706E+02  0.35643426114E+02  0.00000000000E+00 0. -1.
</event>
<event>
 8    1  0.3186330E-007  0.9118800E+02  0.7816164E-02  0.1184000E+00
        -11   -1    0    0    0    0  0.00000000000E+00  0.00000000000E+00  0.45593999997E+02  0.45594000000E+02  0.51100000000E-03 0.  1.
         11   -1    0    0    0    0 -0.00000000000E+00 -0.00000000000E+00 -0.45593999997E+02  0.45594000000E+02  0.51100000000E-03 0. -1.
         23    2    1    2    0    0 -0.35527136788E-14  0.00000000000E+00 -0.35527136788E-14  0.91188000000E+02  0.91188000000E+02 0.  0.
    9900012    2    3    3    0    0 -0.19979417827E+02 -0.96169034386E+01 -0.29395757474E+02  0.54367183525E+02  0.40000226481E+02 0.  0.
        -12    1    3    3    0    0  0.19979417827E+02  0.96169034386E+01  0.29395757474E+02  0.36820816475E+02  0.00000000000E+00 0.  1.
         11    1    4    4    0    0  0.32779806279E+01  0.19020675078E+01 -0.19777382358E+02  0.20137226000E+02  0.51100000000E-03 0. -1.
        -11    1    4    4    0    0 -0.12996082614E+02  0.41127926627E+01 -0.10803707648E+01  0.13674078691E+02  0.51100000000E-03 0.  1.
        -12    1    4    4    0    0 -0.10261315841E+02 -0.15631763609E+02 -0.85380043511E+01  0.20555878833E+02  0.00000000000E+00 0.  1.
</event>
<event>
 8    1  0.3186330E-007  0.9118800E+02  0.7816164E-02  0.1184000E+00
        -11   -1    0    0    0    0  0.00000000000E+00  0.00000000000E+00  0.45593999997E+02  0.45594000000E+02  0.51100000000E-03 0. -1.
         11   -1    0    0    0    0 -0.00000000000E+00 -0.00000000000E+00 -0.45593999997E+02  0.45594000000E+02  0.51100000000E-03 0.  1.
         23    2    1    2    0    0 -0.22204460493E-15  0.13322676296E-14 -0.71054273576E-14  0.91188000000E+02  0.91188000000E+02 0.  0.
    9900012    2    3    3    0    0 -0.12068031696E+01  0.27664542063E+01  0.36697008886E+02  0.54367080621E+02  0.39999991891E+02 0.  0.
        -12    1    3    3    0    0  0.12068031696E+01 -0.27664542063E+01 -0.36697008886E+02  0.36820919379E+02  0.00000000000E+00 0.  1.
         11    1    4    4    0    0 -0.44705567076E+01 -0.16715237558E+02  0.23955653373E+02  0.29550945377E+02  0.51100000000E-03 0. -1.
        -11    1    4    4    0    0 -0.22724681253E+01  0.96701985290E+01  0.71498639984E+01  0.12239175071E+02  0.51100000000E-03 0.  1.
         12    1    4    4    0    0  0.55362216633E+01  0.98114932352E+01  0.55914915144E+01  0.12576960172E+02  0.00000000000E+00 0. -1.
</event>
<event>
 8    1  0.3186330E-007  0.9118800E+02  0.7816164E-02  0.1184000E+00
        -11   -1    0    0    0    0  0.00000000000E+00  0.00000000000E+00  0.45593999997E+02  0.45594000000E+02  0.51100000000E-03 0.  1.
         11   -1    0    0    0    0 -0.00000000000E+00 -0.00000000000E+00 -0.45593999997E+02  0.45594000000E+02  0.51100000000E-03 0. -1.
         23    2    1    2    0    0  0.44408920985E-15  0.17763568394E-14 -0.71054273576E-14  0.91188000000E+02  0.91188000000E+02 0.  0.
    9900012    2    3    3    0    0  0.33684892952E+01  0.13070023496E+02 -0.34257915258E+02  0.54367122876E+02  0.40000088221E+02 0.  0.
        -12    1    3    3    0    0 -0.33684892952E+01 -0.13070023496E+02  0.34257915258E+02  0.36820877124E+02  0.00000000000E+00 0.  1.
         11    1    4    4    0    0  0.24720976349E+01 -0.15139547959E+01 -0.24626186793E+02  0.24796217495E+02  0.51100000000E-03 0. -1.
        -11    1    4    4    0    0  0.79488639442E+01  0.18756436697E+01  0.44781918322E+01  0.93143265740E+01  0.51100000000E-03 0.  1.
         12    1    4    4    0    0 -0.70524722839E+01  0.12708334622E+02 -0.14109920298E+02  0.20256578807E+02  0.00000000000E+00 0. -1.
</event>
<event>
 8    1  0.3186330E-007  0.9118800E+02  0.7816164E-02  0.1184000E+00
        -11   -1    0    0    0    0  0.00000000000E+00  0.00000000000E+00  0.45593999997E+02  0.45594000000E+02  0.51100000000E-03 0.  1.
         11   -1    0    0    0    0 -0.00000000000E+00 -0.00000000000E+00 -0.45593999997E+02  0.45594000000E+02  0.51100000000E-03 0. -1.
         23    2    1    2    0    0  0.71054273576E-14  0.17763568394E-14  0.35527136788E-14  0.91188000000E+02  0.91188000000E+02 0.  0.
    9900012    2    3    3    0    0  0.28066438243E+02  0.13662524229E+02 -0.19529215819E+02  0.54367084823E+02  0.40000001472E+02 0.  0.
        -12    1    3    3    0    0 -0.28066438243E+02 -0.13662524229E+02  0.19529215819E+02  0.36820915177E+02  0.00000000000E+00 0.  1.
         11    1    4    4    0    0  0.32852532546E+02  0.17341708999E+02 -0.15318327712E+02  0.40183017929E+02  0.51100000000E-03 0. -1.
        -11    1    4    4    0    0  0.14632949172E+01 -0.43789599099E+01 -0.60701853647E+01  0.76265111637E+01  0.51100000000E-03 0.  1.
        -12    1    4    4    0    0 -0.62493892201E+01  0.69977513975E+00  0.18592972579E+01  0.65575557309E+01  0.00000000000E+00 0.  1.
</event>
<event>
 8    1  0.3186330E-007  0.9118800E+02  0.7816164E-02  0.1184000E+00
        -11   -1    0    0    0    0  0.00000000000E+00  0.00000000000E+00  0.45593999997E+02  0.45594000000E+02  0.51100000000E-03 0.  1.
         11   -1    0    0    0    0 -0.00000000000E+00 -0.00000000000E+00 -0.45593999997E+02  0.45594000000E+02  0.51100000000E-03 0. -1.
         23    2    1    2    0    0 -0.35527136788E-14  0.17763568394E-14  0.35527136788E-14  0.91188000000E+02  0.91188000000E+02 0.  0.
    9900012    2    3    3    0    0  0.19162442543E+02 -0.88220178920E+01 -0.30178673182E+02  0.54367088565E+02  0.40000010001E+02 0.  0.
        -12    1    3    3    0    0 -0.19162442543E+02  0.88220178920E+01  0.30178673182E+02  0.36820911435E+02  0.00000000000E+00 0.  1.
         11    1    4    4    0    0  0.15299288979E+02  0.13123947952E+02 -0.56280575131E+01  0.20928002407E+02  0.51100000000E-03 0.  1.
        -11    1    4    4    0    0  0.30392655411E+01 -0.15639069664E+02 -0.14484240327E+02  0.21531624488E+02  0.51100000000E-03 0. -1.
        -12    1    4    4    0    0  0.82388802281E+00 -0.63068961801E+01 -0.10066375342E+02  0.11907461670E+02  0.00000000000E+00 0.  1.
</event>
<event>
 8    1  0.3186330E-007  0.9118800E+02  0.7816164E-02  0.1184000E+00
        -11   -1    0    0    0    0  0.00000000000E+00  0.00000000000E+00  0.45593999997E+02  0.45594000000E+02  0.51100000000E-03 0. -1.
         11   -1    0    0    0    0 -0.00000000000E+00 -0.00000000000E+00 -0.45593999997E+02  0.45594000000E+02  0.51100000000E-03 0.  1.
         23    2    1    2    0    0 -0.35527136788E-14  0.44408920985E-15  0.00000000000E+00  0.91188000000E+02  0.91188000000E+02 0.  0.
    9900012    2    3    3    0    0  0.24492952603E+02  0.34222812264E+01 -0.27279290830E+02  0.54367130317E+02  0.40000105183E+02 0.  0.
         12    1    3    3    0    0 -0.24492952603E+02 -0.34222812264E+01  0.27279290830E+02  0.36820869683E+02  0.00000000000E+00 0. -1.
         11    1    4    4    0    0  0.16653935402E+02 -0.35409390740E+01 -0.29227944408E+02  0.33825501452E+02  0.51100000000E-03 0.  1.
        -11    1    4    4    0    0  0.96395538395E+00 -0.25342707178E+01  0.72007515432E+01  0.76943200545E+01  0.51100000000E-03 0. -1.
        -12    1    4    4    0    0  0.68750618176E+01  0.94974910181E+01 -0.52520979659E+01  0.12847308811E+02  0.00000000000E+00 0.  1.
</event>
<event>
 8    1  0.3186330E-007  0.9118800E+02  0.7816164E-02  0.1184000E+00
        -11   -1    0    0    0    0  0.00000000000E+00  0.00000000000E+00  0.45593999997E+02  0.45594000000E+02  0.51100000000E-03 0.  1.
         11   -1    0    0    0    0 -0.00000000000E+00 -0.00000000000E+00 -0.45593999997E+02  0.45594000000E+02  0.51100000000E-03 0. -1.
         23    2    1    2    0    0  0.35527136788E-14  0.17763568394E-14  0.35527136788E-14  0.91188000000E+02  0.91188000000E+02 0.  0.
    9900012    2    3    3    0    0 -0.28809349730E+02 -0.13313376257E+02  0.18669579576E+02  0.54367111625E+02  0.40000062571E+02 0.  0.
         12    1    3    3    0    0  0.28809349730E+02  0.13313376257E+02 -0.18669579576E+02  0.36820888375E+02  0.00000000000E+00 0. -1.
         11    1    4    4    0    0 -0.26102344849E+02  0.31168782445E+01  0.12546025379E+02  0.29128166604E+02  0.51100000000E-03 0. -1.
        -11    1    4    4    0    0 -0.28266084965E+01  0.27507766409E+01 -0.19832997623E+01  0.44147441521E+01  0.51100000000E-03 0.  1.
        -12    1    4    4    0    0  0.11960361599E+00 -0.19181031142E+02  0.81068539588E+01  0.20824200869E+02  0.00000000000E+00 0.  1.
</event>
<event>
 8    1  0.3186330E-007  0.9118800E+02  0.7816164E-02  0.1184000E+00
        -11   -1    0    0    0    0  0.00000000000E+00  0.00000000000E+00  0.45593999997E+02  0.45594000000E+02  0.51100000000E-03 0. -1.
         11   -1    0    0    0    0 -0.00000000000E+00 -0.00000000000E+00 -0.45593999997E+02  0.45594000000E+02  0.51100000000E-03 0.  1.
         23    2    1    2    0    0  0.35527136788E-14  0.00000000000E+00  0.00000000000E+00  0.91188000000E+02  0.91188000000E+02 0.  0.
    9900012    2    3    3    0    0 -0.14227946620E+02  0.32207872605E+02  0.10770259232E+02  0.54367081941E+02  0.39999994901E+02 0.  0.
         12    1    3    3    0    0  0.14227946620E+02 -0.32207872605E+02 -0.10770259232E+02  0.36820918059E+02  0.00000000000E+00 0. -1.
         11    1    4    4    0    0 -0.99308630851E+01  0.58080485245E+01  0.20920409542E+01  0.11693250399E+02  0.51100000000E-03 0. -1.
        -11    1    4    4    0    0 -0.87906127393E+01  0.24989187924E+02 -0.60827853388E+01  0.27179673713E+02  0.51100000000E-03 0.  1.
        -12    1    4    4    0    0  0.44935292043E+01  0.14106361571E+01  0.14761003616E+02  0.15494157829E+02  0.00000000000E+00 0.  1.
</event>
<event>
 8    1  0.3186330E-007  0.9118800E+02  0.7816164E-02  0.1184000E+00
        -11   -1    0    0    0    0  0.00000000000E+00  0.00000000000E+00  0.45593999997E+02  0.45594000000E+02  0.51100000000E-03 0. -1.
         11   -1    0    0    0    0 -0.00000000000E+00 -0.00000000000E+00 -0.45593999997E+02  0.45594000000E+02  0.51100000000E-03 0.  1.
         23    2    1    2    0    0  0.88817841970E-15  0.00000000000E+00  0.00000000000E+00  0.91188000000E+02  0.91188000000E+02 0.  0.
    9900012    2    3    3    0    0 -0.62163593314E+01  0.20061813345E+01  0.36236863965E+02  0.54367106517E+02  0.40000050926E+02 0.  0.
        -12    1    3    3    0    0  0.62163593314E+01 -0.20061813345E+01 -0.36236863965E+02  0.36820893483E+02  0.00000000000E+00 0.  1.
         11    1    4    4    0    0 -0.10384971777E+02  0.10610377966E+01  0.61397285978E+01  0.12110726962E+02  0.51100000000E-03 0. -1.
        -11    1    4    4    0    0  0.43957737067E+01 -0.76428041945E-01 -0.52760566733E+01  0.68677100992E+01  0.51100000000E-03 0.  1.
        -12    1    4    4    0    0 -0.22716126084E+00  0.10215715799E+01  0.35373192041E+02  0.35388669456E+02  0.00000000000E+00 0.  1.
</event>
<event>
 8    1  0.3186330E-007  0.9118800E+02  0.7816164E-02  0.1184000E+00
        -11   -1    0    0    0    0  0.00000000000E+00  0.00000000000E+00  0.45593999997E+02  0.45594000000E+02  0.51100000000E-03 0. -1.
         11   -1    0    0    0    0 -0.00000000000E+00 -0.00000000000E+00 -0.45593999997E+02  0.45594000000E+02  0.51100000000E-03 0.  1.
         23    2    1    2    0    0 -0.17763568394E-14  0.00000000000E+00  0.88817841970E-15  0.91188000000E+02  0.91188000000E+02 0.  0.
    9900012    2    3    3    0    0 -0.95995427157E+01 -0.35330113532E+02 -0.39255959646E+01  0.54367103131E+02  0.40000043208E+02 0.  0.
         12    1    3    3    0    0  0.95995427157E+01  0.35330113532E+02  0.39255959646E+01  0.36820896869E+02  0.00000000000E+00 0. -1.
         11    1    4    4    0    0  0.64700954292E+01 -0.17208074487E+00  0.25174133435E+01  0.69447186299E+01  0.51100000000E-03 0. -1.
        -11    1    4    4    0    0  0.58870876212E+01 -0.82223496932E+01  0.43866800982E+01  0.11023057547E+02  0.51100000000E-03 0.  1.
        -12    1    4    4    0    0 -0.21956725766E+02 -0.26935683094E+02 -0.10829689406E+02  0.36399326954E+02  0.00000000000E+00 0.  1.
</event>
<event>
 8    1  0.3186330E-007  0.9118800E+02  0.7816164E-02  0.1184000E+00
        -11   -1    0    0    0    0  0.00000000000E+00  0.00000000000E+00  0.45593999997E+02  0.45594000000E+02  0.51100000000E-03 0. -1.
         11   -1    0    0    0    0 -0.00000000000E+00 -0.00000000000E+00 -0.45593999997E+02  0.45594000000E+02  0.51100000000E-03 0.  1.
         23    2    1    2    0    0  0.71054273576E-14 -0.44408920985E-15  0.00000000000E+00  0.91188000000E+02  0.91188000000E+02 0.  0.
    9900012    2    3    3    0    0  0.30197696309E+02  0.18152701128E+01 -0.20990068376E+02  0.54367095090E+02  0.40000024876E+02 0.  0.
         12    1    3    3    0    0 -0.30197696309E+02 -0.18152701128E+01  0.20990068376E+02  0.36820904910E+02  0.00000000000E+00 0. -1.
         11    1    4    4    0    0 -0.82947520883E+01 -0.10058876797E+00  0.71269451528E+00  0.83259212127E+01  0.51100000000E-03 0. -1.
        -11    1    4    4    0    0  0.24954821740E+02  0.73498463844E+01 -0.14172571851E+02  0.29624739038E+02  0.51100000000E-03 0.  1.
         12    1    4    4    0    0  0.13537626658E+02 -0.54339875037E+01 -0.75301910405E+01  0.16416434839E+02  0.00000000000E+00 0. -1.
</event>
<event>
 8    1  0.3186330E-007  0.9118800E+02  0.7816164E-02  0.1184000E+00
        -11   -1    0    0    0    0  0.00000000000E+00  0.00000000000E+00  0.45593999997E+02  0.45594000000E+02  0.51100000000E-03 0.  1.
         11   -1    0    0    0    0 -0.00000000000E+00 -0.00000000000E+00 -0.45593999997E+02  0.45594000000E+02  0.51100000000E-03 0. -1.
         23    2    1    2    0    0  0.00000000000E+00  0.88817841970E-15 -0.35527136788E-14  0.91188000000E+02  0.91188000000E+02 0.  0.
    9900012    2    3    3    0    0  0.27266235404E+02 -0.53821807684E+01 -0.24152949727E+02  0.54367076010E+02  0.39999981380E+02 0.  0.
        -12    1    3    3    0    0 -0.27266235404E+02  0.53821807684E+01  0.24152949727E+02  0.36820923990E+02  0.00000000000E+00 0.  1.
         11    1    4    4    0    0  0.74914018111E+01  0.38000889021E+01 -0.90190341615E+01  0.12324964674E+02  0.51100000000E-03 0. -1.
        -11    1    4    4    0    0 -0.84518425330E+00  0.10308925718E+02 -0.11441463800E+01  0.10406601611E+02  0.51100000000E-03 0.  1.
        -12    1    4    4    0    0  0.20620017847E+02 -0.19491195389E+02 -0.13989769186E+02  0.31635509725E+02  0.00000000000E+00 0.  1.
</event>
<event>
 8    1  0.3186330E-007  0.9118800E+02  0.7816164E-02  0.1184000E+00
        -11   -1    0    0    0    0  0.00000000000E+00  0.00000000000E+00  0.45593999997E+02  0.45594000000E+02  0.51100000000E-03 0. -1.
         11   -1    0    0    0    0 -0.00000000000E+00 -0.00000000000E+00 -0.45593999997E+02  0.45594000000E+02  0.51100000000E-03 0.  1.
         23    2    1    2    0    0  0.88817841970E-15  0.00000000000E+00  0.00000000000E+00  0.91188000000E+02  0.91188000000E+02 0.  0.
    9900012    2    3    3    0    0 -0.67850902203E+01  0.20678223474E+02  0.29701055149E+02  0.54367094901E+02  0.40000024447E+02 0.  0.
        -12    1    3    3    0    0  0.67850902203E+01 -0.20678223474E+02 -0.29701055149E+02  0.36820905099E+02  0.00000000000E+00 0.  1.
         11    1    4    4    0    0 -0.52732357956E+01  0.55638594948E+01  0.19558326113E+02  0.21006943348E+02  0.51100000000E-03 0. -1.
        -11    1    4    4    0    0  0.11619293134E+02  0.13582956303E+02  0.23881661649E+01  0.18033524690E+02  0.51100000000E-03 0.  1.
        -12    1    4    4    0    0 -0.13131147559E+02  0.15314076764E+01  0.77545628711E+01  0.15326626863E+02  0.00000000000E+00 0.  1.
</event>
<event>
 8    1  0.3186330E-007  0.9118800E+02  0.7816164E-02  0.1184000E+00
        -11   -1    0    0    0    0  0.00000000000E+00  0.00000000000E+00  0.45593999997E+02  0.45594000000E+02  0.51100000000E-03 0.  1.
         11   -1    0    0    0    0 -0.00000000000E+00 -0.00000000000E+00 -0.45593999997E+02  0.45594000000E+02  0.51100000000E-03 0. -1.
         23    2    1    2    0    0  0.35527136788E-14  0.17763568394E-14 -0.71054273576E-14  0.91188000000E+02  0.91188000000E+02 0.  0.
    9900012    2    3    3    0    0  0.17978656626E+02  0.14153081005E+02 -0.28848530160E+02  0.54367088979E+02  0.40000010946E+02 0.  0.
        -12    1    3    3    0    0 -0.17978656626E+02 -0.14153081005E+02  0.28848530160E+02  0.36820911021E+02  0.00000000000E+00 0.  1.
         11    1    4    4    0    0  0.52790914912E+01  0.95387794002E+01 -0.34917466316E+02  0.36579865686E+02  0.51100000000E-03 0. -1.
        -11    1    4    4    0    0  0.70083537784E+01 -0.26243051180E+01  0.32361771943E+01  0.81533332527E+01  0.51100000000E-03 0.  1.
         12    1    4    4    0    0  0.56912113565E+01  0.72386067224E+01  0.28327589612E+01  0.96338900408E+01  0.00000000000E+00 0. -1.
</event>
<event>
 8    1  0.3186330E-007  0.9118800E+02  0.7816164E-02  0.1184000E+00
        -11   -1    0    0    0    0  0.00000000000E+00  0.00000000000E+00  0.45593999997E+02  0.45594000000E+02  0.51100000000E-03 0.  1.
         11   -1    0    0    0    0 -0.00000000000E+00 -0.00000000000E+00 -0.45593999997E+02  0.45594000000E+02  0.51100000000E-03 0. -1.
         23    2    1    2    0    0  0.00000000000E+00 -0.71054273576E-14  0.35527136788E-14  0.91188000000E+02  0.91188000000E+02 0.  0.
    9900012    2    3    3    0    0 -0.14860098114E+02  0.33338157545E+02 -0.48502648336E+01  0.54367077504E+02  0.39999984787E+02 0.  0.
         12    1    3    3    0    0  0.14860098114E+02 -0.33338157545E+02  0.48502648336E+01  0.36820922496E+02  0.00000000000E+00 0. -1.
         11    1    4    4    0    0 -0.22791516499E+01  0.40756186435E+01  0.12681201533E+01  0.48387321226E+01  0.51100000000E-03 0. -1.
        -11    1    4    4    0    0 -0.10304096985E+02  0.26671340478E+02 -0.20214334084E+02  0.35016483552E+02  0.51100000000E-03 0.  1.
         12    1    4    4    0    0 -0.22768494787E+01  0.25911984239E+01  0.14095949098E+02  0.14511861830E+02  0.00000000000E+00 0. -1.
</event>
<event>
 8    1  0.3186330E-007  0.9118800E+02  0.7816164E-02  0.1184000E+00
        -11   -1    0    0    0    0  0.00000000000E+00  0.00000000000E+00  0.45593999997E+02  0.45594000000E+02  0.51100000000E-03 0.  1.
         11   -1    0    0    0    0 -0.00000000000E+00 -0.00000000000E+00 -0.45593999997E+02  0.45594000000E+02  0.51100000000E-03 0. -1.
         23    2    1    2    0    0  0.00000000000E+00  0.00000000000E+00  0.00000000000E+00  0.91188000000E+02  0.91188000000E+02 0.  0.
    9900012    2    3    3    0    0 -0.16521940679E+02 -0.32873020296E+02 -0.14738371890E+01  0.54367052386E+02  0.39999927523E+02 0.  0.
         12    1    3    3    0    0  0.16521940679E+02  0.32873020296E+02  0.14738371890E+01  0.36820947614E+02  0.00000000000E+00 0. -1.
         11    1    4    4    0    0 -0.27160294402E+02 -0.16114224175E+02  0.14641606137E+01  0.31614768374E+02  0.51100000000E-03 0. -1.
        -11    1    4    4    0    0  0.53411670568E+01 -0.10667944156E+02  0.34934749959E+01  0.12431309901E+02  0.51100000000E-03 0.  1.
        -12    1    4    4    0    0  0.52971866666E+01 -0.60908519651E+01 -0.64314727987E+01  0.10320974111E+02  0.00000000000E+00 0.  1.
</event>
<event>
 8    1  0.3186330E-007  0.9118800E+02  0.7816164E-02  0.1184000E+00
        -11   -1    0    0    0    0  0.00000000000E+00  0.00000000000E+00  0.45593999997E+02  0.45594000000E+02  0.51100000000E-03 0.  1.
         11   -1    0    0    0    0 -0.00000000000E+00 -0.00000000000E+00 -0.45593999997E+02  0.45594000000E+02  0.51100000000E-03 0. -1.
         23    2    1    2    0    0  0.00000000000E+00  0.00000000000E+00  0.35527136788E-14  0.91188000000E+02  0.91188000000E+02 0.  0.
    9900012    2    3    3    0    0  0.14543570773E+02 -0.19559172313E+02  0.27598972143E+02  0.54367082904E+02  0.39999997097E+02 0.  0.
         12    1    3    3    0    0 -0.14543570773E+02  0.19559172313E+02 -0.27598972143E+02  0.36820917096E+02  0.00000000000E+00 0. -1.
         11    1    4    4    0    0  0.12904012407E+01  0.17658569027E+01 -0.44487722567E+01  0.49573138710E+01  0.51100000000E-03 0. -1.
        -11    1    4    4    0    0  0.24112718661E+01 -0.45911719294E+01  0.28732709865E+02  0.29196946898E+02  0.51100000000E-03 0.  1.
        -12    1    4    4    0    0  0.10841897666E+02 -0.16733857287E+02  0.33150345344E+01  0.20212822135E+02  0.00000000000E+00 0.  1.
</event>
<event>
 8    1  0.3186330E-007  0.9118800E+02  0.7816164E-02  0.1184000E+00
        -11   -1    0    0    0    0  0.00000000000E+00  0.00000000000E+00  0.45593999997E+02  0.45594000000E+02  0.51100000000E-03 0.  1.
         11   -1    0    0    0    0 -0.00000000000E+00 -0.00000000000E+00 -0.45593999997E+02  0.45594000000E+02  0.51100000000E-03 0. -1.
         23    2    1    2    0    0 -0.71054273576E-14  0.00000000000E+00  0.88817841970E-15  0.91188000000E+02  0.91188000000E+02 0.  0.
    9900012    2    3    3    0    0  0.34302601410E+02  0.13130099755E+02  0.25908085008E+01  0.54367078342E+02  0.39999986696E+02 0.  0.
         12    1    3    3    0    0 -0.34302601410E+02 -0.13130099755E+02 -0.25908085008E+01  0.36820921658E+02  0.00000000000E+00 0. -1.
         11    1    4    4    0    0  0.74823672922E+01  0.11233318786E+02 -0.79439022892E+01  0.15661381008E+02  0.51100000000E-03 0. -1.
        -11    1    4    4    0    0  0.31878763756E+02  0.65199799266E+00  0.10234199551E+02  0.33487602493E+02  0.51100000000E-03 0.  1.
        -12    1    4    4    0    0 -0.50585296384E+01  0.12447829759E+01  0.30051123884E+00  0.52180948405E+01  0.00000000000E+00 0.  1.
</event>
<event>
 8    1  0.3186330E-007  0.9118800E+02  0.7816164E-02  0.1184000E+00
        -11   -1    0    0    0    0  0.00000000000E+00  0.00000000000E+00  0.45593999997E+02  0.45594000000E+02  0.51100000000E-03 0. -1.
         11   -1    0    0    0    0 -0.00000000000E+00 -0.00000000000E+00 -0.45593999997E+02  0.45594000000E+02  0.51100000000E-03 0.  1.
         23    2    1    2    0    0  0.00000000000E+00  0.00000000000E+00  0.00000000000E+00  0.91188000000E+02  0.91188000000E+02 0.  0.
    9900012    2    3    3    0    0 -0.33731476569E+02  0.11826926981E+02  0.88369463920E+01  0.54367077485E+02  0.39999984742E+02 0.  0.
        -12    1    3    3    0    0  0.33731476569E+02 -0.11826926981E+02 -0.88369463920E+01  0.36820922515E+02  0.00000000000E+00 0.  1.
         11    1    4    4    0    0  0.89093835802E+01  0.30651762378E+01  0.47083396892E+01  0.10532847860E+02  0.51100000000E-03 0.  1.
        -11    1    4    4    0    0 -0.29247845574E+02  0.69690941527E+01  0.39114475328E+01  0.30320029124E+02  0.51100000000E-03 0. -1.
        -12    1    4    4    0    0 -0.13393014575E+02  0.17926565907E+01  0.21715917005E+00  0.13514200500E+02  0.00000000000E+00 0.  1.
</event>
<event>
 8    1  0.3186330E-007  0.9118800E+02  0.7816164E-02  0.1184000E+00
        -11   -1    0    0    0    0  0.00000000000E+00  0.00000000000E+00  0.45593999997E+02  0.45594000000E+02  0.51100000000E-03 0. -1.
         11   -1    0    0    0    0 -0.00000000000E+00 -0.00000000000E+00 -0.45593999997E+02  0.45594000000E+02  0.51100000000E-03 0.  1.
         23    2    1    2    0    0 -0.17763568394E-14  0.22204460493E-15  0.71054273576E-14  0.91188000000E+02  0.91188000000E+02 0.  0.
    9900012    2    3    3    0    0  0.13664041938E+02  0.10948824647E+01  0.34174203160E+02  0.54367068843E+02  0.39999965040E+02 0.  0.
        -12    1    3    3    0    0 -0.13664041938E+02 -0.10948824647E+01 -0.34174203160E+02  0.36820931157E+02  0.00000000000E+00 0.  1.
         11    1    4    4    0    0  0.18469138743E+02 -0.10953038672E+02  0.62425676728E+01  0.22361748444E+02  0.51100000000E-03 0. -1.
        -11    1    4    4    0    0  0.13014517014E+01  0.31645350352E+01  0.21002116621E+01  0.40148409441E+01  0.51100000000E-03 0.  1.
        -12    1    4    4    0    0 -0.61065485057E+01  0.88833861019E+01  0.25831423825E+02  0.27990479455E+02  0.00000000000E+00 0.  1.
</event>
<event>
 8    1  0.3186330E-007  0.9118800E+02  0.7816164E-02  0.1184000E+00
        -11   -1    0    0    0    0  0.00000000000E+00  0.00000000000E+00  0.45593999997E+02  0.45594000000E+02  0.51100000000E-03 0.  1.
         11   -1    0    0    0    0 -0.00000000000E+00 -0.00000000000E+00 -0.45593999997E+02  0.45594000000E+02  0.51100000000E-03 0. -1.
         23    2    1    2    0    0 -0.35527136788E-14 -0.26645352591E-14  0.00000000000E+00  0.91188000000E+02  0.91188000000E+02 0.  0.
    9900012    2    3    3    0    0 -0.22831399475E+02  0.41898747218E+01 -0.28582364138E+02  0.54367090289E+02  0.40000013933E+02 0.  0.
        -12    1    3    3    0    0  0.22831399475E+02 -0.41898747218E+01  0.28582364138E+02  0.36820909711E+02  0.00000000000E+00 0.  1.
         11    1    4    4    0    0 -0.24686567889E+02 -0.90817100326E+01 -0.10283880907E+02  0.28242915891E+02  0.51100000000E-03 0. -1.
        -11    1    4    4    0    0  0.13736236996E+01 -0.17792077299E+01  0.21706986080E+00  0.22582165086E+01  0.51100000000E-03 0.  1.
         12    1    4    4    0    0  0.48154471386E+00  0.15050792484E+02 -0.18515553092E+02  0.23865957890E+02  0.00000000000E+00 0. -1.
</event>
<event>
 8    1  0.3186330E-007  0.9118800E+02  0.7816164E-02  0.1184000E+00
        -11   -1    0    0    0    0  0.00000000000E+00  0.00000000000E+00  0.45593999997E+02  0.45594000000E+02  0.51100000000E-03 0. -1.
         11   -1    0    0    0    0 -0.00000000000E+00 -0.00000000000E+00 -0.45593999997E+02  0.45594000000E+02  0.51100000000E-03 0.  1.
         23    2    1    2    0    0  0.00000000000E+00  0.00000000000E+00 -0.17763568394E-14  0.91188000000E+02  0.91188000000E+02 0.  0.
    9900012    2    3    3    0    0 -0.19173275443E+02  0.27544045988E+02 -0.15148957118E+02  0.54367083901E+02  0.39999999369E+02 0.  0.
        -12    1    3    3    0    0  0.19173275443E+02 -0.27544045988E+02  0.15148957118E+02  0.36820916099E+02  0.00000000000E+00 0.  1.
         11    1    4    4    0    0  0.16308759747E+01  0.43831052015E+01 -0.96688492636E+01  0.10740484812E+02  0.51100000000E-03 0.  1.
        -11    1    4    4    0    0 -0.22388909775E+02  0.25590323634E+02  0.35077054116E+01  0.34182333772E+02  0.51100000000E-03 0. -1.
         12    1    4    4    0    0  0.15847583577E+01 -0.24293828473E+01 -0.89878132658E+01  0.94442653167E+01  0.00000000000E+00 0. -1.
</event>
<event>
 8    1  0.3186330E-007  0.9118800E+02  0.7816164E-02  0.1184000E+00
        -11   -1    0    0    0    0  0.00000000000E+00  0.00000000000E+00  0.45593999997E+02  0.45594000000E+02  0.51100000000E-03 0. -1.
         11   -1    0    0    0    0 -0.00000000000E+00 -0.00000000000E+00 -0.45593999997E+02  0.45594000000E+02  0.51100000000E-03 0.  1.
         23    2    1    2    0    0  0.00000000000E+00  0.00000000000E+00  0.00000000000E+00  0.91188000000E+02  0.91188000000E+02 0.  0.
    9900012    2    3    3    0    0 -0.19788290450E+02  0.20085161939E+01 -0.30986598821E+02  0.54367083625E+02  0.39999998739E+02 0.  0.
         12    1    3    3    0    0  0.19788290450E+02 -0.20085161939E+01  0.30986598821E+02  0.36820916375E+02  0.00000000000E+00 0. -1.
         11    1    4    4    0    0 -0.22149229764E+02  0.26241306547E+01 -0.17519064159E+02  0.28361806185E+02  0.51100000000E-03 0.  1.
        -11    1    4    4    0    0  0.76464914580E+01 -0.17494557641E+01  0.32085301650E+01  0.84749096260E+01  0.51100000000E-03 0. -1.
         12    1    4    4    0    0 -0.52855521440E+01  0.11338413033E+01 -0.16676064827E+02  0.17530367814E+02  0.00000000000E+00 0. -1.
</event>
<event>
 8    1  0.3186330E-007  0.9118800E+02  0.7816164E-02  0.1184000E+00
        -11   -1    0    0    0    0  0.00000000000E+00  0.00000000000E+00  0.45593999997E+02  0.45594000000E+02  0.51100000000E-03 0.  1.
         11   -1    0    0    0    0 -0.00000000000E+00 -0.00000000000E+00 -0.45593999997E+02  0.45594000000E+02  0.51100000000E-03 0. -1.
         23    2    1    2    0    0  0.00000000000E+00 -0.88817841970E-15  0.35527136788E-14  0.91188000000E+02  0.91188000000E+02 0.  0.
    9900012    2    3    3    0    0 -0.25346633104E+02 -0.52574303894E+01  0.26185667819E+02  0.54367060534E+02  0.39999946099E+02 0.  0.
        -12    1    3    3    0    0  0.25346633104E+02  0.52574303894E+01 -0.26185667819E+02  0.36820939466E+02  0.00000000000E+00 0.  1.
         11    1    4    4    0    0  0.81665209548E+01  0.23274537580E+01  0.71326643040E+01  0.11089815410E+02  0.51100000000E-03 0. -1.
        -11    1    4    4    0    0  0.91667544671E-01  0.32890998505E+01  0.31021248072E+01  0.45221410135E+01  0.51100000000E-03 0.  1.
        -12    1    4    4    0    0 -0.33604821604E+02 -0.10873983998E+02  0.15950878708E+02  0.38755104110E+02  0.00000000000E+00 0.  1.
</event>
<event>
 8    1  0.3186330E-007  0.9118800E+02  0.7816164E-02  0.1184000E+00
        -11   -1    0    0    0    0  0.00000000000E+00  0.00000000000E+00  0.45593999997E+02  0.45594000000E+02  0.51100000000E-03 0.  1.
         11   -1    0    0    0    0 -0.00000000000E+00 -0.00000000000E+00 -0.45593999997E+02  0.45594000000E+02  0.51100000000E-03 0. -1.
         23    2    1    2    0    0  0.00000000000E+00  0.00000000000E+00  0.35527136788E-14  0.91188000000E+02  0.91188000000E+02 0.  0.
    9900012    2    3    3    0    0  0.10801895182E+02  0.22123613135E+02  0.27379647721E+02  0.54367077864E+02  0.39999985606E+02 0.  0.
         12    1    3    3    0    0 -0.10801895182E+02 -0.22123613135E+02 -0.27379647721E+02  0.36820922136E+02  0.00000000000E+00 0. -1.
         11    1    4    4    0    0 -0.98934906132E+01  0.18333290661E+02  0.14233103858E+02  0.25230377497E+02  0.51100000000E-03 0. -1.
        -11    1    4    4    0    0  0.65806065328E+01 -0.59336054259E+01  0.46266721727E+01  0.99959067295E+01  0.51100000000E-03 0.  1.
        -12    1    4    4    0    0  0.14114779262E+02  0.97239279001E+01  0.85198716902E+01  0.19140793637E+02  0.00000000000E+00 0.  1.
</event>
<event>
 8    1  0.3186330E-007  0.9118800E+02  0.7816164E-02  0.1184000E+00
        -11   -1    0    0    0    0  0.00000000000E+00  0.00000000000E+00  0.45593999997E+02  0.45594000000E+02  0.51100000000E-03 0.  1.
         11   -1    0    0    0    0 -0.00000000000E+00 -0.00000000000E+00 -0.45593999997E+02  0.45594000000E+02  0.51100000000E-03 0. -1.
         23    2    1    2    0    0  0.00000000000E+00 -0.71054273576E-14 -0.35527136788E-14  0.91188000000E+02  0.91188000000E+02 0.  0.
    9900012    2    3    3    0    0  0.14274085565E+02 -0.30174876647E+02 -0.15540534993E+02  0.54367069441E+02  0.39999966404E+02 0.  0.
        -12    1    3    3    0    0 -0.14274085565E+02  0.30174876647E+02  0.15540534993E+02  0.36820930559E+02  0.00000000000E+00 0.  1.
         11    1    4    4    0    0  0.13868150040E+02 -0.13628309406E+02 -0.24308260277E+02  0.31127928308E+02  0.51100000000E-03 0. -1.
        -11    1    4    4    0    0  0.60767561472E+01 -0.97216048738E+01  0.11098731901E+01  0.11518176303E+02  0.51100000000E-03 0.  1.
        -12    1    4    4    0    0 -0.56708206220E+01 -0.68249623666E+01  0.76578520937E+01  0.11720964829E+02  0.00000000000E+00 0.  1.
</event>
<event>
 8    1  0.3186330E-007  0.9118800E+02  0.7816164E-02  0.1184000E+00
        -11   -1    0    0    0    0  0.00000000000E+00  0.00000000000E+00  0.45593999997E+02  0.45594000000E+02  0.51100000000E-03 0.  1.
         11   -1    0    0    0    0 -0.00000000000E+00 -0.00000000000E+00 -0.45593999997E+02  0.45594000000E+02  0.51100000000E-03 0. -1.
         23    2    1    2    0    0  0.35527136788E-14  0.00000000000E+00 -0.71054273576E-14  0.91188000000E+02  0.91188000000E+02 0.  0.
    9900012    2    3    3    0    0 -0.13320682201E+02  0.34875419714E+01  0.34149304779E+02  0.54367101856E+02  0.40000040301E+02 0.  0.
         12    1    3    3    0    0  0.13320682201E+02 -0.34875419714E+01 -0.34149304779E+02  0.36820898144E+02  0.00000000000E+00 0. -1.
         11    1    4    4    0    0  0.74983619944E+01 -0.36382161344E+01  0.10076626679E+02  0.13076714218E+02  0.51100000000E-03 0. -1.
        -11    1    4    4    0    0 -0.18358518705E+02  0.13160666674E+02  0.26050218045E+02  0.34479736321E+02  0.51100000000E-03 0.  1.
         12    1    4    4    0    0 -0.24605254902E+01 -0.60349085685E+01 -0.19775399457E+01  0.68106513165E+01  0.00000000000E+00 0. -1.
</event>
<event>
 8    1  0.3186330E-007  0.9118800E+02  0.7816164E-02  0.1184000E+00
        -11   -1    0    0    0    0  0.00000000000E+00  0.00000000000E+00  0.45593999997E+02  0.45594000000E+02  0.51100000000E-03 0. -1.
         11   -1    0    0    0    0 -0.00000000000E+00 -0.00000000000E+00 -0.45593999997E+02  0.45594000000E+02  0.51100000000E-03 0.  1.
         23    2    1    2    0    0  0.00000000000E+00  0.00000000000E+00  0.17763568394E-14  0.91188000000E+02  0.91188000000E+02 0.  0.
    9900012    2    3    3    0    0 -0.24704384826E+02 -0.24901518408E+02  0.11197674871E+02  0.54367079707E+02  0.39999989809E+02 0.  0.
         12    1    3    3    0    0  0.24704384826E+02  0.24901518408E+02 -0.11197674871E+02  0.36820920293E+02  0.00000000000E+00 0. -1.
         11    1    4    4    0    0 -0.38940196780E+00 -0.12753969948E+02  0.15191275074E+02  0.19839108396E+02  0.51100000000E-03 0.  1.
        -11    1    4    4    0    0  0.18067812076E+01 -0.89818234666E+00  0.44281672732E+01  0.48661951790E+01  0.51100000000E-03 0. -1.
        -12    1    4    4    0    0 -0.26121764066E+02 -0.11249366113E+02 -0.84217674761E+01  0.29661776132E+02  0.00000000000E+00 0.  1.
</event>
<event>
 8    1  0.3186330E-007  0.9118800E+02  0.7816164E-02  0.1184000E+00
        -11   -1    0    0    0    0  0.00000000000E+00  0.00000000000E+00  0.45593999997E+02  0.45594000000E+02  0.51100000000E-03 0.  1.
         11   -1    0    0    0    0 -0.00000000000E+00 -0.00000000000E+00 -0.45593999997E+02  0.45594000000E+02  0.51100000000E-03 0. -1.
         23    2    1    2    0    0 -0.35527136788E-14  0.00000000000E+00  0.00000000000E+00  0.91188000000E+02  0.91188000000E+02 0.  0.
    9900012    2    3    3    0    0  0.19851136776E+02  0.27698126847E+02  0.13947285504E+02  0.54367073408E+02  0.39999975449E+02 0.  0.
         12    1    3    3    0    0 -0.19851136776E+02 -0.27698126847E+02 -0.13947285504E+02  0.36820926592E+02  0.00000000000E+00 0. -1.
         11    1    4    4    0    0  0.44870850345E+01  0.57525021096E+01  0.16507843999E+02  0.18048105894E+02  0.51100000000E-03 0. -1.
        -11    1    4    4    0    0 -0.18804332111E+01  0.12351072691E+02 -0.91810675344E+01  0.15504097104E+02  0.51100000000E-03 0.  1.
         12    1    4    4    0    0  0.17244484952E+02  0.95945520469E+01  0.66205090402E+01  0.20814870410E+02  0.00000000000E+00 0. -1.
</event>
<event>
 8    1  0.3186330E-007  0.9118800E+02  0.7816164E-02  0.1184000E+00
        -11   -1    0    0    0    0  0.00000000000E+00  0.00000000000E+00  0.45593999997E+02  0.45594000000E+02  0.51100000000E-03 0.  1.
         11   -1    0    0    0    0 -0.00000000000E+00 -0.00000000000E+00 -0.45593999997E+02  0.45594000000E+02  0.51100000000E-03 0. -1.
         23    2    1    2    0    0  0.00000000000E+00  0.00000000000E+00 -0.35527136788E-14  0.91188000000E+02  0.91188000000E+02 0.  0.
    9900012    2    3    3    0    0 -0.29684959366E+02  0.79033566739E+01 -0.20300757853E+02  0.54367073495E+02  0.39999975646E+02 0.  0.
         12    1    3    3    0    0  0.29684959366E+02 -0.79033566739E+01  0.20300757853E+02  0.36820926505E+02  0.00000000000E+00 0. -1.
         11    1    4    4    0    0 -0.17582952398E+02  0.87078502654E+01 -0.20975296813E+02  0.28721941925E+02  0.51100000000E-03 0. -1.
        -11    1    4    4    0    0 -0.70271427879E+01  0.10800217367E+02  0.13854377463E+01  0.12959354496E+02  0.51100000000E-03 0.  1.
        -12    1    4    4    0    0 -0.50748641807E+01 -0.11604710959E+02 -0.71089878663E+00  0.12685777074E+02  0.00000000000E+00 0.  1.
</event>
<event>
 8    1  0.3186330E-007  0.9118800E+02  0.7816164E-02  0.1184000E+00
        -11   -1    0    0    0    0  0.00000000000E+00  0.00000000000E+00  0.45593999997E+02  0.45594000000E+02  0.51100000000E-03 0.  1.
         11   -1    0    0    0    0 -0.00000000000E+00 -0.00000000000E+00 -0.45593999997E+02  0.45594000000E+02  0.51100000000E-03 0. -1.
         23    2    1    2    0    0  0.00000000000E+00  0.00000000000E+00  0.00000000000E+00  0.91188000000E+02  0.91188000000E+02 0.  0.
    9900012    2    3    3    0    0  0.29951526994E+02  0.19401217293E+02  0.90707594463E+01  0.54367083680E+02  0.39999998864E+02 0.  0.
        -12    1    3    3    0    0 -0.29951526994E+02 -0.19401217293E+02 -0.90707594463E+01  0.36820916320E+02  0.00000000000E+00 0.  1.
         11    1    4    4    0    0  0.11115834108E+02 -0.10559230568E+01  0.16160949850E+01  0.11282220734E+02  0.51100000000E-03 0. -1.
        -11    1    4    4    0    0  0.26497578632E+02  0.17800060349E+02  0.11617171462E+02  0.33969434715E+02  0.51100000000E-03 0.  1.
         12    1    4    4    0    0 -0.76618857456E+01  0.26570800000E+01 -0.41625070009E+01  0.91154282312E+01  0.00000000000E+00 0. -1.
</event>
<event>
 8    1  0.3186330E-007  0.9118800E+02  0.7816164E-02  0.1184000E+00
        -11   -1    0    0    0    0  0.00000000000E+00  0.00000000000E+00  0.45593999997E+02  0.45594000000E+02  0.51100000000E-03 0. -1.
         11   -1    0    0    0    0 -0.00000000000E+00 -0.00000000000E+00 -0.45593999997E+02  0.45594000000E+02  0.51100000000E-03 0.  1.
         23    2    1    2    0    0 -0.17763568394E-14  0.00000000000E+00  0.00000000000E+00  0.91188000000E+02  0.91188000000E+02 0.  0.
    9900012    2    3    3    0    0  0.42203520469E+01 -0.35143673046E+02 -0.10143462002E+02  0.54367096318E+02  0.40000027676E+02 0.  0.
         12    1    3    3    0    0 -0.42203520469E+01  0.35143673046E+02  0.10143462002E+02  0.36820903682E+02  0.00000000000E+00 0. -1.
         11    1    4    4    0    0 -0.67633757389E+01 -0.88872035530E+01  0.61252411328E+01  0.12737512221E+02  0.51100000000E-03 0. -1.
        -11    1    4    4    0    0  0.21776670850E+01 -0.20858326758E+02 -0.21514641536E+02  0.30044830333E+02  0.51100000000E-03 0.  1.
        -12    1    4    4    0    0  0.88060607008E+01 -0.53981427352E+01  0.52459384017E+01  0.11584753764E+02  0.00000000000E+00 0.  1.
</event>
<event>
 8    1  0.3186330E-007  0.9118800E+02  0.7816164E-02  0.1184000E+00
        -11   -1    0    0    0    0  0.00000000000E+00  0.00000000000E+00  0.45593999997E+02  0.45594000000E+02  0.51100000000E-03 0. -1.
         11   -1    0    0    0    0 -0.00000000000E+00 -0.00000000000E+00 -0.45593999997E+02  0.45594000000E+02  0.51100000000E-03 0.  1.
         23    2    1    2    0    0 -0.35527136788E-14  0.00000000000E+00  0.00000000000E+00  0.91188000000E+02  0.91188000000E+02 0.  0.
    9900012    2    3    3    0    0  0.30484148351E+02  0.52440612936E+01 -0.19974892080E+02  0.54367084841E+02  0.40000001513E+02 0.  0.
         12    1    3    3    0    0 -0.30484148351E+02 -0.52440612936E+01  0.19974892080E+02  0.36820915159E+02  0.00000000000E+00 0. -1.
         11    1    4    4    0    0  0.79567383527E+01 -0.54261758928E+00 -0.78146783738E+01  0.11165720640E+02  0.51100000000E-03 0.  1.
        -11    1    4    4    0    0  0.74214941644E+01  0.16967475613E+02  0.33671176134E+01  0.18823158226E+02  0.51100000000E-03 0. -1.
         12    1    4    4    0    0  0.15105915833E+02 -0.11180796730E+02 -0.15527331319E+02  0.24378205976E+02  0.00000000000E+00 0. -1.
</event>
<event>
 8    1  0.3186330E-007  0.9118800E+02  0.7816164E-02  0.1184000E+00
        -11   -1    0    0    0    0  0.00000000000E+00  0.00000000000E+00  0.45593999997E+02  0.45594000000E+02  0.51100000000E-03 0.  1.
         11   -1    0    0    0    0 -0.00000000000E+00 -0.00000000000E+00 -0.45593999997E+02  0.45594000000E+02  0.51100000000E-03 0. -1.
         23    2    1    2    0    0  0.00000000000E+00  0.11102230246E-15  0.35527136788E-14  0.91188000000E+02  0.91188000000E+02 0.  0.
    9900012    2    3    3    0    0  0.19738888009E+02  0.44397780448E+00 -0.31079881657E+02  0.54367083934E+02  0.39999999445E+02 0.  0.
        -12    1    3    3    0    0 -0.19738888009E+02 -0.44397780448E+00  0.31079881657E+02  0.36820916066E+02  0.00000000000E+00 0.  1.
         11    1    4    4    0    0  0.71566589717E+00 -0.13877788536E+01 -0.55660012802E+01  0.57808717626E+01  0.51100000000E-03 0. -1.
        -11    1    4    4    0    0  0.79467010164E+01  0.60027624761E+01 -0.33074695326E+02  0.34541550132E+02  0.51100000000E-03 0.  1.
        -12    1    4    4    0    0  0.11076521095E+02 -0.41710058181E+01  0.75608149488E+01  0.14044662039E+02  0.00000000000E+00 0.  1.
</event>
<event>
 8    1  0.3186330E-007  0.9118800E+02  0.7816164E-02  0.1184000E+00
        -11   -1    0    0    0    0  0.00000000000E+00  0.00000000000E+00  0.45593999997E+02  0.45594000000E+02  0.51100000000E-03 0.  1.
         11   -1    0    0    0    0 -0.00000000000E+00 -0.00000000000E+00 -0.45593999997E+02  0.45594000000E+02  0.51100000000E-03 0. -1.
         23    2    1    2    0    0  0.00000000000E+00 -0.35527136788E-14  0.00000000000E+00  0.91188000000E+02  0.91188000000E+02 0.  0.
    9900012    2    3    3    0    0 -0.17689011936E+02 -0.30398665524E+02 -0.10899351185E+02  0.54367138180E+02  0.40000123109E+02 0.  0.
         12    1    3    3    0    0  0.17689011936E+02  0.30398665524E+02  0.10899351185E+02  0.36820861820E+02  0.00000000000E+00 0. -1.
         11    1    4    4    0    0 -0.20511406229E+01 -0.17143488123E+02 -0.13856588122E+02  0.22138459692E+02  0.51100000000E-03 0. -1.
        -11    1    4    4    0    0 -0.10020279184E+02 -0.18178210901E+02 -0.49627178155E+01  0.21342022277E+02  0.51100000000E-03 0.  1.
        -12    1    4    4    0    0 -0.56175921295E+01  0.49230335007E+01  0.79199547525E+01  0.10886656211E+02  0.00000000000E+00 0.  1.
</event>
<event>
 8    1  0.3186330E-007  0.9118800E+02  0.7816164E-02  0.1184000E+00
        -11   -1    0    0    0    0  0.00000000000E+00  0.00000000000E+00  0.45593999997E+02  0.45594000000E+02  0.51100000000E-03 0.  1.
         11   -1    0    0    0    0 -0.00000000000E+00 -0.00000000000E+00 -0.45593999997E+02  0.45594000000E+02  0.51100000000E-03 0. -1.
         23    2    1    2    0    0  0.17763568394E-14 -0.71054273576E-14  0.00000000000E+00  0.91188000000E+02  0.91188000000E+02 0.  0.
    9900012    2    3    3    0    0  0.10618816425E+02 -0.26572602137E+02 -0.23171475866E+02  0.54367085557E+02  0.40000003145E+02 0.  0.
        -12    1    3    3    0    0 -0.10618816425E+02  0.26572602137E+02  0.23171475866E+02  0.36820914443E+02  0.00000000000E+00 0.  1.
         11    1    4    4    0    0  0.93142435652E-01  0.49758627349E+01 -0.25536637962E+01  0.55936646767E+01  0.51100000000E-03 0. -1.
        -11    1    4    4    0    0  0.50378028326E+01 -0.32357187937E+02 -0.62046311634E+01  0.33329634212E+02  0.51100000000E-03 0.  1.
         12    1    4    4    0    0  0.54878711569E+01  0.80872306492E+00 -0.14413180906E+02  0.15443786669E+02  0.00000000000E+00 0. -1.
</event>
<event>
 8    1  0.3186330E-007  0.9118800E+02  0.7816164E-02  0.1184000E+00
        -11   -1    0    0    0    0  0.00000000000E+00  0.00000000000E+00  0.45593999997E+02  0.45594000000E+02  0.51100000000E-03 0. -1.
         11   -1    0    0    0    0 -0.00000000000E+00 -0.00000000000E+00 -0.45593999997E+02  0.45594000000E+02  0.51100000000E-03 0.  1.
         23    2    1    2    0    0  0.00000000000E+00  0.00000000000E+00  0.00000000000E+00  0.91188000000E+02  0.91188000000E+02 0.  0.
    9900012    2    3    3    0    0 -0.34743371149E+02 -0.90160522523E+01 -0.82092754184E+01  0.54367038037E+02  0.39999894813E+02 0.  0.
        -12    1    3    3    0    0  0.34743371149E+02  0.90160522523E+01  0.82092754184E+01  0.36820961963E+02  0.00000000000E+00 0.  1.
         11    1    4    4    0    0 -0.15315993250E+02  0.90676357153E+01 -0.16705401928E+00  0.17799707132E+02  0.51100000000E-03 0.  1.
        -11    1    4    4    0    0 -0.12894001132E+02  0.32146326487E+01 -0.43703218681E+01  0.13988882791E+02  0.51100000000E-03 0. -1.
        -12    1    4    4    0    0 -0.65333767676E+01 -0.21298320616E+02 -0.36718995310E+01  0.22578448114E+02  0.00000000000E+00 0.  1.
</event>
<event>
 8    1  0.3186330E-007  0.9118800E+02  0.7816164E-02  0.1184000E+00
        -11   -1    0    0    0    0  0.00000000000E+00  0.00000000000E+00  0.45593999997E+02  0.45594000000E+02  0.51100000000E-03 0. -1.
         11   -1    0    0    0    0 -0.00000000000E+00 -0.00000000000E+00 -0.45593999997E+02  0.45594000000E+02  0.51100000000E-03 0.  1.
         23    2    1    2    0    0  0.35527136788E-14  0.00000000000E+00  0.35527136788E-14  0.91188000000E+02  0.91188000000E+02 0.  0.
    9900012    2    3    3    0    0  0.31373568410E+02 -0.39236725124E+01  0.18870113711E+02  0.54367120159E+02  0.40000082027E+02 0.  0.
        -12    1    3    3    0    0 -0.31373568410E+02  0.39236725124E+01 -0.18870113711E+02  0.36820879841E+02  0.00000000000E+00 0.  1.
         11    1    4    4    0    0 -0.28791068129E+01 -0.59600947381E+01  0.34155377171E+01  0.74483477017E+01  0.51100000000E-03 0. -1.
        -11    1    4    4    0    0  0.25368988346E+02 -0.61604252192E+01 -0.14393293206E+01  0.26145899826E+02  0.51100000000E-03 0.  1.
        -12    1    4    4    0    0  0.88836868775E+01  0.81968474449E+01  0.16893905315E+02  0.20772872631E+02  0.00000000000E+00 0.  1.
</event>
<event>
 8    1  0.3186330E-007  0.9118800E+02  0.7816164E-02  0.1184000E+00
        -11   -1    0    0    0    0  0.00000000000E+00  0.00000000000E+00  0.45593999997E+02  0.45594000000E+02  0.51100000000E-03 0.  1.
         11   -1    0    0    0    0 -0.00000000000E+00 -0.00000000000E+00 -0.45593999997E+02  0.45594000000E+02  0.51100000000E-03 0. -1.
         23    2    1    2    0    0 -0.55511151231E-15 -0.35527136788E-14 -0.71054273576E-14  0.91188000000E+02  0.91188000000E+02 0.  0.
    9900012    2    3    3    0    0  0.65157595449E+00  0.25684152733E+02  0.26375738296E+02  0.54367084429E+02  0.40000000572E+02 0.  0.
         12    1    3    3    0    0 -0.65157595449E+00 -0.25684152733E+02 -0.26375738296E+02  0.36820915571E+02  0.00000000000E+00 0. -1.
         11    1    4    4    0    0  0.11941768895E+02  0.26037941051E+02  0.11347531816E+02  0.30811470220E+02  0.51100000000E-03 0. -1.
        -11    1    4    4    0    0 -0.10238452138E+02 -0.62609804481E+01  0.86140147238E+01  0.14772509207E+02  0.51100000000E-03 0.  1.
        -12    1    4    4    0    0 -0.10517408026E+01  0.59071921296E+01  0.64141917562E+01  0.87831050009E+01  0.00000000000E+00 0.  1.
</event>
<event>
 8    1  0.3186330E-007  0.9118800E+02  0.7816164E-02  0.1184000E+00
        -11   -1    0    0    0    0  0.00000000000E+00  0.00000000000E+00  0.45593999997E+02  0.45594000000E+02  0.51100000000E-03 0. -1.
         11   -1    0    0    0    0 -0.00000000000E+00 -0.00000000000E+00 -0.45593999997E+02  0.45594000000E+02  0.51100000000E-03 0.  1.
         23    2    1    2    0    0  0.00000000000E+00  0.00000000000E+00  0.00000000000E+00  0.91188000000E+02  0.91188000000E+02 0.  0.
    9900012    2    3    3    0    0  0.24028194744E+02  0.59688239992E+01 -0.27254334693E+02  0.54367085262E+02  0.40000002472E+02 0.  0.
         12    1    3    3    0    0 -0.24028194744E+02 -0.59688239992E+01  0.27254334693E+02  0.36820914738E+02  0.00000000000E+00 0. -1.
         11    1    4    4    0    0  0.10613507708E+02  0.76020039138E+01  0.69699402111E+00  0.13073745075E+02  0.51100000000E-03 0. -1.
        -11    1    4    4    0    0  0.14710344863E+02 -0.71626738309E+01 -0.42269651641E+01  0.16898679746E+02  0.51100000000E-03 0.  1.
         12    1    4    4    0    0 -0.12956578267E+01  0.55294939163E+01 -0.23724363550E+02  0.24394660440E+02  0.00000000000E+00 0. -1.
</event>
<event>
 8    1  0.3186330E-007  0.9118800E+02  0.7816164E-02  0.1184000E+00
        -11   -1    0    0    0    0  0.00000000000E+00  0.00000000000E+00  0.45593999997E+02  0.45594000000E+02  0.51100000000E-03 0. -1.
         11   -1    0    0    0    0 -0.00000000000E+00 -0.00000000000E+00 -0.45593999997E+02  0.45594000000E+02  0.51100000000E-03 0.  1.
         23    2    1    2    0    0  0.00000000000E+00  0.44408920985E-15  0.00000000000E+00  0.91188000000E+02  0.91188000000E+02 0.  0.
    9900012    2    3    3    0    0 -0.40060653366E+01 -0.84910542453E+00 -0.36592486950E+02  0.54367086911E+02  0.40000006231E+02 0.  0.
         12    1    3    3    0    0  0.40060653366E+01  0.84910542453E+00  0.36592486950E+02  0.36820913089E+02  0.00000000000E+00 0. -1.
         11    1    4    4    0    0  0.27568711612E+01  0.41601257528E+01 -0.30895244287E+02  0.31295736206E+02  0.51100000000E-03 0. -1.
        -11    1    4    4    0    0 -0.10290409348E+02 -0.71897432182E+00 -0.11218190573E+02  0.15239988472E+02  0.51100000000E-03 0.  1.
         12    1    4    4    0    0  0.35274728503E+01 -0.42902568555E+01  0.55209479099E+01  0.78313622327E+01  0.00000000000E+00 0. -1.
</event>
<event>
 8    1  0.3186330E-007  0.9118800E+02  0.7816164E-02  0.1184000E+00
        -11   -1    0    0    0    0  0.00000000000E+00  0.00000000000E+00  0.45593999997E+02  0.45594000000E+02  0.51100000000E-03 0. -1.
         11   -1    0    0    0    0 -0.00000000000E+00 -0.00000000000E+00 -0.45593999997E+02  0.45594000000E+02  0.51100000000E-03 0.  1.
         23    2    1    2    0    0  0.00000000000E+00  0.00000000000E+00  0.00000000000E+00  0.91188000000E+02  0.91188000000E+02 0.  0.
    9900012    2    3    3    0    0 -0.17240638834E+02  0.27963390058E+02  0.16630965607E+02  0.54367084368E+02  0.40000000434E+02 0.  0.
        -12    1    3    3    0    0  0.17240638834E+02 -0.27963390058E+02 -0.16630965607E+02  0.36820915632E+02  0.00000000000E+00 0.  1.
         11    1    4    4    0    0  0.22425145794E+01  0.41446616132E+01  0.13962133805E+02  0.14735951689E+02  0.51100000000E-03 0. -1.
        -11    1    4    4    0    0  0.63097057416E+00  0.18268264619E+02 -0.15438116837E+01  0.18344235357E+02  0.51100000000E-03 0.  1.
        -12    1    4    4    0    0 -0.20114123988E+02  0.55504638264E+01  0.42126434860E+01  0.21286897323E+02  0.00000000000E+00 0.  1.
</event>
<event>
 8    1  0.3186330E-007  0.9118800E+02  0.7816164E-02  0.1184000E+00
        -11   -1    0    0    0    0  0.00000000000E+00  0.00000000000E+00  0.45593999997E+02  0.45594000000E+02  0.51100000000E-03 0. -1.
         11   -1    0    0    0    0 -0.00000000000E+00 -0.00000000000E+00 -0.45593999997E+02  0.45594000000E+02  0.51100000000E-03 0.  1.
         23    2    1    2    0    0 -0.17763568394E-14  0.00000000000E+00  0.00000000000E+00  0.91188000000E+02  0.91188000000E+02 0.  0.
    9900012    2    3    3    0    0  0.11387444602E+02 -0.22975458920E+02 -0.26424123179E+02  0.54367083486E+02  0.39999998422E+02 0.  0.
         12    1    3    3    0    0 -0.11387444602E+02  0.22975458920E+02  0.26424123179E+02  0.36820916514E+02  0.00000000000E+00 0. -1.
         11    1    4    4    0    0 -0.36262869115E+01 -0.49259931367E+01 -0.10463515558E+02  0.12120252606E+02  0.51100000000E-03 0. -1.
        -11    1    4    4    0    0 -0.28574130660E+01  0.71262236950E+01 -0.61948836555E+01  0.98653158767E+01  0.51100000000E-03 0.  1.
         12    1    4    4    0    0  0.17871144579E+02 -0.25175689479E+02 -0.97657239663E+01  0.32381515003E+02  0.00000000000E+00 0. -1.
</event>
<event>
 8    1  0.3186330E-007  0.9118800E+02  0.7816164E-02  0.1184000E+00
        -11   -1    0    0    0    0  0.00000000000E+00  0.00000000000E+00  0.45593999997E+02  0.45594000000E+02  0.51100000000E-03 0.  1.
         11   -1    0    0    0    0 -0.00000000000E+00 -0.00000000000E+00 -0.45593999997E+02  0.45594000000E+02  0.51100000000E-03 0. -1.
         23    2    1    2    0    0  0.35527136788E-14  0.00000000000E+00  0.00000000000E+00  0.91188000000E+02  0.91188000000E+02 0.  0.
    9900012    2    3    3    0    0  0.22613861581E+02 -0.22877578412E+02  0.17916732067E+02  0.54367087225E+02  0.40000006947E+02 0.  0.
        -12    1    3    3    0    0 -0.22613861581E+02  0.22877578412E+02 -0.17916732067E+02  0.36820912775E+02  0.00000000000E+00 0.  1.
         11    1    4    4    0    0  0.19447797800E+02 -0.26763716664E+01  0.32036035082E+01  0.19890773747E+02  0.51100000000E-03 0. -1.
        -11    1    4    4    0    0  0.17334857862E+01  0.47034452242E+01 -0.83499281047E+00  0.50817893701E+01  0.51100000000E-03 0.  1.
         12    1    4    4    0    0  0.14325779956E+01 -0.24904651970E+02  0.15548121369E+02  0.29394524108E+02  0.00000000000E+00 0. -1.
</event>
<event>
 8    1  0.3186330E-007  0.9118800E+02  0.7816164E-02  0.1184000E+00
        -11   -1    0    0    0    0  0.00000000000E+00  0.00000000000E+00  0.45593999997E+02  0.45594000000E+02  0.51100000000E-03 0. -1.
         11   -1    0    0    0    0 -0.00000000000E+00 -0.00000000000E+00 -0.45593999997E+02  0.45594000000E+02  0.51100000000E-03 0.  1.
         23    2    1    2    0    0  0.00000000000E+00 -0.35527136788E-14  0.44408920985E-15  0.91188000000E+02  0.91188000000E+02 0.  0.
    9900012    2    3    3    0    0 -0.28965180519E+02 -0.22480354773E+02  0.33808432884E+01  0.54367107363E+02  0.40000052856E+02 0.  0.
         12    1    3    3    0    0  0.28965180519E+02  0.22480354773E+02 -0.33808432884E+01  0.36820892637E+02  0.00000000000E+00 0. -1.
         11    1    4    4    0    0 -0.73590350422E+01  0.68947950575E+01 -0.10326631753E+02  0.14433742386E+02  0.51100000000E-03 0. -1.
        -11    1    4    4    0    0 -0.20876866208E+01 -0.75151033510E+01  0.53531448700E+01  0.94599880584E+01  0.51100000000E-03 0.  1.
         12    1    4    4    0    0 -0.19518458856E+02 -0.21860046480E+02  0.83543301717E+01  0.30473376919E+02  0.00000000000E+00 0. -1.
</event>
<event>
 8    1  0.3186330E-007  0.9118800E+02  0.7816164E-02  0.1184000E+00
        -11   -1    0    0    0    0  0.00000000000E+00  0.00000000000E+00  0.45593999997E+02  0.45594000000E+02  0.51100000000E-03 0.  1.
         11   -1    0    0    0    0 -0.00000000000E+00 -0.00000000000E+00 -0.45593999997E+02  0.45594000000E+02  0.51100000000E-03 0. -1.
         23    2    1    2    0    0  0.00000000000E+00  0.00000000000E+00  0.00000000000E+00  0.91188000000E+02  0.91188000000E+02 0.  0.
    9900012    2    3    3    0    0  0.63597341227E+01 -0.10427275725E+02 -0.34736220579E+02  0.54367091303E+02  0.40000016244E+02 0.  0.
        -12    1    3    3    0    0 -0.63597341227E+01  0.10427275725E+02  0.34736220579E+02  0.36820908697E+02  0.00000000000E+00 0.  1.
         11    1    4    4    0    0 -0.77273306035E+01  0.69983887774E+01 -0.10671040291E+02  0.14918451156E+02  0.51100000000E-03 0. -1.
        -11    1    4    4    0    0  0.81192251226E+01 -0.11806482770E+02 -0.32426286335E+00  0.14332480548E+02  0.51100000000E-03 0.  1.
        -12    1    4    4    0    0  0.59678396037E+01 -0.56191817317E+01 -0.23740917424E+02  0.25116159599E+02  0.00000000000E+00 0.  1.
</event>
<event>
 8    1  0.3186330E-007  0.9118800E+02  0.7816164E-02  0.1184000E+00
        -11   -1    0    0    0    0  0.00000000000E+00  0.00000000000E+00  0.45593999997E+02  0.45594000000E+02  0.51100000000E-03 0.  1.
         11   -1    0    0    0    0 -0.00000000000E+00 -0.00000000000E+00 -0.45593999997E+02  0.45594000000E+02  0.51100000000E-03 0. -1.
         23    2    1    2    0    0  0.35527136788E-14 -0.35527136788E-14  0.35527136788E-14  0.91188000000E+02  0.91188000000E+02 0.  0.
    9900012    2    3    3    0    0 -0.15377232818E+02  0.27947281374E+02 -0.18392155284E+02  0.54367065719E+02  0.39999957919E+02 0.  0.
        -12    1    3    3    0    0  0.15377232818E+02 -0.27947281374E+02  0.18392155284E+02  0.36820934281E+02  0.00000000000E+00 0.  1.
         11    1    4    4    0    0 -0.83391189281E+01  0.25176886639E+02 -0.11991391100E+02  0.29106871802E+02  0.51100000000E-03 0. -1.
        -11    1    4    4    0    0  0.21066797370E+01 -0.87812737603E+01 -0.53346375174E+01  0.10488432965E+02  0.51100000000E-03 0.  1.
         12    1    4    4    0    0 -0.91447936274E+01  0.11551668496E+02 -0.10661266660E+01  0.14771760951E+02  0.00000000000E+00 0. -1.
</event>
<event>
 8    1  0.3186330E-007  0.9118800E+02  0.7816164E-02  0.1184000E+00
        -11   -1    0    0    0    0  0.00000000000E+00  0.00000000000E+00  0.45593999997E+02  0.45594000000E+02  0.51100000000E-03 0. -1.
         11   -1    0    0    0    0 -0.00000000000E+00 -0.00000000000E+00 -0.45593999997E+02  0.45594000000E+02  0.51100000000E-03 0.  1.
         23    2    1    2    0    0 -0.35527136788E-14  0.00000000000E+00  0.66613381478E-15  0.91188000000E+02  0.91188000000E+02 0.  0.
    9900012    2    3    3    0    0 -0.21642273767E+02  0.29759037345E+02  0.13387072420E+01  0.54367075859E+02  0.39999981036E+02 0.  0.
         12    1    3    3    0    0  0.21642273767E+02 -0.29759037345E+02 -0.13387072420E+01  0.36820924141E+02  0.00000000000E+00 0. -1.
         11    1    4    4    0    0 -0.46183876175E+01  0.32238053104E+01  0.13693116422E+02  0.14806210267E+02  0.51100000000E-03 0. -1.
        -11    1    4    4    0    0 -0.18657614984E+02  0.20891027618E+02 -0.25434521356E+01  0.28124913882E+02  0.51100000000E-03 0.  1.
        -12    1    4    4    0    0  0.16337288348E+01  0.56442044168E+01 -0.98109570440E+01  0.11435951710E+02  0.00000000000E+00 0.  1.
</event>
<event>
 8    1  0.3186330E-007  0.9118800E+02  0.7816164E-02  0.1184000E+00
        -11   -1    0    0    0    0  0.00000000000E+00  0.00000000000E+00  0.45593999997E+02  0.45594000000E+02  0.51100000000E-03 0.  1.
         11   -1    0    0    0    0 -0.00000000000E+00 -0.00000000000E+00 -0.45593999997E+02  0.45594000000E+02  0.51100000000E-03 0. -1.
         23    2    1    2    0    0 -0.88817841970E-15 -0.17763568394E-14  0.00000000000E+00  0.91188000000E+02  0.91188000000E+02 0.  0.
    9900012    2    3    3    0    0 -0.75361362519E+01  0.14151575795E+02  0.33146930829E+02  0.54367089222E+02  0.40000011500E+02 0.  0.
         12    1    3    3    0    0  0.75361362519E+01 -0.14151575795E+02 -0.33146930829E+02  0.36820910778E+02  0.00000000000E+00 0. -1.
         11    1    4    4    0    0 -0.56691750044E+01  0.20289438410E+02  0.18038281055E+02  0.27734102471E+02  0.51100000000E-03 0. -1.
        -11    1    4    4    0    0  0.93342736611E+00  0.47569639553E+00  0.18612420673E+02  0.18641882342E+02  0.51100000000E-03 0.  1.
         12    1    4    4    0    0 -0.28003886135E+01 -0.66135590101E+01 -0.35037708981E+01  0.79911044088E+01  0.00000000000E+00 0. -1.
</event>
<event>
 8    1  0.3186330E-007  0.9118800E+02  0.7816164E-02  0.1184000E+00
        -11   -1    0    0    0    0  0.00000000000E+00  0.00000000000E+00  0.45593999997E+02  0.45594000000E+02  0.51100000000E-03 0.  1.
         11   -1    0    0    0    0 -0.00000000000E+00 -0.00000000000E+00 -0.45593999997E+02  0.45594000000E+02  0.51100000000E-03 0. -1.
         23    2    1    2    0    0  0.00000000000E+00  0.00000000000E+00  0.00000000000E+00  0.91188000000E+02  0.91188000000E+02 0.  0.
    9900012    2    3    3    0    0 -0.32638709097E+02  0.11975201313E+02  0.12127919232E+02  0.54367120015E+02  0.40000081697E+02 0.  0.
        -12    1    3    3    0    0  0.32638709097E+02 -0.11975201313E+02 -0.12127919232E+02  0.36820879985E+02  0.00000000000E+00 0.  1.
         11    1    4    4    0    0 -0.15541548334E+02 -0.95917122499E+01 -0.32672695008E+01  0.18553051468E+02  0.51100000000E-03 0. -1.
        -11    1    4    4    0    0 -0.15570176087E+01  0.11442855053E+02  0.12541919881E+02  0.17048841314E+02  0.51100000000E-03 0.  1.
         12    1    4    4    0    0 -0.15540143154E+02  0.10124058510E+02  0.28532688514E+01  0.18765227233E+02  0.00000000000E+00 0. -1.
</event>
<event>
 8    1  0.3186330E-007  0.9118800E+02  0.7816164E-02  0.1184000E+00
        -11   -1    0    0    0    0  0.00000000000E+00  0.00000000000E+00  0.45593999997E+02  0.45594000000E+02  0.51100000000E-03 0. -1.
         11   -1    0    0    0    0 -0.00000000000E+00 -0.00000000000E+00 -0.45593999997E+02  0.45594000000E+02  0.51100000000E-03 0.  1.
         23    2    1    2    0    0  0.00000000000E+00  0.00000000000E+00 -0.71054273576E-14  0.91188000000E+02  0.91188000000E+02 0.  0.
    9900012    2    3    3    0    0 -0.75900389372E+01  0.90983302375E+01  0.34862543348E+02  0.54367010974E+02  0.39999833117E+02 0.  0.
        -12    1    3    3    0    0  0.75900389372E+01 -0.90983302375E+01 -0.34862543348E+02  0.36820989026E+02  0.00000000000E+00 0.  1.
         11    1    4    4    0    0  0.12308929810E-01  0.19897146437E+02  0.21096238399E+02  0.28999101067E+02  0.51100000000E-03 0. -1.
        -11    1    4    4    0    0 -0.23008595381E+00  0.15764973542E+01  0.10470304847E+02  0.10590824675E+02  0.51100000000E-03 0.  1.
        -12    1    4    4    0    0 -0.73722619132E+01 -0.12375313554E+02  0.32960001021E+01  0.14777085232E+02  0.00000000000E+00 0.  1.
</event>
<event>
 8    1  0.3186330E-007  0.9118800E+02  0.7816164E-02  0.1184000E+00
        -11   -1    0    0    0    0  0.00000000000E+00  0.00000000000E+00  0.45593999997E+02  0.45594000000E+02  0.51100000000E-03 0. -1.
         11   -1    0    0    0    0 -0.00000000000E+00 -0.00000000000E+00 -0.45593999997E+02  0.45594000000E+02  0.51100000000E-03 0.  1.
         23    2    1    2    0    0  0.77715611724E-15  0.00000000000E+00  0.71054273576E-14  0.91188000000E+02  0.91188000000E+02 0.  0.
    9900012    2    3    3    0    0  0.26566390698E+00  0.18465134790E+02  0.31855107577E+02  0.54367086664E+02  0.40000005668E+02 0.  0.
        -12    1    3    3    0    0 -0.26566390698E+00 -0.18465134790E+02 -0.31855107577E+02  0.36820913336E+02  0.00000000000E+00 0.  1.
         11    1    4    4    0    0 -0.85826933467E+01 -0.49804427707E+01  0.19876146578E+02  0.22215504459E+02  0.51100000000E-03 0. -1.
        -11    1    4    4    0    0  0.18232989884E+01  0.17725518417E+02  0.90207159005E+00  0.17841865255E+02  0.51100000000E-03 0.  1.
        -12    1    4    4    0    0  0.70250582653E+01  0.57200591429E+01  0.11076889409E+02  0.14309716951E+02  0.00000000000E+00 0.  1.
</event>
<event>
 8    1  0.3186330E-007  0.9118800E+02  0.7816164E-02  0.1184000E+00
        -11   -1    0    0    0    0  0.00000000000E+00  0.00000000000E+00  0.45593999997E+02  0.45594000000E+02  0.51100000000E-03 0. -1.
         11   -1    0    0    0    0 -0.00000000000E+00 -0.00000000000E+00 -0.45593999997E+02  0.45594000000E+02  0.51100000000E-03 0.  1.
         23    2    1    2    0    0  0.00000000000E+00 -0.10658141036E-13  0.35527136788E-14  0.91188000000E+02  0.91188000000E+02 0.  0.
    9900012    2    3    3    0    0 -0.12624992184E+02  0.24879160169E+02 -0.24029498896E+02  0.54367083993E+02  0.39999999579E+02 0.  0.
         12    1    3    3    0    0  0.12624992184E+02 -0.24879160169E+02  0.24029498896E+02  0.36820916007E+02  0.00000000000E+00 0. -1.
         11    1    4    4    0    0 -0.23184339539E+00  0.30469845349E+01 -0.40815596138E+01  0.50987248659E+01  0.51100000000E-03 0. -1.
        -11    1    4    4    0    0 -0.49838666190E+01  0.31509471985E+02 -0.18794429919E+02  0.37025887531E+02  0.51100000000E-03 0.  1.
         12    1    4    4    0    0 -0.74092821699E+01 -0.96772963506E+01 -0.11535093637E+01  0.12242471596E+02  0.00000000000E+00 0. -1.
</event>
<event>
 8    1  0.3186330E-007  0.9118800E+02  0.7816164E-02  0.1184000E+00
        -11   -1    0    0    0    0  0.00000000000E+00  0.00000000000E+00  0.45593999997E+02  0.45594000000E+02  0.51100000000E-03 0.  1.
         11   -1    0    0    0    0 -0.00000000000E+00 -0.00000000000E+00 -0.45593999997E+02  0.45594000000E+02  0.51100000000E-03 0. -1.
         23    2    1    2    0    0  0.00000000000E+00  0.00000000000E+00  0.00000000000E+00  0.91188000000E+02  0.91188000000E+02 0.  0.
    9900012    2    3    3    0    0 -0.21878344999E+02 -0.21297202823E+02  0.20580241623E+02  0.54367093259E+02  0.40000020703E+02 0.  0.
         12    1    3    3    0    0  0.21878344999E+02  0.21297202823E+02 -0.20580241623E+02  0.36820906741E+02  0.00000000000E+00 0. -1.
         11    1    4    4    0    0 -0.34558102376E+01  0.50497600189E+01 -0.20831402767E+01  0.64639132359E+01  0.51100000000E-03 0. -1.
        -11    1    4    4    0    0 -0.15210233843E+02 -0.25519853592E+02  0.52406681371E+01  0.30167511394E+02  0.51100000000E-03 0.  1.
        -12    1    4    4    0    0 -0.32123009180E+01 -0.82710925002E+00  0.17422713762E+02  0.17735668630E+02  0.00000000000E+00 0.  1.
</event>
<event>
 8    1  0.3186330E-007  0.9118800E+02  0.7816164E-02  0.1184000E+00
        -11   -1    0    0    0    0  0.00000000000E+00  0.00000000000E+00  0.45593999997E+02  0.45594000000E+02  0.51100000000E-03 0.  1.
         11   -1    0    0    0    0 -0.00000000000E+00 -0.00000000000E+00 -0.45593999997E+02  0.45594000000E+02  0.51100000000E-03 0. -1.
         23    2    1    2    0    0  0.00000000000E+00  0.00000000000E+00  0.35527136788E-14  0.91188000000E+02  0.91188000000E+02 0.  0.
    9900012    2    3    3    0    0 -0.23460110462E+02 -0.18757213143E+02 -0.21297180579E+02  0.54367085720E+02  0.40000003516E+02 0.  0.
         12    1    3    3    0    0  0.23460110462E+02  0.18757213143E+02  0.21297180579E+02  0.36820914280E+02  0.00000000000E+00 0. -1.
         11    1    4    4    0    0 -0.45716846731E+01  0.63583039574E+01 -0.73442689872E+01  0.10736229188E+02  0.51100000000E-03 0. -1.
        -11    1    4    4    0    0  0.60115297715E+01 -0.91132203166E+01 -0.77519054373E+01  0.13389597190E+02  0.51100000000E-03 0.  1.
        -12    1    4    4    0    0 -0.24899955561E+02 -0.16002296784E+02 -0.62010061543E+01  0.30241259342E+02  0.00000000000E+00 0.  1.
</event>
<event>
 8    1  0.3186330E-007  0.9118800E+02  0.7816164E-02  0.1184000E+00
        -11   -1    0    0    0    0  0.00000000000E+00  0.00000000000E+00  0.45593999997E+02  0.45594000000E+02  0.51100000000E-03 0. -1.
         11   -1    0    0    0    0 -0.00000000000E+00 -0.00000000000E+00 -0.45593999997E+02  0.45594000000E+02  0.51100000000E-03 0.  1.
         23    2    1    2    0    0  0.00000000000E+00  0.00000000000E+00  0.00000000000E+00  0.91188000000E+02  0.91188000000E+02 0.  0.
    9900012    2    3    3    0    0  0.98728591463E+01  0.13120163374E+02  0.32957066716E+02  0.54367078214E+02  0.39999986405E+02 0.  0.
        -12    1    3    3    0    0 -0.98728591463E+01 -0.13120163374E+02 -0.32957066716E+02  0.36820921786E+02  0.00000000000E+00 0.  1.
         11    1    4    4    0    0 -0.52281974924E+01  0.50180968289E+01 -0.14458672788E+00  0.72481894558E+01  0.51100000000E-03 0. -1.
        -11    1    4    4    0    0  0.82809721701E+00  0.85885615535E+01 -0.23130854873E+01  0.89330565481E+01  0.51100000000E-03 0.  1.
         12    1    4    4    0    0  0.14272959422E+02 -0.48649500881E+00  0.35414738931E+02  0.38185832210E+02  0.00000000000E+00 0. -1.
</event>
<event>
 8    1  0.3186330E-007  0.9118800E+02  0.7816164E-02  0.1184000E+00
        -11   -1    0    0    0    0  0.00000000000E+00  0.00000000000E+00  0.45593999997E+02  0.45594000000E+02  0.51100000000E-03 0.  1.
         11   -1    0    0    0    0 -0.00000000000E+00 -0.00000000000E+00 -0.45593999997E+02  0.45594000000E+02  0.51100000000E-03 0. -1.
         23    2    1    2    0    0 -0.71054273576E-14  0.88817841970E-15  0.22204460493E-15  0.91188000000E+02  0.91188000000E+02 0.  0.
    9900012    2    3    3    0    0  0.36386338610E+02  0.56010806750E+01  0.66568299748E+00  0.54367070136E+02  0.39999967989E+02 0.  0.
        -12    1    3    3    0    0 -0.36386338610E+02 -0.56010806750E+01 -0.66568299748E+00  0.36820929864E+02  0.00000000000E+00 0.  1.
         11    1    4    4    0    0  0.28787220529E+02  0.55572755544E+01  0.12186705944E+02  0.31750640614E+02  0.51100000000E-03 0.  1.
        -11    1    4    4    0    0  0.12473453144E+02  0.40896231121E+01 -0.78518225739E+01  0.15295854619E+02  0.51100000000E-03 0. -1.
        -12    1    4    4    0    0 -0.48743350630E+01 -0.40458179915E+01 -0.36692003726E+01  0.73205749024E+01  0.00000000000E+00 0.  1.
</event>
<event>
 8    1  0.3186330E-007  0.9118800E+02  0.7816164E-02  0.1184000E+00
        -11   -1    0    0    0    0  0.00000000000E+00  0.00000000000E+00  0.45593999997E+02  0.45594000000E+02  0.51100000000E-03 0. -1.
         11   -1    0    0    0    0 -0.00000000000E+00 -0.00000000000E+00 -0.45593999997E+02  0.45594000000E+02  0.51100000000E-03 0.  1.
         23    2    1    2    0    0  0.35527136788E-14  0.00000000000E+00  0.17763568394E-14  0.91188000000E+02  0.91188000000E+02 0.  0.
    9900012    2    3    3    0    0  0.17420600837E+02  0.31753499881E+02 -0.66345619791E+01  0.54367088810E+02  0.40000010559E+02 0.  0.
         12    1    3    3    0    0 -0.17420600837E+02 -0.31753499881E+02  0.66345619791E+01  0.36820911190E+02  0.00000000000E+00 0. -1.
         11    1    4    4    0    0  0.75298407364E+00  0.18538665363E+01  0.98432319393E+01  0.10044551828E+02  0.51100000000E-03 0. -1.
        -11    1    4    4    0    0  0.22085381861E+02  0.27257398341E+02 -0.13393208839E+02  0.37551403430E+02  0.51100000000E-03 0.  1.
        -12    1    4    4    0    0 -0.54177650976E+01  0.26422350041E+01 -0.30845850792E+01  0.67711335521E+01  0.00000000000E+00 0.  1.
</event>
<event>
 8    1  0.3186330E-007  0.9118800E+02  0.7816164E-02  0.1184000E+00
        -11   -1    0    0    0    0  0.00000000000E+00  0.00000000000E+00  0.45593999997E+02  0.45594000000E+02  0.51100000000E-03 0. -1.
         11   -1    0    0    0    0 -0.00000000000E+00 -0.00000000000E+00 -0.45593999997E+02  0.45594000000E+02  0.51100000000E-03 0.  1.
         23    2    1    2    0    0  0.00000000000E+00  0.22204460493E-15  0.17763568394E-14  0.91188000000E+02  0.91188000000E+02 0.  0.
    9900012    2    3    3    0    0 -0.34914595171E+02  0.96059800054E+00 -0.11654544528E+02  0.54367080503E+02  0.39999991622E+02 0.  0.
        -12    1    3    3    0    0  0.34914595171E+02 -0.96059800054E+00  0.11654544528E+02  0.36820919497E+02  0.00000000000E+00 0.  1.
         11    1    4    4    0    0 -0.48690412972E+01 -0.50857777869E+01  0.76770102276E+01  0.10416774220E+02  0.51100000000E-03 0.  1.
        -11    1    4    4    0    0 -0.26171486200E+02  0.12994190480E+02 -0.20792226149E+02  0.35862408517E+02  0.51100000000E-03 0. -1.
         12    1    4    4    0    0 -0.38740676738E+01 -0.69478146929E+01  0.14606713935E+01  0.80878977656E+01  0.00000000000E+00 0. -1.
</event>
<event>
 8    1  0.3186330E-007  0.9118800E+02  0.7816164E-02  0.1184000E+00
        -11   -1    0    0    0    0  0.00000000000E+00  0.00000000000E+00  0.45593999997E+02  0.45594000000E+02  0.51100000000E-03 0. -1.
         11   -1    0    0    0    0 -0.00000000000E+00 -0.00000000000E+00 -0.45593999997E+02  0.45594000000E+02  0.51100000000E-03 0.  1.
         23    2    1    2    0    0  0.71054273576E-14  0.44408920985E-15 -0.17763568394E-14  0.91188000000E+02  0.91188000000E+02 0.  0.
    9900012    2    3    3    0    0  0.34693246645E+02 -0.17231011144E+01 -0.12214297571E+02  0.54367088749E+02  0.40000010422E+02 0.  0.
         12    1    3    3    0    0 -0.34693246645E+02  0.17231011144E+01  0.12214297571E+02  0.36820911251E+02  0.00000000000E+00 0. -1.
         11    1    4    4    0    0  0.28264732505E+02  0.61344450491E+01  0.60026521590E+00  0.28928996495E+02  0.51100000000E-03 0. -1.
        -11    1    4    4    0    0  0.64402592654E+01 -0.22853320352E+00 -0.15940219577E+02  0.17193596693E+02  0.51100000000E-03 0.  1.
         12    1    4    4    0    0 -0.11745125446E-01 -0.76290129600E+01  0.31256567900E+01  0.82444955613E+01  0.00000000000E+00 0. -1.
</event>
<event>
 8    1  0.3186330E-007  0.9118800E+02  0.7816164E-02  0.1184000E+00
        -11   -1    0    0    0    0  0.00000000000E+00  0.00000000000E+00  0.45593999997E+02  0.45594000000E+02  0.51100000000E-03 0. -1.
         11   -1    0    0    0    0 -0.00000000000E+00 -0.00000000000E+00 -0.45593999997E+02  0.45594000000E+02  0.51100000000E-03 0.  1.
         23    2    1    2    0    0 -0.35527136788E-14  0.71054273576E-14 -0.17763568394E-14  0.91188000000E+02  0.91188000000E+02 0.  0.
    9900012    2    3    3    0    0 -0.26504434364E+02  0.25075260922E+02 -0.49525310775E+01  0.54367064170E+02  0.39999954389E+02 0.  0.
         12    1    3    3    0    0  0.26504434364E+02 -0.25075260922E+02  0.49525310775E+01  0.36820935830E+02  0.00000000000E+00 0. -1.
         11    1    4    4    0    0 -0.33488854524E+01 -0.38536888994E+01  0.12012929786E+02  0.13052832421E+02  0.51100000000E-03 0. -1.
        -11    1    4    4    0    0 -0.19442521108E+02  0.21386454401E+02 -0.10663348334E+02  0.30807451319E+02  0.51100000000E-03 0.  1.
         12    1    4    4    0    0 -0.37130278045E+01  0.75424954207E+01 -0.63021125304E+01  0.10506780430E+02  0.00000000000E+00 0. -1.
</event>
<event>
 8    1  0.3186330E-007  0.9118800E+02  0.7816164E-02  0.1184000E+00
        -11   -1    0    0    0    0  0.00000000000E+00  0.00000000000E+00  0.45593999997E+02  0.45594000000E+02  0.51100000000E-03 0.  1.
         11   -1    0    0    0    0 -0.00000000000E+00 -0.00000000000E+00 -0.45593999997E+02  0.45594000000E+02  0.51100000000E-03 0. -1.
         23    2    1    2    0    0  0.00000000000E+00  0.35527136788E-14 -0.35527136788E-14  0.91188000000E+02  0.91188000000E+02 0.  0.
    9900012    2    3    3    0    0 -0.16276289620E+02 -0.17749138452E+02  0.27853851118E+02  0.54366993201E+02  0.39999792599E+02 0.  0.
         12    1    3    3    0    0  0.16276289620E+02  0.17749138452E+02 -0.27853851118E+02  0.36821006799E+02  0.00000000000E+00 0. -1.
         11    1    4    4    0    0 -0.13894707641E+01 -0.17566377039E+02  0.22061220044E+02  0.28234830642E+02  0.51100000000E-03 0. -1.
        -11    1    4    4    0    0 -0.65665861241E+01 -0.88855162247E+00  0.13328173729E+02  0.14884548785E+02  0.51100000000E-03 0.  1.
         12    1    4    4    0    0 -0.83202327315E+01  0.70579020973E+00 -0.75355426542E+01  0.11247613774E+02  0.00000000000E+00 0. -1.
</event>
<event>
 8    1  0.3186330E-007  0.9118800E+02  0.7816164E-02  0.1184000E+00
        -11   -1    0    0    0    0  0.00000000000E+00  0.00000000000E+00  0.45593999997E+02  0.45594000000E+02  0.51100000000E-03 0. -1.
         11   -1    0    0    0    0 -0.00000000000E+00 -0.00000000000E+00 -0.45593999997E+02  0.45594000000E+02  0.51100000000E-03 0.  1.
         23    2    1    2    0    0  0.71054273576E-14 -0.35527136788E-14  0.00000000000E+00  0.91188000000E+02  0.91188000000E+02 0.  0.
    9900012    2    3    3    0    0 -0.24753788085E+02  0.26306962617E+02 -0.71395370833E+01  0.54367091586E+02  0.40000016888E+02 0.  0.
         12    1    3    3    0    0  0.24753788085E+02 -0.26306962617E+02  0.71395370833E+01  0.36820908414E+02  0.00000000000E+00 0. -1.
         11    1    4    4    0    0 -0.16422125577E+02  0.72093386875E+01 -0.59126861831E+01  0.18884401790E+02  0.51100000000E-03 0. -1.
        -11    1    4    4    0    0 -0.13726223625E+02  0.23589578703E+02 -0.46283440957E+01  0.27682106273E+02  0.51100000000E-03 0.  1.
        -12    1    4    4    0    0  0.53945611176E+01 -0.44919547734E+01  0.34014931955E+01  0.78005835229E+01  0.00000000000E+00 0.  1.
</event>
<event>
 8    1  0.3186330E-007  0.9118800E+02  0.7816164E-02  0.1184000E+00
        -11   -1    0    0    0    0  0.00000000000E+00  0.00000000000E+00  0.45593999997E+02  0.45594000000E+02  0.51100000000E-03 0.  1.
         11   -1    0    0    0    0 -0.00000000000E+00 -0.00000000000E+00 -0.45593999997E+02  0.45594000000E+02  0.51100000000E-03 0. -1.
         23    2    1    2    0    0  0.17763568394E-14 -0.35527136788E-14  0.00000000000E+00  0.91188000000E+02  0.91188000000E+02 0.  0.
    9900012    2    3    3    0    0 -0.10705520236E+02  0.19299812167E+02 -0.29473502054E+02  0.54367105979E+02  0.40000049700E+02 0.  0.
        -12    1    3    3    0    0  0.10705520236E+02 -0.19299812167E+02  0.29473502054E+02  0.36820894021E+02  0.00000000000E+00 0.  1.
         11    1    4    4    0    0 -0.17748512187E+00  0.17760363867E+01  0.14448751811E+01  0.22964038768E+01  0.51100000000E-03 0. -1.
        -11    1    4    4    0    0 -0.18167673298E+01  0.27471832789E+02 -0.26270743123E+02  0.38054621070E+02  0.51100000000E-03 0.  1.
         12    1    4    4    0    0 -0.87112677840E+01 -0.99480570087E+01 -0.46476341122E+01  0.14016081032E+02  0.00000000000E+00 0. -1.
</event>
<event>
 8    1  0.3186330E-007  0.9118800E+02  0.7816164E-02  0.1184000E+00
        -11   -1    0    0    0    0  0.00000000000E+00  0.00000000000E+00  0.45593999997E+02  0.45594000000E+02  0.51100000000E-03 0.  1.
         11   -1    0    0    0    0 -0.00000000000E+00 -0.00000000000E+00 -0.45593999997E+02  0.45594000000E+02  0.51100000000E-03 0. -1.
         23    2    1    2    0    0  0.35527136788E-14  0.00000000000E+00 -0.35527136788E-14  0.91188000000E+02  0.91188000000E+02 0.  0.
    9900012    2    3    3    0    0  0.17856791486E+02  0.16929302961E+02 -0.27391864733E+02  0.54367074502E+02  0.39999977943E+02 0.  0.
        -12    1    3    3    0    0 -0.17856791486E+02 -0.16929302961E+02  0.27391864733E+02  0.36820925498E+02  0.00000000000E+00 0.  1.
         11    1    4    4    0    0  0.47501756536E+01 -0.53699678613E+01 -0.17933116329E+02  0.19313140219E+02  0.51100000000E-03 0. -1.
        -11    1    4    4    0    0  0.12607657355E+02  0.15936309939E+02 -0.16038408582E+02  0.25887246832E+02  0.51100000000E-03 0.  1.
        -12    1    4    4    0    0  0.49895847779E+00  0.63629608837E+01  0.65796601779E+01  0.91666874512E+01  0.00000000000E+00 0.  1.
</event>
<event>
 8    1  0.3186330E-007  0.9118800E+02  0.7816164E-02  0.1184000E+00
        -11   -1    0    0    0    0  0.00000000000E+00  0.00000000000E+00  0.45593999997E+02  0.45594000000E+02  0.51100000000E-03 0. -1.
         11   -1    0    0    0    0 -0.00000000000E+00 -0.00000000000E+00 -0.45593999997E+02  0.45594000000E+02  0.51100000000E-03 0.  1.
         23    2    1    2    0    0  0.00000000000E+00  0.00000000000E+00 -0.17763568394E-14  0.91188000000E+02  0.91188000000E+02 0.  0.
    9900012    2    3    3    0    0 -0.33705899067E+02 -0.11518442311E+02  0.93283870582E+01  0.54367069127E+02  0.39999965689E+02 0.  0.
        -12    1    3    3    0    0  0.33705899067E+02  0.11518442311E+02 -0.93283870582E+01  0.36820930873E+02  0.00000000000E+00 0.  1.
         11    1    4    4    0    0  0.34430090618E+01 -0.18263926433E+01 -0.33086463565E+01  0.51124517074E+01  0.51100000000E-03 0. -1.
        -11    1    4    4    0    0 -0.13499503846E+02 -0.13004911043E+02  0.16611185617E+02  0.25045873975E+02  0.51100000000E-03 0.  1.
         12    1    4    4    0    0 -0.23649404283E+02  0.33128613749E+01 -0.39741522023E+01  0.24208743445E+02  0.00000000000E+00 0. -1.
</event>
<event>
 8    1  0.3186330E-007  0.9118800E+02  0.7816164E-02  0.1184000E+00
        -11   -1    0    0    0    0  0.00000000000E+00  0.00000000000E+00  0.45593999997E+02  0.45594000000E+02  0.51100000000E-03 0. -1.
         11   -1    0    0    0    0 -0.00000000000E+00 -0.00000000000E+00 -0.45593999997E+02  0.45594000000E+02  0.51100000000E-03 0.  1.
         23    2    1    2    0    0  0.00000000000E+00  0.00000000000E+00  0.35527136788E-14  0.91188000000E+02  0.91188000000E+02 0.  0.
    9900012    2    3    3    0    0  0.20157240392E+02  0.13965042107E+02  0.27467132402E+02  0.54367080625E+02  0.39999991900E+02 0.  0.
        -12    1    3    3    0    0 -0.20157240392E+02 -0.13965042107E+02 -0.27467132402E+02  0.36820919375E+02  0.00000000000E+00 0.  1.
         11    1    4    4    0    0  0.14162690671E+02  0.16038770308E+02  0.21534592479E+02  0.30357250098E+02  0.51100000000E-03 0. -1.
        -11    1    4    4    0    0 -0.38095083045E+01  0.28989483072E+01 -0.60721678744E+01  0.77322362719E+01  0.51100000000E-03 0.  1.
        -12    1    4    4    0    0  0.98040580259E+01 -0.49726765079E+01  0.12004707797E+02  0.16277594255E+02  0.00000000000E+00 0.  1.
</event>
<event>
 8    1  0.3186330E-007  0.9118800E+02  0.7816164E-02  0.1184000E+00
        -11   -1    0    0    0    0  0.00000000000E+00  0.00000000000E+00  0.45593999997E+02  0.45594000000E+02  0.51100000000E-03 0.  1.
         11   -1    0    0    0    0 -0.00000000000E+00 -0.00000000000E+00 -0.45593999997E+02  0.45594000000E+02  0.51100000000E-03 0. -1.
         23    2    1    2    0    0  0.00000000000E+00  0.44408920985E-15  0.00000000000E+00  0.91188000000E+02  0.91188000000E+02 0.  0.
    9900012    2    3    3    0    0  0.29462490273E+02 -0.23819261468E+01 -0.21956061729E+02  0.54367074538E+02  0.39999978024E+02 0.  0.
        -12    1    3    3    0    0 -0.29462490273E+02  0.23819261468E+01  0.21956061729E+02  0.36820925462E+02  0.00000000000E+00 0.  1.
         11    1    4    4    0    0  0.30069693185E+02 -0.59888575245E+01 -0.14544728458E+02  0.33935261733E+02  0.51100000000E-03 0. -1.
        -11    1    4    4    0    0  0.32651668958E+01  0.96638311794E+01 -0.83493517050E+01  0.13181905100E+02  0.51100000000E-03 0.  1.
         12    1    4    4    0    0 -0.38723698083E+01 -0.60568998017E+01  0.93801843439E+00  0.72499077045E+01  0.00000000000E+00 0. -1.
</event>
<event>
 8    1  0.3186330E-007  0.9118800E+02  0.7816164E-02  0.1184000E+00
        -11   -1    0    0    0    0  0.00000000000E+00  0.00000000000E+00  0.45593999997E+02  0.45594000000E+02  0.51100000000E-03 0. -1.
         11   -1    0    0    0    0 -0.00000000000E+00 -0.00000000000E+00 -0.45593999997E+02  0.45594000000E+02  0.51100000000E-03 0.  1.
         23    2    1    2    0    0 -0.18873791419E-14  0.35527136788E-14  0.35527136788E-14  0.91188000000E+02  0.91188000000E+02 0.  0.
    9900012    2    3    3    0    0 -0.73534029405E+00 -0.23006450114E+02 -0.28739209938E+02  0.54367086648E+02  0.40000005632E+02 0.  0.
         12    1    3    3    0    0  0.73534029405E+00  0.23006450114E+02  0.28739209938E+02  0.36820913352E+02  0.00000000000E+00 0. -1.
         11    1    4    4    0    0  0.76874595606E+01 -0.69966394008E+01 -0.26694384285E+02  0.28646817450E+02  0.51100000000E-03 0. -1.
        -11    1    4    4    0    0  0.11804060282E+00 -0.95745391980E+01  0.68806528706E+01  0.11791060963E+02  0.51100000000E-03 0.  1.
        -12    1    4    4    0    0 -0.85408404575E+01 -0.64352715157E+01 -0.89254785235E+01  0.13929208236E+02  0.00000000000E+00 0.  1.
</event>
<event>
 8    1  0.3186330E-007  0.9118800E+02  0.7816164E-02  0.1184000E+00
        -11   -1    0    0    0    0  0.00000000000E+00  0.00000000000E+00  0.45593999997E+02  0.45594000000E+02  0.51100000000E-03 0.  1.
         11   -1    0    0    0    0 -0.00000000000E+00 -0.00000000000E+00 -0.45593999997E+02  0.45594000000E+02  0.51100000000E-03 0. -1.
         23    2    1    2    0    0 -0.35527136788E-14  0.17763568394E-14  0.00000000000E+00  0.91188000000E+02  0.91188000000E+02 0.  0.
    9900012    2    3    3    0    0 -0.16430690267E+02  0.11037343776E+02 -0.31048421723E+02  0.54366877913E+02  0.39999529776E+02 0.  0.
        -12    1    3    3    0    0  0.16430690267E+02 -0.11037343776E+02  0.31048421723E+02  0.36821122087E+02  0.00000000000E+00 0.  1.
         11    1    4    4    0    0 -0.84291270271E+01  0.10635738784E+02  0.22469590137E+01  0.13755651456E+02  0.51100000000E-03 0. -1.
        -11    1    4    4    0    0  0.70601880776E+01  0.30542198399E+00 -0.53439274997E+01  0.88598588964E+01  0.51100000000E-03 0.  1.
         12    1    4    4    0    0 -0.15061751317E+02  0.96183008180E-01 -0.27951453236E+02  0.31751367560E+02  0.00000000000E+00 0. -1.
</event>
<event>
 8    1  0.3186330E-007  0.9118800E+02  0.7816164E-02  0.1184000E+00
        -11   -1    0    0    0    0  0.00000000000E+00  0.00000000000E+00  0.45593999997E+02  0.45594000000E+02  0.51100000000E-03 0. -1.
         11   -1    0    0    0    0 -0.00000000000E+00 -0.00000000000E+00 -0.45593999997E+02  0.45594000000E+02  0.51100000000E-03 0.  1.
         23    2    1    2    0    0  0.17763568394E-14  0.00000000000E+00 -0.35527136788E-14  0.91188000000E+02  0.91188000000E+02 0.  0.
    9900012    2    3    3    0    0 -0.89465462988E+01 -0.19359832232E+02  0.30015579622E+02  0.54367098127E+02  0.40000031800E+02 0.  0.
        -12    1    3    3    0    0  0.89465462988E+01  0.19359832232E+02 -0.30015579622E+02  0.36820901873E+02  0.00000000000E+00 0.  1.
         11    1    4    4    0    0 -0.93772951937E+01 -0.60189564469E+01  0.35635856283E+01  0.11698745431E+02  0.51100000000E-03 0. -1.
        -11    1    4    4    0    0 -0.10547387400E+02 -0.43884540872E+01 -0.13123698340E+01  0.11499053226E+02  0.51100000000E-03 0.  1.
         12    1    4    4    0    0  0.10978136295E+02 -0.89524216977E+01  0.27764363827E+02  0.31169299471E+02  0.00000000000E+00 0. -1.
</event>
<event>
 8    1  0.3186330E-007  0.9118800E+02  0.7816164E-02  0.1184000E+00
        -11   -1    0    0    0    0  0.00000000000E+00  0.00000000000E+00  0.45593999997E+02  0.45594000000E+02  0.51100000000E-03 0.  1.
         11   -1    0    0    0    0 -0.00000000000E+00 -0.00000000000E+00 -0.45593999997E+02  0.45594000000E+02  0.51100000000E-03 0. -1.
         23    2    1    2    0    0  0.00000000000E+00  0.35527136788E-14  0.00000000000E+00  0.91188000000E+02  0.91188000000E+02 0.  0.
    9900012    2    3    3    0    0  0.23728596545E+02 -0.27557151039E+02 -0.57738114936E+01  0.54367085202E+02  0.40000002336E+02 0.  0.
        -12    1    3    3    0    0 -0.23728596545E+02  0.27557151039E+02  0.57738114936E+01  0.36820914798E+02  0.00000000000E+00 0.  1.
         11    1    4    4    0    0  0.15027527823E+01  0.55200520314E+01  0.18270460707E+00  0.57238642183E+01  0.51100000000E-03 0. -1.
        -11    1    4    4    0    0 -0.67390857172E+00 -0.20081315253E+02  0.40114444862E+01  0.20489144985E+02  0.51100000000E-03 0.  1.
         12    1    4    4    0    0  0.22899752335E+02 -0.12995887817E+02 -0.99679605868E+01  0.28154075999E+02  0.00000000000E+00 0. -1.
</event>
<event>
 8    1  0.3186330E-007  0.9118800E+02  0.7816164E-02  0.1184000E+00
        -11   -1    0    0    0    0  0.00000000000E+00  0.00000000000E+00  0.45593999997E+02  0.45594000000E+02  0.51100000000E-03 0.  1.
         11   -1    0    0    0    0 -0.00000000000E+00 -0.00000000000E+00 -0.45593999997E+02  0.45594000000E+02  0.51100000000E-03 0. -1.
         23    2    1    2    0    0  0.88817841970E-15  0.00000000000E+00  0.00000000000E+00  0.91188000000E+02  0.91188000000E+02 0.  0.
    9900012    2    3    3    0    0 -0.52065284247E+01  0.27421367094E+02  0.24015412555E+02  0.54367090835E+02  0.40000015177E+02 0.  0.
         12    1    3    3    0    0  0.52065284247E+01 -0.27421367094E+02 -0.24015412555E+02  0.36820909165E+02  0.00000000000E+00 0. -1.
         11    1    4    4    0    0 -0.14718803342E+02  0.88831969611E+01 -0.49880096391E+01  0.17900687151E+02  0.51100000000E-03 0. -1.
        -11    1    4    4    0    0  0.68260224773E+01  0.87148827831E+01  0.10055848685E+02  0.14955395609E+02  0.51100000000E-03 0.  1.
         12    1    4    4    0    0  0.26862524400E+01  0.98232873501E+01  0.18947573509E+02  0.21511008075E+02  0.00000000000E+00 0. -1.
</event>
<event>
 8    1  0.3186330E-007  0.9118800E+02  0.7816164E-02  0.1184000E+00
        -11   -1    0    0    0    0  0.00000000000E+00  0.00000000000E+00  0.45593999997E+02  0.45594000000E+02  0.51100000000E-03 0.  1.
         11   -1    0    0    0    0 -0.00000000000E+00 -0.00000000000E+00 -0.45593999997E+02  0.45594000000E+02  0.51100000000E-03 0. -1.
         23    2    1    2    0    0  0.00000000000E+00  0.00000000000E+00  0.00000000000E+00  0.91188000000E+02  0.91188000000E+02 0.  0.
    9900012    2    3    3    0    0 -0.30839980542E+02 -0.17665296784E+02 -0.96233703031E+01  0.54367131375E+02  0.40000107596E+02 0.  0.
         12    1    3    3    0    0  0.30839980542E+02  0.17665296784E+02  0.96233703031E+01  0.36820868625E+02  0.00000000000E+00 0. -1.
         11    1    4    4    0    0  0.18187203405E+01 -0.14763467346E+02 -0.90553964513E+01  0.17414589197E+02  0.51100000000E-03 0. -1.
        -11    1    4    4    0    0 -0.25552190298E+02 -0.61213500476E+01 -0.65993164369E+01  0.27091259349E+02  0.51100000000E-03 0.  1.
         12    1    4    4    0    0 -0.71065105843E+01  0.32195206100E+01  0.60313425851E+01  0.98612828284E+01  0.00000000000E+00 0. -1.
</event>
<event>
 8    1  0.3186330E-007  0.9118800E+02  0.7816164E-02  0.1184000E+00
        -11   -1    0    0    0    0  0.00000000000E+00  0.00000000000E+00  0.45593999997E+02  0.45594000000E+02  0.51100000000E-03 0. -1.
         11   -1    0    0    0    0 -0.00000000000E+00 -0.00000000000E+00 -0.45593999997E+02  0.45594000000E+02  0.51100000000E-03 0.  1.
         23    2    1    2    0    0  0.00000000000E+00  0.44408920985E-14  0.00000000000E+00  0.91188000000E+02  0.91188000000E+02 0.  0.
    9900012    2    3    3    0    0  0.34441790562E+02 -0.60925198763E+01  0.11507606146E+02  0.54367072055E+02  0.39999972363E+02 0.  0.
        -12    1    3    3    0    0 -0.34441790562E+02  0.60925198763E+01 -0.11507606146E+02  0.36820927945E+02  0.00000000000E+00 0.  1.
         11    1    4    4    0    0  0.49430755427E+01  0.55650300676E+01  0.42727541345E+01  0.85825394627E+01  0.51100000000E-03 0. -1.
        -11    1    4    4    0    0 -0.29771441084E+01  0.60167232003E+01 -0.30989844853E+01  0.73937845663E+01  0.51100000000E-03 0.  1.
        -12    1    4    4    0    0  0.32475859127E+02 -0.17674273144E+02  0.10333836497E+02  0.38390748026E+02  0.00000000000E+00 0.  1.
</event>
<event>
 8    1  0.3186330E-007  0.9118800E+02  0.7816164E-02  0.1184000E+00
        -11   -1    0    0    0    0  0.00000000000E+00  0.00000000000E+00  0.45593999997E+02  0.45594000000E+02  0.51100000000E-03 0.  1.
         11   -1    0    0    0    0 -0.00000000000E+00 -0.00000000000E+00 -0.45593999997E+02  0.45594000000E+02  0.51100000000E-03 0. -1.
         23    2    1    2    0    0  0.17763568394E-14  0.35527136788E-14  0.35527136788E-14  0.91188000000E+02  0.91188000000E+02 0.  0.
    9900012    2    3    3    0    0 -0.43878447648E+01  0.29947581329E+02  0.20968289576E+02  0.54367082346E+02  0.39999995825E+02 0.  0.
         12    1    3    3    0    0  0.43878447648E+01 -0.29947581329E+02 -0.20968289576E+02  0.36820917654E+02  0.00000000000E+00 0. -1.
         11    1    4    4    0    0 -0.23276252624E+01  0.97701171072E+00  0.35261919093E+01  0.43366370481E+01  0.51100000000E-03 0. -1.
        -11    1    4    4    0    0  0.15097403262E+02  0.24817437362E+02  0.13011651482E+02  0.31829857949E+02  0.51100000000E-03 0.  1.
         12    1    4    4    0    0 -0.17157622765E+02  0.41531322559E+01  0.44304461842E+01  0.18200587349E+02  0.00000000000E+00 0. -1.
</event>
<event>
 8    1  0.3186330E-007  0.9118800E+02  0.7816164E-02  0.1184000E+00
        -11   -1    0    0    0    0  0.00000000000E+00  0.00000000000E+00  0.45593999997E+02  0.45594000000E+02  0.51100000000E-03 0. -1.
         11   -1    0    0    0    0 -0.00000000000E+00 -0.00000000000E+00 -0.45593999997E+02  0.45594000000E+02  0.51100000000E-03 0.  1.
         23    2    1    2    0    0 -0.35527136788E-14  0.30531133177E-15  0.00000000000E+00  0.91188000000E+02  0.91188000000E+02 0.  0.
    9900012    2    3    3    0    0 -0.29348289244E+02  0.84447848110E-01 -0.22236235989E+02  0.54367090126E+02  0.40000013561E+02 0.  0.
         12    1    3    3    0    0  0.29348289244E+02 -0.84447848110E-01  0.22236235989E+02  0.36820909874E+02  0.00000000000E+00 0. -1.
         11    1    4    4    0    0 -0.87347646494E+01 -0.15915748092E+02 -0.36346831641E-01  0.18155122477E+02  0.51100000000E-03 0. -1.
        -11    1    4    4    0    0 -0.17564047090E+02  0.14451126068E+02 -0.12558089584E+02  0.25981462797E+02  0.51100000000E-03 0.  1.
         12    1    4    4    0    0 -0.30494775045E+01  0.15490698723E+01 -0.96417995737E+01  0.10230504853E+02  0.00000000000E+00 0. -1.
</event>
<event>
 8    1  0.3186330E-007  0.9118800E+02  0.7816164E-02  0.1184000E+00
        -11   -1    0    0    0    0  0.00000000000E+00  0.00000000000E+00  0.45593999997E+02  0.45594000000E+02  0.51100000000E-03 0.  1.
         11   -1    0    0    0    0 -0.00000000000E+00 -0.00000000000E+00 -0.45593999997E+02  0.45594000000E+02  0.51100000000E-03 0. -1.
         23    2    1    2    0    0  0.00000000000E+00  0.00000000000E+00  0.00000000000E+00  0.91188000000E+02  0.91188000000E+02 0.  0.
    9900012    2    3    3    0    0  0.25342398469E+02 -0.48505313800E+01 -0.26267855951E+02  0.54367284756E+02  0.40000457255E+02 0.  0.
        -12    1    3    3    0    0 -0.25342398469E+02  0.48505313800E+01  0.26267855951E+02  0.36820715244E+02  0.00000000000E+00 0.  1.
         11    1    4    4    0    0 -0.35342510141E+01 -0.15302149938E+02 -0.12417891211E+02  0.20021257337E+02  0.51100000000E-03 0.  1.
        -11    1    4    4    0    0  0.18794374138E+02  0.10060582731E+02 -0.99996961517E+01  0.23546501811E+02  0.51100000000E-03 0. -1.
        -12    1    4    4    0    0  0.10082275346E+02  0.39103582653E+00 -0.38502685881E+01  0.10799525608E+02  0.00000000000E+00 0.  1.
</event>
<event>
 8    1  0.3186330E-007  0.9118800E+02  0.7816164E-02  0.1184000E+00
        -11   -1    0    0    0    0  0.00000000000E+00  0.00000000000E+00  0.45593999997E+02  0.45594000000E+02  0.51100000000E-03 0.  1.
         11   -1    0    0    0    0 -0.00000000000E+00 -0.00000000000E+00 -0.45593999997E+02  0.45594000000E+02  0.51100000000E-03 0. -1.
         23    2    1    2    0    0  0.71054273576E-14  0.17763568394E-14  0.00000000000E+00  0.91188000000E+02  0.91188000000E+02 0.  0.
    9900012    2    3    3    0    0  0.33947222139E+02 -0.13580599187E+02 -0.43512662299E+01  0.54367080904E+02  0.39999992538E+02 0.  0.
         12    1    3    3    0    0 -0.33947222139E+02  0.13580599187E+02  0.43512662299E+01  0.36820919096E+02  0.00000000000E+00 0. -1.
         11    1    4    4    0    0 -0.38837565433E+01  0.99178566221E+00  0.36915678461E+01  0.54493006075E+01  0.51100000000E-03 0. -1.
        -11    1    4    4    0    0  0.27807155659E+02 -0.18416132101E+02 -0.14523835349E+02  0.36377652768E+02  0.51100000000E-03 0.  1.
        -12    1    4    4    0    0  0.10023823024E+02  0.38437472521E+01  0.64810012729E+01  0.12540127529E+02  0.00000000000E+00 0.  1.
</event>
<event>
 8    1  0.3186330E-007  0.9118800E+02  0.7816164E-02  0.1184000E+00
        -11   -1    0    0    0    0  0.00000000000E+00  0.00000000000E+00  0.45593999997E+02  0.45594000000E+02  0.51100000000E-03 0.  1.
         11   -1    0    0    0    0 -0.00000000000E+00 -0.00000000000E+00 -0.45593999997E+02  0.45594000000E+02  0.51100000000E-03 0. -1.
         23    2    1    2    0    0 -0.17763568394E-14  0.00000000000E+00  0.35527136788E-14  0.91188000000E+02  0.91188000000E+02 0.  0.
    9900012    2    3    3    0    0 -0.15403386285E+02 -0.23365534666E+02  0.23928371500E+02  0.54367089067E+02  0.40000011147E+02 0.  0.
         12    1    3    3    0    0  0.15403386285E+02  0.23365534666E+02 -0.23928371500E+02  0.36820910933E+02  0.00000000000E+00 0. -1.
         11    1    4    4    0    0 -0.13610085038E+02  0.14346695373E+01  0.17756372117E+02  0.22418328270E+02  0.51100000000E-03 0. -1.
        -11    1    4    4    0    0  0.83533509356E+01 -0.14334968116E+02  0.15814549612E+01  0.16666456816E+02  0.51100000000E-03 0.  1.
        -12    1    4    4    0    0 -0.10146652183E+02 -0.10465236087E+02  0.45905444218E+01  0.15282303981E+02  0.00000000000E+00 0.  1.
</event>
<event>
 8    1  0.3186330E-007  0.9118800E+02  0.7816164E-02  0.1184000E+00
        -11   -1    0    0    0    0  0.00000000000E+00  0.00000000000E+00  0.45593999997E+02  0.45594000000E+02  0.51100000000E-03 0.  1.
         11   -1    0    0    0    0 -0.00000000000E+00 -0.00000000000E+00 -0.45593999997E+02  0.45594000000E+02  0.51100000000E-03 0. -1.
         23    2    1    2    0    0 -0.17763568394E-14  0.00000000000E+00  0.00000000000E+00  0.91188000000E+02  0.91188000000E+02 0.  0.
    9900012    2    3    3    0    0  0.85820183738E+01  0.30693163663E+02 -0.18440647259E+02  0.54367098241E+02  0.40000032060E+02 0.  0.
        -12    1    3    3    0    0 -0.85820183738E+01 -0.30693163663E+02  0.18440647259E+02  0.36820901759E+02  0.00000000000E+00 0.  1.
         11    1    4    4    0    0  0.59606936776E+01 -0.19609651046E+01  0.21331613153E+01  0.66276414144E+01  0.51100000000E-03 0. -1.
        -11    1    4    4    0    0  0.80212644517E+01  0.12993556481E+00 -0.10601814658E+02  0.13294962992E+02  0.51100000000E-03 0.  1.
         12    1    4    4    0    0 -0.53999397556E+01  0.32524193203E+02 -0.99719939167E+01  0.34444493835E+02  0.00000000000E+00 0. -1.
</event>
<event>
 8    1  0.3186330E-007  0.9118800E+02  0.7816164E-02  0.1184000E+00
        -11   -1    0    0    0    0  0.00000000000E+00  0.00000000000E+00  0.45593999997E+02  0.45594000000E+02  0.51100000000E-03 0.  1.
         11   -1    0    0    0    0 -0.00000000000E+00 -0.00000000000E+00 -0.45593999997E+02  0.45594000000E+02  0.51100000000E-03 0. -1.
         23    2    1    2    0    0  0.00000000000E+00  0.00000000000E+00  0.35527136788E-14  0.91188000000E+02  0.91188000000E+02 0.  0.
    9900012    2    3    3    0    0  0.13716554695E+02  0.25275041447E+02  0.22995834241E+02  0.54367082232E+02  0.39999995564E+02 0.  0.
         12    1    3    3    0    0 -0.13716554695E+02 -0.25275041447E+02 -0.22995834241E+02  0.36820917768E+02  0.00000000000E+00 0. -1.
         11    1    4    4    0    0  0.67629878493E+01 -0.16690124791E+01  0.68701476288E+00  0.69996854822E+01  0.51100000000E-03 0. -1.
        -11    1    4    4    0    0 -0.67912118948E+01  0.18736500970E+02  0.25072504844E-01  0.19929316508E+02  0.51100000000E-03 0.  1.
        -12    1    4    4    0    0  0.13744778741E+02  0.82075529560E+01  0.22283746974E+02  0.27438080241E+02  0.00000000000E+00 0.  1.
</event>
<event>
 8    1  0.3186330E-007  0.9118800E+02  0.7816164E-02  0.1184000E+00
        -11   -1    0    0    0    0  0.00000000000E+00  0.00000000000E+00  0.45593999997E+02  0.45594000000E+02  0.51100000000E-03 0.  1.
         11   -1    0    0    0    0 -0.00000000000E+00 -0.00000000000E+00 -0.45593999997E+02  0.45594000000E+02  0.51100000000E-03 0. -1.
         23    2    1    2    0    0 -0.17763568394E-14 -0.88817841970E-15 -0.71054273576E-14  0.91188000000E+02  0.91188000000E+02 0.  0.
    9900012    2    3    3    0    0 -0.88726361506E+01  0.54489350916E+01 -0.35318008464E+02  0.54367132442E+02  0.40000110028E+02 0.  0.
        -12    1    3    3    0    0  0.88726361506E+01 -0.54489350916E+01  0.35318008464E+02  0.36820867558E+02  0.00000000000E+00 0.  1.
         11    1    4    4    0    0 -0.14258569171E+02  0.52380222019E+01 -0.12845853950E+02  0.19893708437E+02  0.51100000000E-03 0. -1.
        -11    1    4    4    0    0 -0.50469623248E+01  0.10140620201E+02 -0.69071989079E+01  0.13267004326E+02  0.51100000000E-03 0.  1.
        -12    1    4    4    0    0  0.10432895346E+02 -0.99297073116E+01 -0.15564955606E+02  0.21206419679E+02  0.00000000000E+00 0.  1.
</event>
<event>
 8    1  0.3186330E-007  0.9118800E+02  0.7816164E-02  0.1184000E+00
        -11   -1    0    0    0    0  0.00000000000E+00  0.00000000000E+00  0.45593999997E+02  0.45594000000E+02  0.51100000000E-03 0. -1.
         11   -1    0    0    0    0 -0.00000000000E+00 -0.00000000000E+00 -0.45593999997E+02  0.45594000000E+02  0.51100000000E-03 0.  1.
         23    2    1    2    0    0  0.00000000000E+00  0.35527136788E-14 -0.88817841970E-15  0.91188000000E+02  0.91188000000E+02 0.  0.
    9900012    2    3    3    0    0  0.32262891232E+02  0.17282262552E+02 -0.40259904360E+01  0.54367090878E+02  0.40000015275E+02 0.  0.
         12    1    3    3    0    0 -0.32262891232E+02 -0.17282262552E+02  0.40259904360E+01  0.36820909122E+02  0.00000000000E+00 0. -1.
         11    1    4    4    0    0  0.57481538526E+01 -0.49640438464E+01  0.91726604690E+01  0.11908849834E+02  0.51100000000E-03 0. -1.
        -11    1    4    4    0    0 -0.33953540129E+01  0.63982741879E+00 -0.12382521415E+01  0.36702965310E+01  0.51100000000E-03 0.  1.
        -12    1    4    4    0    0  0.29910091392E+02  0.21606478979E+02 -0.11960398764E+02  0.38787944513E+02  0.00000000000E+00 0.  1.
</event>
<event>
 8    1  0.3186330E-007  0.9118800E+02  0.7816164E-02  0.1184000E+00
        -11   -1    0    0    0    0  0.00000000000E+00  0.00000000000E+00  0.45593999997E+02  0.45594000000E+02  0.51100000000E-03 0.  1.
         11   -1    0    0    0    0 -0.00000000000E+00 -0.00000000000E+00 -0.45593999997E+02  0.45594000000E+02  0.51100000000E-03 0. -1.
         23    2    1    2    0    0  0.00000000000E+00  0.00000000000E+00  0.00000000000E+00  0.91188000000E+02  0.91188000000E+02 0.  0.
    9900012    2    3    3    0    0  0.91336316087E+01 -0.71957670839E+01 -0.34936762765E+02  0.54367086339E+02  0.40000004928E+02 0.  0.
        -12    1    3    3    0    0 -0.91336316087E+01  0.71957670839E+01  0.34936762765E+02  0.36820913661E+02  0.00000000000E+00 0.  1.
         11    1    4    4    0    0  0.19593629249E+02 -0.41625965533E+01 -0.16117808319E+02  0.25710333768E+02  0.51100000000E-03 0. -1.
        -11    1    4    4    0    0 -0.12507168356E+02 -0.37272454691E+01 -0.21537810936E+02  0.25183306361E+02  0.51100000000E-03 0.  1.
        -12    1    4    4    0    0  0.20471707159E+01  0.69407493849E+00  0.27188564903E+01  0.34734462102E+01  0.00000000000E+00 0.  1.
</event>
<event>
 8    1  0.3186330E-007  0.9118800E+02  0.7816164E-02  0.1184000E+00
        -11   -1    0    0    0    0  0.00000000000E+00  0.00000000000E+00  0.45593999997E+02  0.45594000000E+02  0.51100000000E-03 0. -1.
         11   -1    0    0    0    0 -0.00000000000E+00 -0.00000000000E+00 -0.45593999997E+02  0.45594000000E+02  0.51100000000E-03 0.  1.
         23    2    1    2    0    0  0.17763568394E-14  0.00000000000E+00  0.00000000000E+00  0.91188000000E+02  0.91188000000E+02 0.  0.
    9900012    2    3    3    0    0 -0.12718763752E+02 -0.27645472786E+02  0.20730163348E+02  0.54367098471E+02  0.40000032585E+02 0.  0.
        -12    1    3    3    0    0  0.12718763752E+02  0.27645472786E+02 -0.20730163348E+02  0.36820901529E+02  0.00000000000E+00 0.  1.
         11    1    4    4    0    0 -0.10969139797E+02  0.90430536427E+00  0.19883308164E+02  0.22726322621E+02  0.51100000000E-03 0. -1.
        -11    1    4    4    0    0 -0.45494701489E+01 -0.50512985464E+01  0.38073646342E+01  0.77916186611E+01  0.51100000000E-03 0.  1.
        -12    1    4    4    0    0  0.27998461945E+01 -0.23498479604E+02 -0.29605094496E+01  0.23849157189E+02  0.00000000000E+00 0.  1.
</event>
<event>
 8    1  0.3186330E-007  0.9118800E+02  0.7816164E-02  0.1184000E+00
        -11   -1    0    0    0    0  0.00000000000E+00  0.00000000000E+00  0.45593999997E+02  0.45594000000E+02  0.51100000000E-03 0.  1.
         11   -1    0    0    0    0 -0.00000000000E+00 -0.00000000000E+00 -0.45593999997E+02  0.45594000000E+02  0.51100000000E-03 0. -1.
         23    2    1    2    0    0  0.00000000000E+00  0.00000000000E+00  0.17763568394E-14  0.91188000000E+02  0.91188000000E+02 0.  0.
    9900012    2    3    3    0    0 -0.15043095354E+02  0.30131126738E+02 -0.14886223255E+02  0.54367093450E+02  0.40000021138E+02 0.  0.
         12    1    3    3    0    0  0.15043095354E+02 -0.30131126738E+02  0.14886223255E+02  0.36820906550E+02  0.00000000000E+00 0. -1.
         11    1    4    4    0    0 -0.51748958345E+01  0.22137073497E+01  0.92085181454E+01  0.10792444293E+02  0.51100000000E-03 0. -1.
        -11    1    4    4    0    0  0.38974364411E+01  0.16267262999E+01 -0.97244769632E+01  0.10601966881E+02  0.51100000000E-03 0.  1.
        -12    1    4    4    0    0 -0.13765635961E+02  0.26290693089E+02 -0.14370264437E+02  0.32972682276E+02  0.00000000000E+00 0.  1.
</event>
<event>
 8    1  0.3186330E-007  0.9118800E+02  0.7816164E-02  0.1184000E+00
        -11   -1    0    0    0    0  0.00000000000E+00  0.00000000000E+00  0.45593999997E+02  0.45594000000E+02  0.51100000000E-03 0.  1.
         11   -1    0    0    0    0 -0.00000000000E+00 -0.00000000000E+00 -0.45593999997E+02  0.45594000000E+02  0.51100000000E-03 0. -1.
         23    2    1    2    0    0  0.00000000000E+00 -0.44408920985E-15  0.00000000000E+00  0.91188000000E+02  0.91188000000E+02 0.  0.
    9900012    2    3    3    0    0 -0.30541411038E+02  0.38922250199E+01 -0.20195357325E+02  0.54367086632E+02  0.40000005595E+02 0.  0.
        -12    1    3    3    0    0  0.30541411038E+02 -0.38922250199E+01  0.20195357325E+02  0.36820913368E+02  0.00000000000E+00 0.  1.
         11    1    4    4    0    0 -0.10503301537E+02 -0.14183260671E+02 -0.94735203564E+01  0.20030771694E+02  0.51100000000E-03 0. -1.
        -11    1    4    4    0    0  0.35094567201E+01  0.33008661760E+01 -0.14294401386E+01  0.50254654862E+01  0.51100000000E-03 0.  1.
         12    1    4    4    0    0 -0.23547566221E+02  0.14774619515E+02 -0.92923968296E+01  0.29310849452E+02  0.00000000000E+00 0. -1.
</event>
<event>
 8    1  0.3186330E-007  0.9118800E+02  0.7816164E-02  0.1184000E+00
        -11   -1    0    0    0    0  0.00000000000E+00  0.00000000000E+00  0.45593999997E+02  0.45594000000E+02  0.51100000000E-03 0. -1.
         11   -1    0    0    0    0 -0.00000000000E+00 -0.00000000000E+00 -0.45593999997E+02  0.45594000000E+02  0.51100000000E-03 0.  1.
         23    2    1    2    0    0  0.00000000000E+00  0.19984014443E-14 -0.35527136788E-14  0.91188000000E+02  0.91188000000E+02 0.  0.
    9900012    2    3    3    0    0  0.35032195575E+02 -0.11830755944E+01 -0.11275007949E+02  0.54367079331E+02  0.39999988950E+02 0.  0.
         12    1    3    3    0    0 -0.35032195575E+02  0.11830755944E+01  0.11275007949E+02  0.36820920669E+02  0.00000000000E+00 0. -1.
         11    1    4    4    0    0  0.30192810929E+02 -0.12754431468E+01 -0.10993033372E+02  0.32157104503E+02  0.51100000000E-03 0. -1.
        -11    1    4    4    0    0  0.79546793363E+01  0.88785751187E+01 -0.33728188539E+01  0.12388782295E+02  0.51100000000E-03 0.  1.
        -12    1    4    4    0    0 -0.31152946903E+01 -0.87862075663E+01  0.30908442775E+01  0.98211925321E+01  0.00000000000E+00 0.  1.
</event>
<event>
 8    1  0.3186330E-007  0.9118800E+02  0.7816164E-02  0.1184000E+00
        -11   -1    0    0    0    0  0.00000000000E+00  0.00000000000E+00  0.45593999997E+02  0.45594000000E+02  0.51100000000E-03 0.  1.
         11   -1    0    0    0    0 -0.00000000000E+00 -0.00000000000E+00 -0.45593999997E+02  0.45594000000E+02  0.51100000000E-03 0. -1.
         23    2    1    2    0    0  0.00000000000E+00 -0.44408920985E-15  0.00000000000E+00  0.91188000000E+02  0.91188000000E+02 0.  0.
    9900012    2    3    3    0    0  0.36152280373E+02  0.16829952600E+01  0.67795635454E+01  0.54367050378E+02  0.39999922947E+02 0.  0.
         12    1    3    3    0    0 -0.36152280373E+02 -0.16829952600E+01 -0.67795635454E+01  0.36820949622E+02  0.00000000000E+00 0. -1.
         11    1    4    4    0    0 -0.58824199071E+00  0.16201753337E+01 -0.19312963638E+00  0.17344440230E+01  0.51100000000E-03 0. -1.
        -11    1    4    4    0    0  0.20070333223E+02  0.51485592500E+01 -0.14267352785E+02  0.25157171816E+02  0.51100000000E-03 0.  1.
        -12    1    4    4    0    0  0.16670189141E+02 -0.50857393237E+01  0.21240045967E+02  0.27475434539E+02  0.00000000000E+00 0.  1.
</event>
<event>
 8    1  0.3186330E-007  0.9118800E+02  0.7816164E-02  0.1184000E+00
        -11   -1    0    0    0    0  0.00000000000E+00  0.00000000000E+00  0.45593999997E+02  0.45594000000E+02  0.51100000000E-03 0.  1.
         11   -1    0    0    0    0 -0.00000000000E+00 -0.00000000000E+00 -0.45593999997E+02  0.45594000000E+02  0.51100000000E-03 0. -1.
         23    2    1    2    0    0 -0.71054273576E-14 -0.44408920985E-15 -0.88817841970E-15  0.91188000000E+02  0.91188000000E+02 0.  0.
    9900012    2    3    3    0    0 -0.36371387004E+02 -0.18074072409E+01 -0.54439277666E+01  0.54367070312E+02  0.39999968390E+02 0.  0.
         12    1    3    3    0    0  0.36371387004E+02  0.18074072409E+01  0.54439277666E+01  0.36820929688E+02  0.00000000000E+00 0. -1.
         11    1    4    4    0    0 -0.22760516744E+02  0.74039807452E+01  0.84674362657E+01  0.25388137594E+02  0.51100000000E-03 0. -1.
        -11    1    4    4    0    0 -0.16884777641E+02 -0.48387126366E+01 -0.45561811430E+01  0.18145733461E+02  0.51100000000E-03 0.  1.
         12    1    4    4    0    0  0.32739073804E+01 -0.43726753495E+01 -0.93551828893E+01  0.10833199257E+02  0.00000000000E+00 0. -1.
</event>
<event>
 8    1  0.3186330E-007  0.9118800E+02  0.7816164E-02  0.1184000E+00
        -11   -1    0    0    0    0  0.00000000000E+00  0.00000000000E+00  0.45593999997E+02  0.45594000000E+02  0.51100000000E-03 0.  1.
         11   -1    0    0    0    0 -0.00000000000E+00 -0.00000000000E+00 -0.45593999997E+02  0.45594000000E+02  0.51100000000E-03 0. -1.
         23    2    1    2    0    0  0.00000000000E+00  0.00000000000E+00  0.00000000000E+00  0.91188000000E+02  0.91188000000E+02 0.  0.
    9900012    2    3    3    0    0  0.14259514940E+02  0.25032808987E+02 -0.22930420773E+02  0.54367088972E+02  0.40000010930E+02 0.  0.
        -12    1    3    3    0    0 -0.14259514940E+02 -0.25032808987E+02  0.22930420773E+02  0.36820911028E+02  0.00000000000E+00 0.  1.
         11    1    4    4    0    0  0.41385995333E+01  0.12087339013E+02  0.82778309323E+01  0.15223477123E+02  0.51100000000E-03 0. -1.
        -11    1    4    4    0    0 -0.45853693931E+01  0.43143540402E+01 -0.59113289640E+01  0.86361492366E+01  0.51100000000E-03 0.  1.
         12    1    4    4    0    0  0.14706284800E+02  0.86311159333E+01 -0.25296922741E+02  0.30507462612E+02  0.00000000000E+00 0. -1.
</event>
<event>
 8    1  0.3186330E-007  0.9118800E+02  0.7816164E-02  0.1184000E+00
        -11   -1    0    0    0    0  0.00000000000E+00  0.00000000000E+00  0.45593999997E+02  0.45594000000E+02  0.51100000000E-03 0.  1.
         11   -1    0    0    0    0 -0.00000000000E+00 -0.00000000000E+00 -0.45593999997E+02  0.45594000000E+02  0.51100000000E-03 0. -1.
         23    2    1    2    0    0  0.00000000000E+00  0.00000000000E+00  0.00000000000E+00  0.91188000000E+02  0.91188000000E+02 0.  0.
    9900012    2    3    3    0    0 -0.39223867828E+01  0.26470469779E+02 -0.25292485060E+02  0.54367072677E+02  0.39999973782E+02 0.  0.
        -12    1    3    3    0    0  0.39223867828E+01 -0.26470469779E+02  0.25292485060E+02  0.36820927323E+02  0.00000000000E+00 0.  1.
         11    1    4    4    0    0 -0.87410737917E+01  0.13885095604E+02 -0.10556137545E+01  0.16441306871E+02  0.51100000000E-03 0.  1.
        -11    1    4    4    0    0 -0.58329722215E+01  0.16747184527E+02 -0.14575473275E+02  0.22955090415E+02  0.51100000000E-03 0. -1.
        -12    1    4    4    0    0  0.10651659230E+02 -0.41618103518E+01 -0.96613980306E+01  0.14970675391E+02  0.00000000000E+00 0.  1.
</event>
<event>
 8    1  0.3186330E-007  0.9118800E+02  0.7816164E-02  0.1184000E+00
        -11   -1    0    0    0    0  0.00000000000E+00  0.00000000000E+00  0.45593999997E+02  0.45594000000E+02  0.51100000000E-03 0. -1.
         11   -1    0    0    0    0 -0.00000000000E+00 -0.00000000000E+00 -0.45593999997E+02  0.45594000000E+02  0.51100000000E-03 0.  1.
         23    2    1    2    0    0  0.00000000000E+00  0.00000000000E+00 -0.17763568394E-14  0.91188000000E+02  0.91188000000E+02 0.  0.
    9900012    2    3    3    0    0  0.20576105617E+02 -0.28870274589E+02  0.99453847711E+01  0.54367088069E+02  0.40000008871E+02 0.  0.
        -12    1    3    3    0    0 -0.20576105617E+02  0.28870274589E+02 -0.99453847711E+01  0.36820911931E+02  0.00000000000E+00 0.  1.
         11    1    4    4    0    0  0.23241829680E+02 -0.27705312041E+02  0.13529548037E+02  0.38611081732E+02  0.51100000000E-03 0.  1.
        -11    1    4    4    0    0 -0.69677440998E+01 -0.27861671673E+01  0.26952967866E+01  0.79735067789E+01  0.51100000000E-03 0. -1.
        -12    1    4    4    0    0  0.43020200364E+01  0.16212046194E+01 -0.62794600529E+01  0.77824995578E+01  0.00000000000E+00 0.  1.
</event>
<event>
 8    1  0.3186330E-007  0.9118800E+02  0.7816164E-02  0.1184000E+00
        -11   -1    0    0    0    0  0.00000000000E+00  0.00000000000E+00  0.45593999997E+02  0.45594000000E+02  0.51100000000E-03 0.  1.
         11   -1    0    0    0    0 -0.00000000000E+00 -0.00000000000E+00 -0.45593999997E+02  0.45594000000E+02  0.51100000000E-03 0. -1.
         23    2    1    2    0    0  0.00000000000E+00  0.00000000000E+00  0.35527136788E-14  0.91188000000E+02  0.91188000000E+02 0.  0.
    9900012    2    3    3    0    0 -0.71785617321E+01  0.22900798127E+02  0.27924913331E+02  0.54367094417E+02  0.40000023343E+02 0.  0.
         12    1    3    3    0    0  0.71785617321E+01 -0.22900798127E+02 -0.27924913331E+02  0.36820905583E+02  0.00000000000E+00 0. -1.
         11    1    4    4    0    0 -0.44476940249E+01 -0.38854863722E+01  0.15334955368E+02  0.16432889061E+02  0.51100000000E-03 0. -1.
        -11    1    4    4    0    0 -0.21621389652E+01  0.13311342899E+02 -0.61693012114E+01  0.14829935009E+02  0.51100000000E-03 0.  1.
        -12    1    4    4    0    0 -0.56872874201E+00  0.13474941600E+02  0.18759259174E+02  0.23104270347E+02  0.00000000000E+00 0.  1.
</event>
<event>
 8    1  0.3186330E-007  0.9118800E+02  0.7816164E-02  0.1184000E+00
        -11   -1    0    0    0    0  0.00000000000E+00  0.00000000000E+00  0.45593999997E+02  0.45594000000E+02  0.51100000000E-03 0.  1.
         11   -1    0    0    0    0 -0.00000000000E+00 -0.00000000000E+00 -0.45593999997E+02  0.45594000000E+02  0.51100000000E-03 0. -1.
         23    2    1    2    0    0  0.00000000000E+00  0.35527136788E-14  0.00000000000E+00  0.91188000000E+02  0.91188000000E+02 0.  0.
    9900012    2    3    3    0    0 -0.16521505710E+02  0.30092852793E+02  0.13313444929E+02  0.54366976712E+02  0.39999755009E+02 0.  0.
        -12    1    3    3    0    0  0.16521505710E+02 -0.30092852793E+02 -0.13313444929E+02  0.36821023288E+02  0.00000000000E+00 0.  1.
         11    1    4    4    0    0 -0.92719735340E+00 -0.24003718603E+01  0.10833253058E+01  0.27919659702E+01  0.51100000000E-03 0. -1.
        -11    1    4    4    0    0 -0.19307641657E+02  0.33782140731E+02  0.19339393441E+02  0.43451469453E+02  0.51100000000E-03 0.  1.
         12    1    4    4    0    0  0.37133333005E+01 -0.12889160778E+01 -0.71092738175E+01  0.81235412887E+01  0.00000000000E+00 0. -1.
</event>
<event>
 8    1  0.3186330E-007  0.9118800E+02  0.7816164E-02  0.1184000E+00
        -11   -1    0    0    0    0  0.00000000000E+00  0.00000000000E+00  0.45593999997E+02  0.45594000000E+02  0.51100000000E-03 0. -1.
         11   -1    0    0    0    0 -0.00000000000E+00 -0.00000000000E+00 -0.45593999997E+02  0.45594000000E+02  0.51100000000E-03 0.  1.
         23    2    1    2    0    0  0.71054273576E-14  0.17763568394E-14  0.00000000000E+00  0.91188000000E+02  0.91188000000E+02 0.  0.
    9900012    2    3    3    0    0  0.33817941267E+02  0.13862726022E+02  0.44666643391E+01  0.54367089981E+02  0.40000013229E+02 0.  0.
        -12    1    3    3    0    0 -0.33817941267E+02 -0.13862726022E+02 -0.44666643391E+01  0.36820910019E+02  0.00000000000E+00 0.  1.
         11    1    4    4    0    0  0.21610815227E+02  0.15719264750E+02 -0.10246621496E+02  0.28620200408E+02  0.51100000000E-03 0.  1.
        -11    1    4    4    0    0  0.92186733525E+01  0.71166702145E+01  0.74967905211E+01  0.13850371898E+02  0.51100000000E-03 0. -1.
        -12    1    4    4    0    0  0.29884526878E+01 -0.89732089419E+01  0.72164953143E+01  0.11896517676E+02  0.00000000000E+00 0.  1.
</event>
<event>
 8    1  0.3186330E-007  0.9118800E+02  0.7816164E-02  0.1184000E+00
        -11   -1    0    0    0    0  0.00000000000E+00  0.00000000000E+00  0.45593999997E+02  0.45594000000E+02  0.51100000000E-03 0. -1.
         11   -1    0    0    0    0 -0.00000000000E+00 -0.00000000000E+00 -0.45593999997E+02  0.45594000000E+02  0.51100000000E-03 0.  1.
         23    2    1    2    0    0 -0.88817841970E-15  0.00000000000E+00  0.00000000000E+00  0.91188000000E+02  0.91188000000E+02 0.  0.
    9900012    2    3    3    0    0  0.31677967707E+01 -0.36320320659E+02  0.51553988395E+01  0.54367098784E+02  0.40000033297E+02 0.  0.
         12    1    3    3    0    0 -0.31677967707E+01  0.36320320659E+02 -0.51553988395E+01  0.36820901216E+02  0.00000000000E+00 0. -1.
         11    1    4    4    0    0  0.63806139845E+01 -0.10579378257E+02  0.44642771282E+01  0.13136409314E+02  0.51100000000E-03 0. -1.
        -11    1    4    4    0    0  0.26543896085E+01 -0.31871725315E+02 -0.26922056104E+01  0.32095180792E+02  0.51100000000E-03 0.  1.
         12    1    4    4    0    0 -0.58672068222E+01  0.61307829135E+01  0.33833273217E+01  0.91355086773E+01  0.00000000000E+00 0. -1.
</event>
<event>
 8    1  0.3186330E-007  0.9118800E+02  0.7816164E-02  0.1184000E+00
        -11   -1    0    0    0    0  0.00000000000E+00  0.00000000000E+00  0.45593999997E+02  0.45594000000E+02  0.51100000000E-03 0.  1.
         11   -1    0    0    0    0 -0.00000000000E+00 -0.00000000000E+00 -0.45593999997E+02  0.45594000000E+02  0.51100000000E-03 0. -1.
         23    2    1    2    0    0  0.00000000000E+00  0.00000000000E+00  0.00000000000E+00  0.91188000000E+02  0.91188000000E+02 0.  0.
    9900012    2    3    3    0    0  0.24443729075E+02 -0.24684478738E+02  0.12205017778E+02  0.54367057038E+02  0.39999938129E+02 0.  0.
        -12    1    3    3    0    0 -0.24443729075E+02  0.24684478738E+02 -0.12205017778E+02  0.36820942962E+02  0.00000000000E+00 0.  1.
         11    1    4    4    0    0  0.32739951987E+02 -0.21499220262E+02  0.38806206472E+01  0.39359625822E+02  0.51100000000E-03 0. -1.
        -11    1    4    4    0    0 -0.27020165440E+01  0.84248625238E+00 -0.13440448504E+01  0.31332304911E+01  0.51100000000E-03 0.  1.
         12    1    4    4    0    0 -0.55942063683E+01 -0.40277447288E+01  0.96684419814E+01  0.11874200724E+02  0.00000000000E+00 0. -1.
</event>
<event>
 8    1  0.3186330E-007  0.9118800E+02  0.7816164E-02  0.1184000E+00
        -11   -1    0    0    0    0  0.00000000000E+00  0.00000000000E+00  0.45593999997E+02  0.45594000000E+02  0.51100000000E-03 0. -1.
         11   -1    0    0    0    0 -0.00000000000E+00 -0.00000000000E+00 -0.45593999997E+02  0.45594000000E+02  0.51100000000E-03 0.  1.
         23    2    1    2    0    0  0.00000000000E+00  0.00000000000E+00 -0.35527136788E-14  0.91188000000E+02  0.91188000000E+02 0.  0.
    9900012    2    3    3    0    0 -0.18448251900E+02  0.15794258287E+02  0.27676398055E+02  0.54367087433E+02  0.40000007420E+02 0.  0.
         12    1    3    3    0    0  0.18448251900E+02 -0.15794258287E+02 -0.27676398055E+02  0.36820912567E+02  0.00000000000E+00 0. -1.
         11    1    4    4    0    0 -0.64540629207E+01  0.11461423903E+02  0.10657153405E+02  0.16929089905E+02  0.51100000000E-03 0. -1.
        -11    1    4    4    0    0  0.11501233801E+01  0.31610502858E+01 -0.82616053697E+01  0.89201539361E+01  0.51100000000E-03 0.  1.
         12    1    4    4    0    0 -0.13144312359E+02  0.11717840982E+01  0.25280850020E+02  0.28517843591E+02  0.00000000000E+00 0. -1.
</event>
<event>
 8    1  0.3186330E-007  0.9118800E+02  0.7816164E-02  0.1184000E+00
        -11   -1    0    0    0    0  0.00000000000E+00  0.00000000000E+00  0.45593999997E+02  0.45594000000E+02  0.51100000000E-03 0. -1.
         11   -1    0    0    0    0 -0.00000000000E+00 -0.00000000000E+00 -0.45593999997E+02  0.45594000000E+02  0.51100000000E-03 0.  1.
         23    2    1    2    0    0  0.00000000000E+00  0.00000000000E+00  0.00000000000E+00  0.91188000000E+02  0.91188000000E+02 0.  0.
    9900012    2    3    3    0    0  0.12195642201E+02  0.21828940346E+02 -0.27028562638E+02  0.54367088501E+02  0.40000009856E+02 0.  0.
         12    1    3    3    0    0 -0.12195642201E+02 -0.21828940346E+02  0.27028562638E+02  0.36820911499E+02  0.00000000000E+00 0. -1.
         11    1    4    4    0    0 -0.78195533102E+01 -0.40582278484E+01 -0.50474448200E+01  0.10153389912E+02  0.51100000000E-03 0. -1.
        -11    1    4    4    0    0  0.89680876467E+01  0.13823463650E+02 -0.22451503093E+02  0.27849321979E+02  0.51100000000E-03 0.  1.
        -12    1    4    4    0    0  0.11047107864E+02  0.12063704545E+02  0.47038527482E+00  0.16364376610E+02  0.00000000000E+00 0.  1.
</event>
<event>
 8    1  0.3186330E-007  0.9118800E+02  0.7816164E-02  0.1184000E+00
        -11   -1    0    0    0    0  0.00000000000E+00  0.00000000000E+00  0.45593999997E+02  0.45594000000E+02  0.51100000000E-03 0. -1.
         11   -1    0    0    0    0 -0.00000000000E+00 -0.00000000000E+00 -0.45593999997E+02  0.45594000000E+02  0.51100000000E-03 0.  1.
         23    2    1    2    0    0  0.00000000000E+00  0.00000000000E+00  0.00000000000E+00  0.91188000000E+02  0.91188000000E+02 0.  0.
    9900012    2    3    3    0    0 -0.25714384906E+02  0.19298929215E+02  0.17947137914E+02  0.54367108929E+02  0.40000056425E+02 0.  0.
         12    1    3    3    0    0  0.25714384906E+02 -0.19298929215E+02 -0.17947137914E+02  0.36820891071E+02  0.00000000000E+00 0. -1.
         11    1    4    4    0    0 -0.53657076221E+01  0.11722316524E+02  0.69969135642E+01  0.14668344237E+02  0.51100000000E-03 0.  1.
        -11    1    4    4    0    0 -0.85103541355E+01 -0.12318705249E+02  0.51344668839E+01  0.15828435708E+02  0.51100000000E-03 0. -1.
         12    1    4    4    0    0 -0.11838323149E+02  0.19895317939E+02  0.58157574663E+01  0.23870328984E+02  0.00000000000E+00 0. -1.
</event>
<event>
 8    1  0.3186330E-007  0.9118800E+02  0.7816164E-02  0.1184000E+00
        -11   -1    0    0    0    0  0.00000000000E+00  0.00000000000E+00  0.45593999997E+02  0.45594000000E+02  0.51100000000E-03 0.  1.
         11   -1    0    0    0    0 -0.00000000000E+00 -0.00000000000E+00 -0.45593999997E+02  0.45594000000E+02  0.51100000000E-03 0. -1.
         23    2    1    2    0    0 -0.88817841970E-15 -0.71054273576E-14  0.00000000000E+00  0.91188000000E+02  0.91188000000E+02 0.  0.
    9900012    2    3    3    0    0  0.73888443681E+01  0.34569007520E+02 -0.10303815967E+02  0.54367083044E+02  0.39999997416E+02 0.  0.
        -12    1    3    3    0    0 -0.73888443681E+01 -0.34569007520E+02  0.10303815967E+02  0.36820916956E+02  0.00000000000E+00 0.  1.
         11    1    4    4    0    0  0.19148177025E+02  0.26035530671E+02 -0.10521389142E+02  0.33988250476E+02  0.51100000000E-03 0. -1.
        -11    1    4    4    0    0 -0.46378113930E+01  0.10869559775E+02  0.33078385327E+01  0.12271854800E+02  0.51100000000E-03 0.  1.
        -12    1    4    4    0    0 -0.71215212640E+01 -0.23360829259E+01 -0.30902653578E+01  0.81069777681E+01  0.00000000000E+00 0.  1.
</event>
<event>
 8    1  0.3186330E-007  0.9118800E+02  0.7816164E-02  0.1184000E+00
        -11   -1    0    0    0    0  0.00000000000E+00  0.00000000000E+00  0.45593999997E+02  0.45594000000E+02  0.51100000000E-03 0. -1.
         11   -1    0    0    0    0 -0.00000000000E+00 -0.00000000000E+00 -0.45593999997E+02  0.45594000000E+02  0.51100000000E-03 0.  1.
         23    2    1    2    0    0 -0.44408920985E-15  0.00000000000E+00 -0.35527136788E-14  0.91188000000E+02  0.91188000000E+02 0.  0.
    9900012    2    3    3    0    0 -0.24534894482E+01 -0.28671445462E+02 -0.22971937289E+02  0.54367064404E+02  0.39999954921E+02 0.  0.
        -12    1    3    3    0    0  0.24534894482E+01  0.28671445462E+02  0.22971937289E+02  0.36820935596E+02  0.00000000000E+00 0.  1.
         11    1    4    4    0    0 -0.29051619280E+01 -0.17562354527E+02 -0.90147913632E+00  0.17823830320E+02  0.51100000000E-03 0. -1.
        -11    1    4    4    0    0  0.83409084102E+01 -0.88292454334E+01 -0.25024203257E+02  0.27816129798E+02  0.51100000000E-03 0.  1.
        -12    1    4    4    0    0 -0.78892359304E+01 -0.22798455016E+01  0.29537451046E+01  0.87271042860E+01  0.00000000000E+00 0.  1.
</event>
<event>
 8    1  0.3186330E-007  0.9118800E+02  0.7816164E-02  0.1184000E+00
        -11   -1    0    0    0    0  0.00000000000E+00  0.00000000000E+00  0.45593999997E+02  0.45594000000E+02  0.51100000000E-03 0. -1.
         11   -1    0    0    0    0 -0.00000000000E+00 -0.00000000000E+00 -0.45593999997E+02  0.45594000000E+02  0.51100000000E-03 0.  1.
         23    2    1    2    0    0 -0.17763568394E-14  0.35527136788E-14  0.00000000000E+00  0.91188000000E+02  0.91188000000E+02 0.  0.
    9900012    2    3    3    0    0 -0.93670542065E+01  0.18257776792E+02  0.30572706939E+02  0.54367102028E+02  0.40000040694E+02 0.  0.
        -12    1    3    3    0    0  0.93670542065E+01 -0.18257776792E+02 -0.30572706939E+02  0.36820897972E+02  0.00000000000E+00 0.  1.
         11    1    4    4    0    0  0.30552037751E+01 -0.48555476242E+01  0.23127853765E+02  0.23828727051E+02  0.51100000000E-03 0. -1.
        -11    1    4    4    0    0 -0.76793581332E+01  0.53967471311E+01  0.77855445439E+01  0.12194758097E+02  0.51100000000E-03 0.  1.
         12    1    4    4    0    0 -0.47428998483E+01  0.17716577285E+02 -0.34069136997E+00  0.18343616881E+02  0.00000000000E+00 0. -1.
</event>
<event>
 8    1  0.3186330E-007  0.9118800E+02  0.7816164E-02  0.1184000E+00
        -11   -1    0    0    0    0  0.00000000000E+00  0.00000000000E+00  0.45593999997E+02  0.45594000000E+02  0.51100000000E-03 0. -1.
         11   -1    0    0    0    0 -0.00000000000E+00 -0.00000000000E+00 -0.45593999997E+02  0.45594000000E+02  0.51100000000E-03 0.  1.
         23    2    1    2    0    0  0.00000000000E+00  0.00000000000E+00 -0.17763568394E-14  0.91188000000E+02  0.91188000000E+02 0.  0.
    9900012    2    3    3    0    0 -0.10343630756E+02 -0.35038987220E+02  0.45890021585E+01  0.54367078455E+02  0.39999986953E+02 0.  0.
        -12    1    3    3    0    0  0.10343630756E+02  0.35038987220E+02 -0.45890021585E+01  0.36820921545E+02  0.00000000000E+00 0.  1.
         11    1    4    4    0    0 -0.20898213422E+00 -0.84203427563E+01 -0.11878796543E+01  0.85062861461E+01  0.51100000000E-03 0.  1.
        -11    1    4    4    0    0 -0.60055613756E+01 -0.18348474435E+02 -0.14121845449E+02  0.23919862054E+02  0.51100000000E-03 0. -1.
         12    1    4    4    0    0 -0.41290872461E+01 -0.82701700289E+01  0.19898727262E+02  0.21940930255E+02  0.00000000000E+00 0. -1.
</event>
<event>
 8    1  0.3186330E-007  0.9118800E+02  0.7816164E-02  0.1184000E+00
        -11   -1    0    0    0    0  0.00000000000E+00  0.00000000000E+00  0.45593999997E+02  0.45594000000E+02  0.51100000000E-03 0. -1.
         11   -1    0    0    0    0 -0.00000000000E+00 -0.00000000000E+00 -0.45593999997E+02  0.45594000000E+02  0.51100000000E-03 0.  1.
         23    2    1    2    0    0  0.17763568394E-14  0.00000000000E+00 -0.26645352591E-14  0.91188000000E+02  0.91188000000E+02 0.  0.
    9900012    2    3    3    0    0  0.90196158291E+01  0.35263626578E+02  0.55582604374E+01  0.54367203047E+02  0.40000270986E+02 0.  0.
        -12    1    3    3    0    0 -0.90196158291E+01 -0.35263626578E+02 -0.55582604374E+01  0.36820796953E+02  0.00000000000E+00 0.  1.
         11    1    4    4    0    0  0.67397762276E+01 -0.81144317461E+00  0.13275399155E+02  0.14910373792E+02  0.51100000000E-03 0. -1.
        -11    1    4    4    0    0  0.63570857819E+01  0.29895858226E+02 -0.91746254270E+01  0.31911575184E+02  0.51100000000E-03 0.  1.
         12    1    4    4    0    0 -0.40772461804E+01  0.61792115261E+01  0.14574867095E+01  0.75452540718E+01  0.00000000000E+00 0. -1.
</event>
<event>
 8    1  0.3186330E-007  0.9118800E+02  0.7816164E-02  0.1184000E+00
        -11   -1    0    0    0    0  0.00000000000E+00  0.00000000000E+00  0.45593999997E+02  0.45594000000E+02  0.51100000000E-03 0.  1.
         11   -1    0    0    0    0 -0.00000000000E+00 -0.00000000000E+00 -0.45593999997E+02  0.45594000000E+02  0.51100000000E-03 0. -1.
         23    2    1    2    0    0  0.17763568394E-14  0.71054273576E-14  0.17763568394E-14  0.91188000000E+02  0.91188000000E+02 0.  0.
    9900012    2    3    3    0    0 -0.11031635011E+02 -0.33314126589E+02 -0.11146824307E+02  0.54367086194E+02  0.40000004595E+02 0.  0.
        -12    1    3    3    0    0  0.11031635011E+02  0.33314126589E+02  0.11146824307E+02  0.36820913806E+02  0.00000000000E+00 0.  1.
         11    1    4    4    0    0  0.14990324557E+01 -0.38854795247E+01  0.33176790523E+01  0.53245698413E+01  0.51100000000E-03 0. -1.
        -11    1    4    4    0    0  0.71397654322E+01  0.30502428373E+01 -0.67667900857E+01  0.10299013551E+02  0.51100000000E-03 0.  1.
         12    1    4    4    0    0 -0.19670432899E+02 -0.32478889902E+02 -0.76977132738E+01  0.38743502801E+02  0.00000000000E+00 0. -1.
</event>
<event>
 8    1  0.3186330E-007  0.9118800E+02  0.7816164E-02  0.1184000E+00
        -11   -1    0    0    0    0  0.00000000000E+00  0.00000000000E+00  0.45593999997E+02  0.45594000000E+02  0.51100000000E-03 0. -1.
         11   -1    0    0    0    0 -0.00000000000E+00 -0.00000000000E+00 -0.45593999997E+02  0.45594000000E+02  0.51100000000E-03 0.  1.
         23    2    1    2    0    0  0.00000000000E+00  0.00000000000E+00  0.35527136788E-14  0.91188000000E+02  0.91188000000E+02 0.  0.
    9900012    2    3    3    0    0 -0.22419736650E+02  0.16136872226E+02  0.24346195917E+02  0.54367075347E+02  0.39999979869E+02 0.  0.
        -12    1    3    3    0    0  0.22419736650E+02 -0.16136872226E+02 -0.24346195917E+02  0.36820924653E+02  0.00000000000E+00 0.  1.
         11    1    4    4    0    0  0.30033584672E+01  0.18136893839E+01 -0.41211658888E+01  0.54123599111E+01  0.51100000000E-03 0. -1.
        -11    1    4    4    0    0 -0.73077910069E+01  0.59605515654E+01 -0.44772144270E+01  0.10439225721E+02  0.51100000000E-03 0.  1.
         12    1    4    4    0    0 -0.18115304110E+02  0.83626312764E+01  0.32944576232E+02  0.38515489715E+02  0.00000000000E+00 0. -1.
</event>
<event>
 8    1  0.3186330E-007  0.9118800E+02  0.7816164E-02  0.1184000E+00
        -11   -1    0    0    0    0  0.00000000000E+00  0.00000000000E+00  0.45593999997E+02  0.45594000000E+02  0.51100000000E-03 0. -1.
         11   -1    0    0    0    0 -0.00000000000E+00 -0.00000000000E+00 -0.45593999997E+02  0.45594000000E+02  0.51100000000E-03 0.  1.
         23    2    1    2    0    0 -0.71054273576E-14  0.00000000000E+00 -0.88817841970E-15  0.91188000000E+02  0.91188000000E+02 0.  0.
    9900012    2    3    3    0    0  0.14935649369E+02 -0.33411385605E+02  0.40479289355E+01  0.54367081505E+02  0.39999993908E+02 0.  0.
        -12    1    3    3    0    0 -0.14935649369E+02  0.33411385605E+02 -0.40479289355E+01  0.36820918495E+02  0.00000000000E+00 0.  1.
         11    1    4    4    0    0  0.10586948246E+02 -0.23746207268E+01 -0.72386681254E+00  0.10874110547E+02  0.51100000000E-03 0. -1.
        -11    1    4    4    0    0  0.16314512190E+02 -0.16828147692E+02 -0.24428812940E+01  0.23565176257E+02  0.51100000000E-03 0.  1.
        -12    1    4    4    0    0 -0.11965811067E+02 -0.14208617186E+02  0.72146770420E+01  0.19927794701E+02  0.00000000000E+00 0.  1.
</event>
<event>
 8    1  0.3186330E-007  0.9118800E+02  0.7816164E-02  0.1184000E+00
        -11   -1    0    0    0    0  0.00000000000E+00  0.00000000000E+00  0.45593999997E+02  0.45594000000E+02  0.51100000000E-03 0. -1.
         11   -1    0    0    0    0 -0.00000000000E+00 -0.00000000000E+00 -0.45593999997E+02  0.45594000000E+02  0.51100000000E-03 0.  1.
         23    2    1    2    0    0  0.00000000000E+00  0.00000000000E+00 -0.35527136788E-14  0.91188000000E+02  0.91188000000E+02 0.  0.
    9900012    2    3    3    0    0  0.19675233867E+02 -0.19565885621E+02 -0.24204138792E+02  0.54367095034E+02  0.40000024749E+02 0.  0.
         12    1    3    3    0    0 -0.19675233867E+02  0.19565885621E+02  0.24204138792E+02  0.36820904966E+02  0.00000000000E+00 0. -1.
         11    1    4    4    0    0 -0.40955966484E+00 -0.18267828862E+02 -0.15626803577E+02  0.24043258946E+02  0.51100000000E-03 0.  1.
        -11    1    4    4    0    0  0.41068768340E+01  0.91222411549E+01 -0.26627832518E+01  0.10352397593E+02  0.51100000000E-03 0. -1.
        -12    1    4    4    0    0  0.15977916698E+02 -0.10420297914E+02 -0.59145519631E+01  0.19971438494E+02  0.00000000000E+00 0.  1.
</event>
<event>
 8    1  0.3186330E-007  0.9118800E+02  0.7816164E-02  0.1184000E+00
        -11   -1    0    0    0    0  0.00000000000E+00  0.00000000000E+00  0.45593999997E+02  0.45594000000E+02  0.51100000000E-03 0.  1.
         11   -1    0    0    0    0 -0.00000000000E+00 -0.00000000000E+00 -0.45593999997E+02  0.45594000000E+02  0.51100000000E-03 0. -1.
         23    2    1    2    0    0  0.00000000000E+00  0.17763568394E-14  0.00000000000E+00  0.91188000000E+02  0.91188000000E+02 0.  0.
    9900012    2    3    3    0    0 -0.36387978327E+02 -0.40460691734E+01  0.39146592371E+01  0.54367079324E+02  0.39999988935E+02 0.  0.
        -12    1    3    3    0    0  0.36387978327E+02  0.40460691734E+01 -0.39146592371E+01  0.36820920676E+02  0.00000000000E+00 0.  1.
         11    1    4    4    0    0  0.30154487355E+01  0.47102322901E+00 -0.85444056235E+01  0.90731285497E+01  0.51100000000E-03 0. -1.
        -11    1    4    4    0    0 -0.27045715092E+02 -0.11281087775E+02  0.10186030286E+02  0.31024004569E+02  0.51100000000E-03 0.  1.
        -12    1    4    4    0    0 -0.12357711970E+02  0.67639953726E+01  0.22730345744E+01  0.14269946206E+02  0.00000000000E+00 0.  1.
</event>
<event>
 8    1  0.3186330E-007  0.9118800E+02  0.7816164E-02  0.1184000E+00
        -11   -1    0    0    0    0  0.00000000000E+00  0.00000000000E+00  0.45593999997E+02  0.45594000000E+02  0.51100000000E-03 0.  1.
         11   -1    0    0    0    0 -0.00000000000E+00 -0.00000000000E+00 -0.45593999997E+02  0.45594000000E+02  0.51100000000E-03 0. -1.
         23    2    1    2    0    0 -0.35527136788E-14  0.35527136788E-14 -0.88817841970E-15  0.91188000000E+02  0.91188000000E+02 0.  0.
    9900012    2    3    3    0    0 -0.19921426781E+02 -0.30662450645E+02  0.43279564160E+01  0.54367077534E+02  0.39999984853E+02 0.  0.
         12    1    3    3    0    0  0.19921426781E+02  0.30662450645E+02 -0.43279564160E+01  0.36820922466E+02  0.00000000000E+00 0. -1.
         11    1    4    4    0    0 -0.18778054719E+00 -0.57620328224E+01  0.80542657424E+01  0.99049220437E+01  0.51100000000E-03 0.  1.
        -11    1    4    4    0    0 -0.18336505708E+01 -0.49069697733E+01 -0.14596940219E+02  0.15508426445E+02  0.51100000000E-03 0. -1.
         12    1    4    4    0    0 -0.17899995663E+02 -0.19993448049E+02  0.10870630893E+02  0.28953729045E+02  0.00000000000E+00 0. -1.
</event>
<event>
 8    1  0.3186330E-007  0.9118800E+02  0.7816164E-02  0.1184000E+00
        -11   -1    0    0    0    0  0.00000000000E+00  0.00000000000E+00  0.45593999997E+02  0.45594000000E+02  0.51100000000E-03 0.  1.
         11   -1    0    0    0    0 -0.00000000000E+00 -0.00000000000E+00 -0.45593999997E+02  0.45594000000E+02  0.51100000000E-03 0. -1.
         23    2    1    2    0    0  0.00000000000E+00  0.00000000000E+00  0.00000000000E+00  0.91188000000E+02  0.91188000000E+02 0.  0.
    9900012    2    3    3    0    0 -0.16114120918E+02  0.28967130911E+02 -0.16031876779E+02  0.54367073352E+02  0.39999975320E+02 0.  0.
        -12    1    3    3    0    0  0.16114120918E+02 -0.28967130911E+02  0.16031876779E+02  0.36820926648E+02  0.00000000000E+00 0.  1.
         11    1    4    4    0    0 -0.30559714327E+01  0.48616932215E+01 -0.17066806694E+02  0.18006968467E+02  0.51100000000E-03 0. -1.
        -11    1    4    4    0    0 -0.96594455514E+01  0.40885185485E+00  0.66963902613E+01  0.11760684121E+02  0.51100000000E-03 0.  1.
        -12    1    4    4    0    0 -0.33987039341E+01  0.23696585835E+02 -0.56614603464E+01  0.24599420763E+02  0.00000000000E+00 0.  1.
</event>
<event>
 8    1  0.3186330E-007  0.9118800E+02  0.7816164E-02  0.1184000E+00
        -11   -1    0    0    0    0  0.00000000000E+00  0.00000000000E+00  0.45593999997E+02  0.45594000000E+02  0.51100000000E-03 0.  1.
         11   -1    0    0    0    0 -0.00000000000E+00 -0.00000000000E+00 -0.45593999997E+02  0.45594000000E+02  0.51100000000E-03 0. -1.
         23    2    1    2    0    0  0.00000000000E+00 -0.17763568394E-14  0.00000000000E+00  0.91188000000E+02  0.91188000000E+02 0.  0.
    9900012    2    3    3    0    0 -0.29063456970E+02  0.65682777748E+01 -0.21632218465E+02  0.54367086382E+02  0.40000005025E+02 0.  0.
        -12    1    3    3    0    0  0.29063456970E+02 -0.65682777748E+01  0.21632218465E+02  0.36820913618E+02  0.00000000000E+00 0.  1.
         11    1    4    4    0    0 -0.12610527571E+02 -0.85791600649E+01 -0.20637294245E+02  0.25661747934E+02  0.51100000000E-03 0. -1.
        -11    1    4    4    0    0 -0.18742177760E+02  0.67925220491E+01 -0.17377500772E+01  0.20010681112E+02  0.51100000000E-03 0.  1.
         12    1    4    4    0    0  0.22892483611E+01  0.83549157906E+01  0.74282585721E+00  0.86946573355E+01  0.00000000000E+00 0. -1.
</event>
<event>
 8    1  0.3186330E-007  0.9118800E+02  0.7816164E-02  0.1184000E+00
        -11   -1    0    0    0    0  0.00000000000E+00  0.00000000000E+00  0.45593999997E+02  0.45594000000E+02  0.51100000000E-03 0. -1.
         11   -1    0    0    0    0 -0.00000000000E+00 -0.00000000000E+00 -0.45593999997E+02  0.45594000000E+02  0.51100000000E-03 0.  1.
         23    2    1    2    0    0  0.00000000000E+00  0.44408920985E-15 -0.35527136788E-14  0.91188000000E+02  0.91188000000E+02 0.  0.
    9900012    2    3    3    0    0  0.18402737883E+02 -0.25188430386E+01 -0.31792674191E+02  0.54367089310E+02  0.40000011701E+02 0.  0.
         12    1    3    3    0    0 -0.18402737883E+02  0.25188430386E+01  0.31792674191E+02  0.36820910690E+02  0.00000000000E+00 0. -1.
         11    1    4    4    0    0  0.74407535304E+00 -0.22357252589E+01 -0.27380963584E+02  0.27482162990E+02  0.51100000000E-03 0. -1.
        -11    1    4    4    0    0  0.56476686174E+01 -0.80787009986E+01 -0.73146344908E+01  0.12274585477E+02  0.51100000000E-03 0.  1.
         12    1    4    4    0    0  0.12010993912E+02  0.77955832190E+01  0.29029238839E+01  0.14610340844E+02  0.00000000000E+00 0. -1.
</event>
<event>
 8    1  0.3186330E-007  0.9118800E+02  0.7816164E-02  0.1184000E+00
        -11   -1    0    0    0    0  0.00000000000E+00  0.00000000000E+00  0.45593999997E+02  0.45594000000E+02  0.51100000000E-03 0. -1.
         11   -1    0    0    0    0 -0.00000000000E+00 -0.00000000000E+00 -0.45593999997E+02  0.45594000000E+02  0.51100000000E-03 0.  1.
         23    2    1    2    0    0  0.00000000000E+00 -0.32196467714E-14  0.00000000000E+00  0.91188000000E+02  0.91188000000E+02 0.  0.
    9900012    2    3    3    0    0  0.96178314079E+01  0.32130662626E+00 -0.35541153197E+02  0.54367088965E+02  0.40000010912E+02 0.  0.
         12    1    3    3    0    0 -0.96178314079E+01 -0.32130662626E+00  0.35541153197E+02  0.36820911035E+02  0.00000000000E+00 0. -1.
         11    1    4    4    0    0  0.22128563318E+01  0.12013429930E+02 -0.37237319253E+02  0.39189758576E+02  0.51100000000E-03 0.  1.
        -11    1    4    4    0    0 -0.40786096477E+00 -0.30904942238E+01  0.17134087256E+01  0.35571441967E+01  0.51100000000E-03 0. -1.
        -12    1    4    4    0    0  0.78128360408E+01 -0.86016290802E+01 -0.17242669648E-01  0.11620186192E+02  0.00000000000E+00 0.  1.
</event>
<event>
 8    1  0.3186330E-007  0.9118800E+02  0.7816164E-02  0.1184000E+00
        -11   -1    0    0    0    0  0.00000000000E+00  0.00000000000E+00  0.45593999997E+02  0.45594000000E+02  0.51100000000E-03 0.  1.
         11   -1    0    0    0    0 -0.00000000000E+00 -0.00000000000E+00 -0.45593999997E+02  0.45594000000E+02  0.51100000000E-03 0. -1.
         23    2    1    2    0    0  0.00000000000E+00 -0.22204460493E-15  0.00000000000E+00  0.91188000000E+02  0.91188000000E+02 0.  0.
    9900012    2    3    3    0    0 -0.16882276670E+02 -0.12760562380E+01 -0.32697714551E+02  0.54367080376E+02  0.39999991332E+02 0.  0.
        -12    1    3    3    0    0  0.16882276670E+02  0.12760562380E+01  0.32697714551E+02  0.36820919624E+02  0.00000000000E+00 0.  1.
         11    1    4    4    0    0  0.25924740206E+01  0.13154822479E+01  0.33944171309E+01  0.44691702823E+01  0.51100000000E-03 0. -1.
        -11    1    4    4    0    0  0.31522326983E+01 -0.10084240638E+02 -0.12400861954E+02  0.16291404411E+02  0.51100000000E-03 0.  1.
        -12    1    4    4    0    0 -0.22626983389E+02  0.74927021516E+01 -0.23691269728E+02  0.33606505682E+02  0.00000000000E+00 0.  1.
</event>
<event>
 8    1  0.3186330E-007  0.9118800E+02  0.7816164E-02  0.1184000E+00
        -11   -1    0    0    0    0  0.00000000000E+00  0.00000000000E+00  0.45593999997E+02  0.45594000000E+02  0.51100000000E-03 0.  1.
         11   -1    0    0    0    0 -0.00000000000E+00 -0.00000000000E+00 -0.45593999997E+02  0.45594000000E+02  0.51100000000E-03 0. -1.
         23    2    1    2    0    0 -0.44408920985E-15  0.35527136788E-14  0.00000000000E+00  0.91188000000E+02  0.91188000000E+02 0.  0.
    9900012    2    3    3    0    0 -0.15945774704E+01  0.28693009448E+02  0.23020641075E+02  0.54367063239E+02  0.39999952265E+02 0.  0.
         12    1    3    3    0    0  0.15945774704E+01 -0.28693009448E+02 -0.23020641075E+02  0.36820936761E+02  0.00000000000E+00 0. -1.
         11    1    4    4    0    0  0.50390798457E+01  0.39993500574E+01 -0.41004418429E+01  0.76289416134E+01  0.51100000000E-03 0. -1.
        -11    1    4    4    0    0 -0.68586145357E+01 -0.39835681417E+01  0.10871381643E+01  0.80057028510E+01  0.51100000000E-03 0.  1.
        -12    1    4    4    0    0  0.22495721961E+00  0.28677227532E+02  0.26033944753E+02  0.38732418774E+02  0.00000000000E+00 0.  1.
</event>
<event>
 8    1  0.3186330E-007  0.9118800E+02  0.7816164E-02  0.1184000E+00
        -11   -1    0    0    0    0  0.00000000000E+00  0.00000000000E+00  0.45593999997E+02  0.45594000000E+02  0.51100000000E-03 0.  1.
         11   -1    0    0    0    0 -0.00000000000E+00 -0.00000000000E+00 -0.45593999997E+02  0.45594000000E+02  0.51100000000E-03 0. -1.
         23    2    1    2    0    0  0.00000000000E+00  0.00000000000E+00  0.71054273576E-14  0.91188000000E+02  0.91188000000E+02 0.  0.
    9900012    2    3    3    0    0  0.92440083408E+01 -0.10517595448E+02  0.34054522417E+02  0.54367054857E+02  0.39999933157E+02 0.  0.
         12    1    3    3    0    0 -0.92440083408E+01  0.10517595448E+02 -0.34054522417E+02  0.36820945143E+02  0.00000000000E+00 0. -1.
         11    1    4    4    0    0  0.74169449797E+01 -0.90342495144E+01  0.25450307719E+02  0.28006193965E+02  0.51100000000E-03 0. -1.
        -11    1    4    4    0    0  0.48119262019E+00  0.85556002130E+01  0.12794958235E+02  0.15399376541E+02  0.51100000000E-03 0.  1.
        -12    1    4    4    0    0  0.13458707409E+01 -0.10038946146E+02 -0.41907435377E+01  0.10961484351E+02  0.00000000000E+00 0.  1.
</event>
<event>
 8    1  0.3186330E-007  0.9118800E+02  0.7816164E-02  0.1184000E+00
        -11   -1    0    0    0    0  0.00000000000E+00  0.00000000000E+00  0.45593999997E+02  0.45594000000E+02  0.51100000000E-03 0.  1.
         11   -1    0    0    0    0 -0.00000000000E+00 -0.00000000000E+00 -0.45593999997E+02  0.45594000000E+02  0.51100000000E-03 0. -1.
         23    2    1    2    0    0  0.00000000000E+00  0.00000000000E+00  0.35527136788E-14  0.91188000000E+02  0.91188000000E+02 0.  0.
    9900012    2    3    3    0    0 -0.12471604611E+02  0.15196932041E+02  0.31133454410E+02  0.54367086805E+02  0.40000005988E+02 0.  0.
         12    1    3    3    0    0  0.12471604611E+02 -0.15196932041E+02 -0.31133454410E+02  0.36820913195E+02  0.00000000000E+00 0. -1.
         11    1    4    4    0    0 -0.17443107446E+02  0.50852821226E+01  0.19827244926E+02  0.26893154022E+02  0.51100000000E-03 0. -1.
        -11    1    4    4    0    0  0.33484357941E+01  0.16006790260E+02  0.13261289610E+02  0.21054480737E+02  0.51100000000E-03 0.  1.
         12    1    4    4    0    0  0.16230670413E+01 -0.58951403414E+01 -0.19550801265E+01  0.64194520456E+01  0.00000000000E+00 0. -1.
</event>
<event>
 8    1  0.3186330E-007  0.9118800E+02  0.7816164E-02  0.1184000E+00
        -11   -1    0    0    0    0  0.00000000000E+00  0.00000000000E+00  0.45593999997E+02  0.45594000000E+02  0.51100000000E-03 0.  1.
         11   -1    0    0    0    0 -0.00000000000E+00 -0.00000000000E+00 -0.45593999997E+02  0.45594000000E+02  0.51100000000E-03 0. -1.
         23    2    1    2    0    0  0.17763568394E-14 -0.13322676296E-14  0.00000000000E+00  0.91188000000E+02  0.91188000000E+02 0.  0.
    9900012    2    3    3    0    0 -0.97379074846E+01 -0.21566604609E+01 -0.35444332369E+02  0.54367099365E+02  0.40000034621E+02 0.  0.
        -12    1    3    3    0    0  0.97379074846E+01  0.21566604609E+01  0.35444332369E+02  0.36820900635E+02  0.00000000000E+00 0.  1.
         11    1    4    4    0    0  0.75824769861E+01 -0.15465306647E+02 -0.21239509958E+02  0.27345684311E+02  0.51100000000E-03 0. -1.
        -11    1    4    4    0    0 -0.61607534433E+01  0.90800073744E+01 -0.56824531579E+01  0.12356847942E+02  0.51100000000E-03 0.  1.
         12    1    4    4    0    0 -0.11159631027E+02  0.42286388122E+01 -0.85223692534E+01  0.14664567111E+02  0.00000000000E+00 0. -1.
</event>
<event>
 8    1  0.3186330E-007  0.9118800E+02  0.7816164E-02  0.1184000E+00
        -11   -1    0    0    0    0  0.00000000000E+00  0.00000000000E+00  0.45593999997E+02  0.45594000000E+02  0.51100000000E-03 0. -1.
         11   -1    0    0    0    0 -0.00000000000E+00 -0.00000000000E+00 -0.45593999997E+02  0.45594000000E+02  0.51100000000E-03 0.  1.
         23    2    1    2    0    0  0.00000000000E+00  0.00000000000E+00  0.00000000000E+00  0.91188000000E+02  0.91188000000E+02 0.  0.
    9900012    2    3    3    0    0 -0.93503133282E+01 -0.17327127151E+02  0.31114674757E+02  0.54367072800E+02  0.39999974063E+02 0.  0.
        -12    1    3    3    0    0  0.93503133282E+01  0.17327127151E+02 -0.31114674757E+02  0.36820927200E+02  0.00000000000E+00 0.  1.
         11    1    4    4    0    0 -0.13004715598E+02 -0.97730571793E+00  0.32132484050E+02  0.34678152860E+02  0.51100000000E-03 0. -1.
        -11    1    4    4    0    0 -0.16572965017E+00  0.12438627749E+01  0.95582366209E+00  0.15774219644E+01  0.51100000000E-03 0.  1.
         12    1    4    4    0    0  0.38201319196E+01 -0.17593684208E+02 -0.19736329559E+01  0.18111497976E+02  0.00000000000E+00 0. -1.
</event>
<event>
 8    1  0.3186330E-007  0.9118800E+02  0.7816164E-02  0.1184000E+00
        -11   -1    0    0    0    0  0.00000000000E+00  0.00000000000E+00  0.45593999997E+02  0.45594000000E+02  0.51100000000E-03 0.  1.
         11   -1    0    0    0    0 -0.00000000000E+00 -0.00000000000E+00 -0.45593999997E+02  0.45594000000E+02  0.51100000000E-03 0. -1.
         23    2    1    2    0    0  0.00000000000E+00  0.00000000000E+00  0.00000000000E+00  0.91188000000E+02  0.91188000000E+02 0.  0.
    9900012    2    3    3    0    0 -0.25597770377E+02  0.22801798607E+02 -0.13439202612E+02  0.54367081559E+02  0.39999994029E+02 0.  0.
        -12    1    3    3    0    0  0.25597770377E+02 -0.22801798607E+02  0.13439202612E+02  0.36820918441E+02  0.00000000000E+00 0.  1.
         11    1    4    4    0    0 -0.20936441154E+02  0.24921742345E+02 -0.51693170524E+01  0.32956784563E+02  0.51100000000E-03 0. -1.
        -11    1    4    4    0    0 -0.10585377678E+02  0.29459448694E+01 -0.15066840732E+01  0.11090487317E+02  0.51100000000E-03 0.  1.
        -12    1    4    4    0    0  0.59240484544E+01 -0.50658886069E+01 -0.67632014869E+01  0.10319809679E+02  0.00000000000E+00 0.  1.
</event>
<event>
 8    1  0.3186330E-007  0.9118800E+02  0.7816164E-02  0.1184000E+00
        -11   -1    0    0    0    0  0.00000000000E+00  0.00000000000E+00  0.45593999997E+02  0.45594000000E+02  0.51100000000E-03 0.  1.
         11   -1    0    0    0    0 -0.00000000000E+00 -0.00000000000E+00 -0.45593999997E+02  0.45594000000E+02  0.51100000000E-03 0. -1.
         23    2    1    2    0    0  0.35527136788E-14 -0.17763568394E-14  0.00000000000E+00  0.91188000000E+02  0.91188000000E+02 0.  0.
    9900012    2    3    3    0    0  0.29645499816E+02 -0.15900397791E+02  0.14970000965E+02  0.54367092377E+02  0.40000018693E+02 0.  0.
         12    1    3    3    0    0 -0.29645499816E+02  0.15900397791E+02 -0.14970000965E+02  0.36820907623E+02  0.00000000000E+00 0. -1.
         11    1    4    4    0    0  0.95692815850E+01 -0.88135388044E+01  0.90520124316E+01  0.15848928848E+02  0.51100000000E-03 0. -1.
        -11    1    4    4    0    0  0.12367379007E+02  0.11442529495E+02 -0.19513645601E+01  0.16961467173E+02  0.51100000000E-03 0.  1.
         12    1    4    4    0    0  0.77088392241E+01 -0.18529388482E+02  0.78693530936E+01  0.21556696356E+02  0.00000000000E+00 0. -1.
</event>
<event>
 8    1  0.3186330E-007  0.9118800E+02  0.7816164E-02  0.1184000E+00
        -11   -1    0    0    0    0  0.00000000000E+00  0.00000000000E+00  0.45593999997E+02  0.45594000000E+02  0.51100000000E-03 0.  1.
         11   -1    0    0    0    0 -0.00000000000E+00 -0.00000000000E+00 -0.45593999997E+02  0.45594000000E+02  0.51100000000E-03 0. -1.
         23    2    1    2    0    0  0.00000000000E+00  0.00000000000E+00 -0.35527136788E-14  0.91188000000E+02  0.91188000000E+02 0.  0.
    9900012    2    3    3    0    0  0.23822083612E+02  0.44308818733E+01 -0.27724751491E+02  0.54366997474E+02  0.39999802341E+02 0.  0.
        -12    1    3    3    0    0 -0.23822083612E+02 -0.44308818733E+01  0.27724751491E+02  0.36821002526E+02  0.00000000000E+00 0.  1.
         11    1    4    4    0    0 -0.13287993215E+01  0.53851023502E+00 -0.18148228875E+02  0.18204777188E+02  0.51100000000E-03 0. -1.
        -11    1    4    4    0    0  0.24552893205E+02 -0.47081582457E+01 -0.11191628238E+02  0.27390944884E+02  0.51100000000E-03 0.  1.
        -12    1    4    4    0    0  0.59798972826E+00  0.86005298839E+01  0.16151056215E+01  0.87712754014E+01  0.00000000000E+00 0.  1.
</event>
<event>
 8    1  0.3186330E-007  0.9118800E+02  0.7816164E-02  0.1184000E+00
        -11   -1    0    0    0    0  0.00000000000E+00  0.00000000000E+00  0.45593999997E+02  0.45594000000E+02  0.51100000000E-03 0.  1.
         11   -1    0    0    0    0 -0.00000000000E+00 -0.00000000000E+00 -0.45593999997E+02  0.45594000000E+02  0.51100000000E-03 0. -1.
         23    2    1    2    0    0 -0.17763568394E-14 -0.71054273576E-14 -0.35527136788E-14  0.91188000000E+02  0.91188000000E+02 0.  0.
    9900012    2    3    3    0    0 -0.88640131023E+01 -0.34120140523E+02 -0.10631334001E+02  0.54367082300E+02  0.39999995720E+02 0.  0.
         12    1    3    3    0    0  0.88640131023E+01  0.34120140523E+02  0.10631334001E+02  0.36820917700E+02  0.00000000000E+00 0. -1.
         11    1    4    4    0    0  0.34633323222E+01  0.69090117665E+01 -0.69716699369E+01  0.10408328220E+02  0.51100000000E-03 0. -1.
        -11    1    4    4    0    0 -0.11685022712E+02 -0.36712876520E+02 -0.60238613278E+01  0.38995665961E+02  0.51100000000E-03 0.  1.
         12    1    4    4    0    0 -0.64232271211E+00 -0.43162757691E+01  0.23641972632E+01  0.49630881194E+01  0.00000000000E+00 0. -1.
</event>
<event>
 8    1  0.3186330E-007  0.9118800E+02  0.7816164E-02  0.1184000E+00
        -11   -1    0    0    0    0  0.00000000000E+00  0.00000000000E+00  0.45593999997E+02  0.45594000000E+02  0.51100000000E-03 0. -1.
         11   -1    0    0    0    0 -0.00000000000E+00 -0.00000000000E+00 -0.45593999997E+02  0.45594000000E+02  0.51100000000E-03 0.  1.
         23    2    1    2    0    0  0.00000000000E+00  0.00000000000E+00  0.00000000000E+00  0.91188000000E+02  0.91188000000E+02 0.  0.
    9900012    2    3    3    0    0  0.94041937297E+01  0.35012033227E+02  0.64418887040E+01  0.54367092074E+02  0.40000018001E+02 0.  0.
         12    1    3    3    0    0 -0.94041937297E+01 -0.35012033227E+02 -0.64418887040E+01  0.36820907926E+02  0.00000000000E+00 0. -1.
         11    1    4    4    0    0  0.66693522189E+01 -0.22211935901E+01  0.73904287004E+01  0.10199627279E+02  0.51100000000E-03 0. -1.
        -11    1    4    4    0    0 -0.71796354734E+01  0.10563925433E+02 -0.77142241281E+01  0.14921559578E+02  0.51100000000E-03 0.  1.
        -12    1    4    4    0    0  0.99144769841E+01  0.26669301385E+02  0.67656841317E+01  0.29245905217E+02  0.00000000000E+00 0.  1.
</event>
<event>
 8    1  0.3186330E-007  0.9118800E+02  0.7816164E-02  0.1184000E+00
        -11   -1    0    0    0    0  0.00000000000E+00  0.00000000000E+00  0.45593999997E+02  0.45594000000E+02  0.51100000000E-03 0. -1.
         11   -1    0    0    0    0 -0.00000000000E+00 -0.00000000000E+00 -0.45593999997E+02  0.45594000000E+02  0.51100000000E-03 0.  1.
         23    2    1    2    0    0  0.00000000000E+00  0.00000000000E+00  0.17763568394E-14  0.91188000000E+02  0.91188000000E+02 0.  0.
    9900012    2    3    3    0    0  0.28939570341E+02 -0.19355851748E+02  0.11984694151E+02  0.54367073582E+02  0.39999975845E+02 0.  0.
         12    1    3    3    0    0 -0.28939570341E+02  0.19355851748E+02 -0.11984694151E+02  0.36820926418E+02  0.00000000000E+00 0. -1.
         11    1    4    4    0    0  0.56194141509E+01 -0.14860719625E+02  0.32129234068E+00  0.15890941829E+02  0.51100000000E-03 0. -1.
        -11    1    4    4    0    0  0.28306277880E+02  0.21126427991E+01  0.92290819661E+01  0.29847689714E+02  0.51100000000E-03 0.  1.
         12    1    4    4    0    0 -0.49861216906E+01 -0.66077749215E+01  0.24343198439E+01  0.86284420395E+01  0.00000000000E+00 0. -1.
</event>
<event>
 8    1  0.3186330E-007  0.9118800E+02  0.7816164E-02  0.1184000E+00
        -11   -1    0    0    0    0  0.00000000000E+00  0.00000000000E+00  0.45593999997E+02  0.45594000000E+02  0.51100000000E-03 0. -1.
         11   -1    0    0    0    0 -0.00000000000E+00 -0.00000000000E+00 -0.45593999997E+02  0.45594000000E+02  0.51100000000E-03 0.  1.
         23    2    1    2    0    0 -0.17763568394E-14  0.35527136788E-14  0.00000000000E+00  0.91188000000E+02  0.91188000000E+02 0.  0.
    9900012    2    3    3    0    0 -0.15102484706E+02 -0.23318268615E+02 -0.24165082686E+02  0.54367110321E+02  0.40000059599E+02 0.  0.
         12    1    3    3    0    0  0.15102484706E+02  0.23318268615E+02  0.24165082686E+02  0.36820889679E+02  0.00000000000E+00 0. -1.
         11    1    4    4    0    0 -0.14148109871E+01 -0.13034061285E+02 -0.39660221089E+01  0.13697363810E+02  0.51100000000E-03 0. -1.
        -11    1    4    4    0    0 -0.23089489803E+02 -0.28772426552E+01 -0.12185210013E+02  0.26265612652E+02  0.51100000000E-03 0.  1.
        -12    1    4    4    0    0  0.94018160840E+01 -0.74069646752E+01 -0.80138505646E+01  0.14404133860E+02  0.00000000000E+00 0.  1.
</event>
<event>
 8    1  0.3186330E-007  0.9118800E+02  0.7816164E-02  0.1184000E+00
        -11   -1    0    0    0    0  0.00000000000E+00  0.00000000000E+00  0.45593999997E+02  0.45594000000E+02  0.51100000000E-03 0.  1.
         11   -1    0    0    0    0 -0.00000000000E+00 -0.00000000000E+00 -0.45593999997E+02  0.45594000000E+02  0.51100000000E-03 0. -1.
         23    2    1    2    0    0  0.00000000000E+00  0.00000000000E+00  0.00000000000E+00  0.91188000000E+02  0.91188000000E+02 0.  0.
    9900012    2    3    3    0    0  0.20518728681E+02 -0.21311684065E+02  0.21921982902E+02  0.54367089654E+02  0.40000012483E+02 0.  0.
         12    1    3    3    0    0 -0.20518728681E+02  0.21311684065E+02 -0.21921982902E+02  0.36820910346E+02  0.00000000000E+00 0. -1.
         11    1    4    4    0    0  0.23346978445E+02 -0.25621426081E+02  0.16884184757E+02  0.38556641090E+02  0.51100000000E-03 0. -1.
        -11    1    4    4    0    0  0.11217513647E+01  0.88772004893E+01  0.30136434471E+01  0.94416662586E+01  0.51100000000E-03 0.  1.
         12    1    4    4    0    0 -0.39500011282E+01 -0.45674584725E+01  0.20241546982E+01  0.63687823054E+01  0.00000000000E+00 0. -1.
</event>
<event>
 8    1  0.3186330E-007  0.9118800E+02  0.7816164E-02  0.1184000E+00
        -11   -1    0    0    0    0  0.00000000000E+00  0.00000000000E+00  0.45593999997E+02  0.45594000000E+02  0.51100000000E-03 0.  1.
         11   -1    0    0    0    0 -0.00000000000E+00 -0.00000000000E+00 -0.45593999997E+02  0.45594000000E+02  0.51100000000E-03 0. -1.
         23    2    1    2    0    0  0.00000000000E+00  0.00000000000E+00  0.17763568394E-14  0.91188000000E+02  0.91188000000E+02 0.  0.
    9900012    2    3    3    0    0  0.20114318632E+02  0.29033906667E+02  0.10403178918E+02  0.54367086351E+02  0.40000004954E+02 0.  0.
         12    1    3    3    0    0 -0.20114318632E+02 -0.29033906667E+02 -0.10403178918E+02  0.36820913649E+02  0.00000000000E+00 0. -1.
         11    1    4    4    0    0  0.87160634975E+01  0.63499843418E+00 -0.80748251121E+01  0.11898562382E+02  0.51100000000E-03 0. -1.
        -11    1    4    4    0    0  0.81668688174E+00  0.22493359564E+02  0.28426397757E+01  0.22686974304E+02  0.51100000000E-03 0.  1.
        -12    1    4    4    0    0  0.10581568252E+02  0.59055486689E+01  0.15635364254E+02  0.19781549664E+02  0.00000000000E+00 0.  1.
</event>
<event>
 8    1  0.3186330E-007  0.9118800E+02  0.7816164E-02  0.1184000E+00
        -11   -1    0    0    0    0  0.00000000000E+00  0.00000000000E+00  0.45593999997E+02  0.45594000000E+02  0.51100000000E-03 0.  1.
         11   -1    0    0    0    0 -0.00000000000E+00 -0.00000000000E+00 -0.45593999997E+02  0.45594000000E+02  0.51100000000E-03 0. -1.
         23    2    1    2    0    0  0.00000000000E+00  0.00000000000E+00 -0.88817841970E-15  0.91188000000E+02  0.91188000000E+02 0.  0.
    9900012    2    3    3    0    0 -0.28528153095E+02 -0.22186256886E+02 -0.70490070495E+01  0.54367163317E+02  0.40000180413E+02 0.  0.
        -12    1    3    3    0    0  0.28528153095E+02  0.22186256886E+02  0.70490070495E+01  0.36820836683E+02  0.00000000000E+00 0.  1.
         11    1    4    4    0    0 -0.67742961597E+01  0.16172613297E+01 -0.12891514356E+02  0.14652568557E+02  0.51100000000E-03 0. -1.
        -11    1    4    4    0    0 -0.58120743133E+01 -0.11748089063E+02  0.13023131456E+02  0.18477006187E+02  0.51100000000E-03 0.  1.
         12    1    4    4    0    0 -0.15941782622E+02 -0.12055429153E+02 -0.71806241496E+01  0.21237588573E+02  0.00000000000E+00 0. -1.
</event>
<event>
 8    1  0.3186330E-007  0.9118800E+02  0.7816164E-02  0.1184000E+00
        -11   -1    0    0    0    0  0.00000000000E+00  0.00000000000E+00  0.45593999997E+02  0.45594000000E+02  0.51100000000E-03 0.  1.
         11   -1    0    0    0    0 -0.00000000000E+00 -0.00000000000E+00 -0.45593999997E+02  0.45594000000E+02  0.51100000000E-03 0. -1.
         23    2    1    2    0    0 -0.35527136788E-14  0.00000000000E+00 -0.17763568394E-14  0.91188000000E+02  0.91188000000E+02 0.  0.
    9900012    2    3    3    0    0  0.20885361453E+02  0.27073289221E+02 -0.13660856623E+02  0.54367077741E+02  0.39999985327E+02 0.  0.
         12    1    3    3    0    0 -0.20885361453E+02 -0.27073289221E+02  0.13660856623E+02  0.36820922259E+02  0.00000000000E+00 0. -1.
         11    1    4    4    0    0  0.17199770984E+02  0.16214888264E+02  0.80529860970E+01  0.24972090595E+02  0.51100000000E-03 0. -1.
        -11    1    4    4    0    0 -0.12361359163E+01  0.13749328511E+02 -0.12897962158E+02  0.18892577765E+02  0.51100000000E-03 0.  1.
         12    1    4    4    0    0  0.49217263850E+01 -0.28909275541E+01 -0.88158805620E+01  0.10502409381E+02  0.00000000000E+00 0. -1.
</event>
<event>
 8    1  0.3186330E-007  0.9118800E+02  0.7816164E-02  0.1184000E+00
        -11   -1    0    0    0    0  0.00000000000E+00  0.00000000000E+00  0.45593999997E+02  0.45594000000E+02  0.51100000000E-03 0.  1.
         11   -1    0    0    0    0 -0.00000000000E+00 -0.00000000000E+00 -0.45593999997E+02  0.45594000000E+02  0.51100000000E-03 0. -1.
         23    2    1    2    0    0  0.00000000000E+00  0.00000000000E+00  0.00000000000E+00  0.91188000000E+02  0.91188000000E+02 0.  0.
    9900012    2    3    3    0    0  0.89708563119E+01 -0.20842031559E+02  0.28998528418E+02  0.54367065833E+02  0.39999958180E+02 0.  0.
         12    1    3    3    0    0 -0.89708563119E+01  0.20842031559E+02 -0.28998528418E+02  0.36820934167E+02  0.00000000000E+00 0. -1.
         11    1    4    4    0    0  0.59571925978E+01 -0.69442788158E+01  0.69184875632E+01  0.11470685348E+02  0.51100000000E-03 0. -1.
        -11    1    4    4    0    0 -0.56133342130E+01 -0.12017484317E+02  0.28861317844E+02  0.31763266807E+02  0.51100000000E-03 0.  1.
         12    1    4    4    0    0  0.86269979271E+01 -0.18802684263E+01 -0.67812769890E+01  0.11133113679E+02  0.00000000000E+00 0. -1.
</event>
<event>
 8    1  0.3186330E-007  0.9118800E+02  0.7816164E-02  0.1184000E+00
        -11   -1    0    0    0    0  0.00000000000E+00  0.00000000000E+00  0.45593999997E+02  0.45594000000E+02  0.51100000000E-03 0. -1.
         11   -1    0    0    0    0 -0.00000000000E+00 -0.00000000000E+00 -0.45593999997E+02  0.45594000000E+02  0.51100000000E-03 0.  1.
         23    2    1    2    0    0 -0.88817841970E-15  0.00000000000E+00 -0.35527136788E-14  0.91188000000E+02  0.91188000000E+02 0.  0.
    9900012    2    3    3    0    0  0.72607661912E+01 -0.21702188290E+02  0.28845731891E+02  0.54367082703E+02  0.39999996638E+02 0.  0.
        -12    1    3    3    0    0 -0.72607661912E+01  0.21702188290E+02 -0.28845731891E+02  0.36820917297E+02  0.00000000000E+00 0.  1.
         11    1    4    4    0    0 -0.14101658802E+02 -0.10230176856E+02  0.18641626654E+02  0.25515163022E+02  0.51100000000E-03 0. -1.
        -11    1    4    4    0    0  0.75914462357E+01 -0.10430149004E+02  0.28729664958E+01  0.13216353542E+02  0.51100000000E-03 0.  1.
        -12    1    4    4    0    0  0.13770978757E+02 -0.10418624300E+01  0.73311387416E+01  0.15635566140E+02  0.00000000000E+00 0.  1.
</event>
<event>
 8    1  0.3186330E-007  0.9118800E+02  0.7816164E-02  0.1184000E+00
        -11   -1    0    0    0    0  0.00000000000E+00  0.00000000000E+00  0.45593999997E+02  0.45594000000E+02  0.51100000000E-03 0.  1.
         11   -1    0    0    0    0 -0.00000000000E+00 -0.00000000000E+00 -0.45593999997E+02  0.45594000000E+02  0.51100000000E-03 0. -1.
         23    2    1    2    0    0  0.00000000000E+00  0.00000000000E+00  0.00000000000E+00  0.91188000000E+02  0.91188000000E+02 0.  0.
    9900012    2    3    3    0    0 -0.16063084779E+02  0.22091540438E+02  0.24692496092E+02  0.54367106274E+02  0.40000050372E+02 0.  0.
         12    1    3    3    0    0  0.16063084779E+02 -0.22091540438E+02 -0.24692496092E+02  0.36820893726E+02  0.00000000000E+00 0. -1.
         11    1    4    4    0    0 -0.28174726766E+01  0.15786511247E+02  0.59705382460E+01  0.17111382669E+02  0.51100000000E-03 0. -1.
        -11    1    4    4    0    0  0.85032460251E+01  0.58522738715E+01  0.44668577683E+01  0.11247538442E+02  0.51100000000E-03 0.  1.
        -12    1    4    4    0    0 -0.21748858127E+02  0.45275531973E+00  0.14255100077E+02  0.26008185162E+02  0.00000000000E+00 0.  1.
</event>
<event>
 8    1  0.3186330E-007  0.9118800E+02  0.7816164E-02  0.1184000E+00
        -11   -1    0    0    0    0  0.00000000000E+00  0.00000000000E+00  0.45593999997E+02  0.45594000000E+02  0.51100000000E-03 0.  1.
         11   -1    0    0    0    0 -0.00000000000E+00 -0.00000000000E+00 -0.45593999997E+02  0.45594000000E+02  0.51100000000E-03 0. -1.
         23    2    1    2    0    0  0.00000000000E+00  0.17763568394E-14  0.00000000000E+00  0.91188000000E+02  0.91188000000E+02 0.  0.
    9900012    2    3    3    0    0 -0.27539996403E+02 -0.10521442410E+02 -0.22059633630E+02  0.54367087625E+02  0.40000007858E+02 0.  0.
        -12    1    3    3    0    0  0.27539996403E+02  0.10521442410E+02  0.22059633630E+02  0.36820912375E+02  0.00000000000E+00 0.  1.
         11    1    4    4    0    0 -0.21039749367E+02 -0.19120381958E+01 -0.21424345737E+01  0.21234805618E+02  0.51100000000E-03 0. -1.
        -11    1    4    4    0    0  0.28282496175E+01 -0.13590302937E+02 -0.17405477238E+02  0.22263107779E+02  0.51100000000E-03 0.  1.
        -12    1    4    4    0    0 -0.93284966538E+01  0.49808987224E+01 -0.25117218176E+01  0.10869174228E+02  0.00000000000E+00 0.  1.
</event>
<event>
 8    1  0.3186330E-007  0.9118800E+02  0.7816164E-02  0.1184000E+00
        -11   -1    0    0    0    0  0.00000000000E+00  0.00000000000E+00  0.45593999997E+02  0.45594000000E+02  0.51100000000E-03 0. -1.
         11   -1    0    0    0    0 -0.00000000000E+00 -0.00000000000E+00 -0.45593999997E+02  0.45594000000E+02  0.51100000000E-03 0.  1.
         23    2    1    2    0    0  0.26645352591E-14  0.00000000000E+00  0.00000000000E+00  0.91188000000E+02  0.91188000000E+02 0.  0.
    9900012    2    3    3    0    0  0.75769325964E+01 -0.24009943867E+02  0.26868089256E+02  0.54367061224E+02  0.39999947673E+02 0.  0.
        -12    1    3    3    0    0 -0.75769325964E+01  0.24009943867E+02 -0.26868089256E+02  0.36820938776E+02  0.00000000000E+00 0.  1.
         11    1    4    4    0    0 -0.10771798385E+01  0.34435294868E+01 -0.40267564430E+00  0.36304765069E+01  0.51100000000E-03 0. -1.
        -11    1    4    4    0    0  0.13576782158E+02 -0.21505216010E+02  0.34127128908E+01  0.25660279401E+02  0.51100000000E-03 0.  1.
         12    1    4    4    0    0 -0.49226697227E+01 -0.59482573438E+01  0.23858052010E+02  0.25076305317E+02  0.00000000000E+00 0. -1.
</event>
<event>
 8    1  0.3186330E-007  0.9118800E+02  0.7816164E-02  0.1184000E+00
        -11   -1    0    0    0    0  0.00000000000E+00  0.00000000000E+00  0.45593999997E+02  0.45594000000E+02  0.51100000000E-03 0. -1.
         11   -1    0    0    0    0 -0.00000000000E+00 -0.00000000000E+00 -0.45593999997E+02  0.45594000000E+02  0.51100000000E-03 0.  1.
         23    2    1    2    0    0  0.00000000000E+00  0.35527136788E-14  0.00000000000E+00  0.91188000000E+02  0.91188000000E+02 0.  0.
    9900012    2    3    3    0    0  0.11068527480E+02 -0.21004186515E+02 -0.28144109941E+02  0.54367094578E+02  0.40000023710E+02 0.  0.
        -12    1    3    3    0    0 -0.11068527480E+02  0.21004186515E+02  0.28144109941E+02  0.36820905422E+02  0.00000000000E+00 0.  1.
         11    1    4    4    0    0 -0.55805969142E+01 -0.24715635449E+02 -0.10147715201E+02  0.27294355124E+02  0.51100000000E-03 0. -1.
        -11    1    4    4    0    0  0.10759599939E+01  0.36706926664E+01 -0.71037370736E+01  0.80681320782E+01  0.51100000000E-03 0.  1.
        -12    1    4    4    0    0  0.15573164400E+02  0.40756267366E-01 -0.10892657666E+02  0.19004607377E+02  0.00000000000E+00 0.  1.
</event>
<event>
 8    1  0.3186330E-007  0.9118800E+02  0.7816164E-02  0.1184000E+00
        -11   -1    0    0    0    0  0.00000000000E+00  0.00000000000E+00  0.45593999997E+02  0.45594000000E+02  0.51100000000E-03 0.  1.
         11   -1    0    0    0    0 -0.00000000000E+00 -0.00000000000E+00 -0.45593999997E+02  0.45594000000E+02  0.51100000000E-03 0. -1.
         23    2    1    2    0    0  0.00000000000E+00  0.00000000000E+00 -0.35527136788E-14  0.91188000000E+02  0.91188000000E+02 0.  0.
    9900012    2    3    3    0    0  0.26358775329E+02  0.23178802258E+02  0.11123786066E+02  0.54367074870E+02  0.39999978782E+02 0.  0.
        -12    1    3    3    0    0 -0.26358775329E+02 -0.23178802258E+02 -0.11123786066E+02  0.36820925130E+02  0.00000000000E+00 0.  1.
         11    1    4    4    0    0  0.45429405661E+01 -0.35768898137E+01 -0.25872576842E+01  0.63345364718E+01  0.51100000000E-03 0. -1.
        -11    1    4    4    0    0  0.15252181877E+02  0.11714764809E+02  0.22351205344E+02  0.29486287443E+02  0.51100000000E-03 0.  1.
        -12    1    4    4    0    0  0.65636528857E+01  0.15040927263E+02 -0.86401615944E+01  0.18546250956E+02  0.00000000000E+00 0.  1.
</event>
<event>
 8    1  0.3186330E-007  0.9118800E+02  0.7816164E-02  0.1184000E+00
        -11   -1    0    0    0    0  0.00000000000E+00  0.00000000000E+00  0.45593999997E+02  0.45594000000E+02  0.51100000000E-03 0.  1.
         11   -1    0    0    0    0 -0.00000000000E+00 -0.00000000000E+00 -0.45593999997E+02  0.45594000000E+02  0.51100000000E-03 0. -1.
         23    2    1    2    0    0  0.00000000000E+00  0.00000000000E+00 -0.35527136788E-14  0.91188000000E+02  0.91188000000E+02 0.  0.
    9900012    2    3    3    0    0 -0.16911847285E+02 -0.20265073077E+02  0.25672882359E+02  0.54367073151E+02  0.39999974862E+02 0.  0.
        -12    1    3    3    0    0  0.16911847285E+02  0.20265073077E+02 -0.25672882359E+02  0.36820926849E+02  0.00000000000E+00 0.  1.
         11    1    4    4    0    0 -0.29193118474E+01 -0.18129177304E+02  0.76518173414E+01  0.19893208898E+02  0.51100000000E-03 0. -1.
        -11    1    4    4    0    0 -0.18395254519E+02 -0.95360219256E+01  0.13699777133E+02  0.24839585277E+02  0.51100000000E-03 0.  1.
         12    1    4    4    0    0  0.44027190823E+01  0.74001261525E+01  0.43212878845E+01  0.96342789751E+01  0.00000000000E+00 0. -1.
</event>
<event>
 8    1  0.3186330E-007  0.9118800E+02  0.7816164E-02  0.1184000E+00
        -11   -1    0    0    0    0  0.00000000000E+00  0.00000000000E+00  0.45593999997E+02  0.45594000000E+02  0.51100000000E-03 0.  1.
         11   -1    0    0    0    0 -0.00000000000E+00 -0.00000000000E+00 -0.45593999997E+02  0.45594000000E+02  0.51100000000E-03 0. -1.
         23    2    1    2    0    0  0.00000000000E+00  0.00000000000E+00  0.35527136788E-14  0.91188000000E+02  0.91188000000E+02 0.  0.
    9900012    2    3    3    0    0  0.22140664761E+02  0.25325664496E+01  0.29311389287E+02  0.54367075639E+02  0.39999980534E+02 0.  0.
         12    1    3    3    0    0 -0.22140664761E+02 -0.25325664496E+01 -0.29311389287E+02  0.36820924361E+02  0.00000000000E+00 0. -1.
         11    1    4    4    0    0 -0.61462507809E+01  0.10469824673E+01  0.65134733894E+01  0.90165351884E+01  0.51100000000E-03 0. -1.
        -11    1    4    4    0    0 -0.26247616476E+01  0.17584888173E+01  0.12306921070E+02  0.12705981391E+02  0.51100000000E-03 0.  1.
         12    1    4    4    0    0  0.30911677190E+02 -0.27290483495E+00  0.10490994827E+02  0.32644559060E+02  0.00000000000E+00 0. -1.
</event>
<event>
 8    1  0.3186330E-007  0.9118800E+02  0.7816164E-02  0.1184000E+00
        -11   -1    0    0    0    0  0.00000000000E+00  0.00000000000E+00  0.45593999997E+02  0.45594000000E+02  0.51100000000E-03 0. -1.
         11   -1    0    0    0    0 -0.00000000000E+00 -0.00000000000E+00 -0.45593999997E+02  0.45594000000E+02  0.51100000000E-03 0.  1.
         23    2    1    2    0    0 -0.88817841970E-15  0.00000000000E+00  0.35527136788E-14  0.91188000000E+02  0.91188000000E+02 0.  0.
    9900012    2    3    3    0    0 -0.65449107828E+01 -0.27651229852E+02  0.23416919852E+02  0.54367102335E+02  0.40000041393E+02 0.  0.
         12    1    3    3    0    0  0.65449107828E+01  0.27651229852E+02 -0.23416919852E+02  0.36820897665E+02  0.00000000000E+00 0. -1.
         11    1    4    4    0    0  0.80149587907E+00 -0.15123518015E+02 -0.52749741180E+01  0.16037099021E+02  0.51100000000E-03 0. -1.
        -11    1    4    4    0    0 -0.98109345692E+00 -0.17152083845E+02  0.22549422132E+02  0.28348420826E+02  0.51100000000E-03 0.  1.
         12    1    4    4    0    0 -0.63653132050E+01  0.46243720083E+01  0.61424718386E+01  0.99815824876E+01  0.00000000000E+00 0. -1.
</event>
<event>
 8    1  0.3186330E-007  0.9118800E+02  0.7816164E-02  0.1184000E+00
        -11   -1    0    0    0    0  0.00000000000E+00  0.00000000000E+00  0.45593999997E+02  0.45594000000E+02  0.51100000000E-03 0.  1.
         11   -1    0    0    0    0 -0.00000000000E+00 -0.00000000000E+00 -0.45593999997E+02  0.45594000000E+02  0.51100000000E-03 0. -1.
         23    2    1    2    0    0  0.71054273576E-14  0.00000000000E+00  0.00000000000E+00  0.91188000000E+02  0.91188000000E+02 0.  0.
    9900012    2    3    3    0    0  0.30710512884E+02 -0.17936367032E+02 -0.95357232545E+01  0.54367097215E+02  0.40000029720E+02 0.  0.
         12    1    3    3    0    0 -0.30710512884E+02  0.17936367032E+02  0.95357232545E+01  0.36820902785E+02  0.00000000000E+00 0. -1.
         11    1    4    4    0    0  0.65848843145E+01  0.36074888842E+01 -0.45992792515E+01  0.88050012708E+01  0.51100000000E-03 0. -1.
        -11    1    4    4    0    0  0.29543365448E+02 -0.21021500653E+02  0.25017460094E+01  0.36345187647E+02  0.51100000000E-03 0.  1.
        -12    1    4    4    0    0 -0.54177368782E+01 -0.52235526331E+00 -0.74381900123E+01  0.92169082973E+01  0.00000000000E+00 0.  1.
</event>
<event>
 8    1  0.3186330E-007  0.9118800E+02  0.7816164E-02  0.1184000E+00
        -11   -1    0    0    0    0  0.00000000000E+00  0.00000000000E+00  0.45593999997E+02  0.45594000000E+02  0.51100000000E-03 0. -1.
         11   -1    0    0    0    0 -0.00000000000E+00 -0.00000000000E+00 -0.45593999997E+02  0.45594000000E+02  0.51100000000E-03 0.  1.
         23    2    1    2    0    0  0.00000000000E+00 -0.26645352591E-14 -0.66613381478E-15  0.91188000000E+02  0.91188000000E+02 0.  0.
    9900012    2    3    3    0    0 -0.36485397893E+02 -0.46354845301E+01 -0.17631876303E+01  0.54367071075E+02  0.39999970131E+02 0.  0.
        -12    1    3    3    0    0  0.36485397893E+02  0.46354845301E+01  0.17631876303E+01  0.36820928925E+02  0.00000000000E+00 0.  1.
         11    1    4    4    0    0 -0.61521248626E+01 -0.97579775707E+01  0.21760094468E+01  0.11738900458E+02  0.51100000000E-03 0. -1.
        -11    1    4    4    0    0 -0.11462125527E+02 -0.45644613950E+01 -0.14411964409E+02  0.18971540470E+02  0.51100000000E-03 0.  1.
        -12    1    4    4    0    0 -0.18871147503E+02  0.96869544355E+01  0.10472767332E+02  0.23656630147E+02  0.00000000000E+00 0.  1.
</event>
<event>
 8    1  0.3186330E-007  0.9118800E+02  0.7816164E-02  0.1184000E+00
        -11   -1    0    0    0    0  0.00000000000E+00  0.00000000000E+00  0.45593999997E+02  0.45594000000E+02  0.51100000000E-03 0. -1.
         11   -1    0    0    0    0 -0.00000000000E+00 -0.00000000000E+00 -0.45593999997E+02  0.45594000000E+02  0.51100000000E-03 0.  1.
         23    2    1    2    0    0  0.00000000000E+00  0.00000000000E+00  0.00000000000E+00  0.91188000000E+02  0.91188000000E+02 0.  0.
    9900012    2    3    3    0    0  0.55671587923E+01  0.28836871825E+02 -0.22208584331E+02  0.54367086762E+02  0.40000005892E+02 0.  0.
        -12    1    3    3    0    0 -0.55671587923E+01 -0.28836871825E+02  0.22208584331E+02  0.36820913238E+02  0.00000000000E+00 0.  1.
         11    1    4    4    0    0 -0.87175017942E+00  0.16934344046E+02 -0.30019563988E+01  0.17220444220E+02  0.51100000000E-03 0. -1.
        -11    1    4    4    0    0 -0.43581815224E+00  0.35972190592E+00 -0.23140645894E+02  0.23147544794E+02  0.51100000000E-03 0.  1.
        -12    1    4    4    0    0  0.68747271239E+01  0.11542805873E+02  0.39340179619E+01  0.13999097748E+02  0.00000000000E+00 0.  1.
</event>
<event>
 8    1  0.3186330E-007  0.9118800E+02  0.7816164E-02  0.1184000E+00
        -11   -1    0    0    0    0  0.00000000000E+00  0.00000000000E+00  0.45593999997E+02  0.45594000000E+02  0.51100000000E-03 0. -1.
         11   -1    0    0    0    0 -0.00000000000E+00 -0.00000000000E+00 -0.45593999997E+02  0.45594000000E+02  0.51100000000E-03 0.  1.
         23    2    1    2    0    0 -0.17763568394E-14 -0.88817841970E-15  0.00000000000E+00  0.91188000000E+02  0.91188000000E+02 0.  0.
    9900012    2    3    3    0    0 -0.10779159109E+02 -0.44870459066E+01 -0.34920716386E+02  0.54367078162E+02  0.39999986287E+02 0.  0.
         12    1    3    3    0    0  0.10779159109E+02  0.44870459066E+01  0.34920716386E+02  0.36820921838E+02  0.00000000000E+00 0. -1.
         11    1    4    4    0    0 -0.16444690538E+02 -0.77537645744E+01 -0.40455030288E+01  0.18625649169E+02  0.51100000000E-03 0. -1.
        -11    1    4    4    0    0  0.95838593836E+01 -0.23663322841E+01 -0.24339201390E+02  0.26264931253E+02  0.51100000000E-03 0.  1.
        -12    1    4    4    0    0 -0.39183279553E+01  0.56330509519E+01 -0.65360119671E+01  0.94764977405E+01  0.00000000000E+00 0.  1.
</event>
<event>
 8    1  0.3186330E-007  0.9118800E+02  0.7816164E-02  0.1184000E+00
        -11   -1    0    0    0    0  0.00000000000E+00  0.00000000000E+00  0.45593999997E+02  0.45594000000E+02  0.51100000000E-03 0. -1.
         11   -1    0    0    0    0 -0.00000000000E+00 -0.00000000000E+00 -0.45593999997E+02  0.45594000000E+02  0.51100000000E-03 0.  1.
         23    2    1    2    0    0  0.00000000000E+00  0.88817841970E-15  0.17763568394E-14  0.91188000000E+02  0.91188000000E+02 0.  0.
    9900012    2    3    3    0    0  0.34078612754E+02 -0.57621342044E+01 -0.12697516403E+02  0.54367068987E+02  0.39999965370E+02 0.  0.
        -12    1    3    3    0    0 -0.34078612754E+02  0.57621342044E+01  0.12697516403E+02  0.36820931013E+02  0.00000000000E+00 0.  1.
         11    1    4    4    0    0  0.15760836706E+02 -0.16548468838E+02 -0.11496568506E+02  0.25581768552E+02  0.51100000000E-03 0.  1.
        -11    1    4    4    0    0  0.33434717600E+01 -0.21187496032E+01  0.64670465176E+01  0.75822552195E+01  0.51100000000E-03 0. -1.
        -12    1    4    4    0    0  0.14974304288E+02  0.12905084237E+02 -0.76679944137E+01  0.21203045216E+02  0.00000000000E+00 0.  1.
</event>
<event>
 8    1  0.3186330E-007  0.9118800E+02  0.7816164E-02  0.1184000E+00
        -11   -1    0    0    0    0  0.00000000000E+00  0.00000000000E+00  0.45593999997E+02  0.45594000000E+02  0.51100000000E-03 0. -1.
         11   -1    0    0    0    0 -0.00000000000E+00 -0.00000000000E+00 -0.45593999997E+02  0.45594000000E+02  0.51100000000E-03 0.  1.
         23    2    1    2    0    0  0.00000000000E+00  0.44408920985E-15 -0.71054273576E-14  0.91188000000E+02  0.91188000000E+02 0.  0.
    9900012    2    3    3    0    0 -0.22108722505E+02 -0.31917277440E+01  0.29271099419E+02  0.54367082059E+02  0.39999995170E+02 0.  0.
        -12    1    3    3    0    0  0.22108722505E+02  0.31917277440E+01 -0.29271099419E+02  0.36820917941E+02  0.00000000000E+00 0.  1.
         11    1    4    4    0    0  0.24441795684E+01 -0.55647628140E+01  0.72933976404E-01  0.60783154381E+01  0.51100000000E-03 0. -1.
        -11    1    4    4    0    0 -0.11554630625E+01  0.11690373376E+00 -0.59183513903E+01  0.60312224973E+01  0.51100000000E-03 0.  1.
         12    1    4    4    0    0 -0.23397439011E+02  0.22561313362E+01  0.35116516833E+02  0.42257544124E+02  0.00000000000E+00 0. -1.
</event>
<event>
 8    1  0.3186330E-007  0.9118800E+02  0.7816164E-02  0.1184000E+00
        -11   -1    0    0    0    0  0.00000000000E+00  0.00000000000E+00  0.45593999997E+02  0.45594000000E+02  0.51100000000E-03 0.  1.
         11   -1    0    0    0    0 -0.00000000000E+00 -0.00000000000E+00 -0.45593999997E+02  0.45594000000E+02  0.51100000000E-03 0. -1.
         23    2    1    2    0    0  0.71054273576E-14 -0.17763568394E-14  0.17763568394E-14  0.91188000000E+02  0.91188000000E+02 0.  0.
    9900012    2    3    3    0    0 -0.32373462490E+02  0.11151221416E+02 -0.13542113757E+02  0.54367086681E+02  0.40000005706E+02 0.  0.
        -12    1    3    3    0    0  0.32373462490E+02 -0.11151221416E+02  0.13542113757E+02  0.36820913319E+02  0.00000000000E+00 0.  1.
         11    1    4    4    0    0 -0.54247871940E+01 -0.77369951779E+01  0.31839062165E+01  0.99712922703E+01  0.51100000000E-03 0. -1.
        -11    1    4    4    0    0 -0.13922099091E+02  0.73155169388E+01  0.50393950584E+01  0.16514755039E+02  0.51100000000E-03 0.  1.
         12    1    4    4    0    0 -0.13026576205E+02  0.11572699655E+02 -0.21765415032E+02  0.27881039372E+02  0.00000000000E+00 0. -1.
</event>
<event>
 8    1  0.3186330E-007  0.9118800E+02  0.7816164E-02  0.1184000E+00
        -11   -1    0    0    0    0  0.00000000000E+00  0.00000000000E+00  0.45593999997E+02  0.45594000000E+02  0.51100000000E-03 0.  1.
         11   -1    0    0    0    0 -0.00000000000E+00 -0.00000000000E+00 -0.45593999997E+02  0.45594000000E+02  0.51100000000E-03 0. -1.
         23    2    1    2    0    0  0.35527136788E-14  0.00000000000E+00  0.35527136788E-14  0.91188000000E+02  0.91188000000E+02 0.  0.
    9900012    2    3    3    0    0  0.12509356055E+02 -0.26946651518E+02  0.21752559175E+02  0.54367084101E+02  0.39999999825E+02 0.  0.
         12    1    3    3    0    0 -0.12509356055E+02  0.26946651518E+02 -0.21752559175E+02  0.36820915899E+02  0.00000000000E+00 0. -1.
         11    1    4    4    0    0 -0.77456162812E+01 -0.56673050581E-01  0.23280789082E+01  0.80881230872E+01  0.51100000000E-03 0. -1.
        -11    1    4    4    0    0  0.13547703761E+02 -0.24679376200E+02  0.28922866766E+01  0.28301540758E+02  0.51100000000E-03 0.  1.
        -12    1    4    4    0    0  0.67072685757E+01 -0.22106022675E+01  0.16532193591E+02  0.17977420256E+02  0.00000000000E+00 0.  1.
</event>
<event>
 8    1  0.3186330E-007  0.9118800E+02  0.7816164E-02  0.1184000E+00
        -11   -1    0    0    0    0  0.00000000000E+00  0.00000000000E+00  0.45593999997E+02  0.45594000000E+02  0.51100000000E-03 0.  1.
         11   -1    0    0    0    0 -0.00000000000E+00 -0.00000000000E+00 -0.45593999997E+02  0.45594000000E+02  0.51100000000E-03 0. -1.
         23    2    1    2    0    0  0.00000000000E+00  0.17763568394E-14  0.00000000000E+00  0.91188000000E+02  0.91188000000E+02 0.  0.
    9900012    2    3    3    0    0  0.33536518666E+02 -0.11285222216E+02  0.10184221734E+02  0.54367181201E+02  0.40000221184E+02 0.  0.
         12    1    3    3    0    0 -0.33536518666E+02  0.11285222216E+02 -0.10184221734E+02  0.36820818799E+02  0.00000000000E+00 0. -1.
         11    1    4    4    0    0  0.34666373921E+02 -0.16457577241E+02  0.28995342829E+01  0.38483978859E+02  0.51100000000E-03 0. -1.
        -11    1    4    4    0    0  0.24191215993E+01 -0.11489401762E+01 -0.25281933898E+01  0.36829302081E+01  0.51100000000E-03 0.  1.
        -12    1    4    4    0    0 -0.35489768549E+01  0.63212952014E+01  0.98128808412E+01  0.12200272134E+02  0.00000000000E+00 0.  1.
</event>
<event>
 8    1  0.3186330E-007  0.9118800E+02  0.7816164E-02  0.1184000E+00
        -11   -1    0    0    0    0  0.00000000000E+00  0.00000000000E+00  0.45593999997E+02  0.45594000000E+02  0.51100000000E-03 0. -1.
         11   -1    0    0    0    0 -0.00000000000E+00 -0.00000000000E+00 -0.45593999997E+02  0.45594000000E+02  0.51100000000E-03 0.  1.
         23    2    1    2    0    0  0.00000000000E+00  0.00000000000E+00  0.00000000000E+00  0.91188000000E+02  0.91188000000E+02 0.  0.
    9900012    2    3    3    0    0  0.71659309178E+01  0.27432352133E+02  0.23492463141E+02  0.54367077498E+02  0.39999984771E+02 0.  0.
        -12    1    3    3    0    0 -0.71659309178E+01 -0.27432352133E+02 -0.23492463141E+02  0.36820922502E+02  0.00000000000E+00 0.  1.
         11    1    4    4    0    0  0.91685931781E+01 -0.56965199882E+01  0.73544828341E+01  0.13061464652E+02  0.51100000000E-03 0.  1.
        -11    1    4    4    0    0 -0.49637982851E+00  0.24822959955E+02  0.20890021986E+01  0.24915650991E+02  0.51100000000E-03 0. -1.
        -12    1    4    4    0    0 -0.15062824318E+01  0.83059121661E+01  0.14048978109E+02  0.16389961854E+02  0.00000000000E+00 0.  1.
</event>
<event>
 8    1  0.3186330E-007  0.9118800E+02  0.7816164E-02  0.1184000E+00
        -11   -1    0    0    0    0  0.00000000000E+00  0.00000000000E+00  0.45593999997E+02  0.45594000000E+02  0.51100000000E-03 0. -1.
         11   -1    0    0    0    0 -0.00000000000E+00 -0.00000000000E+00 -0.45593999997E+02  0.45594000000E+02  0.51100000000E-03 0.  1.
         23    2    1    2    0    0  0.35527136788E-14  0.35527136788E-14  0.00000000000E+00  0.91188000000E+02  0.91188000000E+02 0.  0.
    9900012    2    3    3    0    0 -0.68001369784E+01  0.16807711748E+02 -0.32047443171E+02  0.54367086772E+02  0.40000005914E+02 0.  0.
         12    1    3    3    0    0  0.68001369784E+01 -0.16807711748E+02  0.32047443171E+02  0.36820913228E+02  0.00000000000E+00 0. -1.
         11    1    4    4    0    0  0.10008830322E+02 -0.12003566285E+01 -0.88559156996E+01  0.13418076747E+02  0.51100000000E-03 0. -1.
        -11    1    4    4    0    0  0.50465388331E+01  0.81944607672E+01 -0.85383384455E+01  0.12865456274E+02  0.51100000000E-03 0.  1.
        -12    1    4    4    0    0 -0.21855506133E+02  0.98136076097E+01 -0.14653189026E+02  0.28083553751E+02  0.00000000000E+00 0.  1.
</event>
<event>
 8    1  0.3186330E-007  0.9118800E+02  0.7816164E-02  0.1184000E+00
        -11   -1    0    0    0    0  0.00000000000E+00  0.00000000000E+00  0.45593999997E+02  0.45594000000E+02  0.51100000000E-03 0. -1.
         11   -1    0    0    0    0 -0.00000000000E+00 -0.00000000000E+00 -0.45593999997E+02  0.45594000000E+02  0.51100000000E-03 0.  1.
         23    2    1    2    0    0  0.00000000000E+00 -0.88817841970E-15  0.00000000000E+00  0.91188000000E+02  0.91188000000E+02 0.  0.
    9900012    2    3    3    0    0  0.18350107177E+02  0.57308747323E+01 -0.31404001034E+02  0.54367073347E+02  0.39999975310E+02 0.  0.
         12    1    3    3    0    0 -0.18350107177E+02 -0.57308747323E+01  0.31404001034E+02  0.36820926653E+02  0.00000000000E+00 0. -1.
         11    1    4    4    0    0  0.57092233118E+01  0.13487953742E+02 -0.12599887500E+02  0.19320385406E+02  0.51100000000E-03 0. -1.
        -11    1    4    4    0    0 -0.65096925832E+01  0.11745592197E+01  0.21318805342E+00  0.66182426894E+01  0.51100000000E-03 0.  1.
         12    1    4    4    0    0  0.19150576449E+02 -0.89316382293E+01 -0.19017301587E+02  0.28428445252E+02  0.00000000000E+00 0. -1.
</event>
<event>
 8    1  0.3186330E-007  0.9118800E+02  0.7816164E-02  0.1184000E+00
        -11   -1    0    0    0    0  0.00000000000E+00  0.00000000000E+00  0.45593999997E+02  0.45594000000E+02  0.51100000000E-03 0.  1.
         11   -1    0    0    0    0 -0.00000000000E+00 -0.00000000000E+00 -0.45593999997E+02  0.45594000000E+02  0.51100000000E-03 0. -1.
         23    2    1    2    0    0  0.00000000000E+00  0.00000000000E+00  0.31086244690E-14  0.91188000000E+02  0.91188000000E+02 0.  0.
    9900012    2    3    3    0    0  0.67934800290E+01 -0.36067063251E+02  0.29657256703E+01  0.54367082695E+02  0.39999996619E+02 0.  0.
        -12    1    3    3    0    0 -0.67934800290E+01  0.36067063251E+02 -0.29657256703E+01  0.36820917305E+02  0.00000000000E+00 0.  1.
         11    1    4    4    0    0 -0.57264350247E+00 -0.76313899108E+01 -0.99241490256E+01  0.12532149325E+02  0.51100000000E-03 0. -1.
        -11    1    4    4    0    0 -0.59457966231E+00 -0.76235325731E+01 -0.81592121795E+01  0.11182330594E+02  0.51100000000E-03 0.  1.
        -12    1    4    4    0    0  0.79607031937E+01 -0.20812140767E+02  0.21049086875E+02  0.30652602776E+02  0.00000000000E+00 0.  1.
</event>
<event>
 8    1  0.3186330E-007  0.9118800E+02  0.7816164E-02  0.1184000E+00
        -11   -1    0    0    0    0  0.00000000000E+00  0.00000000000E+00  0.45593999997E+02  0.45594000000E+02  0.51100000000E-03 0.  1.
         11   -1    0    0    0    0 -0.00000000000E+00 -0.00000000000E+00 -0.45593999997E+02  0.45594000000E+02  0.51100000000E-03 0. -1.
         23    2    1    2    0    0  0.35527136788E-14  0.00000000000E+00 -0.35527136788E-14  0.91188000000E+02  0.91188000000E+02 0.  0.
    9900012    2    3    3    0    0  0.29284369505E+02 -0.17118895563E+02  0.14323072178E+02  0.54367064662E+02  0.39999955509E+02 0.  0.
         12    1    3    3    0    0 -0.29284369505E+02  0.17118895563E+02 -0.14323072178E+02  0.36820935338E+02  0.00000000000E+00 0. -1.
         11    1    4    4    0    0 -0.40924054874E+01 -0.37018795852E+01  0.16644980208E+02  0.17535879263E+02  0.51100000000E-03 0. -1.
        -11    1    4    4    0    0  0.21547691549E+02 -0.48318666618E+01 -0.37541624254E+00  0.22085988412E+02  0.51100000000E-03 0.  1.
         12    1    4    4    0    0  0.11829083443E+02 -0.85851493162E+01 -0.19464917880E+01  0.14745196986E+02  0.00000000000E+00 0. -1.
</event>
<event>
 8    1  0.3186330E-007  0.9118800E+02  0.7816164E-02  0.1184000E+00
        -11   -1    0    0    0    0  0.00000000000E+00  0.00000000000E+00  0.45593999997E+02  0.45594000000E+02  0.51100000000E-03 0. -1.
         11   -1    0    0    0    0 -0.00000000000E+00 -0.00000000000E+00 -0.45593999997E+02  0.45594000000E+02  0.51100000000E-03 0.  1.
         23    2    1    2    0    0  0.17763568394E-14  0.00000000000E+00  0.00000000000E+00  0.91188000000E+02  0.91188000000E+02 0.  0.
    9900012    2    3    3    0    0  0.88542166172E+01 -0.19760383695E+02  0.29781036054E+02  0.54367081704E+02  0.39999994361E+02 0.  0.
        -12    1    3    3    0    0 -0.88542166172E+01  0.19760383695E+02 -0.29781036054E+02  0.36820918296E+02  0.00000000000E+00 0.  1.
         11    1    4    4    0    0  0.66964227218E+00 -0.15572059622E+02  0.13418723297E+02  0.20566954000E+02  0.51100000000E-03 0. -1.
        -11    1    4    4    0    0  0.18439461903E+02 -0.91227714111E-01  0.89242430941E+01  0.20485707037E+02  0.51100000000E-03 0.  1.
         12    1    4    4    0    0 -0.10254887557E+02 -0.40970963587E+01  0.74380696624E+01  0.13314420667E+02  0.00000000000E+00 0. -1.
</event>
<event>
 8    1  0.3186330E-007  0.9118800E+02  0.7816164E-02  0.1184000E+00
        -11   -1    0    0    0    0  0.00000000000E+00  0.00000000000E+00  0.45593999997E+02  0.45594000000E+02  0.51100000000E-03 0. -1.
         11   -1    0    0    0    0 -0.00000000000E+00 -0.00000000000E+00 -0.45593999997E+02  0.45594000000E+02  0.51100000000E-03 0.  1.
         23    2    1    2    0    0  0.00000000000E+00  0.35527136788E-14  0.00000000000E+00  0.91188000000E+02  0.91188000000E+02 0.  0.
    9900012    2    3    3    0    0  0.23567307117E+02 -0.25522826018E+02  0.12204406151E+02  0.54367080101E+02  0.39999990706E+02 0.  0.
         12    1    3    3    0    0 -0.23567307117E+02  0.25522826018E+02 -0.12204406151E+02  0.36820919899E+02  0.00000000000E+00 0. -1.
         11    1    4    4    0    0 -0.18860613489E+01 -0.13771374048E+02  0.66341684652E+01  0.15401953190E+02  0.51100000000E-03 0. -1.
        -11    1    4    4    0    0  0.13845241928E+02 -0.99589707231E+00 -0.97312390246E+01  0.16952272657E+02  0.51100000000E-03 0.  1.
        -12    1    4    4    0    0  0.11608126538E+02 -0.10755554897E+02  0.15301476711E+02  0.22012854254E+02  0.00000000000E+00 0.  1.
</event>
<event>
 8    1  0.3186330E-007  0.9118800E+02  0.7816164E-02  0.1184000E+00
        -11   -1    0    0    0    0  0.00000000000E+00  0.00000000000E+00  0.45593999997E+02  0.45594000000E+02  0.51100000000E-03 0.  1.
         11   -1    0    0    0    0 -0.00000000000E+00 -0.00000000000E+00 -0.45593999997E+02  0.45594000000E+02  0.51100000000E-03 0. -1.
         23    2    1    2    0    0  0.00000000000E+00  0.17763568394E-14  0.00000000000E+00  0.91188000000E+02  0.91188000000E+02 0.  0.
    9900012    2    3    3    0    0  0.17219911849E+02  0.14162670654E+02  0.29303134534E+02  0.54367077990E+02  0.39999985895E+02 0.  0.
         12    1    3    3    0    0 -0.17219911849E+02 -0.14162670654E+02 -0.29303134534E+02  0.36820922010E+02  0.00000000000E+00 0. -1.
         11    1    4    4    0    0 -0.31728793751E+01  0.77877263864E+01 -0.11484314502E+01  0.84873282519E+01  0.51100000000E-03 0. -1.
        -11    1    4    4    0    0  0.25262672482E+02  0.12805059633E+01  0.16361512199E+02  0.30125427767E+02  0.51100000000E-03 0.  1.
         12    1    4    4    0    0 -0.48698812583E+01  0.50944383045E+01  0.14090053785E+02  0.15754321972E+02  0.00000000000E+00 0. -1.
</event>
<event>
 8    1  0.3186330E-007  0.9118800E+02  0.7816164E-02  0.1184000E+00
        -11   -1    0    0    0    0  0.00000000000E+00  0.00000000000E+00  0.45593999997E+02  0.45594000000E+02  0.51100000000E-03 0. -1.
         11   -1    0    0    0    0 -0.00000000000E+00 -0.00000000000E+00 -0.45593999997E+02  0.45594000000E+02  0.51100000000E-03 0.  1.
         23    2    1    2    0    0  0.35527136788E-14 -0.17763568394E-14  0.00000000000E+00  0.91188000000E+02  0.91188000000E+02 0.  0.
    9900012    2    3    3    0    0  0.27614027973E+02  0.11672848768E+02  0.21377356680E+02  0.54367064137E+02  0.39999954312E+02 0.  0.
        -12    1    3    3    0    0 -0.27614027973E+02 -0.11672848768E+02 -0.21377356680E+02  0.36820935863E+02  0.00000000000E+00 0.  1.
         11    1    4    4    0    0  0.89726731767E+00  0.24052214025E+01  0.17771821676E+00  0.25732785819E+01  0.51100000000E-03 0. -1.
        -11    1    4    4    0    0 -0.83937835392E+01  0.76957920955E+01  0.14514679870E+01  0.11479877075E+02  0.51100000000E-03 0.  1.
         12    1    4    4    0    0  0.35110544195E+02  0.15718352698E+01  0.19748170476E+02  0.40313908480E+02  0.00000000000E+00 0. -1.
</event>
<event>
 8    1  0.3186330E-007  0.9118800E+02  0.7816164E-02  0.1184000E+00
        -11   -1    0    0    0    0  0.00000000000E+00  0.00000000000E+00  0.45593999997E+02  0.45594000000E+02  0.51100000000E-03 0. -1.
         11   -1    0    0    0    0 -0.00000000000E+00 -0.00000000000E+00 -0.45593999997E+02  0.45594000000E+02  0.51100000000E-03 0.  1.
         23    2    1    2    0    0  0.35527136788E-14 -0.88817841970E-15 -0.35527136788E-14  0.91188000000E+02  0.91188000000E+02 0.  0.
    9900012    2    3    3    0    0 -0.23230278324E+02 -0.33661167839E+01  0.28369049598E+02  0.54367088165E+02  0.40000009091E+02 0.  0.
        -12    1    3    3    0    0  0.23230278324E+02  0.33661167839E+01 -0.28369049598E+02  0.36820911835E+02  0.00000000000E+00 0.  1.
         11    1    4    4    0    0 -0.32601556681E+01  0.29647277220E+01 -0.21385933796E+01  0.48981432554E+01  0.51100000000E-03 0. -1.
        -11    1    4    4    0    0  0.37781062040E+01 -0.13564819820E+02  0.10040451209E+02  0.17294192204E+02  0.51100000000E-03 0.  1.
         12    1    4    4    0    0 -0.23748228860E+02  0.72339753136E+01  0.20467191768E+02  0.32174752706E+02  0.00000000000E+00 0. -1.
</event>
<event>
 8    1  0.3186330E-007  0.9118800E+02  0.7816164E-02  0.1184000E+00
        -11   -1    0    0    0    0  0.00000000000E+00  0.00000000000E+00  0.45593999997E+02  0.45594000000E+02  0.51100000000E-03 0. -1.
         11   -1    0    0    0    0 -0.00000000000E+00 -0.00000000000E+00 -0.45593999997E+02  0.45594000000E+02  0.51100000000E-03 0.  1.
         23    2    1    2    0    0 -0.35527136788E-14  0.71054273576E-14  0.00000000000E+00  0.91188000000E+02  0.91188000000E+02 0.  0.
    9900012    2    3    3    0    0 -0.30305696172E+02  0.14839013966E+02  0.14735836697E+02  0.54367130386E+02  0.40000105342E+02 0.  0.
        -12    1    3    3    0    0  0.30305696172E+02 -0.14839013966E+02 -0.14735836697E+02  0.36820869614E+02  0.00000000000E+00 0.  1.
         11    1    4    4    0    0 -0.14926050052E+01  0.23407767299E+01 -0.49701273869E+01  0.56929141838E+01  0.51100000000E-03 0. -1.
        -11    1    4    4    0    0 -0.14286034850E+02  0.22438462127E+02  0.90497375477E+01  0.28097564384E+02  0.51100000000E-03 0.  1.
         12    1    4    4    0    0 -0.14527056316E+02 -0.99402248904E+01  0.10656226536E+02  0.20576651819E+02  0.00000000000E+00 0. -1.
</event>
<event>
 8    1  0.3186330E-007  0.9118800E+02  0.7816164E-02  0.1184000E+00
        -11   -1    0    0    0    0  0.00000000000E+00  0.00000000000E+00  0.45593999997E+02  0.45594000000E+02  0.51100000000E-03 0. -1.
         11   -1    0    0    0    0 -0.00000000000E+00 -0.00000000000E+00 -0.45593999997E+02  0.45594000000E+02  0.51100000000E-03 0.  1.
         23    2    1    2    0    0  0.00000000000E+00  0.00000000000E+00  0.00000000000E+00  0.91188000000E+02  0.91188000000E+02 0.  0.
    9900012    2    3    3    0    0  0.23935817142E+02  0.21033543180E+02  0.18451166004E+02  0.54367098220E+02  0.40000032013E+02 0.  0.
         12    1    3    3    0    0 -0.23935817142E+02 -0.21033543180E+02 -0.18451166004E+02  0.36820901780E+02  0.00000000000E+00 0. -1.
         11    1    4    4    0    0 -0.94817898056E+00 -0.50392065909E+01  0.33142871819E+00  0.51383354991E+01  0.51100000000E-03 0. -1.
        -11    1    4    4    0    0  0.25229442882E+01 -0.38747455889E+01 -0.37256860516E+01  0.59379826604E+01  0.51100000000E-03 0.  1.
        -12    1    4    4    0    0  0.22361051834E+02  0.29947495360E+02  0.21845423338E+02  0.43290780061E+02  0.00000000000E+00 0.  1.
</event>
<event>
 8    1  0.3186330E-007  0.9118800E+02  0.7816164E-02  0.1184000E+00
        -11   -1    0    0    0    0  0.00000000000E+00  0.00000000000E+00  0.45593999997E+02  0.45594000000E+02  0.51100000000E-03 0.  1.
         11   -1    0    0    0    0 -0.00000000000E+00 -0.00000000000E+00 -0.45593999997E+02  0.45594000000E+02  0.51100000000E-03 0. -1.
         23    2    1    2    0    0  0.00000000000E+00  0.00000000000E+00  0.00000000000E+00  0.91188000000E+02  0.91188000000E+02 0.  0.
    9900012    2    3    3    0    0  0.25029649874E+02  0.57817918753E+01  0.26379315823E+02  0.54367071258E+02  0.39999970547E+02 0.  0.
         12    1    3    3    0    0 -0.25029649874E+02 -0.57817918753E+01 -0.26379315823E+02  0.36820928742E+02  0.00000000000E+00 0. -1.
         11    1    4    4    0    0  0.81315631222E+01  0.47121528789E+01 -0.14982319044E+01  0.95169008961E+01  0.51100000000E-03 0. -1.
        -11    1    4    4    0    0  0.21973919226E+02  0.10942860686E+01  0.65915670281E+01  0.22967353881E+02  0.51100000000E-03 0.  1.
        -12    1    4    4    0    0 -0.50758324743E+01 -0.24647072248E-01  0.21285980700E+02  0.21882816481E+02  0.00000000000E+00 0.  1.
</event>
<event>
 8    1  0.3186330E-007  0.9118800E+02  0.7816164E-02  0.1184000E+00
        -11   -1    0    0    0    0  0.00000000000E+00  0.00000000000E+00  0.45593999997E+02  0.45594000000E+02  0.51100000000E-03 0. -1.
         11   -1    0    0    0    0 -0.00000000000E+00 -0.00000000000E+00 -0.45593999997E+02  0.45594000000E+02  0.51100000000E-03 0.  1.
         23    2    1    2    0    0  0.00000000000E+00  0.00000000000E+00  0.00000000000E+00  0.91188000000E+02  0.91188000000E+02 0.  0.
    9900012    2    3    3    0    0  0.83211462575E+01  0.35491912387E+02  0.51827571113E+01  0.54367105236E+02  0.40000048006E+02 0.  0.
        -12    1    3    3    0    0 -0.83211462575E+01 -0.35491912387E+02 -0.51827571113E+01  0.36820894764E+02  0.00000000000E+00 0.  1.
         11    1    4    4    0    0  0.18154360569E+01 -0.35178759943E+01 -0.38113235933E+00  0.39769990853E+01  0.51100000000E-03 0.  1.
        -11    1    4    4    0    0  0.31385773321E+01  0.25033400063E+02  0.18312980776E+02  0.31175103072E+02  0.51100000000E-03 0. -1.
         12    1    4    4    0    0  0.33671328684E+01  0.13976388319E+02 -0.12749091306E+02  0.19215003079E+02  0.00000000000E+00 0. -1.
</event>
<event>
 8    1  0.3186330E-007  0.9118800E+02  0.7816164E-02  0.1184000E+00
        -11   -1    0    0    0    0  0.00000000000E+00  0.00000000000E+00  0.45593999997E+02  0.45594000000E+02  0.51100000000E-03 0.  1.
         11   -1    0    0    0    0 -0.00000000000E+00 -0.00000000000E+00 -0.45593999997E+02  0.45594000000E+02  0.51100000000E-03 0. -1.
         23    2    1    2    0    0  0.00000000000E+00 -0.35527136788E-14  0.88817841970E-15  0.91188000000E+02  0.91188000000E+02 0.  0.
    9900012    2    3    3    0    0  0.32293463894E+02 -0.16981152680E+02 -0.49544262101E+01  0.54367167640E+02  0.40000190268E+02 0.  0.
        -12    1    3    3    0    0 -0.32293463894E+02  0.16981152680E+02  0.49544262101E+01  0.36820832360E+02  0.00000000000E+00 0.  1.
         11    1    4    4    0    0  0.58861130369E+01  0.50571900775E+01  0.58652711453E+01  0.97274304948E+01  0.51100000000E-03 0. -1.
        -11    1    4    4    0    0  0.64651076065E+01  0.12034380693E+01  0.66749900059E+01  0.93702385983E+01  0.51100000000E-03 0.  1.
        -12    1    4    4    0    0  0.19942243251E+02 -0.23241780827E+02 -0.17494687361E+02  0.35269498547E+02  0.00000000000E+00 0.  1.
</event>
<event>
 8    1  0.3186330E-007  0.9118800E+02  0.7816164E-02  0.1184000E+00
        -11   -1    0    0    0    0  0.00000000000E+00  0.00000000000E+00  0.45593999997E+02  0.45594000000E+02  0.51100000000E-03 0.  1.
         11   -1    0    0    0    0 -0.00000000000E+00 -0.00000000000E+00 -0.45593999997E+02  0.45594000000E+02  0.51100000000E-03 0. -1.
         23    2    1    2    0    0  0.35527136788E-14 -0.35527136788E-14  0.17763568394E-14  0.91188000000E+02  0.91188000000E+02 0.  0.
    9900012    2    3    3    0    0  0.26959092444E+02  0.23710121624E+02 -0.81748769499E+01  0.54366930678E+02  0.39999650065E+02 0.  0.
        -12    1    3    3    0    0 -0.26959092444E+02 -0.23710121624E+02  0.81748769499E+01  0.36821069322E+02  0.00000000000E+00 0.  1.
         11    1    4    4    0    0  0.10576727807E+02 -0.56992290575E+01 -0.88626327002E+01  0.14929656446E+02  0.51100000000E-03 0. -1.
        -11    1    4    4    0    0  0.19525454993E+02  0.28857343269E+02 -0.24932439365E+01  0.34931445988E+02  0.51100000000E-03 0.  1.
        -12    1    4    4    0    0 -0.31430903551E+01  0.55200741334E+00  0.31809996868E+01  0.45058282448E+01  0.00000000000E+00 0.  1.
</event>
<event>
 8    1  0.3186330E-007  0.9118800E+02  0.7816164E-02  0.1184000E+00
        -11   -1    0    0    0    0  0.00000000000E+00  0.00000000000E+00  0.45593999997E+02  0.45594000000E+02  0.51100000000E-03 0.  1.
         11   -1    0    0    0    0 -0.00000000000E+00 -0.00000000000E+00 -0.45593999997E+02  0.45594000000E+02  0.51100000000E-03 0. -1.
         23    2    1    2    0    0  0.00000000000E+00 -0.35527136788E-14 -0.17763568394E-14  0.91188000000E+02  0.91188000000E+02 0.  0.
    9900012    2    3    3    0    0 -0.27004690240E+02 -0.24079228733E+02  0.68350424688E+01  0.54367077186E+02  0.39999984060E+02 0.  0.
         12    1    3    3    0    0  0.27004690240E+02  0.24079228733E+02 -0.68350424688E+01  0.36820922814E+02  0.00000000000E+00 0. -1.
         11    1    4    4    0    0  0.58554917795E+01 -0.86348252418E+01  0.81231009917E+01  0.13222396187E+02  0.51100000000E-03 0. -1.
        -11    1    4    4    0    0  0.66653576579E+00  0.28005480256E+01  0.54999503715E+00  0.29308418540E+01  0.51100000000E-03 0.  1.
        -12    1    4    4    0    0 -0.33526717785E+02 -0.18244951517E+02 -0.18380535601E+01  0.38213839145E+02  0.00000000000E+00 0.  1.
</event>
<event>
 8    1  0.3186330E-007  0.9118800E+02  0.7816164E-02  0.1184000E+00
        -11   -1    0    0    0    0  0.00000000000E+00  0.00000000000E+00  0.45593999997E+02  0.45594000000E+02  0.51100000000E-03 0.  1.
         11   -1    0    0    0    0 -0.00000000000E+00 -0.00000000000E+00 -0.45593999997E+02  0.45594000000E+02  0.51100000000E-03 0. -1.
         23    2    1    2    0    0  0.13322676296E-14  0.00000000000E+00  0.00000000000E+00  0.91188000000E+02  0.91188000000E+02 0.  0.
    9900012    2    3    3    0    0 -0.28159109788E+01 -0.33338425339E+02 -0.15375299102E+02  0.54367085004E+02  0.40000001883E+02 0.  0.
        -12    1    3    3    0    0  0.28159109788E+01  0.33338425339E+02  0.15375299102E+02  0.36820914996E+02  0.00000000000E+00 0.  1.
         11    1    4    4    0    0  0.10140754194E+01 -0.22600430939E+02 -0.23755134479E+02  0.32804180252E+02  0.51100000000E-03 0. -1.
        -11    1    4    4    0    0  0.56031846035E+01 -0.82778862731E+01  0.30422710299E+01  0.10448659825E+02  0.51100000000E-03 0.  1.
        -12    1    4    4    0    0 -0.94331710016E+01 -0.24601081265E+01  0.53375643478E+01  0.11114244927E+02  0.00000000000E+00 0.  1.
</event>
<event>
 8    1  0.3186330E-007  0.9118800E+02  0.7816164E-02  0.1184000E+00
        -11   -1    0    0    0    0  0.00000000000E+00  0.00000000000E+00  0.45593999997E+02  0.45594000000E+02  0.51100000000E-03 0. -1.
         11   -1    0    0    0    0 -0.00000000000E+00 -0.00000000000E+00 -0.45593999997E+02  0.45594000000E+02  0.51100000000E-03 0.  1.
         23    2    1    2    0    0  0.00000000000E+00  0.00000000000E+00 -0.88817841970E-15  0.91188000000E+02  0.91188000000E+02 0.  0.
    9900012    2    3    3    0    0  0.31203915083E+02  0.18536228723E+02 -0.62051513487E+01  0.54367082100E+02  0.39999995262E+02 0.  0.
         12    1    3    3    0    0 -0.31203915083E+02 -0.18536228723E+02  0.62051513487E+01  0.36820917900E+02  0.00000000000E+00 0. -1.
         11    1    4    4    0    0  0.17819779762E+02  0.65825848247E+01  0.60594626759E+01  0.19939710678E+02  0.51100000000E-03 0. -1.
        -11    1    4    4    0    0  0.18832619380E+02  0.57624056544E+01 -0.56500097339E-01  0.19694569408E+02  0.51100000000E-03 0.  1.
         12    1    4    4    0    0 -0.54484840587E+01  0.61912382438E+01 -0.12208113927E+02  0.14732802014E+02  0.00000000000E+00 0. -1.
</event>
<event>
 8    1  0.3186330E-007  0.9118800E+02  0.7816164E-02  0.1184000E+00
        -11   -1    0    0    0    0  0.00000000000E+00  0.00000000000E+00  0.45593999997E+02  0.45594000000E+02  0.51100000000E-03 0.  1.
         11   -1    0    0    0    0 -0.00000000000E+00 -0.00000000000E+00 -0.45593999997E+02  0.45594000000E+02  0.51100000000E-03 0. -1.
         23    2    1    2    0    0  0.00000000000E+00  0.00000000000E+00  0.35527136788E-14  0.91188000000E+02  0.91188000000E+02 0.  0.
    9900012    2    3    3    0    0  0.73615534779E+01 -0.25821119159E+02  0.25196384259E+02  0.54367076004E+02  0.39999981366E+02 0.  0.
         12    1    3    3    0    0 -0.73615534779E+01  0.25821119159E+02 -0.25196384259E+02  0.36820923996E+02  0.00000000000E+00 0. -1.
         11    1    4    4    0    0  0.88406952522E+01 -0.56585508673E+01  0.12276496128E+02  0.16152072558E+02  0.51100000000E-03 0.  1.
        -11    1    4    4    0    0  0.99178718474E+01 -0.74914654735E+01  0.16641539165E+02  0.20770822395E+02  0.51100000000E-03 0. -1.
         12    1    4    4    0    0 -0.11397013622E+02 -0.12671102818E+02 -0.37216510346E+01  0.17444181051E+02  0.00000000000E+00 0. -1.
</event>
<event>
 8    1  0.3186330E-007  0.9118800E+02  0.7816164E-02  0.1184000E+00
        -11   -1    0    0    0    0  0.00000000000E+00  0.00000000000E+00  0.45593999997E+02  0.45594000000E+02  0.51100000000E-03 0.  1.
         11   -1    0    0    0    0 -0.00000000000E+00 -0.00000000000E+00 -0.45593999997E+02  0.45594000000E+02  0.51100000000E-03 0. -1.
         23    2    1    2    0    0 -0.35527136788E-14 -0.35527136788E-14  0.00000000000E+00  0.91188000000E+02  0.91188000000E+02 0.  0.
    9900012    2    3    3    0    0  0.22154941001E+02  0.21493048897E+02  0.20074533474E+02  0.54367089421E+02  0.40000011954E+02 0.  0.
         12    1    3    3    0    0 -0.22154941001E+02 -0.21493048897E+02 -0.20074533474E+02  0.36820910579E+02  0.00000000000E+00 0. -1.
         11    1    4    4    0    0  0.16702109924E+02  0.14360867009E+02  0.14962512214E+01  0.22077901738E+02  0.51100000000E-03 0. -1.
        -11    1    4    4    0    0 -0.14126183594E+01  0.41681182358E+01  0.23123271152E+02  0.23538359528E+02  0.51100000000E-03 0.  1.
         12    1    4    4    0    0  0.68654494368E+01  0.29640636513E+01 -0.45449888997E+01  0.87508281549E+01  0.00000000000E+00 0. -1.
</event>
<event>
 8    1  0.3186330E-007  0.9118800E+02  0.7816164E-02  0.1184000E+00
        -11   -1    0    0    0    0  0.00000000000E+00  0.00000000000E+00  0.45593999997E+02  0.45594000000E+02  0.51100000000E-03 0. -1.
         11   -1    0    0    0    0 -0.00000000000E+00 -0.00000000000E+00 -0.45593999997E+02  0.45594000000E+02  0.51100000000E-03 0.  1.
         23    2    1    2    0    0  0.17763568394E-14  0.00000000000E+00 -0.35527136788E-14  0.91188000000E+02  0.91188000000E+02 0.  0.
    9900012    2    3    3    0    0 -0.85306106323E+01 -0.22728231917E+02  0.27684609218E+02  0.54367062595E+02  0.39999950798E+02 0.  0.
        -12    1    3    3    0    0  0.85306106323E+01  0.22728231917E+02 -0.27684609218E+02  0.36820937405E+02  0.00000000000E+00 0.  1.
         11    1    4    4    0    0 -0.13385257952E+02 -0.87857350283E+01 -0.57346789099E+01  0.17007081257E+02  0.51100000000E-03 0.  1.
        -11    1    4    4    0    0  0.56869447962E+00 -0.11140109865E+02  0.18686311744E+02  0.21762438008E+02  0.51100000000E-03 0. -1.
        -12    1    4    4    0    0  0.42859528401E+01 -0.28023870233E+01  0.14732976384E+02  0.15597543330E+02  0.00000000000E+00 0.  1.
</event>
<event>
 8    1  0.3186330E-007  0.9118800E+02  0.7816164E-02  0.1184000E+00
        -11   -1    0    0    0    0  0.00000000000E+00  0.00000000000E+00  0.45593999997E+02  0.45594000000E+02  0.51100000000E-03 0.  1.
         11   -1    0    0    0    0 -0.00000000000E+00 -0.00000000000E+00 -0.45593999997E+02  0.45594000000E+02  0.51100000000E-03 0. -1.
         23    2    1    2    0    0  0.00000000000E+00  0.00000000000E+00 -0.88817841970E-15  0.91188000000E+02  0.91188000000E+02 0.  0.
    9900012    2    3    3    0    0 -0.29628221495E+02 -0.21828169591E+02 -0.12173948372E+01  0.54367047448E+02  0.39999916267E+02 0.  0.
         12    1    3    3    0    0  0.29628221495E+02  0.21828169591E+02  0.12173948372E+01  0.36820952552E+02  0.00000000000E+00 0. -1.
         11    1    4    4    0    0 -0.58795797967E+01  0.92394908155E+01  0.38794915715E+01  0.11618438115E+02  0.51100000000E-03 0. -1.
        -11    1    4    4    0    0 -0.40442636745E+01 -0.78264706327E+01 -0.83089721236E+01  0.12109860827E+02  0.51100000000E-03 0.  1.
        -12    1    4    4    0    0 -0.19704378024E+02 -0.23241189773E+02  0.32120857149E+01  0.30638748506E+02  0.00000000000E+00 0.  1.
</event>
<event>
 8    1  0.3186330E-007  0.9118800E+02  0.7816164E-02  0.1184000E+00
        -11   -1    0    0    0    0  0.00000000000E+00  0.00000000000E+00  0.45593999997E+02  0.45594000000E+02  0.51100000000E-03 0.  1.
         11   -1    0    0    0    0 -0.00000000000E+00 -0.00000000000E+00 -0.45593999997E+02  0.45594000000E+02  0.51100000000E-03 0. -1.
         23    2    1    2    0    0  0.00000000000E+00  0.00000000000E+00  0.35527136788E-14  0.91188000000E+02  0.91188000000E+02 0.  0.
    9900012    2    3    3    0    0  0.81979791747E+01  0.24898776840E+02  0.25857772483E+02  0.54367077300E+02  0.39999984321E+02 0.  0.
         12    1    3    3    0    0 -0.81979791747E+01 -0.24898776840E+02 -0.25857772483E+02  0.36820922700E+02  0.00000000000E+00 0. -1.
         11    1    4    4    0    0  0.54503837609E+01  0.69999532508E+01  0.13722521123E+02  0.16340551242E+02  0.51100000000E-03 0. -1.
        -11    1    4    4    0    0  0.44822769111E+01 -0.72964258350E+01  0.92534646840E+01  0.12607745444E+02  0.51100000000E-03 0.  1.
         12    1    4    4    0    0 -0.17346814973E+01  0.25195249424E+02  0.28817866760E+01  0.25418780614E+02  0.00000000000E+00 0. -1.
</event>
<event>
 8    1  0.3186330E-007  0.9118800E+02  0.7816164E-02  0.1184000E+00
        -11   -1    0    0    0    0  0.00000000000E+00  0.00000000000E+00  0.45593999997E+02  0.45594000000E+02  0.51100000000E-03 0. -1.
         11   -1    0    0    0    0 -0.00000000000E+00 -0.00000000000E+00 -0.45593999997E+02  0.45594000000E+02  0.51100000000E-03 0.  1.
         23    2    1    2    0    0  0.71054273576E-14  0.00000000000E+00 -0.35527136788E-14  0.91188000000E+02  0.91188000000E+02 0.  0.
    9900012    2    3    3    0    0 -0.26848706337E+02  0.16575963322E+02  0.18978016357E+02  0.54367072569E+02  0.39999973536E+02 0.  0.
        -12    1    3    3    0    0  0.26848706337E+02 -0.16575963322E+02 -0.18978016357E+02  0.36820927431E+02  0.00000000000E+00 0.  1.
         11    1    4    4    0    0 -0.22246898298E+02 -0.37982663543E+01  0.23632387950E+02  0.32677837622E+02  0.51100000000E-03 0. -1.
        -11    1    4    4    0    0 -0.18475455940E+01  0.76504215556E+01 -0.35192660188E+01  0.86213460824E+01  0.51100000000E-03 0.  1.
         12    1    4    4    0    0 -0.27542624447E+01  0.12723808121E+02 -0.11351055737E+01  0.13067888864E+02  0.00000000000E+00 0. -1.
</event>
<event>
 8    1  0.3186330E-007  0.9118800E+02  0.7816164E-02  0.1184000E+00
        -11   -1    0    0    0    0  0.00000000000E+00  0.00000000000E+00  0.45593999997E+02  0.45594000000E+02  0.51100000000E-03 0.  1.
         11   -1    0    0    0    0 -0.00000000000E+00 -0.00000000000E+00 -0.45593999997E+02  0.45594000000E+02  0.51100000000E-03 0. -1.
         23    2    1    2    0    0 -0.17763568394E-14  0.00000000000E+00  0.00000000000E+00  0.91188000000E+02  0.91188000000E+02 0.  0.
    9900012    2    3    3    0    0 -0.14583387107E+02 -0.19587617618E+02 -0.27557761109E+02  0.54367080120E+02  0.39999990750E+02 0.  0.
        -12    1    3    3    0    0  0.14583387107E+02  0.19587617618E+02  0.27557761109E+02  0.36820919880E+02  0.00000000000E+00 0.  1.
         11    1    4    4    0    0 -0.57793625599E+01 -0.63817594302E+01 -0.56304891580E+01  0.10287385161E+02  0.51100000000E-03 0. -1.
        -11    1    4    4    0    0 -0.49639547458E+01  0.38567353339E+01  0.75378225268E+01  0.98149897025E+01  0.51100000000E-03 0.  1.
        -12    1    4    4    0    0 -0.38400698013E+01 -0.17062593522E+02 -0.29465094477E+02  0.34264705257E+02  0.00000000000E+00 0.  1.
</event>
<event>
 8    1  0.3186330E-007  0.9118800E+02  0.7816164E-02  0.1184000E+00
        -11   -1    0    0    0    0  0.00000000000E+00  0.00000000000E+00  0.45593999997E+02  0.45594000000E+02  0.51100000000E-03 0.  1.
         11   -1    0    0    0    0 -0.00000000000E+00 -0.00000000000E+00 -0.45593999997E+02  0.45594000000E+02  0.51100000000E-03 0. -1.
         23    2    1    2    0    0  0.88817841970E-15  0.00000000000E+00  0.00000000000E+00  0.91188000000E+02  0.91188000000E+02 0.  0.
    9900012    2    3    3    0    0  0.32640634562E+01  0.37571453753E+01 -0.36483018288E+02  0.54367070150E+02  0.39999968022E+02 0.  0.
        -12    1    3    3    0    0 -0.32640634562E+01 -0.37571453753E+01  0.36483018288E+02  0.36820929850E+02  0.00000000000E+00 0.  1.
         11    1    4    4    0    0  0.12728293153E+02 -0.96263490548E+01 -0.42540746462E+01  0.16515846756E+02  0.51100000000E-03 0. -1.
        -11    1    4    4    0    0 -0.95549992069E+01  0.55298292616E+01 -0.12849549364E+02  0.16940718421E+02  0.51100000000E-03 0.  1.
         12    1    4    4    0    0  0.90769510289E-01  0.78536651686E+01 -0.19379394278E+02  0.20910504974E+02  0.00000000000E+00 0. -1.
</event>
<event>
 8    1  0.3186330E-007  0.9118800E+02  0.7816164E-02  0.1184000E+00
        -11   -1    0    0    0    0  0.00000000000E+00  0.00000000000E+00  0.45593999997E+02  0.45594000000E+02  0.51100000000E-03 0.  1.
         11   -1    0    0    0    0 -0.00000000000E+00 -0.00000000000E+00 -0.45593999997E+02  0.45594000000E+02  0.51100000000E-03 0. -1.
         23    2    1    2    0    0 -0.35527136788E-14  0.00000000000E+00  0.35527136788E-14  0.91188000000E+02  0.91188000000E+02 0.  0.
    9900012    2    3    3    0    0  0.26676407092E+02  0.45884970440E+01 -0.24961901902E+02  0.54367061025E+02  0.39999947219E+02 0.  0.
        -12    1    3    3    0    0 -0.26676407092E+02 -0.45884970440E+01  0.24961901902E+02  0.36820938975E+02  0.00000000000E+00 0.  1.
         11    1    4    4    0    0  0.63584632720E+00 -0.82305878226E+01 -0.77394837554E+01  0.11315762702E+02  0.51100000000E-03 0. -1.
        -11    1    4    4    0    0 -0.46913127063E+01 -0.19004256003E+01 -0.47734511107E+00  0.50840821184E+01  0.51100000000E-03 0.  1.
        -12    1    4    4    0    0  0.30731873471E+02  0.14719510467E+02 -0.16745073035E+02  0.37967216205E+02  0.00000000000E+00 0.  1.
</event>
<event>
 8    1  0.3186330E-007  0.9118800E+02  0.7816164E-02  0.1184000E+00
        -11   -1    0    0    0    0  0.00000000000E+00  0.00000000000E+00  0.45593999997E+02  0.45594000000E+02  0.51100000000E-03 0. -1.
         11   -1    0    0    0    0 -0.00000000000E+00 -0.00000000000E+00 -0.45593999997E+02  0.45594000000E+02  0.51100000000E-03 0.  1.
         23    2    1    2    0    0  0.00000000000E+00  0.00000000000E+00  0.00000000000E+00  0.91188000000E+02  0.91188000000E+02 0.  0.
    9900012    2    3    3    0    0 -0.25293451403E+02 -0.20740571762E+02  0.16907072638E+02  0.54367094170E+02  0.40000022780E+02 0.  0.
         12    1    3    3    0    0  0.25293451403E+02  0.20740571762E+02 -0.16907072638E+02  0.36820905830E+02  0.00000000000E+00 0. -1.
         11    1    4    4    0    0 -0.22369855258E+00  0.95483043012E+00  0.14445410666E+02  0.14478661256E+02  0.51100000000E-03 0.  1.
        -11    1    4    4    0    0 -0.87813482290E+01  0.32651136942E+01  0.36626363234E+01  0.10059222100E+02  0.51100000000E-03 0. -1.
        -12    1    4    4    0    0 -0.16288404622E+02 -0.24960515886E+02 -0.12009743510E+01  0.29829210815E+02  0.00000000000E+00 0.  1.
</event>
<event>
 8    1  0.3186330E-007  0.9118800E+02  0.7816164E-02  0.1184000E+00
        -11   -1    0    0    0    0  0.00000000000E+00  0.00000000000E+00  0.45593999997E+02  0.45594000000E+02  0.51100000000E-03 0. -1.
         11   -1    0    0    0    0 -0.00000000000E+00 -0.00000000000E+00 -0.45593999997E+02  0.45594000000E+02  0.51100000000E-03 0.  1.
         23    2    1    2    0    0  0.00000000000E+00  0.17763568394E-14  0.00000000000E+00  0.91188000000E+02  0.91188000000E+02 0.  0.
    9900012    2    3    3    0    0 -0.23439941532E+02  0.11994446357E+02  0.25738567667E+02  0.54367197891E+02  0.40000259231E+02 0.  0.
        -12    1    3    3    0    0  0.23439941532E+02 -0.11994446357E+02 -0.25738567667E+02  0.36820802109E+02  0.00000000000E+00 0.  1.
         11    1    4    4    0    0 -0.21287305777E+02  0.10421156701E+02  0.33514481738E+02  0.41048390720E+02  0.51100000000E-03 0. -1.
        -11    1    4    4    0    0  0.22515293955E+00  0.57683698280E+01 -0.28964611573E+01  0.64586586700E+01  0.51100000000E-03 0.  1.
         12    1    4    4    0    0 -0.23777886940E+01 -0.41950801719E+01 -0.48794529136E+01  0.68601485012E+01  0.00000000000E+00 0. -1.
</event>
<event>
 8    1  0.3186330E-007  0.9118800E+02  0.7816164E-02  0.1184000E+00
        -11   -1    0    0    0    0  0.00000000000E+00  0.00000000000E+00  0.45593999997E+02  0.45594000000E+02  0.51100000000E-03 0.  1.
         11   -1    0    0    0    0 -0.00000000000E+00 -0.00000000000E+00 -0.45593999997E+02  0.45594000000E+02  0.51100000000E-03 0. -1.
         23    2    1    2    0    0  0.00000000000E+00  0.00000000000E+00  0.17763568394E-14  0.91188000000E+02  0.91188000000E+02 0.  0.
    9900012    2    3    3    0    0 -0.13851982755E+02  0.32543551741E+02 -0.10238300898E+02  0.54367041411E+02  0.39999902503E+02 0.  0.
        -12    1    3    3    0    0  0.13851982755E+02 -0.32543551741E+02  0.10238300898E+02  0.36820958589E+02  0.00000000000E+00 0.  1.
         11    1    4    4    0    0 -0.13542962223E+02  0.11040172262E+02 -0.11849416738E+02  0.21111748072E+02  0.51100000000E-03 0. -1.
        -11    1    4    4    0    0 -0.77170793708E+01  0.15465900094E+02 -0.85693888585E+01  0.19292014032E+02  0.51100000000E-03 0.  1.
        -12    1    4    4    0    0  0.74080588392E+01  0.60374793849E+01  0.10180504698E+02  0.13963279307E+02  0.00000000000E+00 0.  1.
</event>
<event>
 8    1  0.3186330E-007  0.9118800E+02  0.7816164E-02  0.1184000E+00
        -11   -1    0    0    0    0  0.00000000000E+00  0.00000000000E+00  0.45593999997E+02  0.45594000000E+02  0.51100000000E-03 0. -1.
         11   -1    0    0    0    0 -0.00000000000E+00 -0.00000000000E+00 -0.45593999997E+02  0.45594000000E+02  0.51100000000E-03 0.  1.
         23    2    1    2    0    0 -0.17763568394E-14  0.71054273576E-14  0.00000000000E+00  0.91188000000E+02  0.91188000000E+02 0.  0.
    9900012    2    3    3    0    0 -0.43250383541E+01  0.36277782660E+02 -0.45821661518E+01  0.54367085860E+02  0.40000003834E+02 0.  0.
        -12    1    3    3    0    0  0.43250383541E+01 -0.36277782660E+02  0.45821661518E+01  0.36820914140E+02  0.00000000000E+00 0.  1.
         11    1    4    4    0    0  0.10844862434E+02  0.16458527955E+02 -0.80108509479E+01  0.21275993910E+02  0.51100000000E-03 0. -1.
        -11    1    4    4    0    0  0.35434027326E+01 -0.19360927820E+01  0.15775086755E+01  0.43350538714E+01  0.51100000000E-03 0.  1.
         12    1    4    4    0    0 -0.18713303521E+02  0.21755347487E+02  0.18511761206E+01  0.28756038078E+02  0.00000000000E+00 0. -1.
</event>
<event>
 8    1  0.3186330E-007  0.9118800E+02  0.7816164E-02  0.1184000E+00
        -11   -1    0    0    0    0  0.00000000000E+00  0.00000000000E+00  0.45593999997E+02  0.45594000000E+02  0.51100000000E-03 0.  1.
         11   -1    0    0    0    0 -0.00000000000E+00 -0.00000000000E+00 -0.45593999997E+02  0.45594000000E+02  0.51100000000E-03 0. -1.
         23    2    1    2    0    0  0.00000000000E+00 -0.17763568394E-14  0.00000000000E+00  0.91188000000E+02  0.91188000000E+02 0.  0.
    9900012    2    3    3    0    0 -0.13016582279E+02 -0.84118388395E+01  0.33400435772E+02  0.54367088052E+02  0.40000008833E+02 0.  0.
         12    1    3    3    0    0  0.13016582279E+02  0.84118388395E+01 -0.33400435772E+02  0.36820911948E+02  0.00000000000E+00 0. -1.
         11    1    4    4    0    0  0.80677380135E+01 -0.25681573929E+01  0.30519444113E+02  0.31672074423E+02  0.51100000000E-03 0. -1.
        -11    1    4    4    0    0 -0.82911699625E+01  0.48983429821E-01  0.22713237065E+01  0.85967907014E+01  0.51100000000E-03 0.  1.
        -12    1    4    4    0    0 -0.12793150330E+02 -0.58926648764E+01  0.60966795282E+00  0.14098222928E+02  0.00000000000E+00 0.  1.
</event>
<event>
 8    1  0.3186330E-007  0.9118800E+02  0.7816164E-02  0.1184000E+00
        -11   -1    0    0    0    0  0.00000000000E+00  0.00000000000E+00  0.45593999997E+02  0.45594000000E+02  0.51100000000E-03 0.  1.
         11   -1    0    0    0    0 -0.00000000000E+00 -0.00000000000E+00 -0.45593999997E+02  0.45594000000E+02  0.51100000000E-03 0. -1.
         23    2    1    2    0    0 -0.35527136788E-14  0.88817841970E-15  0.35527136788E-14  0.91188000000E+02  0.91188000000E+02 0.  0.
    9900012    2    3    3    0    0 -0.25778414166E+02  0.51730414533E+01  0.25777790848E+02  0.54367061720E+02  0.39999948804E+02 0.  0.
         12    1    3    3    0    0  0.25778414166E+02 -0.51730414533E+01 -0.25777790848E+02  0.36820938280E+02  0.00000000000E+00 0. -1.
         11    1    4    4    0    0 -0.40776538388E+01  0.55686068195E+01 -0.63687726321E+01  0.93913741188E+01  0.51100000000E-03 0. -1.
        -11    1    4    4    0    0 -0.26038329960E+02 -0.60556925839E+00  0.22583633838E+02  0.34472914858E+02  0.51100000000E-03 0.  1.
         12    1    4    4    0    0  0.43375696330E+01  0.21000389218E+00  0.95629296420E+01  0.10502772743E+02  0.00000000000E+00 0. -1.
</event>
<event>
 8    1  0.3186330E-007  0.9118800E+02  0.7816164E-02  0.1184000E+00
        -11   -1    0    0    0    0  0.00000000000E+00  0.00000000000E+00  0.45593999997E+02  0.45594000000E+02  0.51100000000E-03 0. -1.
         11   -1    0    0    0    0 -0.00000000000E+00 -0.00000000000E+00 -0.45593999997E+02  0.45594000000E+02  0.51100000000E-03 0.  1.
         23    2    1    2    0    0  0.00000000000E+00  0.00000000000E+00  0.00000000000E+00  0.91188000000E+02  0.91188000000E+02 0.  0.
    9900012    2    3    3    0    0 -0.10657661553E+02  0.20153037546E+02 -0.28914522085E+02  0.54367078508E+02  0.39999987075E+02 0.  0.
         12    1    3    3    0    0  0.10657661553E+02 -0.20153037546E+02  0.28914522085E+02  0.36820921492E+02  0.00000000000E+00 0. -1.
         11    1    4    4    0    0 -0.13233957635E+02 -0.14556836471E+01  0.38857599471E+00  0.13319445977E+02  0.51100000000E-03 0. -1.
        -11    1    4    4    0    0  0.63278693312E+01  0.57548206109E+01 -0.21182488627E+02  0.22844205288E+02  0.51100000000E-03 0.  1.
         12    1    4    4    0    0 -0.37515732487E+01  0.15853900582E+02 -0.81206094529E+01  0.18203427243E+02  0.00000000000E+00 0. -1.
</event>
<event>
 8    1  0.3186330E-007  0.9118800E+02  0.7816164E-02  0.1184000E+00
        -11   -1    0    0    0    0  0.00000000000E+00  0.00000000000E+00  0.45593999997E+02  0.45594000000E+02  0.51100000000E-03 0.  1.
         11   -1    0    0    0    0 -0.00000000000E+00 -0.00000000000E+00 -0.45593999997E+02  0.45594000000E+02  0.51100000000E-03 0. -1.
         23    2    1    2    0    0 -0.71054273576E-14  0.00000000000E+00 -0.44408920985E-15  0.91188000000E+02  0.91188000000E+02 0.  0.
    9900012    2    3    3    0    0  0.36421973950E+02  0.45130852455E+01  0.29750294108E+01  0.54367096632E+02  0.40000028392E+02 0.  0.
        -12    1    3    3    0    0 -0.36421973950E+02 -0.45130852455E+01 -0.29750294108E+01  0.36820903368E+02  0.00000000000E+00 0.  1.
         11    1    4    4    0    0 -0.76001778869E+00  0.12223006039E+00 -0.70276183094E+01  0.70696525085E+01  0.51100000000E-03 0. -1.
        -11    1    4    4    0    0  0.79981226879E+01 -0.88022156573E+01 -0.37092364638E+01  0.12458226295E+02  0.51100000000E-03 0.  1.
         12    1    4    4    0    0  0.29183869051E+02  0.13193070842E+02  0.13711884184E+02  0.34839217829E+02  0.00000000000E+00 0. -1.
</event>
<event>
 8    1  0.3186330E-007  0.9118800E+02  0.7816164E-02  0.1184000E+00
        -11   -1    0    0    0    0  0.00000000000E+00  0.00000000000E+00  0.45593999997E+02  0.45594000000E+02  0.51100000000E-03 0. -1.
         11   -1    0    0    0    0 -0.00000000000E+00 -0.00000000000E+00 -0.45593999997E+02  0.45594000000E+02  0.51100000000E-03 0.  1.
         23    2    1    2    0    0  0.00000000000E+00  0.00000000000E+00  0.00000000000E+00  0.91188000000E+02  0.91188000000E+02 0.  0.
    9900012    2    3    3    0    0 -0.22141093358E+02  0.26223993777E+02  0.13336188962E+02  0.54367084738E+02  0.40000001278E+02 0.  0.
        -12    1    3    3    0    0  0.22141093358E+02 -0.26223993777E+02 -0.13336188962E+02  0.36820915262E+02  0.00000000000E+00 0.  1.
         11    1    4    4    0    0 -0.64746733663E+01 -0.73754669337E+01 -0.63687427067E+01  0.11699563736E+02  0.51100000000E-03 0.  1.
        -11    1    4    4    0    0 -0.49513840353E+01  0.54127091703E+01  0.62911687548E+01  0.96639758376E+01  0.51100000000E-03 0. -1.
        -12    1    4    4    0    0 -0.10715035956E+02  0.28186751540E+02  0.13413762914E+02  0.33003545165E+02  0.00000000000E+00 0.  1.
</event>
<event>
 8    1  0.3186330E-007  0.9118800E+02  0.7816164E-02  0.1184000E+00
        -11   -1    0    0    0    0  0.00000000000E+00  0.00000000000E+00  0.45593999997E+02  0.45594000000E+02  0.51100000000E-03 0. -1.
         11   -1    0    0    0    0 -0.00000000000E+00 -0.00000000000E+00 -0.45593999997E+02  0.45594000000E+02  0.51100000000E-03 0.  1.
         23    2    1    2    0    0 -0.35527136788E-14 -0.35527136788E-14 -0.44408920985E-15  0.91188000000E+02  0.91188000000E+02 0.  0.
    9900012    2    3    3    0    0 -0.25441059640E+02  0.26438150194E+02 -0.30913081795E+01  0.54367088991E+02  0.40000010972E+02 0.  0.
         12    1    3    3    0    0  0.25441059640E+02 -0.26438150194E+02  0.30913081795E+01  0.36820911009E+02  0.00000000000E+00 0. -1.
         11    1    4    4    0    0 -0.17171232779E+02  0.85991756094E+01  0.27494858703E+01  0.19399915699E+02  0.51100000000E-03 0. -1.
        -11    1    4    4    0    0 -0.16449615273E+01  0.22226261513E+02  0.36557302141E+01  0.22584883504E+02  0.51100000000E-03 0.  1.
         12    1    4    4    0    0 -0.66248653339E+01 -0.43872869281E+01 -0.94965242638E+01  0.12382289787E+02  0.00000000000E+00 0. -1.
</event>
<event>
 8    1  0.3186330E-007  0.9118800E+02  0.7816164E-02  0.1184000E+00
        -11   -1    0    0    0    0  0.00000000000E+00  0.00000000000E+00  0.45593999997E+02  0.45594000000E+02  0.51100000000E-03 0.  1.
         11   -1    0    0    0    0 -0.00000000000E+00 -0.00000000000E+00 -0.45593999997E+02  0.45594000000E+02  0.51100000000E-03 0. -1.
         23    2    1    2    0    0  0.00000000000E+00  0.00000000000E+00  0.00000000000E+00  0.91188000000E+02  0.91188000000E+02 0.  0.
    9900012    2    3    3    0    0  0.26724584341E+02 -0.20394250531E+02  0.15021757742E+02  0.54367053942E+02  0.39999931072E+02 0.  0.
         12    1    3    3    0    0 -0.26724584341E+02  0.20394250531E+02 -0.15021757742E+02  0.36820946058E+02  0.00000000000E+00 0. -1.
         11    1    4    4    0    0  0.10177209001E+02 -0.91346416795E+01  0.65421400937E+00  0.13691064893E+02  0.51100000000E-03 0. -1.
        -11    1    4    4    0    0  0.22293018412E+02 -0.34218927357E+01 -0.90662833064E+00  0.22572328082E+02  0.51100000000E-03 0.  1.
        -12    1    4    4    0    0 -0.57456430725E+01 -0.78377161160E+01  0.15274172063E+02  0.18103660968E+02  0.00000000000E+00 0.  1.
</event>
<event>
 8    1  0.3186330E-007  0.9118800E+02  0.7816164E-02  0.1184000E+00
        -11   -1    0    0    0    0  0.00000000000E+00  0.00000000000E+00  0.45593999997E+02  0.45594000000E+02  0.51100000000E-03 0.  1.
         11   -1    0    0    0    0 -0.00000000000E+00 -0.00000000000E+00 -0.45593999997E+02  0.45594000000E+02  0.51100000000E-03 0. -1.
         23    2    1    2    0    0 -0.13322676296E-14  0.00000000000E+00  0.00000000000E+00  0.91188000000E+02  0.91188000000E+02 0.  0.
    9900012    2    3    3    0    0  0.24600520757E+01  0.16999172236E+02 -0.32569274955E+02  0.54367063239E+02  0.39999952265E+02 0.  0.
        -12    1    3    3    0    0 -0.24600520757E+01 -0.16999172236E+02  0.32569274955E+02  0.36820936761E+02  0.00000000000E+00 0.  1.
         11    1    4    4    0    0 -0.43437049095E+01  0.13960875250E+02 -0.88849690774E+00  0.14647977236E+02  0.51100000000E-03 0. -1.
        -11    1    4    4    0    0 -0.58855871920E+01 -0.59544790830E+01 -0.12074712026E+02  0.14693353209E+02  0.51100000000E-03 0.  1.
         12    1    4    4    0    0  0.12689344177E+02  0.89927760688E+01 -0.19606066021E+02  0.25025732794E+02  0.00000000000E+00 0. -1.
</event>
<event>
 8    1  0.3186330E-007  0.9118800E+02  0.7816164E-02  0.1184000E+00
        -11   -1    0    0    0    0  0.00000000000E+00  0.00000000000E+00  0.45593999997E+02  0.45594000000E+02  0.51100000000E-03 0.  1.
         11   -1    0    0    0    0 -0.00000000000E+00 -0.00000000000E+00 -0.45593999997E+02  0.45594000000E+02  0.51100000000E-03 0. -1.
         23    2    1    2    0    0 -0.22204460493E-15 -0.35527136788E-14  0.00000000000E+00  0.91188000000E+02  0.91188000000E+02 0.  0.
    9900012    2    3    3    0    0 -0.16173853030E+01 -0.18770699377E+02  0.31635872995E+02  0.54367033819E+02  0.39999885197E+02 0.  0.
         12    1    3    3    0    0  0.16173853030E+01  0.18770699377E+02 -0.31635872995E+02  0.36820966181E+02  0.00000000000E+00 0. -1.
         11    1    4    4    0    0 -0.58716719628E+01 -0.22661785501E+01 -0.26998705035E+01  0.68484595243E+01  0.51100000000E-03 0. -1.
        -11    1    4    4    0    0 -0.43302478335E+01  0.65584790618E+01  0.54104799978E+01  0.95413829171E+01  0.51100000000E-03 0.  1.
         12    1    4    4    0    0  0.85845344932E+01 -0.23062999889E+02  0.28925263501E+02  0.37977191378E+02  0.00000000000E+00 0. -1.
</event>
<event>
 8    1  0.3186330E-007  0.9118800E+02  0.7816164E-02  0.1184000E+00
        -11   -1    0    0    0    0  0.00000000000E+00  0.00000000000E+00  0.45593999997E+02  0.45594000000E+02  0.51100000000E-03 0.  1.
         11   -1    0    0    0    0 -0.00000000000E+00 -0.00000000000E+00 -0.45593999997E+02  0.45594000000E+02  0.51100000000E-03 0. -1.
         23    2    1    2    0    0  0.17763568394E-14  0.71054273576E-14  0.00000000000E+00  0.91188000000E+02  0.91188000000E+02 0.  0.
    9900012    2    3    3    0    0 -0.15946902495E+02  0.20484128753E+02  0.26112814907E+02  0.54367050361E+02  0.39999922908E+02 0.  0.
         12    1    3    3    0    0  0.15946902495E+02 -0.20484128753E+02 -0.26112814907E+02  0.36820949639E+02  0.00000000000E+00 0. -1.
         11    1    4    4    0    0 -0.17475643594E+02  0.19139128649E+02  0.82618435844E+00  0.25930425090E+02  0.51100000000E-03 0. -1.
        -11    1    4    4    0    0 -0.36294045423E+01 -0.15478651846E+01  0.20361824789E+02  0.20740597218E+02  0.51100000000E-03 0.  1.
        -12    1    4    4    0    0  0.51581456412E+01  0.28928652880E+01  0.49248057597E+01  0.76960280535E+01  0.00000000000E+00 0.  1.
</event>
<event>
 8    1  0.3186330E-007  0.9118800E+02  0.7816164E-02  0.1184000E+00
        -11   -1    0    0    0    0  0.00000000000E+00  0.00000000000E+00  0.45593999997E+02  0.45594000000E+02  0.51100000000E-03 0.  1.
         11   -1    0    0    0    0 -0.00000000000E+00 -0.00000000000E+00 -0.45593999997E+02  0.45594000000E+02  0.51100000000E-03 0. -1.
         23    2    1    2    0    0  0.00000000000E+00  0.35527136788E-14  0.00000000000E+00  0.91188000000E+02  0.91188000000E+02 0.  0.
    9900012    2    3    3    0    0  0.19412451297E+02  0.24173282415E+02  0.19864111981E+02  0.54367166321E+02  0.40000187261E+02 0.  0.
        -12    1    3    3    0    0 -0.19412451297E+02 -0.24173282415E+02 -0.19864111981E+02  0.36820833679E+02  0.00000000000E+00 0.  1.
         11    1    4    4    0    0  0.11392240744E+02 -0.23346871239E+01  0.56137309649E+01  0.12913089822E+02  0.51100000000E-03 0. -1.
        -11    1    4    4    0    0  0.13880782511E+02  0.20158463904E+02 -0.36213835651E+00  0.24477968350E+02  0.51100000000E-03 0.  1.
        -12    1    4    4    0    0 -0.58605719583E+01  0.63495056347E+01  0.14612519372E+02  0.16976108149E+02  0.00000000000E+00 0.  1.
</event>
<event>
 8    1  0.3186330E-007  0.9118800E+02  0.7816164E-02  0.1184000E+00
        -11   -1    0    0    0    0  0.00000000000E+00  0.00000000000E+00  0.45593999997E+02  0.45594000000E+02  0.51100000000E-03 0.  1.
         11   -1    0    0    0    0 -0.00000000000E+00 -0.00000000000E+00 -0.45593999997E+02  0.45594000000E+02  0.51100000000E-03 0. -1.
         23    2    1    2    0    0  0.00000000000E+00  0.00000000000E+00  0.00000000000E+00  0.91188000000E+02  0.91188000000E+02 0.  0.
    9900012    2    3    3    0    0  0.13914700355E+02  0.50578263272E+01  0.33713191962E+02  0.54367084674E+02  0.40000001132E+02 0.  0.
         12    1    3    3    0    0 -0.13914700355E+02 -0.50578263272E+01 -0.33713191962E+02  0.36820915326E+02  0.00000000000E+00 0. -1.
         11    1    4    4    0    0 -0.52265702784E+01 -0.49699630515E+01  0.74806302315E+01  0.10391217375E+02  0.51100000000E-03 0. -1.
        -11    1    4    4    0    0  0.15732266911E+02  0.13530605412E+01 -0.36286013882E+00  0.15794513691E+02  0.51100000000E-03 0.  1.
         12    1    4    4    0    0  0.34090037221E+01  0.86747288375E+01  0.26595421870E+02  0.28181353609E+02  0.00000000000E+00 0. -1.
</event>
<event>
 8    1  0.3186330E-007  0.9118800E+02  0.7816164E-02  0.1184000E+00
        -11   -1    0    0    0    0  0.00000000000E+00  0.00000000000E+00  0.45593999997E+02  0.45594000000E+02  0.51100000000E-03 0.  1.
         11   -1    0    0    0    0 -0.00000000000E+00 -0.00000000000E+00 -0.45593999997E+02  0.45594000000E+02  0.51100000000E-03 0. -1.
         23    2    1    2    0    0  0.00000000000E+00 -0.17763568394E-14  0.00000000000E+00  0.91188000000E+02  0.91188000000E+02 0.  0.
    9900012    2    3    3    0    0  0.53280879736E+01  0.15662302872E+02 -0.32895032198E+02  0.54367090234E+02  0.40000013806E+02 0.  0.
        -12    1    3    3    0    0 -0.53280879736E+01 -0.15662302872E+02  0.32895032198E+02  0.36820909766E+02  0.00000000000E+00 0.  1.
         11    1    4    4    0    0 -0.12226450411E+01 -0.98029328664E+01 -0.23305303276E+02  0.25312635476E+02  0.51100000000E-03 0. -1.
        -11    1    4    4    0    0  0.71686722468E+01  0.21236024900E+02 -0.10392638118E+02  0.24705577157E+02  0.51100000000E-03 0.  1.
         12    1    4    4    0    0 -0.61793923209E+00  0.42292108391E+01  0.80290919674E+00  0.43488776017E+01  0.00000000000E+00 0. -1.
</event>
<event>
 8    1  0.3186330E-007  0.9118800E+02  0.7816164E-02  0.1184000E+00
        -11   -1    0    0    0    0  0.00000000000E+00  0.00000000000E+00  0.45593999997E+02  0.45594000000E+02  0.51100000000E-03 0.  1.
         11   -1    0    0    0    0 -0.00000000000E+00 -0.00000000000E+00 -0.45593999997E+02  0.45594000000E+02  0.51100000000E-03 0. -1.
         23    2    1    2    0    0  0.77715611724E-15  0.00000000000E+00  0.00000000000E+00  0.91188000000E+02  0.91188000000E+02 0.  0.
    9900012    2    3    3    0    0 -0.61517314207E+00  0.19304601658E+02 -0.31348579744E+02  0.54367088345E+02  0.40000009500E+02 0.  0.
        -12    1    3    3    0    0  0.61517314207E+00 -0.19304601658E+02  0.31348579744E+02  0.36820911655E+02  0.00000000000E+00 0.  1.
         11    1    4    4    0    0 -0.99020915745E+01  0.13018149704E+02 -0.23687554705E+01  0.16526785592E+02  0.51100000000E-03 0. -1.
        -11    1    4    4    0    0  0.31418110934E+01  0.13533014385E+02 -0.11887103882E+02  0.18284329199E+02  0.51100000000E-03 0.  1.
         12    1    4    4    0    0  0.61451073391E+01 -0.72465624308E+01 -0.17092720391E+02  0.19555973554E+02  0.00000000000E+00 0. -1.
</event>
<event>
 8    1  0.3186330E-007  0.9118800E+02  0.7816164E-02  0.1184000E+00
        -11   -1    0    0    0    0  0.00000000000E+00  0.00000000000E+00  0.45593999997E+02  0.45594000000E+02  0.51100000000E-03 0. -1.
         11   -1    0    0    0    0 -0.00000000000E+00 -0.00000000000E+00 -0.45593999997E+02  0.45594000000E+02  0.51100000000E-03 0.  1.
         23    2    1    2    0    0  0.35527136788E-14  0.00000000000E+00  0.11379786002E-14  0.91188000000E+02  0.91188000000E+02 0.  0.
    9900012    2    3    3    0    0 -0.26783773214E+02  0.25266173047E+02 -0.17695128607E+00  0.54367064111E+02  0.39999954253E+02 0.  0.
         12    1    3    3    0    0  0.26783773214E+02 -0.25266173047E+02  0.17695128607E+00  0.36820935889E+02  0.00000000000E+00 0. -1.
         11    1    4    4    0    0  0.23663997444E+01 -0.42893901521E+01  0.57378161859E+01  0.75446173178E+01  0.51100000000E-03 0. -1.
        -11    1    4    4    0    0 -0.20109657329E+02  0.30067228502E+02 -0.31083251879E+00  0.36173652909E+02  0.51100000000E-03 0.  1.
         12    1    4    4    0    0 -0.90405156294E+01 -0.51166530250E+00 -0.56039349532E+01  0.10648793884E+02  0.00000000000E+00 0. -1.
</event>
<event>
 8    1  0.3186330E-007  0.9118800E+02  0.7816164E-02  0.1184000E+00
        -11   -1    0    0    0    0  0.00000000000E+00  0.00000000000E+00  0.45593999997E+02  0.45594000000E+02  0.51100000000E-03 0. -1.
         11   -1    0    0    0    0 -0.00000000000E+00 -0.00000000000E+00 -0.45593999997E+02  0.45594000000E+02  0.51100000000E-03 0.  1.
         23    2    1    2    0    0  0.35527136788E-14  0.35527136788E-14  0.35527136788E-14  0.91188000000E+02  0.91188000000E+02 0.  0.
    9900012    2    3    3    0    0 -0.22571742007E+02  0.19040532365E+02  0.21994409207E+02  0.54367089550E+02  0.40000012248E+02 0.  0.
        -12    1    3    3    0    0  0.22571742007E+02 -0.19040532365E+02 -0.21994409207E+02  0.36820910450E+02  0.00000000000E+00 0.  1.
         11    1    4    4    0    0 -0.52422778175E+01  0.29806274730E+01  0.69901759795E+00  0.60707695321E+01  0.51100000000E-03 0. -1.
        -11    1    4    4    0    0 -0.23779011569E+02  0.21971293076E+02  0.22554531074E+02  0.39457394527E+02  0.51100000000E-03 0.  1.
         12    1    4    4    0    0  0.64495473792E+01 -0.59113881836E+01 -0.12591394653E+01  0.88389254917E+01  0.00000000000E+00 0. -1.
</event>
<event>
 8    1  0.3186330E-007  0.9118800E+02  0.7816164E-02  0.1184000E+00
        -11   -1    0    0    0    0  0.00000000000E+00  0.00000000000E+00  0.45593999997E+02  0.45594000000E+02  0.51100000000E-03 0.  1.
         11   -1    0    0    0    0 -0.00000000000E+00 -0.00000000000E+00 -0.45593999997E+02  0.45594000000E+02  0.51100000000E-03 0. -1.
         23    2    1    2    0    0  0.00000000000E+00  0.00000000000E+00 -0.35527136788E-14  0.91188000000E+02  0.91188000000E+02 0.  0.
    9900012    2    3    3    0    0  0.22830183246E+02 -0.21420752802E+02  0.19383318648E+02  0.54367096162E+02  0.40000027320E+02 0.  0.
         12    1    3    3    0    0 -0.22830183246E+02  0.21420752802E+02 -0.19383318648E+02  0.36820903838E+02  0.00000000000E+00 0. -1.
         11    1    4    4    0    0  0.27397126528E+01  0.49460362976E+01  0.28061478343E+01  0.63121918860E+01  0.51100000000E-03 0. -1.
        -11    1    4    4    0    0 -0.76992583543E+01 -0.40551320298E+01 -0.11189757732E+00  0.87025971017E+01  0.51100000000E-03 0.  1.
        -12    1    4    4    0    0  0.27789728948E+02 -0.22311657070E+02  0.16689068391E+02  0.39352307174E+02  0.00000000000E+00 0.  1.
</event>
<event>
 8    1  0.3186330E-007  0.9118800E+02  0.7816164E-02  0.1184000E+00
        -11   -1    0    0    0    0  0.00000000000E+00  0.00000000000E+00  0.45593999997E+02  0.45594000000E+02  0.51100000000E-03 0. -1.
         11   -1    0    0    0    0 -0.00000000000E+00 -0.00000000000E+00 -0.45593999997E+02  0.45594000000E+02  0.51100000000E-03 0.  1.
         23    2    1    2    0    0  0.17763568394E-14  0.00000000000E+00 -0.35527136788E-14  0.91188000000E+02  0.91188000000E+02 0.  0.
    9900012    2    3    3    0    0  0.10022948623E+02  0.16393657618E+02 -0.31409694438E+02  0.54367076412E+02  0.39999982297E+02 0.  0.
         12    1    3    3    0    0 -0.10022948623E+02 -0.16393657618E+02  0.31409694438E+02  0.36820923588E+02  0.00000000000E+00 0. -1.
         11    1    4    4    0    0  0.15826218144E+01  0.38906916208E+01  0.17715710162E+01  0.45585784211E+01  0.51100000000E-03 0. -1.
        -11    1    4    4    0    0 -0.55991078874E+01  0.13664719234E+02 -0.11449961532E+01  0.14811670308E+02  0.51100000000E-03 0.  1.
         12    1    4    4    0    0  0.14039434696E+02 -0.11617532369E+01 -0.32036269300E+02  0.34996827683E+02  0.00000000000E+00 0. -1.
</event>
<event>
 8    1  0.3186330E-007  0.9118800E+02  0.7816164E-02  0.1184000E+00
        -11   -1    0    0    0    0  0.00000000000E+00  0.00000000000E+00  0.45593999997E+02  0.45594000000E+02  0.51100000000E-03 0. -1.
         11   -1    0    0    0    0 -0.00000000000E+00 -0.00000000000E+00 -0.45593999997E+02  0.45594000000E+02  0.51100000000E-03 0.  1.
         23    2    1    2    0    0  0.35527136788E-14  0.00000000000E+00  0.35527136788E-14  0.91188000000E+02  0.91188000000E+02 0.  0.
    9900012    2    3    3    0    0  0.16558826790E+02  0.27823730563E+02 -0.17533628374E+02  0.54367043316E+02  0.39999906848E+02 0.  0.
        -12    1    3    3    0    0 -0.16558826790E+02 -0.27823730563E+02  0.17533628374E+02  0.36820956684E+02  0.00000000000E+00 0.  1.
         11    1    4    4    0    0 -0.59247131801E+00  0.41382683633E+00  0.74804738704E+01  0.75153020232E+01  0.51100000000E-03 0. -1.
        -11    1    4    4    0    0 -0.19044354115E+01  0.12420194879E+02 -0.17354283601E+02  0.21425668593E+02  0.51100000000E-03 0.  1.
         12    1    4    4    0    0  0.19055733520E+02  0.14989708847E+02 -0.76598186433E+01  0.25426072700E+02  0.00000000000E+00 0. -1.
</event>
<event>
 8    1  0.3186330E-007  0.9118800E+02  0.7816164E-02  0.1184000E+00
        -11   -1    0    0    0    0  0.00000000000E+00  0.00000000000E+00  0.45593999997E+02  0.45594000000E+02  0.51100000000E-03 0. -1.
         11   -1    0    0    0    0 -0.00000000000E+00 -0.00000000000E+00 -0.45593999997E+02  0.45594000000E+02  0.51100000000E-03 0.  1.
         23    2    1    2    0    0  0.00000000000E+00  0.00000000000E+00  0.35527136788E-14  0.91188000000E+02  0.91188000000E+02 0.  0.
    9900012    2    3    3    0    0 -0.18636054221E+02 -0.15329311414E+02  0.27811698172E+02  0.54367070347E+02  0.39999968469E+02 0.  0.
        -12    1    3    3    0    0  0.18636054221E+02  0.15329311414E+02 -0.27811698172E+02  0.36820929653E+02  0.00000000000E+00 0.  1.
         11    1    4    4    0    0 -0.50759838674E+01  0.75717933018E+01  0.10582078167E+02  0.13967034210E+02  0.51100000000E-03 0. -1.
        -11    1    4    4    0    0 -0.15126141968E+02 -0.50939295940E+01  0.57994383089E+00  0.15971368903E+02  0.51100000000E-03 0.  1.
        -12    1    4    4    0    0  0.15660716138E+01 -0.17807175122E+02  0.16649676173E+02  0.24428667233E+02  0.00000000000E+00 0.  1.
</event>
<event>
 8    1  0.3186330E-007  0.9118800E+02  0.7816164E-02  0.1184000E+00
        -11   -1    0    0    0    0  0.00000000000E+00  0.00000000000E+00  0.45593999997E+02  0.45594000000E+02  0.51100000000E-03 0.  1.
         11   -1    0    0    0    0 -0.00000000000E+00 -0.00000000000E+00 -0.45593999997E+02  0.45594000000E+02  0.51100000000E-03 0. -1.
         23    2    1    2    0    0  0.00000000000E+00  0.00000000000E+00  0.00000000000E+00  0.91188000000E+02  0.91188000000E+02 0.  0.
    9900012    2    3    3    0    0  0.94016610241E+01  0.13326636032E+02  0.33011952442E+02  0.54367089338E+02  0.40000011764E+02 0.  0.
         12    1    3    3    0    0 -0.94016610241E+01 -0.13326636032E+02 -0.33011952442E+02  0.36820910662E+02  0.00000000000E+00 0. -1.
         11    1    4    4    0    0  0.74973992700E+01  0.17640394223E+02  0.11232818922E+02  0.22216451682E+02  0.51100000000E-03 0. -1.
        -11    1    4    4    0    0 -0.39545333281E+01  0.23011999046E+01 -0.32469059089E+01  0.56103701381E+01  0.51100000000E-03 0.  1.
        -12    1    4    4    0    0  0.58587950822E+01 -0.66149580956E+01  0.25026039429E+02  0.26540267518E+02  0.00000000000E+00 0.  1.
</event>
<event>
 8    1  0.3186330E-007  0.9118800E+02  0.7816164E-02  0.1184000E+00
        -11   -1    0    0    0    0  0.00000000000E+00  0.00000000000E+00  0.45593999997E+02  0.45594000000E+02  0.51100000000E-03 0.  1.
         11   -1    0    0    0    0 -0.00000000000E+00 -0.00000000000E+00 -0.45593999997E+02  0.45594000000E+02  0.51100000000E-03 0. -1.
         23    2    1    2    0    0 -0.17763568394E-14  0.00000000000E+00  0.44408920985E-14  0.91188000000E+02  0.91188000000E+02 0.  0.
    9900012    2    3    3    0    0  0.13089051912E+02 -0.34093524752E+02 -0.47003258934E+01  0.54367017212E+02  0.39999847338E+02 0.  0.
         12    1    3    3    0    0 -0.13089051912E+02  0.34093524752E+02  0.47003258934E+01  0.36820982788E+02  0.00000000000E+00 0. -1.
         11    1    4    4    0    0  0.56757522042E+01 -0.24604523897E+02 -0.95702968456E+01  0.27003469060E+02  0.51100000000E-03 0. -1.
        -11    1    4    4    0    0  0.42540283972E+01 -0.47770983668E+01 -0.97615679203E+01  0.11670716985E+02  0.51100000000E-03 0.  1.
        -12    1    4    4    0    0  0.31592713107E+01 -0.47119024880E+01  0.14631538873E+02  0.15692831167E+02  0.00000000000E+00 0.  1.
</event>
<event>
 8    1  0.3186330E-007  0.9118800E+02  0.7816164E-02  0.1184000E+00
        -11   -1    0    0    0    0  0.00000000000E+00  0.00000000000E+00  0.45593999997E+02  0.45594000000E+02  0.51100000000E-03 0.  1.
         11   -1    0    0    0    0 -0.00000000000E+00 -0.00000000000E+00 -0.45593999997E+02  0.45594000000E+02  0.51100000000E-03 0. -1.
         23    2    1    2    0    0  0.00000000000E+00  0.00000000000E+00  0.17763568394E-14  0.91188000000E+02  0.91188000000E+02 0.  0.
    9900012    2    3    3    0    0 -0.35872280428E+02  0.82725169245E+01  0.72680785731E+00  0.54367037370E+02  0.39999893291E+02 0.  0.
         12    1    3    3    0    0  0.35872280428E+02 -0.82725169245E+01 -0.72680785731E+00  0.36820962630E+02  0.00000000000E+00 0. -1.
         11    1    4    4    0    0 -0.75665781541E+01  0.28051997281E+01 -0.10296897841E+02  0.13082368130E+02  0.51100000000E-03 0. -1.
        -11    1    4    4    0    0 -0.19601890870E+02 -0.19216199907E+01 -0.61751365194E+01  0.20641198133E+02  0.51100000000E-03 0.  1.
        -12    1    4    4    0    0 -0.87038114038E+01  0.73889371871E+01  0.17198842218E+02  0.20643471107E+02  0.00000000000E+00 0.  1.
</event>
<event>
 8    1  0.3186330E-007  0.9118800E+02  0.7816164E-02  0.1184000E+00
        -11   -1    0    0    0    0  0.00000000000E+00  0.00000000000E+00  0.45593999997E+02  0.45594000000E+02  0.51100000000E-03 0. -1.
         11   -1    0    0    0    0 -0.00000000000E+00 -0.00000000000E+00 -0.45593999997E+02  0.45594000000E+02  0.51100000000E-03 0.  1.
         23    2    1    2    0    0 -0.88817841970E-15  0.88817841970E-15  0.00000000000E+00  0.91188000000E+02  0.91188000000E+02 0.  0.
    9900012    2    3    3    0    0 -0.70455297274E+01  0.37592080174E+00  0.36138651989E+02  0.54367041659E+02  0.39999903070E+02 0.  0.
        -12    1    3    3    0    0  0.70455297274E+01 -0.37592080174E+00 -0.36138651989E+02  0.36820958341E+02  0.00000000000E+00 0.  1.
         11    1    4    4    0    0  0.11412169997E+02 -0.34811126170E+01  0.34708601308E+01  0.12425885860E+02  0.51100000000E-03 0. -1.
        -11    1    4    4    0    0 -0.17205758819E+02 -0.36712674745E+01  0.27767322259E+02  0.32871576280E+02  0.51100000000E-03 0.  1.
        -12    1    4    4    0    0 -0.12519409056E+01  0.75283008932E+01  0.49004695987E+01  0.90695795193E+01  0.00000000000E+00 0.  1.
</event>
<event>
 8    1  0.3186330E-007  0.9118800E+02  0.7816164E-02  0.1184000E+00
        -11   -1    0    0    0    0  0.00000000000E+00  0.00000000000E+00  0.45593999997E+02  0.45594000000E+02  0.51100000000E-03 0.  1.
         11   -1    0    0    0    0 -0.00000000000E+00 -0.00000000000E+00 -0.45593999997E+02  0.45594000000E+02  0.51100000000E-03 0. -1.
         23    2    1    2    0    0  0.17763568394E-14 -0.71054273576E-14  0.53290705182E-14  0.91188000000E+02  0.91188000000E+02 0.  0.
    9900012    2    3    3    0    0  0.13642013552E+02 -0.32259123155E+02  0.11358894678E+02  0.54367081369E+02  0.39999993598E+02 0.  0.
        -12    1    3    3    0    0 -0.13642013552E+02  0.32259123155E+02 -0.11358894678E+02  0.36820918631E+02  0.00000000000E+00 0.  1.
         11    1    4    4    0    0 -0.55388586522E+00 -0.27623456253E+02  0.12766526644E+02  0.30435938095E+02  0.51100000000E-03 0. -1.
        -11    1    4    4    0    0  0.17818445040E+02  0.12043902035E+00 -0.13872604986E+00  0.17819392088E+02  0.51100000000E-03 0.  1.
         12    1    4    4    0    0 -0.36225456234E+01 -0.47561059228E+01 -0.12689059160E+01  0.61117511865E+01  0.00000000000E+00 0. -1.
</event>
<event>
 8    1  0.3186330E-007  0.9118800E+02  0.7816164E-02  0.1184000E+00
        -11   -1    0    0    0    0  0.00000000000E+00  0.00000000000E+00  0.45593999997E+02  0.45594000000E+02  0.51100000000E-03 0.  1.
         11   -1    0    0    0    0 -0.00000000000E+00 -0.00000000000E+00 -0.45593999997E+02  0.45594000000E+02  0.51100000000E-03 0. -1.
         23    2    1    2    0    0 -0.71054273576E-14  0.88817841970E-15  0.00000000000E+00  0.91188000000E+02  0.91188000000E+02 0.  0.
    9900012    2    3    3    0    0  0.34341318186E+02 -0.28745615697E+01 -0.12968868214E+02  0.54367071417E+02  0.39999970909E+02 0.  0.
        -12    1    3    3    0    0 -0.34341318186E+02  0.28745615697E+01  0.12968868214E+02  0.36820928583E+02  0.00000000000E+00 0.  1.
         11    1    4    4    0    0  0.15140045394E+02  0.76313848048E+01  0.87472748758E+01  0.19078098086E+02  0.51100000000E-03 0. -1.
        -11    1    4    4    0    0 -0.22858117397E+01  0.12872502121E+01 -0.49196995497E+01  0.55754275476E+01  0.51100000000E-03 0.  1.
        -12    1    4    4    0    0  0.21487084532E+02 -0.11793196587E+02 -0.16796443540E+02  0.29713545783E+02  0.00000000000E+00 0.  1.
</event>
<event>
 8    1  0.3186330E-007  0.9118800E+02  0.7816164E-02  0.1184000E+00
        -11   -1    0    0    0    0  0.00000000000E+00  0.00000000000E+00  0.45593999997E+02  0.45594000000E+02  0.51100000000E-03 0.  1.
         11   -1    0    0    0    0 -0.00000000000E+00 -0.00000000000E+00 -0.45593999997E+02  0.45594000000E+02  0.51100000000E-03 0. -1.
         23    2    1    2    0    0  0.35527136788E-14  0.00000000000E+00  0.00000000000E+00  0.91188000000E+02  0.91188000000E+02 0.  0.
    9900012    2    3    3    0    0 -0.30239828372E+02 -0.20338782235E+02 -0.52599909490E+01  0.54367071338E+02  0.39999970729E+02 0.  0.
        -12    1    3    3    0    0  0.30239828372E+02  0.20338782235E+02  0.52599909490E+01  0.36820928662E+02  0.00000000000E+00 0.  1.
         11    1    4    4    0    0 -0.10105581711E+02 -0.13155467104E+02 -0.18022655811E+02  0.24495003964E+02  0.51100000000E-03 0. -1.
        -11    1    4    4    0    0 -0.95321972320E+01 -0.36099456120E+01  0.15314752591E+02  0.18396633892E+02  0.51100000000E-03 0.  1.
         12    1    4    4    0    0 -0.10602049429E+02 -0.35733695196E+01 -0.25520877285E+01  0.11475433482E+02  0.00000000000E+00 0. -1.
</event>
<event>
 8    1  0.3186330E-007  0.9118800E+02  0.7816164E-02  0.1184000E+00
        -11   -1    0    0    0    0  0.00000000000E+00  0.00000000000E+00  0.45593999997E+02  0.45594000000E+02  0.51100000000E-03 0. -1.
         11   -1    0    0    0    0 -0.00000000000E+00 -0.00000000000E+00 -0.45593999997E+02  0.45594000000E+02  0.51100000000E-03 0.  1.
         23    2    1    2    0    0  0.35527136788E-14  0.69388939039E-16  0.00000000000E+00  0.91188000000E+02  0.91188000000E+02 0.  0.
    9900012    2    3    3    0    0  0.23464414531E+02  0.87917279274E-01  0.28375925831E+02  0.54367086846E+02  0.40000006082E+02 0.  0.
         12    1    3    3    0    0 -0.23464414531E+02 -0.87917279274E-01 -0.28375925831E+02  0.36820913154E+02  0.00000000000E+00 0. -1.
         11    1    4    4    0    0  0.98781774837E+01 -0.11509578814E+02  0.17414585984E+02  0.23093648480E+02  0.51100000000E-03 0. -1.
        -11    1    4    4    0    0  0.12624963225E+02  0.24053118011E+01 -0.41967458199E+01  0.13519907435E+02  0.51100000000E-03 0.  1.
         12    1    4    4    0    0  0.96127382198E+00  0.91921842918E+01  0.15158085667E+02  0.17753530931E+02  0.00000000000E+00 0. -1.
</event>
<event>
 8    1  0.3186330E-007  0.9118800E+02  0.7816164E-02  0.1184000E+00
        -11   -1    0    0    0    0  0.00000000000E+00  0.00000000000E+00  0.45593999997E+02  0.45594000000E+02  0.51100000000E-03 0.  1.
         11   -1    0    0    0    0 -0.00000000000E+00 -0.00000000000E+00 -0.45593999997E+02  0.45594000000E+02  0.51100000000E-03 0. -1.
         23    2    1    2    0    0 -0.17763568394E-14  0.13877787808E-14 -0.71054273576E-14  0.91188000000E+02  0.91188000000E+02 0.  0.
    9900012    2    3    3    0    0  0.10909993283E+02 -0.15790299142E+00  0.35166924668E+02  0.54367279239E+02  0.40000444678E+02 0.  0.
         12    1    3    3    0    0 -0.10909993283E+02  0.15790299142E+00 -0.35166924668E+02  0.36820720761E+02  0.00000000000E+00 0. -1.
         11    1    4    4    0    0  0.21062875279E+01 -0.60667483316E+01  0.49447706008E+01  0.81050995691E+01  0.51100000000E-03 0. -1.
        -11    1    4    4    0    0  0.12924276105E+02 -0.68505523923E+01  0.16752818940E+01  0.14723231663E+02  0.51100000000E-03 0.  1.
        -12    1    4    4    0    0 -0.41205703499E+01  0.12759397733E+02  0.28546872173E+02  0.31538948007E+02  0.00000000000E+00 0.  1.
</event>
<event>
 8    1  0.3186330E-007  0.9118800E+02  0.7816164E-02  0.1184000E+00
        -11   -1    0    0    0    0  0.00000000000E+00  0.00000000000E+00  0.45593999997E+02  0.45594000000E+02  0.51100000000E-03 0.  1.
         11   -1    0    0    0    0 -0.00000000000E+00 -0.00000000000E+00 -0.45593999997E+02  0.45594000000E+02  0.51100000000E-03 0. -1.
         23    2    1    2    0    0  0.00000000000E+00 -0.35527136788E-14  0.00000000000E+00  0.91188000000E+02  0.91188000000E+02 0.  0.
    9900012    2    3    3    0    0 -0.59618894264E+01 -0.26644550564E+02 -0.24704334963E+02  0.54367077059E+02  0.39999983771E+02 0.  0.
        -12    1    3    3    0    0  0.59618894264E+01  0.26644550564E+02  0.24704334963E+02  0.36820922941E+02  0.00000000000E+00 0.  1.
         11    1    4    4    0    0  0.29481716547E+01 -0.27949300277E+02 -0.18071090159E+02  0.33412862821E+02  0.51100000000E-03 0. -1.
        -11    1    4    4    0    0 -0.32417159105E+01  0.57914248965E+01  0.42555958846E+01  0.78841246166E+01  0.51100000000E-03 0.  1.
        -12    1    4    4    0    0 -0.56683451707E+01 -0.44866751837E+01 -0.10888840689E+02  0.13070089622E+02  0.00000000000E+00 0.  1.
</event>
<event>
 8    1  0.3186330E-007  0.9118800E+02  0.7816164E-02  0.1184000E+00
        -11   -1    0    0    0    0  0.00000000000E+00  0.00000000000E+00  0.45593999997E+02  0.45594000000E+02  0.51100000000E-03 0. -1.
         11   -1    0    0    0    0 -0.00000000000E+00 -0.00000000000E+00 -0.45593999997E+02  0.45594000000E+02  0.51100000000E-03 0.  1.
         23    2    1    2    0    0  0.17763568394E-14  0.00000000000E+00  0.00000000000E+00  0.91188000000E+02  0.91188000000E+02 0.  0.
    9900012    2    3    3    0    0 -0.80750819619E+01  0.16794737195E+02  0.31757033917E+02  0.54367090868E+02  0.40000015252E+02 0.  0.
        -12    1    3    3    0    0  0.80750819619E+01 -0.16794737195E+02 -0.31757033917E+02  0.36820909132E+02  0.00000000000E+00 0.  1.
         11    1    4    4    0    0 -0.10996311684E+02  0.17396287320E+02  0.22654642525E+02  0.30606903002E+02  0.51100000000E-03 0. -1.
        -11    1    4    4    0    0 -0.13174434668E+01 -0.10722610904E+02  0.59983914059E+01  0.12356809524E+02  0.51100000000E-03 0.  1.
        -12    1    4    4    0    0  0.42386731890E+01  0.10121060779E+02  0.31039999858E+01  0.11403378342E+02  0.00000000000E+00 0.  1.
</event>
<event>
 8    1  0.3186330E-007  0.9118800E+02  0.7816164E-02  0.1184000E+00
        -11   -1    0    0    0    0  0.00000000000E+00  0.00000000000E+00  0.45593999997E+02  0.45594000000E+02  0.51100000000E-03 0.  1.
         11   -1    0    0    0    0 -0.00000000000E+00 -0.00000000000E+00 -0.45593999997E+02  0.45594000000E+02  0.51100000000E-03 0. -1.
         23    2    1    2    0    0 -0.35527136788E-14  0.35527136788E-14  0.44408920985E-15  0.91188000000E+02  0.91188000000E+02 0.  0.
    9900012    2    3    3    0    0  0.28901102164E+02  0.22756671217E+02 -0.16244728054E+01  0.54367099644E+02  0.40000035258E+02 0.  0.
        -12    1    3    3    0    0 -0.28901102164E+02 -0.22756671217E+02  0.16244728054E+01  0.36820900356E+02  0.00000000000E+00 0.  1.
         11    1    4    4    0    0  0.13728653021E+02  0.52979048644E+01 -0.32006533088E+01  0.15059478463E+02  0.51100000000E-03 0.  1.
        -11    1    4    4    0    0  0.11936764318E+02  0.17610726116E+02 -0.12626860141E+02  0.24739879022E+02  0.51100000000E-03 0. -1.
        -12    1    4    4    0    0  0.32356848252E+01 -0.15195976416E+00  0.14203040645E+02  0.14567742159E+02  0.00000000000E+00 0.  1.
</event>
<event>
 8    1  0.3186330E-007  0.9118800E+02  0.7816164E-02  0.1184000E+00
        -11   -1    0    0    0    0  0.00000000000E+00  0.00000000000E+00  0.45593999997E+02  0.45594000000E+02  0.51100000000E-03 0.  1.
         11   -1    0    0    0    0 -0.00000000000E+00 -0.00000000000E+00 -0.45593999997E+02  0.45594000000E+02  0.51100000000E-03 0. -1.
         23    2    1    2    0    0 -0.35527136788E-14  0.35527136788E-14  0.35527136788E-14  0.91188000000E+02  0.91188000000E+02 0.  0.
    9900012    2    3    3    0    0 -0.28155309913E+02  0.13645441757E+02 -0.19412928475E+02  0.54367063713E+02  0.39999953347E+02 0.  0.
        -12    1    3    3    0    0  0.28155309913E+02 -0.13645441757E+02  0.19412928475E+02  0.36820936287E+02  0.00000000000E+00 0.  1.
         11    1    4    4    0    0 -0.62106914128E+01 -0.45842078320E+01  0.73062793145E+01  0.10628704858E+02  0.51100000000E-03 0.  1.
        -11    1    4    4    0    0 -0.20585977091E+02  0.20171981264E+02 -0.28681593867E+02  0.40661100672E+02  0.51100000000E-03 0. -1.
         12    1    4    4    0    0 -0.13586414094E+01 -0.19423316747E+01  0.19623860767E+01  0.30772581835E+01  0.00000000000E+00 0. -1.
</event>
<event>
 8    1  0.3186330E-007  0.9118800E+02  0.7816164E-02  0.1184000E+00
        -11   -1    0    0    0    0  0.00000000000E+00  0.00000000000E+00  0.45593999997E+02  0.45594000000E+02  0.51100000000E-03 0.  1.
         11   -1    0    0    0    0 -0.00000000000E+00 -0.00000000000E+00 -0.45593999997E+02  0.45594000000E+02  0.51100000000E-03 0. -1.
         23    2    1    2    0    0 -0.11102230246E-15  0.44408920985E-15  0.00000000000E+00  0.91188000000E+02  0.91188000000E+02 0.  0.
    9900012    2    3    3    0    0  0.88680734789E+00 -0.20150852659E+01 -0.36755040669E+02  0.54367081890E+02  0.39999994785E+02 0.  0.
        -12    1    3    3    0    0 -0.88680734789E+00  0.20150852659E+01  0.36755040669E+02  0.36820918110E+02  0.00000000000E+00 0.  1.
         11    1    4    4    0    0 -0.29761526516E+01  0.92488989472E+01 -0.17370191625E+02  0.19902843357E+02  0.51100000000E-03 0. -1.
        -11    1    4    4    0    0  0.94750400664E+00 -0.37240600626E+01 -0.24564497135E+02  0.24863244096E+02  0.51100000000E-03 0.  1.
        -12    1    4    4    0    0  0.29154559929E+01 -0.75399241505E+01  0.51796480912E+01  0.96009944376E+01  0.00000000000E+00 0.  1.
</event>
<event>
 8    1  0.3186330E-007  0.9118800E+02  0.7816164E-02  0.1184000E+00
        -11   -1    0    0    0    0  0.00000000000E+00  0.00000000000E+00  0.45593999997E+02  0.45594000000E+02  0.51100000000E-03 0.  1.
         11   -1    0    0    0    0 -0.00000000000E+00 -0.00000000000E+00 -0.45593999997E+02  0.45594000000E+02  0.51100000000E-03 0. -1.
         23    2    1    2    0    0  0.35527136788E-14  0.00000000000E+00  0.00000000000E+00  0.91188000000E+02  0.91188000000E+02 0.  0.
    9900012    2    3    3    0    0  0.18978923979E+02  0.99613450011E+01 -0.29939128867E+02  0.54367090357E+02  0.40000014086E+02 0.  0.
        -12    1    3    3    0    0 -0.18978923979E+02 -0.99613450011E+01  0.29939128867E+02  0.36820909643E+02  0.00000000000E+00 0.  1.
         11    1    4    4    0    0 -0.36157083638E+01  0.55665254105E+01  0.62596447705E+01  0.91237440249E+01  0.51100000000E-03 0.  1.
        -11    1    4    4    0    0  0.49333338076E+01  0.23661696637E+01 -0.21472774450E+02  0.22158894020E+02  0.51100000000E-03 0. -1.
        -12    1    4    4    0    0  0.17661298535E+02  0.20286499269E+01 -0.14725999187E+02  0.23084452312E+02  0.00000000000E+00 0.  1.
</event>
<event>
 8    1  0.3186330E-007  0.9118800E+02  0.7816164E-02  0.1184000E+00
        -11   -1    0    0    0    0  0.00000000000E+00  0.00000000000E+00  0.45593999997E+02  0.45594000000E+02  0.51100000000E-03 0.  1.
         11   -1    0    0    0    0 -0.00000000000E+00 -0.00000000000E+00 -0.45593999997E+02  0.45594000000E+02  0.51100000000E-03 0. -1.
         23    2    1    2    0    0  0.00000000000E+00  0.88817841970E-15 -0.71054273576E-14  0.91188000000E+02  0.91188000000E+02 0.  0.
    9900012    2    3    3    0    0 -0.75110702332E+01 -0.50931126176E+01  0.35685015918E+02  0.54367131824E+02  0.40000108619E+02 0.  0.
         12    1    3    3    0    0  0.75110702332E+01  0.50931126176E+01 -0.35685015918E+02  0.36820868176E+02  0.00000000000E+00 0. -1.
         11    1    4    4    0    0  0.11226834265E+02 -0.62777356257E+01  0.15782301924E+02  0.20360079235E+02  0.51100000000E-03 0. -1.
        -11    1    4    4    0    0 -0.17356654982E+02 -0.51525548214E+01  0.67145899589E+01  0.19310308437E+02  0.51100000000E-03 0.  1.
         12    1    4    4    0    0 -0.13812495159E+01  0.63371778296E+01  0.13188124035E+02  0.14696744151E+02  0.00000000000E+00 0. -1.
</event>
<event>
 8    1  0.3186330E-007  0.9118800E+02  0.7816164E-02  0.1184000E+00
        -11   -1    0    0    0    0  0.00000000000E+00  0.00000000000E+00  0.45593999997E+02  0.45594000000E+02  0.51100000000E-03 0.  1.
         11   -1    0    0    0    0 -0.00000000000E+00 -0.00000000000E+00 -0.45593999997E+02  0.45594000000E+02  0.51100000000E-03 0. -1.
         23    2    1    2    0    0 -0.71054273576E-14  0.00000000000E+00  0.44408920985E-14  0.91188000000E+02  0.91188000000E+02 0.  0.
    9900012    2    3    3    0    0  0.35768560461E+02  0.44310223865E+01 -0.75336429619E+01  0.54367086743E+02  0.40000005848E+02 0.  0.
        -12    1    3    3    0    0 -0.35768560461E+02 -0.44310223865E+01  0.75336429619E+01  0.36820913257E+02  0.00000000000E+00 0.  1.
         11    1    4    4    0    0 -0.32163578818E+01  0.49804337972E+01 -0.51500162890E+01  0.78531743181E+01  0.51100000000E-03 0. -1.
        -11    1    4    4    0    0  0.35447148253E+02 -0.62275153525E+01 -0.90067989975E+01  0.37099928506E+02  0.51100000000E-03 0.  1.
        -12    1    4    4    0    0  0.35377700896E+01  0.56781039418E+01  0.66231723246E+01  0.94139839187E+01  0.00000000000E+00 0.  1.
</event>
<event>
 8    1  0.3186330E-007  0.9118800E+02  0.7816164E-02  0.1184000E+00
        -11   -1    0    0    0    0  0.00000000000E+00  0.00000000000E+00  0.45593999997E+02  0.45594000000E+02  0.51100000000E-03 0.  1.
         11   -1    0    0    0    0 -0.00000000000E+00 -0.00000000000E+00 -0.45593999997E+02  0.45594000000E+02  0.51100000000E-03 0. -1.
         23    2    1    2    0    0  0.00000000000E+00  0.00000000000E+00  0.71054273576E-14  0.91188000000E+02  0.91188000000E+02 0.  0.
    9900012    2    3    3    0    0  0.70195744076E+01  0.14273299711E+02 -0.33208118460E+02  0.54367073326E+02  0.39999975261E+02 0.  0.
        -12    1    3    3    0    0 -0.70195744076E+01 -0.14273299711E+02  0.33208118460E+02  0.36820926674E+02  0.00000000000E+00 0.  1.
         11    1    4    4    0    0  0.55238475638E+01  0.70261237492E+01 -0.15761601071E+02  0.18119254273E+02  0.51100000000E-03 0.  1.
        -11    1    4    4    0    0  0.37513119452E+00  0.72699747553E+01 -0.26317785485E+02  0.27306026614E+02  0.51100000000E-03 0. -1.
        -12    1    4    4    0    0  0.11205956493E+01 -0.22798793495E-01  0.88712680956E+01  0.89417924388E+01  0.00000000000E+00 0.  1.
</event>
<event>
 8    1  0.3186330E-007  0.9118800E+02  0.7816164E-02  0.1184000E+00
        -11   -1    0    0    0    0  0.00000000000E+00  0.00000000000E+00  0.45593999997E+02  0.45594000000E+02  0.51100000000E-03 0.  1.
         11   -1    0    0    0    0 -0.00000000000E+00 -0.00000000000E+00 -0.45593999997E+02  0.45594000000E+02  0.51100000000E-03 0. -1.
         23    2    1    2    0    0  0.00000000000E+00 -0.17763568394E-14  0.00000000000E+00  0.91188000000E+02  0.91188000000E+02 0.  0.
    9900012    2    3    3    0    0  0.13563535450E+02 -0.82449818486E+01 -0.33223948901E+02  0.54367082030E+02  0.39999995103E+02 0.  0.
        -12    1    3    3    0    0 -0.13563535450E+02  0.82449818486E+01  0.33223948901E+02  0.36820917970E+02  0.00000000000E+00 0.  1.
         11    1    4    4    0    0  0.14989648452E+02  0.80987191877E+01 -0.11119070398E+02  0.20344840623E+02  0.51100000000E-03 0. -1.
        -11    1    4    4    0    0  0.85709347403E+01 -0.28011971599E+01 -0.71987993617E+01  0.11538212182E+02  0.51100000000E-03 0.  1.
         12    1    4    4    0    0 -0.99970477423E+01 -0.13542503876E+02 -0.14906079142E+02  0.22484029225E+02  0.00000000000E+00 0. -1.
</event>
<event>
 8    1  0.3186330E-007  0.9118800E+02  0.7816164E-02  0.1184000E+00
        -11   -1    0    0    0    0  0.00000000000E+00  0.00000000000E+00  0.45593999997E+02  0.45594000000E+02  0.51100000000E-03 0. -1.
         11   -1    0    0    0    0 -0.00000000000E+00 -0.00000000000E+00 -0.45593999997E+02  0.45594000000E+02  0.51100000000E-03 0.  1.
         23    2    1    2    0    0  0.35527136788E-14  0.78409501114E-15  0.00000000000E+00  0.91188000000E+02  0.91188000000E+02 0.  0.
    9900012    2    3    3    0    0  0.25182708466E+02  0.32554522226E-01 -0.26862775551E+02  0.54367101371E+02  0.40000039196E+02 0.  0.
         12    1    3    3    0    0 -0.25182708466E+02 -0.32554522226E-01  0.26862775551E+02  0.36820898629E+02  0.00000000000E+00 0. -1.
         11    1    4    4    0    0  0.27144323983E+02 -0.11325763037E+02 -0.10379498593E+02  0.31190082144E+02  0.51100000000E-03 0.  1.
        -11    1    4    4    0    0 -0.45755911835E+01  0.61067326577E+01 -0.25274489910E+01  0.80384213061E+01  0.51100000000E-03 0. -1.
         12    1    4    4    0    0  0.26139756672E+01  0.52515849012E+01 -0.13955827968E+02  0.15138597921E+02  0.00000000000E+00 0. -1.
</event>
<event>
 8    1  0.3186330E-007  0.9118800E+02  0.7816164E-02  0.1184000E+00
        -11   -1    0    0    0    0  0.00000000000E+00  0.00000000000E+00  0.45593999997E+02  0.45594000000E+02  0.51100000000E-03 0.  1.
         11   -1    0    0    0    0 -0.00000000000E+00 -0.00000000000E+00 -0.45593999997E+02  0.45594000000E+02  0.51100000000E-03 0. -1.
         23    2    1    2    0    0 -0.71054273576E-14  0.00000000000E+00  0.00000000000E+00  0.91188000000E+02  0.91188000000E+02 0.  0.
    9900012    2    3    3    0    0  0.24968300948E+02  0.12452705584E+02  0.24026940434E+02  0.54367084813E+02  0.40000001448E+02 0.  0.
         12    1    3    3    0    0 -0.24968300948E+02 -0.12452705584E+02 -0.24026940434E+02  0.36820915187E+02  0.00000000000E+00 0. -1.
         11    1    4    4    0    0  0.60834641626E+01 -0.12473373891E+02  0.29951571409E+01  0.14197343378E+02  0.51100000000E-03 0. -1.
        -11    1    4    4    0    0  0.19963645238E+02  0.25748104259E+02  0.21091889862E+02  0.38812109223E+02  0.51100000000E-03 0.  1.
        -12    1    4    4    0    0 -0.10788084521E+01 -0.82202478439E+00 -0.60106569459E-01  0.13576322117E+01  0.00000000000E+00 0.  1.
</event>
<event>
 8    1  0.3186330E-007  0.9118800E+02  0.7816164E-02  0.1184000E+00
        -11   -1    0    0    0    0  0.00000000000E+00  0.00000000000E+00  0.45593999997E+02  0.45594000000E+02  0.51100000000E-03 0. -1.
         11   -1    0    0    0    0 -0.00000000000E+00 -0.00000000000E+00 -0.45593999997E+02  0.45594000000E+02  0.51100000000E-03 0.  1.
         23    2    1    2    0    0  0.17763568394E-14  0.00000000000E+00  0.35527136788E-14  0.91188000000E+02  0.91188000000E+02 0.  0.
    9900012    2    3    3    0    0  0.10288467384E+02 -0.21209664975E+02  0.28285578592E+02  0.54367130839E+02  0.40000106374E+02 0.  0.
        -12    1    3    3    0    0 -0.10288467384E+02  0.21209664975E+02 -0.28285578592E+02  0.36820869161E+02  0.00000000000E+00 0.  1.
         11    1    4    4    0    0 -0.17461472316E+01  0.60323882107E+01  0.60167723453E+01  0.86971424845E+01  0.51100000000E-03 0.  1.
        -11    1    4    4    0    0  0.10846425108E+02 -0.56644295310E+01 -0.28200518141E+01  0.12557204786E+02  0.51100000000E-03 0. -1.
         12    1    4    4    0    0  0.11881895080E+01 -0.21577623654E+02  0.25088858061E+02  0.33112783569E+02  0.00000000000E+00 0. -1.
</event>
<event>
 8    1  0.3186330E-007  0.9118800E+02  0.7816164E-02  0.1184000E+00
        -11   -1    0    0    0    0  0.00000000000E+00  0.00000000000E+00  0.45593999997E+02  0.45594000000E+02  0.51100000000E-03 0.  1.
         11   -1    0    0    0    0 -0.00000000000E+00 -0.00000000000E+00 -0.45593999997E+02  0.45594000000E+02  0.51100000000E-03 0. -1.
         23    2    1    2    0    0  0.17763568394E-14  0.00000000000E+00  0.00000000000E+00  0.91188000000E+02  0.91188000000E+02 0.  0.
    9900012    2    3    3    0    0 -0.78183921036E+01 -0.90507026989E+01  0.34824372613E+02  0.54367090148E+02  0.40000013611E+02 0.  0.
         12    1    3    3    0    0  0.78183921036E+01  0.90507026989E+01 -0.34824372613E+02  0.36820909852E+02  0.00000000000E+00 0. -1.
         11    1    4    4    0    0 -0.14944341983E+02 -0.68945724539E+01  0.24638387829E+01  0.16641483961E+02  0.51100000000E-03 0. -1.
        -11    1    4    4    0    0  0.18602757366E+01  0.78516675985E+01  0.14174894972E+02  0.16310639399E+02  0.51100000000E-03 0.  1.
        -12    1    4    4    0    0  0.52656741424E+01 -0.10007797843E+02  0.18185638858E+02  0.21414966788E+02  0.00000000000E+00 0.  1.
</event>
<event>
 8    1  0.3186330E-007  0.9118800E+02  0.7816164E-02  0.1184000E+00
        -11   -1    0    0    0    0  0.00000000000E+00  0.00000000000E+00  0.45593999997E+02  0.45594000000E+02  0.51100000000E-03 0. -1.
         11   -1    0    0    0    0 -0.00000000000E+00 -0.00000000000E+00 -0.45593999997E+02  0.45594000000E+02  0.51100000000E-03 0.  1.
         23    2    1    2    0    0  0.00000000000E+00  0.26645352591E-14  0.00000000000E+00  0.91188000000E+02  0.91188000000E+02 0.  0.
    9900012    2    3    3    0    0 -0.35614761206E+02 -0.76241573449E+01 -0.54074819477E+01  0.54367084042E+02  0.39999999690E+02 0.  0.
         12    1    3    3    0    0  0.35614761206E+02  0.76241573449E+01  0.54074819477E+01  0.36820915958E+02  0.00000000000E+00 0. -1.
         11    1    4    4    0    0 -0.38369608405E+01  0.11514500402E+02  0.75705833023E+00  0.12160556137E+02  0.51100000000E-03 0. -1.
        -11    1    4    4    0    0 -0.14442908893E+02 -0.19419608143E+02 -0.56967003034E+01  0.24863048734E+02  0.51100000000E-03 0.  1.
         12    1    4    4    0    0 -0.17334891473E+02  0.28095039708E+00 -0.46783997450E+00  0.17343479171E+02  0.00000000000E+00 0. -1.
</event>
<event>
 8    1  0.3186330E-007  0.9118800E+02  0.7816164E-02  0.1184000E+00
        -11   -1    0    0    0    0  0.00000000000E+00  0.00000000000E+00  0.45593999997E+02  0.45594000000E+02  0.51100000000E-03 0. -1.
         11   -1    0    0    0    0 -0.00000000000E+00 -0.00000000000E+00 -0.45593999997E+02  0.45594000000E+02  0.51100000000E-03 0.  1.
         23    2    1    2    0    0  0.00000000000E+00 -0.35527136788E-14  0.00000000000E+00  0.91188000000E+02  0.91188000000E+02 0.  0.
    9900012    2    3    3    0    0  0.77094132883E+01 -0.17193144159E+02  0.31634463471E+02  0.54367101879E+02  0.40000040354E+02 0.  0.
        -12    1    3    3    0    0 -0.77094132883E+01  0.17193144159E+02 -0.31634463471E+02  0.36820898121E+02  0.00000000000E+00 0.  1.
         11    1    4    4    0    0  0.12120837993E+01  0.48016047072E+01 -0.32599795958E+01  0.59289140765E+01  0.51100000000E-03 0.  1.
        -11    1    4    4    0    0  0.28897093062E+01 -0.26973920515E+02  0.30836667652E+02  0.41071192824E+02  0.51100000000E-03 0. -1.
         12    1    4    4    0    0  0.36076201828E+01  0.49791716493E+01  0.40577754154E+01  0.73669949788E+01  0.00000000000E+00 0. -1.
</event>
<event>
 8    1  0.3186330E-007  0.9118800E+02  0.7816164E-02  0.1184000E+00
        -11   -1    0    0    0    0  0.00000000000E+00  0.00000000000E+00  0.45593999997E+02  0.45594000000E+02  0.51100000000E-03 0.  1.
         11   -1    0    0    0    0 -0.00000000000E+00 -0.00000000000E+00 -0.45593999997E+02  0.45594000000E+02  0.51100000000E-03 0. -1.
         23    2    1    2    0    0 -0.71054273576E-14  0.00000000000E+00  0.00000000000E+00  0.91188000000E+02  0.91188000000E+02 0.  0.
    9900012    2    3    3    0    0  0.33868473669E+02  0.13470566235E+02 -0.52201889047E+01  0.54367081549E+02  0.39999994008E+02 0.  0.
         12    1    3    3    0    0 -0.33868473669E+02 -0.13470566235E+02  0.52201889047E+01  0.36820918451E+02  0.00000000000E+00 0. -1.
         11    1    4    4    0    0  0.63990119519E+00  0.15082404923E+02 -0.76859846327E+01  0.16939975556E+02  0.51100000000E-03 0. -1.
        -11    1    4    4    0    0  0.70063967787E+00  0.34428676047E+01 -0.22508324558E+01  0.41725867645E+01  0.51100000000E-03 0.  1.
         12    1    4    4    0    0  0.32527932796E+02 -0.50547062931E+01  0.47166281838E+01  0.33254519228E+02  0.00000000000E+00 0. -1.
</event>
<event>
 8    1  0.3186330E-007  0.9118800E+02  0.7816164E-02  0.1184000E+00
        -11   -1    0    0    0    0  0.00000000000E+00  0.00000000000E+00  0.45593999997E+02  0.45594000000E+02  0.51100000000E-03 0.  1.
         11   -1    0    0    0    0 -0.00000000000E+00 -0.00000000000E+00 -0.45593999997E+02  0.45594000000E+02  0.51100000000E-03 0. -1.
         23    2    1    2    0    0 -0.26645352591E-14 -0.88817841970E-15  0.71054273576E-14  0.91188000000E+02  0.91188000000E+02 0.  0.
    9900012    2    3    3    0    0  0.22316165926E+01 -0.47334133295E+01  0.36447152541E+02  0.54367078736E+02  0.39999987594E+02 0.  0.
         12    1    3    3    0    0 -0.22316165926E+01  0.47334133295E+01 -0.36447152541E+02  0.36820921264E+02  0.00000000000E+00 0. -1.
         11    1    4    4    0    0  0.37183755321E+01 -0.71681969051E+01  0.43698167709E+01  0.91817570399E+01  0.51100000000E-03 0. -1.
        -11    1    4    4    0    0 -0.13264303144E+02 -0.81541848250E+01  0.19545575932E+02  0.24989237820E+02  0.51100000000E-03 0.  1.
        -12    1    4    4    0    0  0.11777544204E+02  0.10588968401E+02  0.12531759838E+02  0.20196083876E+02  0.00000000000E+00 0.  1.
</event>
<event>
 8    1  0.3186330E-007  0.9118800E+02  0.7816164E-02  0.1184000E+00
        -11   -1    0    0    0    0  0.00000000000E+00  0.00000000000E+00  0.45593999997E+02  0.45594000000E+02  0.51100000000E-03 0.  1.
         11   -1    0    0    0    0 -0.00000000000E+00 -0.00000000000E+00 -0.45593999997E+02  0.45594000000E+02  0.51100000000E-03 0. -1.
         23    2    1    2    0    0  0.00000000000E+00  0.00000000000E+00  0.00000000000E+00  0.91188000000E+02  0.91188000000E+02 0.  0.
    9900012    2    3    3    0    0  0.23520928205E+02 -0.27807692101E+02 -0.54109372803E+01  0.54367081410E+02  0.39999993690E+02 0.  0.
        -12    1    3    3    0    0 -0.23520928205E+02  0.27807692101E+02  0.54109372803E+01  0.36820918590E+02  0.00000000000E+00 0.  1.
         11    1    4    4    0    0  0.16479665022E+02  0.95970030663E+00  0.41319353858E+00  0.16512756072E+02  0.51100000000E-03 0. -1.
        -11    1    4    4    0    0 -0.27194194015E+01 -0.14866561714E+02  0.69174012454E+01  0.16621081172E+02  0.51100000000E-03 0.  1.
         12    1    4    4    0    0  0.97606825842E+01 -0.13900830693E+02 -0.12741532064E+02  0.21233244166E+02  0.00000000000E+00 0. -1.
</event>
<event>
 8    1  0.3186330E-007  0.9118800E+02  0.7816164E-02  0.1184000E+00
        -11   -1    0    0    0    0  0.00000000000E+00  0.00000000000E+00  0.45593999997E+02  0.45594000000E+02  0.51100000000E-03 0. -1.
         11   -1    0    0    0    0 -0.00000000000E+00 -0.00000000000E+00 -0.45593999997E+02  0.45594000000E+02  0.51100000000E-03 0.  1.
         23    2    1    2    0    0  0.00000000000E+00 -0.71054273576E-14 -0.17763568394E-14  0.91188000000E+02  0.91188000000E+02 0.  0.
    9900012    2    3    3    0    0  0.89547797926E+01 -0.34463577414E+02  0.93730293915E+01  0.54367082993E+02  0.39999997298E+02 0.  0.
        -12    1    3    3    0    0 -0.89547797926E+01  0.34463577414E+02 -0.93730293915E+01  0.36820917007E+02  0.00000000000E+00 0.  1.
         11    1    4    4    0    0 -0.23305397383E+01 -0.26711345243E+02  0.21292198774E+02  0.34238649346E+02  0.51100000000E-03 0. -1.
        -11    1    4    4    0    0  0.84084333926E+01 -0.91826162176E+01 -0.11385353692E+02  0.16871528433E+02  0.51100000000E-03 0.  1.
        -12    1    4    4    0    0  0.28768861383E+01  0.14303840469E+01 -0.53381569061E+00  0.32569052129E+01  0.00000000000E+00 0.  1.
</event>
<event>
 8    1  0.3186330E-007  0.9118800E+02  0.7816164E-02  0.1184000E+00
        -11   -1    0    0    0    0  0.00000000000E+00  0.00000000000E+00  0.45593999997E+02  0.45594000000E+02  0.51100000000E-03 0.  1.
         11   -1    0    0    0    0 -0.00000000000E+00 -0.00000000000E+00 -0.45593999997E+02  0.45594000000E+02  0.51100000000E-03 0. -1.
         23    2    1    2    0    0 -0.22204460493E-15  0.00000000000E+00 -0.88817841970E-15  0.91188000000E+02  0.91188000000E+02 0.  0.
    9900012    2    3    3    0    0  0.15896862502E+01 -0.36334326199E+02 -0.57507173131E+01  0.54367066927E+02  0.39999960674E+02 0.  0.
        -12    1    3    3    0    0 -0.15896862502E+01  0.36334326199E+02  0.57507173131E+01  0.36820933073E+02  0.00000000000E+00 0.  1.
         11    1    4    4    0    0 -0.64880735299E+01 -0.71063472741E+01 -0.84727649425E+01  0.12821194006E+02  0.51100000000E-03 0. -1.
        -11    1    4    4    0    0 -0.49412547268E+01 -0.81194535931E+01  0.11785915412E+02  0.15140981715E+02  0.51100000000E-03 0.  1.
        -12    1    4    4    0    0  0.13019014507E+02 -0.21108525332E+02 -0.90638677827E+01  0.26404891206E+02  0.00000000000E+00 0.  1.
</event>
<event>
 8    1  0.3186330E-007  0.9118800E+02  0.7816164E-02  0.1184000E+00
        -11   -1    0    0    0    0  0.00000000000E+00  0.00000000000E+00  0.45593999997E+02  0.45594000000E+02  0.51100000000E-03 0.  1.
         11   -1    0    0    0    0 -0.00000000000E+00 -0.00000000000E+00 -0.45593999997E+02  0.45594000000E+02  0.51100000000E-03 0. -1.
         23    2    1    2    0    0  0.00000000000E+00  0.35527136788E-14 -0.17763568394E-14  0.91188000000E+02  0.91188000000E+02 0.  0.
    9900012    2    3    3    0    0 -0.30927737949E+02  0.15600176598E+02  0.12485565547E+02  0.54367084320E+02  0.40000000324E+02 0.  0.
        -12    1    3    3    0    0  0.30927737949E+02 -0.15600176598E+02 -0.12485565547E+02  0.36820915680E+02  0.00000000000E+00 0.  1.
         11    1    4    4    0    0 -0.30951850086E+01 -0.73843156727E+01  0.35609722151E+01  0.87629225472E+01  0.51100000000E-03 0. -1.
        -11    1    4    4    0    0 -0.24951499307E+01 -0.20490471662E+01 -0.61352744121E+01  0.69329618374E+01  0.51100000000E-03 0.  1.
         12    1    4    4    0    0 -0.25337403009E+02  0.25033539436E+02  0.15059867744E+02  0.38671199935E+02  0.00000000000E+00 0. -1.
</event>
<event>
 8    1  0.3186330E-007  0.9118800E+02  0.7816164E-02  0.1184000E+00
        -11   -1    0    0    0    0  0.00000000000E+00  0.00000000000E+00  0.45593999997E+02  0.45594000000E+02  0.51100000000E-03 0.  1.
         11   -1    0    0    0    0 -0.00000000000E+00 -0.00000000000E+00 -0.45593999997E+02  0.45594000000E+02  0.51100000000E-03 0. -1.
         23    2    1    2    0    0  0.88817841970E-15  0.35527136788E-14 -0.35527136788E-14  0.91188000000E+02  0.91188000000E+02 0.  0.
    9900012    2    3    3    0    0  0.66628426936E+01 -0.26831508666E+02  0.24319886289E+02  0.54367079328E+02  0.39999988944E+02 0.  0.
         12    1    3    3    0    0 -0.66628426936E+01  0.26831508666E+02 -0.24319886289E+02  0.36820920672E+02  0.00000000000E+00 0. -1.
         11    1    4    4    0    0  0.38026602622E+01 -0.18521157822E+02  0.62545567607E+01  0.19915144806E+02  0.51100000000E-03 0. -1.
        -11    1    4    4    0    0  0.83946059544E+01 -0.15077587675E+02  0.18991481557E+02  0.25660854063E+02  0.51100000000E-03 0.  1.
         12    1    4    4    0    0 -0.55344235231E+01  0.67672368306E+01 -0.92615202925E+00  0.87910804590E+01  0.00000000000E+00 0. -1.
</event>
<event>
 8    1  0.3186330E-007  0.9118800E+02  0.7816164E-02  0.1184000E+00
        -11   -1    0    0    0    0  0.00000000000E+00  0.00000000000E+00  0.45593999997E+02  0.45594000000E+02  0.51100000000E-03 0.  1.
         11   -1    0    0    0    0 -0.00000000000E+00 -0.00000000000E+00 -0.45593999997E+02  0.45594000000E+02  0.51100000000E-03 0. -1.
         23    2    1    2    0    0 -0.88817841970E-15  0.00000000000E+00 -0.35527136788E-14  0.91188000000E+02  0.91188000000E+02 0.  0.
    9900012    2    3    3    0    0  0.59516550676E+01 -0.23739422809E+02  0.27509917235E+02  0.54367110010E+02  0.40000058890E+02 0.  0.
         12    1    3    3    0    0 -0.59516550676E+01  0.23739422809E+02 -0.27509917235E+02  0.36820889990E+02  0.00000000000E+00 0. -1.
         11    1    4    4    0    0  0.48164834493E+01 -0.29874631498E+02  0.19359287166E+02  0.35923169679E+02  0.51100000000E-03 0.  1.
        -11    1    4    4    0    0 -0.32021546691E+01  0.77250475976E+01 -0.77037061338E+00  0.83978346050E+01  0.51100000000E-03 0. -1.
        -12    1    4    4    0    0  0.43373262874E+01 -0.15898389087E+01  0.89210006826E+01  0.10046105726E+02  0.00000000000E+00 0.  1.
</event>
<event>
 8    1  0.3186330E-007  0.9118800E+02  0.7816164E-02  0.1184000E+00
        -11   -1    0    0    0    0  0.00000000000E+00  0.00000000000E+00  0.45593999997E+02  0.45594000000E+02  0.51100000000E-03 0. -1.
         11   -1    0    0    0    0 -0.00000000000E+00 -0.00000000000E+00 -0.45593999997E+02  0.45594000000E+02  0.51100000000E-03 0.  1.
         23    2    1    2    0    0  0.35527136788E-14  0.00000000000E+00  0.44408920985E-15  0.91188000000E+02  0.91188000000E+02 0.  0.
    9900012    2    3    3    0    0  0.23591943942E+02 -0.28098873542E+02  0.31068280274E+01  0.54367097055E+02  0.40000029357E+02 0.  0.
        -12    1    3    3    0    0 -0.23591943942E+02  0.28098873542E+02 -0.31068280274E+01  0.36820902945E+02  0.00000000000E+00 0.  1.
         11    1    4    4    0    0 -0.61789989701E+01 -0.84361712342E+01  0.15523980861E+01  0.10571610731E+02  0.51100000000E-03 0. -1.
        -11    1    4    4    0    0  0.12412031976E+02 -0.14090511666E+01  0.11243442756E+02  0.16806515648E+02  0.51100000000E-03 0.  1.
        -12    1    4    4    0    0  0.17358910935E+02 -0.18253651141E+02 -0.96890128147E+01  0.26988970676E+02  0.00000000000E+00 0.  1.
</event>
<event>
 8    1  0.3186330E-007  0.9118800E+02  0.7816164E-02  0.1184000E+00
        -11   -1    0    0    0    0  0.00000000000E+00  0.00000000000E+00  0.45593999997E+02  0.45594000000E+02  0.51100000000E-03 0. -1.
         11   -1    0    0    0    0 -0.00000000000E+00 -0.00000000000E+00 -0.45593999997E+02  0.45594000000E+02  0.51100000000E-03 0.  1.
         23    2    1    2    0    0 -0.35527136788E-14  0.00000000000E+00 -0.17763568394E-14  0.91188000000E+02  0.91188000000E+02 0.  0.
    9900012    2    3    3    0    0 -0.19258414229E+02  0.27664752647E+02 -0.14817616956E+02  0.54366989287E+02  0.39999783677E+02 0.  0.
         12    1    3    3    0    0  0.19258414229E+02 -0.27664752647E+02  0.14817616956E+02  0.36821010713E+02  0.00000000000E+00 0. -1.
         11    1    4    4    0    0 -0.48960163988E+01 -0.77368592008E+01 -0.57114163186E+01  0.10791211401E+02  0.51100000000E-03 0. -1.
        -11    1    4    4    0    0 -0.10712260240E+02  0.80443401350E+01  0.25128583152E+01  0.13630054469E+02  0.51100000000E-03 0.  1.
        -12    1    4    4    0    0 -0.36501375902E+01  0.27357271713E+02 -0.11619058953E+02  0.29945723417E+02  0.00000000000E+00 0.  1.
</event>
<event>
 8    1  0.3186330E-007  0.9118800E+02  0.7816164E-02  0.1184000E+00
        -11   -1    0    0    0    0  0.00000000000E+00  0.00000000000E+00  0.45593999997E+02  0.45594000000E+02  0.51100000000E-03 0. -1.
         11   -1    0    0    0    0 -0.00000000000E+00 -0.00000000000E+00 -0.45593999997E+02  0.45594000000E+02  0.51100000000E-03 0.  1.
         23    2    1    2    0    0  0.00000000000E+00  0.00000000000E+00 -0.17763568394E-14  0.91188000000E+02  0.91188000000E+02 0.  0.
    9900012    2    3    3    0    0 -0.29419112715E+02  0.15973876756E+02 -0.15333910243E+02  0.54367112791E+02  0.40000065229E+02 0.  0.
        -12    1    3    3    0    0  0.29419112715E+02 -0.15973876756E+02  0.15333910243E+02  0.36820887209E+02  0.00000000000E+00 0.  1.
         11    1    4    4    0    0 -0.47258570756E+01 -0.40603486560E+01 -0.17744464640E+02  0.18806546252E+02  0.51100000000E-03 0.  1.
        -11    1    4    4    0    0 -0.73296801579E+00  0.78940697534E+01 -0.23774005296E+01  0.82768117608E+01  0.51100000000E-03 0. -1.
         12    1    4    4    0    0 -0.23960287623E+02  0.12140155659E+02  0.47879549265E+01  0.27283754778E+02  0.00000000000E+00 0. -1.
</event>
<event>
 8    1  0.3186330E-007  0.9118800E+02  0.7816164E-02  0.1184000E+00
        -11   -1    0    0    0    0  0.00000000000E+00  0.00000000000E+00  0.45593999997E+02  0.45594000000E+02  0.51100000000E-03 0.  1.
         11   -1    0    0    0    0 -0.00000000000E+00 -0.00000000000E+00 -0.45593999997E+02  0.45594000000E+02  0.51100000000E-03 0. -1.
         23    2    1    2    0    0  0.00000000000E+00 -0.14210854715E-13  0.00000000000E+00  0.91188000000E+02  0.91188000000E+02 0.  0.
    9900012    2    3    3    0    0 -0.46227772930E+01 -0.33482713154E+02  0.14605352543E+02  0.54367102768E+02  0.40000042380E+02 0.  0.
         12    1    3    3    0    0  0.46227772930E+01  0.33482713154E+02 -0.14605352543E+02  0.36820897232E+02  0.00000000000E+00 0. -1.
         11    1    4    4    0    0  0.10102601073E+02 -0.21163629256E+02  0.59032693239E+01  0.24182852204E+02  0.51100000000E-03 0. -1.
        -11    1    4    4    0    0 -0.83860391908E+01 -0.15664996835E+02 -0.13707322923E+01  0.17821242561E+02  0.51100000000E-03 0.  1.
        -12    1    4    4    0    0 -0.63393391756E+01  0.33459129366E+01  0.10072815512E+02  0.12363008004E+02  0.00000000000E+00 0.  1.
</event>
<event>
 8    1  0.3186330E-007  0.9118800E+02  0.7816164E-02  0.1184000E+00
        -11   -1    0    0    0    0  0.00000000000E+00  0.00000000000E+00  0.45593999997E+02  0.45594000000E+02  0.51100000000E-03 0.  1.
         11   -1    0    0    0    0 -0.00000000000E+00 -0.00000000000E+00 -0.45593999997E+02  0.45594000000E+02  0.51100000000E-03 0. -1.
         23    2    1    2    0    0  0.00000000000E+00 -0.11102230246E-14 -0.71054273576E-14  0.91188000000E+02  0.91188000000E+02 0.  0.
    9900012    2    3    3    0    0 -0.43975435457E+01 -0.59047398032E+00 -0.36552616438E+02  0.54367070935E+02  0.39999969811E+02 0.  0.
        -12    1    3    3    0    0  0.43975435457E+01  0.59047398032E+00  0.36552616438E+02  0.36820929065E+02  0.00000000000E+00 0.  1.
         11    1    4    4    0    0  0.81150641371E+01 -0.13855986845E+02 -0.25136332557E+02  0.29827468081E+02  0.51100000000E-03 0. -1.
        -11    1    4    4    0    0 -0.17172000338E+01  0.18799511013E+01 -0.81164970147E+01  0.85064984659E+01  0.51100000000E-03 0.  1.
        -12    1    4    4    0    0 -0.10795407649E+02  0.11385561763E+02 -0.32997868657E+01  0.16033104389E+02  0.00000000000E+00 0.  1.
</event>
<event>
 8    1  0.3186330E-007  0.9118800E+02  0.7816164E-02  0.1184000E+00
        -11   -1    0    0    0    0  0.00000000000E+00  0.00000000000E+00  0.45593999997E+02  0.45594000000E+02  0.51100000000E-03 0. -1.
         11   -1    0    0    0    0 -0.00000000000E+00 -0.00000000000E+00 -0.45593999997E+02  0.45594000000E+02  0.51100000000E-03 0.  1.
         23    2    1    2    0    0  0.88817841970E-15  0.00000000000E+00  0.00000000000E+00  0.91188000000E+02  0.91188000000E+02 0.  0.
    9900012    2    3    3    0    0  0.50197055785E+01  0.24207177486E+02  0.27287241355E+02  0.54367103397E+02  0.40000043813E+02 0.  0.
        -12    1    3    3    0    0 -0.50197055785E+01 -0.24207177486E+02 -0.27287241355E+02  0.36820896603E+02  0.00000000000E+00 0.  1.
         11    1    4    4    0    0  0.90089219581E+01  0.72048451051E+01 -0.38298162462E+01  0.12154750535E+02  0.51100000000E-03 0.  1.
        -11    1    4    4    0    0 -0.36326751784E+01  0.97379638541E+00 -0.28054226349E+01  0.46920150014E+01  0.51100000000E-03 0. -1.
         12    1    4    4    0    0 -0.35654120115E+00  0.16028535995E+02  0.33922480236E+02  0.37520337860E+02  0.00000000000E+00 0. -1.
</event>
<event>
 8    1  0.3186330E-007  0.9118800E+02  0.7816164E-02  0.1184000E+00
        -11   -1    0    0    0    0  0.00000000000E+00  0.00000000000E+00  0.45593999997E+02  0.45594000000E+02  0.51100000000E-03 0.  1.
         11   -1    0    0    0    0 -0.00000000000E+00 -0.00000000000E+00 -0.45593999997E+02  0.45594000000E+02  0.51100000000E-03 0. -1.
         23    2    1    2    0    0  0.00000000000E+00  0.00000000000E+00 -0.35527136788E-14  0.91188000000E+02  0.91188000000E+02 0.  0.
    9900012    2    3    3    0    0  0.18235453845E+02 -0.24105476642E+02  0.21027948719E+02  0.54367076487E+02  0.39999982466E+02 0.  0.
        -12    1    3    3    0    0 -0.18235453845E+02  0.24105476642E+02 -0.21027948719E+02  0.36820923513E+02  0.00000000000E+00 0.  1.
         11    1    4    4    0    0  0.12712641552E+02  0.22915159218E+01 -0.65744937698E+01  0.14494353005E+02  0.51100000000E-03 0. -1.
        -11    1    4    4    0    0 -0.34057387350E+00 -0.10431677233E+02  0.16625303086E+02  0.19629991936E+02  0.51100000000E-03 0.  1.
         12    1    4    4    0    0  0.58633861665E+01 -0.15965315331E+02  0.10977139403E+02  0.20242731546E+02  0.00000000000E+00 0. -1.
</event>
<event>
 8    1  0.3186330E-007  0.9118800E+02  0.7816164E-02  0.1184000E+00
        -11   -1    0    0    0    0  0.00000000000E+00  0.00000000000E+00  0.45593999997E+02  0.45594000000E+02  0.51100000000E-03 0. -1.
         11   -1    0    0    0    0 -0.00000000000E+00 -0.00000000000E+00 -0.45593999997E+02  0.45594000000E+02  0.51100000000E-03 0.  1.
         23    2    1    2    0    0 -0.17763568394E-14  0.00000000000E+00 -0.35527136788E-14  0.91188000000E+02  0.91188000000E+02 0.  0.
    9900012    2    3    3    0    0 -0.15978584247E+02 -0.12630471889E+02  0.30674687604E+02  0.54367076135E+02  0.39999981664E+02 0.  0.
        -12    1    3    3    0    0  0.15978584247E+02  0.12630471889E+02 -0.30674687604E+02  0.36820923865E+02  0.00000000000E+00 0.  1.
         11    1    4    4    0    0 -0.34865295001E+01 -0.19348095977E+02  0.22465200069E+02  0.29852804228E+02  0.51100000000E-03 0. -1.
        -11    1    4    4    0    0 -0.44874580902E+01  0.91488452527E+01  0.11642038758E+02  0.15471771595E+02  0.51100000000E-03 0.  1.
         12    1    4    4    0    0 -0.80045966565E+01 -0.24312211649E+01 -0.34325512233E+01  0.90425003117E+01  0.00000000000E+00 0. -1.
</event>
<event>
 8    1  0.3186330E-007  0.9118800E+02  0.7816164E-02  0.1184000E+00
        -11   -1    0    0    0    0  0.00000000000E+00  0.00000000000E+00  0.45593999997E+02  0.45594000000E+02  0.51100000000E-03 0. -1.
         11   -1    0    0    0    0 -0.00000000000E+00 -0.00000000000E+00 -0.45593999997E+02  0.45594000000E+02  0.51100000000E-03 0.  1.
         23    2    1    2    0    0 -0.88817841970E-15 -0.35527136788E-14  0.35527136788E-14  0.91188000000E+02  0.91188000000E+02 0.  0.
    9900012    2    3    3    0    0 -0.76554959686E+01 -0.30827786708E+02  0.18623104045E+02  0.54367094849E+02  0.40000024328E+02 0.  0.
        -12    1    3    3    0    0  0.76554959686E+01  0.30827786708E+02 -0.18623104045E+02  0.36820905151E+02  0.00000000000E+00 0.  1.
         11    1    4    4    0    0 -0.10292953675E+02 -0.70741532964E+01  0.19161354752E+02  0.22872386330E+02  0.51100000000E-03 0. -1.
        -11    1    4    4    0    0  0.47987962981E+01 -0.22534167695E+01 -0.71465085792E+01  0.88982536591E+01  0.51100000000E-03 0.  1.
        -12    1    4    4    0    0 -0.21613385912E+01 -0.21500216642E+02  0.66082578722E+01  0.22596454860E+02  0.00000000000E+00 0.  1.
</event>
<event>
 8    1  0.3186330E-007  0.9118800E+02  0.7816164E-02  0.1184000E+00
        -11   -1    0    0    0    0  0.00000000000E+00  0.00000000000E+00  0.45593999997E+02  0.45594000000E+02  0.51100000000E-03 0. -1.
         11   -1    0    0    0    0 -0.00000000000E+00 -0.00000000000E+00 -0.45593999997E+02  0.45594000000E+02  0.51100000000E-03 0.  1.
         23    2    1    2    0    0  0.00000000000E+00 -0.22204460493E-15  0.00000000000E+00  0.91188000000E+02  0.91188000000E+02 0.  0.
    9900012    2    3    3    0    0 -0.33097932193E+02  0.16575696948E+01  0.16048641297E+02  0.54367088275E+02  0.40000009341E+02 0.  0.
        -12    1    3    3    0    0  0.33097932193E+02 -0.16575696948E+01 -0.16048641297E+02  0.36820911725E+02  0.00000000000E+00 0.  1.
         11    1    4    4    0    0 -0.26153239998E+01  0.13891732474E+02  0.84608359814E+01  0.16474401249E+02  0.51100000000E-03 0.  1.
        -11    1    4    4    0    0 -0.15031176795E+02 -0.82698191672E+01 -0.46641850341E+01  0.17778661570E+02  0.51100000000E-03 0. -1.
         12    1    4    4    0    0 -0.15451431398E+02 -0.39643436119E+01  0.12251990350E+02  0.20114025456E+02  0.00000000000E+00 0. -1.
</event>
<event>
 8    1  0.3186330E-007  0.9118800E+02  0.7816164E-02  0.1184000E+00
        -11   -1    0    0    0    0  0.00000000000E+00  0.00000000000E+00  0.45593999997E+02  0.45594000000E+02  0.51100000000E-03 0. -1.
         11   -1    0    0    0    0 -0.00000000000E+00 -0.00000000000E+00 -0.45593999997E+02  0.45594000000E+02  0.51100000000E-03 0.  1.
         23    2    1    2    0    0 -0.17763568394E-14 -0.88817841970E-15  0.00000000000E+00  0.91188000000E+02  0.91188000000E+02 0.  0.
    9900012    2    3    3    0    0  0.16092332557E+01  0.56649174535E+01 -0.36346914685E+02  0.54367093866E+02  0.40000022086E+02 0.  0.
         12    1    3    3    0    0 -0.16092332557E+01 -0.56649174535E+01  0.36346914685E+02  0.36820906134E+02  0.00000000000E+00 0. -1.
         11    1    4    4    0    0  0.19963153498E+01 -0.86511995581E-01  0.65722293768E+01  0.68692764207E+01  0.51100000000E-03 0. -1.
        -11    1    4    4    0    0 -0.84271705908E+01 -0.24005830998E+01 -0.15941639847E+02  0.18191093553E+02  0.51100000000E-03 0.  1.
        -12    1    4    4    0    0  0.80400884967E+01  0.81520125489E+01 -0.26977504215E+02  0.29306723892E+02  0.00000000000E+00 0.  1.
</event>
<event>
 8    1  0.3186330E-007  0.9118800E+02  0.7816164E-02  0.1184000E+00
        -11   -1    0    0    0    0  0.00000000000E+00  0.00000000000E+00  0.45593999997E+02  0.45594000000E+02  0.51100000000E-03 0.  1.
         11   -1    0    0    0    0 -0.00000000000E+00 -0.00000000000E+00 -0.45593999997E+02  0.45594000000E+02  0.51100000000E-03 0. -1.
         23    2    1    2    0    0  0.88817841970E-15 -0.35527136788E-14 -0.71054273576E-14  0.91188000000E+02  0.91188000000E+02 0.  0.
    9900012    2    3    3    0    0  0.46300378305E+01 -0.21477554970E+02 -0.29547549335E+02  0.54367078101E+02  0.39999986147E+02 0.  0.
        -12    1    3    3    0    0 -0.46300378305E+01  0.21477554970E+02  0.29547549335E+02  0.36820921899E+02  0.00000000000E+00 0.  1.
         11    1    4    4    0    0  0.43187631224E+01 -0.15878585837E+02 -0.33998253722E+02  0.37771185571E+02  0.51100000000E-03 0. -1.
        -11    1    4    4    0    0 -0.63858244499E+01 -0.31817461214E+01  0.59849816128E+01  0.93124791249E+01  0.51100000000E-03 0.  1.
        -12    1    4    4    0    0  0.66970991579E+01 -0.24172230111E+01 -0.15342772262E+01  0.72834134047E+01  0.00000000000E+00 0.  1.
</event>
<event>
 8    1  0.3186330E-007  0.9118800E+02  0.7816164E-02  0.1184000E+00
        -11   -1    0    0    0    0  0.00000000000E+00  0.00000000000E+00  0.45593999997E+02  0.45594000000E+02  0.51100000000E-03 0. -1.
         11   -1    0    0    0    0 -0.00000000000E+00 -0.00000000000E+00 -0.45593999997E+02  0.45594000000E+02  0.51100000000E-03 0.  1.
         23    2    1    2    0    0  0.00000000000E+00  0.35527136788E-14  0.35527136788E-14  0.91188000000E+02  0.91188000000E+02 0.  0.
    9900012    2    3    3    0    0  0.10924235610E+02 -0.28400942436E+02 -0.20732268761E+02  0.54367089869E+02  0.40000012975E+02 0.  0.
         12    1    3    3    0    0 -0.10924235610E+02  0.28400942436E+02  0.20732268761E+02  0.36820910131E+02  0.00000000000E+00 0. -1.
         11    1    4    4    0    0 -0.42156017818E+01 -0.14951104059E+02 -0.12975100563E+02  0.20240060421E+02  0.51100000000E-03 0.  1.
        -11    1    4    4    0    0  0.82802463490E+01  0.60692200384E+01 -0.86410370172E+01  0.13418846168E+02  0.51100000000E-03 0. -1.
         12    1    4    4    0    0  0.68595910427E+01 -0.19519058415E+02  0.88386881980E+00  0.20708183280E+02  0.00000000000E+00 0. -1.
</event>
<event>
 8    1  0.3186330E-007  0.9118800E+02  0.7816164E-02  0.1184000E+00
        -11   -1    0    0    0    0  0.00000000000E+00  0.00000000000E+00  0.45593999997E+02  0.45594000000E+02  0.51100000000E-03 0.  1.
         11   -1    0    0    0    0 -0.00000000000E+00 -0.00000000000E+00 -0.45593999997E+02  0.45594000000E+02  0.51100000000E-03 0. -1.
         23    2    1    2    0    0  0.71054273576E-14  0.00000000000E+00  0.17763568394E-14  0.91188000000E+02  0.91188000000E+02 0.  0.
    9900012    2    3    3    0    0  0.34047139308E+02  0.10261122050E+02  0.95541290751E+01  0.54367086063E+02  0.40000004298E+02 0.  0.
         12    1    3    3    0    0 -0.34047139308E+02 -0.10261122050E+02 -0.95541290751E+01  0.36820913937E+02  0.00000000000E+00 0. -1.
         11    1    4    4    0    0  0.32507086928E+02  0.19833429060E+02  0.81204258962E+01  0.38936062022E+02  0.51100000000E-03 0. -1.
        -11    1    4    4    0    0 -0.30705920086E+01  0.22399783578E+00 -0.24435926427E+01  0.39306304301E+01  0.51100000000E-03 0.  1.
        -12    1    4    4    0    0  0.46106443883E+01 -0.97963048457E+01  0.38772958217E+01  0.11500393610E+02  0.00000000000E+00 0.  1.
</event>
<event>
 8    1  0.3186330E-007  0.9118800E+02  0.7816164E-02  0.1184000E+00
        -11   -1    0    0    0    0  0.00000000000E+00  0.00000000000E+00  0.45593999997E+02  0.45594000000E+02  0.51100000000E-03 0.  1.
         11   -1    0    0    0    0 -0.00000000000E+00 -0.00000000000E+00 -0.45593999997E+02  0.45594000000E+02  0.51100000000E-03 0. -1.
         23    2    1    2    0    0  0.00000000000E+00 -0.27755575616E-14  0.00000000000E+00  0.91188000000E+02  0.91188000000E+02 0.  0.
    9900012    2    3    3    0    0  0.84005293916E+01  0.87184968245E+00 -0.35839242032E+02  0.54367078157E+02  0.39999986274E+02 0.  0.
        -12    1    3    3    0    0 -0.84005293916E+01 -0.87184968245E+00  0.35839242032E+02  0.36820921843E+02  0.00000000000E+00 0.  1.
         11    1    4    4    0    0 -0.56314917076E+01  0.39129352643E+01 -0.38832386339E+01  0.78806283876E+01  0.51100000000E-03 0. -1.
        -11    1    4    4    0    0  0.98375792757E+01 -0.16447045434E+02 -0.14232334634E+02  0.23871376561E+02  0.51100000000E-03 0.  1.
         12    1    4    4    0    0  0.41944418235E+01  0.13405959852E+02 -0.17723668764E+02  0.22615073208E+02  0.00000000000E+00 0. -1.
</event>
<event>
 8    1  0.3186330E-007  0.9118800E+02  0.7816164E-02  0.1184000E+00
        -11   -1    0    0    0    0  0.00000000000E+00  0.00000000000E+00  0.45593999997E+02  0.45594000000E+02  0.51100000000E-03 0. -1.
         11   -1    0    0    0    0 -0.00000000000E+00 -0.00000000000E+00 -0.45593999997E+02  0.45594000000E+02  0.51100000000E-03 0.  1.
         23    2    1    2    0    0 -0.71054273576E-14 -0.33306690739E-15  0.00000000000E+00  0.91188000000E+02  0.91188000000E+02 0.  0.
    9900012    2    3    3    0    0  0.36779155739E+02  0.92927439989E+00  0.14871120448E+01  0.54367063700E+02  0.39999953318E+02 0.  0.
         12    1    3    3    0    0 -0.36779155739E+02 -0.92927439989E+00 -0.14871120448E+01  0.36820936300E+02  0.00000000000E+00 0. -1.
         11    1    4    4    0    0  0.13846177537E+02  0.88888782417E+01  0.10343967857E+02  0.19435186134E+02  0.51100000000E-03 0. -1.
        -11    1    4    4    0    0  0.14585221369E+02 -0.14257096447E+02 -0.12425724233E+02  0.23882883085E+02  0.51100000000E-03 0.  1.
         12    1    4    4    0    0  0.83477568332E+01  0.62974926047E+01  0.35688684204E+01  0.11048994482E+02  0.00000000000E+00 0. -1.
</event>
<event>
 8    1  0.3186330E-007  0.9118800E+02  0.7816164E-02  0.1184000E+00
        -11   -1    0    0    0    0  0.00000000000E+00  0.00000000000E+00  0.45593999997E+02  0.45594000000E+02  0.51100000000E-03 0. -1.
         11   -1    0    0    0    0 -0.00000000000E+00 -0.00000000000E+00 -0.45593999997E+02  0.45594000000E+02  0.51100000000E-03 0.  1.
         23    2    1    2    0    0  0.00000000000E+00  0.44408920985E-15  0.00000000000E+00  0.91188000000E+02  0.91188000000E+02 0.  0.
    9900012    2    3    3    0    0  0.15640213099E+02 -0.26271328995E+01 -0.33230428547E+02  0.54367089168E+02  0.40000011376E+02 0.  0.
         12    1    3    3    0    0 -0.15640213099E+02  0.26271328995E+01  0.33230428547E+02  0.36820910832E+02  0.00000000000E+00 0. -1.
         11    1    4    4    0    0  0.19078752908E+02 -0.53148237022E+01 -0.30415766978E+02  0.36295523755E+02  0.51100000000E-03 0.  1.
        -11    1    4    4    0    0  0.12694055540E+01  0.88351572750E+01  0.17318161257E+01  0.90923364373E+01  0.51100000000E-03 0. -1.
        -12    1    4    4    0    0 -0.47079453630E+01 -0.61474664723E+01 -0.45464776952E+01  0.89792289759E+01  0.00000000000E+00 0.  1.
</event>
<event>
 8    1  0.3186330E-007  0.9118800E+02  0.7816164E-02  0.1184000E+00
        -11   -1    0    0    0    0  0.00000000000E+00  0.00000000000E+00  0.45593999997E+02  0.45594000000E+02  0.51100000000E-03 0.  1.
         11   -1    0    0    0    0 -0.00000000000E+00 -0.00000000000E+00 -0.45593999997E+02  0.45594000000E+02  0.51100000000E-03 0. -1.
         23    2    1    2    0    0 -0.17763568394E-14  0.00000000000E+00  0.00000000000E+00  0.91188000000E+02  0.91188000000E+02 0.  0.
    9900012    2    3    3    0    0 -0.68889045107E+01 -0.35851928926E+02  0.47917957051E+01  0.54367093994E+02  0.40000022377E+02 0.  0.
         12    1    3    3    0    0  0.68889045107E+01  0.35851928926E+02 -0.47917957051E+01  0.36820906006E+02  0.00000000000E+00 0. -1.
         11    1    4    4    0    0 -0.12262901143E+02 -0.65598295713E+01 -0.14446700411E+01  0.13982030619E+02  0.51100000000E-03 0. -1.
        -11    1    4    4    0    0 -0.48048519412E+01 -0.83323981070E+01 -0.84827680449E+01  0.12824695488E+02  0.51100000000E-03 0.  1.
        -12    1    4    4    0    0  0.10178848573E+02 -0.20959701247E+02  0.14719233791E+02  0.27560367887E+02  0.00000000000E+00 0.  1.
</event>
<event>
 8    1  0.3186330E-007  0.9118800E+02  0.7816164E-02  0.1184000E+00
        -11   -1    0    0    0    0  0.00000000000E+00  0.00000000000E+00  0.45593999997E+02  0.45594000000E+02  0.51100000000E-03 0.  1.
         11   -1    0    0    0    0 -0.00000000000E+00 -0.00000000000E+00 -0.45593999997E+02  0.45594000000E+02  0.51100000000E-03 0. -1.
         23    2    1    2    0    0  0.35527136788E-14  0.44408920985E-15  0.35527136788E-14  0.91188000000E+02  0.91188000000E+02 0.  0.
    9900012    2    3    3    0    0  0.27618349786E+02  0.20807303129E+01  0.24262664840E+02  0.54367087618E+02  0.40000007842E+02 0.  0.
         12    1    3    3    0    0 -0.27618349786E+02 -0.20807303129E+01 -0.24262664840E+02  0.36820912382E+02  0.00000000000E+00 0. -1.
         11    1    4    4    0    0  0.19399627065E+02 -0.11191577110E+02 -0.21176501765E+01  0.22496252376E+02  0.51100000000E-03 0. -1.
        -11    1    4    4    0    0  0.39389009867E+01  0.57353616291E+01  0.19805071876E+02  0.20991669450E+02  0.51100000000E-03 0.  1.
         12    1    4    4    0    0  0.42798217343E+01  0.75369457934E+01  0.65752431401E+01  0.10879165792E+02  0.00000000000E+00 0. -1.
</event>
<event>
 8    1  0.3186330E-007  0.9118800E+02  0.7816164E-02  0.1184000E+00
        -11   -1    0    0    0    0  0.00000000000E+00  0.00000000000E+00  0.45593999997E+02  0.45594000000E+02  0.51100000000E-03 0. -1.
         11   -1    0    0    0    0 -0.00000000000E+00 -0.00000000000E+00 -0.45593999997E+02  0.45594000000E+02  0.51100000000E-03 0.  1.
         23    2    1    2    0    0 -0.17763568394E-14  0.35527136788E-14  0.00000000000E+00  0.91188000000E+02  0.91188000000E+02 0.  0.
    9900012    2    3    3    0    0  0.10835426648E+02 -0.22011520798E+02 -0.27456615377E+02  0.54367092265E+02  0.40000018436E+02 0.  0.
         12    1    3    3    0    0 -0.10835426648E+02  0.22011520798E+02  0.27456615377E+02  0.36820907735E+02  0.00000000000E+00 0. -1.
         11    1    4    4    0    0  0.14759193812E+02 -0.41173817665E+01 -0.10692492921E+02  0.18684647166E+02  0.51100000000E-03 0. -1.
        -11    1    4    4    0    0 -0.14153557247E+02 -0.67523130457E+01 -0.48089360815E+01  0.16402523608E+02  0.51100000000E-03 0.  1.
        -12    1    4    4    0    0  0.10229790083E+02 -0.11141825986E+02 -0.11955186374E+02  0.19279921491E+02  0.00000000000E+00 0.  1.
</event>
<event>
 8    1  0.3186330E-007  0.9118800E+02  0.7816164E-02  0.1184000E+00
        -11   -1    0    0    0    0  0.00000000000E+00  0.00000000000E+00  0.45593999997E+02  0.45594000000E+02  0.51100000000E-03 0. -1.
         11   -1    0    0    0    0 -0.00000000000E+00 -0.00000000000E+00 -0.45593999997E+02  0.45594000000E+02  0.51100000000E-03 0.  1.
         23    2    1    2    0    0  0.00000000000E+00  0.00000000000E+00  0.00000000000E+00  0.91188000000E+02  0.91188000000E+02 0.  0.
    9900012    2    3    3    0    0 -0.18256031153E+02 -0.26032145132E+02 -0.18569471828E+02  0.54367074732E+02  0.39999978466E+02 0.  0.
         12    1    3    3    0    0  0.18256031153E+02  0.26032145132E+02  0.18569471828E+02  0.36820925268E+02  0.00000000000E+00 0. -1.
         11    1    4    4    0    0 -0.27428522002E+01 -0.22812898561E+01  0.11438154617E+01  0.37464430693E+01  0.51100000000E-03 0.  1.
        -11    1    4    4    0    0 -0.43283654189E+01  0.42592371915E+01  0.77390452843E+01  0.98371068321E+01  0.51100000000E-03 0. -1.
        -12    1    4    4    0    0 -0.11184813534E+02 -0.28010092468E+02 -0.27452332574E+02  0.40783524830E+02  0.00000000000E+00 0.  1.
</event>
<event>
 8    1  0.3186330E-007  0.9118800E+02  0.7816164E-02  0.1184000E+00
        -11   -1    0    0    0    0  0.00000000000E+00  0.00000000000E+00  0.45593999997E+02  0.45594000000E+02  0.51100000000E-03 0.  1.
         11   -1    0    0    0    0 -0.00000000000E+00 -0.00000000000E+00 -0.45593999997E+02  0.45594000000E+02  0.51100000000E-03 0. -1.
         23    2    1    2    0    0  0.35527136788E-14 -0.22204460493E-15  0.00000000000E+00  0.91188000000E+02  0.91188000000E+02 0.  0.
    9900012    2    3    3    0    0 -0.30808004200E+02  0.19501795704E+01 -0.20070949105E+02  0.54367091251E+02  0.40000016124E+02 0.  0.
        -12    1    3    3    0    0  0.30808004200E+02 -0.19501795704E+01  0.20070949105E+02  0.36820908749E+02  0.00000000000E+00 0.  1.
         11    1    4    4    0    0 -0.10990949161E+02 -0.12112315182E+01 -0.83240641957E+01  0.13840451230E+02  0.51100000000E-03 0. -1.
        -11    1    4    4    0    0  0.70386958838E+01  0.11063972802E+00 -0.11516002181E+02  0.13497177016E+02  0.51100000000E-03 0.  1.
        -12    1    4    4    0    0 -0.26855750923E+02  0.30507713606E+01 -0.23088272808E+00  0.27029463006E+02  0.00000000000E+00 0.  1.
</event>
<event>
 8    1  0.3186330E-007  0.9118800E+02  0.7816164E-02  0.1184000E+00
        -11   -1    0    0    0    0  0.00000000000E+00  0.00000000000E+00  0.45593999997E+02  0.45594000000E+02  0.51100000000E-03 0. -1.
         11   -1    0    0    0    0 -0.00000000000E+00 -0.00000000000E+00 -0.45593999997E+02  0.45594000000E+02  0.51100000000E-03 0.  1.
         23    2    1    2    0    0  0.71054273576E-14  0.00000000000E+00  0.00000000000E+00  0.91188000000E+02  0.91188000000E+02 0.  0.
    9900012    2    3    3    0    0 -0.28616473013E+02  0.21798873673E+02 -0.78536044683E+01  0.54367183547E+02  0.40000226532E+02 0.  0.
         12    1    3    3    0    0  0.28616473013E+02 -0.21798873673E+02  0.78536044683E+01  0.36820816453E+02  0.00000000000E+00 0. -1.
         11    1    4    4    0    0 -0.25784636021E+02 -0.31620310872E+01 -0.14566876016E+01  0.26018605542E+02  0.51100000000E-03 0. -1.
        -11    1    4    4    0    0 -0.38798756114E+01  0.12250247575E+02  0.21043221198E+01  0.13021143278E+02  0.51100000000E-03 0.  1.
         12    1    4    4    0    0  0.10480386196E+01  0.12710657185E+02 -0.85012389865E+01  0.15327434727E+02  0.00000000000E+00 0. -1.
</event>
<event>
 8    1  0.3186330E-007  0.9118800E+02  0.7816164E-02  0.1184000E+00
        -11   -1    0    0    0    0  0.00000000000E+00  0.00000000000E+00  0.45593999997E+02  0.45594000000E+02  0.51100000000E-03 0.  1.
         11   -1    0    0    0    0 -0.00000000000E+00 -0.00000000000E+00 -0.45593999997E+02  0.45594000000E+02  0.51100000000E-03 0. -1.
         23    2    1    2    0    0  0.00000000000E+00  0.88817841970E-15  0.00000000000E+00  0.91188000000E+02  0.91188000000E+02 0.  0.
    9900012    2    3    3    0    0  0.25276467371E+02  0.65446347835E+01  0.25962427133E+02  0.54367086515E+02  0.40000005328E+02 0.  0.
         12    1    3    3    0    0 -0.25276467371E+02 -0.65446347835E+01 -0.25962427133E+02  0.36820913485E+02  0.00000000000E+00 0. -1.
         11    1    4    4    0    0  0.12003927473E+02 -0.43024384964E+01  0.37169953592E+01  0.13282368258E+02  0.51100000000E-03 0. -1.
        -11    1    4    4    0    0  0.20864895335E+02  0.12811562708E+02  0.22479762114E+02  0.33238828218E+02  0.51100000000E-03 0.  1.
         12    1    4    4    0    0 -0.75923554365E+01 -0.19644894276E+01 -0.23433033972E+00  0.78458900383E+01  0.00000000000E+00 0. -1.
</event>
<event>
 8    1  0.3186330E-007  0.9118800E+02  0.7816164E-02  0.1184000E+00
        -11   -1    0    0    0    0  0.00000000000E+00  0.00000000000E+00  0.45593999997E+02  0.45594000000E+02  0.51100000000E-03 0.  1.
         11   -1    0    0    0    0 -0.00000000000E+00 -0.00000000000E+00 -0.45593999997E+02  0.45594000000E+02  0.51100000000E-03 0. -1.
         23    2    1    2    0    0  0.00000000000E+00 -0.35527136788E-14  0.00000000000E+00  0.91188000000E+02  0.91188000000E+02 0.  0.
    9900012    2    3    3    0    0 -0.23701998589E+02  0.21663440971E+02  0.18019155682E+02  0.54367090406E+02  0.40000014199E+02 0.  0.
         12    1    3    3    0    0  0.23701998589E+02 -0.21663440971E+02 -0.18019155682E+02  0.36820909594E+02  0.00000000000E+00 0. -1.
         11    1    4    4    0    0 -0.61250425339E+01 -0.61336405065E+01 -0.63886067143E+01  0.10768100479E+02  0.51100000000E-03 0. -1.
        -11    1    4    4    0    0 -0.15587188649E+02  0.11399710564E+02  0.10353900904E+02  0.21911574912E+02  0.51100000000E-03 0.  1.
        -12    1    4    4    0    0 -0.19897674054E+01  0.16397370914E+02  0.14053861492E+02  0.21687415016E+02  0.00000000000E+00 0.  1.
</event>
<event>
 8    1  0.3186330E-007  0.9118800E+02  0.7816164E-02  0.1184000E+00
        -11   -1    0    0    0    0  0.00000000000E+00  0.00000000000E+00  0.45593999997E+02  0.45594000000E+02  0.51100000000E-03 0.  1.
         11   -1    0    0    0    0 -0.00000000000E+00 -0.00000000000E+00 -0.45593999997E+02  0.45594000000E+02  0.51100000000E-03 0. -1.
         23    2    1    2    0    0  0.00000000000E+00  0.00000000000E+00  0.00000000000E+00  0.91188000000E+02  0.91188000000E+02 0.  0.
    9900012    2    3    3    0    0  0.17314933971E+02 -0.16069943563E+02  0.28244083966E+02  0.54367105068E+02  0.40000047624E+02 0.  0.
         12    1    3    3    0    0 -0.17314933971E+02  0.16069943563E+02 -0.28244083966E+02  0.36820894932E+02  0.00000000000E+00 0. -1.
         11    1    4    4    0    0  0.29441296189E+01 -0.71093333825E+01  0.13130657081E+02  0.15219220611E+02  0.51100000000E-03 0.  1.
        -11    1    4    4    0    0 -0.18783167033E+01  0.55255286586E+01 -0.63171547898E+01  0.86003479868E+01  0.51100000000E-03 0. -1.
         12    1    4    4    0    0  0.16249121055E+02 -0.14486138839E+02  0.21430581674E+02  0.30547536470E+02  0.00000000000E+00 0. -1.
</event>
<event>
 8    1  0.3186330E-007  0.9118800E+02  0.7816164E-02  0.1184000E+00
        -11   -1    0    0    0    0  0.00000000000E+00  0.00000000000E+00  0.45593999997E+02  0.45594000000E+02  0.51100000000E-03 0. -1.
         11   -1    0    0    0    0 -0.00000000000E+00 -0.00000000000E+00 -0.45593999997E+02  0.45594000000E+02  0.51100000000E-03 0.  1.
         23    2    1    2    0    0  0.00000000000E+00  0.35527136788E-14 -0.44408920985E-15  0.91188000000E+02  0.91188000000E+02 0.  0.
    9900012    2    3    3    0    0 -0.32934676638E+02  0.16071142589E+02 -0.35778494127E+01  0.54367142381E+02  0.40000132687E+02 0.  0.
         12    1    3    3    0    0  0.32934676638E+02 -0.16071142589E+02  0.35778494127E+01  0.36820857619E+02  0.00000000000E+00 0. -1.
         11    1    4    4    0    0 -0.25121116705E+02  0.28160333118E+01  0.24408241406E+01  0.25396026674E+02  0.51100000000E-03 0. -1.
        -11    1    4    4    0    0 -0.88172565752E+00  0.18035476330E+02  0.89050776370E+00  0.18078961556E+02  0.51100000000E-03 0.  1.
         12    1    4    4    0    0 -0.69318342758E+01 -0.47803670530E+01 -0.69091813170E+01  0.10892154152E+02  0.00000000000E+00 0. -1.
</event>
<event>
 8    1  0.3186330E-007  0.9118800E+02  0.7816164E-02  0.1184000E+00
        -11   -1    0    0    0    0  0.00000000000E+00  0.00000000000E+00  0.45593999997E+02  0.45594000000E+02  0.51100000000E-03 0.  1.
         11   -1    0    0    0    0 -0.00000000000E+00 -0.00000000000E+00 -0.45593999997E+02  0.45594000000E+02  0.51100000000E-03 0. -1.
         23    2    1    2    0    0 -0.35527136788E-14  0.88817841970E-15  0.35527136788E-14  0.91188000000E+02  0.91188000000E+02 0.  0.
    9900012    2    3    3    0    0  0.31067546349E+02  0.38155562779E+01 -0.19391448919E+02  0.54367092935E+02  0.40000019965E+02 0.  0.
        -12    1    3    3    0    0 -0.31067546349E+02 -0.38155562779E+01  0.19391448919E+02  0.36820907065E+02  0.00000000000E+00 0.  1.
         11    1    4    4    0    0  0.17665678338E+02 -0.98051969046E+01 -0.11642060110E+02  0.23318568595E+02  0.51100000000E-03 0. -1.
        -11    1    4    4    0    0  0.92796937470E+01  0.18804633264E+02 -0.10990144339E+02  0.23675097066E+02  0.51100000000E-03 0.  1.
        -12    1    4    4    0    0  0.41221742644E+01 -0.51838800814E+01  0.32407555293E+01  0.73734272740E+01  0.00000000000E+00 0.  1.
</event>
<event>
 8    1  0.3186330E-007  0.9118800E+02  0.7816164E-02  0.1184000E+00
        -11   -1    0    0    0    0  0.00000000000E+00  0.00000000000E+00  0.45593999997E+02  0.45594000000E+02  0.51100000000E-03 0.  1.
         11   -1    0    0    0    0 -0.00000000000E+00 -0.00000000000E+00 -0.45593999997E+02  0.45594000000E+02  0.51100000000E-03 0. -1.
         23    2    1    2    0    0  0.00000000000E+00  0.00000000000E+00  0.00000000000E+00  0.91188000000E+02  0.91188000000E+02 0.  0.
    9900012    2    3    3    0    0  0.23447534564E+02 -0.17738418541E+02 -0.22166286356E+02  0.54367046451E+02  0.39999913994E+02 0.  0.
         12    1    3    3    0    0 -0.23447534564E+02  0.17738418541E+02  0.22166286356E+02  0.36820953549E+02  0.00000000000E+00 0. -1.
         11    1    4    4    0    0  0.24543321917E+02 -0.89051931696E+01 -0.18004079327E+02  0.31714728263E+02  0.51100000000E-03 0. -1.
        -11    1    4    4    0    0  0.55657486738E+00 -0.22338050117E+01  0.82134716794E+01  0.85299928313E+01  0.51100000000E-03 0.  1.
        -12    1    4    4    0    0 -0.16523622206E+01 -0.65994203594E+01 -0.12375678708E+02  0.14122325357E+02  0.00000000000E+00 0.  1.
</event>
<event>
 8    1  0.3186330E-007  0.9118800E+02  0.7816164E-02  0.1184000E+00
        -11   -1    0    0    0    0  0.00000000000E+00  0.00000000000E+00  0.45593999997E+02  0.45594000000E+02  0.51100000000E-03 0. -1.
         11   -1    0    0    0    0 -0.00000000000E+00 -0.00000000000E+00 -0.45593999997E+02  0.45594000000E+02  0.51100000000E-03 0.  1.
         23    2    1    2    0    0  0.00000000000E+00  0.17763568394E-14  0.35527136788E-14  0.91188000000E+02  0.91188000000E+02 0.  0.
    9900012    2    3    3    0    0 -0.18178282043E+02 -0.14948315034E+02  0.28317447036E+02  0.54367083838E+02  0.39999999225E+02 0.  0.
        -12    1    3    3    0    0  0.18178282043E+02  0.14948315034E+02 -0.28317447036E+02  0.36820916162E+02  0.00000000000E+00 0.  1.
         11    1    4    4    0    0 -0.20112379591E+02 -0.15825048433E+02  0.35786219129E+02  0.43995379877E+02  0.51100000000E-03 0. -1.
        -11    1    4    4    0    0 -0.25616354889E+01  0.12848965793E+00 -0.34241015618E+01  0.42781956169E+01  0.51100000000E-03 0.  1.
        -12    1    4    4    0    0  0.44957330374E+01  0.74824374137E+00 -0.40446705304E+01  0.60935083441E+01  0.00000000000E+00 0.  1.
</event>
<event>
 8    1  0.3186330E-007  0.9118800E+02  0.7816164E-02  0.1184000E+00
        -11   -1    0    0    0    0  0.00000000000E+00  0.00000000000E+00  0.45593999997E+02  0.45594000000E+02  0.51100000000E-03 0. -1.
         11   -1    0    0    0    0 -0.00000000000E+00 -0.00000000000E+00 -0.45593999997E+02  0.45594000000E+02  0.51100000000E-03 0.  1.
         23    2    1    2    0    0  0.00000000000E+00  0.00000000000E+00  0.26645352591E-14  0.91188000000E+02  0.91188000000E+02 0.  0.
    9900012    2    3    3    0    0 -0.24170410075E+02 -0.26740106649E+02  0.75183107273E+01  0.54367258251E+02  0.40000396832E+02 0.  0.
         12    1    3    3    0    0  0.24170410075E+02  0.26740106649E+02 -0.75183107273E+01  0.36820741749E+02  0.00000000000E+00 0. -1.
         11    1    4    4    0    0 -0.18691549866E+02 -0.79427363152E+01  0.21032374718E+02  0.29237337142E+02  0.51100000000E-03 0. -1.
        -11    1    4    4    0    0 -0.59290557839E+01 -0.72822246159E+01 -0.80830666874E+01  0.12390337573E+02  0.51100000000E-03 0.  1.
        -12    1    4    4    0    0  0.45019557546E+00 -0.11515145718E+02 -0.54309973035E+01  0.12739583536E+02  0.00000000000E+00 0.  1.
</event>
<event>
 8    1  0.3186330E-007  0.9118800E+02  0.7816164E-02  0.1184000E+00
        -11   -1    0    0    0    0  0.00000000000E+00  0.00000000000E+00  0.45593999997E+02  0.45594000000E+02  0.51100000000E-03 0. -1.
         11   -1    0    0    0    0 -0.00000000000E+00 -0.00000000000E+00 -0.45593999997E+02  0.45594000000E+02  0.51100000000E-03 0.  1.
         23    2    1    2    0    0  0.00000000000E+00  0.00000000000E+00  0.00000000000E+00  0.91188000000E+02  0.91188000000E+02 0.  0.
    9900012    2    3    3    0    0  0.94405698154E+01 -0.34550115314E+02 -0.85407832015E+01  0.54367084689E+02  0.40000001165E+02 0.  0.
        -12    1    3    3    0    0 -0.94405698154E+01  0.34550115314E+02  0.85407832015E+01  0.36820915311E+02  0.00000000000E+00 0.  1.
         11    1    4    4    0    0  0.58854334399E+01 -0.17593303566E+02  0.11844161386E+02  0.22010152574E+02  0.51100000000E-03 0.  1.
        -11    1    4    4    0    0  0.32643506955E+01 -0.17963453352E+02 -0.80095596193E+01  0.19937268804E+02  0.51100000000E-03 0. -1.
        -12    1    4    4    0    0  0.29078568004E+00  0.10066416038E+01 -0.12375384968E+02  0.12419663311E+02  0.00000000000E+00 0.  1.
</event>
<event>
 8    1  0.3186330E-007  0.9118800E+02  0.7816164E-02  0.1184000E+00
        -11   -1    0    0    0    0  0.00000000000E+00  0.00000000000E+00  0.45593999997E+02  0.45594000000E+02  0.51100000000E-03 0. -1.
         11   -1    0    0    0    0 -0.00000000000E+00 -0.00000000000E+00 -0.45593999997E+02  0.45594000000E+02  0.51100000000E-03 0.  1.
         23    2    1    2    0    0  0.00000000000E+00  0.17763568394E-14 -0.35527136788E-14  0.91188000000E+02  0.91188000000E+02 0.  0.
    9900012    2    3    3    0    0  0.18383017724E+02 -0.12443469282E+02 -0.29376944712E+02  0.54367080008E+02  0.39999990495E+02 0.  0.
         12    1    3    3    0    0 -0.18383017724E+02  0.12443469282E+02  0.29376944712E+02  0.36820919992E+02  0.00000000000E+00 0. -1.
         11    1    4    4    0    0  0.23841660069E+02 -0.12708337830E+02 -0.90986028379E+01  0.28508089714E+02  0.51100000000E-03 0. -1.
        -11    1    4    4    0    0 -0.11318922457E+01 -0.72086593860E+01 -0.77699348086E+01  0.10659166824E+02  0.51100000000E-03 0.  1.
        -12    1    4    4    0    0 -0.43267501001E+01  0.74735279331E+01 -0.12508407066E+02  0.15199823470E+02  0.00000000000E+00 0.  1.
</event>
<event>
 8    1  0.3186330E-007  0.9118800E+02  0.7816164E-02  0.1184000E+00
        -11   -1    0    0    0    0  0.00000000000E+00  0.00000000000E+00  0.45593999997E+02  0.45594000000E+02  0.51100000000E-03 0. -1.
         11   -1    0    0    0    0 -0.00000000000E+00 -0.00000000000E+00 -0.45593999997E+02  0.45594000000E+02  0.51100000000E-03 0.  1.
         23    2    1    2    0    0  0.00000000000E+00  0.00000000000E+00 -0.22204460493E-15  0.91188000000E+02  0.91188000000E+02 0.  0.
    9900012    2    3    3    0    0  0.20067529985E+02 -0.30808380426E+02 -0.19794623074E+01  0.54367077480E+02  0.39999984732E+02 0.  0.
         12    1    3    3    0    0 -0.20067529985E+02  0.30808380426E+02  0.19794623074E+01  0.36820922520E+02  0.00000000000E+00 0. -1.
         11    1    4    4    0    0  0.20569617890E+02 -0.10603490981E+02  0.80069842779E+01  0.24487854104E+02  0.51100000000E-03 0. -1.
        -11    1    4    4    0    0  0.33139130972E+01 -0.22479655070E+02 -0.51245649873E+01  0.23293305447E+02  0.51100000000E-03 0.  1.
        -12    1    4    4    0    0 -0.38160010023E+01  0.22747656249E+01 -0.48618815981E+01  0.65859179292E+01  0.00000000000E+00 0.  1.
</event>
<event>
 8    1  0.3186330E-007  0.9118800E+02  0.7816164E-02  0.1184000E+00
        -11   -1    0    0    0    0  0.00000000000E+00  0.00000000000E+00  0.45593999997E+02  0.45594000000E+02  0.51100000000E-03 0.  1.
         11   -1    0    0    0    0 -0.00000000000E+00 -0.00000000000E+00 -0.45593999997E+02  0.45594000000E+02  0.51100000000E-03 0. -1.
         23    2    1    2    0    0 -0.35527136788E-14 -0.35527136788E-14  0.00000000000E+00  0.91188000000E+02  0.91188000000E+02 0.  0.
    9900012    2    3    3    0    0 -0.19363125944E+02  0.29324312647E+02 -0.10997108728E+02  0.54367050000E+02  0.39999922084E+02 0.  0.
         12    1    3    3    0    0  0.19363125944E+02 -0.29324312647E+02  0.10997108728E+02  0.36820950000E+02  0.00000000000E+00 0. -1.
         11    1    4    4    0    0 -0.15389387046E+02  0.36472605325E+02  0.66690079915E+00  0.39592031140E+02  0.51100000000E-03 0.  1.
        -11    1    4    4    0    0 -0.33568367760E+01 -0.22148852925E+01 -0.61737898308E+01  0.73681579201E+01  0.51100000000E-03 0. -1.
        -12    1    4    4    0    0 -0.61690212227E+00 -0.49334073860E+01 -0.54902196958E+01  0.74068609393E+01  0.00000000000E+00 0.  1.
</event>
<event>
 8    1  0.3186330E-007  0.9118800E+02  0.7816164E-02  0.1184000E+00
        -11   -1    0    0    0    0  0.00000000000E+00  0.00000000000E+00  0.45593999997E+02  0.45594000000E+02  0.51100000000E-03 0.  1.
         11   -1    0    0    0    0 -0.00000000000E+00 -0.00000000000E+00 -0.45593999997E+02  0.45594000000E+02  0.51100000000E-03 0. -1.
         23    2    1    2    0    0 -0.88817841970E-15 -0.71054273576E-14  0.35527136788E-14  0.91188000000E+02  0.91188000000E+02 0.  0.
    9900012    2    3    3    0    0 -0.68920561072E+01 -0.29937461098E+02  0.20298545827E+02  0.54367041605E+02  0.39999902948E+02 0.  0.
         12    1    3    3    0    0  0.68920561072E+01  0.29937461098E+02 -0.20298545827E+02  0.36820958395E+02  0.00000000000E+00 0. -1.
         11    1    4    4    0    0  0.11033578818E+02 -0.24844632226E+02  0.21352547514E+02  0.34567714671E+02  0.51100000000E-03 0.  1.
        -11    1    4    4    0    0 -0.11840963838E+02 -0.19997833888E+01  0.22474258425E+01  0.12217138838E+02  0.51100000000E-03 0. -1.
        -12    1    4    4    0    0 -0.60846710874E+01 -0.30930454834E+01 -0.33014275289E+01  0.75821880967E+01  0.00000000000E+00 0.  1.
</event>
<event>
 8    1  0.3186330E-007  0.9118800E+02  0.7816164E-02  0.1184000E+00
        -11   -1    0    0    0    0  0.00000000000E+00  0.00000000000E+00  0.45593999997E+02  0.45594000000E+02  0.51100000000E-03 0. -1.
         11   -1    0    0    0    0 -0.00000000000E+00 -0.00000000000E+00 -0.45593999997E+02  0.45594000000E+02  0.51100000000E-03 0.  1.
         23    2    1    2    0    0  0.00000000000E+00  0.00000000000E+00 -0.44408920985E-15  0.91188000000E+02  0.91188000000E+02 0.  0.
    9900012    2    3    3    0    0 -0.20419949408E+02 -0.30610500370E+02  0.13432627739E+01  0.54367062728E+02  0.39999951101E+02 0.  0.
         12    1    3    3    0    0  0.20419949408E+02  0.30610500370E+02 -0.13432627739E+01  0.36820937272E+02  0.00000000000E+00 0. -1.
         11    1    4    4    0    0 -0.12664168928E+02  0.49284862797E+01 -0.50614765542E+01  0.14501368791E+02  0.51100000000E-03 0. -1.
        -11    1    4    4    0    0  0.22640726238E+00 -0.23505602924E+02  0.90437536035E+01  0.25186387367E+02  0.51100000000E-03 0.  1.
         12    1    4    4    0    0 -0.79821877422E+01 -0.12033383726E+02 -0.26390142754E+01  0.14679306570E+02  0.00000000000E+00 0. -1.
</event>
<event>
 8    1  0.3186330E-007  0.9118800E+02  0.7816164E-02  0.1184000E+00
        -11   -1    0    0    0    0  0.00000000000E+00  0.00000000000E+00  0.45593999997E+02  0.45594000000E+02  0.51100000000E-03 0.  1.
         11   -1    0    0    0    0 -0.00000000000E+00 -0.00000000000E+00 -0.45593999997E+02  0.45594000000E+02  0.51100000000E-03 0. -1.
         23    2    1    2    0    0  0.00000000000E+00  0.00000000000E+00  0.00000000000E+00  0.91188000000E+02  0.91188000000E+02 0.  0.
    9900012    2    3    3    0    0  0.23510939144E+02  0.26517218676E+02  0.99926307988E+01  0.54367084531E+02  0.40000000804E+02 0.  0.
         12    1    3    3    0    0 -0.23510939144E+02 -0.26517218676E+02 -0.99926307988E+01  0.36820915469E+02  0.00000000000E+00 0. -1.
         11    1    4    4    0    0 -0.22330013956E+01 -0.50722346702E+00  0.14680442319E+02  0.14857959410E+02  0.51100000000E-03 0. -1.
        -11    1    4    4    0    0  0.19953499457E+01  0.36508595485E+01 -0.45798248803E+01  0.61874868116E+01  0.51100000000E-03 0.  1.
        -12    1    4    4    0    0  0.23748590594E+02  0.23373582594E+02 -0.10798663999E+00  0.33321638309E+02  0.00000000000E+00 0.  1.
</event>
<event>
 8    1  0.3186330E-007  0.9118800E+02  0.7816164E-02  0.1184000E+00
        -11   -1    0    0    0    0  0.00000000000E+00  0.00000000000E+00  0.45593999997E+02  0.45594000000E+02  0.51100000000E-03 0.  1.
         11   -1    0    0    0    0 -0.00000000000E+00 -0.00000000000E+00 -0.45593999997E+02  0.45594000000E+02  0.51100000000E-03 0. -1.
         23    2    1    2    0    0  0.00000000000E+00  0.00000000000E+00  0.00000000000E+00  0.91188000000E+02  0.91188000000E+02 0.  0.
    9900012    2    3    3    0    0  0.35076393868E+00  0.11123894773E+02 -0.35098662965E+02  0.54367079150E+02  0.39999988539E+02 0.  0.
        -12    1    3    3    0    0 -0.35076393868E+00 -0.11123894773E+02  0.35098662965E+02  0.36820920850E+02  0.00000000000E+00 0.  1.
         11    1    4    4    0    0 -0.77761441869E+01  0.11214422226E+02 -0.24902358224E+02  0.28396463331E+02  0.51100000000E-03 0. -1.
        -11    1    4    4    0    0  0.19454289496E+01  0.91371461901E+01  0.19164677362E+01  0.95365079113E+01  0.51100000000E-03 0.  1.
        -12    1    4    4    0    0  0.61814791760E+01 -0.92276736435E+01 -0.12112772477E+02  0.16434107909E+02  0.00000000000E+00 0.  1.
</event>
<event>
 8    1  0.3186330E-007  0.9118800E+02  0.7816164E-02  0.1184000E+00
        -11   -1    0    0    0    0  0.00000000000E+00  0.00000000000E+00  0.45593999997E+02  0.45594000000E+02  0.51100000000E-03 0. -1.
         11   -1    0    0    0    0 -0.00000000000E+00 -0.00000000000E+00 -0.45593999997E+02  0.45594000000E+02  0.51100000000E-03 0.  1.
         23    2    1    2    0    0  0.88817841970E-15  0.35527136788E-14 -0.71054273576E-14  0.91188000000E+02  0.91188000000E+02 0.  0.
    9900012    2    3    3    0    0 -0.56323547686E+01 -0.24599332814E+02  0.26812862224E+02  0.54367079646E+02  0.39999989668E+02 0.  0.
        -12    1    3    3    0    0  0.56323547686E+01  0.24599332814E+02 -0.26812862224E+02  0.36820920354E+02  0.00000000000E+00 0.  1.
         11    1    4    4    0    0 -0.35158019815E+00 -0.37545669977E+01 -0.63132020625E+01  0.73536999203E+01  0.51100000000E-03 0. -1.
        -11    1    4    4    0    0  0.38439183809E+01  0.36622050360E+01  0.69799561561E+00  0.53548718365E+01  0.51100000000E-03 0.  1.
         12    1    4    4    0    0 -0.91246929513E+01 -0.24506970852E+02  0.32428068671E+02  0.41658507889E+02  0.00000000000E+00 0. -1.
</event>
<event>
 8    1  0.3186330E-007  0.9118800E+02  0.7816164E-02  0.1184000E+00
        -11   -1    0    0    0    0  0.00000000000E+00  0.00000000000E+00  0.45593999997E+02  0.45594000000E+02  0.51100000000E-03 0. -1.
         11   -1    0    0    0    0 -0.00000000000E+00 -0.00000000000E+00 -0.45593999997E+02  0.45594000000E+02  0.51100000000E-03 0.  1.
         23    2    1    2    0    0  0.17763568394E-14  0.35527136788E-14  0.00000000000E+00  0.91188000000E+02  0.91188000000E+02 0.  0.
    9900012    2    3    3    0    0 -0.10521597168E+02 -0.23210976818E+02 -0.26576808149E+02  0.54367079544E+02  0.39999989437E+02 0.  0.
         12    1    3    3    0    0  0.10521597168E+02  0.23210976818E+02  0.26576808149E+02  0.36820920456E+02  0.00000000000E+00 0. -1.
         11    1    4    4    0    0  0.21520429767E+01 -0.67453087642E+01 -0.31512197337E+02  0.32297818202E+02  0.51100000000E-03 0. -1.
        -11    1    4    4    0    0 -0.94052114011E+01 -0.11554112786E+02  0.90759035501E+00  0.14925791245E+02  0.51100000000E-03 0.  1.
         12    1    4    4    0    0 -0.32684287434E+01 -0.49115552679E+01  0.40277988332E+01  0.71434700980E+01  0.00000000000E+00 0. -1.
</event>
<event>
 8    1  0.3186330E-007  0.9118800E+02  0.7816164E-02  0.1184000E+00
        -11   -1    0    0    0    0  0.00000000000E+00  0.00000000000E+00  0.45593999997E+02  0.45594000000E+02  0.51100000000E-03 0. -1.
         11   -1    0    0    0    0 -0.00000000000E+00 -0.00000000000E+00 -0.45593999997E+02  0.45594000000E+02  0.51100000000E-03 0.  1.
         23    2    1    2    0    0  0.00000000000E+00 -0.35527136788E-14  0.17763568394E-14  0.91188000000E+02  0.91188000000E+02 0.  0.
    9900012    2    3    3    0    0  0.22965015687E+02  0.27793974519E+02  0.74754889168E+01  0.54367083395E+02  0.39999998216E+02 0.  0.
         12    1    3    3    0    0 -0.22965015687E+02 -0.27793974519E+02 -0.74754889168E+01  0.36820916605E+02  0.00000000000E+00 0. -1.
         11    1    4    4    0    0  0.48922293430E+00 -0.40385183743E+01  0.10013071753E+02  0.10807894149E+02  0.51100000000E-03 0. -1.
        -11    1    4    4    0    0  0.72865267853E+01  0.25917630860E+02 -0.38939244577E+01  0.27202568076E+02  0.51100000000E-03 0.  1.
         12    1    4    4    0    0  0.15189265968E+02  0.59148620332E+01  0.13563416212E+01  0.16356621170E+02  0.00000000000E+00 0. -1.
</event>
<event>
 8    1  0.3186330E-007  0.9118800E+02  0.7816164E-02  0.1184000E+00
        -11   -1    0    0    0    0  0.00000000000E+00  0.00000000000E+00  0.45593999997E+02  0.45594000000E+02  0.51100000000E-03 0. -1.
         11   -1    0    0    0    0 -0.00000000000E+00 -0.00000000000E+00 -0.45593999997E+02  0.45594000000E+02  0.51100000000E-03 0.  1.
         23    2    1    2    0    0 -0.35527136788E-14 -0.35527136788E-14 -0.88817841970E-15  0.91188000000E+02  0.91188000000E+02 0.  0.
    9900012    2    3    3    0    0 -0.28105950301E+02 -0.23685670574E+02  0.21965294448E+01  0.54367079663E+02  0.39999989707E+02 0.  0.
         12    1    3    3    0    0  0.28105950301E+02  0.23685670574E+02 -0.21965294448E+01  0.36820920337E+02  0.00000000000E+00 0. -1.
         11    1    4    4    0    0 -0.55132040686E+01 -0.12378244610E+02  0.13581755642E+02  0.19185422729E+02  0.51100000000E-03 0. -1.
        -11    1    4    4    0    0 -0.20484851277E+01 -0.10997174821E+02 -0.92668530833E+01  0.14526138912E+02  0.51100000000E-03 0.  1.
        -12    1    4    4    0    0 -0.20544261105E+02 -0.31025114379E+00 -0.21183731134E+01  0.20655518022E+02  0.00000000000E+00 0.  1.
</event>
<event>
 8    1  0.3186330E-007  0.9118800E+02  0.7816164E-02  0.1184000E+00
        -11   -1    0    0    0    0  0.00000000000E+00  0.00000000000E+00  0.45593999997E+02  0.45594000000E+02  0.51100000000E-03 0.  1.
         11   -1    0    0    0    0 -0.00000000000E+00 -0.00000000000E+00 -0.45593999997E+02  0.45594000000E+02  0.51100000000E-03 0. -1.
         23    2    1    2    0    0  0.00000000000E+00  0.00000000000E+00 -0.35527136788E-14  0.91188000000E+02  0.91188000000E+02 0.  0.
    9900012    2    3    3    0    0  0.22626421290E+02 -0.61119974709E+01 -0.28398387122E+02  0.54367084142E+02  0.39999999919E+02 0.  0.
        -12    1    3    3    0    0 -0.22626421290E+02  0.61119974709E+01  0.28398387122E+02  0.36820915858E+02  0.00000000000E+00 0.  1.
         11    1    4    4    0    0  0.83414054082E+01 -0.55677346898E+01 -0.33717327626E+01  0.10580514914E+02  0.51100000000E-03 0. -1.
        -11    1    4    4    0    0  0.20945677896E+02  0.51546293220E+01 -0.53181664235E+01  0.22216537091E+02  0.51100000000E-03 0.  1.
         12    1    4    4    0    0 -0.66606620140E+01 -0.56988921031E+01 -0.19708487936E+02  0.21570032137E+02  0.00000000000E+00 0. -1.
</event>
<event>
 8    1  0.3186330E-007  0.9118800E+02  0.7816164E-02  0.1184000E+00
        -11   -1    0    0    0    0  0.00000000000E+00  0.00000000000E+00  0.45593999997E+02  0.45594000000E+02  0.51100000000E-03 0. -1.
         11   -1    0    0    0    0 -0.00000000000E+00 -0.00000000000E+00 -0.45593999997E+02  0.45594000000E+02  0.51100000000E-03 0.  1.
         23    2    1    2    0    0  0.71054273576E-14 -0.35527136788E-14  0.17763568394E-14  0.91188000000E+02  0.91188000000E+02 0.  0.
    9900012    2    3    3    0    0 -0.32937149653E+02  0.11451066923E+02 -0.11823494768E+02  0.54367112050E+02  0.40000063540E+02 0.  0.
         12    1    3    3    0    0  0.32937149653E+02 -0.11451066923E+02  0.11823494768E+02  0.36820887950E+02  0.00000000000E+00 0. -1.
         11    1    4    4    0    0 -0.61796761540E+01 -0.77969458239E+01  0.51453091818E+01  0.11200668212E+02  0.51100000000E-03 0. -1.
        -11    1    4    4    0    0 -0.21793310044E+02  0.18140977290E+02 -0.32574392470E+01  0.28542150067E+02  0.51100000000E-03 0.  1.
        -12    1    4    4    0    0 -0.49641634540E+01  0.11070354569E+01 -0.13711364703E+02  0.14624293771E+02  0.00000000000E+00 0.  1.
</event>
<event>
 8    1  0.3186330E-007  0.9118800E+02  0.7816164E-02  0.1184000E+00
        -11   -1    0    0    0    0  0.00000000000E+00  0.00000000000E+00  0.45593999997E+02  0.45594000000E+02  0.51100000000E-03 0. -1.
         11   -1    0    0    0    0 -0.00000000000E+00 -0.00000000000E+00 -0.45593999997E+02  0.45594000000E+02  0.51100000000E-03 0.  1.
         23    2    1    2    0    0 -0.17763568394E-14  0.33306690739E-15  0.71054273576E-14  0.91188000000E+02  0.91188000000E+02 0.  0.
    9900012    2    3    3    0    0 -0.84706122589E+01 -0.47145898134E-01  0.35833298835E+02  0.54367098324E+02  0.40000032250E+02 0.  0.
        -12    1    3    3    0    0  0.84706122589E+01  0.47145898134E-01 -0.35833298835E+02  0.36820901676E+02  0.00000000000E+00 0.  1.
         11    1    4    4    0    0 -0.13433143095E+02  0.12691218197E+02  0.32949930457E+02  0.37778489516E+02  0.51100000000E-03 0. -1.
        -11    1    4    4    0    0  0.70448559961E+01 -0.62451187463E+01  0.75250085189E+00  0.94444566786E+01  0.51100000000E-03 0.  1.
         12    1    4    4    0    0 -0.20823251598E+01 -0.64932453489E+01  0.21308675265E+01  0.71441521294E+01  0.00000000000E+00 0. -1.
</event>
<event>
 8    1  0.3186330E-007  0.9118800E+02  0.7816164E-02  0.1184000E+00
        -11   -1    0    0    0    0  0.00000000000E+00  0.00000000000E+00  0.45593999997E+02  0.45594000000E+02  0.51100000000E-03 0. -1.
         11   -1    0    0    0    0 -0.00000000000E+00 -0.00000000000E+00 -0.45593999997E+02  0.45594000000E+02  0.51100000000E-03 0.  1.
         23    2    1    2    0    0  0.88817841970E-15 -0.35527136788E-14  0.35527136788E-14  0.91188000000E+02  0.91188000000E+02 0.  0.
    9900012    2    3    3    0    0  0.48013993309E+01 -0.22084539692E+02  0.29068853740E+02  0.54367101224E+02  0.40000038859E+02 0.  0.
        -12    1    3    3    0    0 -0.48013993309E+01  0.22084539692E+02 -0.29068853740E+02  0.36820898776E+02  0.00000000000E+00 0.  1.
         11    1    4    4    0    0  0.16129482112E+02 -0.17166559349E+02  0.15398167774E+02  0.28141686590E+02  0.51100000000E-03 0. -1.
        -11    1    4    4    0    0 -0.12664353827E+02 -0.83025630446E+01  0.36676432319E+01  0.15581078849E+02  0.51100000000E-03 0.  1.
         12    1    4    4    0    0  0.13362710455E+01  0.33845827008E+01  0.10003042734E+02  0.10644335785E+02  0.00000000000E+00 0. -1.
</event>
<event>
 8    1  0.3186330E-007  0.9118800E+02  0.7816164E-02  0.1184000E+00
        -11   -1    0    0    0    0  0.00000000000E+00  0.00000000000E+00  0.45593999997E+02  0.45594000000E+02  0.51100000000E-03 0. -1.
         11   -1    0    0    0    0 -0.00000000000E+00 -0.00000000000E+00 -0.45593999997E+02  0.45594000000E+02  0.51100000000E-03 0.  1.
         23    2    1    2    0    0  0.88817841970E-15 -0.35527136788E-14 -0.35527136788E-14  0.91188000000E+02  0.91188000000E+02 0.  0.
    9900012    2    3    3    0    0  0.60806182543E+01 -0.26813266914E+02  0.24491925576E+02  0.54367087201E+02  0.40000006892E+02 0.  0.
        -12    1    3    3    0    0 -0.60806182543E+01  0.26813266914E+02 -0.24491925576E+02  0.36820912799E+02  0.00000000000E+00 0.  1.
         11    1    4    4    0    0  0.18336193731E+01 -0.26074226218E+02  0.27365007776E+01  0.26281473886E+02  0.51100000000E-03 0. -1.
        -11    1    4    4    0    0 -0.59709287842E+01 -0.35270934103E+01  0.64351741788E+01  0.94606472001E+01  0.51100000000E-03 0.  1.
        -12    1    4    4    0    0  0.10217927665E+02  0.27880527147E+01  0.15320250620E+02  0.18624966115E+02  0.00000000000E+00 0.  1.
</event>
<event>
 8    1  0.3186330E-007  0.9118800E+02  0.7816164E-02  0.1184000E+00
        -11   -1    0    0    0    0  0.00000000000E+00  0.00000000000E+00  0.45593999997E+02  0.45594000000E+02  0.51100000000E-03 0.  1.
         11   -1    0    0    0    0 -0.00000000000E+00 -0.00000000000E+00 -0.45593999997E+02  0.45594000000E+02  0.51100000000E-03 0. -1.
         23    2    1    2    0    0  0.00000000000E+00  0.00000000000E+00 -0.88817841970E-15  0.91188000000E+02  0.91188000000E+02 0.  0.
    9900012    2    3    3    0    0  0.12537571731E+02 -0.33720025073E+02 -0.78452202528E+01  0.54367105434E+02  0.40000048458E+02 0.  0.
         12    1    3    3    0    0 -0.12537571731E+02  0.33720025073E+02  0.78452202528E+01  0.36820894566E+02  0.00000000000E+00 0. -1.
         11    1    4    4    0    0  0.11594335841E+01 -0.51512492239E+01  0.87976015947E+01  0.10260479954E+02  0.51100000000E-03 0. -1.
        -11    1    4    4    0    0  0.13136907301E+02 -0.10498379394E+01 -0.40084031370E+01  0.13774897063E+02  0.51100000000E-03 0.  1.
         12    1    4    4    0    0 -0.17587691541E+01 -0.27518937910E+02 -0.12634418711E+02  0.30331728417E+02  0.00000000000E+00 0. -1.
</event>
<event>
 8    1  0.3186330E-007  0.9118800E+02  0.7816164E-02  0.1184000E+00
        -11   -1    0    0    0    0  0.00000000000E+00  0.00000000000E+00  0.45593999997E+02  0.45594000000E+02  0.51100000000E-03 0.  1.
         11   -1    0    0    0    0 -0.00000000000E+00 -0.00000000000E+00 -0.45593999997E+02  0.45594000000E+02  0.51100000000E-03 0. -1.
         23    2    1    2    0    0  0.00000000000E+00  0.00000000000E+00  0.00000000000E+00  0.91188000000E+02  0.91188000000E+02 0.  0.
    9900012    2    3    3    0    0  0.20758555711E+02  0.29104778885E+02  0.88187954760E+01  0.54367123547E+02  0.40000089749E+02 0.  0.
         12    1    3    3    0    0 -0.20758555711E+02 -0.29104778885E+02 -0.88187954760E+01  0.36820876453E+02  0.00000000000E+00 0. -1.
         11    1    4    4    0    0  0.13876428990E+02  0.51031701495E+01 -0.41697543531E+00  0.14790926132E+02  0.51100000000E-03 0. -1.
        -11    1    4    4    0    0 -0.31389593712E+01  0.94070560322E+01 -0.95466286456E+01  0.13765314667E+02  0.51100000000E-03 0.  1.
         12    1    4    4    0    0  0.10021086093E+02  0.14594552703E+02  0.18782399557E+02  0.25810882747E+02  0.00000000000E+00 0. -1.
</event>
<event>
 8    1  0.3186330E-007  0.9118800E+02  0.7816164E-02  0.1184000E+00
        -11   -1    0    0    0    0  0.00000000000E+00  0.00000000000E+00  0.45593999997E+02  0.45594000000E+02  0.51100000000E-03 0.  1.
         11   -1    0    0    0    0 -0.00000000000E+00 -0.00000000000E+00 -0.45593999997E+02  0.45594000000E+02  0.51100000000E-03 0. -1.
         23    2    1    2    0    0  0.00000000000E+00  0.00000000000E+00  0.00000000000E+00  0.91188000000E+02  0.91188000000E+02 0.  0.
    9900012    2    3    3    0    0  0.50980598731E+01  0.34632948223E+02 -0.11417052246E+02  0.54367076613E+02  0.39999982755E+02 0.  0.
        -12    1    3    3    0    0 -0.50980598731E+01 -0.34632948223E+02  0.11417052246E+02  0.36820923387E+02  0.00000000000E+00 0.  1.
         11    1    4    4    0    0 -0.52622080034E+01  0.14433425164E+01  0.90985316454E+01  0.10609304834E+02  0.51100000000E-03 0.  1.
        -11    1    4    4    0    0 -0.11549078753E+01  0.23610061083E+02 -0.11670077256E+02  0.26362084515E+02  0.51100000000E-03 0. -1.
        -12    1    4    4    0    0  0.11515175752E+02  0.95795446239E+01 -0.88455066347E+01  0.17395687265E+02  0.00000000000E+00 0.  1.
</event>
<event>
 8    1  0.3186330E-007  0.9118800E+02  0.7816164E-02  0.1184000E+00
        -11   -1    0    0    0    0  0.00000000000E+00  0.00000000000E+00  0.45593999997E+02  0.45594000000E+02  0.51100000000E-03 0. -1.
         11   -1    0    0    0    0 -0.00000000000E+00 -0.00000000000E+00 -0.45593999997E+02  0.45594000000E+02  0.51100000000E-03 0.  1.
         23    2    1    2    0    0  0.00000000000E+00  0.71054273576E-14  0.00000000000E+00  0.91188000000E+02  0.91188000000E+02 0.  0.
    9900012    2    3    3    0    0  0.55084847218E+01  0.33205038791E+02  0.14928537466E+02  0.54367092408E+02  0.40000018762E+02 0.  0.
        -12    1    3    3    0    0 -0.55084847218E+01 -0.33205038791E+02 -0.14928537466E+02  0.36820907592E+02  0.00000000000E+00 0.  1.
         11    1    4    4    0    0  0.42985232579E+01  0.32735546721E+02  0.10211799939E+02  0.34559719032E+02  0.51100000000E-03 0. -1.
        -11    1    4    4    0    0  0.52098218586E+01 -0.61530703730E+01 -0.32585446338E+01  0.86960124313E+01  0.51100000000E-03 0.  1.
         12    1    4    4    0    0 -0.39998603947E+01  0.66225624430E+01  0.79752821612E+01  0.11111360945E+02  0.00000000000E+00 0. -1.
</event>
<event>
 8    1  0.3186330E-007  0.9118800E+02  0.7816164E-02  0.1184000E+00
        -11   -1    0    0    0    0  0.00000000000E+00  0.00000000000E+00  0.45593999997E+02  0.45594000000E+02  0.51100000000E-03 0. -1.
         11   -1    0    0    0    0 -0.00000000000E+00 -0.00000000000E+00 -0.45593999997E+02  0.45594000000E+02  0.51100000000E-03 0.  1.
         23    2    1    2    0    0 -0.17763568394E-14  0.00000000000E+00  0.17763568394E-14  0.91188000000E+02  0.91188000000E+02 0.  0.
    9900012    2    3    3    0    0  0.10192061500E+02 -0.33060372412E+02  0.12606184635E+02  0.54367051714E+02  0.39999925992E+02 0.  0.
         12    1    3    3    0    0 -0.10192061500E+02  0.33060372412E+02 -0.12606184635E+02  0.36820948286E+02  0.00000000000E+00 0. -1.
         11    1    4    4    0    0 -0.46100430594E+01 -0.15956471150E+02  0.37915231392E+01  0.17036346925E+02  0.51100000000E-03 0. -1.
        -11    1    4    4    0    0 -0.11381350835E+01  0.54339703768E+01  0.79693540800E+01  0.97125686736E+01  0.51100000000E-03 0.  1.
        -12    1    4    4    0    0  0.15940239643E+02 -0.22537871639E+02  0.84530741616E+00  0.27618136115E+02  0.00000000000E+00 0.  1.
</event>
<event>
 8    1  0.3186330E-007  0.9118800E+02  0.7816164E-02  0.1184000E+00
        -11   -1    0    0    0    0  0.00000000000E+00  0.00000000000E+00  0.45593999997E+02  0.45594000000E+02  0.51100000000E-03 0.  1.
         11   -1    0    0    0    0 -0.00000000000E+00 -0.00000000000E+00 -0.45593999997E+02  0.45594000000E+02  0.51100000000E-03 0. -1.
         23    2    1    2    0    0  0.00000000000E+00  0.00000000000E+00  0.00000000000E+00  0.91188000000E+02  0.91188000000E+02 0.  0.
    9900012    2    3    3    0    0  0.22045727803E+02  0.16708600021E+02  0.24302268156E+02  0.54366923610E+02  0.39999633951E+02 0.  0.
         12    1    3    3    0    0 -0.22045727803E+02 -0.16708600021E+02 -0.24302268156E+02  0.36821076390E+02  0.00000000000E+00 0. -1.
         11    1    4    4    0    0  0.68477478680E+01 -0.11454332041E+02  0.54515943863E+01  0.14415729429E+02  0.51100000000E-03 0. -1.
        -11    1    4    4    0    0  0.11720778635E+02  0.16726479851E+02  0.38728324142E+01  0.20788232517E+02  0.51100000000E-03 0.  1.
        -12    1    4    4    0    0  0.34772013001E+01  0.11436452211E+02  0.14977841355E+02  0.19162961664E+02  0.00000000000E+00 0.  1.
</event>
<event>
 8    1  0.3186330E-007  0.9118800E+02  0.7816164E-02  0.1184000E+00
        -11   -1    0    0    0    0  0.00000000000E+00  0.00000000000E+00  0.45593999997E+02  0.45594000000E+02  0.51100000000E-03 0.  1.
         11   -1    0    0    0    0 -0.00000000000E+00 -0.00000000000E+00 -0.45593999997E+02  0.45594000000E+02  0.51100000000E-03 0. -1.
         23    2    1    2    0    0  0.17763568394E-14  0.00000000000E+00  0.00000000000E+00  0.91188000000E+02  0.91188000000E+02 0.  0.
    9900012    2    3    3    0    0 -0.89465958518E+01  0.19582558686E+02  0.29870712601E+02  0.54367113898E+02  0.40000067754E+02 0.  0.
         12    1    3    3    0    0  0.89465958518E+01 -0.19582558686E+02 -0.29870712601E+02  0.36820886102E+02  0.00000000000E+00 0. -1.
         11    1    4    4    0    0  0.74051591847E+00  0.73561668236E+01  0.25545731745E+01  0.78222374374E+01  0.51100000000E-03 0. -1.
        -11    1    4    4    0    0  0.54506886421E+01 -0.93084985991E+01  0.44200224139E+01  0.11657390413E+02  0.51100000000E-03 0.  1.
        -12    1    4    4    0    0 -0.15137800412E+02  0.21534890461E+02  0.22896117012E+02  0.34887486048E+02  0.00000000000E+00 0.  1.
</event>
<event>
 8    1  0.3186330E-007  0.9118800E+02  0.7816164E-02  0.1184000E+00
        -11   -1    0    0    0    0  0.00000000000E+00  0.00000000000E+00  0.45593999997E+02  0.45594000000E+02  0.51100000000E-03 0.  1.
         11   -1    0    0    0    0 -0.00000000000E+00 -0.00000000000E+00 -0.45593999997E+02  0.45594000000E+02  0.51100000000E-03 0. -1.
         23    2    1    2    0    0 -0.13322676296E-14  0.00000000000E+00  0.00000000000E+00  0.91188000000E+02  0.91188000000E+02 0.  0.
    9900012    2    3    3    0    0  0.50398515054E+00  0.13203120133E+02 -0.34368597595E+02  0.54367124360E+02  0.40000091603E+02 0.  0.
        -12    1    3    3    0    0 -0.50398515054E+00 -0.13203120133E+02  0.34368597595E+02  0.36820875640E+02  0.00000000000E+00 0.  1.
         11    1    4    4    0    0 -0.12307902650E+02  0.13581143149E+02 -0.27903265489E+02  0.33384489544E+02  0.51100000000E-03 0. -1.
        -11    1    4    4    0    0  0.14704928964E+02 -0.24219083528E+01 -0.11079013612E+01  0.14944163462E+02  0.51100000000E-03 0.  1.
        -12    1    4    4    0    0 -0.18930411635E+01  0.20438853364E+01 -0.53574307439E+01  0.60384713538E+01  0.00000000000E+00 0.  1.
</event>
<event>
 8    1  0.3186330E-007  0.9118800E+02  0.7816164E-02  0.1184000E+00
        -11   -1    0    0    0    0  0.00000000000E+00  0.00000000000E+00  0.45593999997E+02  0.45594000000E+02  0.51100000000E-03 0.  1.
         11   -1    0    0    0    0 -0.00000000000E+00 -0.00000000000E+00 -0.45593999997E+02  0.45594000000E+02  0.51100000000E-03 0. -1.
         23    2    1    2    0    0  0.00000000000E+00  0.00000000000E+00  0.00000000000E+00  0.91188000000E+02  0.91188000000E+02 0.  0.
    9900012    2    3    3    0    0 -0.23945171905E+02 -0.18317983897E+02  0.21139081970E+02  0.54367074182E+02  0.39999977212E+02 0.  0.
         12    1    3    3    0    0  0.23945171905E+02  0.18317983897E+02 -0.21139081970E+02  0.36820925818E+02  0.00000000000E+00 0. -1.
         11    1    4    4    0    0  0.31573139893E+01 -0.13999762626E+02  0.17004123871E+02  0.22250892433E+02  0.51100000000E-03 0.  1.
        -11    1    4    4    0    0 -0.10374230811E+01 -0.35264100564E+00 -0.42979094689E+01  0.44353836803E+01  0.51100000000E-03 0. -1.
         12    1    4    4    0    0 -0.26065062813E+02 -0.39655802652E+01  0.84328675680E+01  0.27680798068E+02  0.00000000000E+00 0. -1.
</event>
<event>
 8    1  0.3186330E-007  0.9118800E+02  0.7816164E-02  0.1184000E+00
        -11   -1    0    0    0    0  0.00000000000E+00  0.00000000000E+00  0.45593999997E+02  0.45594000000E+02  0.51100000000E-03 0.  1.
         11   -1    0    0    0    0 -0.00000000000E+00 -0.00000000000E+00 -0.45593999997E+02  0.45594000000E+02  0.51100000000E-03 0. -1.
         23    2    1    2    0    0  0.35527136788E-14 -0.35527136788E-14  0.13322676296E-14  0.91188000000E+02  0.91188000000E+02 0.  0.
    9900012    2    3    3    0    0  0.31499791770E+02 -0.18911695489E+02 -0.24273296420E+01  0.54367067950E+02  0.39999963006E+02 0.  0.
        -12    1    3    3    0    0 -0.31499791770E+02  0.18911695489E+02  0.24273296420E+01  0.36820932050E+02  0.00000000000E+00 0.  1.
         11    1    4    4    0    0  0.69043790166E+01 -0.20098292740E+02  0.23029916542E+01  0.21375584004E+02  0.51100000000E-03 0. -1.
        -11    1    4    4    0    0  0.48046372471E+01  0.44538776551E+01  0.71347051821E+01  0.96863606963E+01  0.51100000000E-03 0.  1.
        -12    1    4    4    0    0  0.19790775506E+02 -0.32672804039E+01 -0.11865026478E+02  0.23305123250E+02  0.00000000000E+00 0.  1.
</event>
<event>
 8    1  0.3186330E-007  0.9118800E+02  0.7816164E-02  0.1184000E+00
        -11   -1    0    0    0    0  0.00000000000E+00  0.00000000000E+00  0.45593999997E+02  0.45594000000E+02  0.51100000000E-03 0.  1.
         11   -1    0    0    0    0 -0.00000000000E+00 -0.00000000000E+00 -0.45593999997E+02  0.45594000000E+02  0.51100000000E-03 0. -1.
         23    2    1    2    0    0 -0.35527136788E-14  0.00000000000E+00  0.35527136788E-14  0.91188000000E+02  0.91188000000E+02 0.  0.
    9900012    2    3    3    0    0  0.23773638790E+02 -0.16261345060E+02 -0.22938222594E+02  0.54367091534E+02  0.40000016769E+02 0.  0.
        -12    1    3    3    0    0 -0.23773638790E+02  0.16261345060E+02  0.22938222594E+02  0.36820908466E+02  0.00000000000E+00 0.  1.
         11    1    4    4    0    0  0.17679998817E+01  0.10733296474E+01  0.34528300776E+01  0.40249094299E+01  0.51100000000E-03 0. -1.
        -11    1    4    4    0    0  0.28391651696E+02 -0.15617913407E+02 -0.12089031963E+02  0.34585398643E+02  0.51100000000E-03 0.  1.
        -12    1    4    4    0    0 -0.63860127872E+01 -0.17167613006E+01 -0.14302020709E+02  0.15756783461E+02  0.00000000000E+00 0.  1.
</event>
<event>
 8    1  0.3186330E-007  0.9118800E+02  0.7816164E-02  0.1184000E+00
        -11   -1    0    0    0    0  0.00000000000E+00  0.00000000000E+00  0.45593999997E+02  0.45594000000E+02  0.51100000000E-03 0.  1.
         11   -1    0    0    0    0 -0.00000000000E+00 -0.00000000000E+00 -0.45593999997E+02  0.45594000000E+02  0.51100000000E-03 0. -1.
         23    2    1    2    0    0 -0.35527136788E-14 -0.35527136788E-14 -0.35527136788E-14  0.91188000000E+02  0.91188000000E+02 0.  0.
    9900012    2    3    3    0    0 -0.29992717044E+02  0.10747096691E+02  0.18458506024E+02  0.54367087360E+02  0.40000007256E+02 0.  0.
         12    1    3    3    0    0  0.29992717044E+02 -0.10747096691E+02 -0.18458506024E+02  0.36820912640E+02  0.00000000000E+00 0. -1.
         11    1    4    4    0    0 -0.16934848309E+02 -0.19971479985E+01  0.21070180371E+02  0.27105906893E+02  0.51100000000E-03 0. -1.
        -11    1    4    4    0    0 -0.14268054158E+02  0.12619906808E+02 -0.87796960493E+01  0.20974329078E+02  0.51100000000E-03 0.  1.
        -12    1    4    4    0    0  0.12101854227E+01  0.12433788108E+00  0.61680217021E+01  0.62868513887E+01  0.00000000000E+00 0.  1.
</event>
<event>
 8    1  0.3186330E-007  0.9118800E+02  0.7816164E-02  0.1184000E+00
        -11   -1    0    0    0    0  0.00000000000E+00  0.00000000000E+00  0.45593999997E+02  0.45594000000E+02  0.51100000000E-03 0.  1.
         11   -1    0    0    0    0 -0.00000000000E+00 -0.00000000000E+00 -0.45593999997E+02  0.45594000000E+02  0.51100000000E-03 0. -1.
         23    2    1    2    0    0 -0.17763568394E-14 -0.71054273576E-14 -0.88817841970E-15  0.91188000000E+02  0.91188000000E+02 0.  0.
    9900012    2    3    3    0    0 -0.83848515945E+01 -0.35127256361E+02 -0.71798372658E+01  0.54367082862E+02  0.39999997000E+02 0.  0.
        -12    1    3    3    0    0  0.83848515945E+01  0.35127256361E+02  0.71798372658E+01  0.36820917138E+02  0.00000000000E+00 0.  1.
         11    1    4    4    0    0 -0.71681125237E+01 -0.24598622804E+02 -0.18050166585E+01  0.25685251924E+02  0.51100000000E-03 0. -1.
        -11    1    4    4    0    0 -0.10388478491E+02  0.22075771346E+00  0.46222587474E+01  0.11372532503E+02  0.51100000000E-03 0.  1.
         12    1    4    4    0    0  0.91717394207E+01 -0.10749391271E+02 -0.99970793547E+01  0.17309298435E+02  0.00000000000E+00 0. -1.
</event>
<event>
 8    1  0.3186330E-007  0.9118800E+02  0.7816164E-02  0.1184000E+00
        -11   -1    0    0    0    0  0.00000000000E+00  0.00000000000E+00  0.45593999997E+02  0.45594000000E+02  0.51100000000E-03 0.  1.
         11   -1    0    0    0    0 -0.00000000000E+00 -0.00000000000E+00 -0.45593999997E+02  0.45594000000E+02  0.51100000000E-03 0. -1.
         23    2    1    2    0    0  0.35527136788E-14  0.17763568394E-14  0.00000000000E+00  0.91188000000E+02  0.91188000000E+02 0.  0.
    9900012    2    3    3    0    0  0.25237664286E+02  0.96107653555E+01  0.25029433248E+02  0.54367095095E+02  0.40000024887E+02 0.  0.
         12    1    3    3    0    0 -0.25237664286E+02 -0.96107653555E+01 -0.25029433248E+02  0.36820904905E+02  0.00000000000E+00 0. -1.
         11    1    4    4    0    0  0.23541397834E+02  0.61228644796E+01  0.72047992655E+01  0.25369194195E+02  0.51100000000E-03 0.  1.
        -11    1    4    4    0    0 -0.91674321720E+01 -0.25822285275E+01  0.38164667249E+01  0.10260367212E+02  0.51100000000E-03 0. -1.
         12    1    4    4    0    0  0.10863698625E+02  0.60701294034E+01  0.14008167257E+02  0.18737533688E+02  0.00000000000E+00 0. -1.
</event>
<event>
 8    1  0.3186330E-007  0.9118800E+02  0.7816164E-02  0.1184000E+00
        -11   -1    0    0    0    0  0.00000000000E+00  0.00000000000E+00  0.45593999997E+02  0.45594000000E+02  0.51100000000E-03 0.  1.
         11   -1    0    0    0    0 -0.00000000000E+00 -0.00000000000E+00 -0.45593999997E+02  0.45594000000E+02  0.51100000000E-03 0. -1.
         23    2    1    2    0    0  0.17763568394E-14  0.00000000000E+00  0.00000000000E+00  0.91188000000E+02  0.91188000000E+02 0.  0.
    9900012    2    3    3    0    0  0.94092532177E+01  0.22163213300E+02  0.27857598914E+02  0.54366974931E+02  0.39999750949E+02 0.  0.
         12    1    3    3    0    0 -0.94092532177E+01 -0.22163213300E+02 -0.27857598914E+02  0.36821025069E+02  0.00000000000E+00 0. -1.
         11    1    4    4    0    0 -0.51714727826E-01 -0.17499955634E+01 -0.37406949614E+01  0.41301280780E+01  0.51100000000E-03 0. -1.
        -11    1    4    4    0    0 -0.29423524258E+01  0.98816052615E+01  0.29669652728E+02  0.31410059751E+02  0.51100000000E-03 0.  1.
        -12    1    4    4    0    0  0.12403320371E+02  0.14031603602E+02  0.19286411474E+01  0.18826787101E+02  0.00000000000E+00 0.  1.
</event>
<event>
 8    1  0.3186330E-007  0.9118800E+02  0.7816164E-02  0.1184000E+00
        -11   -1    0    0    0    0  0.00000000000E+00  0.00000000000E+00  0.45593999997E+02  0.45594000000E+02  0.51100000000E-03 0. -1.
         11   -1    0    0    0    0 -0.00000000000E+00 -0.00000000000E+00 -0.45593999997E+02  0.45594000000E+02  0.51100000000E-03 0.  1.
         23    2    1    2    0    0  0.00000000000E+00  0.44408920985E-15  0.00000000000E+00  0.91188000000E+02  0.91188000000E+02 0.  0.
    9900012    2    3    3    0    0  0.25769991499E+02  0.21828816078E+01 -0.26209211918E+02  0.54367079000E+02  0.39999988195E+02 0.  0.
         12    1    3    3    0    0 -0.25769991499E+02 -0.21828816078E+01  0.26209211918E+02  0.36820921000E+02  0.00000000000E+00 0. -1.
         11    1    4    4    0    0  0.31983345068E+01 -0.10341018883E+02 -0.24348929072E+02  0.26646507508E+02  0.51100000000E-03 0.  1.
        -11    1    4    4    0    0  0.20382831644E+02  0.70219909334E+01 -0.15665219509E+00  0.21559051989E+02  0.51100000000E-03 0. -1.
        -12    1    4    4    0    0  0.21888253483E+01  0.55019095577E+01 -0.17036306504E+01  0.61615195025E+01  0.00000000000E+00 0.  1.
</event>
<event>
 8    1  0.3186330E-007  0.9118800E+02  0.7816164E-02  0.1184000E+00
        -11   -1    0    0    0    0  0.00000000000E+00  0.00000000000E+00  0.45593999997E+02  0.45594000000E+02  0.51100000000E-03 0. -1.
         11   -1    0    0    0    0 -0.00000000000E+00 -0.00000000000E+00 -0.45593999997E+02  0.45594000000E+02  0.51100000000E-03 0.  1.
         23    2    1    2    0    0 -0.71054273576E-14 -0.17763568394E-14 -0.88817841970E-15  0.91188000000E+02  0.91188000000E+02 0.  0.
    9900012    2    3    3    0    0  0.34475680650E+02  0.12268960189E+02  0.40840457304E+01  0.54367090588E+02  0.40000014614E+02 0.  0.
        -12    1    3    3    0    0 -0.34475680650E+02 -0.12268960189E+02 -0.40840457304E+01  0.36820909412E+02  0.00000000000E+00 0.  1.
         11    1    4    4    0    0 -0.30785148440E+01  0.86526847236E+01  0.52803465552E+01  0.10593784337E+02  0.51100000000E-03 0. -1.
        -11    1    4    4    0    0  0.34027958091E+02  0.99151536199E+01 -0.46927020786E+01  0.35752393713E+02  0.51100000000E-03 0.  1.
         12    1    4    4    0    0  0.35262374024E+01 -0.62988781545E+01  0.34964012537E+01  0.80209125385E+01  0.00000000000E+00 0. -1.
</event>
<event>
 8    1  0.3186330E-007  0.9118800E+02  0.7816164E-02  0.1184000E+00
        -11   -1    0    0    0    0  0.00000000000E+00  0.00000000000E+00  0.45593999997E+02  0.45594000000E+02  0.51100000000E-03 0.  1.
         11   -1    0    0    0    0 -0.00000000000E+00 -0.00000000000E+00 -0.45593999997E+02  0.45594000000E+02  0.51100000000E-03 0. -1.
         23    2    1    2    0    0  0.17763568394E-14  0.35527136788E-14  0.35527136788E-14  0.91188000000E+02  0.91188000000E+02 0.  0.
    9900012    2    3    3    0    0 -0.14583045669E+02 -0.17526823297E+02  0.28912385324E+02  0.54367071427E+02  0.39999970932E+02 0.  0.
         12    1    3    3    0    0  0.14583045669E+02  0.17526823297E+02 -0.28912385324E+02  0.36820928573E+02  0.00000000000E+00 0. -1.
         11    1    4    4    0    0 -0.42876740443E+01 -0.15077698614E+02  0.37200520750E+01  0.16110863785E+02  0.51100000000E-03 0. -1.
        -11    1    4    4    0    0 -0.10568256115E+02 -0.44096376569E+01  0.30506717807E+02  0.32585161856E+02  0.51100000000E-03 0.  1.
         12    1    4    4    0    0  0.27288449006E+00  0.19605129739E+01 -0.53143845584E+01  0.56710457854E+01  0.00000000000E+00 0. -1.
</event>
<event>
 8    1  0.3186330E-007  0.9118800E+02  0.7816164E-02  0.1184000E+00
        -11   -1    0    0    0    0  0.00000000000E+00  0.00000000000E+00  0.45593999997E+02  0.45594000000E+02  0.51100000000E-03 0. -1.
         11   -1    0    0    0    0 -0.00000000000E+00 -0.00000000000E+00 -0.45593999997E+02  0.45594000000E+02  0.51100000000E-03 0.  1.
         23    2    1    2    0    0 -0.35527136788E-14  0.00000000000E+00  0.00000000000E+00  0.91188000000E+02  0.91188000000E+02 0.  0.
    9900012    2    3    3    0    0 -0.20826029997E+02 -0.81322168854E+01  0.29256124621E+02  0.54367118632E+02  0.40000078545E+02 0.  0.
        -12    1    3    3    0    0  0.20826029997E+02  0.81322168854E+01 -0.29256124621E+02  0.36820881368E+02  0.00000000000E+00 0.  1.
         11    1    4    4    0    0  0.62228893737E+01 -0.10245421894E+02  0.80669970636E+01  0.14448856834E+02  0.51100000000E-03 0.  1.
        -11    1    4    4    0    0 -0.27455628498E+02  0.65787864389E+01  0.21403882649E+02  0.35429058129E+02  0.51100000000E-03 0. -1.
         12    1    4    4    0    0  0.40670912683E+00 -0.44655814306E+01 -0.21475509162E+00  0.44892036684E+01  0.00000000000E+00 0. -1.
</event>
<event>
 8    1  0.3186330E-007  0.9118800E+02  0.7816164E-02  0.1184000E+00
        -11   -1    0    0    0    0  0.00000000000E+00  0.00000000000E+00  0.45593999997E+02  0.45594000000E+02  0.51100000000E-03 0.  1.
         11   -1    0    0    0    0 -0.00000000000E+00 -0.00000000000E+00 -0.45593999997E+02  0.45594000000E+02  0.51100000000E-03 0. -1.
         23    2    1    2    0    0  0.00000000000E+00 -0.15543122345E-14 -0.71054273576E-14  0.91188000000E+02  0.91188000000E+02 0.  0.
    9900012    2    3    3    0    0  0.22179465981E+01 -0.19812890423E+01  0.36700613206E+02  0.54367084706E+02  0.40000001205E+02 0.  0.
         12    1    3    3    0    0 -0.22179465981E+01  0.19812890423E+01 -0.36700613206E+02  0.36820915294E+02  0.00000000000E+00 0. -1.
         11    1    4    4    0    0 -0.25990342668E+01 -0.16742736884E+02  0.45146875727E+01  0.17534441012E+02  0.51100000000E-03 0. -1.
        -11    1    4    4    0    0  0.49047450809E+01  0.99662267552E+01  0.13206880354E+02  0.17256995364E+02  0.51100000000E-03 0.  1.
        -12    1    4    4    0    0 -0.87764215930E-01  0.47952210861E+01  0.18979045279E+02  0.19575648330E+02  0.00000000000E+00 0.  1.
</event>
<event>
 8    1  0.3186330E-007  0.9118800E+02  0.7816164E-02  0.1184000E+00
        -11   -1    0    0    0    0  0.00000000000E+00  0.00000000000E+00  0.45593999997E+02  0.45594000000E+02  0.51100000000E-03 0. -1.
         11   -1    0    0    0    0 -0.00000000000E+00 -0.00000000000E+00 -0.45593999997E+02  0.45594000000E+02  0.51100000000E-03 0.  1.
         23    2    1    2    0    0 -0.17763568394E-14  0.00000000000E+00  0.00000000000E+00  0.91188000000E+02  0.91188000000E+02 0.  0.
    9900012    2    3    3    0    0  0.15390566453E+02  0.89274450398E+01  0.32236801775E+02  0.54367079325E+02  0.39999988938E+02 0.  0.
        -12    1    3    3    0    0 -0.15390566453E+02 -0.89274450398E+01 -0.32236801775E+02  0.36820920675E+02  0.00000000000E+00 0.  1.
         11    1    4    4    0    0  0.72957846362E+01  0.60601538832E+01  0.34916851031E+02  0.36182045613E+02  0.51100000000E-03 0. -1.
        -11    1    4    4    0    0  0.75427887549E+01  0.83075404668E+01 -0.49502366469E+01  0.12264327700E+02  0.51100000000E-03 0.  1.
        -12    1    4    4    0    0  0.55199306175E+00 -0.54402493102E+01  0.22701873908E+01  0.59207060125E+01  0.00000000000E+00 0.  1.
</event>
<event>
 8    1  0.3186330E-007  0.9118800E+02  0.7816164E-02  0.1184000E+00
        -11   -1    0    0    0    0  0.00000000000E+00  0.00000000000E+00  0.45593999997E+02  0.45594000000E+02  0.51100000000E-03 0. -1.
         11   -1    0    0    0    0 -0.00000000000E+00 -0.00000000000E+00 -0.45593999997E+02  0.45594000000E+02  0.51100000000E-03 0.  1.
         23    2    1    2    0    0  0.00000000000E+00 -0.17763568394E-14  0.26645352591E-14  0.91188000000E+02  0.91188000000E+02 0.  0.
    9900012    2    3    3    0    0  0.33127436792E+02  0.15676769182E+02 -0.35488462673E+01  0.54367048488E+02  0.39999918638E+02 0.  0.
         12    1    3    3    0    0 -0.33127436792E+02 -0.15676769182E+02  0.35488462673E+01  0.36820951512E+02  0.00000000000E+00 0. -1.
         11    1    4    4    0    0  0.83062568040E+01 -0.53325288699E+01  0.14451657273E+01  0.99758844461E+01  0.51100000000E-03 0. -1.
        -11    1    4    4    0    0  0.68788663232E+01  0.47648022620E+01 -0.15804527501E+02  0.17883099068E+02  0.51100000000E-03 0.  1.
        -12    1    4    4    0    0  0.17942313665E+02  0.16244495790E+02  0.10810515507E+02  0.26508064974E+02  0.00000000000E+00 0.  1.
</event>
<event>
 8    1  0.3186330E-007  0.9118800E+02  0.7816164E-02  0.1184000E+00
        -11   -1    0    0    0    0  0.00000000000E+00  0.00000000000E+00  0.45593999997E+02  0.45594000000E+02  0.51100000000E-03 0. -1.
         11   -1    0    0    0    0 -0.00000000000E+00 -0.00000000000E+00 -0.45593999997E+02  0.45594000000E+02  0.51100000000E-03 0.  1.
         23    2    1    2    0    0  0.00000000000E+00  0.00000000000E+00  0.00000000000E+00  0.91188000000E+02  0.91188000000E+02 0.  0.
    9900012    2    3    3    0    0  0.20199432907E+02 -0.28441648980E+02 -0.11782871121E+02  0.54367074721E+02  0.39999978442E+02 0.  0.
         12    1    3    3    0    0 -0.20199432907E+02  0.28441648980E+02  0.11782871121E+02  0.36820925279E+02  0.00000000000E+00 0. -1.
         11    1    4    4    0    0  0.83436187482E+01 -0.86765632606E+01  0.11294577475E+02  0.16506550349E+02  0.51100000000E-03 0. -1.
        -11    1    4    4    0    0 -0.36418248025E+01 -0.95605693790E+01 -0.13618188838E+02  0.17032981014E+02  0.51100000000E-03 0.  1.
        -12    1    4    4    0    0  0.15497638962E+02 -0.10204516341E+02 -0.94592597591E+01  0.20827543358E+02  0.00000000000E+00 0.  1.
</event>
<event>
 8    1  0.3186330E-007  0.9118800E+02  0.7816164E-02  0.1184000E+00
        -11   -1    0    0    0    0  0.00000000000E+00  0.00000000000E+00  0.45593999997E+02  0.45594000000E+02  0.51100000000E-03 0. -1.
         11   -1    0    0    0    0 -0.00000000000E+00 -0.00000000000E+00 -0.45593999997E+02  0.45594000000E+02  0.51100000000E-03 0.  1.
         23    2    1    2    0    0  0.00000000000E+00  0.00000000000E+00 -0.35527136788E-14  0.91188000000E+02  0.91188000000E+02 0.  0.
    9900012    2    3    3    0    0 -0.17907464973E+02  0.16371038660E+02 -0.27696432977E+02  0.54367073772E+02  0.39999976279E+02 0.  0.
         12    1    3    3    0    0  0.17907464973E+02 -0.16371038660E+02  0.27696432977E+02  0.36820926228E+02  0.00000000000E+00 0. -1.
         11    1    4    4    0    0 -0.45401099042E+01  0.68847803608E+01 -0.16925823187E+02  0.18828071844E+02  0.51100000000E-03 0.  1.
        -11    1    4    4    0    0 -0.12510098656E+02  0.19688287082E+02 -0.52605512192E+01  0.23912436430E+02  0.51100000000E-03 0. -1.
         12    1    4    4    0    0 -0.85725641282E+00 -0.10202028782E+02 -0.55100585714E+01  0.11626565499E+02  0.00000000000E+00 0. -1.
</event>
<event>
 8    1  0.3186330E-007  0.9118800E+02  0.7816164E-02  0.1184000E+00
        -11   -1    0    0    0    0  0.00000000000E+00  0.00000000000E+00  0.45593999997E+02  0.45594000000E+02  0.51100000000E-03 0.  1.
         11   -1    0    0    0    0 -0.00000000000E+00 -0.00000000000E+00 -0.45593999997E+02  0.45594000000E+02  0.51100000000E-03 0. -1.
         23    2    1    2    0    0  0.00000000000E+00  0.00000000000E+00  0.00000000000E+00  0.91188000000E+02  0.91188000000E+02 0.  0.
    9900012    2    3    3    0    0 -0.34336395140E+01  0.13456467217E+02 -0.34101516846E+02  0.54367084185E+02  0.40000000016E+02 0.  0.
        -12    1    3    3    0    0  0.34336395140E+01 -0.13456467217E+02  0.34101516846E+02  0.36820915815E+02  0.00000000000E+00 0.  1.
         11    1    4    4    0    0 -0.13210570334E+01 -0.12413888910E+02 -0.39053563363E+01  0.13080582477E+02  0.51100000000E-03 0. -1.
        -11    1    4    4    0    0 -0.67715649483E+00  0.87015761857E+01 -0.32703351033E+01  0.93204646335E+01  0.51100000000E-03 0.  1.
        -12    1    4    4    0    0 -0.14354259858E+01  0.17168779941E+02 -0.26925825407E+02  0.31966037074E+02  0.00000000000E+00 0.  1.
</event>
<event>
 8    1  0.3186330E-007  0.9118800E+02  0.7816164E-02  0.1184000E+00
        -11   -1    0    0    0    0  0.00000000000E+00  0.00000000000E+00  0.45593999997E+02  0.45594000000E+02  0.51100000000E-03 0.  1.
         11   -1    0    0    0    0 -0.00000000000E+00 -0.00000000000E+00 -0.45593999997E+02  0.45594000000E+02  0.51100000000E-03 0. -1.
         23    2    1    2    0    0  0.71054273576E-14 -0.17763568394E-14 -0.88817841970E-15  0.91188000000E+02  0.91188000000E+02 0.  0.
    9900012    2    3    3    0    0 -0.35687764792E+02  0.90010217350E+01 -0.10694112198E+01  0.54367101199E+02  0.40000038804E+02 0.  0.
         12    1    3    3    0    0  0.35687764792E+02 -0.90010217350E+01  0.10694112198E+01  0.36820898801E+02  0.00000000000E+00 0. -1.
         11    1    4    4    0    0 -0.17729121498E+01  0.17159727311E+01 -0.97490869580E+01  0.10056464422E+02  0.51100000000E-03 0. -1.
        -11    1    4    4    0    0  0.25962570570E+01 -0.27376982601E+01  0.50094193113E+01  0.62713495012E+01  0.51100000000E-03 0.  1.
         12    1    4    4    0    0 -0.36511109699E+02  0.10022747264E+02  0.36702564269E+01  0.38039287276E+02  0.00000000000E+00 0. -1.
</event>
<event>
 8    1  0.3186330E-007  0.9118800E+02  0.7816164E-02  0.1184000E+00
        -11   -1    0    0    0    0  0.00000000000E+00  0.00000000000E+00  0.45593999997E+02  0.45594000000E+02  0.51100000000E-03 0. -1.
         11   -1    0    0    0    0 -0.00000000000E+00 -0.00000000000E+00 -0.45593999997E+02  0.45594000000E+02  0.51100000000E-03 0.  1.
         23    2    1    2    0    0 -0.17763568394E-14  0.44408920985E-15  0.00000000000E+00  0.91188000000E+02  0.91188000000E+02 0.  0.
    9900012    2    3    3    0    0  0.83863548067E+01 -0.25426209180E+01  0.35762881360E+02  0.54367088126E+02  0.40000009001E+02 0.  0.
        -12    1    3    3    0    0 -0.83863548067E+01  0.25426209180E+01 -0.35762881360E+02  0.36820911874E+02  0.00000000000E+00 0.  1.
         11    1    4    4    0    0 -0.12983223956E+02  0.31974962635E+01  0.12425640011E+02  0.18253345353E+02  0.51100000000E-03 0.  1.
        -11    1    4    4    0    0  0.25384577918E+01 -0.73949405811E+01  0.11164233794E+02  0.13629711319E+02  0.51100000000E-03 0. -1.
        -12    1    4    4    0    0  0.18831120971E+02  0.16548233996E+01  0.12173007555E+02  0.22484031454E+02  0.00000000000E+00 0.  1.
</event>
<event>
 8    1  0.3186330E-007  0.9118800E+02  0.7816164E-02  0.1184000E+00
        -11   -1    0    0    0    0  0.00000000000E+00  0.00000000000E+00  0.45593999997E+02  0.45594000000E+02  0.51100000000E-03 0. -1.
         11   -1    0    0    0    0 -0.00000000000E+00 -0.00000000000E+00 -0.45593999997E+02  0.45594000000E+02  0.51100000000E-03 0.  1.
         23    2    1    2    0    0  0.88817841970E-15  0.00000000000E+00 -0.44408920985E-15  0.91188000000E+02  0.91188000000E+02 0.  0.
    9900012    2    3    3    0    0  0.29338543904E+01 -0.36496028850E+02 -0.39006079157E+01  0.54367049910E+02  0.39999921879E+02 0.  0.
        -12    1    3    3    0    0 -0.29338543904E+01  0.36496028850E+02  0.39006079157E+01  0.36820950090E+02  0.00000000000E+00 0.  1.
         11    1    4    4    0    0 -0.11475319675E+01 -0.81667545494E+01 -0.56799871772E+01  0.10013738766E+02  0.51100000000E-03 0. -1.
        -11    1    4    4    0    0  0.10384661965E+02 -0.14173685857E+02 -0.13828420578E+02  0.22359780653E+02  0.51100000000E-03 0.  1.
         12    1    4    4    0    0 -0.63032756072E+01 -0.14155588445E+02  0.15607799840E+02  0.21993530490E+02  0.00000000000E+00 0. -1.
</event>
<event>
 8    1  0.3186330E-007  0.9118800E+02  0.7816164E-02  0.1184000E+00
        -11   -1    0    0    0    0  0.00000000000E+00  0.00000000000E+00  0.45593999997E+02  0.45594000000E+02  0.51100000000E-03 0. -1.
         11   -1    0    0    0    0 -0.00000000000E+00 -0.00000000000E+00 -0.45593999997E+02  0.45594000000E+02  0.51100000000E-03 0.  1.
         23    2    1    2    0    0  0.00000000000E+00  0.00000000000E+00  0.00000000000E+00  0.91188000000E+02  0.91188000000E+02 0.  0.
    9900012    2    3    3    0    0 -0.12183782627E+02 -0.34518296761E+02  0.39777057158E+01  0.54367088643E+02  0.40000010180E+02 0.  0.
        -12    1    3    3    0    0  0.12183782627E+02  0.34518296761E+02 -0.39777057158E+01  0.36820911357E+02  0.00000000000E+00 0.  1.
         11    1    4    4    0    0 -0.19025416341E+02 -0.23245192946E+02  0.19598095242E+01  0.30102264295E+02  0.51100000000E-03 0. -1.
        -11    1    4    4    0    0  0.10354728510E+02 -0.13539804928E+02 -0.34405407915E+01  0.17389193230E+02  0.51100000000E-03 0.  1.
        -12    1    4    4    0    0 -0.35130947955E+01  0.22667011122E+01  0.54584369831E+01  0.68756311181E+01  0.00000000000E+00 0.  1.
</event>
<event>
 8    1  0.3186330E-007  0.9118800E+02  0.7816164E-02  0.1184000E+00
        -11   -1    0    0    0    0  0.00000000000E+00  0.00000000000E+00  0.45593999997E+02  0.45594000000E+02  0.51100000000E-03 0. -1.
         11   -1    0    0    0    0 -0.00000000000E+00 -0.00000000000E+00 -0.45593999997E+02  0.45594000000E+02  0.51100000000E-03 0.  1.
         23    2    1    2    0    0  0.00000000000E+00  0.35527136788E-14  0.00000000000E+00  0.91188000000E+02  0.91188000000E+02 0.  0.
    9900012    2    3    3    0    0 -0.17039796399E+02  0.31776559507E+02 -0.74615807573E+01  0.54367087697E+02  0.40000008023E+02 0.  0.
         12    1    3    3    0    0  0.17039796399E+02 -0.31776559507E+02  0.74615807573E+01  0.36820912303E+02  0.00000000000E+00 0. -1.
         11    1    4    4    0    0  0.60354473864E+01 -0.20536060336E+01 -0.20059307905E+01  0.66833884739E+01  0.51100000000E-03 0. -1.
        -11    1    4    4    0    0 -0.17023439064E+02  0.35827315873E+02 -0.59789151418E+00  0.39670537112E+02  0.51100000000E-03 0.  1.
        -12    1    4    4    0    0 -0.60518047216E+01 -0.19971503326E+01 -0.48577584526E+01  0.80131621114E+01  0.00000000000E+00 0.  1.
</event>
<event>
 8    1  0.3186330E-007  0.9118800E+02  0.7816164E-02  0.1184000E+00
        -11   -1    0    0    0    0  0.00000000000E+00  0.00000000000E+00  0.45593999997E+02  0.45594000000E+02  0.51100000000E-03 0.  1.
         11   -1    0    0    0    0 -0.00000000000E+00 -0.00000000000E+00 -0.45593999997E+02  0.45594000000E+02  0.51100000000E-03 0. -1.
         23    2    1    2    0    0  0.17763568394E-14 -0.17763568394E-14  0.00000000000E+00  0.91188000000E+02  0.91188000000E+02 0.  0.
    9900012    2    3    3    0    0  0.12061730217E+02 -0.93877279727E+01  0.33498736560E+02  0.54367080356E+02  0.39999991287E+02 0.  0.
         12    1    3    3    0    0 -0.12061730217E+02  0.93877279727E+01 -0.33498736560E+02  0.36820919644E+02  0.00000000000E+00 0. -1.
         11    1    4    4    0    0  0.53518855826E+01 -0.14640421781E+02  0.30827957382E+00  0.15591012339E+02  0.51100000000E-03 0. -1.
        -11    1    4    4    0    0 -0.22258274742E+00  0.87994662474E+01  0.28164446790E+02  0.29507900850E+02  0.51100000000E-03 0.  1.
        -12    1    4    4    0    0  0.69324273815E+01 -0.35467724395E+01  0.50260101966E+01  0.92681671669E+01  0.00000000000E+00 0.  1.
</event>
<event>
 8    1  0.3186330E-007  0.9118800E+02  0.7816164E-02  0.1184000E+00
        -11   -1    0    0    0    0  0.00000000000E+00  0.00000000000E+00  0.45593999997E+02  0.45594000000E+02  0.51100000000E-03 0. -1.
         11   -1    0    0    0    0 -0.00000000000E+00 -0.00000000000E+00 -0.45593999997E+02  0.45594000000E+02  0.51100000000E-03 0.  1.
         23    2    1    2    0    0  0.00000000000E+00 -0.35527136788E-14  0.35527136788E-14  0.91188000000E+02  0.91188000000E+02 0.  0.
    9900012    2    3    3    0    0 -0.12002780701E+02  0.30210540083E+02  0.17292680310E+02  0.54367078380E+02  0.39999986782E+02 0.  0.
        -12    1    3    3    0    0  0.12002780701E+02 -0.30210540083E+02 -0.17292680310E+02  0.36820921620E+02  0.00000000000E+00 0.  1.
         11    1    4    4    0    0 -0.80901421697E+01  0.99468042554E+01  0.21575219081E+02  0.25097398150E+02  0.51100000000E-03 0. -1.
        -11    1    4    4    0    0  0.80035596226E+01  0.10133686820E+02 -0.43601390007E+01  0.13629357562E+02  0.51100000000E-03 0.  1.
        -12    1    4    4    0    0 -0.11916198154E+02  0.10130049008E+02  0.77600229168E-01  0.15640322668E+02  0.00000000000E+00 0.  1.
</event>
<event>
 8    1  0.3186330E-007  0.9118800E+02  0.7816164E-02  0.1184000E+00
        -11   -1    0    0    0    0  0.00000000000E+00  0.00000000000E+00  0.45593999997E+02  0.45594000000E+02  0.51100000000E-03 0. -1.
         11   -1    0    0    0    0 -0.00000000000E+00 -0.00000000000E+00 -0.45593999997E+02  0.45594000000E+02  0.51100000000E-03 0.  1.
         23    2    1    2    0    0  0.26645352591E-14  0.00000000000E+00 -0.17763568394E-14  0.91188000000E+02  0.91188000000E+02 0.  0.
    9900012    2    3    3    0    0 -0.72533879509E+01 -0.33045577754E+02 -0.14531203970E+02  0.54367112793E+02  0.40000065235E+02 0.  0.
         12    1    3    3    0    0  0.72533879509E+01  0.33045577754E+02  0.14531203970E+02  0.36820887207E+02  0.00000000000E+00 0. -1.
         11    1    4    4    0    0 -0.11627275987E+02 -0.10129186086E+02 -0.82429602401E+01  0.17485432549E+02  0.51100000000E-03 0.  1.
        -11    1    4    4    0    0 -0.71706468914E+01 -0.52476385931E+01  0.75362221721E+01  0.11651203051E+02  0.51100000000E-03 0. -1.
        -12    1    4    4    0    0  0.11544534928E+02 -0.17668753075E+02 -0.13824465902E+02  0.25230477194E+02  0.00000000000E+00 0.  1.
</event>
<event>
 8    1  0.3186330E-007  0.9118800E+02  0.7816164E-02  0.1184000E+00
        -11   -1    0    0    0    0  0.00000000000E+00  0.00000000000E+00  0.45593999997E+02  0.45594000000E+02  0.51100000000E-03 0. -1.
         11   -1    0    0    0    0 -0.00000000000E+00 -0.00000000000E+00 -0.45593999997E+02  0.45594000000E+02  0.51100000000E-03 0.  1.
         23    2    1    2    0    0 -0.71054273576E-14 -0.17763568394E-14  0.71054273576E-14  0.91188000000E+02  0.91188000000E+02 0.  0.
    9900012    2    3    3    0    0  0.32754999619E+02  0.35022545287E+01 -0.16450644122E+02  0.54367089109E+02  0.40000011241E+02 0.  0.
         12    1    3    3    0    0 -0.32754999619E+02 -0.35022545287E+01  0.16450644122E+02  0.36820910891E+02  0.00000000000E+00 0. -1.
         11    1    4    4    0    0  0.38985620963E+01  0.93870023776E+00  0.76662297216E+01  0.86516485689E+01  0.51100000000E-03 0. -1.
        -11    1    4    4    0    0  0.26555038034E+02  0.10859727126E+02 -0.23496690967E+02  0.37083664933E+02  0.51100000000E-03 0.  1.
         12    1    4    4    0    0  0.23013994894E+01 -0.82961728350E+01 -0.62018287590E+00  0.86317756063E+01  0.00000000000E+00 0. -1.
</event>
<event>
 8    1  0.3186330E-007  0.9118800E+02  0.7816164E-02  0.1184000E+00
        -11   -1    0    0    0    0  0.00000000000E+00  0.00000000000E+00  0.45593999997E+02  0.45594000000E+02  0.51100000000E-03 0.  1.
         11   -1    0    0    0    0 -0.00000000000E+00 -0.00000000000E+00 -0.45593999997E+02  0.45594000000E+02  0.51100000000E-03 0. -1.
         23    2    1    2    0    0 -0.35527136788E-14 -0.35527136788E-14  0.00000000000E+00  0.91188000000E+02  0.91188000000E+02 0.  0.
    9900012    2    3    3    0    0 -0.24819217574E+02 -0.18131013041E+02 -0.20274424354E+02  0.54367089124E+02  0.40000011276E+02 0.  0.
        -12    1    3    3    0    0  0.24819217574E+02  0.18131013041E+02  0.20274424354E+02  0.36820910876E+02  0.00000000000E+00 0.  1.
         11    1    4    4    0    0  0.56099187437E+00 -0.13160532132E+02 -0.17810511719E+02  0.22152395938E+02  0.51100000000E-03 0. -1.
        -11    1    4    4    0    0 -0.26128556156E+02  0.77863900724E+00 -0.68064449657E+00  0.26149015329E+02  0.51100000000E-03 0.  1.
        -12    1    4    4    0    0  0.74834670740E+00 -0.57491199162E+01 -0.17832681389E+01  0.60656778566E+01  0.00000000000E+00 0.  1.
</event>
<event>
 8    1  0.3186330E-007  0.9118800E+02  0.7816164E-02  0.1184000E+00
        -11   -1    0    0    0    0  0.00000000000E+00  0.00000000000E+00  0.45593999997E+02  0.45594000000E+02  0.51100000000E-03 0.  1.
         11   -1    0    0    0    0 -0.00000000000E+00 -0.00000000000E+00 -0.45593999997E+02  0.45594000000E+02  0.51100000000E-03 0. -1.
         23    2    1    2    0    0  0.00000000000E+00  0.00000000000E+00 -0.35527136788E-14  0.91188000000E+02  0.91188000000E+02 0.  0.
    9900012    2    3    3    0    0 -0.16962047204E+02  0.25931878989E+02  0.19889852083E+02  0.54367087339E+02  0.40000007208E+02 0.  0.
         12    1    3    3    0    0  0.16962047204E+02 -0.25931878989E+02 -0.19889852083E+02  0.36820912661E+02  0.00000000000E+00 0. -1.
         11    1    4    4    0    0 -0.36240229777E+01 -0.43877438778E+01 -0.94794293225E+00  0.57692664130E+01  0.51100000000E-03 0. -1.
        -11    1    4    4    0    0  0.19545505730E+01  0.14155148198E+02 -0.43996154091E+01  0.14951424830E+02  0.51100000000E-03 0.  1.
         12    1    4    4    0    0 -0.15292574800E+02  0.16164474669E+02  0.25237410424E+02  0.33646396096E+02  0.00000000000E+00 0. -1.
</event>
<event>
 8    1  0.3186330E-007  0.9118800E+02  0.7816164E-02  0.1184000E+00
        -11   -1    0    0    0    0  0.00000000000E+00  0.00000000000E+00  0.45593999997E+02  0.45594000000E+02  0.51100000000E-03 0. -1.
         11   -1    0    0    0    0 -0.00000000000E+00 -0.00000000000E+00 -0.45593999997E+02  0.45594000000E+02  0.51100000000E-03 0.  1.
         23    2    1    2    0    0  0.88817841970E-15  0.17763568394E-14  0.71054273576E-14  0.91188000000E+02  0.91188000000E+02 0.  0.
    9900012    2    3    3    0    0  0.25093195775E+01  0.51826548521E+01 -0.36367888307E+02  0.54367083445E+02  0.39999998329E+02 0.  0.
         12    1    3    3    0    0 -0.25093195775E+01 -0.51826548521E+01  0.36367888307E+02  0.36820916555E+02  0.00000000000E+00 0. -1.
         11    1    4    4    0    0  0.91583949222E+01  0.11969328174E+02 -0.35750734157E+01  0.15489421057E+02  0.51100000000E-03 0. -1.
        -11    1    4    4    0    0 -0.55971839068E+01  0.27868742735E+01 -0.26832517043E+02  0.27551390292E+02  0.51100000000E-03 0.  1.
         12    1    4    4    0    0 -0.10518914380E+01 -0.95735475951E+01 -0.59602978478E+01  0.11326272096E+02  0.00000000000E+00 0. -1.
</event>
<event>
 8    1  0.3186330E-007  0.9118800E+02  0.7816164E-02  0.1184000E+00
        -11   -1    0    0    0    0  0.00000000000E+00  0.00000000000E+00  0.45593999997E+02  0.45594000000E+02  0.51100000000E-03 0.  1.
         11   -1    0    0    0    0 -0.00000000000E+00 -0.00000000000E+00 -0.45593999997E+02  0.45594000000E+02  0.51100000000E-03 0. -1.
         23    2    1    2    0    0  0.71054273576E-14  0.35527136788E-14  0.88817841970E-15  0.91188000000E+02  0.91188000000E+02 0.  0.
    9900012    2    3    3    0    0  0.26636015715E+02  0.25385563074E+02  0.13696946401E+01  0.54367079191E+02  0.39999988633E+02 0.  0.
         12    1    3    3    0    0 -0.26636015715E+02 -0.25385563074E+02 -0.13696946401E+01  0.36820920809E+02  0.00000000000E+00 0. -1.
         11    1    4    4    0    0 -0.19860205955E+01 -0.87693985603E+01  0.20248811084E+01  0.92166573485E+01  0.51100000000E-03 0. -1.
        -11    1    4    4    0    0  0.21877999895E+02  0.21501113529E+02  0.11625124338E+01  0.30696843450E+02  0.51100000000E-03 0.  1.
         12    1    4    4    0    0  0.67440364162E+01  0.12653848106E+02 -0.18176989022E+01  0.14453578393E+02  0.00000000000E+00 0. -1.
</event>
<event>
 8    1  0.3186330E-007  0.9118800E+02  0.7816164E-02  0.1184000E+00
        -11   -1    0    0    0    0  0.00000000000E+00  0.00000000000E+00  0.45593999997E+02  0.45594000000E+02  0.51100000000E-03 0.  1.
         11   -1    0    0    0    0 -0.00000000000E+00 -0.00000000000E+00 -0.45593999997E+02  0.45594000000E+02  0.51100000000E-03 0. -1.
         23    2    1    2    0    0 -0.66613381478E-15 -0.13322676296E-14  0.00000000000E+00  0.91188000000E+02  0.91188000000E+02 0.  0.
    9900012    2    3    3    0    0 -0.11981828935E+01 -0.38313636981E+01  0.36601433304E+02  0.54367083255E+02  0.39999997897E+02 0.  0.
        -12    1    3    3    0    0  0.11981828935E+01  0.38313636981E+01 -0.36601433304E+02  0.36820916745E+02  0.00000000000E+00 0.  1.
         11    1    4    4    0    0  0.65997629809E+01  0.99793838504E+00 -0.29757185740E+01  0.73080540308E+01  0.51100000000E-03 0. -1.
        -11    1    4    4    0    0 -0.61010248457E+01  0.82877825761E+01  0.26634764405E+02  0.28553817947E+02  0.51100000000E-03 0.  1.
         12    1    4    4    0    0 -0.16969210287E+01 -0.13117084659E+02  0.12942387473E+02  0.18505211278E+02  0.00000000000E+00 0. -1.
</event>
<event>
 8    1  0.3186330E-007  0.9118800E+02  0.7816164E-02  0.1184000E+00
        -11   -1    0    0    0    0  0.00000000000E+00  0.00000000000E+00  0.45593999997E+02  0.45594000000E+02  0.51100000000E-03 0. -1.
         11   -1    0    0    0    0 -0.00000000000E+00 -0.00000000000E+00 -0.45593999997E+02  0.45594000000E+02  0.51100000000E-03 0.  1.
         23    2    1    2    0    0  0.00000000000E+00  0.00000000000E+00  0.88817841970E-15  0.91188000000E+02  0.91188000000E+02 0.  0.
    9900012    2    3    3    0    0 -0.11570696930E+02 -0.34283100804E+02 -0.68246476084E+01  0.54366975528E+02  0.39999752310E+02 0.  0.
        -12    1    3    3    0    0  0.11570696930E+02  0.34283100804E+02  0.68246476084E+01  0.36821024472E+02  0.00000000000E+00 0.  1.
         11    1    4    4    0    0  0.36358681691E+01  0.52297759579E+01 -0.36091258998E+00  0.63796827563E+01  0.51100000000E-03 0.  1.
        -11    1    4    4    0    0 -0.23938037013E+01 -0.25586533199E+02  0.45409142094E+01  0.26096376749E+02  0.51100000000E-03 0. -1.
        -12    1    4    4    0    0 -0.12812761398E+02 -0.13926343563E+02 -0.11004649228E+02  0.21890916022E+02  0.00000000000E+00 0.  1.
</event>
<event>
 8    1  0.3186330E-007  0.9118800E+02  0.7816164E-02  0.1184000E+00
        -11   -1    0    0    0    0  0.00000000000E+00  0.00000000000E+00  0.45593999997E+02  0.45594000000E+02  0.51100000000E-03 0.  1.
         11   -1    0    0    0    0 -0.00000000000E+00 -0.00000000000E+00 -0.45593999997E+02  0.45594000000E+02  0.51100000000E-03 0. -1.
         23    2    1    2    0    0  0.00000000000E+00 -0.35527136788E-14  0.00000000000E+00  0.91188000000E+02  0.91188000000E+02 0.  0.
    9900012    2    3    3    0    0 -0.21238327358E+02 -0.25261606034E+02  0.16326753055E+02  0.54367107104E+02  0.40000052264E+02 0.  0.
         12    1    3    3    0    0  0.21238327358E+02  0.25261606034E+02 -0.16326753055E+02  0.36820892896E+02  0.00000000000E+00 0. -1.
         11    1    4    4    0    0 -0.59652915180E+01  0.17305260641E+01  0.88150719723E+01  0.10783548465E+02  0.51100000000E-03 0. -1.
        -11    1    4    4    0    0 -0.88170033397E+01 -0.59902626836E+01  0.16664161418E+02  0.19781735792E+02  0.51100000000E-03 0.  1.
         12    1    4    4    0    0 -0.64560325000E+01 -0.21001869414E+02 -0.91524803354E+01  0.23801822847E+02  0.00000000000E+00 0. -1.
</event>
<event>
 8    1  0.3186330E-007  0.9118800E+02  0.7816164E-02  0.1184000E+00
        -11   -1    0    0    0    0  0.00000000000E+00  0.00000000000E+00  0.45593999997E+02  0.45594000000E+02  0.51100000000E-03 0. -1.
         11   -1    0    0    0    0 -0.00000000000E+00 -0.00000000000E+00 -0.45593999997E+02  0.45594000000E+02  0.51100000000E-03 0.  1.
         23    2    1    2    0    0  0.00000000000E+00 -0.35527136788E-14  0.00000000000E+00  0.91188000000E+02  0.91188000000E+02 0.  0.
    9900012    2    3    3    0    0  0.23461420476E+02 -0.16148946165E+02  0.23335706319E+02  0.54367056199E+02  0.39999936217E+02 0.  0.
        -12    1    3    3    0    0 -0.23461420476E+02  0.16148946165E+02 -0.23335706319E+02  0.36820943801E+02  0.00000000000E+00 0.  1.
         11    1    4    4    0    0  0.16537945055E+02 -0.11322698268E+01 -0.30979634172E+01  0.16863660314E+02  0.51100000000E-03 0. -1.
        -11    1    4    4    0    0 -0.36204084903E+01 -0.98140148171E+01  0.22980373391E+02  0.25249154558E+02  0.51100000000E-03 0.  1.
         12    1    4    4    0    0  0.10543883912E+02 -0.52026615207E+01  0.34532963458E+01  0.12254241327E+02  0.00000000000E+00 0. -1.
</event>
<event>
 8    1  0.3186330E-007  0.9118800E+02  0.7816164E-02  0.1184000E+00
        -11   -1    0    0    0    0  0.00000000000E+00  0.00000000000E+00  0.45593999997E+02  0.45594000000E+02  0.51100000000E-03 0. -1.
         11   -1    0    0    0    0 -0.00000000000E+00 -0.00000000000E+00 -0.45593999997E+02  0.45594000000E+02  0.51100000000E-03 0.  1.
         23    2    1    2    0    0 -0.35527136788E-14 -0.35527136788E-14 -0.35527136788E-14  0.91188000000E+02  0.91188000000E+02 0.  0.
    9900012    2    3    3    0    0 -0.23246688138E+02 -0.18414057808E+02 -0.21824181090E+02  0.54367069613E+02  0.39999966796E+02 0.  0.
         12    1    3    3    0    0  0.23246688138E+02  0.18414057808E+02  0.21824181090E+02  0.36820930387E+02  0.00000000000E+00 0. -1.
         11    1    4    4    0    0 -0.88447961384E+01 -0.26774202675E+01 -0.13505095073E+02  0.16364186237E+02  0.51100000000E-03 0. -1.
        -11    1    4    4    0    0 -0.16681646651E+02 -0.26319078445E+01  0.64945255668E+01  0.18093731967E+02  0.51100000000E-03 0.  1.
         12    1    4    4    0    0  0.22797546512E+01 -0.13104729696E+02 -0.14813611584E+02  0.19909151409E+02  0.00000000000E+00 0. -1.
</event>
<event>
 8    1  0.3186330E-007  0.9118800E+02  0.7816164E-02  0.1184000E+00
        -11   -1    0    0    0    0  0.00000000000E+00  0.00000000000E+00  0.45593999997E+02  0.45594000000E+02  0.51100000000E-03 0.  1.
         11   -1    0    0    0    0 -0.00000000000E+00 -0.00000000000E+00 -0.45593999997E+02  0.45594000000E+02  0.51100000000E-03 0. -1.
         23    2    1    2    0    0  0.00000000000E+00  0.00000000000E+00 -0.35527136788E-14  0.91188000000E+02  0.91188000000E+02 0.  0.
    9900012    2    3    3    0    0  0.14785850850E+02  0.19482017705E+02 -0.27524756081E+02  0.54367046773E+02  0.39999914729E+02 0.  0.
        -12    1    3    3    0    0 -0.14785850850E+02 -0.19482017705E+02  0.27524756081E+02  0.36820953227E+02  0.00000000000E+00 0.  1.
         11    1    4    4    0    0  0.32446502092E+01  0.24155808228E+02 -0.60618603365E+01  0.25115273781E+02  0.51100000000E-03 0.  1.
        -11    1    4    4    0    0  0.10768780820E+02 -0.85696110522E+01 -0.21194877168E+02  0.25271084115E+02  0.51100000000E-03 0. -1.
         12    1    4    4    0    0  0.77241982051E+00  0.38958205294E+01 -0.26801857646E+00  0.39806888768E+01  0.00000000000E+00 0. -1.
</event>
<event>
 8    1  0.3186330E-007  0.9118800E+02  0.7816164E-02  0.1184000E+00
        -11   -1    0    0    0    0  0.00000000000E+00  0.00000000000E+00  0.45593999997E+02  0.45594000000E+02  0.51100000000E-03 0. -1.
         11   -1    0    0    0    0 -0.00000000000E+00 -0.00000000000E+00 -0.45593999997E+02  0.45594000000E+02  0.51100000000E-03 0.  1.
         23    2    1    2    0    0  0.00000000000E+00  0.00000000000E+00  0.00000000000E+00  0.91188000000E+02  0.91188000000E+02 0.  0.
    9900012    2    3    3    0    0 -0.25279418035E+02  0.16123028969E+02  0.21372320732E+02  0.54367120967E+02  0.40000083868E+02 0.  0.
        -12    1    3    3    0    0  0.25279418035E+02 -0.16123028969E+02 -0.21372320732E+02  0.36820879033E+02  0.00000000000E+00 0.  1.
         11    1    4    4    0    0 -0.17919506898E+01  0.11484311443E+02  0.53806691181E+01  0.12808282360E+02  0.51100000000E-03 0. -1.
        -11    1    4    4    0    0  0.35455016943E+01 -0.29183091382E+01  0.12446348472E+02  0.13266450205E+02  0.51100000000E-03 0.  1.
         12    1    4    4    0    0 -0.27032969040E+02  0.75570266635E+01  0.35453031415E+01  0.28292388401E+02  0.00000000000E+00 0. -1.
</event>
<event>
 8    1  0.3186330E-007  0.9118800E+02  0.7816164E-02  0.1184000E+00
        -11   -1    0    0    0    0  0.00000000000E+00  0.00000000000E+00  0.45593999997E+02  0.45594000000E+02  0.51100000000E-03 0. -1.
         11   -1    0    0    0    0 -0.00000000000E+00 -0.00000000000E+00 -0.45593999997E+02  0.45594000000E+02  0.51100000000E-03 0.  1.
         23    2    1    2    0    0  0.00000000000E+00 -0.35527136788E-14  0.00000000000E+00  0.91188000000E+02  0.91188000000E+02 0.  0.
    9900012    2    3    3    0    0 -0.26988118763E+02  0.20865135150E+02 -0.13858852843E+02  0.54367079026E+02  0.39999988256E+02 0.  0.
         12    1    3    3    0    0  0.26988118763E+02 -0.20865135150E+02  0.13858852843E+02  0.36820920974E+02  0.00000000000E+00 0. -1.
         11    1    4    4    0    0 -0.18726233439E+02  0.17435510225E+02  0.55398108325E+01  0.26179349494E+02  0.51100000000E-03 0. -1.
        -11    1    4    4    0    0 -0.93946511948E+01  0.88970085517E+01 -0.72840829849E+01  0.14848370194E+02  0.51100000000E-03 0.  1.
         12    1    4    4    0    0  0.11327658706E+01 -0.54673836264E+01 -0.12114580690E+02  0.13339359338E+02  0.00000000000E+00 0. -1.
</event>
<event>
 8    1  0.3186330E-007  0.9118800E+02  0.7816164E-02  0.1184000E+00
        -11   -1    0    0    0    0  0.00000000000E+00  0.00000000000E+00  0.45593999997E+02  0.45594000000E+02  0.51100000000E-03 0.  1.
         11   -1    0    0    0    0 -0.00000000000E+00 -0.00000000000E+00 -0.45593999997E+02  0.45594000000E+02  0.51100000000E-03 0. -1.
         23    2    1    2    0    0  0.00000000000E+00  0.00000000000E+00 -0.35527136788E-14  0.91188000000E+02  0.91188000000E+02 0.  0.
    9900012    2    3    3    0    0 -0.55773202102E+01 -0.23138631797E+02 -0.28094050804E+02  0.54367102771E+02  0.40000042387E+02 0.  0.
        -12    1    3    3    0    0  0.55773202102E+01  0.23138631797E+02  0.28094050804E+02  0.36820897229E+02  0.00000000000E+00 0.  1.
         11    1    4    4    0    0  0.46442724592E+00 -0.17066794562E+02  0.62733418415E+01  0.18189172258E+02  0.51100000000E-03 0. -1.
        -11    1    4    4    0    0  0.12828423214E+01  0.50920091087E-01 -0.86700589727E+01  0.87645992566E+01  0.51100000000E-03 0.  1.
        -12    1    4    4    0    0 -0.73245897775E+01 -0.61227573256E+01 -0.25697333673E+02  0.27413331257E+02  0.00000000000E+00 0.  1.
</event>
<event>
 8    1  0.3186330E-007  0.9118800E+02  0.7816164E-02  0.1184000E+00
        -11   -1    0    0    0    0  0.00000000000E+00  0.00000000000E+00  0.45593999997E+02  0.45594000000E+02  0.51100000000E-03 0.  1.
         11   -1    0    0    0    0 -0.00000000000E+00 -0.00000000000E+00 -0.45593999997E+02  0.45594000000E+02  0.51100000000E-03 0. -1.
         23    2    1    2    0    0  0.00000000000E+00 -0.17763568394E-14  0.00000000000E+00  0.91188000000E+02  0.91188000000E+02 0.  0.
    9900012    2    3    3    0    0  0.33018852361E+02  0.97120338317E+01 -0.13084786566E+02  0.54367084044E+02  0.39999999694E+02 0.  0.
         12    1    3    3    0    0 -0.33018852361E+02 -0.97120338317E+01  0.13084786566E+02  0.36820915956E+02  0.00000000000E+00 0. -1.
         11    1    4    4    0    0  0.22827743527E+01  0.98571286847E+01  0.55090021722E+01  0.11520553365E+02  0.51100000000E-03 0. -1.
        -11    1    4    4    0    0  0.65516098950E+01 -0.11877363147E+01  0.55419986919E+01  0.86630283118E+01  0.51100000000E-03 0.  1.
         12    1    4    4    0    0  0.24184468113E+02  0.10426414618E+01 -0.24135787430E+02  0.34183502366E+02  0.00000000000E+00 0. -1.
</event>
<event>
 8    1  0.3186330E-007  0.9118800E+02  0.7816164E-02  0.1184000E+00
        -11   -1    0    0    0    0  0.00000000000E+00  0.00000000000E+00  0.45593999997E+02  0.45594000000E+02  0.51100000000E-03 0.  1.
         11   -1    0    0    0    0 -0.00000000000E+00 -0.00000000000E+00 -0.45593999997E+02  0.45594000000E+02  0.51100000000E-03 0. -1.
         23    2    1    2    0    0  0.35527136788E-14 -0.17763568394E-14  0.35527136788E-14  0.91188000000E+02  0.91188000000E+02 0.  0.
    9900012    2    3    3    0    0 -0.16596482073E+02  0.89160712420E+01 -0.31636074616E+02  0.54367071702E+02  0.39999971560E+02 0.  0.
        -12    1    3    3    0    0  0.16596482073E+02 -0.89160712420E+01  0.31636074616E+02  0.36820928298E+02  0.00000000000E+00 0.  1.
         11    1    4    4    0    0 -0.20723480421E+02 -0.40842876242E+01 -0.15914395375E+01  0.21181990611E+02  0.51100000000E-03 0.  1.
        -11    1    4    4    0    0  0.27847070675E+01  0.10978564475E+02 -0.27084305392E+02  0.29357163865E+02  0.51100000000E-03 0. -1.
        -12    1    4    4    0    0  0.13422912805E+01  0.20217943909E+01 -0.29603296860E+01  0.38279172262E+01  0.00000000000E+00 0.  1.
</event>
<event>
 8    1  0.3186330E-007  0.9118800E+02  0.7816164E-02  0.1184000E+00
        -11   -1    0    0    0    0  0.00000000000E+00  0.00000000000E+00  0.45593999997E+02  0.45594000000E+02  0.51100000000E-03 0. -1.
         11   -1    0    0    0    0 -0.00000000000E+00 -0.00000000000E+00 -0.45593999997E+02  0.45594000000E+02  0.51100000000E-03 0.  1.
         23    2    1    2    0    0 -0.35527136788E-14 -0.17763568394E-14  0.00000000000E+00  0.91188000000E+02  0.91188000000E+02 0.  0.
    9900012    2    3    3    0    0 -0.29540284896E+02 -0.12550007262E+02 -0.18045742625E+02  0.54367082835E+02  0.39999996938E+02 0.  0.
         12    1    3    3    0    0  0.29540284896E+02  0.12550007262E+02  0.18045742625E+02  0.36820917165E+02  0.00000000000E+00 0. -1.
         11    1    4    4    0    0 -0.66561281009E+01 -0.20903723671E+02 -0.59225090213E+01  0.22723244002E+02  0.51100000000E-03 0. -1.
        -11    1    4    4    0    0 -0.24280178657E+02  0.70003004918E+01 -0.70853121109E+01  0.26243721736E+02  0.51100000000E-03 0.  1.
        -12    1    4    4    0    0  0.13960218618E+01  0.13534159178E+01 -0.50379214926E+01  0.54001170960E+01  0.00000000000E+00 0.  1.
</event>
<event>
 8    1  0.3186330E-007  0.9118800E+02  0.7816164E-02  0.1184000E+00
        -11   -1    0    0    0    0  0.00000000000E+00  0.00000000000E+00  0.45593999997E+02  0.45594000000E+02  0.51100000000E-03 0. -1.
         11   -1    0    0    0    0 -0.00000000000E+00 -0.00000000000E+00 -0.45593999997E+02  0.45594000000E+02  0.51100000000E-03 0.  1.
         23    2    1    2    0    0  0.00000000000E+00 -0.35527136788E-14  0.00000000000E+00  0.91188000000E+02  0.91188000000E+02 0.  0.
    9900012    2    3    3    0    0  0.27441336567E+02 -0.18568282265E+02 -0.16061496061E+02  0.54367085908E+02  0.40000003944E+02 0.  0.
         12    1    3    3    0    0 -0.27441336567E+02  0.18568282265E+02  0.16061496061E+02  0.36820914092E+02  0.00000000000E+00 0. -1.
         11    1    4    4    0    0  0.31278066313E+01  0.21236565531E+00  0.75273216612E+01  0.81540692385E+01  0.51100000000E-03 0. -1.
        -11    1    4    4    0    0  0.56806685218E+01 -0.34905858425E+01 -0.20926664199E+02  0.21963138645E+02  0.51100000000E-03 0.  1.
         12    1    4    4    0    0  0.18632861414E+02 -0.15290062078E+02 -0.26621535236E+01  0.24249878024E+02  0.00000000000E+00 0. -1.
</event>
<event>
 8    1  0.3186330E-007  0.9118800E+02  0.7816164E-02  0.1184000E+00
        -11   -1    0    0    0    0  0.00000000000E+00  0.00000000000E+00  0.45593999997E+02  0.45594000000E+02  0.51100000000E-03 0. -1.
         11   -1    0    0    0    0 -0.00000000000E+00 -0.00000000000E+00 -0.45593999997E+02  0.45594000000E+02  0.51100000000E-03 0.  1.
         23    2    1    2    0    0  0.00000000000E+00  0.00000000000E+00  0.35527136788E-14  0.91188000000E+02  0.91188000000E+02 0.  0.
    9900012    2    3    3    0    0 -0.17946391792E+02  0.28724906200E+02 -0.14442527944E+02  0.54367084368E+02  0.40000000433E+02 0.  0.
         12    1    3    3    0    0  0.17946391792E+02 -0.28724906200E+02  0.14442527944E+02  0.36820915632E+02  0.00000000000E+00 0. -1.
         11    1    4    4    0    0  0.41693934916E+01  0.21736660162E+01 -0.35285934763E+01  0.58787446126E+01  0.51100000000E-03 0. -1.
        -11    1    4    4    0    0 -0.19607301814E+02  0.21954132939E+02  0.66357939176E+01  0.30173895981E+02  0.51100000000E-03 0.  1.
        -12    1    4    4    0    0 -0.25084834702E+01  0.45971072455E+01 -0.17549728385E+02  0.18314443774E+02  0.00000000000E+00 0.  1.
</event>
<event>
 8    1  0.3186330E-007  0.9118800E+02  0.7816164E-02  0.1184000E+00
        -11   -1    0    0    0    0  0.00000000000E+00  0.00000000000E+00  0.45593999997E+02  0.45594000000E+02  0.51100000000E-03 0. -1.
         11   -1    0    0    0    0 -0.00000000000E+00 -0.00000000000E+00 -0.45593999997E+02  0.45594000000E+02  0.51100000000E-03 0.  1.
         23    2    1    2    0    0  0.00000000000E+00  0.00000000000E+00  0.00000000000E+00  0.91188000000E+02  0.91188000000E+02 0.  0.
    9900012    2    3    3    0    0  0.18266021381E+02 -0.12346073853E+02  0.29490785013E+02  0.54367089129E+02  0.40000011287E+02 0.  0.
        -12    1    3    3    0    0 -0.18266021381E+02  0.12346073853E+02 -0.29490785013E+02  0.36820910871E+02  0.00000000000E+00 0.  1.
         11    1    4    4    0    0  0.18074831228E+00 -0.14944353222E+02 -0.18670995866E+01  0.15061620906E+02  0.51100000000E-03 0. -1.
        -11    1    4    4    0    0  0.36613647228E+01  0.75546154291E+01  0.99145756924E+01  0.12991405518E+02  0.51100000000E-03 0.  1.
         12    1    4    4    0    0  0.14423908346E+02 -0.49563360600E+01  0.21443308907E+02  0.26314062705E+02  0.00000000000E+00 0. -1.
</event>
<event>
 8    1  0.3186330E-007  0.9118800E+02  0.7816164E-02  0.1184000E+00
        -11   -1    0    0    0    0  0.00000000000E+00  0.00000000000E+00  0.45593999997E+02  0.45594000000E+02  0.51100000000E-03 0.  1.
         11   -1    0    0    0    0 -0.00000000000E+00 -0.00000000000E+00 -0.45593999997E+02  0.45594000000E+02  0.51100000000E-03 0. -1.
         23    2    1    2    0    0 -0.35527136788E-14  0.00000000000E+00  0.00000000000E+00  0.91188000000E+02  0.91188000000E+02 0.  0.
    9900012    2    3    3    0    0 -0.10806497183E+02 -0.34576457008E+02  0.65929836250E+01  0.54367092981E+02  0.40000020069E+02 0.  0.
         12    1    3    3    0    0  0.10806497183E+02  0.34576457008E+02 -0.65929836250E+01  0.36820907019E+02  0.00000000000E+00 0. -1.
         11    1    4    4    0    0 -0.18118647894E+02 -0.10479977059E+02 -0.30238857391E+01  0.21148503633E+02  0.51100000000E-03 0. -1.
        -11    1    4    4    0    0  0.11312057826E+01 -0.23102609518E+02  0.17948585181E+01  0.23199821344E+02  0.51100000000E-03 0.  1.
         12    1    4    4    0    0  0.61809449284E+01 -0.99387043145E+00  0.78220108460E+01  0.10018768004E+02  0.00000000000E+00 0. -1.
</event>
<event>
 8    1  0.3186330E-007  0.9118800E+02  0.7816164E-02  0.1184000E+00
        -11   -1    0    0    0    0  0.00000000000E+00  0.00000000000E+00  0.45593999997E+02  0.45594000000E+02  0.51100000000E-03 0. -1.
         11   -1    0    0    0    0 -0.00000000000E+00 -0.00000000000E+00 -0.45593999997E+02  0.45594000000E+02  0.51100000000E-03 0.  1.
         23    2    1    2    0    0  0.00000000000E+00  0.00000000000E+00  0.00000000000E+00  0.91188000000E+02  0.91188000000E+02 0.  0.
    9900012    2    3    3    0    0 -0.65397300613E+01  0.32617827124E+02  0.15782605546E+02  0.54367063654E+02  0.39999953212E+02 0.  0.
         12    1    3    3    0    0  0.65397300613E+01 -0.32617827124E+02 -0.15782605546E+02  0.36820936346E+02  0.00000000000E+00 0. -1.
         11    1    4    4    0    0  0.81491088249E+01 -0.51515970301E+01  0.40684589970E+01  0.10464190627E+02  0.51100000000E-03 0. -1.
        -11    1    4    4    0    0 -0.60313710217E+00  0.14568870131E+02  0.65950593905E+00  0.14596256356E+02  0.51100000000E-03 0.  1.
         12    1    4    4    0    0 -0.14085701784E+02  0.23200554023E+02  0.11054640610E+02  0.29306616672E+02  0.00000000000E+00 0. -1.
</event>
<event>
 8    1  0.3186330E-007  0.9118800E+02  0.7816164E-02  0.1184000E+00
        -11   -1    0    0    0    0  0.00000000000E+00  0.00000000000E+00  0.45593999997E+02  0.45594000000E+02  0.51100000000E-03 0.  1.
         11   -1    0    0    0    0 -0.00000000000E+00 -0.00000000000E+00 -0.45593999997E+02  0.45594000000E+02  0.51100000000E-03 0. -1.
         23    2    1    2    0    0  0.00000000000E+00  0.00000000000E+00  0.00000000000E+00  0.91188000000E+02  0.91188000000E+02 0.  0.
    9900012    2    3    3    0    0 -0.22695692098E+02  0.47101897212E+01  0.28609430381E+02  0.54367084289E+02  0.40000000255E+02 0.  0.
         12    1    3    3    0    0  0.22695692098E+02 -0.47101897212E+01 -0.28609430381E+02  0.36820915711E+02  0.00000000000E+00 0. -1.
         11    1    4    4    0    0  0.50773982037E+01  0.60001113351E+01  0.17349710413E+01  0.80493125997E+01  0.51100000000E-03 0. -1.
        -11    1    4    4    0    0 -0.89059805247E+01  0.44135016356E+01 -0.31279218118E+01  0.10420143037E+02  0.51100000000E-03 0.  1.
         12    1    4    4    0    0 -0.18867109777E+02 -0.57034232495E+01  0.30002381152E+02  0.35897628653E+02  0.00000000000E+00 0. -1.
</event>
<event>
 8    1  0.3186330E-007  0.9118800E+02  0.7816164E-02  0.1184000E+00
        -11   -1    0    0    0    0  0.00000000000E+00  0.00000000000E+00  0.45593999997E+02  0.45594000000E+02  0.51100000000E-03 0. -1.
         11   -1    0    0    0    0 -0.00000000000E+00 -0.00000000000E+00 -0.45593999997E+02  0.45594000000E+02  0.51100000000E-03 0.  1.
         23    2    1    2    0    0  0.00000000000E+00  0.35527136788E-14  0.44408920985E-15  0.91188000000E+02  0.91188000000E+02 0.  0.
    9900012    2    3    3    0    0 -0.31142130949E+02  0.19344696380E+02  0.34249878268E+01  0.54367080135E+02  0.39999990785E+02 0.  0.
         12    1    3    3    0    0  0.31142130949E+02 -0.19344696380E+02 -0.34249878268E+01  0.36820919865E+02  0.00000000000E+00 0. -1.
         11    1    4    4    0    0  0.28010225645E+01  0.10173021172E+02 -0.13769064613E+01  0.10641050645E+02  0.51100000000E-03 0. -1.
        -11    1    4    4    0    0 -0.98486000708E+01  0.75532370367E+01 -0.95267002065E+01  0.15646224151E+02  0.51100000000E-03 0.  1.
        -12    1    4    4    0    0 -0.24094553443E+02  0.16184381711E+01  0.14328594495E+02  0.28079805339E+02  0.00000000000E+00 0.  1.
</event>
<event>
 8    1  0.3186330E-007  0.9118800E+02  0.7816164E-02  0.1184000E+00
        -11   -1    0    0    0    0  0.00000000000E+00  0.00000000000E+00  0.45593999997E+02  0.45594000000E+02  0.51100000000E-03 0.  1.
         11   -1    0    0    0    0 -0.00000000000E+00 -0.00000000000E+00 -0.45593999997E+02  0.45594000000E+02  0.51100000000E-03 0. -1.
         23    2    1    2    0    0  0.88817841970E-15  0.00000000000E+00  0.00000000000E+00  0.91188000000E+02  0.91188000000E+02 0.  0.
    9900012    2    3    3    0    0  0.25643243496E+01 -0.26615076322E+02  0.25315218804E+02  0.54366832853E+02  0.39999427050E+02 0.  0.
         12    1    3    3    0    0 -0.25643243496E+01  0.26615076322E+02 -0.25315218804E+02  0.36821167147E+02  0.00000000000E+00 0. -1.
         11    1    4    4    0    0  0.10708243720E+02  0.29039655527E+01 -0.92279683471E+00  0.11133330758E+02  0.51100000000E-03 0. -1.
        -11    1    4    4    0    0 -0.85635918876E+01 -0.66573509462E+01  0.12534069934E+02  0.16575835937E+02  0.51100000000E-03 0.  1.
         12    1    4    4    0    0  0.41967251707E+00 -0.22861690928E+02  0.13703945705E+02  0.26657666158E+02  0.00000000000E+00 0. -1.
</event>
<event>
 8    1  0.3186330E-007  0.9118800E+02  0.7816164E-02  0.1184000E+00
        -11   -1    0    0    0    0  0.00000000000E+00  0.00000000000E+00  0.45593999997E+02  0.45594000000E+02  0.51100000000E-03 0.  1.
         11   -1    0    0    0    0 -0.00000000000E+00 -0.00000000000E+00 -0.45593999997E+02  0.45594000000E+02  0.51100000000E-03 0. -1.
         23    2    1    2    0    0  0.00000000000E+00  0.25535129566E-14  0.00000000000E+00  0.91188000000E+02  0.91188000000E+02 0.  0.
    9900012    2    3    3    0    0  0.29962498833E+02 -0.48404629616E+00  0.21396074004E+02  0.54367114351E+02  0.40000068787E+02 0.  0.
         12    1    3    3    0    0 -0.29962498833E+02  0.48404629616E+00 -0.21396074004E+02  0.36820885649E+02  0.00000000000E+00 0. -1.
         11    1    4    4    0    0  0.95109783569E+01 -0.10163027250E+02 -0.27482687374E+01  0.14187981305E+02  0.51100000000E-03 0. -1.
        -11    1    4    4    0    0  0.16593041791E+01 -0.63855556002E+01  0.17600018877E+01  0.68283392994E+01  0.51100000000E-03 0.  1.
        -12    1    4    4    0    0  0.18792216297E+02  0.16064536554E+02  0.22384340854E+02  0.33350793747E+02  0.00000000000E+00 0.  1.
</event>
<event>
 8    1  0.3186330E-007  0.9118800E+02  0.7816164E-02  0.1184000E+00
        -11   -1    0    0    0    0  0.00000000000E+00  0.00000000000E+00  0.45593999997E+02  0.45594000000E+02  0.51100000000E-03 0. -1.
         11   -1    0    0    0    0 -0.00000000000E+00 -0.00000000000E+00 -0.45593999997E+02  0.45594000000E+02  0.51100000000E-03 0.  1.
         23    2    1    2    0    0  0.00000000000E+00 -0.35527136788E-14  0.00000000000E+00  0.91188000000E+02  0.91188000000E+02 0.  0.
    9900012    2    3    3    0    0  0.23393926076E+02  0.26890554215E+02 -0.92413312557E+01  0.54367083572E+02  0.39999998618E+02 0.  0.
         12    1    3    3    0    0 -0.23393926076E+02 -0.26890554215E+02  0.92413312557E+01  0.36820916428E+02  0.00000000000E+00 0. -1.
         11    1    4    4    0    0 -0.29563942387E+01  0.11796522432E+02 -0.85433893754E+01  0.14862291569E+02  0.51100000000E-03 0. -1.
        -11    1    4    4    0    0  0.15054993978E+02  0.18421398581E+02 -0.86294220529E+01  0.25307463219E+02  0.51100000000E-03 0.  1.
        -12    1    4    4    0    0  0.11295326337E+02 -0.33273667983E+01  0.79314801725E+01  0.14197328784E+02  0.00000000000E+00 0.  1.
</event>
<event>
 8    1  0.3186330E-007  0.9118800E+02  0.7816164E-02  0.1184000E+00
        -11   -1    0    0    0    0  0.00000000000E+00  0.00000000000E+00  0.45593999997E+02  0.45594000000E+02  0.51100000000E-03 0.  1.
         11   -1    0    0    0    0 -0.00000000000E+00 -0.00000000000E+00 -0.45593999997E+02  0.45594000000E+02  0.51100000000E-03 0. -1.
         23    2    1    2    0    0  0.00000000000E+00 -0.17763568394E-14  0.17763568394E-14  0.91188000000E+02  0.91188000000E+02 0.  0.
    9900012    2    3    3    0    0 -0.31955931858E+02  0.14313189173E+02  0.11389984064E+02  0.54367072496E+02  0.39999973370E+02 0.  0.
         12    1    3    3    0    0  0.31955931858E+02 -0.14313189173E+02 -0.11389984064E+02  0.36820927504E+02  0.00000000000E+00 0. -1.
         11    1    4    4    0    0  0.58445775572E+01  0.85398617330E+01 -0.19835226524E+01  0.10536730404E+02  0.51100000000E-03 0. -1.
        -11    1    4    4    0    0 -0.20022219537E+02  0.29568948901E+01  0.15788279584E+02  0.25669091823E+02  0.51100000000E-03 0.  1.
         12    1    4    4    0    0 -0.17778289879E+02  0.28164325502E+01 -0.24147728669E+01  0.18161250269E+02  0.00000000000E+00 0. -1.
</event>
<event>
 8    1  0.3186330E-007  0.9118800E+02  0.7816164E-02  0.1184000E+00
        -11   -1    0    0    0    0  0.00000000000E+00  0.00000000000E+00  0.45593999997E+02  0.45594000000E+02  0.51100000000E-03 0.  1.
         11   -1    0    0    0    0 -0.00000000000E+00 -0.00000000000E+00 -0.45593999997E+02  0.45594000000E+02  0.51100000000E-03 0. -1.
         23    2    1    2    0    0  0.35527136788E-14 -0.88817841970E-15 -0.71054273576E-14  0.91188000000E+02  0.91188000000E+02 0.  0.
    9900012    2    3    3    0    0 -0.23848824240E+02  0.34433451418E+01  0.27841598928E+02  0.54367113613E+02  0.40000067104E+02 0.  0.
         12    1    3    3    0    0  0.23848824240E+02 -0.34433451418E+01 -0.27841598928E+02  0.36820886387E+02  0.00000000000E+00 0. -1.
         11    1    4    4    0    0 -0.14787455805E+02  0.11625004786E+02  0.22581441810E+02  0.29389302474E+02  0.51100000000E-03 0.  1.
        -11    1    4    4    0    0 -0.33132284905E-01  0.62534014254E+01 -0.18582856090E+01  0.65237529691E+01  0.51100000000E-03 0. -1.
         12    1    4    4    0    0 -0.90282361509E+01 -0.14435061070E+02  0.71184427277E+01  0.18454058170E+02  0.00000000000E+00 0. -1.
</event>
<event>
 8    1  0.3186330E-007  0.9118800E+02  0.7816164E-02  0.1184000E+00
        -11   -1    0    0    0    0  0.00000000000E+00  0.00000000000E+00  0.45593999997E+02  0.45594000000E+02  0.51100000000E-03 0.  1.
         11   -1    0    0    0    0 -0.00000000000E+00 -0.00000000000E+00 -0.45593999997E+02  0.45594000000E+02  0.51100000000E-03 0. -1.
         23    2    1    2    0    0  0.00000000000E+00  0.00000000000E+00  0.00000000000E+00  0.91188000000E+02  0.91188000000E+02 0.  0.
    9900012    2    3    3    0    0 -0.14894273008E+02 -0.14063445483E+02 -0.30596713961E+02  0.54367098700E+02  0.40000033106E+02 0.  0.
        -12    1    3    3    0    0  0.14894273008E+02  0.14063445483E+02  0.30596713961E+02  0.36820901300E+02  0.00000000000E+00 0.  1.
         11    1    4    4    0    0  0.49166976620E+01  0.18992660867E+01  0.38689546683E+01  0.65383436782E+01  0.51100000000E-03 0.  1.
        -11    1    4    4    0    0 -0.11513014693E+02 -0.13228914210E+02 -0.34924149828E+02  0.39080045035E+02  0.51100000000E-03 0. -1.
         12    1    4    4    0    0 -0.82979559777E+01 -0.27337973601E+01  0.45848119857E+00  0.87487099863E+01  0.00000000000E+00 0. -1.
</event>
<event>
 8    1  0.3186330E-007  0.9118800E+02  0.7816164E-02  0.1184000E+00
        -11   -1    0    0    0    0  0.00000000000E+00  0.00000000000E+00  0.45593999997E+02  0.45594000000E+02  0.51100000000E-03 0.  1.
         11   -1    0    0    0    0 -0.00000000000E+00 -0.00000000000E+00 -0.45593999997E+02  0.45594000000E+02  0.51100000000E-03 0. -1.
         23    2    1    2    0    0  0.71054273576E-14  0.00000000000E+00 -0.88817841970E-15  0.91188000000E+02  0.91188000000E+02 0.  0.
    9900012    2    3    3    0    0 -0.36065913662E+02  0.45564961431E+01  0.58535703886E+01  0.54367135376E+02  0.40000116716E+02 0.  0.
         12    1    3    3    0    0  0.36065913662E+02 -0.45564961431E+01 -0.58535703886E+01  0.36820864624E+02  0.00000000000E+00 0. -1.
         11    1    4    4    0    0 -0.13223076570E+02 -0.33168960660E+01 -0.40045381320E+01  0.14208725467E+02  0.51100000000E-03 0. -1.
        -11    1    4    4    0    0 -0.33574585652E+01 -0.11181938373E+02  0.28714065571E+01  0.12023029971E+02  0.51100000000E-03 0.  1.
        -12    1    4    4    0    0 -0.19485378527E+02  0.19055330582E+02  0.69867019634E+01  0.28135379938E+02  0.00000000000E+00 0.  1.
</event>
<event>
 8    1  0.3186330E-007  0.9118800E+02  0.7816164E-02  0.1184000E+00
        -11   -1    0    0    0    0  0.00000000000E+00  0.00000000000E+00  0.45593999997E+02  0.45594000000E+02  0.51100000000E-03 0.  1.
         11   -1    0    0    0    0 -0.00000000000E+00 -0.00000000000E+00 -0.45593999997E+02  0.45594000000E+02  0.51100000000E-03 0. -1.
         23    2    1    2    0    0 -0.17763568394E-14  0.00000000000E+00 -0.35527136788E-14  0.91188000000E+02  0.91188000000E+02 0.  0.
    9900012    2    3    3    0    0 -0.15424688855E+02 -0.24897798060E+02  0.22315145318E+02  0.54366985822E+02  0.39999775778E+02 0.  0.
         12    1    3    3    0    0  0.15424688855E+02  0.24897798060E+02 -0.22315145318E+02  0.36821014178E+02  0.00000000000E+00 0. -1.
         11    1    4    4    0    0 -0.10854311926E+01 -0.96059641712E+01 -0.77736411908E+01  0.12404926689E+02  0.51100000000E-03 0. -1.
        -11    1    4    4    0    0 -0.74290933880E+01 -0.18067343987E+02  0.28154860893E+02  0.34268302256E+02  0.51100000000E-03 0.  1.
        -12    1    4    4    0    0 -0.69101642742E+01  0.27755100981E+01  0.19339256156E+01  0.76937568773E+01  0.00000000000E+00 0.  1.
</event>
<event>
 8    1  0.3186330E-007  0.9118800E+02  0.7816164E-02  0.1184000E+00
        -11   -1    0    0    0    0  0.00000000000E+00  0.00000000000E+00  0.45593999997E+02  0.45594000000E+02  0.51100000000E-03 0.  1.
         11   -1    0    0    0    0 -0.00000000000E+00 -0.00000000000E+00 -0.45593999997E+02  0.45594000000E+02  0.51100000000E-03 0. -1.
         23    2    1    2    0    0  0.00000000000E+00  0.17763568394E-14  0.00000000000E+00  0.91188000000E+02  0.91188000000E+02 0.  0.
    9900012    2    3    3    0    0  0.21906640267E+02  0.13035376866E+02 -0.26569908534E+02  0.54367055181E+02  0.39999933896E+02 0.  0.
        -12    1    3    3    0    0 -0.21906640267E+02 -0.13035376866E+02  0.26569908534E+02  0.36820944819E+02  0.00000000000E+00 0.  1.
         11    1    4    4    0    0  0.16089118828E+02 -0.99183781010E+01 -0.27770634817E+01  0.19103561204E+02  0.51100000000E-03 0.  1.
        -11    1    4    4    0    0  0.82230786452E+01  0.10592755050E+02 -0.13032267377E+02  0.18699344245E+02  0.51100000000E-03 0. -1.
        -12    1    4    4    0    0 -0.24055572062E+01  0.12360999917E+02 -0.10760577675E+02  0.16564149732E+02  0.00000000000E+00 0.  1.
</event>
<event>
 8    1  0.3186330E-007  0.9118800E+02  0.7816164E-02  0.1184000E+00
        -11   -1    0    0    0    0  0.00000000000E+00  0.00000000000E+00  0.45593999997E+02  0.45594000000E+02  0.51100000000E-03 0.  1.
         11   -1    0    0    0    0 -0.00000000000E+00 -0.00000000000E+00 -0.45593999997E+02  0.45594000000E+02  0.51100000000E-03 0. -1.
         23    2    1    2    0    0 -0.17763568394E-14  0.00000000000E+00 -0.17763568394E-14  0.91188000000E+02  0.91188000000E+02 0.  0.
    9900012    2    3    3    0    0 -0.11506497458E+02 -0.32558803426E+02 -0.12779087711E+02  0.54367078678E+02  0.39999987462E+02 0.  0.
         12    1    3    3    0    0  0.11506497458E+02  0.32558803426E+02  0.12779087711E+02  0.36820921322E+02  0.00000000000E+00 0. -1.
         11    1    4    4    0    0 -0.11051944548E+02 -0.80989775755E+01  0.14436176773E+01  0.13777624916E+02  0.51100000000E-03 0. -1.
        -11    1    4    4    0    0 -0.90452136795E+01 -0.31301923078E+01  0.48355005130E+01  0.10723621583E+02  0.51100000000E-03 0.  1.
         12    1    4    4    0    0  0.85906607700E+01 -0.21329633543E+02 -0.19058205902E+02  0.29865832179E+02  0.00000000000E+00 0. -1.
</event>
<event>
 8    1  0.3186330E-007  0.9118800E+02  0.7816164E-02  0.1184000E+00
        -11   -1    0    0    0    0  0.00000000000E+00  0.00000000000E+00  0.45593999997E+02  0.45594000000E+02  0.51100000000E-03 0. -1.
         11   -1    0    0    0    0 -0.00000000000E+00 -0.00000000000E+00 -0.45593999997E+02  0.45594000000E+02  0.51100000000E-03 0.  1.
         23    2    1    2    0    0  0.00000000000E+00 -0.17763568394E-14 -0.35527136788E-14  0.91188000000E+02  0.91188000000E+02 0.  0.
    9900012    2    3    3    0    0  0.23440810101E+02 -0.15637062513E+02  0.23702102296E+02  0.54367096216E+02  0.40000027443E+02 0.  0.
        -12    1    3    3    0    0 -0.23440810101E+02  0.15637062513E+02 -0.23702102296E+02  0.36820903784E+02  0.00000000000E+00 0.  1.
         11    1    4    4    0    0 -0.26553139084E+01  0.50205161772E+01  0.19689696793E+02  0.20492448236E+02  0.51100000000E-03 0. -1.
        -11    1    4    4    0    0  0.90309157313E+01 -0.10150959528E+02  0.20105881409E+01  0.13734696328E+02  0.51100000000E-03 0.  1.
        -12    1    4    4    0    0  0.17065208278E+02 -0.10506619162E+02  0.20018173620E+01  0.20139951652E+02  0.00000000000E+00 0.  1.
</event>
<event>
 8    1  0.3186330E-007  0.9118800E+02  0.7816164E-02  0.1184000E+00
        -11   -1    0    0    0    0  0.00000000000E+00  0.00000000000E+00  0.45593999997E+02  0.45594000000E+02  0.51100000000E-03 0. -1.
         11   -1    0    0    0    0 -0.00000000000E+00 -0.00000000000E+00 -0.45593999997E+02  0.45594000000E+02  0.51100000000E-03 0.  1.
         23    2    1    2    0    0  0.00000000000E+00  0.00000000000E+00  0.35527136788E-14  0.91188000000E+02  0.91188000000E+02 0.  0.
    9900012    2    3    3    0    0 -0.28299864932E+01 -0.20094418079E+02 -0.30724355569E+02  0.54367075424E+02  0.39999980045E+02 0.  0.
        -12    1    3    3    0    0  0.28299864932E+01  0.20094418079E+02  0.30724355569E+02  0.36820924576E+02  0.00000000000E+00 0.  1.
         11    1    4    4    0    0  0.59643025896E+01 -0.47719471387E+01  0.58947428315E+01  0.96484391580E+01  0.51100000000E-03 0. -1.
        -11    1    4    4    0    0  0.96807544931E+00 -0.15852572441E+02 -0.23212710367E+02  0.28125987021E+02  0.51100000000E-03 0.  1.
        -12    1    4    4    0    0 -0.97623645321E+01  0.53010150103E+00 -0.13406388033E+02  0.16592649245E+02  0.00000000000E+00 0.  1.
</event>
<event>
 8    1  0.3186330E-007  0.9118800E+02  0.7816164E-02  0.1184000E+00
        -11   -1    0    0    0    0  0.00000000000E+00  0.00000000000E+00  0.45593999997E+02  0.45594000000E+02  0.51100000000E-03 0. -1.
         11   -1    0    0    0    0 -0.00000000000E+00 -0.00000000000E+00 -0.45593999997E+02  0.45594000000E+02  0.51100000000E-03 0.  1.
         23    2    1    2    0    0  0.00000000000E+00 -0.35527136788E-14  0.00000000000E+00  0.91188000000E+02  0.91188000000E+02 0.  0.
    9900012    2    3    3    0    0 -0.28712613319E+02 -0.22373734942E+02 -0.55480168392E+01  0.54367100096E+02  0.40000036289E+02 0.  0.
         12    1    3    3    0    0  0.28712613319E+02  0.22373734942E+02  0.55480168392E+01  0.36820899904E+02  0.00000000000E+00 0. -1.
         11    1    4    4    0    0 -0.42879362622E+01  0.74854540080E+01  0.10417714541E+01  0.86892869166E+01  0.51100000000E-03 0. -1.
        -11    1    4    4    0    0 -0.14548011354E+02 -0.31658203771E+02 -0.73577506509E+01  0.35609310514E+02  0.51100000000E-03 0.  1.
        -12    1    4    4    0    0 -0.98766657036E+01  0.17990148208E+01  0.76796235767E+00  0.10068502666E+02  0.00000000000E+00 0.  1.
</event>
<event>
 8    1  0.3186330E-007  0.9118800E+02  0.7816164E-02  0.1184000E+00
        -11   -1    0    0    0    0  0.00000000000E+00  0.00000000000E+00  0.45593999997E+02  0.45594000000E+02  0.51100000000E-03 0. -1.
         11   -1    0    0    0    0 -0.00000000000E+00 -0.00000000000E+00 -0.45593999997E+02  0.45594000000E+02  0.51100000000E-03 0.  1.
         23    2    1    2    0    0  0.00000000000E+00  0.44408920985E-15  0.00000000000E+00  0.91188000000E+02  0.91188000000E+02 0.  0.
    9900012    2    3    3    0    0  0.10497317680E+02  0.27225571670E+01 -0.35187688119E+02  0.54367090300E+02  0.40000013956E+02 0.  0.
         12    1    3    3    0    0 -0.10497317680E+02 -0.27225571670E+01  0.35187688119E+02  0.36820909700E+02  0.00000000000E+00 0. -1.
         11    1    4    4    0    0  0.19048444603E+02 -0.97261229744E+01 -0.26621522368E+02  0.34148882314E+02  0.51100000000E-03 0. -1.
        -11    1    4    4    0    0 -0.58155075883E+01  0.12691954642E+02 -0.34023655293E+01  0.14369479204E+02  0.51100000000E-03 0.  1.
        -12    1    4    4    0    0 -0.27356193339E+01 -0.24327450083E+00 -0.51638002219E+01  0.58487287811E+01  0.00000000000E+00 0.  1.
</event>
<event>
 8    1  0.3186330E-007  0.9118800E+02  0.7816164E-02  0.1184000E+00
        -11   -1    0    0    0    0  0.00000000000E+00  0.00000000000E+00  0.45593999997E+02  0.45594000000E+02  0.51100000000E-03 0.  1.
         11   -1    0    0    0    0 -0.00000000000E+00 -0.00000000000E+00 -0.45593999997E+02  0.45594000000E+02  0.51100000000E-03 0. -1.
         23    2    1    2    0    0 -0.71054273576E-14  0.00000000000E+00  0.71054273576E-14  0.91188000000E+02  0.91188000000E+02 0.  0.
    9900012    2    3    3    0    0  0.30997884083E+02  0.83334758658E+01 -0.18040610119E+02  0.54367092202E+02  0.40000018293E+02 0.  0.
        -12    1    3    3    0    0 -0.30997884083E+02 -0.83334758658E+01  0.18040610119E+02  0.36820907798E+02  0.00000000000E+00 0.  1.
         11    1    4    4    0    0  0.14847338113E+02  0.15055477760E+02 -0.23345619018E+02  0.31498075929E+02  0.51100000000E-03 0.  1.
        -11    1    4    4    0    0  0.11692257569E+02  0.81927564175E+00  0.73999900563E+01  0.13861455650E+02  0.51100000000E-03 0. -1.
         12    1    4    4    0    0  0.44582884004E+01 -0.75412775358E+01 -0.20949811572E+01  0.90075606233E+01  0.00000000000E+00 0. -1.
</event>
<event>
 8    1  0.3186330E-007  0.9118800E+02  0.7816164E-02  0.1184000E+00
        -11   -1    0    0    0    0  0.00000000000E+00  0.00000000000E+00  0.45593999997E+02  0.45594000000E+02  0.51100000000E-03 0.  1.
         11   -1    0    0    0    0 -0.00000000000E+00 -0.00000000000E+00 -0.45593999997E+02  0.45594000000E+02  0.51100000000E-03 0. -1.
         23    2    1    2    0    0  0.44408920985E-15  0.35527136788E-14  0.00000000000E+00  0.91188000000E+02  0.91188000000E+02 0.  0.
    9900012    2    3    3    0    0 -0.67518017077E+00 -0.16763784356E+02  0.32776510438E+02  0.54367082430E+02  0.39999996016E+02 0.  0.
         12    1    3    3    0    0  0.67518017077E+00  0.16763784356E+02 -0.32776510438E+02  0.36820917570E+02  0.00000000000E+00 0. -1.
         11    1    4    4    0    0 -0.13049792405E+02  0.50056413783E-03  0.50221508766E+01  0.13982813799E+02  0.51100000000E-03 0. -1.
        -11    1    4    4    0    0  0.44326254646E+01  0.44428235461E+01  0.34365927133E+01  0.71552092429E+01  0.51100000000E-03 0.  1.
         12    1    4    4    0    0  0.79419867693E+01 -0.21207108466E+02  0.24317766848E+02  0.33229059388E+02  0.00000000000E+00 0. -1.
</event>
<event>
 8    1  0.3186330E-007  0.9118800E+02  0.7816164E-02  0.1184000E+00
        -11   -1    0    0    0    0  0.00000000000E+00  0.00000000000E+00  0.45593999997E+02  0.45594000000E+02  0.51100000000E-03 0.  1.
         11   -1    0    0    0    0 -0.00000000000E+00 -0.00000000000E+00 -0.45593999997E+02  0.45594000000E+02  0.51100000000E-03 0. -1.
         23    2    1    2    0    0  0.13322676296E-14  0.00000000000E+00  0.00000000000E+00  0.91188000000E+02  0.91188000000E+02 0.  0.
    9900012    2    3    3    0    0  0.29036078612E+01 -0.31353530834E+02  0.19086630184E+02  0.54367159622E+02  0.40000171990E+02 0.  0.
         12    1    3    3    0    0 -0.29036078612E+01  0.31353530834E+02 -0.19086630184E+02  0.36820840378E+02  0.00000000000E+00 0. -1.
         11    1    4    4    0    0 -0.34162401467E+01 -0.18430035591E+02  0.15874699810E+02  0.24563041402E+02  0.51100000000E-03 0. -1.
        -11    1    4    4    0    0 -0.34693511480E+01 -0.87541301440E+01 -0.93987217636E+01  0.13304403896E+02  0.51100000000E-03 0.  1.
         12    1    4    4    0    0  0.97891991559E+01 -0.41693650993E+01  0.12610652137E+02  0.16499714324E+02  0.00000000000E+00 0. -1.
</event>
<event>
 8    1  0.3186330E-007  0.9118800E+02  0.7816164E-02  0.1184000E+00
        -11   -1    0    0    0    0  0.00000000000E+00  0.00000000000E+00  0.45593999997E+02  0.45594000000E+02  0.51100000000E-03 0. -1.
         11   -1    0    0    0    0 -0.00000000000E+00 -0.00000000000E+00 -0.45593999997E+02  0.45594000000E+02  0.51100000000E-03 0.  1.
         23    2    1    2    0    0  0.00000000000E+00  0.00000000000E+00 -0.35527136788E-14  0.91188000000E+02  0.91188000000E+02 0.  0.
    9900012    2    3    3    0    0  0.19657297801E+02 -0.11245680051E+02  0.29032821420E+02  0.54367090230E+02  0.40000013798E+02 0.  0.
        -12    1    3    3    0    0 -0.19657297801E+02  0.11245680051E+02 -0.29032821420E+02  0.36820909770E+02  0.00000000000E+00 0.  1.
         11    1    4    4    0    0  0.79841796097E+01  0.67654240002E+01  0.12488175412E+02  0.16293330271E+02  0.51100000000E-03 0.  1.
        -11    1    4    4    0    0  0.42764108202E+01 -0.61632741376E+01 -0.72822319428E+01  0.10454881153E+02  0.51100000000E-03 0. -1.
         12    1    4    4    0    0  0.73967073715E+01 -0.11847829913E+02  0.23826877951E+02  0.27618878806E+02  0.00000000000E+00 0. -1.
</event>
<event>
 8    1  0.3186330E-007  0.9118800E+02  0.7816164E-02  0.1184000E+00
        -11   -1    0    0    0    0  0.00000000000E+00  0.00000000000E+00  0.45593999997E+02  0.45594000000E+02  0.51100000000E-03 0.  1.
         11   -1    0    0    0    0 -0.00000000000E+00 -0.00000000000E+00 -0.45593999997E+02  0.45594000000E+02  0.51100000000E-03 0. -1.
         23    2    1    2    0    0  0.00000000000E+00  0.88817841970E-15  0.35527136788E-14  0.91188000000E+02  0.91188000000E+02 0.  0.
    9900012    2    3    3    0    0 -0.23128435914E+02 -0.30848083387E+01  0.28484009188E+02  0.54367090590E+02  0.40000014619E+02 0.  0.
         12    1    3    3    0    0  0.23128435914E+02  0.30848083387E+01 -0.28484009188E+02  0.36820909410E+02  0.00000000000E+00 0. -1.
         11    1    4    4    0    0 -0.14215757367E+02  0.22363487312E+01  0.14386639805E+02  0.20348572881E+02  0.51100000000E-03 0. -1.
        -11    1    4    4    0    0 -0.98557481863E+01 -0.13260482257E+02  0.18571100921E+02  0.24856829075E+02  0.51100000000E-03 0.  1.
         12    1    4    4    0    0  0.94306963915E+00  0.79393251868E+01 -0.44737315370E+01  0.91616886343E+01  0.00000000000E+00 0. -1.
</event>
<event>
 8    1  0.3186330E-007  0.9118800E+02  0.7816164E-02  0.1184000E+00
        -11   -1    0    0    0    0  0.00000000000E+00  0.00000000000E+00  0.45593999997E+02  0.45594000000E+02  0.51100000000E-03 0. -1.
         11   -1    0    0    0    0 -0.00000000000E+00 -0.00000000000E+00 -0.45593999997E+02  0.45594000000E+02  0.51100000000E-03 0.  1.
         23    2    1    2    0    0 -0.35527136788E-14  0.00000000000E+00  0.00000000000E+00  0.91188000000E+02  0.91188000000E+02 0.  0.
    9900012    2    3    3    0    0  0.25846458892E+02 -0.94830863172E+01  0.24450181160E+02  0.54367085806E+02  0.40000003712E+02 0.  0.
        -12    1    3    3    0    0 -0.25846458892E+02  0.94830863172E+01 -0.24450181160E+02  0.36820914194E+02  0.00000000000E+00 0.  1.
         11    1    4    4    0    0  0.68058329121E+01  0.38995791053E+01  0.47199554091E+01  0.91544556447E+01  0.51100000000E-03 0. -1.
        -11    1    4    4    0    0  0.15967513677E+02 -0.21911149799E+02  0.23022356782E+02  0.35568088093E+02  0.51100000000E-03 0.  1.
        -12    1    4    4    0    0  0.30731123025E+01  0.85284843764E+01 -0.32921310311E+01  0.96445420684E+01  0.00000000000E+00 0.  1.
</event>
<event>
 8    1  0.3186330E-007  0.9118800E+02  0.7816164E-02  0.1184000E+00
        -11   -1    0    0    0    0  0.00000000000E+00  0.00000000000E+00  0.45593999997E+02  0.45594000000E+02  0.51100000000E-03 0.  1.
         11   -1    0    0    0    0 -0.00000000000E+00 -0.00000000000E+00 -0.45593999997E+02  0.45594000000E+02  0.51100000000E-03 0. -1.
         23    2    1    2    0    0  0.00000000000E+00  0.00000000000E+00  0.00000000000E+00  0.91188000000E+02  0.91188000000E+02 0.  0.
    9900012    2    3    3    0    0  0.16275440813E+02  0.15897380715E+02  0.28951055661E+02  0.54367077807E+02  0.39999985477E+02 0.  0.
         12    1    3    3    0    0 -0.16275440813E+02 -0.15897380715E+02 -0.28951055661E+02  0.36820922193E+02  0.00000000000E+00 0. -1.
         11    1    4    4    0    0  0.13907417247E+02 -0.77432092982E+01  0.15398675327E+02  0.22147070840E+02  0.51100000000E-03 0. -1.
        -11    1    4    4    0    0 -0.12654023992E+01  0.19930767521E+02  0.26523395974E+01  0.20146256298E+02  0.51100000000E-03 0.  1.
         12    1    4    4    0    0  0.36334259658E+01  0.37098224926E+01  0.10900040736E+02  0.12073750669E+02  0.00000000000E+00 0. -1.
</event>
<event>
 8    1  0.3186330E-007  0.9118800E+02  0.7816164E-02  0.1184000E+00
        -11   -1    0    0    0    0  0.00000000000E+00  0.00000000000E+00  0.45593999997E+02  0.45594000000E+02  0.51100000000E-03 0.  1.
         11   -1    0    0    0    0 -0.00000000000E+00 -0.00000000000E+00 -0.45593999997E+02  0.45594000000E+02  0.51100000000E-03 0. -1.
         23    2    1    2    0    0  0.35527136788E-14 -0.35527136788E-14  0.17763568394E-14  0.91188000000E+02  0.91188000000E+02 0.  0.
    9900012    2    3    3    0    0  0.28891721262E+02 -0.21898552213E+02  0.64420802196E+01  0.54367101803E+02  0.40000040179E+02 0.  0.
        -12    1    3    3    0    0 -0.28891721262E+02  0.21898552213E+02 -0.64420802196E+01  0.36820898197E+02  0.00000000000E+00 0.  1.
         11    1    4    4    0    0  0.16944265013E+02  0.81242208393E+01 -0.36468294938E+01  0.19141850660E+02  0.51100000000E-03 0. -1.
        -11    1    4    4    0    0  0.80597753847E+01 -0.25979241845E+02  0.11353581009E+02  0.29475155437E+02  0.51100000000E-03 0.  1.
         12    1    4    4    0    0  0.38876808640E+01 -0.40435312080E+01 -0.12646712951E+01  0.57500957049E+01  0.00000000000E+00 0. -1.
</event>
<event>
 8    1  0.3186330E-007  0.9118800E+02  0.7816164E-02  0.1184000E+00
        -11   -1    0    0    0    0  0.00000000000E+00  0.00000000000E+00  0.45593999997E+02  0.45594000000E+02  0.51100000000E-03 0.  1.
         11   -1    0    0    0    0 -0.00000000000E+00 -0.00000000000E+00 -0.45593999997E+02  0.45594000000E+02  0.51100000000E-03 0. -1.
         23    2    1    2    0    0  0.00000000000E+00  0.35527136788E-14  0.00000000000E+00  0.91188000000E+02  0.91188000000E+02 0.  0.
    9900012    2    3    3    0    0  0.37766202713E+01 -0.17164935889E+02 -0.32355556367E+02  0.54367083220E+02  0.39999997816E+02 0.  0.
        -12    1    3    3    0    0 -0.37766202713E+01  0.17164935889E+02  0.32355556367E+02  0.36820916780E+02  0.00000000000E+00 0.  1.
         11    1    4    4    0    0  0.43586249710E+01 -0.13810135749E+02 -0.50771512541E+01  0.15345843938E+02  0.51100000000E-03 0. -1.
        -11    1    4    4    0    0 -0.21493560362E+01 -0.13079274760E+02 -0.25874223431E+02  0.29071680344E+02  0.51100000000E-03 0.  1.
        -12    1    4    4    0    0  0.15673513364E+01  0.97244746203E+01 -0.14041816819E+01  0.99495589374E+01  0.00000000000E+00 0.  1.
</event>
<event>
 8    1  0.3186330E-007  0.9118800E+02  0.7816164E-02  0.1184000E+00
        -11   -1    0    0    0    0  0.00000000000E+00  0.00000000000E+00  0.45593999997E+02  0.45594000000E+02  0.51100000000E-03 0.  1.
         11   -1    0    0    0    0 -0.00000000000E+00 -0.00000000000E+00 -0.45593999997E+02  0.45594000000E+02  0.51100000000E-03 0. -1.
         23    2    1    2    0    0  0.00000000000E+00  0.00000000000E+00  0.35527136788E-14  0.91188000000E+02  0.91188000000E+02 0.  0.
    9900012    2    3    3    0    0  0.91540557139E+01  0.34063825891E+02 -0.10566008092E+02  0.54367061700E+02  0.39999948757E+02 0.  0.
        -12    1    3    3    0    0 -0.91540557139E+01 -0.34063825891E+02  0.10566008092E+02  0.36820938300E+02  0.00000000000E+00 0.  1.
         11    1    4    4    0    0  0.17413015653E+02  0.19863260202E+02 -0.15943799505E+01  0.26463262604E+02  0.51100000000E-03 0. -1.
        -11    1    4    4    0    0 -0.22947654070E+01 -0.45445951922E+01 -0.62251552348E+01  0.80418811041E+01  0.51100000000E-03 0.  1.
        -12    1    4    4    0    0 -0.59641945318E+01  0.18745160881E+02 -0.27464729063E+01  0.19861917992E+02  0.00000000000E+00 0.  1.
</event>
<event>
 8    1  0.3186330E-007  0.9118800E+02  0.7816164E-02  0.1184000E+00
        -11   -1    0    0    0    0  0.00000000000E+00  0.00000000000E+00  0.45593999997E+02  0.45594000000E+02  0.51100000000E-03 0.  1.
         11   -1    0    0    0    0 -0.00000000000E+00 -0.00000000000E+00 -0.45593999997E+02  0.45594000000E+02  0.51100000000E-03 0. -1.
         23    2    1    2    0    0  0.00000000000E+00  0.17763568394E-14 -0.88817841970E-15  0.91188000000E+02  0.91188000000E+02 0.  0.
    9900012    2    3    3    0    0 -0.32641306240E+02 -0.15784272219E+02  0.64172938454E+01  0.54367084981E+02  0.40000001832E+02 0.  0.
        -12    1    3    3    0    0  0.32641306240E+02  0.15784272219E+02 -0.64172938454E+01  0.36820915019E+02  0.00000000000E+00 0.  1.
         11    1    4    4    0    0  0.60567610282E+01 -0.59699649953E+01 -0.14716613238E+01  0.86307950682E+01  0.51100000000E-03 0. -1.
        -11    1    4    4    0    0 -0.22724933801E+02  0.34871645232E+01  0.95245591649E+01  0.24885742107E+02  0.51100000000E-03 0.  1.
        -12    1    4    4    0    0 -0.15973133467E+02 -0.13301471747E+02 -0.16356039957E+01  0.20850547806E+02  0.00000000000E+00 0.  1.
</event>
<event>
 8    1  0.3186330E-007  0.9118800E+02  0.7816164E-02  0.1184000E+00
        -11   -1    0    0    0    0  0.00000000000E+00  0.00000000000E+00  0.45593999997E+02  0.45594000000E+02  0.51100000000E-03 0.  1.
         11   -1    0    0    0    0 -0.00000000000E+00 -0.00000000000E+00 -0.45593999997E+02  0.45594000000E+02  0.51100000000E-03 0. -1.
         23    2    1    2    0    0  0.22204460493E-15  0.00000000000E+00  0.00000000000E+00  0.91188000000E+02  0.91188000000E+02 0.  0.
    9900012    2    3    3    0    0 -0.70090490521E+00  0.33783621136E+02  0.14627208016E+02  0.54367088291E+02  0.40000009376E+02 0.  0.
        -12    1    3    3    0    0  0.70090490521E+00 -0.33783621136E+02 -0.14627208016E+02  0.36820911709E+02  0.00000000000E+00 0.  1.
         11    1    4    4    0    0  0.55056325337E+01  0.30597517536E+02  0.14430916316E+02  0.34274938584E+02  0.51100000000E-03 0. -1.
        -11    1    4    4    0    0  0.36215002150E+00 -0.11372261838E+01  0.85421625333E+01  0.86251363490E+01  0.51100000000E-03 0.  1.
        -12    1    4    4    0    0 -0.65686874604E+01  0.43233297842E+01 -0.83458708336E+01  0.11467013358E+02  0.00000000000E+00 0.  1.
</event>
<event>
 8    1  0.3186330E-007  0.9118800E+02  0.7816164E-02  0.1184000E+00
        -11   -1    0    0    0    0  0.00000000000E+00  0.00000000000E+00  0.45593999997E+02  0.45594000000E+02  0.51100000000E-03 0.  1.
         11   -1    0    0    0    0 -0.00000000000E+00 -0.00000000000E+00 -0.45593999997E+02  0.45594000000E+02  0.51100000000E-03 0. -1.
         23    2    1    2    0    0  0.00000000000E+00  0.00000000000E+00 -0.17763568394E-14  0.91188000000E+02  0.91188000000E+02 0.  0.
    9900012    2    3    3    0    0  0.25686627097E+02  0.22124554338E+02  0.14369467148E+02  0.54367077926E+02  0.39999985747E+02 0.  0.
         12    1    3    3    0    0 -0.25686627097E+02 -0.22124554338E+02 -0.14369467148E+02  0.36820922074E+02  0.00000000000E+00 0. -1.
         11    1    4    4    0    0  0.56475476970E+01 -0.61853673860E+01  0.17638999341E+02  0.19526593730E+02  0.51100000000E-03 0.  1.
        -11    1    4    4    0    0  0.11616403337E+02  0.16398345073E+02 -0.20882016042E+01  0.20204136552E+02  0.51100000000E-03 0. -1.
        -12    1    4    4    0    0  0.84226760627E+01  0.11911576652E+02 -0.11813305884E+01  0.14636347644E+02  0.00000000000E+00 0.  1.
</event>
<event>
 8    1  0.3186330E-007  0.9118800E+02  0.7816164E-02  0.1184000E+00
        -11   -1    0    0    0    0  0.00000000000E+00  0.00000000000E+00  0.45593999997E+02  0.45594000000E+02  0.51100000000E-03 0. -1.
         11   -1    0    0    0    0 -0.00000000000E+00 -0.00000000000E+00 -0.45593999997E+02  0.45594000000E+02  0.51100000000E-03 0.  1.
         23    2    1    2    0    0  0.00000000000E+00  0.00000000000E+00 -0.88817841970E-15  0.91188000000E+02  0.91188000000E+02 0.  0.
    9900012    2    3    3    0    0 -0.35519289982E+02  0.87047880863E+01  0.42879804786E+01  0.54367081040E+02  0.39999992847E+02 0.  0.
         12    1    3    3    0    0  0.35519289982E+02 -0.87047880863E+01 -0.42879804786E+01  0.36820918960E+02  0.00000000000E+00 0. -1.
         11    1    4    4    0    0 -0.36251219728E+02  0.16817114216E+02  0.11905585711E+02  0.41697832482E+02  0.51100000000E-03 0. -1.
        -11    1    4    4    0    0  0.33007958923E+01 -0.35897300075E+01 -0.42866429934E+01  0.64928209173E+01  0.51100000000E-03 0.  1.
        -12    1    4    4    0    0 -0.25688661468E+01 -0.45225961226E+01 -0.33309622388E+01  0.61764276410E+01  0.00000000000E+00 0.  1.
</event>
<event>
 8    1  0.3186330E-007  0.9118800E+02  0.7816164E-02  0.1184000E+00
        -11   -1    0    0    0    0  0.00000000000E+00  0.00000000000E+00  0.45593999997E+02  0.45594000000E+02  0.51100000000E-03 0. -1.
         11   -1    0    0    0    0 -0.00000000000E+00 -0.00000000000E+00 -0.45593999997E+02  0.45594000000E+02  0.51100000000E-03 0.  1.
         23    2    1    2    0    0  0.00000000000E+00  0.35527136788E-14 -0.71054273576E-14  0.91188000000E+02  0.91188000000E+02 0.  0.
    9900012    2    3    3    0    0  0.94041021074E+01 -0.21202988240E+02  0.28596782422E+02  0.54367084590E+02  0.40000000939E+02 0.  0.
        -12    1    3    3    0    0 -0.94041021074E+01  0.21202988240E+02 -0.28596782422E+02  0.36820915410E+02  0.00000000000E+00 0.  1.
         11    1    4    4    0    0 -0.73177815250E+01 -0.16527187534E+02  0.23985605988E+02  0.30033433854E+02  0.51100000000E-03 0. -1.
        -11    1    4    4    0    0  0.28897520333E+00 -0.71197652346E+01  0.13229625232E+00  0.71268552829E+01  0.51100000000E-03 0.  1.
        -12    1    4    4    0    0  0.16432908429E+02  0.24439645282E+01  0.44788801820E+01  0.17206795452E+02  0.00000000000E+00 0.  1.
</event>
<event>
 8    1  0.3186330E-007  0.9118800E+02  0.7816164E-02  0.1184000E+00
        -11   -1    0    0    0    0  0.00000000000E+00  0.00000000000E+00  0.45593999997E+02  0.45594000000E+02  0.51100000000E-03 0. -1.
         11   -1    0    0    0    0 -0.00000000000E+00 -0.00000000000E+00 -0.45593999997E+02  0.45594000000E+02  0.51100000000E-03 0.  1.
         23    2    1    2    0    0  0.00000000000E+00 -0.35527136788E-14  0.11102230246E-15  0.91188000000E+02  0.91188000000E+02 0.  0.
    9900012    2    3    3    0    0 -0.22585204993E+02  0.29070629993E+02 -0.76603330953E+00  0.54367084479E+02  0.40000000687E+02 0.  0.
         12    1    3    3    0    0  0.22585204993E+02 -0.29070629993E+02  0.76603330953E+00  0.36820915521E+02  0.00000000000E+00 0. -1.
         11    1    4    4    0    0 -0.14157975023E+02  0.12709864806E+02 -0.80559833119E+01  0.20661262970E+02  0.51100000000E-03 0.  1.
        -11    1    4    4    0    0 -0.89398754054E+01 -0.40719725023E+01  0.88299465133E+01  0.13208720150E+02  0.51100000000E-03 0. -1.
         12    1    4    4    0    0  0.51264543581E+00  0.20432737690E+02 -0.15399965109E+01  0.20497101358E+02  0.00000000000E+00 0. -1.
</event>
<event>
 8    1  0.3186330E-007  0.9118800E+02  0.7816164E-02  0.1184000E+00
        -11   -1    0    0    0    0  0.00000000000E+00  0.00000000000E+00  0.45593999997E+02  0.45594000000E+02  0.51100000000E-03 0. -1.
         11   -1    0    0    0    0 -0.00000000000E+00 -0.00000000000E+00 -0.45593999997E+02  0.45594000000E+02  0.51100000000E-03 0.  1.
         23    2    1    2    0    0 -0.35527136788E-14  0.35527136788E-14  0.00000000000E+00  0.91188000000E+02  0.91188000000E+02 0.  0.
    9900012    2    3    3    0    0  0.83421860618E+01 -0.25790058651E+02 -0.24921099024E+02  0.54367077007E+02  0.39999983652E+02 0.  0.
         12    1    3    3    0    0 -0.83421860618E+01  0.25790058651E+02  0.24921099024E+02  0.36820922993E+02  0.00000000000E+00 0. -1.
         11    1    4    4    0    0  0.53542746919E+00 -0.10144805709E+02 -0.20490240076E+01  0.10363506409E+02  0.51100000000E-03 0. -1.
        -11    1    4    4    0    0  0.18302184580E+02 -0.18963678670E+02 -0.13859603798E+02  0.29777167206E+02  0.51100000000E-03 0.  1.
        -12    1    4    4    0    0 -0.10495425988E+02  0.33184257289E+01 -0.90124712191E+01  0.14226403391E+02  0.00000000000E+00 0.  1.
</event>
<event>
 8    1  0.3186330E-007  0.9118800E+02  0.7816164E-02  0.1184000E+00
        -11   -1    0    0    0    0  0.00000000000E+00  0.00000000000E+00  0.45593999997E+02  0.45594000000E+02  0.51100000000E-03 0.  1.
         11   -1    0    0    0    0 -0.00000000000E+00 -0.00000000000E+00 -0.45593999997E+02  0.45594000000E+02  0.51100000000E-03 0. -1.
         23    2    1    2    0    0  0.00000000000E+00  0.00000000000E+00  0.17763568394E-14  0.91188000000E+02  0.91188000000E+02 0.  0.
    9900012    2    3    3    0    0  0.17826425564E+02 -0.31184062136E+02  0.80963302332E+01  0.54367112682E+02  0.40000064980E+02 0.  0.
         12    1    3    3    0    0 -0.17826425564E+02  0.31184062136E+02 -0.80963302332E+01  0.36820887318E+02  0.00000000000E+00 0. -1.
         11    1    4    4    0    0 -0.91072910764E+00 -0.24078615912E+02  0.17586250664E+02  0.29830946757E+02  0.51100000000E-03 0.  1.
        -11    1    4    4    0    0  0.12319157429E+02 -0.10076405979E+01 -0.12180787818E+01  0.12420172927E+02  0.51100000000E-03 0. -1.
         12    1    4    4    0    0  0.64179972421E+01 -0.60978056263E+01 -0.82718416493E+01  0.12115992998E+02  0.00000000000E+00 0. -1.
</event>
<event>
 8    1  0.3186330E-007  0.9118800E+02  0.7816164E-02  0.1184000E+00
        -11   -1    0    0    0    0  0.00000000000E+00  0.00000000000E+00  0.45593999997E+02  0.45594000000E+02  0.51100000000E-03 0.  1.
         11   -1    0    0    0    0 -0.00000000000E+00 -0.00000000000E+00 -0.45593999997E+02  0.45594000000E+02  0.51100000000E-03 0. -1.
         23    2    1    2    0    0  0.17763568394E-14  0.00000000000E+00 -0.35527136788E-14  0.91188000000E+02  0.91188000000E+02 0.  0.
    9900012    2    3    3    0    0 -0.14662687507E+02  0.24302287568E+02  0.23456024004E+02  0.54367073232E+02  0.39999975047E+02 0.  0.
         12    1    3    3    0    0  0.14662687507E+02 -0.24302287568E+02 -0.23456024004E+02  0.36820926768E+02  0.00000000000E+00 0. -1.
         11    1    4    4    0    0 -0.70542605546E+01  0.30480196595E+02  0.20018059438E+02  0.37141993489E+02  0.51100000000E-03 0.  1.
        -11    1    4    4    0    0 -0.55609862697E+01 -0.94206487846E+01  0.61296092334E+01  0.12539748858E+02  0.51100000000E-03 0. -1.
        -12    1    4    4    0    0 -0.20474406823E+01  0.32427397583E+01 -0.26916446668E+01  0.46853308848E+01  0.00000000000E+00 0.  1.
</event>
<event>
 8    1  0.3186330E-007  0.9118800E+02  0.7816164E-02  0.1184000E+00
        -11   -1    0    0    0    0  0.00000000000E+00  0.00000000000E+00  0.45593999997E+02  0.45594000000E+02  0.51100000000E-03 0. -1.
         11   -1    0    0    0    0 -0.00000000000E+00 -0.00000000000E+00 -0.45593999997E+02  0.45594000000E+02  0.51100000000E-03 0.  1.
         23    2    1    2    0    0 -0.17763568394E-14  0.26645352591E-14  0.00000000000E+00  0.91188000000E+02  0.91188000000E+02 0.  0.
    9900012    2    3    3    0    0 -0.97746249933E+01 -0.55569013735E+01 -0.35062199695E+02  0.54367078039E+02  0.39999986006E+02 0.  0.
         12    1    3    3    0    0  0.97746249933E+01  0.55569013735E+01  0.35062199695E+02  0.36820921961E+02  0.00000000000E+00 0. -1.
         11    1    4    4    0    0 -0.13570910512E+02 -0.14707328618E+02 -0.13786420853E+02  0.24301039636E+02  0.51100000000E-03 0. -1.
        -11    1    4    4    0    0 -0.44148483559E+01 -0.34435674247E+01 -0.92551148864E+01  0.10816940161E+02  0.51100000000E-03 0.  1.
         12    1    4    4    0    0  0.82111338743E+01  0.12593994669E+02 -0.12020663956E+02  0.19249098243E+02  0.00000000000E+00 0. -1.
</event>
<event>
 8    1  0.3186330E-007  0.9118800E+02  0.7816164E-02  0.1184000E+00
        -11   -1    0    0    0    0  0.00000000000E+00  0.00000000000E+00  0.45593999997E+02  0.45594000000E+02  0.51100000000E-03 0.  1.
         11   -1    0    0    0    0 -0.00000000000E+00 -0.00000000000E+00 -0.45593999997E+02  0.45594000000E+02  0.51100000000E-03 0. -1.
         23    2    1    2    0    0 -0.35527136788E-14  0.00000000000E+00  0.00000000000E+00  0.91188000000E+02  0.91188000000E+02 0.  0.
    9900012    2    3    3    0    0  0.22100556276E+02  0.22366663306E+02  0.19159249035E+02  0.54367095085E+02  0.40000024866E+02 0.  0.
        -12    1    3    3    0    0 -0.22100556276E+02 -0.22366663306E+02 -0.19159249035E+02  0.36820904915E+02  0.00000000000E+00 0.  1.
         11    1    4    4    0    0  0.48036579910E+01 -0.78649271209E+01 -0.21645478037E+01  0.94666507365E+01  0.51100000000E-03 0. -1.
        -11    1    4    4    0    0  0.12458037153E+02  0.43906092286E+01  0.77102796531E+01  0.15294723002E+02  0.51100000000E-03 0.  1.
         12    1    4    4    0    0  0.48388611323E+01  0.25840981198E+02  0.13613517185E+02  0.29605721347E+02  0.00000000000E+00 0. -1.
</event>
<event>
 8    1  0.3186330E-007  0.9118800E+02  0.7816164E-02  0.1184000E+00
        -11   -1    0    0    0    0  0.00000000000E+00  0.00000000000E+00  0.45593999997E+02  0.45594000000E+02  0.51100000000E-03 0.  1.
         11   -1    0    0    0    0 -0.00000000000E+00 -0.00000000000E+00 -0.45593999997E+02  0.45594000000E+02  0.51100000000E-03 0. -1.
         23    2    1    2    0    0  0.35527136788E-14  0.17763568394E-14 -0.35527136788E-14  0.91188000000E+02  0.91188000000E+02 0.  0.
    9900012    2    3    3    0    0  0.21770883924E+02 -0.10290758267E+02  0.27855143791E+02  0.54367080292E+02  0.39999991142E+02 0.  0.
         12    1    3    3    0    0 -0.21770883924E+02  0.10290758267E+02 -0.27855143791E+02  0.36820919708E+02  0.00000000000E+00 0. -1.
         11    1    4    4    0    0  0.44082009392E+01 -0.74747913366E+00  0.37378235121E+01  0.58277170010E+01  0.51100000000E-03 0. -1.
        -11    1    4    4    0    0  0.18643652950E+02  0.89356859319E+01  0.21507764187E+02  0.29833139275E+02  0.51100000000E-03 0.  1.
        -12    1    4    4    0    0 -0.12809699654E+01 -0.18478965066E+02  0.26095560917E+01  0.18706224016E+02  0.00000000000E+00 0.  1.
</event>
<event>
 8    1  0.3186330E-007  0.9118800E+02  0.7816164E-02  0.1184000E+00
        -11   -1    0    0    0    0  0.00000000000E+00  0.00000000000E+00  0.45593999997E+02  0.45594000000E+02  0.51100000000E-03 0.  1.
         11   -1    0    0    0    0 -0.00000000000E+00 -0.00000000000E+00 -0.45593999997E+02  0.45594000000E+02  0.51100000000E-03 0. -1.
         23    2    1    2    0    0  0.17763568394E-14  0.00000000000E+00  0.00000000000E+00  0.91188000000E+02  0.91188000000E+02 0.  0.
    9900012    2    3    3    0    0 -0.13696346738E+02  0.25431552562E+02  0.22834689560E+02  0.54367125120E+02  0.40000093335E+02 0.  0.
         12    1    3    3    0    0  0.13696346738E+02 -0.25431552562E+02 -0.22834689560E+02  0.36820874880E+02  0.00000000000E+00 0. -1.
         11    1    4    4    0    0  0.51492303556E+01  0.28565182613E+01 -0.43039140091E+00  0.59041940053E+01  0.51100000000E-03 0. -1.
        -11    1    4    4    0    0  0.73221595661E+01  0.79765705318E+01  0.12703044011E+02  0.16691525562E+02  0.51100000000E-03 0.  1.
         12    1    4    4    0    0 -0.26167736659E+02  0.14598463769E+02  0.10562036949E+02  0.31771405553E+02  0.00000000000E+00 0. -1.
</event>
<event>
 8    1  0.3186330E-007  0.9118800E+02  0.7816164E-02  0.1184000E+00
        -11   -1    0    0    0    0  0.00000000000E+00  0.00000000000E+00  0.45593999997E+02  0.45594000000E+02  0.51100000000E-03 0.  1.
         11   -1    0    0    0    0 -0.00000000000E+00 -0.00000000000E+00 -0.45593999997E+02  0.45594000000E+02  0.51100000000E-03 0. -1.
         23    2    1    2    0    0  0.00000000000E+00  0.00000000000E+00  0.72164496601E-15  0.91188000000E+02  0.91188000000E+02 0.  0.
    9900012    2    3    3    0    0 -0.20418174911E+02 -0.30639777446E+02 -0.28588018004E+00  0.54367088060E+02  0.40000008850E+02 0.  0.
        -12    1    3    3    0    0  0.20418174911E+02  0.30639777446E+02  0.28588018004E+00  0.36820911940E+02  0.00000000000E+00 0.  1.
         11    1    4    4    0    0 -0.11763888123E+02 -0.81811642985E+00  0.10973481352E+02  0.16108248555E+02  0.51100000000E-03 0. -1.
        -11    1    4    4    0    0  0.51143505318E+01 -0.22951938222E+01 -0.39498542905E+00  0.56196538856E+01  0.51100000000E-03 0.  1.
         12    1    4    4    0    0 -0.13768637320E+02 -0.27526467193E+02 -0.10864376103E+02  0.32639185620E+02  0.00000000000E+00 0. -1.
</event>
<event>
 8    1  0.3186330E-007  0.9118800E+02  0.7816164E-02  0.1184000E+00
        -11   -1    0    0    0    0  0.00000000000E+00  0.00000000000E+00  0.45593999997E+02  0.45594000000E+02  0.51100000000E-03 0.  1.
         11   -1    0    0    0    0 -0.00000000000E+00 -0.00000000000E+00 -0.45593999997E+02  0.45594000000E+02  0.51100000000E-03 0. -1.
         23    2    1    2    0    0 -0.35527136788E-14  0.17763568394E-14  0.00000000000E+00  0.91188000000E+02  0.91188000000E+02 0.  0.
    9900012    2    3    3    0    0  0.30203688800E+02 -0.93359769547E+01  0.18877403054E+02  0.54367087071E+02  0.40000006597E+02 0.  0.
         12    1    3    3    0    0 -0.30203688800E+02  0.93359769547E+01 -0.18877403054E+02  0.36820912929E+02  0.00000000000E+00 0. -1.
         11    1    4    4    0    0  0.24266315405E+02 -0.31131157107E+01  0.16615567558E+02  0.29574019650E+02  0.51100000000E-03 0. -1.
        -11    1    4    4    0    0 -0.76094442406E+01  0.68159801219E+00  0.52860774289E+01  0.92903623367E+01  0.51100000000E-03 0.  1.
         12    1    4    4    0    0  0.13546817635E+02 -0.69044592562E+01 -0.30242419320E+01  0.15502705084E+02  0.00000000000E+00 0. -1.
</event>
<event>
 8    1  0.3186330E-007  0.9118800E+02  0.7816164E-02  0.1184000E+00
        -11   -1    0    0    0    0  0.00000000000E+00  0.00000000000E+00  0.45593999997E+02  0.45594000000E+02  0.51100000000E-03 0.  1.
         11   -1    0    0    0    0 -0.00000000000E+00 -0.00000000000E+00 -0.45593999997E+02  0.45594000000E+02  0.51100000000E-03 0. -1.
         23    2    1    2    0    0  0.17763568394E-14  0.00000000000E+00  0.00000000000E+00  0.91188000000E+02  0.91188000000E+02 0.  0.
    9900012    2    3    3    0    0  0.23991165499E+01  0.30979990081E+02 -0.19755109695E+02  0.54367083326E+02  0.39999998059E+02 0.  0.
        -12    1    3    3    0    0 -0.23991165499E+01 -0.30979990081E+02  0.19755109695E+02  0.36820916674E+02  0.00000000000E+00 0.  1.
         11    1    4    4    0    0 -0.47119519844E+00  0.78372936841E+01  0.62621204075E+01  0.10042875558E+02  0.51100000000E-03 0. -1.
        -11    1    4    4    0    0 -0.11293968212E+02  0.38777596296E+01 -0.95600221707E+01  0.15296560459E+02  0.51100000000E-03 0.  1.
         12    1    4    4    0    0  0.14164279960E+02  0.19264936767E+02 -0.16457207932E+02  0.29027647310E+02  0.00000000000E+00 0. -1.
</event>
<event>
 8    1  0.3186330E-007  0.9118800E+02  0.7816164E-02  0.1184000E+00
        -11   -1    0    0    0    0  0.00000000000E+00  0.00000000000E+00  0.45593999997E+02  0.45594000000E+02  0.51100000000E-03 0.  1.
         11   -1    0    0    0    0 -0.00000000000E+00 -0.00000000000E+00 -0.45593999997E+02  0.45594000000E+02  0.51100000000E-03 0. -1.
         23    2    1    2    0    0  0.17763568394E-14  0.00000000000E+00  0.00000000000E+00  0.91188000000E+02  0.91188000000E+02 0.  0.
    9900012    2    3    3    0    0  0.12575502284E+02  0.42163674370E+01 -0.34349069031E+02  0.54367088070E+02  0.40000008873E+02 0.  0.
        -12    1    3    3    0    0 -0.12575502284E+02 -0.42163674370E+01  0.34349069031E+02  0.36820911930E+02  0.00000000000E+00 0.  1.
         11    1    4    4    0    0  0.51693101621E+01 -0.55184038065E+01 -0.23513455835E+02  0.24699335086E+02  0.51100000000E-03 0. -1.
        -11    1    4    4    0    0 -0.77571491359E+01  0.58804765647E+01  0.13624522792E+01  0.98290204913E+01  0.51100000000E-03 0.  1.
         12    1    4    4    0    0  0.15163341258E+02  0.38542946788E+01 -0.12198065475E+02  0.19838732493E+02  0.00000000000E+00 0. -1.
</event>
<event>
 8    1  0.3186330E-007  0.9118800E+02  0.7816164E-02  0.1184000E+00
        -11   -1    0    0    0    0  0.00000000000E+00  0.00000000000E+00  0.45593999997E+02  0.45594000000E+02  0.51100000000E-03 0.  1.
         11   -1    0    0    0    0 -0.00000000000E+00 -0.00000000000E+00 -0.45593999997E+02  0.45594000000E+02  0.51100000000E-03 0. -1.
         23    2    1    2    0    0  0.35527136788E-14  0.00000000000E+00 -0.17763568394E-14  0.91188000000E+02  0.91188000000E+02 0.  0.
    9900012    2    3    3    0    0  0.30170579269E+02  0.19375797437E+02 -0.83720938852E+01  0.54367118211E+02  0.40000077584E+02 0.  0.
        -12    1    3    3    0    0 -0.30170579269E+02 -0.19375797437E+02  0.83720938852E+01  0.36820881789E+02  0.00000000000E+00 0.  1.
         11    1    4    4    0    0  0.16532765393E+02  0.95010469248E+01  0.14168542881E+02  0.23756048321E+02  0.51100000000E-03 0. -1.
        -11    1    4    4    0    0  0.87372803806E+01  0.78915253692E+01 -0.22419659653E+02  0.25323060248E+02  0.51100000000E-03 0.  1.
         12    1    4    4    0    0  0.49005334952E+01  0.19832251430E+01 -0.12097711289E+00  0.52880096414E+01  0.00000000000E+00 0. -1.
</event>
<event>
 8    1  0.3186330E-007  0.9118800E+02  0.7816164E-02  0.1184000E+00
        -11   -1    0    0    0    0  0.00000000000E+00  0.00000000000E+00  0.45593999997E+02  0.45594000000E+02  0.51100000000E-03 0. -1.
         11   -1    0    0    0    0 -0.00000000000E+00 -0.00000000000E+00 -0.45593999997E+02  0.45594000000E+02  0.51100000000E-03 0.  1.
         23    2    1    2    0    0  0.00000000000E+00 -0.88817841970E-15  0.00000000000E+00  0.91188000000E+02  0.91188000000E+02 0.  0.
    9900012    2    3    3    0    0 -0.20476145994E+02  0.74831950692E+01  0.29673368582E+02  0.54367087923E+02  0.40000008537E+02 0.  0.
        -12    1    3    3    0    0  0.20476145994E+02 -0.74831950692E+01 -0.29673368582E+02  0.36820912077E+02  0.00000000000E+00 0.  1.
         11    1    4    4    0    0 -0.15125797028E+02  0.17448692927E+02  0.11700571478E+02  0.25887255432E+02  0.51100000000E-03 0. -1.
        -11    1    4    4    0    0 -0.57042680365E+00  0.39604183291E+01 -0.13175668105E+01  0.42126336941E+01  0.51100000000E-03 0.  1.
         12    1    4    4    0    0 -0.47799221621E+01 -0.13925916187E+02  0.19290363914E+02  0.24267198797E+02  0.00000000000E+00 0. -1.
</event>
<event>
 8    1  0.3186330E-007  0.9118800E+02  0.7816164E-02  0.1184000E+00
        -11   -1    0    0    0    0  0.00000000000E+00  0.00000000000E+00  0.45593999997E+02  0.45594000000E+02  0.51100000000E-03 0. -1.
         11   -1    0    0    0    0 -0.00000000000E+00 -0.00000000000E+00 -0.45593999997E+02  0.45594000000E+02  0.51100000000E-03 0.  1.
         23    2    1    2    0    0  0.00000000000E+00  0.00000000000E+00  0.35527136788E-14  0.91188000000E+02  0.91188000000E+02 0.  0.
    9900012    2    3    3    0    0  0.18433303404E+02  0.97484634629E+01  0.30347327026E+02  0.54367089203E+02  0.40000011457E+02 0.  0.
        -12    1    3    3    0    0 -0.18433303404E+02 -0.97484634629E+01 -0.30347327026E+02  0.36820910797E+02  0.00000000000E+00 0.  1.
         11    1    4    4    0    0  0.81877794574E+01  0.16354473459E+02  0.16555015573E+01  0.18364346441E+02  0.51100000000E-03 0. -1.
        -11    1    4    4    0    0 -0.25606461008E+01 -0.33534722293E+01  0.19390909030E+02  0.19844647583E+02  0.51100000000E-03 0.  1.
         12    1    4    4    0    0  0.12806170047E+02 -0.32525377665E+01  0.93009164393E+01  0.16158095179E+02  0.00000000000E+00 0. -1.
</event>
<event>
 8    1  0.3186330E-007  0.9118800E+02  0.7816164E-02  0.1184000E+00
        -11   -1    0    0    0    0  0.00000000000E+00  0.00000000000E+00  0.45593999997E+02  0.45594000000E+02  0.51100000000E-03 0. -1.
         11   -1    0    0    0    0 -0.00000000000E+00 -0.00000000000E+00 -0.45593999997E+02  0.45594000000E+02  0.51100000000E-03 0.  1.
         23    2    1    2    0    0  0.71054273576E-14  0.55511151231E-16  0.00000000000E+00  0.91188000000E+02  0.91188000000E+02 0.  0.
    9900012    2    3    3    0    0  0.32674106541E+02  0.29291265980E+00  0.16973420490E+02  0.54367081500E+02  0.39999993895E+02 0.  0.
        -12    1    3    3    0    0 -0.32674106541E+02 -0.29291265980E+00 -0.16973420490E+02  0.36820918500E+02  0.00000000000E+00 0.  1.
         11    1    4    4    0    0  0.22857519484E+02 -0.11056413840E+02  0.11855306828E+02  0.28022469274E+02  0.51100000000E-03 0. -1.
        -11    1    4    4    0    0  0.13754409188E+02  0.55786648104E+01 -0.35007530322E+01  0.15249935909E+02  0.51100000000E-03 0.  1.
        -12    1    4    4    0    0 -0.39378221312E+01  0.57706616896E+01  0.86188666943E+01  0.11094676316E+02  0.00000000000E+00 0.  1.
</event>
<event>
 8    1  0.3186330E-007  0.9118800E+02  0.7816164E-02  0.1184000E+00
        -11   -1    0    0    0    0  0.00000000000E+00  0.00000000000E+00  0.45593999997E+02  0.45594000000E+02  0.51100000000E-03 0.  1.
         11   -1    0    0    0    0 -0.00000000000E+00 -0.00000000000E+00 -0.45593999997E+02  0.45594000000E+02  0.51100000000E-03 0. -1.
         23    2    1    2    0    0 -0.35527136788E-14  0.00000000000E+00 -0.17763568394E-14  0.91188000000E+02  0.91188000000E+02 0.  0.
    9900012    2    3    3    0    0  0.31126711738E+02  0.16285512191E+02 -0.11031385323E+02  0.54367060943E+02  0.39999947031E+02 0.  0.
        -12    1    3    3    0    0 -0.31126711738E+02 -0.16285512191E+02  0.11031385323E+02  0.36820939057E+02  0.00000000000E+00 0.  1.
         11    1    4    4    0    0  0.20363040484E+02 -0.25666416112E+01  0.52969904343E+01  0.21196678392E+02  0.51100000000E-03 0. -1.
        -11    1    4    4    0    0 -0.28611208465E+01  0.43175585652E+01  0.25066564758E+01  0.57541855558E+01  0.51100000000E-03 0.  1.
        -12    1    4    4    0    0  0.13624792100E+02  0.14534595237E+02 -0.18835032233E+02  0.27416196995E+02  0.00000000000E+00 0.  1.
</event>
<event>
 8    1  0.3186330E-007  0.9118800E+02  0.7816164E-02  0.1184000E+00
        -11   -1    0    0    0    0  0.00000000000E+00  0.00000000000E+00  0.45593999997E+02  0.45594000000E+02  0.51100000000E-03 0.  1.
         11   -1    0    0    0    0 -0.00000000000E+00 -0.00000000000E+00 -0.45593999997E+02  0.45594000000E+02  0.51100000000E-03 0. -1.
         23    2    1    2    0    0  0.00000000000E+00 -0.44408920985E-15  0.00000000000E+00  0.91188000000E+02  0.91188000000E+02 0.  0.
    9900012    2    3    3    0    0 -0.20328091179E+02 -0.21659146172E+01 -0.30624460997E+02  0.54367080831E+02  0.39999992371E+02 0.  0.
        -12    1    3    3    0    0  0.20328091179E+02  0.21659146172E+01  0.30624460997E+02  0.36820919169E+02  0.00000000000E+00 0.  1.
         11    1    4    4    0    0 -0.10793401764E+02 -0.58720567283E+01 -0.28685660473E+00  0.12290681789E+02  0.51100000000E-03 0.  1.
        -11    1    4    4    0    0 -0.17769035832E+01  0.12669055909E+02 -0.26814519404E+02  0.29709944717E+02  0.51100000000E-03 0. -1.
         12    1    4    4    0    0 -0.77577858310E+01 -0.89629137976E+01 -0.35230849876E+01  0.12366454325E+02  0.00000000000E+00 0. -1.
</event>
<event>
 8    1  0.3186330E-007  0.9118800E+02  0.7816164E-02  0.1184000E+00
        -11   -1    0    0    0    0  0.00000000000E+00  0.00000000000E+00  0.45593999997E+02  0.45594000000E+02  0.51100000000E-03 0. -1.
         11   -1    0    0    0    0 -0.00000000000E+00 -0.00000000000E+00 -0.45593999997E+02  0.45594000000E+02  0.51100000000E-03 0.  1.
         23    2    1    2    0    0 -0.88817841970E-15  0.00000000000E+00  0.00000000000E+00  0.91188000000E+02  0.91188000000E+02 0.  0.
    9900012    2    3    3    0    0 -0.68439564388E+01 -0.25019355929E+02  0.26133758128E+02  0.54367065401E+02  0.39999957194E+02 0.  0.
        -12    1    3    3    0    0  0.68439564388E+01  0.25019355929E+02 -0.26133758128E+02  0.36820934599E+02  0.00000000000E+00 0.  1.
         11    1    4    4    0    0 -0.37594746706E+01  0.50133011580E+01 -0.47033930749E+01  0.78350969987E+01  0.51100000000E-03 0. -1.
        -11    1    4    4    0    0 -0.85477239817E+00 -0.27589717869E+02  0.17253851150E+02  0.32551782558E+02  0.51100000000E-03 0.  1.
         12    1    4    4    0    0 -0.22297093700E+01 -0.24429392185E+01  0.13583300053E+02  0.13980185844E+02  0.00000000000E+00 0. -1.
</event>
<event>
 8    1  0.3186330E-007  0.9118800E+02  0.7816164E-02  0.1184000E+00
        -11   -1    0    0    0    0  0.00000000000E+00  0.00000000000E+00  0.45593999997E+02  0.45594000000E+02  0.51100000000E-03 0.  1.
         11   -1    0    0    0    0 -0.00000000000E+00 -0.00000000000E+00 -0.45593999997E+02  0.45594000000E+02  0.51100000000E-03 0. -1.
         23    2    1    2    0    0  0.00000000000E+00 -0.17763568394E-14 -0.35527136788E-14  0.91188000000E+02  0.91188000000E+02 0.  0.
    9900012    2    3    3    0    0 -0.25434595899E+02  0.15208273338E+02  0.21853359836E+02  0.54367087700E+02  0.40000008029E+02 0.  0.
         12    1    3    3    0    0  0.25434595899E+02 -0.15208273338E+02 -0.21853359836E+02  0.36820912300E+02  0.00000000000E+00 0. -1.
         11    1    4    4    0    0  0.18660806556E+01 -0.19959960332E+01 -0.48612068295E+01  0.55765212524E+01  0.51100000000E-03 0. -1.
        -11    1    4    4    0    0 -0.12143170515E+02 -0.46096570626E+01  0.33492934780E+01  0.13413548951E+02  0.51100000000E-03 0.  1.
        -12    1    4    4    0    0 -0.15157506040E+02  0.21813926434E+02  0.23365273188E+02  0.35377017497E+02  0.00000000000E+00 0.  1.
</event>
<event>
 8    1  0.3186330E-007  0.9118800E+02  0.7816164E-02  0.1184000E+00
        -11   -1    0    0    0    0  0.00000000000E+00  0.00000000000E+00  0.45593999997E+02  0.45594000000E+02  0.51100000000E-03 0. -1.
         11   -1    0    0    0    0 -0.00000000000E+00 -0.00000000000E+00 -0.45593999997E+02  0.45594000000E+02  0.51100000000E-03 0.  1.
         23    2    1    2    0    0  0.88817841970E-15  0.00000000000E+00  0.00000000000E+00  0.91188000000E+02  0.91188000000E+02 0.  0.
    9900012    2    3    3    0    0  0.77092344769E+01  0.27534394851E+02 -0.23199272001E+02  0.54367062784E+02  0.39999951230E+02 0.  0.
        -12    1    3    3    0    0 -0.77092344769E+01 -0.27534394851E+02  0.23199272001E+02  0.36820937216E+02  0.00000000000E+00 0.  1.
         11    1    4    4    0    0 -0.56651028046E+01  0.27001581120E+01  0.60619686110E+01  0.87253485500E+01  0.51100000000E-03 0. -1.
        -11    1    4    4    0    0 -0.14122212724E+01  0.13035806053E+02 -0.33024570982E+01  0.13521569122E+02  0.51100000000E-03 0.  1.
        -12    1    4    4    0    0  0.14786558554E+02  0.11798430687E+02 -0.25958783514E+02  0.32120145113E+02  0.00000000000E+00 0.  1.
</event>
<event>
 8    1  0.3186330E-007  0.9118800E+02  0.7816164E-02  0.1184000E+00
        -11   -1    0    0    0    0  0.00000000000E+00  0.00000000000E+00  0.45593999997E+02  0.45594000000E+02  0.51100000000E-03 0. -1.
         11   -1    0    0    0    0 -0.00000000000E+00 -0.00000000000E+00 -0.45593999997E+02  0.45594000000E+02  0.51100000000E-03 0.  1.
         23    2    1    2    0    0  0.35527136788E-14 -0.35527136788E-14  0.88817841970E-15  0.91188000000E+02  0.91188000000E+02 0.  0.
    9900012    2    3    3    0    0  0.22256707958E+02 -0.28622993190E+02  0.64144584210E+01  0.54367053989E+02  0.39999931180E+02 0.  0.
         12    1    3    3    0    0 -0.22256707958E+02  0.28622993190E+02 -0.64144584210E+01  0.36820946011E+02  0.00000000000E+00 0. -1.
         11    1    4    4    0    0  0.24483989884E+02 -0.25456239870E+02  0.12615467791E+02  0.37505145471E+02  0.51100000000E-03 0. -1.
        -11    1    4    4    0    0  0.47697375065E+01 -0.22424227835E+01 -0.79984319456E+01  0.95788188035E+01  0.51100000000E-03 0.  1.
        -12    1    4    4    0    0 -0.69970194326E+01 -0.92433053667E+00  0.17974225753E+01  0.72830897149E+01  0.00000000000E+00 0.  1.
</event>
<event>
 8    1  0.3186330E-007  0.9118800E+02  0.7816164E-02  0.1184000E+00
        -11   -1    0    0    0    0  0.00000000000E+00  0.00000000000E+00  0.45593999997E+02  0.45594000000E+02  0.51100000000E-03 0.  1.
         11   -1    0    0    0    0 -0.00000000000E+00 -0.00000000000E+00 -0.45593999997E+02  0.45594000000E+02  0.51100000000E-03 0. -1.
         23    2    1    2    0    0 -0.33306690739E-15 -0.35527136788E-14  0.00000000000E+00  0.91188000000E+02  0.91188000000E+02 0.  0.
    9900012    2    3    3    0    0  0.87593784188E+00 -0.17503430941E+02 -0.32382753924E+02  0.54367080490E+02  0.39999991594E+02 0.  0.
        -12    1    3    3    0    0 -0.87593784188E+00  0.17503430941E+02  0.32382753924E+02  0.36820919510E+02  0.00000000000E+00 0.  1.
         11    1    4    4    0    0  0.83282702457E+01 -0.68090318103E+01 -0.59149154539E+01  0.12276368542E+02  0.51100000000E-03 0. -1.
        -11    1    4    4    0    0 -0.17683538185E+02 -0.13325943321E+02 -0.17212580212E+02  0.28045698529E+02  0.51100000000E-03 0.  1.
         12    1    4    4    0    0  0.10231205781E+02  0.26315441903E+01 -0.92552582580E+01  0.14045013420E+02  0.00000000000E+00 0. -1.
</event>
<event>
 8    1  0.3186330E-007  0.9118800E+02  0.7816164E-02  0.1184000E+00
        -11   -1    0    0    0    0  0.00000000000E+00  0.00000000000E+00  0.45593999997E+02  0.45594000000E+02  0.51100000000E-03 0. -1.
         11   -1    0    0    0    0 -0.00000000000E+00 -0.00000000000E+00 -0.45593999997E+02  0.45594000000E+02  0.51100000000E-03 0.  1.
         23    2    1    2    0    0 -0.66613381478E-15  0.00000000000E+00  0.00000000000E+00  0.91188000000E+02  0.91188000000E+02 0.  0.
    9900012    2    3    3    0    0  0.14773328133E+01  0.21059894484E+02  0.30167498338E+02  0.54367087139E+02  0.40000006752E+02 0.  0.
        -12    1    3    3    0    0 -0.14773328133E+01 -0.21059894484E+02 -0.30167498338E+02  0.36820912861E+02  0.00000000000E+00 0.  1.
         11    1    4    4    0    0  0.12652986030E+02 -0.16241156424E+01  0.15431747647E+02  0.20021854130E+02  0.51100000000E-03 0.  1.
        -11    1    4    4    0    0 -0.97874483783E-01  0.14658254628E+00  0.84577649684E+01  0.84596013133E+01  0.51100000000E-03 0. -1.
        -12    1    4    4    0    0 -0.11077778733E+02  0.22537427580E+02  0.62779857223E+01  0.25885631696E+02  0.00000000000E+00 0.  1.
</event>
<event>
 8    1  0.3186330E-007  0.9118800E+02  0.7816164E-02  0.1184000E+00
        -11   -1    0    0    0    0  0.00000000000E+00  0.00000000000E+00  0.45593999997E+02  0.45594000000E+02  0.51100000000E-03 0.  1.
         11   -1    0    0    0    0 -0.00000000000E+00 -0.00000000000E+00 -0.45593999997E+02  0.45594000000E+02  0.51100000000E-03 0. -1.
         23    2    1    2    0    0  0.00000000000E+00  0.88817841970E-15  0.00000000000E+00  0.91188000000E+02  0.91188000000E+02 0.  0.
    9900012    2    3    3    0    0 -0.63136896205E+01 -0.49313063223E+01  0.35938838323E+02  0.54367074446E+02  0.39999977814E+02 0.  0.
         12    1    3    3    0    0  0.63136896205E+01  0.49313063223E+01 -0.35938838323E+02  0.36820925554E+02  0.00000000000E+00 0. -1.
         11    1    4    4    0    0 -0.50087140736E+01 -0.20478772010E+02  0.25477891418E+02  0.33069476426E+02  0.51100000000E-03 0. -1.
        -11    1    4    4    0    0  0.20150500933E+01  0.52795791802E+01  0.86842625688E+01  0.10361023107E+02  0.51100000000E-03 0.  1.
        -12    1    4    4    0    0 -0.33200256402E+01  0.10267886508E+02  0.17766843362E+01  0.10936574913E+02  0.00000000000E+00 0.  1.
</event>
<event>
 8    1  0.3186330E-007  0.9118800E+02  0.7816164E-02  0.1184000E+00
        -11   -1    0    0    0    0  0.00000000000E+00  0.00000000000E+00  0.45593999997E+02  0.45594000000E+02  0.51100000000E-03 0. -1.
         11   -1    0    0    0    0 -0.00000000000E+00 -0.00000000000E+00 -0.45593999997E+02  0.45594000000E+02  0.51100000000E-03 0.  1.
         23    2    1    2    0    0  0.00000000000E+00  0.00000000000E+00  0.00000000000E+00  0.91188000000E+02  0.91188000000E+02 0.  0.
    9900012    2    3    3    0    0 -0.23836016810E+01 -0.32577998249E+02 -0.16993407270E+02  0.54367035625E+02  0.39999889313E+02 0.  0.
         12    1    3    3    0    0  0.23836016810E+01  0.32577998249E+02  0.16993407270E+02  0.36820964375E+02  0.00000000000E+00 0. -1.
         11    1    4    4    0    0  0.29048366661E+01 -0.13200831032E+02  0.15784173798E+01  0.13608505343E+02  0.51100000000E-03 0. -1.
        -11    1    4    4    0    0 -0.45725439523E+01 -0.27557189146E+02 -0.15795601198E+02  0.32090619334E+02  0.51100000000E-03 0.  1.
         12    1    4    4    0    0 -0.71589439481E+00  0.81800219285E+01 -0.27762234524E+01  0.86679109474E+01  0.00000000000E+00 0. -1.
</event>
<event>
 8    1  0.3186330E-007  0.9118800E+02  0.7816164E-02  0.1184000E+00
        -11   -1    0    0    0    0  0.00000000000E+00  0.00000000000E+00  0.45593999997E+02  0.45594000000E+02  0.51100000000E-03 0.  1.
         11   -1    0    0    0    0 -0.00000000000E+00 -0.00000000000E+00 -0.45593999997E+02  0.45594000000E+02  0.51100000000E-03 0. -1.
         23    2    1    2    0    0  0.35527136788E-14  0.44408920985E-15  0.00000000000E+00  0.91188000000E+02  0.91188000000E+02 0.  0.
    9900012    2    3    3    0    0  0.30264225362E+02 -0.17705460475E+01 -0.20898112703E+02  0.54366955954E+02  0.39999707688E+02 0.  0.
        -12    1    3    3    0    0 -0.30264225362E+02  0.17705460475E+01  0.20898112703E+02  0.36821044046E+02  0.00000000000E+00 0.  1.
         11    1    4    4    0    0  0.68302875434E+01 -0.61476213480E+01  0.89316930935E+01  0.12814882674E+02  0.51100000000E-03 0.  1.
        -11    1    4    4    0    0  0.16883456182E+02  0.99051946238E+01 -0.16001011967E+02  0.25282332911E+02  0.51100000000E-03 0. -1.
         12    1    4    4    0    0  0.65504816371E+01 -0.55281193233E+01 -0.13828793829E+02  0.16269740369E+02  0.00000000000E+00 0. -1.
</event>
<event>
 8    1  0.3186330E-007  0.9118800E+02  0.7816164E-02  0.1184000E+00
        -11   -1    0    0    0    0  0.00000000000E+00  0.00000000000E+00  0.45593999997E+02  0.45594000000E+02  0.51100000000E-03 0. -1.
         11   -1    0    0    0    0 -0.00000000000E+00 -0.00000000000E+00 -0.45593999997E+02  0.45594000000E+02  0.51100000000E-03 0.  1.
         23    2    1    2    0    0  0.00000000000E+00  0.00000000000E+00  0.00000000000E+00  0.91188000000E+02  0.91188000000E+02 0.  0.
    9900012    2    3    3    0    0  0.12256889278E+02  0.17645241395E+02 -0.29903082031E+02  0.54367079403E+02  0.39999989115E+02 0.  0.
         12    1    3    3    0    0 -0.12256889278E+02 -0.17645241395E+02  0.29903082031E+02  0.36820920597E+02  0.00000000000E+00 0. -1.
         11    1    4    4    0    0  0.89361578113E+00 -0.56429921733E+01 -0.22513312255E+02  0.23226948546E+02  0.51100000000E-03 0. -1.
        -11    1    4    4    0    0  0.14228606432E+01  0.51075528547E+01 -0.89051658691E+01  0.10364053647E+02  0.51100000000E-03 0.  1.
         12    1    4    4    0    0  0.99404128538E+01  0.18180680714E+02  0.15153960930E+01  0.20776077210E+02  0.00000000000E+00 0. -1.
</event>
<event>
 8    1  0.3186330E-007  0.9118800E+02  0.7816164E-02  0.1184000E+00
        -11   -1    0    0    0    0  0.00000000000E+00  0.00000000000E+00  0.45593999997E+02  0.45594000000E+02  0.51100000000E-03 0. -1.
         11   -1    0    0    0    0 -0.00000000000E+00 -0.00000000000E+00 -0.45593999997E+02  0.45594000000E+02  0.51100000000E-03 0.  1.
         23    2    1    2    0    0  0.00000000000E+00  0.00000000000E+00  0.17763568394E-14  0.91188000000E+02  0.91188000000E+02 0.  0.
    9900012    2    3    3    0    0  0.68739601384E+01 -0.35838881378E+02 -0.49094737745E+01  0.54367086389E+02  0.40000005040E+02 0.  0.
         12    1    3    3    0    0 -0.68739601384E+01  0.35838881378E+02  0.49094737745E+01  0.36820913611E+02  0.00000000000E+00 0. -1.
         11    1    4    4    0    0  0.62077999749E+01 -0.76474570147E+01  0.25913252347E+01  0.10185055034E+02  0.51100000000E-03 0. -1.
        -11    1    4    4    0    0 -0.35660048878E+01  0.43756367928E+01 -0.97479616897E+01  0.11264339553E+02  0.51100000000E-03 0.  1.
        -12    1    4    4    0    0  0.42321650514E+01 -0.32567061156E+02  0.22471626805E+01  0.32917691801E+02  0.00000000000E+00 0.  1.
</event>
<event>
 8    1  0.3186330E-007  0.9118800E+02  0.7816164E-02  0.1184000E+00
        -11   -1    0    0    0    0  0.00000000000E+00  0.00000000000E+00  0.45593999997E+02  0.45594000000E+02  0.51100000000E-03 0. -1.
         11   -1    0    0    0    0 -0.00000000000E+00 -0.00000000000E+00 -0.45593999997E+02  0.45594000000E+02  0.51100000000E-03 0.  1.
         23    2    1    2    0    0 -0.17763568394E-14 -0.35527136788E-14 -0.17763568394E-14  0.91188000000E+02  0.91188000000E+02 0.  0.
    9900012    2    3    3    0    0  0.13759191073E+02 -0.30945313734E+02  0.14451721423E+02  0.54367081582E+02  0.39999994082E+02 0.  0.
        -12    1    3    3    0    0 -0.13759191073E+02  0.30945313734E+02 -0.14451721423E+02  0.36820918418E+02  0.00000000000E+00 0.  1.
         11    1    4    4    0    0  0.40076526738E+01 -0.11798816961E+02 -0.45565479873E+01  0.13267836728E+02  0.51100000000E-03 0. -1.
        -11    1    4    4    0    0  0.17711053245E+02 -0.74335795078E+01  0.25329531454E+01  0.19374089998E+02  0.51100000000E-03 0.  1.
         12    1    4    4    0    0 -0.79595148461E+01 -0.11712917265E+02  0.16475316265E+02  0.21725154855E+02  0.00000000000E+00 0. -1.
</event>
<event>
 8    1  0.3186330E-007  0.9118800E+02  0.7816164E-02  0.1184000E+00
        -11   -1    0    0    0    0  0.00000000000E+00  0.00000000000E+00  0.45593999997E+02  0.45594000000E+02  0.51100000000E-03 0.  1.
         11   -1    0    0    0    0 -0.00000000000E+00 -0.00000000000E+00 -0.45593999997E+02  0.45594000000E+02  0.51100000000E-03 0. -1.
         23    2    1    2    0    0 -0.44408920985E-15  0.19428902931E-14  0.00000000000E+00  0.91188000000E+02  0.91188000000E+02 0.  0.
    9900012    2    3    3    0    0 -0.29573562961E+01  0.38715649493E+00  0.36699916037E+02  0.54367086330E+02  0.40000004906E+02 0.  0.
         12    1    3    3    0    0  0.29573562961E+01 -0.38715649493E+00 -0.36699916037E+02  0.36820913670E+02  0.00000000000E+00 0. -1.
         11    1    4    4    0    0 -0.14938932582E+01  0.13832208065E+02  0.72840600210E+01  0.15704114992E+02  0.51100000000E-03 0. -1.
        -11    1    4    4    0    0  0.12878962329E+01  0.56143873425E+01  0.80638442856E+01  0.99098742102E+01  0.51100000000E-03 0.  1.
        -12    1    4    4    0    0 -0.27513592708E+01 -0.19059438913E+02  0.21352011730E+02  0.28753097128E+02  0.00000000000E+00 0.  1.
</event>
<event>
 8    1  0.3186330E-007  0.9118800E+02  0.7816164E-02  0.1184000E+00
        -11   -1    0    0    0    0  0.00000000000E+00  0.00000000000E+00  0.45593999997E+02  0.45594000000E+02  0.51100000000E-03 0. -1.
         11   -1    0    0    0    0 -0.00000000000E+00 -0.00000000000E+00 -0.45593999997E+02  0.45594000000E+02  0.51100000000E-03 0.  1.
         23    2    1    2    0    0  0.00000000000E+00  0.00000000000E+00  0.00000000000E+00  0.91188000000E+02  0.91188000000E+02 0.  0.
    9900012    2    3    3    0    0 -0.25865467580E+02 -0.89667798938E+01 -0.24624236759E+02  0.54367101169E+02  0.40000038735E+02 0.  0.
         12    1    3    3    0    0  0.25865467580E+02  0.89667798938E+01  0.24624236759E+02  0.36820898831E+02  0.00000000000E+00 0. -1.
         11    1    4    4    0    0 -0.27170526223E+02 -0.28800193930E+00 -0.23940168886E+02  0.36213976955E+02  0.51100000000E-03 0. -1.
        -11    1    4    4    0    0 -0.57888698985E+01 -0.93473284081E+01  0.30719701962E-02  0.10994706579E+02  0.51100000000E-03 0.  1.
        -12    1    4    4    0    0  0.70939285419E+01  0.66855045356E+00 -0.68713984249E+00  0.71584176345E+01  0.00000000000E+00 0.  1.
</event>
<event>
 8    1  0.3186330E-007  0.9118800E+02  0.7816164E-02  0.1184000E+00
        -11   -1    0    0    0    0  0.00000000000E+00  0.00000000000E+00  0.45593999997E+02  0.45594000000E+02  0.51100000000E-03 0.  1.
         11   -1    0    0    0    0 -0.00000000000E+00 -0.00000000000E+00 -0.45593999997E+02  0.45594000000E+02  0.51100000000E-03 0. -1.
         23    2    1    2    0    0  0.00000000000E+00 -0.88817841970E-15  0.00000000000E+00  0.91188000000E+02  0.91188000000E+02 0.  0.
    9900012    2    3    3    0    0  0.12765449399E+02 -0.37591409722E+01 -0.34332120385E+02  0.54367050401E+02  0.39999923000E+02 0.  0.
        -12    1    3    3    0    0 -0.12765449399E+02  0.37591409722E+01  0.34332120385E+02  0.36820949599E+02  0.00000000000E+00 0.  1.
         11    1    4    4    0    0  0.54433971631E+01  0.10692432795E+01 -0.14520964222E+02  0.15544524955E+02  0.51100000000E-03 0. -1.
        -11    1    4    4    0    0  0.54007582383E+01 -0.10491550106E+02  0.53530659714E+01  0.12957473856E+02  0.51100000000E-03 0.  1.
        -12    1    4    4    0    0  0.19212939976E+01  0.56631658547E+01 -0.25164222135E+02  0.25865051590E+02  0.00000000000E+00 0.  1.
</event>
<event>
 8    1  0.3186330E-007  0.9118800E+02  0.7816164E-02  0.1184000E+00
        -11   -1    0    0    0    0  0.00000000000E+00  0.00000000000E+00  0.45593999997E+02  0.45594000000E+02  0.51100000000E-03 0.  1.
         11   -1    0    0    0    0 -0.00000000000E+00 -0.00000000000E+00 -0.45593999997E+02  0.45594000000E+02  0.51100000000E-03 0. -1.
         23    2    1    2    0    0  0.00000000000E+00  0.00000000000E+00  0.00000000000E+00  0.91188000000E+02  0.91188000000E+02 0.  0.
    9900012    2    3    3    0    0 -0.18224466266E+02 -0.78685408462E+01 -0.31011812582E+02  0.54367114278E+02  0.40000068621E+02 0.  0.
        -12    1    3    3    0    0  0.18224466266E+02  0.78685408462E+01  0.31011812582E+02  0.36820885722E+02  0.00000000000E+00 0.  1.
         11    1    4    4    0    0  0.62030282649E+00  0.68490751881E+01 -0.74467244144E+01  0.10136484168E+02  0.51100000000E-03 0.  1.
        -11    1    4    4    0    0  0.66934227732E+01 -0.47450777642E+01 -0.11857241119E+02  0.14419148332E+02  0.51100000000E-03 0. -1.
        -12    1    4    4    0    0 -0.25538191865E+02 -0.99725382700E+01 -0.11707847048E+02  0.29811481778E+02  0.00000000000E+00 0.  1.
</event>
<event>
 8    1  0.3186330E-007  0.9118800E+02  0.7816164E-02  0.1184000E+00
        -11   -1    0    0    0    0  0.00000000000E+00  0.00000000000E+00  0.45593999997E+02  0.45594000000E+02  0.51100000000E-03 0.  1.
         11   -1    0    0    0    0 -0.00000000000E+00 -0.00000000000E+00 -0.45593999997E+02  0.45594000000E+02  0.51100000000E-03 0. -1.
         23    2    1    2    0    0 -0.88817841970E-15  0.35527136788E-14 -0.35527136788E-14  0.91188000000E+02  0.91188000000E+02 0.  0.
    9900012    2    3    3    0    0  0.14997505795E+01  0.25178525832E+02 -0.26824808255E+02  0.54367112548E+02  0.40000064675E+02 0.  0.
        -12    1    3    3    0    0 -0.14997505795E+01 -0.25178525832E+02  0.26824808255E+02  0.36820887452E+02  0.00000000000E+00 0.  1.
         11    1    4    4    0    0 -0.62943918523E+01  0.14176056768E+02 -0.77692001081E+01  0.17347634561E+02  0.51100000000E-03 0. -1.
        -11    1    4    4    0    0  0.85294217956E+01  0.10271188836E+02 -0.26409728089E+02  0.29592602019E+02  0.51100000000E-03 0.  1.
        -12    1    4    4    0    0 -0.73527936377E+00  0.73128022771E+00  0.73541199423E+01  0.74268759677E+01  0.00000000000E+00 0.  1.
</event>
<event>
 8    1  0.3186330E-007  0.9118800E+02  0.7816164E-02  0.1184000E+00
        -11   -1    0    0    0    0  0.00000000000E+00  0.00000000000E+00  0.45593999997E+02  0.45594000000E+02  0.51100000000E-03 0. -1.
         11   -1    0    0    0    0 -0.00000000000E+00 -0.00000000000E+00 -0.45593999997E+02  0.45594000000E+02  0.51100000000E-03 0.  1.
         23    2    1    2    0    0  0.00000000000E+00  0.00000000000E+00  0.00000000000E+00  0.91188000000E+02  0.91188000000E+02 0.  0.
    9900012    2    3    3    0    0 -0.28575320560E+02  0.16536818206E+02  0.16302296098E+02  0.54367079866E+02  0.39999990170E+02 0.  0.
        -12    1    3    3    0    0  0.28575320560E+02 -0.16536818206E+02 -0.16302296098E+02  0.36820920134E+02  0.00000000000E+00 0.  1.
         11    1    4    4    0    0 -0.11287811462E+02  0.13614959243E+02  0.14215262532E+01  0.17742675670E+02  0.51100000000E-03 0. -1.
        -11    1    4    4    0    0  0.15241068688E+01  0.79565581282E+01 -0.44012934798E+01  0.92196043055E+01  0.51100000000E-03 0.  1.
        -12    1    4    4    0    0 -0.18811615967E+02 -0.50346991653E+01  0.19282063324E+02  0.27404799890E+02  0.00000000000E+00 0.  1.
</event>
<event>
 8    1  0.3186330E-007  0.9118800E+02  0.7816164E-02  0.1184000E+00
        -11   -1    0    0    0    0  0.00000000000E+00  0.00000000000E+00  0.45593999997E+02  0.45594000000E+02  0.51100000000E-03 0.  1.
         11   -1    0    0    0    0 -0.00000000000E+00 -0.00000000000E+00 -0.45593999997E+02  0.45594000000E+02  0.51100000000E-03 0. -1.
         23    2    1    2    0    0  0.17763568394E-14  0.17763568394E-14  0.00000000000E+00  0.91188000000E+02  0.91188000000E+02 0.  0.
    9900012    2    3    3    0    0 -0.78916663844E+01 -0.90542868745E+01  0.34806911075E+02  0.54367087902E+02  0.40000008491E+02 0.  0.
         12    1    3    3    0    0  0.78916663844E+01  0.90542868745E+01 -0.34806911075E+02  0.36820912098E+02  0.00000000000E+00 0. -1.
         11    1    4    4    0    0  0.11424396679E+02 -0.11112595271E+02  0.15780101020E+02  0.22428067273E+02  0.51100000000E-03 0. -1.
        -11    1    4    4    0    0 -0.21901286265E+02 -0.64579549943E+00  0.16140859408E+02  0.27214164227E+02  0.51100000000E-03 0.  1.
        -12    1    4    4    0    0  0.25852232020E+01  0.27041038962E+01  0.28859506472E+01  0.47248564025E+01  0.00000000000E+00 0.  1.
</event>
<event>
 8    1  0.3186330E-007  0.9118800E+02  0.7816164E-02  0.1184000E+00
        -11   -1    0    0    0    0  0.00000000000E+00  0.00000000000E+00  0.45593999997E+02  0.45594000000E+02  0.51100000000E-03 0.  1.
         11   -1    0    0    0    0 -0.00000000000E+00 -0.00000000000E+00 -0.45593999997E+02  0.45594000000E+02  0.51100000000E-03 0. -1.
         23    2    1    2    0    0  0.00000000000E+00  0.88817841970E-15 -0.35527136788E-14  0.91188000000E+02  0.91188000000E+02 0.  0.
    9900012    2    3    3    0    0  0.31491812618E+02 -0.57530148429E+01  0.18191994153E+02  0.54367080770E+02  0.39999992230E+02 0.  0.
        -12    1    3    3    0    0 -0.31491812618E+02  0.57530148429E+01 -0.18191994153E+02  0.36820919230E+02  0.00000000000E+00 0.  1.
         11    1    4    4    0    0 -0.40842377262E+01 -0.65894138745E+01  0.63387531201E+01  0.10014048352E+02  0.51100000000E-03 0.  1.
        -11    1    4    4    0    0  0.36288326589E+02  0.36553526071E+00  0.40638663878E+01  0.36516999780E+02  0.51100000000E-03 0. -1.
         12    1    4    4    0    0 -0.71227624557E+00  0.47086377082E+00  0.77893746447E+01  0.78360326375E+01  0.00000000000E+00 0. -1.
</event>
<event>
 8    1  0.3186330E-007  0.9118800E+02  0.7816164E-02  0.1184000E+00
        -11   -1    0    0    0    0  0.00000000000E+00  0.00000000000E+00  0.45593999997E+02  0.45594000000E+02  0.51100000000E-03 0.  1.
         11   -1    0    0    0    0 -0.00000000000E+00 -0.00000000000E+00 -0.45593999997E+02  0.45594000000E+02  0.51100000000E-03 0. -1.
         23    2    1    2    0    0  0.00000000000E+00  0.00000000000E+00 -0.88817841970E-15  0.91188000000E+02  0.91188000000E+02 0.  0.
    9900012    2    3    3    0    0  0.31619903023E+02  0.18133121962E+02  0.52106181878E+01  0.54367096682E+02  0.40000028506E+02 0.  0.
        -12    1    3    3    0    0 -0.31619903023E+02 -0.18133121962E+02 -0.52106181878E+01  0.36820903318E+02  0.00000000000E+00 0.  1.
         11    1    4    4    0    0  0.75187647130E+01  0.22727792742E+01 -0.36269472725E+01  0.86517105371E+01  0.51100000000E-03 0. -1.
        -11    1    4    4    0    0 -0.69080605010E+01  0.11511866398E+02  0.11616824294E+01  0.13475677132E+02  0.51100000000E-03 0.  1.
        -12    1    4    4    0    0  0.31009198811E+02  0.43484762902E+01  0.76758830309E+01  0.32239709013E+02  0.00000000000E+00 0.  1.
</event>
<event>
 8    1  0.3186330E-007  0.9118800E+02  0.7816164E-02  0.1184000E+00
        -11   -1    0    0    0    0  0.00000000000E+00  0.00000000000E+00  0.45593999997E+02  0.45594000000E+02  0.51100000000E-03 0.  1.
         11   -1    0    0    0    0 -0.00000000000E+00 -0.00000000000E+00 -0.45593999997E+02  0.45594000000E+02  0.51100000000E-03 0. -1.
         23    2    1    2    0    0  0.00000000000E+00  0.00000000000E+00  0.17763568394E-14  0.91188000000E+02  0.91188000000E+02 0.  0.
    9900012    2    3    3    0    0 -0.32722374292E+02 -0.10980721618E+02 -0.12823588030E+02  0.54367157580E+02  0.40000167336E+02 0.  0.
        -12    1    3    3    0    0  0.32722374292E+02  0.10980721618E+02  0.12823588030E+02  0.36820842420E+02  0.00000000000E+00 0.  1.
         11    1    4    4    0    0 -0.10137879921E+02 -0.14965353590E+02 -0.35824190299E+01  0.18427483381E+02  0.51100000000E-03 0. -1.
        -11    1    4    4    0    0 -0.27774949592E+02 -0.28720452032E+00 -0.57518454734E+01  0.28365719414E+02  0.51100000000E-03 0.  1.
        -12    1    4    4    0    0  0.51904552214E+01  0.42718364925E+01 -0.34893235263E+01  0.75739547857E+01  0.00000000000E+00 0.  1.
</event>
<event>
 8    1  0.3186330E-007  0.9118800E+02  0.7816164E-02  0.1184000E+00
        -11   -1    0    0    0    0  0.00000000000E+00  0.00000000000E+00  0.45593999997E+02  0.45594000000E+02  0.51100000000E-03 0.  1.
         11   -1    0    0    0    0 -0.00000000000E+00 -0.00000000000E+00 -0.45593999997E+02  0.45594000000E+02  0.51100000000E-03 0. -1.
         23    2    1    2    0    0  0.00000000000E+00 -0.88817841970E-15  0.35527136788E-14  0.91188000000E+02  0.91188000000E+02 0.  0.
    9900012    2    3    3    0    0 -0.23238852410E+02 -0.49218183898E+01  0.28133735214E+02  0.54367141581E+02  0.40000130862E+02 0.  0.
         12    1    3    3    0    0  0.23238852410E+02  0.49218183898E+01 -0.28133735214E+02  0.36820858419E+02  0.00000000000E+00 0. -1.
         11    1    4    4    0    0 -0.40820320588E+01  0.35208379663E+01 -0.40454589368E+01  0.67398088982E+01  0.51100000000E-03 0. -1.
        -11    1    4    4    0    0 -0.24789317129E+02 -0.23014967164E+00  0.19718689268E+02  0.31676330585E+02  0.51100000000E-03 0.  1.
         12    1    4    4    0    0  0.56324967779E+01 -0.82125066845E+01  0.12460504883E+02  0.15951002098E+02  0.00000000000E+00 0. -1.
</event>
<event>
 8    1  0.3186330E-007  0.9118800E+02  0.7816164E-02  0.1184000E+00
        -11   -1    0    0    0    0  0.00000000000E+00  0.00000000000E+00  0.45593999997E+02  0.45594000000E+02  0.51100000000E-03 0.  1.
         11   -1    0    0    0    0 -0.00000000000E+00 -0.00000000000E+00 -0.45593999997E+02  0.45594000000E+02  0.51100000000E-03 0. -1.
         23    2    1    2    0    0  0.17763568394E-14  0.00000000000E+00  0.00000000000E+00  0.91188000000E+02  0.91188000000E+02 0.  0.
    9900012    2    3    3    0    0 -0.96426652569E+01 -0.17276075545E+02  0.31053808392E+02  0.54367044077E+02  0.39999908581E+02 0.  0.
         12    1    3    3    0    0  0.96426652569E+01  0.17276075545E+02 -0.31053808392E+02  0.36820955923E+02  0.00000000000E+00 0. -1.
         11    1    4    4    0    0 -0.90372426189E+00  0.63421317606E+01  0.53095073474E+01  0.83204700194E+01  0.51100000000E-03 0. -1.
        -11    1    4    4    0    0  0.55952094333E+01 -0.11965670887E+01  0.17153046427E+02  0.18082177507E+02  0.51100000000E-03 0.  1.
         12    1    4    4    0    0 -0.14334150428E+02 -0.22421640217E+02  0.85912546170E+01  0.27964396550E+02  0.00000000000E+00 0. -1.
</event>
<event>
 8    1  0.3186330E-007  0.9118800E+02  0.7816164E-02  0.1184000E+00
        -11   -1    0    0    0    0  0.00000000000E+00  0.00000000000E+00  0.45593999997E+02  0.45594000000E+02  0.51100000000E-03 0.  1.
         11   -1    0    0    0    0 -0.00000000000E+00 -0.00000000000E+00 -0.45593999997E+02  0.45594000000E+02  0.51100000000E-03 0. -1.
         23    2    1    2    0    0  0.00000000000E+00  0.71054273576E-14  0.21233015346E-14  0.91188000000E+02  0.91188000000E+02 0.  0.
    9900012    2    3    3    0    0 -0.23615948758E+02 -0.28249970126E+02  0.81135721392E-01  0.54367076181E+02  0.39999981771E+02 0.  0.
         12    1    3    3    0    0  0.23615948758E+02  0.28249970126E+02 -0.81135721392E-01  0.36820923819E+02  0.00000000000E+00 0. -1.
         11    1    4    4    0    0 -0.15676752114E+01 -0.20767012861E+02 -0.86514502908E+01  0.22551585778E+02  0.51100000000E-03 0. -1.
        -11    1    4    4    0    0 -0.11053046325E+02  0.37036849604E+01 -0.32215135968E+01  0.12094017756E+02  0.51100000000E-03 0.  1.
         12    1    4    4    0    0 -0.10995227221E+02 -0.11186642226E+02  0.11954099609E+02  0.19721472648E+02  0.00000000000E+00 0. -1.
</event>
<event>
 8    1  0.3186330E-007  0.9118800E+02  0.7816164E-02  0.1184000E+00
        -11   -1    0    0    0    0  0.00000000000E+00  0.00000000000E+00  0.45593999997E+02  0.45594000000E+02  0.51100000000E-03 0.  1.
         11   -1    0    0    0    0 -0.00000000000E+00 -0.00000000000E+00 -0.45593999997E+02  0.45594000000E+02  0.51100000000E-03 0. -1.
         23    2    1    2    0    0 -0.35527136788E-14  0.00000000000E+00 -0.22204460493E-15  0.91188000000E+02  0.91188000000E+02 0.  0.
    9900012    2    3    3    0    0 -0.27784941426E+02 -0.24148928086E+02  0.77839317744E+00  0.54367087549E+02  0.40000007686E+02 0.  0.
         12    1    3    3    0    0  0.27784941426E+02  0.24148928086E+02 -0.77839317744E+00  0.36820912451E+02  0.00000000000E+00 0. -1.
         11    1    4    4    0    0 -0.25595469061E+00  0.43686904040E+00 -0.59162607223E+01  0.59378875500E+01  0.51100000000E-03 0. -1.
        -11    1    4    4    0    0  0.28274677906E+01 -0.14355985801E+01  0.96313128857E+01  0.10139906585E+02  0.51100000000E-03 0.  1.
        -12    1    4    4    0    0 -0.30356454526E+02 -0.23150198546E+02 -0.29366589860E+01  0.38289293414E+02  0.00000000000E+00 0.  1.
</event>
<event>
 8    1  0.3186330E-007  0.9118800E+02  0.7816164E-02  0.1184000E+00
        -11   -1    0    0    0    0  0.00000000000E+00  0.00000000000E+00  0.45593999997E+02  0.45594000000E+02  0.51100000000E-03 0.  1.
         11   -1    0    0    0    0 -0.00000000000E+00 -0.00000000000E+00 -0.45593999997E+02  0.45594000000E+02  0.51100000000E-03 0. -1.
         23    2    1    2    0    0  0.35527136788E-14 -0.88817841970E-15 -0.35527136788E-14  0.91188000000E+02  0.91188000000E+02 0.  0.
    9900012    2    3    3    0    0 -0.29575359865E+02  0.40097003578E+01  0.21563822321E+02  0.54367108631E+02  0.40000055747E+02 0.  0.
        -12    1    3    3    0    0  0.29575359865E+02 -0.40097003578E+01 -0.21563822321E+02  0.36820891369E+02  0.00000000000E+00 0.  1.
         11    1    4    4    0    0 -0.14350312404E+02  0.34743125263E+01 -0.48144889494E+01  0.15530023108E+02  0.51100000000E-03 0. -1.
        -11    1    4    4    0    0  0.19019830712E+01 -0.87816467269E+01  0.90372970794E+01  0.12743923948E+02  0.51100000000E-03 0.  1.
        -12    1    4    4    0    0 -0.17127030532E+02  0.93170345584E+01  0.17341014191E+02  0.26093161575E+02  0.00000000000E+00 0.  1.
</event>
<event>
 8    1  0.3186330E-007  0.9118800E+02  0.7816164E-02  0.1184000E+00
        -11   -1    0    0    0    0  0.00000000000E+00  0.00000000000E+00  0.45593999997E+02  0.45594000000E+02  0.51100000000E-03 0. -1.
         11   -1    0    0    0    0 -0.00000000000E+00 -0.00000000000E+00 -0.45593999997E+02  0.45594000000E+02  0.51100000000E-03 0.  1.
         23    2    1    2    0    0  0.35527136788E-14 -0.35527136788E-14  0.00000000000E+00  0.91188000000E+02  0.91188000000E+02 0.  0.
    9900012    2    3    3    0    0  0.18209744202E+02 -0.31997502976E+02 -0.58823675861E+00  0.54367068411E+02  0.39999964057E+02 0.  0.
         12    1    3    3    0    0 -0.18209744202E+02  0.31997502976E+02  0.58823675861E+00  0.36820931589E+02  0.00000000000E+00 0. -1.
         11    1    4    4    0    0 -0.93920482137E+01 -0.67351870058E+01 -0.53636083527E+01  0.12741334643E+02  0.51100000000E-03 0. -1.
        -11    1    4    4    0    0  0.19385612737E+02 -0.11883150550E+02  0.10326208888E+02  0.24972821996E+02  0.51100000000E-03 0.  1.
         12    1    4    4    0    0  0.82161796785E+01 -0.13379165420E+02 -0.55508372939E+01  0.16652911773E+02  0.00000000000E+00 0. -1.
</event>
<event>
 8    1  0.3186330E-007  0.9118800E+02  0.7816164E-02  0.1184000E+00
        -11   -1    0    0    0    0  0.00000000000E+00  0.00000000000E+00  0.45593999997E+02  0.45594000000E+02  0.51100000000E-03 0. -1.
         11   -1    0    0    0    0 -0.00000000000E+00 -0.00000000000E+00 -0.45593999997E+02  0.45594000000E+02  0.51100000000E-03 0.  1.
         23    2    1    2    0    0  0.35527136788E-14  0.00000000000E+00  0.17763568394E-14  0.91188000000E+02  0.91188000000E+02 0.  0.
    9900012    2    3    3    0    0  0.27719064405E+02  0.22790335166E+02 -0.82482471096E+01  0.54367088973E+02  0.40000010932E+02 0.  0.
         12    1    3    3    0    0 -0.27719064405E+02 -0.22790335166E+02  0.82482471096E+01  0.36820911027E+02  0.00000000000E+00 0. -1.
         11    1    4    4    0    0  0.21054808404E+02  0.14447994403E+01 -0.14533806403E+02  0.25624674265E+02  0.51100000000E-03 0. -1.
        -11    1    4    4    0    0 -0.24861270198E+00 -0.16878377375E+01 -0.25959716910E+01  0.31063924068E+01  0.51100000000E-03 0.  1.
        -12    1    4    4    0    0  0.69128687023E+01  0.23033373464E+02  0.88815309848E+01  0.25636022301E+02  0.00000000000E+00 0.  1.
</event>
<event>
 8    1  0.3186330E-007  0.9118800E+02  0.7816164E-02  0.1184000E+00
        -11   -1    0    0    0    0  0.00000000000E+00  0.00000000000E+00  0.45593999997E+02  0.45594000000E+02  0.51100000000E-03 0. -1.
         11   -1    0    0    0    0 -0.00000000000E+00 -0.00000000000E+00 -0.45593999997E+02  0.45594000000E+02  0.51100000000E-03 0.  1.
         23    2    1    2    0    0 -0.35527136788E-14  0.00000000000E+00  0.44408920985E-15  0.91188000000E+02  0.91188000000E+02 0.  0.
    9900012    2    3    3    0    0  0.23210654005E+02  0.28352629842E+02  0.36297344048E+01  0.54367067772E+02  0.39999962600E+02 0.  0.
        -12    1    3    3    0    0 -0.23210654005E+02 -0.28352629842E+02 -0.36297344048E+01  0.36820932228E+02  0.00000000000E+00 0.  1.
         11    1    4    4    0    0  0.89366451760E+01  0.11070427499E+02  0.18799447899E+02  0.23576200576E+02  0.51100000000E-03 0. -1.
        -11    1    4    4    0    0  0.34381816792E+01  0.53314712600E+01 -0.13063144115E+02  0.14522100863E+02  0.51100000000E-03 0.  1.
         12    1    4    4    0    0  0.10835827150E+02  0.11950731083E+02 -0.21065693792E+01  0.16268766333E+02  0.00000000000E+00 0. -1.
</event>
<event>
 8    1  0.3186330E-007  0.9118800E+02  0.7816164E-02  0.1184000E+00
        -11   -1    0    0    0    0  0.00000000000E+00  0.00000000000E+00  0.45593999997E+02  0.45594000000E+02  0.51100000000E-03 0.  1.
         11   -1    0    0    0    0 -0.00000000000E+00 -0.00000000000E+00 -0.45593999997E+02  0.45594000000E+02  0.51100000000E-03 0. -1.
         23    2    1    2    0    0  0.00000000000E+00  0.00000000000E+00  0.35527136788E-14  0.91188000000E+02  0.91188000000E+02 0.  0.
    9900012    2    3    3    0    0  0.14305087143E+02 -0.15720551554E+02  0.30066728831E+02  0.54367089610E+02  0.40000012384E+02 0.  0.
         12    1    3    3    0    0 -0.14305087143E+02  0.15720551554E+02 -0.30066728831E+02  0.36820910390E+02  0.00000000000E+00 0. -1.
         11    1    4    4    0    0  0.58983684163E+00  0.36465939940E+01 -0.29370260220E+01  0.47192878035E+01  0.51100000000E-03 0. -1.
        -11    1    4    4    0    0  0.21041834458E+01 -0.40066692083E+01  0.29783320705E+02  0.30125191761E+02  0.51100000000E-03 0.  1.
        -12    1    4    4    0    0  0.11611066856E+02 -0.15360476340E+02  0.32204341475E+01  0.19522610046E+02  0.00000000000E+00 0.  1.
</event>
<event>
 8    1  0.3186330E-007  0.9118800E+02  0.7816164E-02  0.1184000E+00
        -11   -1    0    0    0    0  0.00000000000E+00  0.00000000000E+00  0.45593999997E+02  0.45594000000E+02  0.51100000000E-03 0.  1.
         11   -1    0    0    0    0 -0.00000000000E+00 -0.00000000000E+00 -0.45593999997E+02  0.45594000000E+02  0.51100000000E-03 0. -1.
         23    2    1    2    0    0 -0.35527136788E-14  0.00000000000E+00  0.17763568394E-14  0.91188000000E+02  0.91188000000E+02 0.  0.
    9900012    2    3    3    0    0 -0.20395817933E+02 -0.29432024272E+02  0.85760285148E+01  0.54367058853E+02  0.39999942267E+02 0.  0.
         12    1    3    3    0    0  0.20395817933E+02  0.29432024272E+02 -0.85760285148E+01  0.36820941147E+02  0.00000000000E+00 0. -1.
         11    1    4    4    0    0 -0.98576488526E+01 -0.30993051631E+02  0.12402170492E+02  0.34807417651E+02  0.51100000000E-03 0. -1.
        -11    1    4    4    0    0 -0.77053589242E+01  0.51050278082E+01  0.43450207840E+01  0.10213377059E+02  0.51100000000E-03 0.  1.
         12    1    4    4    0    0 -0.28328101559E+01 -0.35440004487E+01 -0.81711627617E+01  0.93462641433E+01  0.00000000000E+00 0. -1.
</event>
<event>
 8    1  0.3186330E-007  0.9118800E+02  0.7816164E-02  0.1184000E+00
        -11   -1    0    0    0    0  0.00000000000E+00  0.00000000000E+00  0.45593999997E+02  0.45594000000E+02  0.51100000000E-03 0.  1.
         11   -1    0    0    0    0 -0.00000000000E+00 -0.00000000000E+00 -0.45593999997E+02  0.45594000000E+02  0.51100000000E-03 0. -1.
         23    2    1    2    0    0  0.00000000000E+00  0.35527136788E-14  0.00000000000E+00  0.91188000000E+02  0.91188000000E+02 0.  0.
    9900012    2    3    3    0    0  0.27001600249E+02  0.22155416798E+02  0.11654776585E+02  0.54367045005E+02  0.39999910697E+02 0.  0.
         12    1    3    3    0    0 -0.27001600249E+02 -0.22155416798E+02 -0.11654776585E+02  0.36820954995E+02  0.00000000000E+00 0. -1.
         11    1    4    4    0    0  0.15413130928E+02  0.17013722704E+01 -0.35088533363E+01  0.15898783746E+02  0.51100000000E-03 0. -1.
        -11    1    4    4    0    0  0.19652933358E+02  0.13846120925E+02  0.14379431229E+02  0.28012870203E+02  0.51100000000E-03 0.  1.
         12    1    4    4    0    0 -0.80644640371E+01  0.66079236029E+01  0.78419869260E+00  0.10455391056E+02  0.00000000000E+00 0. -1.
</event>
<event>
 8    1  0.3186330E-007  0.9118800E+02  0.7816164E-02  0.1184000E+00
        -11   -1    0    0    0    0  0.00000000000E+00  0.00000000000E+00  0.45593999997E+02  0.45594000000E+02  0.51100000000E-03 0. -1.
         11   -1    0    0    0    0 -0.00000000000E+00 -0.00000000000E+00 -0.45593999997E+02  0.45594000000E+02  0.51100000000E-03 0.  1.
         23    2    1    2    0    0  0.00000000000E+00  0.17763568394E-14  0.44408920985E-15  0.91188000000E+02  0.91188000000E+02 0.  0.
    9900012    2    3    3    0    0 -0.33205904489E+02  0.15887149514E+02  0.86392861364E+00  0.54367082232E+02  0.39999995565E+02 0.  0.
         12    1    3    3    0    0  0.33205904489E+02 -0.15887149514E+02 -0.86392861364E+00  0.36820917768E+02  0.00000000000E+00 0. -1.
         11    1    4    4    0    0 -0.27208445884E+02  0.11944274450E+02 -0.31391007655E+01  0.29880079877E+02  0.51100000000E-03 0. -1.
        -11    1    4    4    0    0 -0.33565461270E+01  0.11741074895E+02 -0.41525966750E+01  0.12898189834E+02  0.51100000000E-03 0.  1.
         12    1    4    4    0    0 -0.26409124779E+01 -0.77981998311E+01  0.81556260542E+01  0.11588812521E+02  0.00000000000E+00 0. -1.
</event>
<event>
 8    1  0.3186330E-007  0.9118800E+02  0.7816164E-02  0.1184000E+00
        -11   -1    0    0    0    0  0.00000000000E+00  0.00000000000E+00  0.45593999997E+02  0.45594000000E+02  0.51100000000E-03 0.  1.
         11   -1    0    0    0    0 -0.00000000000E+00 -0.00000000000E+00 -0.45593999997E+02  0.45594000000E+02  0.51100000000E-03 0. -1.
         23    2    1    2    0    0  0.71054273576E-14 -0.44408920985E-15  0.17763568394E-14  0.91188000000E+02  0.91188000000E+02 0.  0.
    9900012    2    3    3    0    0  0.33114837370E+02 -0.33551310969E+01  0.15745821976E+02  0.54367078388E+02  0.39999986800E+02 0.  0.
         12    1    3    3    0    0 -0.33114837370E+02  0.33551310969E+01 -0.15745821976E+02  0.36820921612E+02  0.00000000000E+00 0. -1.
         11    1    4    4    0    0 -0.60552814749E+01 -0.35944313827E+01 -0.95877161698E+00  0.71067301891E+01  0.51100000000E-03 0. -1.
        -11    1    4    4    0    0  0.30647087294E+02  0.59589170641E+01  0.19258609670E+02  0.36683057382E+02  0.51100000000E-03 0.  1.
         12    1    4    4    0    0  0.85230315502E+01 -0.57196167783E+01 -0.25540160774E+01  0.10577290817E+02  0.00000000000E+00 0. -1.
</event>
<event>
 8    1  0.3186330E-007  0.9118800E+02  0.7816164E-02  0.1184000E+00
        -11   -1    0    0    0    0  0.00000000000E+00  0.00000000000E+00  0.45593999997E+02  0.45594000000E+02  0.51100000000E-03 0.  1.
         11   -1    0    0    0    0 -0.00000000000E+00 -0.00000000000E+00 -0.45593999997E+02  0.45594000000E+02  0.51100000000E-03 0. -1.
         23    2    1    2    0    0  0.00000000000E+00  0.00000000000E+00  0.35527136788E-14  0.91188000000E+02  0.91188000000E+02 0.  0.
    9900012    2    3    3    0    0  0.14086735437E+02  0.12551032120E+02 -0.31619849489E+02  0.54367090122E+02  0.40000013550E+02 0.  0.
        -12    1    3    3    0    0 -0.14086735437E+02 -0.12551032120E+02  0.31619849489E+02  0.36820909878E+02  0.00000000000E+00 0.  1.
         11    1    4    4    0    0  0.10789840617E+02  0.19684307713E+01 -0.19469073577E+02  0.22345921472E+02  0.51100000000E-03 0. -1.
        -11    1    4    4    0    0  0.91686843046E+01  0.11134180654E+01  0.57909087141E+01  0.10901334582E+02  0.51100000000E-03 0.  1.
         12    1    4    4    0    0 -0.58717894845E+01  0.94691832829E+01 -0.17941684627E+02  0.21119834068E+02  0.00000000000E+00 0. -1.
</event>
<event>
 8    1  0.3186330E-007  0.9118800E+02  0.7816164E-02  0.1184000E+00
        -11   -1    0    0    0    0  0.00000000000E+00  0.00000000000E+00  0.45593999997E+02  0.45594000000E+02  0.51100000000E-03 0. -1.
         11   -1    0    0    0    0 -0.00000000000E+00 -0.00000000000E+00 -0.45593999997E+02  0.45594000000E+02  0.51100000000E-03 0.  1.
         23    2    1    2    0    0 -0.35527136788E-14  0.35527136788E-14  0.17763568394E-14  0.91188000000E+02  0.91188000000E+02 0.  0.
    9900012    2    3    3    0    0 -0.26524989164E+02 -0.22571624012E+02 -0.11946807804E+02  0.54367089128E+02  0.40000011286E+02 0.  0.
         12    1    3    3    0    0  0.26524989164E+02  0.22571624012E+02  0.11946807804E+02  0.36820910872E+02  0.00000000000E+00 0. -1.
         11    1    4    4    0    0 -0.16587551766E+02  0.65089088649E+01 -0.38801993066E+01  0.18236466629E+02  0.51100000000E-03 0. -1.
        -11    1    4    4    0    0 -0.13108700618E+02 -0.25748318706E+02 -0.10722864961E+02  0.30818724524E+02  0.51100000000E-03 0.  1.
        -12    1    4    4    0    0  0.31712632198E+01 -0.33322141715E+01  0.26562564637E+01  0.53118979749E+01  0.00000000000E+00 0.  1.
</event>
<event>
 8    1  0.3186330E-007  0.9118800E+02  0.7816164E-02  0.1184000E+00
        -11   -1    0    0    0    0  0.00000000000E+00  0.00000000000E+00  0.45593999997E+02  0.45594000000E+02  0.51100000000E-03 0.  1.
         11   -1    0    0    0    0 -0.00000000000E+00 -0.00000000000E+00 -0.45593999997E+02  0.45594000000E+02  0.51100000000E-03 0. -1.
         23    2    1    2    0    0  0.33306690739E-15  0.00000000000E+00 -0.35527136788E-14  0.91188000000E+02  0.91188000000E+02 0.  0.
    9900012    2    3    3    0    0  0.30453995893E+00  0.29072642062E+02  0.22593520308E+02  0.54367103474E+02  0.40000043990E+02 0.  0.
         12    1    3    3    0    0 -0.30453995893E+00 -0.29072642062E+02 -0.22593520308E+02  0.36820896526E+02  0.00000000000E+00 0. -1.
         11    1    4    4    0    0  0.12288191308E+02  0.95830826914E+01  0.10260507324E+02  0.18657790070E+02  0.51100000000E-03 0. -1.
        -11    1    4    4    0    0  0.75608152485E+01  0.67528671619E+01  0.28805510799E+01  0.10538724634E+02  0.51100000000E-03 0.  1.
         12    1    4    4    0    0 -0.19544466597E+02  0.12736692209E+02  0.94524619043E+01  0.25170588770E+02  0.00000000000E+00 0. -1.
</event>
<event>
 8    1  0.3186330E-007  0.9118800E+02  0.7816164E-02  0.1184000E+00
        -11   -1    0    0    0    0  0.00000000000E+00  0.00000000000E+00  0.45593999997E+02  0.45594000000E+02  0.51100000000E-03 0.  1.
         11   -1    0    0    0    0 -0.00000000000E+00 -0.00000000000E+00 -0.45593999997E+02  0.45594000000E+02  0.51100000000E-03 0. -1.
         23    2    1    2    0    0  0.35527136788E-14 -0.35527136788E-14  0.35527136788E-14  0.91188000000E+02  0.91188000000E+02 0.  0.
    9900012    2    3    3    0    0 -0.20854564823E+02  0.21442032306E+02 -0.21473367736E+02  0.54367093639E+02  0.40000021568E+02 0.  0.
        -12    1    3    3    0    0  0.20854564823E+02 -0.21442032306E+02  0.21473367736E+02  0.36820906361E+02  0.00000000000E+00 0.  1.
         11    1    4    4    0    0 -0.11562743143E+02  0.20402251634E+02 -0.16087108499E+02  0.28438424022E+02  0.51100000000E-03 0. -1.
        -11    1    4    4    0    0  0.41277182168E+01 -0.24288946118E+00  0.66670790534E+01  0.78451893752E+01  0.51100000000E-03 0.  1.
        -12    1    4    4    0    0 -0.13419539897E+02  0.12826701331E+01 -0.12053338290E+02  0.18083480241E+02  0.00000000000E+00 0.  1.
</event>
<event>
 8    1  0.3186330E-007  0.9118800E+02  0.7816164E-02  0.1184000E+00
        -11   -1    0    0    0    0  0.00000000000E+00  0.00000000000E+00  0.45593999997E+02  0.45594000000E+02  0.51100000000E-03 0.  1.
         11   -1    0    0    0    0 -0.00000000000E+00 -0.00000000000E+00 -0.45593999997E+02  0.45594000000E+02  0.51100000000E-03 0. -1.
         23    2    1    2    0    0  0.00000000000E+00  0.00000000000E+00  0.00000000000E+00  0.91188000000E+02  0.91188000000E+02 0.  0.
    9900012    2    3    3    0    0 -0.21411868548E+02 -0.20370863734E+02 -0.21962255502E+02  0.54367070208E+02  0.39999968153E+02 0.  0.
        -12    1    3    3    0    0  0.21411868548E+02  0.20370863734E+02  0.21962255502E+02  0.36820929792E+02  0.00000000000E+00 0.  1.
         11    1    4    4    0    0 -0.23150495497E+02  0.15192913396E+00 -0.17030294559E+02  0.28740206284E+02  0.51100000000E-03 0. -1.
        -11    1    4    4    0    0  0.61251461543E+01 -0.38941103596E+01 -0.42604701281E+01  0.84162412559E+01  0.51100000000E-03 0.  1.
         12    1    4    4    0    0 -0.43865192056E+01 -0.16628682509E+02 -0.67149081515E+00  0.17210622668E+02  0.00000000000E+00 0. -1.
</event>
<event>
 8    1  0.3186330E-007  0.9118800E+02  0.7816164E-02  0.1184000E+00
        -11   -1    0    0    0    0  0.00000000000E+00  0.00000000000E+00  0.45593999997E+02  0.45594000000E+02  0.51100000000E-03 0. -1.
         11   -1    0    0    0    0 -0.00000000000E+00 -0.00000000000E+00 -0.45593999997E+02  0.45594000000E+02  0.51100000000E-03 0.  1.
         23    2    1    2    0    0  0.35527136788E-14  0.00000000000E+00 -0.17763568394E-14  0.91188000000E+02  0.91188000000E+02 0.  0.
    9900012    2    3    3    0    0 -0.24220570872E+02  0.25326477765E+02  0.11300843244E+02  0.54367141952E+02  0.40000131708E+02 0.  0.
        -12    1    3    3    0    0  0.24220570872E+02 -0.25326477765E+02 -0.11300843244E+02  0.36820858048E+02  0.00000000000E+00 0.  1.
         11    1    4    4    0    0 -0.13781455836E+02  0.29529400411E+02  0.16815548222E+02  0.36669833322E+02  0.51100000000E-03 0. -1.
        -11    1    4    4    0    0 -0.71296439470E+01  0.29696798160E+01  0.54332695714E+00  0.77424818672E+01  0.51100000000E-03 0.  1.
         12    1    4    4    0    0 -0.33094710892E+01 -0.71726024618E+01 -0.60580319346E+01  0.99548267632E+01  0.00000000000E+00 0. -1.
</event>
<event>
 8    1  0.3186330E-007  0.9118800E+02  0.7816164E-02  0.1184000E+00
        -11   -1    0    0    0    0  0.00000000000E+00  0.00000000000E+00  0.45593999997E+02  0.45594000000E+02  0.51100000000E-03 0. -1.
         11   -1    0    0    0    0 -0.00000000000E+00 -0.00000000000E+00 -0.45593999997E+02  0.45594000000E+02  0.51100000000E-03 0.  1.
         23    2    1    2    0    0  0.00000000000E+00  0.35527136788E-14  0.00000000000E+00  0.91188000000E+02  0.91188000000E+02 0.  0.
    9900012    2    3    3    0    0 -0.27169139494E+02  0.23582140648E+02 -0.78422259252E+01  0.54367081952E+02  0.39999994927E+02 0.  0.
        -12    1    3    3    0    0  0.27169139494E+02 -0.23582140648E+02  0.78422259252E+01  0.36820918048E+02  0.00000000000E+00 0.  1.
         11    1    4    4    0    0 -0.93324983363E+01 -0.10930278560E+01  0.73654272324E+01  0.11939001368E+02  0.51100000000E-03 0. -1.
        -11    1    4    4    0    0 -0.10056767572E+02 -0.19819463793E+01 -0.97115163698E+01  0.14120206653E+02  0.51100000000E-03 0.  1.
         12    1    4    4    0    0 -0.77798735858E+01  0.26657114884E+02 -0.54961367878E+01  0.28307873931E+02  0.00000000000E+00 0. -1.
</event>
<event>
 8    1  0.3186330E-007  0.9118800E+02  0.7816164E-02  0.1184000E+00
        -11   -1    0    0    0    0  0.00000000000E+00  0.00000000000E+00  0.45593999997E+02  0.45594000000E+02  0.51100000000E-03 0.  1.
         11   -1    0    0    0    0 -0.00000000000E+00 -0.00000000000E+00 -0.45593999997E+02  0.45594000000E+02  0.51100000000E-03 0. -1.
         23    2    1    2    0    0  0.00000000000E+00  0.00000000000E+00  0.00000000000E+00  0.91188000000E+02  0.91188000000E+02 0.  0.
    9900012    2    3    3    0    0 -0.94084899430E+01  0.15193092435E+02 -0.32193690799E+02  0.54367034939E+02  0.39999887751E+02 0.  0.
        -12    1    3    3    0    0  0.94084899430E+01 -0.15193092435E+02  0.32193690799E+02  0.36820965061E+02  0.00000000000E+00 0.  1.
         11    1    4    4    0    0  0.42930111744E+01 -0.11029948769E+01 -0.85165984418E+00  0.45135205099E+01  0.51100000000E-03 0. -1.
        -11    1    4    4    0    0 -0.53302959701E+01  0.22530167786E+02 -0.31882615735E+02  0.39402052002E+02  0.51100000000E-03 0.  1.
        -12    1    4    4    0    0 -0.83712051474E+01 -0.62340804739E+01  0.54058477989E+00  0.10451462428E+02  0.00000000000E+00 0.  1.
</event>
<event>
 8    1  0.3186330E-007  0.9118800E+02  0.7816164E-02  0.1184000E+00
        -11   -1    0    0    0    0  0.00000000000E+00  0.00000000000E+00  0.45593999997E+02  0.45594000000E+02  0.51100000000E-03 0.  1.
         11   -1    0    0    0    0 -0.00000000000E+00 -0.00000000000E+00 -0.45593999997E+02  0.45594000000E+02  0.51100000000E-03 0. -1.
         23    2    1    2    0    0  0.00000000000E+00  0.00000000000E+00  0.00000000000E+00  0.91188000000E+02  0.91188000000E+02 0.  0.
    9900012    2    3    3    0    0  0.21815588215E+02 -0.80969262524E+01  0.28535937237E+02  0.54367084504E+02  0.40000000745E+02 0.  0.
         12    1    3    3    0    0 -0.21815588215E+02  0.80969262524E+01 -0.28535937237E+02  0.36820915496E+02  0.00000000000E+00 0. -1.
         11    1    4    4    0    0 -0.36354973344E+01 -0.69175480857E+01 -0.99177067209E+00  0.78773676894E+01  0.51100000000E-03 0. -1.
        -11    1    4    4    0    0  0.15562086991E+02  0.15821154259E+01  0.44587737639E+00  0.15648656417E+02  0.51100000000E-03 0.  1.
        -12    1    4    4    0    0  0.98889985583E+01 -0.27614935926E+01  0.29081830533E+02  0.30841060399E+02  0.00000000000E+00 0.  1.
</event>
<event>
 8    1  0.3186330E-007  0.9118800E+02  0.7816164E-02  0.1184000E+00
        -11   -1    0    0    0    0  0.00000000000E+00  0.00000000000E+00  0.45593999997E+02  0.45594000000E+02  0.51100000000E-03 0.  1.
         11   -1    0    0    0    0 -0.00000000000E+00 -0.00000000000E+00 -0.45593999997E+02  0.45594000000E+02  0.51100000000E-03 0. -1.
         23    2    1    2    0    0  0.00000000000E+00  0.00000000000E+00  0.00000000000E+00  0.91188000000E+02  0.91188000000E+02 0.  0.
    9900012    2    3    3    0    0 -0.75908233782E+01 -0.24989902826E+02  0.25955036213E+02  0.54367085458E+02  0.40000002920E+02 0.  0.
         12    1    3    3    0    0  0.75908233782E+01  0.24989902826E+02 -0.25955036213E+02  0.36820914542E+02  0.00000000000E+00 0. -1.
         11    1    4    4    0    0 -0.18400665946E+01 -0.25595865950E+02  0.28466880781E-02  0.25661921346E+02  0.51100000000E-03 0. -1.
        -11    1    4    4    0    0  0.22009815498E+01  0.55495544469E+00  0.14999299270E+02  0.15170078253E+02  0.51100000000E-03 0.  1.
        -12    1    4    4    0    0 -0.79517383334E+01  0.51007678388E-01  0.10952890255E+02  0.13535085860E+02  0.00000000000E+00 0.  1.
</event>
<event>
 8    1  0.3186330E-007  0.9118800E+02  0.7816164E-02  0.1184000E+00
        -11   -1    0    0    0    0  0.00000000000E+00  0.00000000000E+00  0.45593999997E+02  0.45594000000E+02  0.51100000000E-03 0.  1.
         11   -1    0    0    0    0 -0.00000000000E+00 -0.00000000000E+00 -0.45593999997E+02  0.45594000000E+02  0.51100000000E-03 0. -1.
         23    2    1    2    0    0  0.17763568394E-14  0.71054273576E-14  0.00000000000E+00  0.91188000000E+02  0.91188000000E+02 0.  0.
    9900012    2    3    3    0    0 -0.98759516788E+01 -0.32861839108E+02 -0.13354523578E+02  0.54367106595E+02  0.40000051104E+02 0.  0.
        -12    1    3    3    0    0  0.98759516788E+01  0.32861839108E+02  0.13354523578E+02  0.36820893405E+02  0.00000000000E+00 0.  1.
         11    1    4    4    0    0  0.64675725752E+01  0.13137178035E+01 -0.10233250535E+02  0.12176812648E+02  0.51100000000E-03 0. -1.
        -11    1    4    4    0    0  0.91285361912E+00 -0.35697943711E+01  0.49196774511E+01  0.61465404958E+01  0.51100000000E-03 0.  1.
         12    1    4    4    0    0 -0.17256377873E+02 -0.30605762541E+02 -0.80409504947E+01  0.36043753451E+02  0.00000000000E+00 0. -1.
</event>
<event>
 8    1  0.3186330E-007  0.9118800E+02  0.7816164E-02  0.1184000E+00
        -11   -1    0    0    0    0  0.00000000000E+00  0.00000000000E+00  0.45593999997E+02  0.45594000000E+02  0.51100000000E-03 0.  1.
         11   -1    0    0    0    0 -0.00000000000E+00 -0.00000000000E+00 -0.45593999997E+02  0.45594000000E+02  0.51100000000E-03 0. -1.
         23    2    1    2    0    0  0.00000000000E+00  0.00000000000E+00  0.35527136788E-14  0.91188000000E+02  0.91188000000E+02 0.  0.
    9900012    2    3    3    0    0  0.29220102334E+02  0.34236010994E+01  0.22141476056E+02  0.54367076779E+02  0.39999983133E+02 0.  0.
         12    1    3    3    0    0 -0.29220102334E+02 -0.34236010994E+01 -0.22141476056E+02  0.36820923221E+02  0.00000000000E+00 0. -1.
         11    1    4    4    0    0 -0.56914104079E-01 -0.18562271417E+00  0.16151446540E+02  0.16152613430E+02  0.51100000000E-03 0. -1.
        -11    1    4    4    0    0  0.76582713238E+01  0.38844345813E+01  0.12917478273E+02  0.15511260325E+02  0.51100000000E-03 0.  1.
         12    1    4    4    0    0  0.21618745114E+02 -0.27521076772E+00 -0.69274487569E+01  0.22703203024E+02  0.00000000000E+00 0. -1.
</event>
<event>
 8    1  0.3186330E-007  0.9118800E+02  0.7816164E-02  0.1184000E+00
        -11   -1    0    0    0    0  0.00000000000E+00  0.00000000000E+00  0.45593999997E+02  0.45594000000E+02  0.51100000000E-03 0.  1.
         11   -1    0    0    0    0 -0.00000000000E+00 -0.00000000000E+00 -0.45593999997E+02  0.45594000000E+02  0.51100000000E-03 0. -1.
         23    2    1    2    0    0 -0.88817841970E-15  0.00000000000E+00  0.35527136788E-14  0.91188000000E+02  0.91188000000E+02 0.  0.
    9900012    2    3    3    0    0 -0.73814683338E+01  0.21941065529E+02 -0.28633545725E+02  0.54367131296E+02  0.40000107415E+02 0.  0.
        -12    1    3    3    0    0  0.73814683338E+01 -0.21941065529E+02  0.28633545725E+02  0.36820868704E+02  0.00000000000E+00 0.  1.
         11    1    4    4    0    0  0.12473636578E+01 -0.43694501772E+00 -0.18800466749E+02  0.18846866776E+02  0.51100000000E-03 0. -1.
        -11    1    4    4    0    0 -0.37177786497E+00 -0.17119220690E+01  0.55153051113E+01  0.57868373645E+01  0.51100000000E-03 0.  1.
         12    1    4    4    0    0 -0.82570541266E+01  0.24089932616E+02 -0.15348384088E+02  0.29733427155E+02  0.00000000000E+00 0. -1.
</event>
<event>
 8    1  0.3186330E-007  0.9118800E+02  0.7816164E-02  0.1184000E+00
        -11   -1    0    0    0    0  0.00000000000E+00  0.00000000000E+00  0.45593999997E+02  0.45594000000E+02  0.51100000000E-03 0.  1.
         11   -1    0    0    0    0 -0.00000000000E+00 -0.00000000000E+00 -0.45593999997E+02  0.45594000000E+02  0.51100000000E-03 0. -1.
         23    2    1    2    0    0 -0.17763568394E-14  0.35527136788E-14  0.00000000000E+00  0.91188000000E+02  0.91188000000E+02 0.  0.
    9900012    2    3    3    0    0  0.11057107937E+02 -0.31716696426E+02 -0.15085483345E+02  0.54367078286E+02  0.39999986568E+02 0.  0.
        -12    1    3    3    0    0 -0.11057107937E+02  0.31716696426E+02  0.15085483345E+02  0.36820921714E+02  0.00000000000E+00 0.  1.
         11    1    4    4    0    0  0.50775378350E+00 -0.27525297145E+02 -0.15504510084E+02  0.31595721705E+02  0.51100000000E-03 0. -1.
        -11    1    4    4    0    0  0.81895599719E+01  0.48884403586E+01 -0.61232202961E+01  0.11334000562E+02  0.51100000000E-03 0.  1.
         12    1    4    4    0    0  0.23597941816E+01 -0.90798396395E+01  0.65422470346E+01  0.11437356020E+02  0.00000000000E+00 0. -1.
</event>
<event>
 8    1  0.3186330E-007  0.9118800E+02  0.7816164E-02  0.1184000E+00
        -11   -1    0    0    0    0  0.00000000000E+00  0.00000000000E+00  0.45593999997E+02  0.45594000000E+02  0.51100000000E-03 0.  1.
         11   -1    0    0    0    0 -0.00000000000E+00 -0.00000000000E+00 -0.45593999997E+02  0.45594000000E+02  0.51100000000E-03 0. -1.
         23    2    1    2    0    0  0.88817841970E-15  0.00000000000E+00  0.13322676296E-14  0.91188000000E+02  0.91188000000E+02 0.  0.
    9900012    2    3    3    0    0 -0.66251457449E+01  0.36098740104E+02  0.29617404207E+01  0.54367034511E+02  0.39999886774E+02 0.  0.
        -12    1    3    3    0    0  0.66251457449E+01 -0.36098740104E+02 -0.29617404207E+01  0.36820965489E+02  0.00000000000E+00 0.  1.
         11    1    4    4    0    0 -0.20419347221E+01  0.18422090503E+02 -0.12538776301E+02  0.22377752955E+02  0.51100000000E-03 0. -1.
        -11    1    4    4    0    0 -0.41401084383E+01  0.19405817415E+02  0.38622584505E+01  0.20214927357E+02  0.51100000000E-03 0.  1.
        -12    1    4    4    0    0 -0.44310258448E+00 -0.17291678145E+01  0.11638258271E+02  0.11774354199E+02  0.00000000000E+00 0.  1.
</event>
<event>
 8    1  0.3186330E-007  0.9118800E+02  0.7816164E-02  0.1184000E+00
        -11   -1    0    0    0    0  0.00000000000E+00  0.00000000000E+00  0.45593999997E+02  0.45594000000E+02  0.51100000000E-03 0. -1.
         11   -1    0    0    0    0 -0.00000000000E+00 -0.00000000000E+00 -0.45593999997E+02  0.45594000000E+02  0.51100000000E-03 0.  1.
         23    2    1    2    0    0  0.11102230246E-15  0.00000000000E+00 -0.35527136788E-14  0.91188000000E+02  0.91188000000E+02 0.  0.
    9900012    2    3    3    0    0 -0.82054650927E+00 -0.32322527807E+02 -0.17617025603E+02  0.54367099800E+02  0.40000035615E+02 0.  0.
        -12    1    3    3    0    0  0.82054650927E+00  0.32322527807E+02  0.17617025603E+02  0.36820900200E+02  0.00000000000E+00 0.  1.
         11    1    4    4    0    0  0.28638868512E+01 -0.40786041142E+02 -0.13475380137E+02  0.43049841696E+02  0.51100000000E-03 0. -1.
        -11    1    4    4    0    0 -0.29513021490E+01  0.50779881159E+01  0.57625994296E-01  0.58736248345E+01  0.51100000000E-03 0.  1.
         12    1    4    4    0    0 -0.73313121143E+00  0.33855252190E+01 -0.41992714601E+01  0.54436332699E+01  0.00000000000E+00 0. -1.
</event>
<event>
 8    1  0.3186330E-007  0.9118800E+02  0.7816164E-02  0.1184000E+00
        -11   -1    0    0    0    0  0.00000000000E+00  0.00000000000E+00  0.45593999997E+02  0.45594000000E+02  0.51100000000E-03 0. -1.
         11   -1    0    0    0    0 -0.00000000000E+00 -0.00000000000E+00 -0.45593999997E+02  0.45594000000E+02  0.51100000000E-03 0.  1.
         23    2    1    2    0    0 -0.35527136788E-14  0.00000000000E+00  0.11102230246E-14  0.91188000000E+02  0.91188000000E+02 0.  0.
    9900012    2    3    3    0    0 -0.27461582863E+02  0.24501156633E+02 -0.11551902262E+01  0.54367086457E+02  0.40000005196E+02 0.  0.
        -12    1    3    3    0    0  0.27461582863E+02 -0.24501156633E+02  0.11551902262E+01  0.36820913543E+02  0.00000000000E+00 0.  1.
         11    1    4    4    0    0 -0.93650248946E+01  0.12766570249E+02  0.10593292474E+02  0.19050114249E+02  0.51100000000E-03 0. -1.
        -11    1    4    4    0    0 -0.97585121157E+01  0.17078437237E+02 -0.15168898000E+02  0.24839425194E+02  0.51100000000E-03 0.  1.
        -12    1    4    4    0    0 -0.83380458528E+01 -0.53438508540E+01  0.34204152998E+01  0.10477547013E+02  0.00000000000E+00 0.  1.
</event>
<event>
 8    1  0.3186330E-007  0.9118800E+02  0.7816164E-02  0.1184000E+00
        -11   -1    0    0    0    0  0.00000000000E+00  0.00000000000E+00  0.45593999997E+02  0.45594000000E+02  0.51100000000E-03 0. -1.
         11   -1    0    0    0    0 -0.00000000000E+00 -0.00000000000E+00 -0.45593999997E+02  0.45594000000E+02  0.51100000000E-03 0.  1.
         23    2    1    2    0    0 -0.88817841970E-15  0.17763568394E-14  0.00000000000E+00  0.91188000000E+02  0.91188000000E+02 0.  0.
    9900012    2    3    3    0    0 -0.53016871554E+01 -0.14360469198E+02 -0.33488084341E+02  0.54367044620E+02  0.39999909820E+02 0.  0.
         12    1    3    3    0    0  0.53016871554E+01  0.14360469198E+02  0.33488084341E+02  0.36820955380E+02  0.00000000000E+00 0. -1.
         11    1    4    4    0    0  0.36874485724E+01  0.27161813646E+01 -0.74708429617E+00  0.46403721172E+01  0.51100000000E-03 0. -1.
        -11    1    4    4    0    0 -0.14039049090E+02 -0.26046761199E+01 -0.31211827002E+02  0.34322840530E+02  0.51100000000E-03 0.  1.
         12    1    4    4    0    0  0.50499133618E+01 -0.14471974443E+02 -0.15291730431E+01  0.15403831972E+02  0.00000000000E+00 0. -1.
</event>
<event>
 8    1  0.3186330E-007  0.9118800E+02  0.7816164E-02  0.1184000E+00
        -11   -1    0    0    0    0  0.00000000000E+00  0.00000000000E+00  0.45593999997E+02  0.45594000000E+02  0.51100000000E-03 0. -1.
         11   -1    0    0    0    0 -0.00000000000E+00 -0.00000000000E+00 -0.45593999997E+02  0.45594000000E+02  0.51100000000E-03 0.  1.
         23    2    1    2    0    0 -0.35527136788E-14 -0.51070259133E-14  0.00000000000E+00  0.91188000000E+02  0.91188000000E+02 0.  0.
    9900012    2    3    3    0    0  0.21392208819E+02  0.77630765574E+00  0.29959132013E+02  0.54367097747E+02  0.40000030935E+02 0.  0.
        -12    1    3    3    0    0 -0.21392208819E+02 -0.77630765574E+00 -0.29959132013E+02  0.36820902253E+02  0.00000000000E+00 0.  1.
         11    1    4    4    0    0  0.13490289546E+02  0.60648000295E+01  0.15305011086E+02  0.21284103834E+02  0.51100000000E-03 0. -1.
        -11    1    4    4    0    0  0.43751930238E+01  0.11078014216E+02  0.19563608648E+01  0.12070296643E+02  0.51100000000E-03 0.  1.
         12    1    4    4    0    0  0.35267262496E+01 -0.16366506589E+02  0.12697760062E+02  0.21012697270E+02  0.00000000000E+00 0. -1.
</event>
<event>
 8    1  0.3186330E-007  0.9118800E+02  0.7816164E-02  0.1184000E+00
        -11   -1    0    0    0    0  0.00000000000E+00  0.00000000000E+00  0.45593999997E+02  0.45594000000E+02  0.51100000000E-03 0. -1.
         11   -1    0    0    0    0 -0.00000000000E+00 -0.00000000000E+00 -0.45593999997E+02  0.45594000000E+02  0.51100000000E-03 0.  1.
         23    2    1    2    0    0  0.35527136788E-14  0.88817841970E-15 -0.35527136788E-14  0.91188000000E+02  0.91188000000E+02 0.  0.
    9900012    2    3    3    0    0 -0.18893811143E+02  0.40814784574E+01  0.31339206938E+02  0.54367075821E+02  0.39999980949E+02 0.  0.
         12    1    3    3    0    0  0.18893811143E+02 -0.40814784574E+01 -0.31339206938E+02  0.36820924179E+02  0.00000000000E+00 0. -1.
         11    1    4    4    0    0 -0.10336379746E+02  0.88684729687E+01  0.11501944404E+02  0.17826533156E+02  0.51100000000E-03 0. -1.
        -11    1    4    4    0    0 -0.47643409673E+01  0.87758326079E+01  0.20112075625E+02  0.22454615762E+02  0.51100000000E-03 0.  1.
        -12    1    4    4    0    0 -0.37930904291E+01 -0.13562827119E+02 -0.27481308992E+00  0.14085926903E+02  0.00000000000E+00 0.  1.
</event>
<event>
 8    1  0.3186330E-007  0.9118800E+02  0.7816164E-02  0.1184000E+00
        -11   -1    0    0    0    0  0.00000000000E+00  0.00000000000E+00  0.45593999997E+02  0.45594000000E+02  0.51100000000E-03 0.  1.
         11   -1    0    0    0    0 -0.00000000000E+00 -0.00000000000E+00 -0.45593999997E+02  0.45594000000E+02  0.51100000000E-03 0. -1.
         23    2    1    2    0    0  0.00000000000E+00  0.44408920985E-15 -0.17763568394E-14  0.91188000000E+02  0.91188000000E+02 0.  0.
    9900012    2    3    3    0    0  0.33244425907E+02  0.35050623923E+01 -0.15437043712E+02  0.54367086991E+02  0.40000006412E+02 0.  0.
        -12    1    3    3    0    0 -0.33244425907E+02 -0.35050623923E+01  0.15437043712E+02  0.36820913009E+02  0.00000000000E+00 0.  1.
         11    1    4    4    0    0  0.27900527567E+02 -0.10493488204E+02 -0.18827179228E+02  0.35256423687E+02  0.51100000000E-03 0. -1.
        -11    1    4    4    0    0  0.98289260474E+00  0.50229847903E+01  0.68482158900E+01  0.85495330407E+01  0.51100000000E-03 0.  1.
        -12    1    4    4    0    0  0.43610057354E+01  0.89755658061E+01 -0.34580803740E+01  0.10561130263E+02  0.00000000000E+00 0.  1.
</event>
<event>
 8    1  0.3186330E-007  0.9118800E+02  0.7816164E-02  0.1184000E+00
        -11   -1    0    0    0    0  0.00000000000E+00  0.00000000000E+00  0.45593999997E+02  0.45594000000E+02  0.51100000000E-03 0. -1.
         11   -1    0    0    0    0 -0.00000000000E+00 -0.00000000000E+00 -0.45593999997E+02  0.45594000000E+02  0.51100000000E-03 0.  1.
         23    2    1    2    0    0  0.44408920985E-15  0.00000000000E+00  0.17763568394E-14  0.91188000000E+02  0.91188000000E+02 0.  0.
    9900012    2    3    3    0    0  0.15626172804E+01  0.35372837828E+02 -0.10104434953E+02  0.54367095143E+02  0.40000024997E+02 0.  0.
         12    1    3    3    0    0 -0.15626172804E+01 -0.35372837828E+02  0.10104434953E+02  0.36820904857E+02  0.00000000000E+00 0. -1.
         11    1    4    4    0    0 -0.45378710750E+01 -0.44147682835E+01  0.12527809644E+01  0.64538293513E+01  0.51100000000E-03 0. -1.
        -11    1    4    4    0    0  0.95107731797E+01  0.61503981458E+01  0.21084245716E+01  0.11520749032E+02  0.51100000000E-03 0.  1.
        -12    1    4    4    0    0 -0.34102848243E+01  0.33637207966E+02 -0.13465640489E+02  0.36392516759E+02  0.00000000000E+00 0.  1.
</event>
<event>
 8    1  0.3186330E-007  0.9118800E+02  0.7816164E-02  0.1184000E+00
        -11   -1    0    0    0    0  0.00000000000E+00  0.00000000000E+00  0.45593999997E+02  0.45594000000E+02  0.51100000000E-03 0.  1.
         11   -1    0    0    0    0 -0.00000000000E+00 -0.00000000000E+00 -0.45593999997E+02  0.45594000000E+02  0.51100000000E-03 0. -1.
         23    2    1    2    0    0  0.00000000000E+00  0.00000000000E+00  0.35527136788E-14  0.91188000000E+02  0.91188000000E+02 0.  0.
    9900012    2    3    3    0    0 -0.19506937887E+02 -0.18425845496E+02 -0.25214035853E+02  0.54367081870E+02  0.39999994738E+02 0.  0.
        -12    1    3    3    0    0  0.19506937887E+02  0.18425845496E+02  0.25214035853E+02  0.36820918130E+02  0.00000000000E+00 0.  1.
         11    1    4    4    0    0 -0.14401716021E+02  0.37124936523E+01 -0.19873597920E+02  0.24822407780E+02  0.51100000000E-03 0. -1.
        -11    1    4    4    0    0 -0.11420039060E+02 -0.18110677469E+02 -0.25943649908E+01  0.21567212627E+02  0.51100000000E-03 0.  1.
        -12    1    4    4    0    0  0.63148171934E+01 -0.40276616792E+01 -0.27460729420E+01  0.79774614628E+01  0.00000000000E+00 0.  1.
</event>
<event>
 8    1  0.3186330E-007  0.9118800E+02  0.7816164E-02  0.1184000E+00
        -11   -1    0    0    0    0  0.00000000000E+00  0.00000000000E+00  0.45593999997E+02  0.45594000000E+02  0.51100000000E-03 0.  1.
         11   -1    0    0    0    0 -0.00000000000E+00 -0.00000000000E+00 -0.45593999997E+02  0.45594000000E+02  0.51100000000E-03 0. -1.
         23    2    1    2    0    0  0.00000000000E+00 -0.88817841970E-15  0.00000000000E+00  0.91188000000E+02  0.91188000000E+02 0.  0.
    9900012    2    3    3    0    0 -0.28896356652E+02 -0.62002179279E+01  0.21962198115E+02  0.54367078283E+02  0.39999986561E+02 0.  0.
         12    1    3    3    0    0  0.28896356652E+02  0.62002179279E+01 -0.21962198115E+02  0.36820921717E+02  0.00000000000E+00 0. -1.
         11    1    4    4    0    0  0.18373311112E+01  0.75214043520E+01  0.98068663562E+01  0.12494876431E+02  0.51100000000E-03 0. -1.
        -11    1    4    4    0    0 -0.94913809893E+01  0.58127008044E+01  0.45833467331E+01  0.12036647011E+02  0.51100000000E-03 0.  1.
        -12    1    4    4    0    0 -0.21242306774E+02 -0.19534323084E+02  0.75719850252E+01  0.29835554841E+02  0.00000000000E+00 0.  1.
</event>
<event>
 8    1  0.3186330E-007  0.9118800E+02  0.7816164E-02  0.1184000E+00
        -11   -1    0    0    0    0  0.00000000000E+00  0.00000000000E+00  0.45593999997E+02  0.45594000000E+02  0.51100000000E-03 0. -1.
         11   -1    0    0    0    0 -0.00000000000E+00 -0.00000000000E+00 -0.45593999997E+02  0.45594000000E+02  0.51100000000E-03 0.  1.
         23    2    1    2    0    0  0.26645352591E-14  0.00000000000E+00 -0.35527136788E-14  0.91188000000E+02  0.91188000000E+02 0.  0.
    9900012    2    3    3    0    0 -0.74208277094E+01 -0.29907876252E+02  0.20155149846E+02  0.54367084598E+02  0.40000000957E+02 0.  0.
        -12    1    3    3    0    0  0.74208277094E+01  0.29907876252E+02 -0.20155149846E+02  0.36820915402E+02  0.00000000000E+00 0.  1.
         11    1    4    4    0    0 -0.14458163075E+02  0.13447172204E+01  0.58594746733E+01  0.15658230667E+02  0.51100000000E-03 0.  1.
        -11    1    4    4    0    0 -0.41976570645E+01 -0.15837695768E+02  0.33727209307E+01  0.16728065603E+02  0.51100000000E-03 0. -1.
        -12    1    4    4    0    0  0.11234992430E+02 -0.15414897704E+02  0.10922954242E+02  0.21980788327E+02  0.00000000000E+00 0.  1.
</event>
<event>
 8    1  0.3186330E-007  0.9118800E+02  0.7816164E-02  0.1184000E+00
        -11   -1    0    0    0    0  0.00000000000E+00  0.00000000000E+00  0.45593999997E+02  0.45594000000E+02  0.51100000000E-03 0.  1.
         11   -1    0    0    0    0 -0.00000000000E+00 -0.00000000000E+00 -0.45593999997E+02  0.45594000000E+02  0.51100000000E-03 0. -1.
         23    2    1    2    0    0  0.35527136788E-14  0.17763568394E-14  0.35527136788E-14  0.91188000000E+02  0.91188000000E+02 0.  0.
    9900012    2    3    3    0    0  0.23601679079E+02 -0.15510283060E+02  0.23625663903E+02  0.54367080256E+02  0.39999991060E+02 0.  0.
        -12    1    3    3    0    0 -0.23601679079E+02  0.15510283060E+02 -0.23625663903E+02  0.36820919744E+02  0.00000000000E+00 0.  1.
         11    1    4    4    0    0 -0.32532253576E+01 -0.10858493888E+01 -0.80337995900E+01  0.87352435705E+01  0.51100000000E-03 0.  1.
        -11    1    4    4    0    0  0.23176724196E+02 -0.15923710454E+02  0.23857143630E+02  0.36876664729E+02  0.51100000000E-03 0. -1.
        -12    1    4    4    0    0  0.36781802400E+01  0.14992767831E+01  0.78023198627E+01  0.87551719567E+01  0.00000000000E+00 0.  1.
</event>
<event>
 8    1  0.3186330E-007  0.9118800E+02  0.7816164E-02  0.1184000E+00
        -11   -1    0    0    0    0  0.00000000000E+00  0.00000000000E+00  0.45593999997E+02  0.45594000000E+02  0.51100000000E-03 0.  1.
         11   -1    0    0    0    0 -0.00000000000E+00 -0.00000000000E+00 -0.45593999997E+02  0.45594000000E+02  0.51100000000E-03 0. -1.
         23    2    1    2    0    0  0.22204460493E-15  0.35527136788E-14  0.71054273576E-14  0.91188000000E+02  0.91188000000E+02 0.  0.
    9900012    2    3    3    0    0  0.12418537044E+01  0.13514138027E+02  0.34228739561E+02  0.54367071995E+02  0.39999972226E+02 0.  0.
         12    1    3    3    0    0 -0.12418537044E+01 -0.13514138027E+02 -0.34228739561E+02  0.36820928005E+02  0.00000000000E+00 0. -1.
         11    1    4    4    0    0  0.30511673342E+01  0.10809355766E+02  0.69732701001E+01  0.13220374061E+02  0.51100000000E-03 0. -1.
        -11    1    4    4    0    0 -0.18533638224E+01  0.72036269439E+01  0.33012555554E+02  0.33840154005E+02  0.51100000000E-03 0.  1.
        -12    1    4    4    0    0  0.44050192580E-01 -0.44988446825E+01 -0.57570860932E+01  0.73065439286E+01  0.00000000000E+00 0.  1.
</event>
<event>
 8    1  0.3186330E-007  0.9118800E+02  0.7816164E-02  0.1184000E+00
        -11   -1    0    0    0    0  0.00000000000E+00  0.00000000000E+00  0.45593999997E+02  0.45594000000E+02  0.51100000000E-03 0.  1.
         11   -1    0    0    0    0 -0.00000000000E+00 -0.00000000000E+00 -0.45593999997E+02  0.45594000000E+02  0.51100000000E-03 0. -1.
         23    2    1    2    0    0  0.00000000000E+00  0.00000000000E+00  0.17763568394E-14  0.91188000000E+02  0.91188000000E+02 0.  0.
    9900012    2    3    3    0    0  0.24225026308E+02  0.22696596321E+02 -0.15930883699E+02  0.54367076062E+02  0.39999981499E+02 0.  0.
        -12    1    3    3    0    0 -0.24225026308E+02 -0.22696596321E+02  0.15930883699E+02  0.36820923938E+02  0.00000000000E+00 0.  1.
         11    1    4    4    0    0  0.47328599656E+01 -0.66114532549E+01  0.25988141811E+00  0.81350363372E+01  0.51100000000E-03 0. -1.
        -11    1    4    4    0    0 -0.29616851184E+01  0.11106096803E+02  0.25628863776E+01  0.11776474505E+02  0.51100000000E-03 0.  1.
        -12    1    4    4    0    0  0.22453851461E+02  0.18201952774E+02 -0.18753651495E+02  0.34455565220E+02  0.00000000000E+00 0.  1.
</event>
<event>
 8    1  0.3186330E-007  0.9118800E+02  0.7816164E-02  0.1184000E+00
        -11   -1    0    0    0    0  0.00000000000E+00  0.00000000000E+00  0.45593999997E+02  0.45594000000E+02  0.51100000000E-03 0. -1.
         11   -1    0    0    0    0 -0.00000000000E+00 -0.00000000000E+00 -0.45593999997E+02  0.45594000000E+02  0.51100000000E-03 0.  1.
         23    2    1    2    0    0 -0.17763568394E-14  0.00000000000E+00  0.00000000000E+00  0.91188000000E+02  0.91188000000E+02 0.  0.
    9900012    2    3    3    0    0 -0.13393616713E+02  0.96717381678E+01  0.32906675259E+02  0.54367071652E+02  0.39999971445E+02 0.  0.
        -12    1    3    3    0    0  0.13393616713E+02 -0.96717381678E+01 -0.32906675259E+02  0.36820928348E+02  0.00000000000E+00 0.  1.
         11    1    4    4    0    0 -0.95949905056E+01  0.58144082373E+01 -0.29608152339E+01  0.11603344908E+02  0.51100000000E-03 0.  1.
        -11    1    4    4    0    0  0.68856611943E+01 -0.10357309972E+01  0.27422127079E+02  0.28292368628E+02  0.51100000000E-03 0. -1.
         12    1    4    4    0    0 -0.10684287401E+02  0.48930609276E+01  0.84453634134E+01  0.14471358115E+02  0.00000000000E+00 0. -1.
</event>
<event>
 8    1  0.3186330E-007  0.9118800E+02  0.7816164E-02  0.1184000E+00
        -11   -1    0    0    0    0  0.00000000000E+00  0.00000000000E+00  0.45593999997E+02  0.45594000000E+02  0.51100000000E-03 0.  1.
         11   -1    0    0    0    0 -0.00000000000E+00 -0.00000000000E+00 -0.45593999997E+02  0.45594000000E+02  0.51100000000E-03 0. -1.
         23    2    1    2    0    0  0.71054273576E-14  0.22204460493E-15  0.00000000000E+00  0.91188000000E+02  0.91188000000E+02 0.  0.
    9900012    2    3    3    0    0 -0.36181705074E+02  0.25667580017E+00 -0.68263095313E+01  0.54367079773E+02  0.39999989959E+02 0.  0.
        -12    1    3    3    0    0  0.36181705074E+02 -0.25667580017E+00  0.68263095313E+01  0.36820920227E+02  0.00000000000E+00 0.  1.
         11    1    4    4    0    0 -0.17036005577E+02 -0.35424049136E+01  0.10671149226E+02  0.20411946126E+02  0.51100000000E-03 0. -1.
        -11    1    4    4    0    0 -0.18622486491E+02 -0.38600121723E+01 -0.18099908808E+02  0.26254588098E+02  0.51100000000E-03 0.  1.
         12    1    4    4    0    0 -0.52321300556E+00  0.76590928860E+01  0.60245005011E+00  0.77005455488E+01  0.00000000000E+00 0. -1.
</event>
<event>
 8    1  0.3186330E-007  0.9118800E+02  0.7816164E-02  0.1184000E+00
        -11   -1    0    0    0    0  0.00000000000E+00  0.00000000000E+00  0.45593999997E+02  0.45594000000E+02  0.51100000000E-03 0. -1.
         11   -1    0    0    0    0 -0.00000000000E+00 -0.00000000000E+00 -0.45593999997E+02  0.45594000000E+02  0.51100000000E-03 0.  1.
         23    2    1    2    0    0  0.44408920985E-15 -0.17763568394E-14  0.00000000000E+00  0.91188000000E+02  0.91188000000E+02 0.  0.
    9900012    2    3    3    0    0 -0.39347378853E+01  0.80112636919E+01 -0.35722774903E+02  0.54367093507E+02  0.40000021268E+02 0.  0.
         12    1    3    3    0    0  0.39347378853E+01 -0.80112636919E+01  0.35722774903E+02  0.36820906493E+02  0.00000000000E+00 0. -1.
         11    1    4    4    0    0  0.99053088685E+00  0.18398068002E+02 -0.51405254146E+01  0.19128383608E+02  0.51100000000E-03 0. -1.
        -11    1    4    4    0    0 -0.51191383223E+01 -0.93744527724E+01 -0.10003200911E+02  0.14633863832E+02  0.51100000000E-03 0.  1.
         12    1    4    4    0    0  0.19386955018E+00 -0.10123515381E+01 -0.20579048578E+02  0.20604846066E+02  0.00000000000E+00 0. -1.
</event>
<event>
 8    1  0.3186330E-007  0.9118800E+02  0.7816164E-02  0.1184000E+00
        -11   -1    0    0    0    0  0.00000000000E+00  0.00000000000E+00  0.45593999997E+02  0.45594000000E+02  0.51100000000E-03 0.  1.
         11   -1    0    0    0    0 -0.00000000000E+00 -0.00000000000E+00 -0.45593999997E+02  0.45594000000E+02  0.51100000000E-03 0. -1.
         23    2    1    2    0    0  0.17763568394E-14  0.00000000000E+00  0.88817841970E-15  0.91188000000E+02  0.91188000000E+02 0.  0.
    9900012    2    3    3    0    0 -0.41876609632E+01  0.36223100677E+02  0.51119304779E+01  0.54367063561E+02  0.39999953000E+02 0.  0.
        -12    1    3    3    0    0  0.41876609632E+01 -0.36223100677E+02 -0.51119304779E+01  0.36820936439E+02  0.00000000000E+00 0.  1.
         11    1    4    4    0    0 -0.10352416862E+02  0.42240541245E+02 -0.11660746251E+01  0.43506270696E+02  0.51100000000E-03 0. -1.
        -11    1    4    4    0    0  0.35856978012E+01 -0.24676320350E+01  0.22290556649E+01  0.48903093972E+01  0.51100000000E-03 0.  1.
         12    1    4    4    0    0  0.25790580977E+01 -0.35498085328E+01  0.40489494380E+01  0.59704834681E+01  0.00000000000E+00 0. -1.
</event>
<event>
 8    1  0.3186330E-007  0.9118800E+02  0.7816164E-02  0.1184000E+00
        -11   -1    0    0    0    0  0.00000000000E+00  0.00000000000E+00  0.45593999997E+02  0.45594000000E+02  0.51100000000E-03 0. -1.
         11   -1    0    0    0    0 -0.00000000000E+00 -0.00000000000E+00 -0.45593999997E+02  0.45594000000E+02  0.51100000000E-03 0.  1.
         23    2    1    2    0    0  0.17763568394E-14  0.00000000000E+00  0.00000000000E+00  0.91188000000E+02  0.91188000000E+02 0.  0.
    9900012    2    3    3    0    0  0.14425934149E+02  0.63638838116E+01 -0.33274204472E+02  0.54367091857E+02  0.40000017506E+02 0.  0.
         12    1    3    3    0    0 -0.14425934149E+02 -0.63638838116E+01  0.33274204472E+02  0.36820908143E+02  0.00000000000E+00 0. -1.
         11    1    4    4    0    0  0.46321113764E+01  0.17068386012E+02 -0.11323312440E+02  0.21000087184E+02  0.51100000000E-03 0. -1.
        -11    1    4    4    0    0  0.14773658682E+01 -0.63702802885E+01  0.26372585304E+01  0.70511143573E+01  0.51100000000E-03 0.  1.
         12    1    4    4    0    0  0.83164569044E+01 -0.43342219116E+01 -0.24588150563E+02  0.26315890316E+02  0.00000000000E+00 0. -1.
</event>
<event>
 8    1  0.3186330E-007  0.9118800E+02  0.7816164E-02  0.1184000E+00
        -11   -1    0    0    0    0  0.00000000000E+00  0.00000000000E+00  0.45593999997E+02  0.45594000000E+02  0.51100000000E-03 0. -1.
         11   -1    0    0    0    0 -0.00000000000E+00 -0.00000000000E+00 -0.45593999997E+02  0.45594000000E+02  0.51100000000E-03 0.  1.
         23    2    1    2    0    0  0.88817841970E-15  0.35527136788E-14 -0.35527136788E-14  0.91188000000E+02  0.91188000000E+02 0.  0.
    9900012    2    3    3    0    0  0.22535184672E+01 -0.30580636910E+02  0.20384435708E+02  0.54367096719E+02  0.40000028589E+02 0.  0.
        -12    1    3    3    0    0 -0.22535184672E+01  0.30580636910E+02 -0.20384435708E+02  0.36820903281E+02  0.00000000000E+00 0.  1.
         11    1    4    4    0    0 -0.44673054335E+01 -0.26074328084E+01  0.96671227291E+01  0.10963976733E+02  0.51100000000E-03 0. -1.
        -11    1    4    4    0    0 -0.89601078812E+01 -0.21385286242E+02 -0.20885820690E+00  0.23187445372E+02  0.51100000000E-03 0.  1.
         12    1    4    4    0    0  0.15680931782E+02 -0.65879178601E+01  0.10926171186E+02  0.20215674613E+02  0.00000000000E+00 0. -1.
</event>
<event>
 8    1  0.3186330E-007  0.9118800E+02  0.7816164E-02  0.1184000E+00
        -11   -1    0    0    0    0  0.00000000000E+00  0.00000000000E+00  0.45593999997E+02  0.45594000000E+02  0.51100000000E-03 0. -1.
         11   -1    0    0    0    0 -0.00000000000E+00 -0.00000000000E+00 -0.45593999997E+02  0.45594000000E+02  0.51100000000E-03 0.  1.
         23    2    1    2    0    0 -0.35527136788E-14  0.00000000000E+00  0.13322676296E-14  0.91188000000E+02  0.91188000000E+02 0.  0.
    9900012    2    3    3    0    0  0.17911395436E+02  0.31970500347E+02 -0.35845165395E+01  0.54367085593E+02  0.40000003227E+02 0.  0.
         12    1    3    3    0    0 -0.17911395436E+02 -0.31970500347E+02  0.35845165395E+01  0.36820914407E+02  0.00000000000E+00 0. -1.
         11    1    4    4    0    0  0.16922298118E+01  0.11329932390E+00 -0.59838255731E+01  0.62195375409E+01  0.51100000000E-03 0. -1.
        -11    1    4    4    0    0  0.14176015570E+02  0.19646574999E+02  0.16554015071E+02  0.29342507423E+02  0.51100000000E-03 0.  1.
         12    1    4    4    0    0  0.20431500545E+01  0.12210626024E+02 -0.14154706038E+02  0.18805040629E+02  0.00000000000E+00 0. -1.
</event>
<event>
 8    1  0.3186330E-007  0.9118800E+02  0.7816164E-02  0.1184000E+00
        -11   -1    0    0    0    0  0.00000000000E+00  0.00000000000E+00  0.45593999997E+02  0.45594000000E+02  0.51100000000E-03 0.  1.
         11   -1    0    0    0    0 -0.00000000000E+00 -0.00000000000E+00 -0.45593999997E+02  0.45594000000E+02  0.51100000000E-03 0. -1.
         23    2    1    2    0    0  0.11102230246E-14  0.88817841970E-15  0.00000000000E+00  0.91188000000E+02  0.91188000000E+02 0.  0.
    9900012    2    3    3    0    0 -0.15602390031E+01  0.71568846067E+01  0.36084946955E+02  0.54367099145E+02  0.40000034120E+02 0.  0.
         12    1    3    3    0    0  0.15602390031E+01 -0.71568846067E+01 -0.36084946955E+02  0.36820900855E+02  0.00000000000E+00 0. -1.
         11    1    4    4    0    0 -0.17129651278E+01 -0.52561062517E+01  0.14847477919E+00  0.55301851217E+01  0.51100000000E-03 0. -1.
        -11    1    4    4    0    0 -0.61751175977E+01  0.12306295214E+01 -0.36083018028E+01  0.72571598112E+01  0.51100000000E-03 0.  1.
        -12    1    4    4    0    0  0.63278437224E+01  0.11182361337E+02  0.39544773979E+02  0.41579754212E+02  0.00000000000E+00 0.  1.
</event>
<event>
 8    1  0.3186330E-007  0.9118800E+02  0.7816164E-02  0.1184000E+00
        -11   -1    0    0    0    0  0.00000000000E+00  0.00000000000E+00  0.45593999997E+02  0.45594000000E+02  0.51100000000E-03 0. -1.
         11   -1    0    0    0    0 -0.00000000000E+00 -0.00000000000E+00 -0.45593999997E+02  0.45594000000E+02  0.51100000000E-03 0.  1.
         23    2    1    2    0    0  0.00000000000E+00  0.00000000000E+00 -0.71054273576E-14  0.91188000000E+02  0.91188000000E+02 0.  0.
    9900012    2    3    3    0    0 -0.98153116040E+01 -0.14752536049E+02  0.32276954807E+02  0.54367089183E+02  0.40000011411E+02 0.  0.
        -12    1    3    3    0    0  0.98153116040E+01  0.14752536049E+02 -0.32276954807E+02  0.36820910817E+02  0.00000000000E+00 0.  1.
         11    1    4    4    0    0  0.51789905181E+01  0.60407305810E+01  0.30787074176E+01  0.85317529479E+01  0.51100000000E-03 0. -1.
        -11    1    4    4    0    0  0.17478755909E+01 -0.18040947772E+02  0.17737255764E+02  0.25360226890E+02  0.51100000000E-03 0.  1.
         12    1    4    4    0    0 -0.16742177713E+02 -0.27523188581E+01  0.11460991625E+02  0.20475109345E+02  0.00000000000E+00 0. -1.
</event>
<event>
 8    1  0.3186330E-007  0.9118800E+02  0.7816164E-02  0.1184000E+00
        -11   -1    0    0    0    0  0.00000000000E+00  0.00000000000E+00  0.45593999997E+02  0.45594000000E+02  0.51100000000E-03 0. -1.
         11   -1    0    0    0    0 -0.00000000000E+00 -0.00000000000E+00 -0.45593999997E+02  0.45594000000E+02  0.51100000000E-03 0.  1.
         23    2    1    2    0    0  0.00000000000E+00  0.00000000000E+00  0.35527136788E-14  0.91188000000E+02  0.91188000000E+02 0.  0.
    9900012    2    3    3    0    0  0.12210939796E+02  0.27087501850E+02  0.21747193234E+02  0.54367079035E+02  0.39999988275E+02 0.  0.
        -12    1    3    3    0    0 -0.12210939796E+02 -0.27087501850E+02 -0.21747193234E+02  0.36820920965E+02  0.00000000000E+00 0.  1.
         11    1    4    4    0    0  0.10632344507E+02  0.82058767359E+01 -0.30883796459E+01  0.13781191959E+02  0.51100000000E-03 0. -1.
        -11    1    4    4    0    0 -0.15601722438E+01  0.80148340988E+01 -0.43738148949E+01  0.92629347432E+01  0.51100000000E-03 0.  1.
         12    1    4    4    0    0  0.31387675324E+01  0.10866791015E+02  0.29209387775E+02  0.31322952332E+02  0.00000000000E+00 0. -1.
</event>
<event>
 8    1  0.3186330E-007  0.9118800E+02  0.7816164E-02  0.1184000E+00
        -11   -1    0    0    0    0  0.00000000000E+00  0.00000000000E+00  0.45593999997E+02  0.45594000000E+02  0.51100000000E-03 0.  1.
         11   -1    0    0    0    0 -0.00000000000E+00 -0.00000000000E+00 -0.45593999997E+02  0.45594000000E+02  0.51100000000E-03 0. -1.
         23    2    1    2    0    0  0.17763568394E-14  0.00000000000E+00  0.00000000000E+00  0.91188000000E+02  0.91188000000E+02 0.  0.
    9900012    2    3    3    0    0 -0.25091011856E+01  0.16400852671E+02 -0.32870919689E+02  0.54367069562E+02  0.39999966680E+02 0.  0.
        -12    1    3    3    0    0  0.25091011856E+01 -0.16400852671E+02  0.32870919689E+02  0.36820930438E+02  0.00000000000E+00 0.  1.
         11    1    4    4    0    0 -0.12082875307E+02  0.83468480279E+01 -0.19580680346E+02  0.24475881817E+02  0.51100000000E-03 0. -1.
        -11    1    4    4    0    0 -0.59915083887E+01 -0.21074779865E+01  0.10195136495E+01  0.64326545515E+01  0.51100000000E-03 0.  1.
         12    1    4    4    0    0  0.15565282510E+02  0.10161482630E+02 -0.14309752993E+02  0.23458533193E+02  0.00000000000E+00 0. -1.
</event>
<event>
 8    1  0.3186330E-007  0.9118800E+02  0.7816164E-02  0.1184000E+00
        -11   -1    0    0    0    0  0.00000000000E+00  0.00000000000E+00  0.45593999997E+02  0.45594000000E+02  0.51100000000E-03 0.  1.
         11   -1    0    0    0    0 -0.00000000000E+00 -0.00000000000E+00 -0.45593999997E+02  0.45594000000E+02  0.51100000000E-03 0. -1.
         23    2    1    2    0    0  0.00000000000E+00  0.00000000000E+00  0.00000000000E+00  0.91188000000E+02  0.91188000000E+02 0.  0.
    9900012    2    3    3    0    0 -0.32399106198E+01  0.30708200977E+02 -0.20057174839E+02  0.54367069939E+02  0.39999967540E+02 0.  0.
        -12    1    3    3    0    0  0.32399106198E+01 -0.30708200977E+02  0.20057174839E+02  0.36820930061E+02  0.00000000000E+00 0.  1.
         11    1    4    4    0    0 -0.10606071123E+02  0.22015237458E+02 -0.22996282742E+01  0.24544810357E+02  0.51100000000E-03 0. -1.
        -11    1    4    4    0    0 -0.67101098469E+01  0.67913014507E+01 -0.90902022871E+01  0.13182531147E+02  0.51100000000E-03 0.  1.
        -12    1    4    4    0    0  0.14076270350E+02  0.19016620679E+01 -0.86673442778E+01  0.16639728435E+02  0.00000000000E+00 0.  1.
</event>
<event>
 8    1  0.3186330E-007  0.9118800E+02  0.7816164E-02  0.1184000E+00
        -11   -1    0    0    0    0  0.00000000000E+00  0.00000000000E+00  0.45593999997E+02  0.45594000000E+02  0.51100000000E-03 0. -1.
         11   -1    0    0    0    0 -0.00000000000E+00 -0.00000000000E+00 -0.45593999997E+02  0.45594000000E+02  0.51100000000E-03 0.  1.
         23    2    1    2    0    0 -0.15543122345E-14  0.35527136788E-14 -0.35527136788E-14  0.91188000000E+02  0.91188000000E+02 0.  0.
    9900012    2    3    3    0    0 -0.17843701851E+01  0.28184156372E+02 -0.23627265902E+02  0.54367104555E+02  0.40000046454E+02 0.  0.
         12    1    3    3    0    0  0.17843701851E+01 -0.28184156372E+02  0.23627265902E+02  0.36820895445E+02  0.00000000000E+00 0. -1.
         11    1    4    4    0    0  0.16989994364E+02  0.12985348879E+02 -0.19128097543E+01  0.21469467516E+02  0.51100000000E-03 0. -1.
        -11    1    4    4    0    0 -0.13078588368E+02  0.12364819102E+02 -0.18340177907E+02  0.25696310067E+02  0.51100000000E-03 0.  1.
         12    1    4    4    0    0 -0.56957761817E+01  0.28339883910E+01 -0.33742782405E+01  0.72013269719E+01  0.00000000000E+00 0. -1.
</event>
<event>
 8    1  0.3186330E-007  0.9118800E+02  0.7816164E-02  0.1184000E+00
        -11   -1    0    0    0    0  0.00000000000E+00  0.00000000000E+00  0.45593999997E+02  0.45594000000E+02  0.51100000000E-03 0. -1.
         11   -1    0    0    0    0 -0.00000000000E+00 -0.00000000000E+00 -0.45593999997E+02  0.45594000000E+02  0.51100000000E-03 0.  1.
         23    2    1    2    0    0 -0.71054273576E-14  0.00000000000E+00  0.35527136788E-14  0.91188000000E+02  0.91188000000E+02 0.  0.
    9900012    2    3    3    0    0 -0.31499767413E+02 -0.92028932188E+01  0.16698835575E+02  0.54367086102E+02  0.40000004388E+02 0.  0.
        -12    1    3    3    0    0  0.31499767413E+02  0.92028932188E+01 -0.16698835575E+02  0.36820913898E+02  0.00000000000E+00 0.  1.
         11    1    4    4    0    0  0.20360047483E+01  0.11060285515E+02  0.15139890757E+01  0.11347572172E+02  0.51100000000E-03 0. -1.
        -11    1    4    4    0    0 -0.22444198935E+02 -0.84319525630E+01  0.10179949938E+02  0.26047481085E+02  0.51100000000E-03 0.  1.
        -12    1    4    4    0    0 -0.11091573226E+02 -0.11831226171E+02  0.50048965616E+01  0.16972032846E+02  0.00000000000E+00 0.  1.
</event>
<event>
 8    1  0.3186330E-007  0.9118800E+02  0.7816164E-02  0.1184000E+00
        -11   -1    0    0    0    0  0.00000000000E+00  0.00000000000E+00  0.45593999997E+02  0.45594000000E+02  0.51100000000E-03 0.  1.
         11   -1    0    0    0    0 -0.00000000000E+00 -0.00000000000E+00 -0.45593999997E+02  0.45594000000E+02  0.51100000000E-03 0. -1.
         23    2    1    2    0    0 -0.88817841970E-15  0.00000000000E+00  0.00000000000E+00  0.91188000000E+02  0.91188000000E+02 0.  0.
    9900012    2    3    3    0    0  0.27349795072E+01 -0.29693678887E+02 -0.21600584127E+02  0.54367083209E+02  0.39999997791E+02 0.  0.
         12    1    3    3    0    0 -0.27349795072E+01  0.29693678887E+02  0.21600584127E+02  0.36820916791E+02  0.00000000000E+00 0. -1.
         11    1    4    4    0    0  0.87013155597E+01 -0.33496843903E+01 -0.13673827047E+02  0.16550130644E+02  0.51100000000E-03 0. -1.
        -11    1    4    4    0    0 -0.57290164552E+01  0.20244048609E+01  0.37481026609E+01  0.71391959213E+01  0.51100000000E-03 0.  1.
         12    1    4    4    0    0 -0.23731959731E+00 -0.28368399357E+02 -0.11674859741E+02  0.30677756643E+02  0.00000000000E+00 0. -1.
</event>
<event>
 8    1  0.3186330E-007  0.9118800E+02  0.7816164E-02  0.1184000E+00
        -11   -1    0    0    0    0  0.00000000000E+00  0.00000000000E+00  0.45593999997E+02  0.45594000000E+02  0.51100000000E-03 0.  1.
         11   -1    0    0    0    0 -0.00000000000E+00 -0.00000000000E+00 -0.45593999997E+02  0.45594000000E+02  0.51100000000E-03 0. -1.
         23    2    1    2    0    0  0.00000000000E+00  0.00000000000E+00  0.00000000000E+00  0.91188000000E+02  0.91188000000E+02 0.  0.
    9900012    2    3    3    0    0 -0.10983848522E+02  0.29098994610E+02 -0.19707468096E+02  0.54367072331E+02  0.39999972992E+02 0.  0.
        -12    1    3    3    0    0  0.10983848522E+02 -0.29098994610E+02  0.19707468096E+02  0.36820927669E+02  0.00000000000E+00 0.  1.
         11    1    4    4    0    0  0.10721487438E+02  0.72801055694E+01 -0.43719608610E+01  0.13677144147E+02  0.51100000000E-03 0. -1.
        -11    1    4    4    0    0 -0.13807763073E+02 -0.49955739645E+00 -0.36622535886E+01  0.14293914099E+02  0.51100000000E-03 0.  1.
         12    1    4    4    0    0 -0.78975728871E+01  0.22318446437E+02 -0.11673253646E+02  0.26396014085E+02  0.00000000000E+00 0. -1.
</event>
<event>
 8    1  0.3186330E-007  0.9118800E+02  0.7816164E-02  0.1184000E+00
        -11   -1    0    0    0    0  0.00000000000E+00  0.00000000000E+00  0.45593999997E+02  0.45594000000E+02  0.51100000000E-03 0. -1.
         11   -1    0    0    0    0 -0.00000000000E+00 -0.00000000000E+00 -0.45593999997E+02  0.45594000000E+02  0.51100000000E-03 0.  1.
         23    2    1    2    0    0  0.00000000000E+00  0.00000000000E+00  0.00000000000E+00  0.91188000000E+02  0.91188000000E+02 0.  0.
    9900012    2    3    3    0    0 -0.11452038030E+02  0.12397180613E+02  0.32725258768E+02  0.54367057268E+02  0.39999938655E+02 0.  0.
        -12    1    3    3    0    0  0.11452038030E+02 -0.12397180613E+02 -0.32725258768E+02  0.36820942732E+02  0.00000000000E+00 0.  1.
         11    1    4    4    0    0 -0.44946591029E+00  0.70982816950E+01 -0.46068280695E+01  0.84741068998E+01  0.51100000000E-03 0. -1.
        -11    1    4    4    0    0  0.38810671144E+01 -0.59519204681E+01  0.54581382899E+01  0.89598723796E+01  0.51100000000E-03 0.  1.
         12    1    4    4    0    0 -0.14883639234E+02  0.11250819386E+02  0.31873948548E+02  0.36933077989E+02  0.00000000000E+00 0. -1.
</event>
<event>
 8    1  0.3186330E-007  0.9118800E+02  0.7816164E-02  0.1184000E+00
        -11   -1    0    0    0    0  0.00000000000E+00  0.00000000000E+00  0.45593999997E+02  0.45594000000E+02  0.51100000000E-03 0.  1.
         11   -1    0    0    0    0 -0.00000000000E+00 -0.00000000000E+00 -0.45593999997E+02  0.45594000000E+02  0.51100000000E-03 0. -1.
         23    2    1    2    0    0 -0.88817841970E-15  0.00000000000E+00  0.00000000000E+00  0.91188000000E+02  0.91188000000E+02 0.  0.
    9900012    2    3    3    0    0 -0.76022631944E+01  0.24450480020E+01  0.35944502380E+02  0.54367083162E+02  0.39999997685E+02 0.  0.
         12    1    3    3    0    0  0.76022631944E+01 -0.24450480020E+01 -0.35944502380E+02  0.36820916838E+02  0.00000000000E+00 0. -1.
         11    1    4    4    0    0  0.55632951584E+01 -0.58953675249E+01  0.21490411465E+02  0.22968312878E+02  0.51100000000E-03 0.  1.
        -11    1    4    4    0    0 -0.13145204184E+02 -0.48006680267E+01  0.38541140725E+01  0.14515405681E+02  0.51100000000E-03 0. -1.
         12    1    4    4    0    0 -0.20354168461E-01  0.13141083554E+02  0.10599976843E+02  0.16883364603E+02  0.00000000000E+00 0. -1.
</event>
<event>
 8    1  0.3186330E-007  0.9118800E+02  0.7816164E-02  0.1184000E+00
        -11   -1    0    0    0    0  0.00000000000E+00  0.00000000000E+00  0.45593999997E+02  0.45594000000E+02  0.51100000000E-03 0. -1.
         11   -1    0    0    0    0 -0.00000000000E+00 -0.00000000000E+00 -0.45593999997E+02  0.45594000000E+02  0.51100000000E-03 0.  1.
         23    2    1    2    0    0  0.00000000000E+00  0.00000000000E+00  0.00000000000E+00  0.91188000000E+02  0.91188000000E+02 0.  0.
    9900012    2    3    3    0    0  0.27767583184E+02  0.29685198527E+01 -0.23998479987E+02  0.54367111531E+02  0.40000062357E+02 0.  0.
         12    1    3    3    0    0 -0.27767583184E+02 -0.29685198527E+01  0.23998479987E+02  0.36820888469E+02  0.00000000000E+00 0. -1.
         11    1    4    4    0    0  0.13533004007E+02 -0.95813783571E+01 -0.36768834210E+01  0.16984242127E+02  0.51100000000E-03 0. -1.
        -11    1    4    4    0    0 -0.13051394010E+00  0.45602654960E+01  0.52679480500E+01  0.69688113908E+01  0.51100000000E-03 0.  1.
        -12    1    4    4    0    0  0.14365093117E+02  0.79896327138E+01 -0.25589544616E+02  0.30414058013E+02  0.00000000000E+00 0.  1.
</event>
<event>
 8    1  0.3186330E-007  0.9118800E+02  0.7816164E-02  0.1184000E+00
        -11   -1    0    0    0    0  0.00000000000E+00  0.00000000000E+00  0.45593999997E+02  0.45594000000E+02  0.51100000000E-03 0.  1.
         11   -1    0    0    0    0 -0.00000000000E+00 -0.00000000000E+00 -0.45593999997E+02  0.45594000000E+02  0.51100000000E-03 0. -1.
         23    2    1    2    0    0  0.00000000000E+00 -0.13322676296E-14  0.00000000000E+00  0.91188000000E+02  0.91188000000E+02 0.  0.
    9900012    2    3    3    0    0  0.10440770349E+02 -0.22807164634E+01 -0.35235814736E+02  0.54367163600E+02  0.40000181059E+02 0.  0.
        -12    1    3    3    0    0 -0.10440770349E+02  0.22807164634E+01  0.35235814736E+02  0.36820836400E+02  0.00000000000E+00 0.  1.
         11    1    4    4    0    0  0.57896286287E+01 -0.68824643301E+01 -0.39892733341E+01  0.98388219268E+01  0.51100000000E-03 0. -1.
        -11    1    4    4    0    0 -0.94090753067E+01 -0.55968570847E+01 -0.22629895805E+02  0.25138967595E+02  0.51100000000E-03 0.  1.
        -12    1    4    4    0    0  0.14060217027E+02  0.10198604951E+02 -0.86166455974E+01  0.19389374078E+02  0.00000000000E+00 0.  1.
</event>
<event>
 8    1  0.3186330E-007  0.9118800E+02  0.7816164E-02  0.1184000E+00
        -11   -1    0    0    0    0  0.00000000000E+00  0.00000000000E+00  0.45593999997E+02  0.45594000000E+02  0.51100000000E-03 0. -1.
         11   -1    0    0    0    0 -0.00000000000E+00 -0.00000000000E+00 -0.45593999997E+02  0.45594000000E+02  0.51100000000E-03 0.  1.
         23    2    1    2    0    0  0.88817841970E-15  0.17763568394E-14  0.00000000000E+00  0.91188000000E+02  0.91188000000E+02 0.  0.
    9900012    2    3    3    0    0  0.52508714032E+01 -0.15807079810E+02  0.32838165509E+02  0.54367074746E+02  0.39999978497E+02 0.  0.
         12    1    3    3    0    0 -0.52508714032E+01  0.15807079810E+02 -0.32838165509E+02  0.36820925254E+02  0.00000000000E+00 0. -1.
         11    1    4    4    0    0  0.77186910851E+01 -0.11642701180E+02  0.12930735865E+02  0.19035088997E+02  0.51100000000E-03 0. -1.
        -11    1    4    4    0    0  0.26450399927E+01 -0.22519598110E+01 -0.70329595488E+01  0.78441111561E+01  0.51100000000E-03 0.  1.
         12    1    4    4    0    0 -0.51128596746E+01 -0.19124188189E+01  0.26940389192E+02  0.27487874593E+02  0.00000000000E+00 0. -1.
</event>
<event>
 8    1  0.3186330E-007  0.9118800E+02  0.7816164E-02  0.1184000E+00
        -11   -1    0    0    0    0  0.00000000000E+00  0.00000000000E+00  0.45593999997E+02  0.45594000000E+02  0.51100000000E-03 0.  1.
         11   -1    0    0    0    0 -0.00000000000E+00 -0.00000000000E+00 -0.45593999997E+02  0.45594000000E+02  0.51100000000E-03 0. -1.
         23    2    1    2    0    0  0.00000000000E+00  0.00000000000E+00  0.00000000000E+00  0.91188000000E+02  0.91188000000E+02 0.  0.
    9900012    2    3    3    0    0  0.87818271270E+01 -0.57103562069E+01 -0.35299455650E+02  0.54367078979E+02  0.39999988148E+02 0.  0.
        -12    1    3    3    0    0 -0.87818271270E+01  0.57103562069E+01  0.35299455650E+02  0.36820921021E+02  0.00000000000E+00 0.  1.
         11    1    4    4    0    0 -0.23543190247E+00  0.19513808477E+01 -0.22138778102E+01  0.29605017502E+01  0.51100000000E-03 0. -1.
        -11    1    4    4    0    0 -0.75288373523E+01 -0.46055458715E+01 -0.33431678123E+02  0.34577037858E+02  0.51100000000E-03 0.  1.
         12    1    4    4    0    0  0.16546096382E+02 -0.30561911831E+01  0.34610028356E+00  0.16829539371E+02  0.00000000000E+00 0. -1.
</event>
<event>
 8    1  0.3186330E-007  0.9118800E+02  0.7816164E-02  0.1184000E+00
        -11   -1    0    0    0    0  0.00000000000E+00  0.00000000000E+00  0.45593999997E+02  0.45594000000E+02  0.51100000000E-03 0.  1.
         11   -1    0    0    0    0 -0.00000000000E+00 -0.00000000000E+00 -0.45593999997E+02  0.45594000000E+02  0.51100000000E-03 0. -1.
         23    2    1    2    0    0  0.00000000000E+00 -0.22204460493E-15  0.00000000000E+00  0.91188000000E+02  0.91188000000E+02 0.  0.
    9900012    2    3    3    0    0  0.34634478930E+02 -0.16773321033E+01  0.12386224214E+02  0.54367093928E+02  0.40000022227E+02 0.  0.
        -12    1    3    3    0    0 -0.34634478930E+02  0.16773321033E+01 -0.12386224214E+02  0.36820906072E+02  0.00000000000E+00 0.  1.
         11    1    4    4    0    0  0.13674717937E+02  0.86726178933E+00 -0.98819412678E+01  0.16893869218E+02  0.51100000000E-03 0. -1.
        -11    1    4    4    0    0 -0.36552128833E+01  0.91991220755E+00  0.79216861617E+01  0.87726809812E+01  0.51100000000E-03 0.  1.
         12    1    4    4    0    0  0.24614973876E+02 -0.34645061001E+01  0.14346479320E+02  0.28700543729E+02  0.00000000000E+00 0. -1.
</event>
<event>
 8    1  0.3186330E-007  0.9118800E+02  0.7816164E-02  0.1184000E+00
        -11   -1    0    0    0    0  0.00000000000E+00  0.00000000000E+00  0.45593999997E+02  0.45594000000E+02  0.51100000000E-03 0.  1.
         11   -1    0    0    0    0 -0.00000000000E+00 -0.00000000000E+00 -0.45593999997E+02  0.45594000000E+02  0.51100000000E-03 0. -1.
         23    2    1    2    0    0  0.00000000000E+00  0.00000000000E+00  0.17763568394E-14  0.91188000000E+02  0.91188000000E+02 0.  0.
    9900012    2    3    3    0    0  0.80802886956E+01 -0.32352676420E+02  0.15613871292E+02  0.54367085920E+02  0.40000003972E+02 0.  0.
        -12    1    3    3    0    0 -0.80802886956E+01  0.32352676420E+02 -0.15613871292E+02  0.36820914080E+02  0.00000000000E+00 0.  1.
         11    1    4    4    0    0 -0.50282313446E+01 -0.26222758647E+02  0.10711341334E+02  0.28768889707E+02  0.51100000000E-03 0. -1.
        -11    1    4    4    0    0 -0.53860276681E+01  0.35159710592E+00  0.21434498315E+01  0.58075202976E+01  0.51100000000E-03 0.  1.
        -12    1    4    4    0    0  0.18494547708E+02 -0.64815148788E+01  0.27590801270E+01  0.19790675916E+02  0.00000000000E+00 0.  1.
</event>
<event>
 8    1  0.3186330E-007  0.9118800E+02  0.7816164E-02  0.1184000E+00
        -11   -1    0    0    0    0  0.00000000000E+00  0.00000000000E+00  0.45593999997E+02  0.45594000000E+02  0.51100000000E-03 0.  1.
         11   -1    0    0    0    0 -0.00000000000E+00 -0.00000000000E+00 -0.45593999997E+02  0.45594000000E+02  0.51100000000E-03 0. -1.
         23    2    1    2    0    0  0.00000000000E+00 -0.35527136788E-14 -0.35527136788E-14  0.91188000000E+02  0.91188000000E+02 0.  0.
    9900012    2    3    3    0    0 -0.23274129463E+02 -0.23362779237E+02 -0.16379424160E+02  0.54366944994E+02  0.39999682700E+02 0.  0.
         12    1    3    3    0    0  0.23274129463E+02  0.23362779237E+02  0.16379424160E+02  0.36821055006E+02  0.00000000000E+00 0. -1.
         11    1    4    4    0    0  0.51010920098E+00  0.10608023021E+01 -0.28870031947E+01  0.31177396665E+01  0.51100000000E-03 0. -1.
        -11    1    4    4    0    0 -0.89299045343E+01 -0.33367073924E+01  0.11769287342E+02  0.15145723357E+02  0.51100000000E-03 0.  1.
         12    1    4    4    0    0 -0.14854334130E+02 -0.21086874147E+02 -0.25261708307E+02  0.36103481970E+02  0.00000000000E+00 0. -1.
</event>
<event>
 8    1  0.3186330E-007  0.9118800E+02  0.7816164E-02  0.1184000E+00
        -11   -1    0    0    0    0  0.00000000000E+00  0.00000000000E+00  0.45593999997E+02  0.45594000000E+02  0.51100000000E-03 0. -1.
         11   -1    0    0    0    0 -0.00000000000E+00 -0.00000000000E+00 -0.45593999997E+02  0.45594000000E+02  0.51100000000E-03 0.  1.
         23    2    1    2    0    0  0.00000000000E+00  0.00000000000E+00  0.00000000000E+00  0.91188000000E+02  0.91188000000E+02 0.  0.
    9900012    2    3    3    0    0 -0.28837167567E+01  0.21827438477E+02 -0.29513178436E+02  0.54367073964E+02  0.39999976716E+02 0.  0.
        -12    1    3    3    0    0  0.28837167567E+01 -0.21827438477E+02  0.29513178436E+02  0.36820926036E+02  0.00000000000E+00 0.  1.
         11    1    4    4    0    0  0.19687627864E+01 -0.27926059458E+01 -0.10575467578E+01  0.35767415735E+01  0.51100000000E-03 0.  1.
        -11    1    4    4    0    0  0.75021986703E+01 -0.20866490738E+01 -0.17913797008E+02  0.19533079961E+02  0.51100000000E-03 0. -1.
        -12    1    4    4    0    0 -0.12354678213E+02  0.26706693496E+02 -0.10541834670E+02  0.31257252430E+02  0.00000000000E+00 0.  1.
</event>
<event>
 8    1  0.3186330E-007  0.9118800E+02  0.7816164E-02  0.1184000E+00
        -11   -1    0    0    0    0  0.00000000000E+00  0.00000000000E+00  0.45593999997E+02  0.45594000000E+02  0.51100000000E-03 0.  1.
         11   -1    0    0    0    0 -0.00000000000E+00 -0.00000000000E+00 -0.45593999997E+02  0.45594000000E+02  0.51100000000E-03 0. -1.
         23    2    1    2    0    0  0.00000000000E+00  0.00000000000E+00  0.00000000000E+00  0.91188000000E+02  0.91188000000E+02 0.  0.
    9900012    2    3    3    0    0  0.16526362981E+02  0.92972999001E+01  0.31562931049E+02  0.54367094590E+02  0.40000023737E+02 0.  0.
         12    1    3    3    0    0 -0.16526362981E+02 -0.92972999001E+01 -0.31562931049E+02  0.36820905410E+02  0.00000000000E+00 0. -1.
         11    1    4    4    0    0 -0.63746544332E+01  0.14240878209E+02  0.19595912118E+02  0.25048724584E+02  0.51100000000E-03 0. -1.
        -11    1    4    4    0    0  0.12903853274E+02 -0.31885568647E+01 -0.42664509434E+00  0.13298810115E+02  0.51100000000E-03 0.  1.
        -12    1    4    4    0    0  0.99971641404E+01 -0.17550214438E+01  0.12393664026E+02  0.16019559891E+02  0.00000000000E+00 0.  1.
</event>
<event>
 8    1  0.3186330E-007  0.9118800E+02  0.7816164E-02  0.1184000E+00
        -11   -1    0    0    0    0  0.00000000000E+00  0.00000000000E+00  0.45593999997E+02  0.45594000000E+02  0.51100000000E-03 0.  1.
         11   -1    0    0    0    0 -0.00000000000E+00 -0.00000000000E+00 -0.45593999997E+02  0.45594000000E+02  0.51100000000E-03 0. -1.
         23    2    1    2    0    0  0.00000000000E+00 -0.88817841970E-15  0.88817841970E-15  0.91188000000E+02  0.91188000000E+02 0.  0.
    9900012    2    3    3    0    0  0.36045852711E+02 -0.68076614132E+01  0.31831471868E+01  0.54367079621E+02  0.39999989611E+02 0.  0.
        -12    1    3    3    0    0 -0.36045852711E+02  0.68076614132E+01 -0.31831471868E+01  0.36820920379E+02  0.00000000000E+00 0.  1.
         11    1    4    4    0    0  0.16909438877E+02  0.11394288470E+01 -0.85148802339E+01  0.18966565501E+02  0.51100000000E-03 0. -1.
        -11    1    4    4    0    0  0.69006471062E+01 -0.10948816778E+02  0.17306117107E+02  0.21610118207E+02  0.51100000000E-03 0.  1.
        -12    1    4    4    0    0  0.12235766727E+02  0.30017265181E+01 -0.56080896867E+01  0.13790395913E+02  0.00000000000E+00 0.  1.
</event>
<event>
 8    1  0.3186330E-007  0.9118800E+02  0.7816164E-02  0.1184000E+00
        -11   -1    0    0    0    0  0.00000000000E+00  0.00000000000E+00  0.45593999997E+02  0.45594000000E+02  0.51100000000E-03 0.  1.
         11   -1    0    0    0    0 -0.00000000000E+00 -0.00000000000E+00 -0.45593999997E+02  0.45594000000E+02  0.51100000000E-03 0. -1.
         23    2    1    2    0    0  0.17763568394E-14 -0.44408920985E-15  0.00000000000E+00  0.91188000000E+02  0.91188000000E+02 0.  0.
    9900012    2    3    3    0    0 -0.89739419462E+01  0.13606553000E+01  0.35684677422E+02  0.54367092629E+02  0.40000019267E+02 0.  0.
         12    1    3    3    0    0  0.89739419462E+01 -0.13606553000E+01 -0.35684677422E+02  0.36820907371E+02  0.00000000000E+00 0. -1.
         11    1    4    4    0    0  0.12792939981E+02 -0.40998134966E+01  0.13013660875E+02  0.18703559920E+02  0.51100000000E-03 0. -1.
        -11    1    4    4    0    0 -0.19167572799E+01 -0.48034444174E+01  0.38596474464E+01  0.64532096986E+01  0.51100000000E-03 0.  1.
        -12    1    4    4    0    0 -0.19850124647E+02  0.10263913214E+02  0.18811369101E+02  0.29210323011E+02  0.00000000000E+00 0.  1.
</event>
<event>
 8    1  0.3186330E-007  0.9118800E+02  0.7816164E-02  0.1184000E+00
        -11   -1    0    0    0    0  0.00000000000E+00  0.00000000000E+00  0.45593999997E+02  0.45594000000E+02  0.51100000000E-03 0. -1.
         11   -1    0    0    0    0 -0.00000000000E+00 -0.00000000000E+00 -0.45593999997E+02  0.45594000000E+02  0.51100000000E-03 0.  1.
         23    2    1    2    0    0 -0.88817841970E-15  0.00000000000E+00  0.35527136788E-14  0.91188000000E+02  0.91188000000E+02 0.  0.
    9900012    2    3    3    0    0  0.38349540992E+01  0.17861686641E+02  0.31969254777E+02  0.54367082391E+02  0.39999995926E+02 0.  0.
        -12    1    3    3    0    0 -0.38349540992E+01 -0.17861686641E+02 -0.31969254777E+02  0.36820917609E+02  0.00000000000E+00 0.  1.
         11    1    4    4    0    0 -0.53217328777E+01 -0.51402395157E+01 -0.69980811008E+00  0.74318661689E+01  0.51100000000E-03 0.  1.
        -11    1    4    4    0    0  0.17545716495E+01  0.11340047567E+02  0.30958841089E+02  0.33017041695E+02  0.51100000000E-03 0. -1.
         12    1    4    4    0    0  0.74021153273E+01  0.11661878589E+02  0.17102217981E+01  0.13918174526E+02  0.00000000000E+00 0. -1.
</event>
<event>
 8    1  0.3186330E-007  0.9118800E+02  0.7816164E-02  0.1184000E+00
        -11   -1    0    0    0    0  0.00000000000E+00  0.00000000000E+00  0.45593999997E+02  0.45594000000E+02  0.51100000000E-03 0. -1.
         11   -1    0    0    0    0 -0.00000000000E+00 -0.00000000000E+00 -0.45593999997E+02  0.45594000000E+02  0.51100000000E-03 0.  1.
         23    2    1    2    0    0  0.35527136788E-14  0.00000000000E+00 -0.35527136788E-14  0.91188000000E+02  0.91188000000E+02 0.  0.
    9900012    2    3    3    0    0  0.29250946818E+02  0.60299263022E+01 -0.21536084497E+02  0.54367070674E+02  0.39999969216E+02 0.  0.
         12    1    3    3    0    0 -0.29250946818E+02 -0.60299263022E+01  0.21536084497E+02  0.36820929326E+02  0.00000000000E+00 0. -1.
         11    1    4    4    0    0 -0.32350338354E+01 -0.56004043263E+00  0.80384207961E+01  0.86830466059E+01  0.51100000000E-03 0. -1.
        -11    1    4    4    0    0  0.63817283838E+01 -0.13044287517E+01 -0.17978879060E+01  0.67572474216E+01  0.51100000000E-03 0.  1.
         12    1    4    4    0    0  0.26104252269E+02  0.78943954865E+01 -0.27776617387E+02  0.38926776647E+02  0.00000000000E+00 0. -1.
</event>
<event>
 8    1  0.3186330E-007  0.9118800E+02  0.7816164E-02  0.1184000E+00
        -11   -1    0    0    0    0  0.00000000000E+00  0.00000000000E+00  0.45593999997E+02  0.45594000000E+02  0.51100000000E-03 0. -1.
         11   -1    0    0    0    0 -0.00000000000E+00 -0.00000000000E+00 -0.45593999997E+02  0.45594000000E+02  0.51100000000E-03 0.  1.
         23    2    1    2    0    0  0.00000000000E+00  0.00000000000E+00  0.00000000000E+00  0.91188000000E+02  0.91188000000E+02 0.  0.
    9900012    2    3    3    0    0  0.12288374178E+02  0.99749833905E+01  0.33245691815E+02  0.54367075816E+02  0.39999980937E+02 0.  0.
        -12    1    3    3    0    0 -0.12288374178E+02 -0.99749833905E+01 -0.33245691815E+02  0.36820924184E+02  0.00000000000E+00 0.  1.
         11    1    4    4    0    0  0.73265932599E+01 -0.12353863602E+02  0.19608328047E+02  0.24306037188E+02  0.51100000000E-03 0. -1.
        -11    1    4    4    0    0  0.14480586529E+01 -0.49006185476E+00  0.52965555678E+01  0.55127611618E+01  0.51100000000E-03 0.  1.
        -12    1    4    4    0    0  0.35137222647E+01  0.22818908847E+02  0.83408081995E+01  0.24548277466E+02  0.00000000000E+00 0.  1.
</event>
<event>
 8    1  0.3186330E-007  0.9118800E+02  0.7816164E-02  0.1184000E+00
        -11   -1    0    0    0    0  0.00000000000E+00  0.00000000000E+00  0.45593999997E+02  0.45594000000E+02  0.51100000000E-03 0. -1.
         11   -1    0    0    0    0 -0.00000000000E+00 -0.00000000000E+00 -0.45593999997E+02  0.45594000000E+02  0.51100000000E-03 0.  1.
         23    2    1    2    0    0  0.00000000000E+00 -0.16653345369E-15  0.71054273576E-14  0.91188000000E+02  0.91188000000E+02 0.  0.
    9900012    2    3    3    0    0  0.96676425123E+01 -0.12461144873E+00 -0.35528623830E+02  0.54367327125E+02  0.40000553842E+02 0.  0.
         12    1    3    3    0    0 -0.96676425123E+01  0.12461144873E+00  0.35528623830E+02  0.36820672875E+02  0.00000000000E+00 0. -1.
         11    1    4    4    0    0  0.79662271880E+01 -0.11607133288E+01 -0.43926382542E+02  0.44657979293E+02  0.51100000000E-03 0.  1.
        -11    1    4    4    0    0  0.25023810938E+01  0.22206050340E+01  0.67062068119E+01  0.74944117795E+01  0.51100000000E-03 0. -1.
        -12    1    4    4    0    0 -0.80096576945E+00 -0.11845031539E+01  0.16915519002E+01  0.22149360524E+01  0.00000000000E+00 0.  1.
</event>
<event>
 8    1  0.3186330E-007  0.9118800E+02  0.7816164E-02  0.1184000E+00
        -11   -1    0    0    0    0  0.00000000000E+00  0.00000000000E+00  0.45593999997E+02  0.45594000000E+02  0.51100000000E-03 0. -1.
         11   -1    0    0    0    0 -0.00000000000E+00 -0.00000000000E+00 -0.45593999997E+02  0.45594000000E+02  0.51100000000E-03 0.  1.
         23    2    1    2    0    0 -0.17763568394E-14  0.00000000000E+00  0.17763568394E-14  0.91188000000E+02  0.91188000000E+02 0.  0.
    9900012    2    3    3    0    0  0.92657187901E+01 -0.33981168184E+02 -0.10733302646E+02  0.54367121120E+02  0.40000084216E+02 0.  0.
         12    1    3    3    0    0 -0.92657187901E+01  0.33981168184E+02  0.10733302646E+02  0.36820878880E+02  0.00000000000E+00 0. -1.
         11    1    4    4    0    0 -0.29885333585E+01 -0.37295460293E+02 -0.15905369686E+02  0.40655423687E+02  0.51100000000E-03 0.  1.
        -11    1    4    4    0    0  0.11704000630E+02  0.32097485158E+01  0.49998566759E+01  0.13125726011E+02  0.51100000000E-03 0. -1.
        -12    1    4    4    0    0  0.55025151878E+00  0.10454359321E+00  0.17221036454E+00  0.58597142119E+00  0.00000000000E+00 0.  1.
</event>
<event>
 8    1  0.3186330E-007  0.9118800E+02  0.7816164E-02  0.1184000E+00
        -11   -1    0    0    0    0  0.00000000000E+00  0.00000000000E+00  0.45593999997E+02  0.45594000000E+02  0.51100000000E-03 0. -1.
         11   -1    0    0    0    0 -0.00000000000E+00 -0.00000000000E+00 -0.45593999997E+02  0.45594000000E+02  0.51100000000E-03 0.  1.
         23    2    1    2    0    0  0.66613381478E-15 -0.35527136788E-14 -0.35527136788E-14  0.91188000000E+02  0.91188000000E+02 0.  0.
    9900012    2    3    3    0    0 -0.13807789368E+01 -0.29066571850E+02 -0.22561188165E+02  0.54367090709E+02  0.40000014890E+02 0.  0.
         12    1    3    3    0    0  0.13807789368E+01  0.29066571850E+02  0.22561188165E+02  0.36820909291E+02  0.00000000000E+00 0. -1.
         11    1    4    4    0    0  0.14973546745E+02 -0.77373450374E+01 -0.15038748060E+02  0.22588438499E+02  0.51100000000E-03 0. -1.
        -11    1    4    4    0    0 -0.14330856624E+02 -0.22128554800E+02 -0.27166454752E+01  0.26503330961E+02  0.51100000000E-03 0.  1.
        -12    1    4    4    0    0 -0.20234690574E+01  0.79932798726E+00 -0.48057946298E+01  0.52753212491E+01  0.00000000000E+00 0.  1.
</event>
<event>
 8    1  0.3186330E-007  0.9118800E+02  0.7816164E-02  0.1184000E+00
        -11   -1    0    0    0    0  0.00000000000E+00  0.00000000000E+00  0.45593999997E+02  0.45594000000E+02  0.51100000000E-03 0.  1.
         11   -1    0    0    0    0 -0.00000000000E+00 -0.00000000000E+00 -0.45593999997E+02  0.45594000000E+02  0.51100000000E-03 0. -1.
         23    2    1    2    0    0 -0.35527136788E-14 -0.44408920985E-15  0.00000000000E+00  0.91188000000E+02  0.91188000000E+02 0.  0.
    9900012    2    3    3    0    0  0.29494699423E+02  0.26479342433E+01 -0.21882197400E+02  0.54367090005E+02  0.40000013285E+02 0.  0.
        -12    1    3    3    0    0 -0.29494699423E+02 -0.26479342433E+01  0.21882197400E+02  0.36820909995E+02  0.00000000000E+00 0.  1.
         11    1    4    4    0    0  0.60184481943E+01 -0.64078780148E+01 -0.11295810887E+01  0.88633274236E+01  0.51100000000E-03 0. -1.
        -11    1    4    4    0    0 -0.41037137270E+01 -0.65294228191E+01 -0.14771773234E+00  0.77133423037E+01  0.51100000000E-03 0.  1.
         12    1    4    4    0    0  0.27579964956E+02  0.15585235077E+02 -0.20604898579E+02  0.37790420278E+02  0.00000000000E+00 0. -1.
</event>
<event>
 8    1  0.3186330E-007  0.9118800E+02  0.7816164E-02  0.1184000E+00
        -11   -1    0    0    0    0  0.00000000000E+00  0.00000000000E+00  0.45593999997E+02  0.45594000000E+02  0.51100000000E-03 0. -1.
         11   -1    0    0    0    0 -0.00000000000E+00 -0.00000000000E+00 -0.45593999997E+02  0.45594000000E+02  0.51100000000E-03 0.  1.
         23    2    1    2    0    0  0.00000000000E+00 -0.71054273576E-14 -0.21649348980E-14  0.91188000000E+02  0.91188000000E+02 0.  0.
    9900012    2    3    3    0    0  0.12753489311E+02  0.34538117491E+02 -0.49579724542E+00  0.54367097454E+02  0.40000030265E+02 0.  0.
         12    1    3    3    0    0 -0.12753489311E+02 -0.34538117491E+02  0.49579724542E+00  0.36820902546E+02  0.00000000000E+00 0. -1.
         11    1    4    4    0    0 -0.16637446347E+01  0.16084679001E+02  0.10223613722E+02  0.19131315234E+02  0.51100000000E-03 0. -1.
        -11    1    4    4    0    0 -0.14135261485E+01  0.10744164180E+02  0.47174855623E+01  0.11819043548E+02  0.51100000000E-03 0.  1.
         12    1    4    4    0    0  0.15830760095E+02  0.77092743095E+01 -0.15436896530E+02  0.23416738672E+02  0.00000000000E+00 0. -1.
</event>
<event>
 8    1  0.3186330E-007  0.9118800E+02  0.7816164E-02  0.1184000E+00
        -11   -1    0    0    0    0  0.00000000000E+00  0.00000000000E+00  0.45593999997E+02  0.45594000000E+02  0.51100000000E-03 0. -1.
         11   -1    0    0    0    0 -0.00000000000E+00 -0.00000000000E+00 -0.45593999997E+02  0.45594000000E+02  0.51100000000E-03 0.  1.
         23    2    1    2    0    0 -0.17763568394E-14 -0.44408920985E-15  0.00000000000E+00  0.91188000000E+02  0.91188000000E+02 0.  0.
    9900012    2    3    3    0    0 -0.59643503377E+01  0.29940644210E+01 -0.36211079607E+02  0.54367079547E+02  0.39999989444E+02 0.  0.
         12    1    3    3    0    0  0.59643503377E+01 -0.29940644210E+01  0.36211079607E+02  0.36820920453E+02  0.00000000000E+00 0. -1.
         11    1    4    4    0    0  0.79268126824E+01 -0.86658608477E-01 -0.26399409561E+02  0.27563938297E+02  0.51100000000E-03 0. -1.
        -11    1    4    4    0    0 -0.14250636915E+02 -0.12084926215E+01 -0.14549764474E+02  0.20401881124E+02  0.51100000000E-03 0.  1.
        -12    1    4    4    0    0  0.35947389442E+00  0.42892156510E+01  0.47380944286E+01  0.64012601257E+01  0.00000000000E+00 0.  1.
</event>
<event>
 8    1  0.3186330E-007  0.9118800E+02  0.7816164E-02  0.1184000E+00
        -11   -1    0    0    0    0  0.00000000000E+00  0.00000000000E+00  0.45593999997E+02  0.45594000000E+02  0.51100000000E-03 0. -1.
         11   -1    0    0    0    0 -0.00000000000E+00 -0.00000000000E+00 -0.45593999997E+02  0.45594000000E+02  0.51100000000E-03 0.  1.
         23    2    1    2    0    0  0.44408920985E-15  0.35527136788E-14  0.00000000000E+00  0.91188000000E+02  0.91188000000E+02 0.  0.
    9900012    2    3    3    0    0  0.11322454836E+01  0.30586347684E+02  0.20468792168E+02  0.54367107870E+02  0.40000054011E+02 0.  0.
        -12    1    3    3    0    0 -0.11322454836E+01 -0.30586347684E+02 -0.20468792168E+02  0.36820892130E+02  0.00000000000E+00 0.  1.
         11    1    4    4    0    0 -0.93120671290E+01  0.87915124329E+01  0.54261258654E+01  0.13908563090E+02  0.51100000000E-03 0. -1.
        -11    1    4    4    0    0  0.14081908718E+02  0.12605029651E+02 -0.37106000053E+01  0.19260204524E+02  0.51100000000E-03 0.  1.
         12    1    4    4    0    0 -0.36375961052E+01  0.91898055999E+01  0.18753266307E+02  0.21198340255E+02  0.00000000000E+00 0. -1.
</event>
<event>
 8    1  0.3186330E-007  0.9118800E+02  0.7816164E-02  0.1184000E+00
        -11   -1    0    0    0    0  0.00000000000E+00  0.00000000000E+00  0.45593999997E+02  0.45594000000E+02  0.51100000000E-03 0. -1.
         11   -1    0    0    0    0 -0.00000000000E+00 -0.00000000000E+00 -0.45593999997E+02  0.45594000000E+02  0.51100000000E-03 0.  1.
         23    2    1    2    0    0  0.35527136788E-14 -0.17763568394E-14  0.00000000000E+00  0.91188000000E+02  0.91188000000E+02 0.  0.
    9900012    2    3    3    0    0  0.10898767525E+02  0.65155241591E+01  0.34562185190E+02  0.54367084289E+02  0.40000000255E+02 0.  0.
        -12    1    3    3    0    0 -0.10898767525E+02 -0.65155241591E+01 -0.34562185190E+02  0.36820915711E+02  0.00000000000E+00 0.  1.
         11    1    4    4    0    0 -0.35573059814E+01 -0.30464708948E+01  0.25492971882E+01  0.53323847548E+01  0.51100000000E-03 0.  1.
        -11    1    4    4    0    0  0.25124034995E+02  0.79570370208E+01  0.22848207791E+02  0.34879394664E+02  0.51100000000E-03 0. -1.
         12    1    4    4    0    0 -0.10667961489E+02  0.16049580331E+01  0.91646802114E+01  0.14155304871E+02  0.00000000000E+00 0. -1.
</event>
<event>
 8    1  0.3186330E-007  0.9118800E+02  0.7816164E-02  0.1184000E+00
        -11   -1    0    0    0    0  0.00000000000E+00  0.00000000000E+00  0.45593999997E+02  0.45594000000E+02  0.51100000000E-03 0.  1.
         11   -1    0    0    0    0 -0.00000000000E+00 -0.00000000000E+00 -0.45593999997E+02  0.45594000000E+02  0.51100000000E-03 0. -1.
         23    2    1    2    0    0  0.00000000000E+00  0.00000000000E+00 -0.17763568394E-14  0.91188000000E+02  0.91188000000E+02 0.  0.
    9900012    2    3    3    0    0 -0.28110166373E+01  0.34338069531E+02  0.12991312153E+02  0.54367095270E+02  0.40000025288E+02 0.  0.
         12    1    3    3    0    0  0.28110166373E+01 -0.34338069531E+02 -0.12991312153E+02  0.36820904730E+02  0.00000000000E+00 0. -1.
         11    1    4    4    0    0  0.26338541471E+01 -0.67874477570E+00 -0.69131053462E+01  0.74289237395E+01  0.51100000000E-03 0. -1.
        -11    1    4    4    0    0 -0.14174575655E+02  0.18736946313E+02  0.14821390003E+02  0.27778865240E+02  0.51100000000E-03 0.  1.
         12    1    4    4    0    0  0.87297048705E+01  0.16279867994E+02  0.50830274964E+01  0.19159306291E+02  0.00000000000E+00 0. -1.
</event>
<event>
 8    1  0.3186330E-007  0.9118800E+02  0.7816164E-02  0.1184000E+00
        -11   -1    0    0    0    0  0.00000000000E+00  0.00000000000E+00  0.45593999997E+02  0.45594000000E+02  0.51100000000E-03 0. -1.
         11   -1    0    0    0    0 -0.00000000000E+00 -0.00000000000E+00 -0.45593999997E+02  0.45594000000E+02  0.51100000000E-03 0.  1.
         23    2    1    2    0    0  0.00000000000E+00  0.00000000000E+00 -0.35527136788E-14  0.91188000000E+02  0.91188000000E+02 0.  0.
    9900012    2    3    3    0    0 -0.18403271209E+02 -0.11375723123E+02 -0.29794172529E+02  0.54367079527E+02  0.39999989398E+02 0.  0.
         12    1    3    3    0    0  0.18403271209E+02  0.11375723123E+02  0.29794172529E+02  0.36820920473E+02  0.00000000000E+00 0. -1.
         11    1    4    4    0    0  0.11844348125E+01  0.25962539784E+01 -0.18197530148E+01  0.33845120536E+01  0.51100000000E-03 0. -1.
        -11    1    4    4    0    0 -0.79288022117E+01 -0.98716676142E+01  0.65908309604E+01  0.14274269824E+02  0.51100000000E-03 0.  1.
        -12    1    4    4    0    0 -0.11658903810E+02 -0.41003094869E+01 -0.34565250475E+02  0.36708297650E+02  0.00000000000E+00 0.  1.
</event>
<event>
 8    1  0.3186330E-007  0.9118800E+02  0.7816164E-02  0.1184000E+00
        -11   -1    0    0    0    0  0.00000000000E+00  0.00000000000E+00  0.45593999997E+02  0.45594000000E+02  0.51100000000E-03 0.  1.
         11   -1    0    0    0    0 -0.00000000000E+00 -0.00000000000E+00 -0.45593999997E+02  0.45594000000E+02  0.51100000000E-03 0. -1.
         23    2    1    2    0    0  0.00000000000E+00  0.00000000000E+00  0.00000000000E+00  0.91188000000E+02  0.91188000000E+02 0.  0.
    9900012    2    3    3    0    0 -0.20471929366E+01  0.17193072915E+02 -0.32495987603E+02  0.54367055343E+02  0.39999934264E+02 0.  0.
        -12    1    3    3    0    0  0.20471929366E+01 -0.17193072915E+02  0.32495987603E+02  0.36820944657E+02  0.00000000000E+00 0.  1.
         11    1    4    4    0    0 -0.62238744002E+01  0.21882249759E+02 -0.31563775929E+02  0.38908115069E+02  0.51100000000E-03 0. -1.
        -11    1    4    4    0    0  0.38908685060E+01  0.45265028505E+01  0.96286614233E+00  0.60460894184E+01  0.51100000000E-03 0.  1.
         12    1    4    4    0    0  0.28581295759E+00 -0.92156796951E+01 -0.18950778166E+01  0.94128508551E+01  0.00000000000E+00 0. -1.
</event>
<event>
 8    1  0.3186330E-007  0.9118800E+02  0.7816164E-02  0.1184000E+00
        -11   -1    0    0    0    0  0.00000000000E+00  0.00000000000E+00  0.45593999997E+02  0.45594000000E+02  0.51100000000E-03 0.  1.
         11   -1    0    0    0    0 -0.00000000000E+00 -0.00000000000E+00 -0.45593999997E+02  0.45594000000E+02  0.51100000000E-03 0. -1.
         23    2    1    2    0    0  0.00000000000E+00  0.00000000000E+00  0.00000000000E+00  0.91188000000E+02  0.91188000000E+02 0.  0.
    9900012    2    3    3    0    0  0.10136247426E+02 -0.21763776104E+02 -0.27917207849E+02  0.54367136943E+02  0.40000120288E+02 0.  0.
        -12    1    3    3    0    0 -0.10136247426E+02  0.21763776104E+02  0.27917207849E+02  0.36820863057E+02  0.00000000000E+00 0.  1.
         11    1    4    4    0    0  0.19808054112E+02  0.70011439007E+00 -0.14449526379E+02  0.24528309781E+02  0.51100000000E-03 0.  1.
        -11    1    4    4    0    0 -0.95656248433E+00 -0.36013001800E+01 -0.72472459031E+01  0.81490458468E+01  0.51100000000E-03 0. -1.
        -12    1    4    4    0    0 -0.87152442022E+01 -0.18862590314E+02 -0.62204355675E+01  0.21689781315E+02  0.00000000000E+00 0.  1.
</event>
<event>
 8    1  0.3186330E-007  0.9118800E+02  0.7816164E-02  0.1184000E+00
        -11   -1    0    0    0    0  0.00000000000E+00  0.00000000000E+00  0.45593999997E+02  0.45594000000E+02  0.51100000000E-03 0.  1.
         11   -1    0    0    0    0 -0.00000000000E+00 -0.00000000000E+00 -0.45593999997E+02  0.45594000000E+02  0.51100000000E-03 0. -1.
         23    2    1    2    0    0  0.00000000000E+00  0.44408920985E-15  0.17763568394E-14  0.91188000000E+02  0.91188000000E+02 0.  0.
    9900012    2    3    3    0    0 -0.34833168711E+02 -0.21519992607E+01 -0.11738701227E+02  0.54367111231E+02  0.40000061673E+02 0.  0.
        -12    1    3    3    0    0  0.34833168711E+02  0.21519992607E+01  0.11738701227E+02  0.36820888769E+02  0.00000000000E+00 0.  1.
         11    1    4    4    0    0  0.64810567636E+01  0.58179295321E+01 -0.47839115762E+01  0.99367102727E+01  0.51100000000E-03 0. -1.
        -11    1    4    4    0    0 -0.14116398194E+01 -0.43117132425E+00  0.23447993782E+01  0.27706894586E+01  0.51100000000E-03 0.  1.
        -12    1    4    4    0    0 -0.39902585655E+02 -0.75387574686E+01 -0.92995890288E+01  0.41659711500E+02  0.00000000000E+00 0.  1.
</event>
<event>
 8    1  0.3186330E-007  0.9118800E+02  0.7816164E-02  0.1184000E+00
        -11   -1    0    0    0    0  0.00000000000E+00  0.00000000000E+00  0.45593999997E+02  0.45594000000E+02  0.51100000000E-03 0.  1.
         11   -1    0    0    0    0 -0.00000000000E+00 -0.00000000000E+00 -0.45593999997E+02  0.45594000000E+02  0.51100000000E-03 0. -1.
         23    2    1    2    0    0 -0.35527136788E-14 -0.35527136788E-14 -0.35527136788E-14  0.91188000000E+02  0.91188000000E+02 0.  0.
    9900012    2    3    3    0    0 -0.29731220186E+02  0.17408430657E+02  0.12991557884E+02  0.54367088985E+02  0.40000010960E+02 0.  0.
         12    1    3    3    0    0  0.29731220186E+02 -0.17408430657E+02 -0.12991557884E+02  0.36820911015E+02  0.00000000000E+00 0. -1.
         11    1    4    4    0    0 -0.16593310016E+02 -0.61400858114E+01 -0.15320208555E+00  0.17693559908E+02  0.51100000000E-03 0. -1.
        -11    1    4    4    0    0 -0.55427582517E+01  0.23908292027E+02  0.15108916366E+02  0.28820269789E+02  0.51100000000E-03 0.  1.
        -12    1    4    4    0    0 -0.75951519180E+01 -0.35977555799E+00 -0.19641563966E+01  0.78532592890E+01  0.00000000000E+00 0.  1.
</event>
<event>
 8    1  0.3186330E-007  0.9118800E+02  0.7816164E-02  0.1184000E+00
        -11   -1    0    0    0    0  0.00000000000E+00  0.00000000000E+00  0.45593999997E+02  0.45594000000E+02  0.51100000000E-03 0.  1.
         11   -1    0    0    0    0 -0.00000000000E+00 -0.00000000000E+00 -0.45593999997E+02  0.45594000000E+02  0.51100000000E-03 0. -1.
         23    2    1    2    0    0  0.17763568394E-14  0.00000000000E+00 -0.17763568394E-14  0.91188000000E+02  0.91188000000E+02 0.  0.
    9900012    2    3    3    0    0 -0.54839567769E+01  0.34520319673E+02 -0.11578167250E+02  0.54367079192E+02  0.39999988634E+02 0.  0.
        -12    1    3    3    0    0  0.54839567769E+01 -0.34520319673E+02  0.11578167250E+02  0.36820920808E+02  0.00000000000E+00 0.  1.
         11    1    4    4    0    0 -0.25279741760E+01 -0.24678948940E+01  0.36978682086E+01  0.51142338812E+01  0.51100000000E-03 0. -1.
        -11    1    4    4    0    0 -0.15747609582E+02  0.21021740194E+02 -0.10174946338E+02  0.28167894873E+02  0.51100000000E-03 0.  1.
        -12    1    4    4    0    0  0.12791626981E+02  0.15966474374E+02 -0.51010891200E+01  0.21084950438E+02  0.00000000000E+00 0.  1.
</event>
<event>
 8    1  0.3186330E-007  0.9118800E+02  0.7816164E-02  0.1184000E+00
        -11   -1    0    0    0    0  0.00000000000E+00  0.00000000000E+00  0.45593999997E+02  0.45594000000E+02  0.51100000000E-03 0. -1.
         11   -1    0    0    0    0 -0.00000000000E+00 -0.00000000000E+00 -0.45593999997E+02  0.45594000000E+02  0.51100000000E-03 0.  1.
         23    2    1    2    0    0  0.00000000000E+00  0.00000000000E+00  0.11102230246E-15  0.91188000000E+02  0.91188000000E+02 0.  0.
    9900012    2    3    3    0    0  0.33089451199E+02  0.16143117417E+02 -0.51861643203E+00  0.54367068676E+02  0.39999964660E+02 0.  0.
         12    1    3    3    0    0 -0.33089451199E+02 -0.16143117417E+02  0.51861643203E+00  0.36820931324E+02  0.00000000000E+00 0. -1.
         11    1    4    4    0    0 -0.21008085060E+01 -0.46711619911E+01  0.12115551126E+00  0.51232635736E+01  0.51100000000E-03 0. -1.
        -11    1    4    4    0    0  0.73343765222E+01  0.20003472707E+02 -0.15430976331E+01  0.21361487539E+02  0.51100000000E-03 0.  1.
        -12    1    4    4    0    0  0.27855883183E+02  0.81080670102E+00  0.90332568980E+00  0.27882317564E+02  0.00000000000E+00 0.  1.
</event>
<event>
 8    1  0.3186330E-007  0.9118800E+02  0.7816164E-02  0.1184000E+00
        -11   -1    0    0    0    0  0.00000000000E+00  0.00000000000E+00  0.45593999997E+02  0.45594000000E+02  0.51100000000E-03 0.  1.
         11   -1    0    0    0    0 -0.00000000000E+00 -0.00000000000E+00 -0.45593999997E+02  0.45594000000E+02  0.51100000000E-03 0. -1.
         23    2    1    2    0    0  0.00000000000E+00  0.35527136788E-14  0.71054273576E-14  0.91188000000E+02  0.91188000000E+02 0.  0.
    9900012    2    3    3    0    0  0.10686900886E+02 -0.22478507251E+02 -0.27134598977E+02  0.54367087458E+02  0.40000007478E+02 0.  0.
        -12    1    3    3    0    0 -0.10686900886E+02  0.22478507251E+02  0.27134598977E+02  0.36820912542E+02  0.00000000000E+00 0.  1.
         11    1    4    4    0    0 -0.10443074870E+02 -0.27106376118E+01 -0.64758746854E+01  0.12583414568E+02  0.51100000000E-03 0. -1.
        -11    1    4    4    0    0  0.19554430578E+02 -0.20994296087E+02 -0.24321457668E+02  0.37612092826E+02  0.51100000000E-03 0.  1.
        -12    1    4    4    0    0  0.15755451775E+01  0.12264264477E+01  0.36627333764E+01  0.41715800633E+01  0.00000000000E+00 0.  1.
</event>
<event>
 8    1  0.3186330E-007  0.9118800E+02  0.7816164E-02  0.1184000E+00
        -11   -1    0    0    0    0  0.00000000000E+00  0.00000000000E+00  0.45593999997E+02  0.45594000000E+02  0.51100000000E-03 0.  1.
         11   -1    0    0    0    0 -0.00000000000E+00 -0.00000000000E+00 -0.45593999997E+02  0.45594000000E+02  0.51100000000E-03 0. -1.
         23    2    1    2    0    0  0.00000000000E+00 -0.44408920985E-15  0.00000000000E+00  0.91188000000E+02  0.91188000000E+02 0.  0.
    9900012    2    3    3    0    0  0.35333876183E+02 -0.21210981540E+01  0.10138858309E+02  0.54367104964E+02  0.40000047386E+02 0.  0.
         12    1    3    3    0    0 -0.35333876183E+02  0.21210981540E+01 -0.10138858309E+02  0.36820895036E+02  0.00000000000E+00 0. -1.
         11    1    4    4    0    0  0.46643372828E+01  0.14095227056E+02  0.44306097185E-01  0.14847000752E+02  0.51100000000E-03 0. -1.
        -11    1    4    4    0    0  0.15610019417E+02 -0.11820654405E+02  0.13084158101E+02  0.23549857117E+02  0.51100000000E-03 0.  1.
         12    1    4    4    0    0  0.15059519483E+02 -0.43956708047E+01 -0.29896058897E+01  0.15970247095E+02  0.00000000000E+00 0. -1.
</event>
<event>
 8    1  0.3186330E-007  0.9118800E+02  0.7816164E-02  0.1184000E+00
        -11   -1    0    0    0    0  0.00000000000E+00  0.00000000000E+00  0.45593999997E+02  0.45594000000E+02  0.51100000000E-03 0. -1.
         11   -1    0    0    0    0 -0.00000000000E+00 -0.00000000000E+00 -0.45593999997E+02  0.45594000000E+02  0.51100000000E-03 0.  1.
         23    2    1    2    0    0 -0.17763568394E-14  0.00000000000E+00  0.00000000000E+00  0.91188000000E+02  0.91188000000E+02 0.  0.
    9900012    2    3    3    0    0  0.88141647561E+01  0.84082482423E+01  0.34747550998E+02  0.54367076068E+02  0.39999981513E+02 0.  0.
        -12    1    3    3    0    0 -0.88141647561E+01 -0.84082482423E+01 -0.34747550998E+02  0.36820923932E+02  0.00000000000E+00 0.  1.
         11    1    4    4    0    0  0.75835773101E+01  0.51228511504E+01  0.14197917379E+02  0.16891865110E+02  0.51100000000E-03 0. -1.
        -11    1    4    4    0    0  0.19349281576E+01 -0.10246941685E+02 -0.25127505408E+01  0.10726494135E+02  0.51100000000E-03 0.  1.
        -12    1    4    4    0    0 -0.70434071158E+00  0.13532338777E+02  0.23062384160E+02  0.26748716824E+02  0.00000000000E+00 0.  1.
</event>
<event>
 8    1  0.3186330E-007  0.9118800E+02  0.7816164E-02  0.1184000E+00
        -11   -1    0    0    0    0  0.00000000000E+00  0.00000000000E+00  0.45593999997E+02  0.45594000000E+02  0.51100000000E-03 0. -1.
         11   -1    0    0    0    0 -0.00000000000E+00 -0.00000000000E+00 -0.45593999997E+02  0.45594000000E+02  0.51100000000E-03 0.  1.
         23    2    1    2    0    0  0.00000000000E+00  0.00000000000E+00  0.26645352591E-14  0.91188000000E+02  0.91188000000E+02 0.  0.
    9900012    2    3    3    0    0 -0.19981804881E+02  0.30206804497E+02  0.66375117388E+01  0.54367080317E+02  0.39999991198E+02 0.  0.
        -12    1    3    3    0    0  0.19981804881E+02 -0.30206804497E+02 -0.66375117388E+01  0.36820919683E+02  0.00000000000E+00 0.  1.
         11    1    4    4    0    0 -0.15846004304E+02  0.18422873924E+02 -0.82684227197E+01  0.25668364781E+02  0.51100000000E-03 0. -1.
        -11    1    4    4    0    0 -0.82339182506E+00  0.34245665922E+01 -0.54250329172E+01  0.64681228232E+01  0.51100000000E-03 0.  1.
        -12    1    4    4    0    0 -0.33124087516E+01  0.83593639811E+01  0.20330967376E+02  0.22230592712E+02  0.00000000000E+00 0.  1.
</event>
<event>
 8    1  0.3186330E-007  0.9118800E+02  0.7816164E-02  0.1184000E+00
        -11   -1    0    0    0    0  0.00000000000E+00  0.00000000000E+00  0.45593999997E+02  0.45594000000E+02  0.51100000000E-03 0.  1.
         11   -1    0    0    0    0 -0.00000000000E+00 -0.00000000000E+00 -0.45593999997E+02  0.45594000000E+02  0.51100000000E-03 0. -1.
         23    2    1    2    0    0  0.17763568394E-14 -0.35527136788E-14  0.35527136788E-14  0.91188000000E+02  0.91188000000E+02 0.  0.
    9900012    2    3    3    0    0 -0.13844126859E+02  0.29634041559E+02  0.16909884550E+02  0.54367075743E+02  0.39999980772E+02 0.  0.
         12    1    3    3    0    0  0.13844126859E+02 -0.29634041559E+02 -0.16909884550E+02  0.36820924257E+02  0.00000000000E+00 0. -1.
         11    1    4    4    0    0  0.98565496410E+00  0.84779063445E+01  0.10964850512E+01  0.86051549331E+01  0.51100000000E-03 0. -1.
        -11    1    4    4    0    0 -0.88729233125E+01 -0.42733480447E+01  0.16967556265E+02  0.19618568691E+02  0.51100000000E-03 0.  1.
        -12    1    4    4    0    0 -0.59568585103E+01  0.25429483260E+02 -0.11541567669E+01  0.26143352119E+02  0.00000000000E+00 0.  1.
</event>
<event>
 8    1  0.3186330E-007  0.9118800E+02  0.7816164E-02  0.1184000E+00
        -11   -1    0    0    0    0  0.00000000000E+00  0.00000000000E+00  0.45593999997E+02  0.45594000000E+02  0.51100000000E-03 0.  1.
         11   -1    0    0    0    0 -0.00000000000E+00 -0.00000000000E+00 -0.45593999997E+02  0.45594000000E+02  0.51100000000E-03 0. -1.
         23    2    1    2    0    0  0.00000000000E+00  0.00000000000E+00  0.00000000000E+00  0.91188000000E+02  0.91188000000E+02 0.  0.
    9900012    2    3    3    0    0 -0.14898106956E+02  0.22215242284E+02 -0.25304346383E+02  0.54367074883E+02  0.39999978811E+02 0.  0.
        -12    1    3    3    0    0  0.14898106956E+02 -0.22215242284E+02  0.25304346383E+02  0.36820925117E+02  0.00000000000E+00 0.  1.
         11    1    4    4    0    0 -0.50188969367E+01 -0.15578738041E+01 -0.53236316500E+01  0.74804646551E+01  0.51100000000E-03 0. -1.
        -11    1    4    4    0    0 -0.21179703452E+02  0.76918487965E+01 -0.82418369046E+01  0.23993170946E+02  0.51100000000E-03 0.  1.
         12    1    4    4    0    0  0.11300493432E+02  0.16081267292E+02 -0.11738877828E+02  0.22893439282E+02  0.00000000000E+00 0. -1.
</event>
<event>
 8    1  0.3186330E-007  0.9118800E+02  0.7816164E-02  0.1184000E+00
        -11   -1    0    0    0    0  0.00000000000E+00  0.00000000000E+00  0.45593999997E+02  0.45594000000E+02  0.51100000000E-03 0.  1.
         11   -1    0    0    0    0 -0.00000000000E+00 -0.00000000000E+00 -0.45593999997E+02  0.45594000000E+02  0.51100000000E-03 0. -1.
         23    2    1    2    0    0  0.13322676296E-14  0.35527136788E-14 -0.71054273576E-14  0.91188000000E+02  0.91188000000E+02 0.  0.
    9900012    2    3    3    0    0 -0.19978074775E+01  0.16447157157E+02 -0.32882779000E+02  0.54367117772E+02  0.40000076585E+02 0.  0.
        -12    1    3    3    0    0  0.19978074775E+01 -0.16447157157E+02  0.32882779000E+02  0.36820882228E+02  0.00000000000E+00 0.  1.
         11    1    4    4    0    0  0.10011485799E+02 -0.15330487187E+01 -0.26686023003E+01  0.10473849568E+02  0.51100000000E-03 0.  1.
        -11    1    4    4    0    0 -0.18139423385E+02  0.15499342153E+02 -0.28285689410E+02  0.37004709343E+02  0.51100000000E-03 0. -1.
         12    1    4    4    0    0  0.61301301083E+01  0.24808637228E+01 -0.19284872903E+01  0.68885588612E+01  0.00000000000E+00 0. -1.
</event>
<event>
 8    1  0.3186330E-007  0.9118800E+02  0.7816164E-02  0.1184000E+00
        -11   -1    0    0    0    0  0.00000000000E+00  0.00000000000E+00  0.45593999997E+02  0.45594000000E+02  0.51100000000E-03 0. -1.
         11   -1    0    0    0    0 -0.00000000000E+00 -0.00000000000E+00 -0.45593999997E+02  0.45594000000E+02  0.51100000000E-03 0.  1.
         23    2    1    2    0    0  0.00000000000E+00  0.00000000000E+00  0.00000000000E+00  0.91188000000E+02  0.91188000000E+02 0.  0.
    9900012    2    3    3    0    0  0.26605990617E+01  0.91302647230E+01  0.35571645028E+02  0.54367048746E+02  0.39999919225E+02 0.  0.
        -12    1    3    3    0    0 -0.26605990617E+01 -0.91302647230E+01 -0.35571645028E+02  0.36820951254E+02  0.00000000000E+00 0.  1.
         11    1    4    4    0    0  0.52030031224E+01  0.90523915836E+00  0.33841527290E+02  0.34251126537E+02  0.51100000000E-03 0. -1.
        -11    1    4    4    0    0 -0.78642983996E+01 -0.23383543980E+01  0.99768357433E+00  0.82650144213E+01  0.51100000000E-03 0.  1.
         12    1    4    4    0    0  0.53218943389E+01  0.10563379963E+02  0.73243416324E+00  0.11850907788E+02  0.00000000000E+00 0. -1.
</event>
<event>
 8    1  0.3186330E-007  0.9118800E+02  0.7816164E-02  0.1184000E+00
        -11   -1    0    0    0    0  0.00000000000E+00  0.00000000000E+00  0.45593999997E+02  0.45594000000E+02  0.51100000000E-03 0.  1.
         11   -1    0    0    0    0 -0.00000000000E+00 -0.00000000000E+00 -0.45593999997E+02  0.45594000000E+02  0.51100000000E-03 0. -1.
         23    2    1    2    0    0  0.13322676296E-14  0.00000000000E+00  0.00000000000E+00  0.91188000000E+02  0.91188000000E+02 0.  0.
    9900012    2    3    3    0    0 -0.39281337288E+01 -0.36483553647E+02  0.30496601552E+01  0.54367077302E+02  0.39999984324E+02 0.  0.
        -12    1    3    3    0    0  0.39281337288E+01  0.36483553647E+02 -0.30496601552E+01  0.36820922698E+02  0.00000000000E+00 0.  1.
         11    1    4    4    0    0  0.12104037694E+02 -0.10298215276E+02 -0.48723258414E+01  0.16622290027E+02  0.51100000000E-03 0. -1.
        -11    1    4    4    0    0 -0.89395389288E+01 -0.45515146118E+00 -0.21704541249E+01  0.92105043554E+01  0.51100000000E-03 0.  1.
         12    1    4    4    0    0 -0.70926324941E+01 -0.25730186910E+02  0.10092440122E+02  0.28534282919E+02  0.00000000000E+00 0. -1.
</event>
<event>
 8    1  0.3186330E-007  0.9118800E+02  0.7816164E-02  0.1184000E+00
        -11   -1    0    0    0    0  0.00000000000E+00  0.00000000000E+00  0.45593999997E+02  0.45594000000E+02  0.51100000000E-03 0. -1.
         11   -1    0    0    0    0 -0.00000000000E+00 -0.00000000000E+00 -0.45593999997E+02  0.45594000000E+02  0.51100000000E-03 0.  1.
         23    2    1    2    0    0  0.00000000000E+00 -0.88817841970E-15  0.00000000000E+00  0.91188000000E+02  0.91188000000E+02 0.  0.
    9900012    2    3    3    0    0  0.35308892044E+02 -0.44599351057E+01 -0.94430444958E+01  0.54367082469E+02  0.39999996104E+02 0.  0.
        -12    1    3    3    0    0 -0.35308892044E+02  0.44599351057E+01  0.94430444958E+01  0.36820917531E+02  0.00000000000E+00 0.  1.
         11    1    4    4    0    0 -0.50986130943E+01 -0.76000315905E+01 -0.76016889756E+00  0.91833649974E+01  0.51100000000E-03 0. -1.
        -11    1    4    4    0    0  0.43557119037E+01  0.22421839082E+01  0.46312319351E+01  0.67415075735E+01  0.51100000000E-03 0.  1.
         12    1    4    4    0    0  0.36051793234E+02  0.89791257661E+00 -0.13314107533E+02  0.38442209898E+02  0.00000000000E+00 0. -1.
</event>
<event>
 8    1  0.3186330E-007  0.9118800E+02  0.7816164E-02  0.1184000E+00
        -11   -1    0    0    0    0  0.00000000000E+00  0.00000000000E+00  0.45593999997E+02  0.45594000000E+02  0.51100000000E-03 0. -1.
         11   -1    0    0    0    0 -0.00000000000E+00 -0.00000000000E+00 -0.45593999997E+02  0.45594000000E+02  0.51100000000E-03 0.  1.
         23    2    1    2    0    0  0.35527136788E-14  0.17763568394E-14  0.71054273576E-14  0.91188000000E+02  0.91188000000E+02 0.  0.
    9900012    2    3    3    0    0  0.17851042504E+02  0.12141476964E+02  0.29827907773E+02  0.54367092034E+02  0.40000017909E+02 0.  0.
        -12    1    3    3    0    0 -0.17851042504E+02 -0.12141476964E+02 -0.29827907773E+02  0.36820907966E+02  0.00000000000E+00 0.  1.
         11    1    4    4    0    0 -0.57966397354E+01  0.10216111608E+02 -0.11366063061E+01  0.11800925505E+02  0.51100000000E-03 0. -1.
        -11    1    4    4    0    0  0.37636099261E+01 -0.44970211022E+01  0.15494997761E+02  0.16567525897E+02  0.51100000000E-03 0.  1.
         12    1    4    4    0    0  0.19884072313E+02  0.64223864577E+01  0.15469516319E+02  0.25998640632E+02  0.00000000000E+00 0. -1.
</event>
<event>
 8    1  0.3186330E-007  0.9118800E+02  0.7816164E-02  0.1184000E+00
        -11   -1    0    0    0    0  0.00000000000E+00  0.00000000000E+00  0.45593999997E+02  0.45594000000E+02  0.51100000000E-03 0.  1.
         11   -1    0    0    0    0 -0.00000000000E+00 -0.00000000000E+00 -0.45593999997E+02  0.45594000000E+02  0.51100000000E-03 0. -1.
         23    2    1    2    0    0  0.35527136788E-14  0.00000000000E+00  0.26645352591E-14  0.91188000000E+02  0.91188000000E+02 0.  0.
    9900012    2    3    3    0    0  0.31253794491E+02  0.18983185568E+02  0.43149443524E+01  0.54367085439E+02  0.40000002874E+02 0.  0.
         12    1    3    3    0    0 -0.31253794491E+02 -0.18983185568E+02 -0.43149443524E+01  0.36820914561E+02  0.00000000000E+00 0. -1.
         11    1    4    4    0    0  0.18582628202E+02 -0.93896754994E+01  0.61006656195E+01  0.21695580153E+02  0.51100000000E-03 0. -1.
        -11    1    4    4    0    0  0.44865693984E+01  0.18711759244E+02  0.22707925615E+01  0.19375648069E+02  0.51100000000E-03 0.  1.
         12    1    4    4    0    0  0.81845968898E+01  0.96611018238E+01 -0.40565138285E+01  0.13295857217E+02  0.00000000000E+00 0. -1.
</event>
<event>
 8    1  0.3186330E-007  0.9118800E+02  0.7816164E-02  0.1184000E+00
        -11   -1    0    0    0    0  0.00000000000E+00  0.00000000000E+00  0.45593999997E+02  0.45594000000E+02  0.51100000000E-03 0. -1.
         11   -1    0    0    0    0 -0.00000000000E+00 -0.00000000000E+00 -0.45593999997E+02  0.45594000000E+02  0.51100000000E-03 0.  1.
         23    2    1    2    0    0  0.00000000000E+00 -0.71054273576E-14  0.00000000000E+00  0.91188000000E+02  0.91188000000E+02 0.  0.
    9900012    2    3    3    0    0  0.46516204729E+01 -0.34260488289E+02  0.12663393905E+02  0.54367079642E+02  0.39999989660E+02 0.  0.
         12    1    3    3    0    0 -0.46516204729E+01  0.34260488289E+02 -0.12663393905E+02  0.36820920358E+02  0.00000000000E+00 0. -1.
         11    1    4    4    0    0 -0.53364337711E+01 -0.11491739780E+02 -0.57897204174E+01  0.13930487118E+02  0.51100000000E-03 0. -1.
        -11    1    4    4    0    0  0.28323392857E+01 -0.92746097371E+01 -0.61461576984E+01  0.11481105623E+02  0.51100000000E-03 0.  1.
         12    1    4    4    0    0  0.71557149584E+01 -0.13494138772E+02  0.24599272020E+02  0.28955486901E+02  0.00000000000E+00 0. -1.
</event>
<event>
 8    1  0.3186330E-007  0.9118800E+02  0.7816164E-02  0.1184000E+00
        -11   -1    0    0    0    0  0.00000000000E+00  0.00000000000E+00  0.45593999997E+02  0.45594000000E+02  0.51100000000E-03 0.  1.
         11   -1    0    0    0    0 -0.00000000000E+00 -0.00000000000E+00 -0.45593999997E+02  0.45594000000E+02  0.51100000000E-03 0. -1.
         23    2    1    2    0    0 -0.17763568394E-14 -0.44408920985E-15 -0.71054273576E-14  0.91188000000E+02  0.91188000000E+02 0.  0.
    9900012    2    3    3    0    0 -0.91239356046E+01 -0.17348279824E+01 -0.35630388039E+02  0.54367076861E+02  0.39999983320E+02 0.  0.
        -12    1    3    3    0    0  0.91239356046E+01  0.17348279824E+01  0.35630388039E+02  0.36820923139E+02  0.00000000000E+00 0.  1.
         11    1    4    4    0    0 -0.54120326306E+00  0.93593929284E+01 -0.12376105216E+02  0.15526078627E+02  0.51100000000E-03 0. -1.
        -11    1    4    4    0    0  0.58776899611E+01 -0.10336243064E+02 -0.21074585948E+02  0.24197589407E+02  0.51100000000E-03 0.  1.
        -12    1    4    4    0    0 -0.14460422303E+02 -0.75797784633E+00 -0.21796968738E+01  0.14643408826E+02  0.00000000000E+00 0.  1.
</event>
<event>
 8    1  0.3186330E-007  0.9118800E+02  0.7816164E-02  0.1184000E+00
        -11   -1    0    0    0    0  0.00000000000E+00  0.00000000000E+00  0.45593999997E+02  0.45594000000E+02  0.51100000000E-03 0.  1.
         11   -1    0    0    0    0 -0.00000000000E+00 -0.00000000000E+00 -0.45593999997E+02  0.45594000000E+02  0.51100000000E-03 0. -1.
         23    2    1    2    0    0  0.00000000000E+00  0.00000000000E+00  0.35527136788E-14  0.91188000000E+02  0.91188000000E+02 0.  0.
    9900012    2    3    3    0    0 -0.21486263532E+02  0.17965305830E+02 -0.23903281097E+02  0.54367101297E+02  0.40000039026E+02 0.  0.
        -12    1    3    3    0    0  0.21486263532E+02 -0.17965305830E+02  0.23903281097E+02  0.36820898703E+02  0.00000000000E+00 0.  1.
         11    1    4    4    0    0  0.33534669646E+01 -0.19096133795E+01 -0.16316612583E+01  0.41898308636E+01  0.51100000000E-03 0. -1.
        -11    1    4    4    0    0 -0.16634549722E+02  0.84394921942E+01 -0.29075469519E+02  0.34544409113E+02  0.51100000000E-03 0.  1.
        -12    1    4    4    0    0 -0.82051807745E+01  0.11435427015E+02  0.68038496808E+01  0.15632861320E+02  0.00000000000E+00 0.  1.
</event>
<event>
 8    1  0.3186330E-007  0.9118800E+02  0.7816164E-02  0.1184000E+00
        -11   -1    0    0    0    0  0.00000000000E+00  0.00000000000E+00  0.45593999997E+02  0.45594000000E+02  0.51100000000E-03 0.  1.
         11   -1    0    0    0    0 -0.00000000000E+00 -0.00000000000E+00 -0.45593999997E+02  0.45594000000E+02  0.51100000000E-03 0. -1.
         23    2    1    2    0    0 -0.17763568394E-14  0.00000000000E+00  0.00000000000E+00  0.91188000000E+02  0.91188000000E+02 0.  0.
    9900012    2    3    3    0    0 -0.80268143189E+01 -0.20673543092E+02 -0.29393098260E+02  0.54367090758E+02  0.40000015001E+02 0.  0.
        -12    1    3    3    0    0  0.80268143189E+01  0.20673543092E+02  0.29393098260E+02  0.36820909242E+02  0.00000000000E+00 0.  1.
         11    1    4    4    0    0 -0.18384194329E+02 -0.61722381114E+01 -0.19322881383E+02  0.27376063809E+02  0.51100000000E-03 0. -1.
        -11    1    4    4    0    0  0.76480163838E+01  0.15724720026E+01 -0.68254189326E+01  0.10370687859E+02  0.51100000000E-03 0.  1.
         12    1    4    4    0    0  0.27093636267E+01 -0.16073776983E+02 -0.32447979445E+01  0.16620339090E+02  0.00000000000E+00 0. -1.
</event>
<event>
 8    1  0.3186330E-007  0.9118800E+02  0.7816164E-02  0.1184000E+00
        -11   -1    0    0    0    0  0.00000000000E+00  0.00000000000E+00  0.45593999997E+02  0.45594000000E+02  0.51100000000E-03 0. -1.
         11   -1    0    0    0    0 -0.00000000000E+00 -0.00000000000E+00 -0.45593999997E+02  0.45594000000E+02  0.51100000000E-03 0.  1.
         23    2    1    2    0    0  0.00000000000E+00  0.35527136788E-14  0.17763568394E-14  0.91188000000E+02  0.91188000000E+02 0.  0.
    9900012    2    3    3    0    0 -0.22996482625E+02  0.24519237598E+02  0.15024926657E+02  0.54367086832E+02  0.40000006050E+02 0.  0.
        -12    1    3    3    0    0  0.22996482625E+02 -0.24519237598E+02 -0.15024926657E+02  0.36820913168E+02  0.00000000000E+00 0.  1.
         11    1    4    4    0    0  0.74479512664E+01  0.99843587587E+01  0.77133279543E+01  0.14651103245E+02  0.51100000000E-03 0. -1.
        -11    1    4    4    0    0 -0.19254201250E+01  0.61274726285E+01 -0.43727209691E+01  0.77700612871E+01  0.51100000000E-03 0.  1.
         12    1    4    4    0    0 -0.28519013767E+02  0.84074062103E+01  0.11684319672E+02  0.31945922300E+02  0.00000000000E+00 0. -1.
</event>
<event>
 8    1  0.3186330E-007  0.9118800E+02  0.7816164E-02  0.1184000E+00
        -11   -1    0    0    0    0  0.00000000000E+00  0.00000000000E+00  0.45593999997E+02  0.45594000000E+02  0.51100000000E-03 0.  1.
         11   -1    0    0    0    0 -0.00000000000E+00 -0.00000000000E+00 -0.45593999997E+02  0.45594000000E+02  0.51100000000E-03 0. -1.
         23    2    1    2    0    0 -0.35527136788E-14  0.00000000000E+00 -0.35527136788E-14  0.91188000000E+02  0.91188000000E+02 0.  0.
    9900012    2    3    3    0    0 -0.20527163452E+02 -0.16618695378E+02 -0.25656098709E+02  0.54367070131E+02  0.39999967978E+02 0.  0.
        -12    1    3    3    0    0  0.20527163452E+02  0.16618695378E+02  0.25656098709E+02  0.36820929869E+02  0.00000000000E+00 0.  1.
         11    1    4    4    0    0 -0.40866778985E+01  0.67372555854E+01 -0.45969025552E+01  0.91226675064E+01  0.51100000000E-03 0. -1.
        -11    1    4    4    0    0 -0.20494082887E+02 -0.18498770847E+02 -0.25445776633E+02  0.37545965229E+02  0.51100000000E-03 0.  1.
         12    1    4    4    0    0  0.40535973341E+01 -0.48571801164E+01  0.43865804793E+01  0.76984373955E+01  0.00000000000E+00 0. -1.
</event>
<event>
 8    1  0.3186330E-007  0.9118800E+02  0.7816164E-02  0.1184000E+00
        -11   -1    0    0    0    0  0.00000000000E+00  0.00000000000E+00  0.45593999997E+02  0.45594000000E+02  0.51100000000E-03 0. -1.
         11   -1    0    0    0    0 -0.00000000000E+00 -0.00000000000E+00 -0.45593999997E+02  0.45594000000E+02  0.51100000000E-03 0.  1.
         23    2    1    2    0    0  0.71054273576E-14 -0.17763568394E-14  0.00000000000E+00  0.91188000000E+02  0.91188000000E+02 0.  0.
    9900012    2    3    3    0    0 -0.22281306628E+02  0.11514076962E+02  0.26958292227E+02  0.54367080496E+02  0.39999991606E+02 0.  0.
        -12    1    3    3    0    0  0.22281306628E+02 -0.11514076962E+02 -0.26958292227E+02  0.36820919504E+02  0.00000000000E+00 0.  1.
         11    1    4    4    0    0 -0.17942121712E+02  0.43595086377E+01 -0.11692437245E+01  0.18501139918E+02  0.51100000000E-03 0. -1.
        -11    1    4    4    0    0 -0.33774087634E+01 -0.45221825214E+01  0.27663957777E+00  0.56509781834E+01  0.51100000000E-03 0.  1.
        -12    1    4    4    0    0 -0.96177615224E+00  0.11676750846E+02  0.27850896374E+02  0.30214962395E+02  0.00000000000E+00 0.  1.
</event>
<event>
 8    1  0.3186330E-007  0.9118800E+02  0.7816164E-02  0.1184000E+00
        -11   -1    0    0    0    0  0.00000000000E+00  0.00000000000E+00  0.45593999997E+02  0.45594000000E+02  0.51100000000E-03 0.  1.
         11   -1    0    0    0    0 -0.00000000000E+00 -0.00000000000E+00 -0.45593999997E+02  0.45594000000E+02  0.51100000000E-03 0. -1.
         23    2    1    2    0    0  0.00000000000E+00  0.00000000000E+00  0.00000000000E+00  0.91188000000E+02  0.91188000000E+02 0.  0.
    9900012    2    3    3    0    0 -0.73662712395E+01  0.70692810758E+01 -0.35377211727E+02  0.54367030479E+02  0.39999877583E+02 0.  0.
        -12    1    3    3    0    0  0.73662712395E+01 -0.70692810758E+01  0.35377211727E+02  0.36820969521E+02  0.00000000000E+00 0.  1.
         11    1    4    4    0    0 -0.12015680683E+02 -0.75643970906E+01 -0.77100068830E+01  0.16156759948E+02  0.51100000000E-03 0. -1.
        -11    1    4    4    0    0  0.53333944810E+01  0.16985180799E+02 -0.29963389339E+02  0.34853208810E+02  0.51100000000E-03 0.  1.
        -12    1    4    4    0    0 -0.68398503710E+00 -0.23515026322E+01  0.22961844951E+01  0.33570617206E+01  0.00000000000E+00 0.  1.
</event>
<event>
 8    1  0.3186330E-007  0.9118800E+02  0.7816164E-02  0.1184000E+00
        -11   -1    0    0    0    0  0.00000000000E+00  0.00000000000E+00  0.45593999997E+02  0.45594000000E+02  0.51100000000E-03 0.  1.
         11   -1    0    0    0    0 -0.00000000000E+00 -0.00000000000E+00 -0.45593999997E+02  0.45594000000E+02  0.51100000000E-03 0. -1.
         23    2    1    2    0    0  0.71054273576E-14 -0.88817841970E-15  0.00000000000E+00  0.91188000000E+02  0.91188000000E+02 0.  0.
    9900012    2    3    3    0    0  0.34198636968E+02 -0.78786363106E+01 -0.11142704961E+02  0.54367088083E+02  0.40000008902E+02 0.  0.
         12    1    3    3    0    0 -0.34198636968E+02  0.78786363106E+01  0.11142704961E+02  0.36820911917E+02  0.00000000000E+00 0. -1.
         11    1    4    4    0    0 -0.20471144821E+01  0.27395318771E+01  0.22617177656E+01  0.41001317199E+01  0.51100000000E-03 0.  1.
        -11    1    4    4    0    0 -0.53405856905E+01 -0.30715051094E+01 -0.21955457161E+01  0.65403685223E+01  0.51100000000E-03 0. -1.
        -12    1    4    4    0    0  0.41586337140E+02 -0.75466630783E+01 -0.11208877011E+02  0.43726587841E+02  0.00000000000E+00 0.  1.
</event>
<event>
 8    1  0.3186330E-007  0.9118800E+02  0.7816164E-02  0.1184000E+00
        -11   -1    0    0    0    0  0.00000000000E+00  0.00000000000E+00  0.45593999997E+02  0.45594000000E+02  0.51100000000E-03 0.  1.
         11   -1    0    0    0    0 -0.00000000000E+00 -0.00000000000E+00 -0.45593999997E+02  0.45594000000E+02  0.51100000000E-03 0. -1.
         23    2    1    2    0    0  0.00000000000E+00 -0.35527136788E-14 -0.35527136788E-14  0.91188000000E+02  0.91188000000E+02 0.  0.
    9900012    2    3    3    0    0 -0.20141023695E+02  0.20285056733E+02  0.23208395244E+02  0.54367163889E+02  0.40000181716E+02 0.  0.
         12    1    3    3    0    0  0.20141023695E+02 -0.20285056733E+02 -0.23208395244E+02  0.36820836111E+02  0.00000000000E+00 0. -1.
         11    1    4    4    0    0 -0.69890004091E+01  0.18804315184E+02 -0.70105632606E+01  0.21250797485E+02  0.51100000000E-03 0. -1.
        -11    1    4    4    0    0 -0.39531386580E+01  0.69954366014E+00  0.12616853018E+02  0.13240152828E+02  0.51100000000E-03 0.  1.
         12    1    4    4    0    0 -0.91988846281E+01  0.78119788927E+00  0.17602105487E+02  0.19876213576E+02  0.00000000000E+00 0. -1.
</event>
<event>
 8    1  0.3186330E-007  0.9118800E+02  0.7816164E-02  0.1184000E+00
        -11   -1    0    0    0    0  0.00000000000E+00  0.00000000000E+00  0.45593999997E+02  0.45594000000E+02  0.51100000000E-03 0. -1.
         11   -1    0    0    0    0 -0.00000000000E+00 -0.00000000000E+00 -0.45593999997E+02  0.45594000000E+02  0.51100000000E-03 0.  1.
         23    2    1    2    0    0 -0.88817841970E-15 -0.35527136788E-14  0.00000000000E+00  0.91188000000E+02  0.91188000000E+02 0.  0.
    9900012    2    3    3    0    0 -0.31364701919E+01 -0.15739978426E+02 -0.33139031094E+02  0.54367085454E+02  0.40000002910E+02 0.  0.
         12    1    3    3    0    0  0.31364701919E+01  0.15739978426E+02  0.33139031094E+02  0.36820914546E+02  0.00000000000E+00 0. -1.
         11    1    4    4    0    0 -0.80545122190E+01 -0.43144572416E+01  0.35406299370E+01  0.97992739010E+01  0.51100000000E-03 0. -1.
        -11    1    4    4    0    0 -0.45785972308E+01 -0.12060894624E+02 -0.30768820769E+02  0.33363888615E+02  0.51100000000E-03 0.  1.
        -12    1    4    4    0    0  0.94966392579E+01  0.63537343881E+00 -0.59108402622E+01  0.11203922938E+02  0.00000000000E+00 0.  1.
</event>
<event>
 8    1  0.3186330E-007  0.9118800E+02  0.7816164E-02  0.1184000E+00
        -11   -1    0    0    0    0  0.00000000000E+00  0.00000000000E+00  0.45593999997E+02  0.45594000000E+02  0.51100000000E-03 0. -1.
         11   -1    0    0    0    0 -0.00000000000E+00 -0.00000000000E+00 -0.45593999997E+02  0.45594000000E+02  0.51100000000E-03 0.  1.
         23    2    1    2    0    0 -0.17763568394E-14 -0.88817841970E-15  0.00000000000E+00  0.91188000000E+02  0.91188000000E+02 0.  0.
    9900012    2    3    3    0    0 -0.11336409052E+02  0.63985076339E+01 -0.34443065820E+02  0.54367084025E+02  0.39999999652E+02 0.  0.
         12    1    3    3    0    0  0.11336409052E+02 -0.63985076339E+01  0.34443065820E+02  0.36820915975E+02  0.00000000000E+00 0. -1.
         11    1    4    4    0    0  0.25723462788E+00  0.51643122449E+01 -0.15209178038E+02  0.16064102449E+02  0.51100000000E-03 0.  1.
        -11    1    4    4    0    0  0.14521020784E+01  0.50351564499E+01  0.70086634524E+01  0.87511578989E+01  0.51100000000E-03 0. -1.
         12    1    4    4    0    0 -0.13045745758E+02 -0.38009610609E+01 -0.26242551235E+02  0.29551823678E+02  0.00000000000E+00 0. -1.
</event>
<event>
 8    1  0.3186330E-007  0.9118800E+02  0.7816164E-02  0.1184000E+00
        -11   -1    0    0    0    0  0.00000000000E+00  0.00000000000E+00  0.45593999997E+02  0.45594000000E+02  0.51100000000E-03 0.  1.
         11   -1    0    0    0    0 -0.00000000000E+00 -0.00000000000E+00 -0.45593999997E+02  0.45594000000E+02  0.51100000000E-03 0. -1.
         23    2    1    2    0    0  0.00000000000E+00 -0.88817841970E-15  0.00000000000E+00  0.91188000000E+02  0.91188000000E+02 0.  0.
    9900012    2    3    3    0    0 -0.34739195714E+02 -0.59621534162E+01  0.10649943919E+02  0.54367077989E+02  0.39999985893E+02 0.  0.
         12    1    3    3    0    0  0.34739195714E+02  0.59621534162E+01 -0.10649943919E+02  0.36820922011E+02  0.00000000000E+00 0. -1.
         11    1    4    4    0    0 -0.26753236894E+02 -0.86590588679E+01  0.41666037394E+01  0.28426670078E+02  0.51100000000E-03 0. -1.
        -11    1    4    4    0    0 -0.27831107825E+01  0.10247350378E+02  0.11363980079E+02  0.15552939879E+02  0.51100000000E-03 0.  1.
        -12    1    4    4    0    0 -0.52028480381E+01 -0.75504449260E+01 -0.48806398992E+01  0.10387468032E+02  0.00000000000E+00 0.  1.
</event>
<event>
 8    1  0.3186330E-007  0.9118800E+02  0.7816164E-02  0.1184000E+00
        -11   -1    0    0    0    0  0.00000000000E+00  0.00000000000E+00  0.45593999997E+02  0.45594000000E+02  0.51100000000E-03 0. -1.
         11   -1    0    0    0    0 -0.00000000000E+00 -0.00000000000E+00 -0.45593999997E+02  0.45594000000E+02  0.51100000000E-03 0.  1.
         23    2    1    2    0    0 -0.35527136788E-14  0.17763568394E-14 -0.71054273576E-14  0.91188000000E+02  0.91188000000E+02 0.  0.
    9900012    2    3    3    0    0  0.19071499059E+02 -0.63365318822E+01  0.30852959869E+02  0.54367097712E+02  0.40000030853E+02 0.  0.
        -12    1    3    3    0    0 -0.19071499059E+02  0.63365318822E+01 -0.30852959869E+02  0.36820902288E+02  0.00000000000E+00 0.  1.
         11    1    4    4    0    0  0.24931685079E+02 -0.16619239858E+02  0.13374213300E+02  0.32812461596E+02  0.51100000000E-03 0. -1.
        -11    1    4    4    0    0 -0.42971538247E+01  0.55601796934E+01  0.13363901659E+02  0.15098840917E+02  0.51100000000E-03 0.  1.
         12    1    4    4    0    0 -0.15630321952E+01  0.47225282820E+01  0.41148449096E+01  0.64557951987E+01  0.00000000000E+00 0. -1.
</event>
<event>
 8    1  0.3186330E-007  0.9118800E+02  0.7816164E-02  0.1184000E+00
        -11   -1    0    0    0    0  0.00000000000E+00  0.00000000000E+00  0.45593999997E+02  0.45594000000E+02  0.51100000000E-03 0. -1.
         11   -1    0    0    0    0 -0.00000000000E+00 -0.00000000000E+00 -0.45593999997E+02  0.45594000000E+02  0.51100000000E-03 0.  1.
         23    2    1    2    0    0  0.71054273576E-14  0.00000000000E+00  0.17763568394E-14  0.91188000000E+02  0.91188000000E+02 0.  0.
    9900012    2    3    3    0    0 -0.34314900135E+02 -0.24619826147E+01  0.13122757951E+02  0.54367075162E+02  0.39999979446E+02 0.  0.
        -12    1    3    3    0    0  0.34314900135E+02  0.24619826147E+01 -0.13122757951E+02  0.36820924838E+02  0.00000000000E+00 0.  1.
         11    1    4    4    0    0 -0.73046875973E+01 -0.28556973526E+01  0.85641402489E+01  0.11612836291E+02  0.51100000000E-03 0. -1.
        -11    1    4    4    0    0 -0.29439755957E+02 -0.21167434106E+01 -0.72888448162E+01  0.30402419188E+02  0.51100000000E-03 0.  1.
        -12    1    4    4    0    0  0.24295434187E+01  0.25104581486E+01  0.11847462519E+02  0.12351819682E+02  0.00000000000E+00 0.  1.
</event>
<event>
 8    1  0.3186330E-007  0.9118800E+02  0.7816164E-02  0.1184000E+00
        -11   -1    0    0    0    0  0.00000000000E+00  0.00000000000E+00  0.45593999997E+02  0.45594000000E+02  0.51100000000E-03 0.  1.
         11   -1    0    0    0    0 -0.00000000000E+00 -0.00000000000E+00 -0.45593999997E+02  0.45594000000E+02  0.51100000000E-03 0. -1.
         23    2    1    2    0    0  0.17763568394E-14 -0.17763568394E-14  0.71054273576E-14  0.91188000000E+02  0.91188000000E+02 0.  0.
    9900012    2    3    3    0    0 -0.13072461855E+02  0.97872250158E+01 -0.33001515821E+02  0.54367094539E+02  0.40000023621E+02 0.  0.
        -12    1    3    3    0    0  0.13072461855E+02 -0.97872250158E+01  0.33001515821E+02  0.36820905461E+02  0.00000000000E+00 0.  1.
         11    1    4    4    0    0  0.72458149382E+01  0.33921643310E+01 -0.79982912574E+01  0.11312880989E+02  0.51100000000E-03 0. -1.
        -11    1    4    4    0    0 -0.16518038505E+02  0.16412751192E+02 -0.21733023550E+02  0.31851974988E+02  0.51100000000E-03 0.  1.
        -12    1    4    4    0    0 -0.38002382890E+01 -0.10017690507E+02 -0.32702010135E+01  0.11202238563E+02  0.00000000000E+00 0.  1.
</event>
<event>
 8    1  0.3186330E-007  0.9118800E+02  0.7816164E-02  0.1184000E+00
        -11   -1    0    0    0    0  0.00000000000E+00  0.00000000000E+00  0.45593999997E+02  0.45594000000E+02  0.51100000000E-03 0. -1.
         11   -1    0    0    0    0 -0.00000000000E+00 -0.00000000000E+00 -0.45593999997E+02  0.45594000000E+02  0.51100000000E-03 0.  1.
         23    2    1    2    0    0 -0.88817841970E-15 -0.35527136788E-14 -0.35527136788E-14  0.91188000000E+02  0.91188000000E+02 0.  0.
    9900012    2    3    3    0    0 -0.69253767709E+01 -0.20947802093E+02 -0.29478935648E+02  0.54367096930E+02  0.40000029072E+02 0.  0.
         12    1    3    3    0    0  0.69253767709E+01  0.20947802093E+02  0.29478935648E+02  0.36820903070E+02  0.00000000000E+00 0. -1.
         11    1    4    4    0    0  0.67169805207E+01 -0.14097792933E+02 -0.29364487777E+02  0.33258664068E+02  0.51100000000E-03 0. -1.
        -11    1    4    4    0    0 -0.67168268780E+01 -0.25854780703E+01  0.71924081300E+01  0.10175028016E+02  0.51100000000E-03 0.  1.
        -12    1    4    4    0    0 -0.69255304137E+01 -0.42645310896E+01 -0.73068560004E+01  0.10933404846E+02  0.00000000000E+00 0.  1.
</event>
<event>
 8    1  0.3186330E-007  0.9118800E+02  0.7816164E-02  0.1184000E+00
        -11   -1    0    0    0    0  0.00000000000E+00  0.00000000000E+00  0.45593999997E+02  0.45594000000E+02  0.51100000000E-03 0. -1.
         11   -1    0    0    0    0 -0.00000000000E+00 -0.00000000000E+00 -0.45593999997E+02  0.45594000000E+02  0.51100000000E-03 0.  1.
         23    2    1    2    0    0 -0.71054273576E-14  0.88817841970E-15  0.88817841970E-15  0.91188000000E+02  0.91188000000E+02 0.  0.
    9900012    2    3    3    0    0  0.36111063595E+02  0.28099090160E+01 -0.66238303566E+01  0.54367087040E+02  0.40000006525E+02 0.  0.
         12    1    3    3    0    0 -0.36111063595E+02 -0.28099090160E+01  0.66238303566E+01  0.36820912960E+02  0.00000000000E+00 0. -1.
         11    1    4    4    0    0  0.28315539113E+02 -0.45979118921E+00  0.73184396666E+01  0.29249627735E+02  0.51100000000E-03 0. -1.
        -11    1    4    4    0    0  0.72067487880E+01 -0.73280542157E+01 -0.67750818813E+01  0.12310131658E+02  0.51100000000E-03 0.  1.
        -12    1    4    4    0    0  0.58877569342E+00  0.10597754421E+02 -0.71671881420E+01  0.12807327647E+02  0.00000000000E+00 0.  1.
</event>
<event>
 8    1  0.3186330E-007  0.9118800E+02  0.7816164E-02  0.1184000E+00
        -11   -1    0    0    0    0  0.00000000000E+00  0.00000000000E+00  0.45593999997E+02  0.45594000000E+02  0.51100000000E-03 0. -1.
         11   -1    0    0    0    0 -0.00000000000E+00 -0.00000000000E+00 -0.45593999997E+02  0.45594000000E+02  0.51100000000E-03 0.  1.
         23    2    1    2    0    0  0.00000000000E+00  0.35527136788E-14 -0.17763568394E-14  0.91188000000E+02  0.91188000000E+02 0.  0.
    9900012    2    3    3    0    0 -0.18579109311E+02 -0.29617045801E+02  0.11551294585E+02  0.54367012624E+02  0.39999836878E+02 0.  0.
        -12    1    3    3    0    0  0.18579109311E+02  0.29617045801E+02 -0.11551294585E+02  0.36820987376E+02  0.00000000000E+00 0.  1.
         11    1    4    4    0    0 -0.63070173459E+01 -0.18944033644E+02  0.43562286969E+00  0.19971095265E+02  0.51100000000E-03 0. -1.
        -11    1    4    4    0    0  0.78109121031E+01  0.14994666703E+01 -0.92146027471E+00  0.80067370056E+01  0.51100000000E-03 0.  1.
        -12    1    4    4    0    0 -0.20083004068E+02 -0.12172478827E+02  0.12037131990E+02  0.26389180354E+02  0.00000000000E+00 0.  1.
</event>
<event>
 8    1  0.3186330E-007  0.9118800E+02  0.7816164E-02  0.1184000E+00
        -11   -1    0    0    0    0  0.00000000000E+00  0.00000000000E+00  0.45593999997E+02  0.45594000000E+02  0.51100000000E-03 0.  1.
         11   -1    0    0    0    0 -0.00000000000E+00 -0.00000000000E+00 -0.45593999997E+02  0.45594000000E+02  0.51100000000E-03 0. -1.
         23    2    1    2    0    0  0.35527136788E-14  0.17763568394E-14  0.00000000000E+00  0.91188000000E+02  0.91188000000E+02 0.  0.
    9900012    2    3    3    0    0  0.22502899321E+02  0.10152138165E+02  0.27319081277E+02  0.54367101192E+02  0.40000038788E+02 0.  0.
         12    1    3    3    0    0 -0.22502899321E+02 -0.10152138165E+02 -0.27319081277E+02  0.36820898808E+02  0.00000000000E+00 0. -1.
         11    1    4    4    0    0 -0.15602139046E+01 -0.68874730251E+01  0.24669191677E+01  0.74804573751E+01  0.51100000000E-03 0. -1.
        -11    1    4    4    0    0 -0.38668356971E+01 -0.33780248104E+01  0.26473479820E+01  0.57768435609E+01  0.51100000000E-03 0.  1.
        -12    1    4    4    0    0  0.27929948923E+02  0.20417636000E+02  0.22204814128E+02  0.41109800256E+02  0.00000000000E+00 0.  1.
</event>
<event>
 8    1  0.3186330E-007  0.9118800E+02  0.7816164E-02  0.1184000E+00
        -11   -1    0    0    0    0  0.00000000000E+00  0.00000000000E+00  0.45593999997E+02  0.45594000000E+02  0.51100000000E-03 0. -1.
         11   -1    0    0    0    0 -0.00000000000E+00 -0.00000000000E+00 -0.45593999997E+02  0.45594000000E+02  0.51100000000E-03 0.  1.
         23    2    1    2    0    0  0.88817841970E-15 -0.88817841970E-15  0.00000000000E+00  0.91188000000E+02  0.91188000000E+02 0.  0.
    9900012    2    3    3    0    0 -0.59011917562E+01  0.17583367902E+01  0.36302445811E+02  0.54367036076E+02  0.39999890343E+02 0.  0.
        -12    1    3    3    0    0  0.59011917562E+01 -0.17583367902E+01 -0.36302445811E+02  0.36820963924E+02  0.00000000000E+00 0.  1.
         11    1    4    4    0    0 -0.12853941668E+02  0.55749247413E+00  0.32877717060E+02  0.35305507978E+02  0.51100000000E-03 0. -1.
        -11    1    4    4    0    0  0.91346835632E+01  0.74288693330E+01  0.34527328797E+00  0.11779208686E+02  0.51100000000E-03 0.  1.
         12    1    4    4    0    0 -0.21819336513E+01 -0.62280250169E+01  0.30794554632E+01  0.72823194121E+01  0.00000000000E+00 0. -1.
</event>
<event>
 8    1  0.3186330E-007  0.9118800E+02  0.7816164E-02  0.1184000E+00
        -11   -1    0    0    0    0  0.00000000000E+00  0.00000000000E+00  0.45593999997E+02  0.45594000000E+02  0.51100000000E-03 0. -1.
         11   -1    0    0    0    0 -0.00000000000E+00 -0.00000000000E+00 -0.45593999997E+02  0.45594000000E+02  0.51100000000E-03 0.  1.
         23    2    1    2    0    0 -0.35527136788E-14  0.00000000000E+00  0.00000000000E+00  0.91188000000E+02  0.91188000000E+02 0.  0.
    9900012    2    3    3    0    0  0.22548873672E+02  0.12264948941E+02  0.26398885482E+02  0.54367057167E+02  0.39999938424E+02 0.  0.
        -12    1    3    3    0    0 -0.22548873672E+02 -0.12264948941E+02 -0.26398885482E+02  0.36820942833E+02  0.00000000000E+00 0.  1.
         11    1    4    4    0    0  0.83386896352E+01 -0.48510512077E+01  0.20498390194E+02  0.22655031306E+02  0.51100000000E-03 0. -1.
        -11    1    4    4    0    0  0.14476102530E+02  0.46793980052E+00  0.21193342821E+01  0.14637899104E+02  0.51100000000E-03 0.  1.
         12    1    4    4    0    0 -0.26591849329E+00  0.16648060348E+02  0.37811610060E+01  0.17074126758E+02  0.00000000000E+00 0. -1.
</event>
<event>
 8    1  0.3186330E-007  0.9118800E+02  0.7816164E-02  0.1184000E+00
        -11   -1    0    0    0    0  0.00000000000E+00  0.00000000000E+00  0.45593999997E+02  0.45594000000E+02  0.51100000000E-03 0. -1.
         11   -1    0    0    0    0 -0.00000000000E+00 -0.00000000000E+00 -0.45593999997E+02  0.45594000000E+02  0.51100000000E-03 0.  1.
         23    2    1    2    0    0  0.00000000000E+00 -0.44408920985E-15 -0.35527136788E-14  0.91188000000E+02  0.91188000000E+02 0.  0.
    9900012    2    3    3    0    0 -0.27527624645E+02  0.31580453279E+01  0.24249442170E+02  0.54367098131E+02  0.40000031810E+02 0.  0.
        -12    1    3    3    0    0  0.27527624645E+02 -0.31580453279E+01 -0.24249442170E+02  0.36820901869E+02  0.00000000000E+00 0.  1.
         11    1    4    4    0    0 -0.35208812163E+02 -0.41065284862E+01  0.19864845146E+02  0.40634174079E+02  0.51100000000E-03 0. -1.
        -11    1    4    4    0    0  0.11848494937E+01  0.31836190143E+01  0.49908428718E+01  0.60372022646E+01  0.51100000000E-03 0.  1.
         12    1    4    4    0    0  0.64963380245E+01  0.40809547998E+01 -0.60624584769E+00  0.76957217877E+01  0.00000000000E+00 0. -1.
</event>
<event>
 8    1  0.3186330E-007  0.9118800E+02  0.7816164E-02  0.1184000E+00
        -11   -1    0    0    0    0  0.00000000000E+00  0.00000000000E+00  0.45593999997E+02  0.45594000000E+02  0.51100000000E-03 0.  1.
         11   -1    0    0    0    0 -0.00000000000E+00 -0.00000000000E+00 -0.45593999997E+02  0.45594000000E+02  0.51100000000E-03 0. -1.
         23    2    1    2    0    0  0.17763568394E-14  0.17763568394E-14  0.00000000000E+00  0.91188000000E+02  0.91188000000E+02 0.  0.
    9900012    2    3    3    0    0  0.14242160524E+02  0.13479621455E+02 -0.31164730256E+02  0.54367085523E+02  0.40000003068E+02 0.  0.
        -12    1    3    3    0    0 -0.14242160524E+02 -0.13479621455E+02  0.31164730256E+02  0.36820914477E+02  0.00000000000E+00 0.  1.
         11    1    4    4    0    0  0.87274287489E+01  0.17012108862E+02 -0.24447622582E+02  0.31036528651E+02  0.51100000000E-03 0. -1.
        -11    1    4    4    0    0 -0.77404998865E+01 -0.44553317122E+01 -0.15025688771E+01  0.90566568142E+01  0.51100000000E-03 0.  1.
        -12    1    4    4    0    0  0.13255231662E+02  0.92284430516E+00 -0.52145387969E+01  0.14273900059E+02  0.00000000000E+00 0.  1.
</event>
<event>
 8    1  0.3186330E-007  0.9118800E+02  0.7816164E-02  0.1184000E+00
        -11   -1    0    0    0    0  0.00000000000E+00  0.00000000000E+00  0.45593999997E+02  0.45594000000E+02  0.51100000000E-03 0.  1.
         11   -1    0    0    0    0 -0.00000000000E+00 -0.00000000000E+00 -0.45593999997E+02  0.45594000000E+02  0.51100000000E-03 0. -1.
         23    2    1    2    0    0  0.88817841970E-15  0.00000000000E+00 -0.14210854715E-13  0.91188000000E+02  0.91188000000E+02 0.  0.
    9900012    2    3    3    0    0 -0.26991796658E+01 -0.15294366538E+02  0.33385295387E+02  0.54367066188E+02  0.39999958990E+02 0.  0.
         12    1    3    3    0    0  0.26991796658E+01  0.15294366538E+02 -0.33385295387E+02  0.36820933812E+02  0.00000000000E+00 0. -1.
         11    1    4    4    0    0  0.25129370671E+01  0.46665558228E+01  0.30113588696E+02  0.30576458597E+02  0.51100000000E-03 0. -1.
        -11    1    4    4    0    0  0.28509553635E+01 -0.10202429379E+02  0.34182135828E+01  0.11131113874E+02  0.51100000000E-03 0.  1.
         12    1    4    4    0    0 -0.80630720964E+01 -0.97584929816E+01 -0.14650689137E+00  0.12659493717E+02  0.00000000000E+00 0. -1.
</event>
<event>
 8    1  0.3186330E-007  0.9118800E+02  0.7816164E-02  0.1184000E+00
        -11   -1    0    0    0    0  0.00000000000E+00  0.00000000000E+00  0.45593999997E+02  0.45594000000E+02  0.51100000000E-03 0.  1.
         11   -1    0    0    0    0 -0.00000000000E+00 -0.00000000000E+00 -0.45593999997E+02  0.45594000000E+02  0.51100000000E-03 0. -1.
         23    2    1    2    0    0  0.00000000000E+00 -0.17763568394E-14  0.00000000000E+00  0.91188000000E+02  0.91188000000E+02 0.  0.
    9900012    2    3    3    0    0 -0.32809674650E+02  0.11800817290E+02  0.11834124597E+02  0.54367074641E+02  0.39999978259E+02 0.  0.
         12    1    3    3    0    0  0.32809674650E+02 -0.11800817290E+02 -0.11834124597E+02  0.36820925359E+02  0.00000000000E+00 0. -1.
         11    1    4    4    0    0 -0.15070708016E+01  0.10869686520E+02 -0.66861944940E+01  0.12850157373E+02  0.51100000000E-03 0. -1.
        -11    1    4    4    0    0 -0.18271166810E+02  0.55730818185E+01  0.19936813878E+02  0.27611072515E+02  0.51100000000E-03 0.  1.
        -12    1    4    4    0    0 -0.13031437038E+02 -0.46419510479E+01 -0.14164947873E+01  0.13905844753E+02  0.00000000000E+00 0.  1.
</event>
<event>
 8    1  0.3186330E-007  0.9118800E+02  0.7816164E-02  0.1184000E+00
        -11   -1    0    0    0    0  0.00000000000E+00  0.00000000000E+00  0.45593999997E+02  0.45594000000E+02  0.51100000000E-03 0. -1.
         11   -1    0    0    0    0 -0.00000000000E+00 -0.00000000000E+00 -0.45593999997E+02  0.45594000000E+02  0.51100000000E-03 0.  1.
         23    2    1    2    0    0  0.00000000000E+00  0.00000000000E+00  0.35527136788E-14  0.91188000000E+02  0.91188000000E+02 0.  0.
    9900012    2    3    3    0    0 -0.22824327194E+02 -0.10889519897E+02  0.26762816221E+02  0.54367083560E+02  0.39999998591E+02 0.  0.
        -12    1    3    3    0    0  0.22824327194E+02  0.10889519897E+02 -0.26762816221E+02  0.36820916440E+02  0.00000000000E+00 0.  1.
         11    1    4    4    0    0  0.16754830047E+01  0.10905553596E+01  0.25361269925E+02  0.25439940384E+02  0.51100000000E-03 0. -1.
        -11    1    4    4    0    0 -0.94969413374E+01 -0.47056611785E+01  0.52312881941E+01  0.11819539683E+02  0.51100000000E-03 0.  1.
         12    1    4    4    0    0 -0.15002868861E+02 -0.72744140784E+01 -0.38297418983E+01  0.17107603492E+02  0.00000000000E+00 0. -1.
</event>
<event>
 8    1  0.3186330E-007  0.9118800E+02  0.7816164E-02  0.1184000E+00
        -11   -1    0    0    0    0  0.00000000000E+00  0.00000000000E+00  0.45593999997E+02  0.45594000000E+02  0.51100000000E-03 0.  1.
         11   -1    0    0    0    0 -0.00000000000E+00 -0.00000000000E+00 -0.45593999997E+02  0.45594000000E+02  0.51100000000E-03 0. -1.
         23    2    1    2    0    0 -0.17763568394E-14  0.35527136788E-14  0.00000000000E+00  0.91188000000E+02  0.91188000000E+02 0.  0.
    9900012    2    3    3    0    0 -0.86332673216E+01  0.27086932449E+02 -0.23399712234E+02  0.54367058312E+02  0.39999941034E+02 0.  0.
        -12    1    3    3    0    0  0.86332673216E+01 -0.27086932449E+02  0.23399712234E+02  0.36820941688E+02  0.00000000000E+00 0.  1.
         11    1    4    4    0    0 -0.14221099183E+02  0.49835784808E-01 -0.73912249265E+01  0.16027237808E+02  0.51100000000E-03 0. -1.
        -11    1    4    4    0    0  0.21824268257E+01 -0.13453487222E+01 -0.83657215723E+01  0.87497570092E+01  0.51100000000E-03 0.  1.
         12    1    4    4    0    0  0.34054050356E+01  0.28382445386E+02 -0.76427657356E+01  0.29590063495E+02  0.00000000000E+00 0. -1.
</event>
<event>
 8    1  0.3186330E-007  0.9118800E+02  0.7816164E-02  0.1184000E+00
        -11   -1    0    0    0    0  0.00000000000E+00  0.00000000000E+00  0.45593999997E+02  0.45594000000E+02  0.51100000000E-03 0.  1.
         11   -1    0    0    0    0 -0.00000000000E+00 -0.00000000000E+00 -0.45593999997E+02  0.45594000000E+02  0.51100000000E-03 0. -1.
         23    2    1    2    0    0  0.00000000000E+00  0.00000000000E+00 -0.71054273576E-14  0.91188000000E+02  0.91188000000E+02 0.  0.
    9900012    2    3    3    0    0 -0.18064472797E+02 -0.46796543194E+01  0.31742037970E+02  0.54367064156E+02  0.39999954356E+02 0.  0.
         12    1    3    3    0    0  0.18064472797E+02  0.46796543194E+01 -0.31742037970E+02  0.36820935844E+02  0.00000000000E+00 0. -1.
         11    1    4    4    0    0 -0.19767274727E+02 -0.25456167443E+01  0.34460144713E+02  0.39808628319E+02  0.51100000000E-03 0.  1.
        -11    1    4    4    0    0 -0.30181208754E+01 -0.44235083735E+00 -0.72082730133E+01  0.78271276965E+01  0.51100000000E-03 0. -1.
        -12    1    4    4    0    0  0.47209228049E+01 -0.16916867377E+01  0.44901662694E+01  0.67313081399E+01  0.00000000000E+00 0.  1.
</event>
<event>
 8    1  0.3186330E-007  0.9118800E+02  0.7816164E-02  0.1184000E+00
        -11   -1    0    0    0    0  0.00000000000E+00  0.00000000000E+00  0.45593999997E+02  0.45594000000E+02  0.51100000000E-03 0.  1.
         11   -1    0    0    0    0 -0.00000000000E+00 -0.00000000000E+00 -0.45593999997E+02  0.45594000000E+02  0.51100000000E-03 0. -1.
         23    2    1    2    0    0  0.00000000000E+00  0.17763568394E-14  0.26645352591E-14  0.91188000000E+02  0.91188000000E+02 0.  0.
    9900012    2    3    3    0    0 -0.34037004129E+02  0.11681375156E+02  0.77978752834E+01  0.54367095142E+02  0.40000024996E+02 0.  0.
         12    1    3    3    0    0  0.34037004129E+02 -0.11681375156E+02 -0.77978752834E+01  0.36820904858E+02  0.00000000000E+00 0. -1.
         11    1    4    4    0    0 -0.11720076587E+02  0.19070966971E+02  0.17681211868E+02  0.28525203413E+02  0.51100000000E-03 0.  1.
        -11    1    4    4    0    0 -0.14670208622E+02 -0.68919335491E+01 -0.64415035235E+01  0.17441523356E+02  0.51100000000E-03 0. -1.
        -12    1    4    4    0    0 -0.76467189200E+01 -0.49765826585E+00 -0.34418330608E+01  0.84003683735E+01  0.00000000000E+00 0.  1.
</event>
<event>
 8    1  0.3186330E-007  0.9118800E+02  0.7816164E-02  0.1184000E+00
        -11   -1    0    0    0    0  0.00000000000E+00  0.00000000000E+00  0.45593999997E+02  0.45594000000E+02  0.51100000000E-03 0.  1.
         11   -1    0    0    0    0 -0.00000000000E+00 -0.00000000000E+00 -0.45593999997E+02  0.45594000000E+02  0.51100000000E-03 0. -1.
         23    2    1    2    0    0  0.35527136788E-14  0.00000000000E+00 -0.35527136788E-14  0.91188000000E+02  0.91188000000E+02 0.  0.
    9900012    2    3    3    0    0  0.17333269256E+02  0.25368663323E+02 -0.20292100062E+02  0.54367073520E+02  0.39999975704E+02 0.  0.
        -12    1    3    3    0    0 -0.17333269256E+02 -0.25368663323E+02  0.20292100062E+02  0.36820926480E+02  0.00000000000E+00 0.  1.
         11    1    4    4    0    0  0.68284702912E+01  0.22342449930E+01  0.19178000264E+01  0.74362500233E+01  0.51100000000E-03 0. -1.
        -11    1    4    4    0    0  0.19617539958E+02  0.10898911198E+02 -0.33778613967E+01  0.22694582772E+02  0.51100000000E-03 0.  1.
         12    1    4    4    0    0 -0.91127409934E+01  0.12235507133E+02 -0.18832038691E+02  0.24236240725E+02  0.00000000000E+00 0. -1.
</event>
<event>
 8    1  0.3186330E-007  0.9118800E+02  0.7816164E-02  0.1184000E+00
        -11   -1    0    0    0    0  0.00000000000E+00  0.00000000000E+00  0.45593999997E+02  0.45594000000E+02  0.51100000000E-03 0. -1.
         11   -1    0    0    0    0 -0.00000000000E+00 -0.00000000000E+00 -0.45593999997E+02  0.45594000000E+02  0.51100000000E-03 0.  1.
         23    2    1    2    0    0 -0.71054273576E-14  0.17763568394E-14  0.35527136788E-14  0.91188000000E+02  0.91188000000E+02 0.  0.
    9900012    2    3    3    0    0  0.23543916522E+02 -0.32804909835E+01 -0.28119419207E+02  0.54367090684E+02  0.40000014833E+02 0.  0.
         12    1    3    3    0    0 -0.23543916522E+02  0.32804909835E+01  0.28119419207E+02  0.36820909316E+02  0.00000000000E+00 0. -1.
         11    1    4    4    0    0  0.27404271731E+02 -0.53423444613E+01 -0.70556344447E+01  0.28797859836E+02  0.51100000000E-03 0. -1.
        -11    1    4    4    0    0 -0.99911195133E+00 -0.57937519304E+01 -0.64076756676E+01  0.86962114650E+01  0.51100000000E-03 0.  1.
         12    1    4    4    0    0 -0.28612432580E+01  0.78556054081E+01 -0.14656109095E+02  0.16873019383E+02  0.00000000000E+00 0. -1.
</event>
<event>
 8    1  0.3186330E-007  0.9118800E+02  0.7816164E-02  0.1184000E+00
        -11   -1    0    0    0    0  0.00000000000E+00  0.00000000000E+00  0.45593999997E+02  0.45594000000E+02  0.51100000000E-03 0.  1.
         11   -1    0    0    0    0 -0.00000000000E+00 -0.00000000000E+00 -0.45593999997E+02  0.45594000000E+02  0.51100000000E-03 0. -1.
         23    2    1    2    0    0  0.00000000000E+00  0.00000000000E+00 -0.17763568394E-14  0.91188000000E+02  0.91188000000E+02 0.  0.
    9900012    2    3    3    0    0  0.14392953764E+02  0.32204529865E+02 -0.10558903629E+02  0.54367091432E+02  0.40000016539E+02 0.  0.
         12    1    3    3    0    0 -0.14392953764E+02 -0.32204529865E+02  0.10558903629E+02  0.36820908568E+02  0.00000000000E+00 0. -1.
         11    1    4    4    0    0 -0.16924696748E+01  0.24519338266E+02 -0.16256404550E+02  0.29467492118E+02  0.51100000000E-03 0. -1.
        -11    1    4    4    0    0  0.11701657035E+02  0.12761323587E+02  0.25869476002E+01  0.17506354709E+02  0.51100000000E-03 0.  1.
        -12    1    4    4    0    0  0.43837664041E+01 -0.50761319873E+01  0.31105533203E+01  0.73932446055E+01  0.00000000000E+00 0.  1.
</event>
<event>
 8    1  0.3186330E-007  0.9118800E+02  0.7816164E-02  0.1184000E+00
        -11   -1    0    0    0    0  0.00000000000E+00  0.00000000000E+00  0.45593999997E+02  0.45594000000E+02  0.51100000000E-03 0.  1.
         11   -1    0    0    0    0 -0.00000000000E+00 -0.00000000000E+00 -0.45593999997E+02  0.45594000000E+02  0.51100000000E-03 0. -1.
         23    2    1    2    0    0  0.00000000000E+00  0.22204460493E-14 -0.71054273576E-14  0.91188000000E+02  0.91188000000E+02 0.  0.
    9900012    2    3    3    0    0 -0.18808639614E+02 -0.18593089068E+01  0.31599958781E+02  0.54367090876E+02  0.40000015270E+02 0.  0.
         12    1    3    3    0    0  0.18808639614E+02  0.18593089068E+01 -0.31599958781E+02  0.36820909124E+02  0.00000000000E+00 0. -1.
         11    1    4    4    0    0 -0.22300678324E+01 -0.12712846357E+02  0.15994845723E+02  0.20552974359E+02  0.51100000000E-03 0. -1.
        -11    1    4    4    0    0 -0.15539305483E+02 -0.15918566136E+01  0.14437802731E+02  0.21270970132E+02  0.51100000000E-03 0.  1.
        -12    1    4    4    0    0 -0.10392662983E+01  0.12445394064E+02  0.11673103269E+01  0.12543146385E+02  0.00000000000E+00 0.  1.
</event>
<event>
 8    1  0.3186330E-007  0.9118800E+02  0.7816164E-02  0.1184000E+00
        -11   -1    0    0    0    0  0.00000000000E+00  0.00000000000E+00  0.45593999997E+02  0.45594000000E+02  0.51100000000E-03 0. -1.
         11   -1    0    0    0    0 -0.00000000000E+00 -0.00000000000E+00 -0.45593999997E+02  0.45594000000E+02  0.51100000000E-03 0.  1.
         23    2    1    2    0    0  0.44408920985E-15  0.00000000000E+00  0.35527136788E-14  0.91188000000E+02  0.91188000000E+02 0.  0.
    9900012    2    3    3    0    0  0.10420264034E+01 -0.32393676740E+02  0.17474101098E+02  0.54367077674E+02  0.39999985174E+02 0.  0.
         12    1    3    3    0    0 -0.10420264034E+01  0.32393676740E+02 -0.17474101098E+02  0.36820922326E+02  0.00000000000E+00 0. -1.
         11    1    4    4    0    0 -0.35232293879E+01 -0.20543542628E+02 -0.68797061814E+01  0.21949502191E+02  0.51100000000E-03 0. -1.
        -11    1    4    4    0    0  0.80221288424E+01 -0.46944761815E+01  0.32162241557E+01  0.98354845261E+01  0.51100000000E-03 0.  1.
         12    1    4    4    0    0 -0.34568730512E+01 -0.71556579305E+01  0.21137583123E+02  0.22582090957E+02  0.00000000000E+00 0. -1.
</event>
<event>
 8    1  0.3186330E-007  0.9118800E+02  0.7816164E-02  0.1184000E+00
        -11   -1    0    0    0    0  0.00000000000E+00  0.00000000000E+00  0.45593999997E+02  0.45594000000E+02  0.51100000000E-03 0.  1.
         11   -1    0    0    0    0 -0.00000000000E+00 -0.00000000000E+00 -0.45593999997E+02  0.45594000000E+02  0.51100000000E-03 0. -1.
         23    2    1    2    0    0 -0.17763568394E-14 -0.71054273576E-14  0.35527136788E-14  0.91188000000E+02  0.91188000000E+02 0.  0.
    9900012    2    3    3    0    0 -0.13979906975E+02 -0.30829292169E+02  0.14487814541E+02  0.54367084410E+02  0.40000000531E+02 0.  0.
        -12    1    3    3    0    0  0.13979906975E+02  0.30829292169E+02 -0.14487814541E+02  0.36820915590E+02  0.00000000000E+00 0.  1.
         11    1    4    4    0    0 -0.15441100020E+02 -0.17708120454E+02 -0.46064351488E+01  0.23942104020E+02  0.51100000000E-03 0. -1.
        -11    1    4    4    0    0  0.97605454959E+01 -0.11153649499E+02  0.14510666854E+02  0.20742024934E+02  0.51100000000E-03 0.  1.
         12    1    4    4    0    0 -0.82993524512E+01 -0.19675222158E+01  0.45835828354E+01  0.96829554573E+01  0.00000000000E+00 0. -1.
</event>
<event>
 8    1  0.3186330E-007  0.9118800E+02  0.7816164E-02  0.1184000E+00
        -11   -1    0    0    0    0  0.00000000000E+00  0.00000000000E+00  0.45593999997E+02  0.45594000000E+02  0.51100000000E-03 0.  1.
         11   -1    0    0    0    0 -0.00000000000E+00 -0.00000000000E+00 -0.45593999997E+02  0.45594000000E+02  0.51100000000E-03 0. -1.
         23    2    1    2    0    0 -0.35527136788E-14  0.00000000000E+00  0.00000000000E+00  0.91188000000E+02  0.91188000000E+02 0.  0.
    9900012    2    3    3    0    0 -0.20010591565E+02 -0.18991409360E+02 -0.24386114786E+02  0.54367082050E+02  0.39999995150E+02 0.  0.
        -12    1    3    3    0    0  0.20010591565E+02  0.18991409360E+02  0.24386114786E+02  0.36820917950E+02  0.00000000000E+00 0.  1.
         11    1    4    4    0    0 -0.79670538576E+01 -0.96577144915E+01  0.75620317369E+01  0.14626336541E+02  0.51100000000E-03 0.  1.
        -11    1    4    4    0    0 -0.98504941910E+01  0.35895135934E+01 -0.15402064519E+02  0.18631705111E+02  0.51100000000E-03 0. -1.
        -12    1    4    4    0    0 -0.21930435168E+01 -0.12923208462E+02 -0.16546082005E+02  0.21109040398E+02  0.00000000000E+00 0.  1.
</event>
<event>
 8    1  0.3186330E-007  0.9118800E+02  0.7816164E-02  0.1184000E+00
        -11   -1    0    0    0    0  0.00000000000E+00  0.00000000000E+00  0.45593999997E+02  0.45594000000E+02  0.51100000000E-03 0.  1.
         11   -1    0    0    0    0 -0.00000000000E+00 -0.00000000000E+00 -0.45593999997E+02  0.45594000000E+02  0.51100000000E-03 0. -1.
         23    2    1    2    0    0  0.00000000000E+00  0.00000000000E+00 -0.17763568394E-14  0.91188000000E+02  0.91188000000E+02 0.  0.
    9900012    2    3    3    0    0 -0.34649591549E+02  0.45158789092E+01 -0.11609992341E+02  0.54367091823E+02  0.40000017428E+02 0.  0.
        -12    1    3    3    0    0  0.34649591549E+02 -0.45158789092E+01  0.11609992341E+02  0.36820908177E+02  0.00000000000E+00 0.  1.
         11    1    4    4    0    0 -0.10396723875E+02  0.10609912103E+02  0.28472106093E+01  0.15125102006E+02  0.51100000000E-03 0. -1.
        -11    1    4    4    0    0 -0.34155538476E+01  0.54859874177E+00 -0.16886319808E+02  0.17237017306E+02  0.51100000000E-03 0.  1.
        -12    1    4    4    0    0 -0.20837313826E+02 -0.66426319353E+01  0.24291168584E+01  0.22004972512E+02  0.00000000000E+00 0.  1.
</event>
<event>
 8    1  0.3186330E-007  0.9118800E+02  0.7816164E-02  0.1184000E+00
        -11   -1    0    0    0    0  0.00000000000E+00  0.00000000000E+00  0.45593999997E+02  0.45594000000E+02  0.51100000000E-03 0.  1.
         11   -1    0    0    0    0 -0.00000000000E+00 -0.00000000000E+00 -0.45593999997E+02  0.45594000000E+02  0.51100000000E-03 0. -1.
         23    2    1    2    0    0  0.00000000000E+00 -0.66613381478E-15  0.00000000000E+00  0.91188000000E+02  0.91188000000E+02 0.  0.
    9900012    2    3    3    0    0  0.30540913709E+02 -0.43059509394E+00 -0.20563267366E+02  0.54367071345E+02  0.39999970744E+02 0.  0.
         12    1    3    3    0    0 -0.30540913709E+02  0.43059509394E+00  0.20563267366E+02  0.36820928655E+02  0.00000000000E+00 0. -1.
         11    1    4    4    0    0  0.13679692409E+02  0.12005913096E+02 -0.19871763310E+02  0.26947410098E+02  0.51100000000E-03 0.  1.
        -11    1    4    4    0    0  0.14485988195E+02 -0.15636377920E+02 -0.46348412726E+01  0.21813342759E+02  0.51100000000E-03 0. -1.
         12    1    4    4    0    0  0.23752331044E+01  0.31998697297E+01  0.39433372164E+01  0.56063184880E+01  0.00000000000E+00 0. -1.
</event>
<event>
 8    1  0.3186330E-007  0.9118800E+02  0.7816164E-02  0.1184000E+00
        -11   -1    0    0    0    0  0.00000000000E+00  0.00000000000E+00  0.45593999997E+02  0.45594000000E+02  0.51100000000E-03 0.  1.
         11   -1    0    0    0    0 -0.00000000000E+00 -0.00000000000E+00 -0.45593999997E+02  0.45594000000E+02  0.51100000000E-03 0. -1.
         23    2    1    2    0    0  0.00000000000E+00 -0.44408920985E-15  0.00000000000E+00  0.91188000000E+02  0.91188000000E+02 0.  0.
    9900012    2    3    3    0    0 -0.25028125660E+02  0.29020435040E+01  0.26850541037E+02  0.54367075453E+02  0.39999980111E+02 0.  0.
         12    1    3    3    0    0  0.25028125660E+02 -0.29020435040E+01 -0.26850541037E+02  0.36820924547E+02  0.00000000000E+00 0. -1.
         11    1    4    4    0    0  0.43855127974E+00  0.72917168962E+01  0.15394030924E+02  0.17039297252E+02  0.51100000000E-03 0. -1.
        -11    1    4    4    0    0 -0.29978556264E+02 -0.62758921892E+01  0.96131683394E+01  0.32101614667E+02  0.51100000000E-03 0.  1.
        -12    1    4    4    0    0  0.45118793245E+01  0.18862187971E+01  0.18433417734E+01  0.52261635339E+01  0.00000000000E+00 0.  1.
</event>
<event>
 8    1  0.3186330E-007  0.9118800E+02  0.7816164E-02  0.1184000E+00
        -11   -1    0    0    0    0  0.00000000000E+00  0.00000000000E+00  0.45593999997E+02  0.45594000000E+02  0.51100000000E-03 0.  1.
         11   -1    0    0    0    0 -0.00000000000E+00 -0.00000000000E+00 -0.45593999997E+02  0.45594000000E+02  0.51100000000E-03 0. -1.
         23    2    1    2    0    0  0.44408920985E-15  0.00000000000E+00  0.00000000000E+00  0.91188000000E+02  0.91188000000E+02 0.  0.
    9900012    2    3    3    0    0 -0.35429488322E+00 -0.19169614589E+02 -0.31435319733E+02  0.54367095950E+02  0.40000026837E+02 0.  0.
        -12    1    3    3    0    0  0.35429488322E+00  0.19169614589E+02  0.31435319733E+02  0.36820904050E+02  0.00000000000E+00 0.  1.
         11    1    4    4    0    0  0.56317798923E+01 -0.86384841714E+01 -0.25891862182E+02  0.27869856136E+02  0.51100000000E-03 0. -1.
        -11    1    4    4    0    0 -0.28879240990E+01 -0.15807545554E+02  0.26344043281E+01  0.16283693944E+02  0.51100000000E-03 0.  1.
        -12    1    4    4    0    0 -0.30981506765E+01  0.52764151371E+01 -0.81778618795E+01  0.10213545870E+02  0.00000000000E+00 0.  1.
</event>
<event>
 8    1  0.3186330E-007  0.9118800E+02  0.7816164E-02  0.1184000E+00
        -11   -1    0    0    0    0  0.00000000000E+00  0.00000000000E+00  0.45593999997E+02  0.45594000000E+02  0.51100000000E-03 0.  1.
         11   -1    0    0    0    0 -0.00000000000E+00 -0.00000000000E+00 -0.45593999997E+02  0.45594000000E+02  0.51100000000E-03 0. -1.
         23    2    1    2    0    0 -0.17763568394E-14  0.71054273576E-14 -0.17763568394E-14  0.91188000000E+02  0.91188000000E+02 0.  0.
    9900012    2    3    3    0    0  0.96637670299E+01 -0.33628543897E+02 -0.11467896223E+02  0.54367082010E+02  0.39999995059E+02 0.  0.
        -12    1    3    3    0    0 -0.96637670299E+01  0.33628543897E+02  0.11467896223E+02  0.36820917990E+02  0.00000000000E+00 0.  1.
         11    1    4    4    0    0 -0.20923310474E+01 -0.22708516167E+02  0.57581753580E+01  0.23520440886E+02  0.51100000000E-03 0. -1.
        -11    1    4    4    0    0 -0.50306356733E+01 -0.26172463768E-01 -0.11085172802E+01  0.51513872983E+01  0.51100000000E-03 0.  1.
         12    1    4    4    0    0  0.16786733751E+02 -0.10893855265E+02 -0.16117554301E+02  0.25695253826E+02  0.00000000000E+00 0. -1.
</event>
<event>
 8    1  0.3186330E-007  0.9118800E+02  0.7816164E-02  0.1184000E+00
        -11   -1    0    0    0    0  0.00000000000E+00  0.00000000000E+00  0.45593999997E+02  0.45594000000E+02  0.51100000000E-03 0.  1.
         11   -1    0    0    0    0 -0.00000000000E+00 -0.00000000000E+00 -0.45593999997E+02  0.45594000000E+02  0.51100000000E-03 0. -1.
         23    2    1    2    0    0  0.35527136788E-14  0.00000000000E+00 -0.35527136788E-14  0.91188000000E+02  0.91188000000E+02 0.  0.
    9900012    2    3    3    0    0  0.24469957188E+02  0.37144887566E+01 -0.27261813142E+02  0.54367045540E+02  0.39999911918E+02 0.  0.
         12    1    3    3    0    0 -0.24469957188E+02 -0.37144887566E+01  0.27261813142E+02  0.36820954460E+02  0.00000000000E+00 0. -1.
         11    1    4    4    0    0  0.18476865122E+02 -0.17576101720E+01 -0.36683524491E+02  0.41111612807E+02  0.51100000000E-03 0. -1.
        -11    1    4    4    0    0  0.58515956706E+01  0.26064537929E+01  0.58599948645E+01  0.86818381314E+01  0.51100000000E-03 0.  1.
         12    1    4    4    0    0  0.14149639536E+00  0.28656451358E+01  0.35617164838E+01  0.45735946022E+01  0.00000000000E+00 0. -1.
</event>
<event>
 8    1  0.3186330E-007  0.9118800E+02  0.7816164E-02  0.1184000E+00
        -11   -1    0    0    0    0  0.00000000000E+00  0.00000000000E+00  0.45593999997E+02  0.45594000000E+02  0.51100000000E-03 0.  1.
         11   -1    0    0    0    0 -0.00000000000E+00 -0.00000000000E+00 -0.45593999997E+02  0.45594000000E+02  0.51100000000E-03 0. -1.
         23    2    1    2    0    0  0.88817841970E-15  0.00000000000E+00  0.00000000000E+00  0.91188000000E+02  0.91188000000E+02 0.  0.
    9900012    2    3    3    0    0 -0.13878102735E+01 -0.30704566969E+02 -0.20275170780E+02  0.54367095608E+02  0.40000026057E+02 0.  0.
        -12    1    3    3    0    0  0.13878102735E+01  0.30704566969E+02  0.20275170780E+02  0.36820904392E+02  0.00000000000E+00 0.  1.
         11    1    4    4    0    0  0.16562644557E+02 -0.73710752629E+01 -0.98588527038E+01  0.20636155702E+02  0.51100000000E-03 0. -1.
        -11    1    4    4    0    0 -0.87287144969E+01 -0.20527010059E+02 -0.86871497370E+01  0.23937735263E+02  0.51100000000E-03 0.  1.
        -12    1    4    4    0    0 -0.92217403341E+01 -0.28064816472E+01 -0.17291683395E+01  0.97932046426E+01  0.00000000000E+00 0.  1.
</event>
<event>
 8    1  0.3186330E-007  0.9118800E+02  0.7816164E-02  0.1184000E+00
        -11   -1    0    0    0    0  0.00000000000E+00  0.00000000000E+00  0.45593999997E+02  0.45594000000E+02  0.51100000000E-03 0.  1.
         11   -1    0    0    0    0 -0.00000000000E+00 -0.00000000000E+00 -0.45593999997E+02  0.45594000000E+02  0.51100000000E-03 0. -1.
         23    2    1    2    0    0 -0.35527136788E-14  0.00000000000E+00  0.00000000000E+00  0.91188000000E+02  0.91188000000E+02 0.  0.
    9900012    2    3    3    0    0  0.24752883459E+02 -0.17685823638E+02  0.20743294295E+02  0.54367111152E+02  0.40000061494E+02 0.  0.
         12    1    3    3    0    0 -0.24752883459E+02  0.17685823638E+02 -0.20743294295E+02  0.36820888848E+02  0.00000000000E+00 0. -1.
         11    1    4    4    0    0  0.25172488546E+02 -0.65735399783E+01  0.58911575859E+01  0.26675294664E+02  0.51100000000E-03 0. -1.
        -11    1    4    4    0    0  0.68535734956E+01 -0.49454739562E+01  0.15992345771E+02  0.18088236670E+02  0.51100000000E-03 0.  1.
         12    1    4    4    0    0 -0.72731785827E+01 -0.61668097034E+01 -0.11402090618E+01  0.96035798179E+01  0.00000000000E+00 0. -1.
</event>
<event>
 8    1  0.3186330E-007  0.9118800E+02  0.7816164E-02  0.1184000E+00
        -11   -1    0    0    0    0  0.00000000000E+00  0.00000000000E+00  0.45593999997E+02  0.45594000000E+02  0.51100000000E-03 0. -1.
         11   -1    0    0    0    0 -0.00000000000E+00 -0.00000000000E+00 -0.45593999997E+02  0.45594000000E+02  0.51100000000E-03 0.  1.
         23    2    1    2    0    0 -0.35527136788E-14  0.00000000000E+00  0.00000000000E+00  0.91188000000E+02  0.91188000000E+02 0.  0.
    9900012    2    3    3    0    0  0.22400473048E+02 -0.20880294099E+02  0.20445342442E+02  0.54367083363E+02  0.39999998143E+02 0.  0.
         12    1    3    3    0    0 -0.22400473048E+02  0.20880294099E+02 -0.20445342442E+02  0.36820916637E+02  0.00000000000E+00 0. -1.
         11    1    4    4    0    0  0.25803254640E+02 -0.19797604288E+02  0.12742754366E+02  0.34930371808E+02  0.51100000000E-03 0. -1.
        -11    1    4    4    0    0 -0.64385772281E+01  0.44052972247E+01 -0.18420570264E+01  0.80159275639E+01  0.51100000000E-03 0.  1.
         12    1    4    4    0    0  0.30357956366E+01 -0.54879870355E+01  0.95446451021E+01  0.11420783991E+02  0.00000000000E+00 0. -1.
</event>
<event>
 8    1  0.3186330E-007  0.9118800E+02  0.7816164E-02  0.1184000E+00
        -11   -1    0    0    0    0  0.00000000000E+00  0.00000000000E+00  0.45593999997E+02  0.45594000000E+02  0.51100000000E-03 0.  1.
         11   -1    0    0    0    0 -0.00000000000E+00 -0.00000000000E+00 -0.45593999997E+02  0.45594000000E+02  0.51100000000E-03 0. -1.
         23    2    1    2    0    0  0.00000000000E+00  0.00000000000E+00  0.17763568394E-14  0.91188000000E+02  0.91188000000E+02 0.  0.
    9900012    2    3    3    0    0  0.13961326438E+02  0.32587814058E+02  0.99445961669E+01  0.54367092164E+02  0.40000018206E+02 0.  0.
         12    1    3    3    0    0 -0.13961326438E+02 -0.32587814058E+02 -0.99445961669E+01  0.36820907836E+02  0.00000000000E+00 0. -1.
         11    1    4    4    0    0  0.25904864813E+01  0.53447700929E+01 -0.90717495104E+01  0.10843146545E+02  0.51100000000E-03 0. -1.
        -11    1    4    4    0    0  0.42747340872E+01 -0.27572009466E+01  0.10299545112E+02  0.11487216301E+02  0.51100000000E-03 0.  1.
        -12    1    4    4    0    0  0.70961058691E+01  0.30000244912E+02  0.87168005652E+01  0.32036729317E+02  0.00000000000E+00 0.  1.
</event>
<event>
 8    1  0.3186330E-007  0.9118800E+02  0.7816164E-02  0.1184000E+00
        -11   -1    0    0    0    0  0.00000000000E+00  0.00000000000E+00  0.45593999997E+02  0.45594000000E+02  0.51100000000E-03 0. -1.
         11   -1    0    0    0    0 -0.00000000000E+00 -0.00000000000E+00 -0.45593999997E+02  0.45594000000E+02  0.51100000000E-03 0.  1.
         23    2    1    2    0    0 -0.17763568394E-14  0.00000000000E+00  0.00000000000E+00  0.91188000000E+02  0.91188000000E+02 0.  0.
    9900012    2    3    3    0    0  0.15200892184E+02 -0.63687446853E+01 -0.32926468641E+02  0.54367077018E+02  0.39999983678E+02 0.  0.
         12    1    3    3    0    0 -0.15200892184E+02  0.63687446853E+01  0.32926468641E+02  0.36820922982E+02  0.00000000000E+00 0. -1.
         11    1    4    4    0    0  0.10485513950E+02 -0.28702225418E+01 -0.45016215075E+01  0.11766425825E+02  0.51100000000E-03 0. -1.
        -11    1    4    4    0    0  0.14059009326E+02  0.53253949424E+01 -0.49316798720E+01  0.15822042888E+02  0.51100000000E-03 0.  1.
         12    1    4    4    0    0 -0.93436310931E+01 -0.88239170859E+01 -0.23493167262E+02  0.26778608305E+02  0.00000000000E+00 0. -1.
</event>
<event>
 8    1  0.3186330E-007  0.9118800E+02  0.7816164E-02  0.1184000E+00
        -11   -1    0    0    0    0  0.00000000000E+00  0.00000000000E+00  0.45593999997E+02  0.45594000000E+02  0.51100000000E-03 0. -1.
         11   -1    0    0    0    0 -0.00000000000E+00 -0.00000000000E+00 -0.45593999997E+02  0.45594000000E+02  0.51100000000E-03 0.  1.
         23    2    1    2    0    0  0.00000000000E+00 -0.44408920985E-15  0.35527136788E-14  0.91188000000E+02  0.91188000000E+02 0.  0.
    9900012    2    3    3    0    0  0.18502761284E+02 -0.30057480464E+01 -0.31692158117E+02  0.54367087700E+02  0.40000008031E+02 0.  0.
         12    1    3    3    0    0 -0.18502761284E+02  0.30057480464E+01  0.31692158117E+02  0.36820912300E+02  0.00000000000E+00 0. -1.
         11    1    4    4    0    0  0.15528044891E+01 -0.88214464258E+01 -0.12900997568E+02  0.15705567717E+02  0.51100000000E-03 0. -1.
        -11    1    4    4    0    0  0.79960766748E+01 -0.24241478242E+01 -0.24009248600E+02  0.25421600136E+02  0.51100000000E-03 0.  1.
         12    1    4    4    0    0  0.89538801198E+01  0.82398462035E+01  0.52180880505E+01  0.13239919847E+02  0.00000000000E+00 0. -1.
</event>
<event>
 8    1  0.3186330E-007  0.9118800E+02  0.7816164E-02  0.1184000E+00
        -11   -1    0    0    0    0  0.00000000000E+00  0.00000000000E+00  0.45593999997E+02  0.45594000000E+02  0.51100000000E-03 0.  1.
         11   -1    0    0    0    0 -0.00000000000E+00 -0.00000000000E+00 -0.45593999997E+02  0.45594000000E+02  0.51100000000E-03 0. -1.
         23    2    1    2    0    0  0.00000000000E+00  0.00000000000E+00  0.00000000000E+00  0.91188000000E+02  0.91188000000E+02 0.  0.
    9900012    2    3    3    0    0  0.18373616979E+02 -0.53822696787E+01 -0.31452078089E+02  0.54366921201E+02  0.39999628460E+02 0.  0.
        -12    1    3    3    0    0 -0.18373616979E+02  0.53822696787E+01  0.31452078089E+02  0.36821078799E+02  0.00000000000E+00 0.  1.
         11    1    4    4    0    0  0.11720305984E+02 -0.38531695090E+01 -0.34755077556E+00  0.12342336871E+02  0.51100000000E-03 0. -1.
        -11    1    4    4    0    0 -0.30871892312E+01 -0.10532721498E+02 -0.37068592450E+01  0.11584893838E+02  0.51100000000E-03 0.  1.
         12    1    4    4    0    0  0.97405002261E+01  0.90036213283E+01 -0.27397668069E+02  0.30439690493E+02  0.00000000000E+00 0. -1.
</event>
<event>
 8    1  0.3186330E-007  0.9118800E+02  0.7816164E-02  0.1184000E+00
        -11   -1    0    0    0    0  0.00000000000E+00  0.00000000000E+00  0.45593999997E+02  0.45594000000E+02  0.51100000000E-03 0.  1.
         11   -1    0    0    0    0 -0.00000000000E+00 -0.00000000000E+00 -0.45593999997E+02  0.45594000000E+02  0.51100000000E-03 0. -1.
         23    2    1    2    0    0  0.77715611724E-15  0.00000000000E+00  0.00000000000E+00  0.91188000000E+02  0.91188000000E+02 0.  0.
    9900012    2    3    3    0    0 -0.56976479806E+00 -0.35864744673E+02  0.83170946399E+01  0.54367100966E+02  0.40000038273E+02 0.  0.
         12    1    3    3    0    0  0.56976479806E+00  0.35864744673E+02 -0.83170946399E+01  0.36820899034E+02  0.00000000000E+00 0. -1.
         11    1    4    4    0    0 -0.66747394355E+01 -0.17229268707E+02  0.22587231925E+01  0.18614555526E+02  0.51100000000E-03 0. -1.
        -11    1    4    4    0    0 -0.58331095108E+01  0.50164181335E+01 -0.21990684090E+01  0.80015948150E+01  0.51100000000E-03 0.  1.
        -12    1    4    4    0    0  0.11938084148E+02 -0.23651894099E+02  0.82574398563E+01  0.27750950625E+02  0.00000000000E+00 0.  1.
</event>
<event>
 8    1  0.3186330E-007  0.9118800E+02  0.7816164E-02  0.1184000E+00
        -11   -1    0    0    0    0  0.00000000000E+00  0.00000000000E+00  0.45593999997E+02  0.45594000000E+02  0.51100000000E-03 0. -1.
         11   -1    0    0    0    0 -0.00000000000E+00 -0.00000000000E+00 -0.45593999997E+02  0.45594000000E+02  0.51100000000E-03 0.  1.
         23    2    1    2    0    0  0.35527136788E-14  0.33306690739E-15  0.00000000000E+00  0.91188000000E+02  0.91188000000E+02 0.  0.
    9900012    2    3    3    0    0 -0.17074532681E+02 -0.62246064750E+00  0.32616752028E+02  0.54367086969E+02  0.40000006364E+02 0.  0.
        -12    1    3    3    0    0  0.17074532681E+02  0.62246064750E+00 -0.32616752028E+02  0.36820913031E+02  0.00000000000E+00 0.  1.
         11    1    4    4    0    0 -0.10682644078E+02  0.11236199602E+02  0.91769569457E+01  0.18016314968E+02  0.51100000000E-03 0. -1.
        -11    1    4    4    0    0  0.19897457959E+01 -0.71429398698E+01  0.25465096735E+02  0.26522666350E+02  0.51100000000E-03 0.  1.
         12    1    4    4    0    0 -0.83816343993E+01 -0.47157203799E+01 -0.20253016529E+01  0.98281056511E+01  0.00000000000E+00 0. -1.
</event>
<event>
 8    1  0.3186330E-007  0.9118800E+02  0.7816164E-02  0.1184000E+00
        -11   -1    0    0    0    0  0.00000000000E+00  0.00000000000E+00  0.45593999997E+02  0.45594000000E+02  0.51100000000E-03 0.  1.
         11   -1    0    0    0    0 -0.00000000000E+00 -0.00000000000E+00 -0.45593999997E+02  0.45594000000E+02  0.51100000000E-03 0. -1.
         23    2    1    2    0    0  0.71054273576E-14  0.00000000000E+00 -0.88817841970E-15  0.91188000000E+02  0.91188000000E+02 0.  0.
    9900012    2    3    3    0    0  0.27463181219E+02  0.23572211874E+02 -0.67752252386E+01  0.54367093271E+02  0.40000020730E+02 0.  0.
         12    1    3    3    0    0 -0.27463181219E+02 -0.23572211874E+02  0.67752252386E+01  0.36820906729E+02  0.00000000000E+00 0. -1.
         11    1    4    4    0    0 -0.57904122160E+01  0.28704455336E+01  0.62306704291E+01  0.89771702362E+01  0.51100000000E-03 0. -1.
        -11    1    4    4    0    0  0.31533858151E+02  0.14467033567E+02 -0.49286772464E+01  0.35042419006E+02  0.51100000000E-03 0.  1.
        -12    1    4    4    0    0  0.17197352842E+01  0.62347327733E+01 -0.80772184213E+01  0.10347504029E+02  0.00000000000E+00 0.  1.
</event>
<event>
 8    1  0.3186330E-007  0.9118800E+02  0.7816164E-02  0.1184000E+00
        -11   -1    0    0    0    0  0.00000000000E+00  0.00000000000E+00  0.45593999997E+02  0.45594000000E+02  0.51100000000E-03 0.  1.
         11   -1    0    0    0    0 -0.00000000000E+00 -0.00000000000E+00 -0.45593999997E+02  0.45594000000E+02  0.51100000000E-03 0. -1.
         23    2    1    2    0    0  0.35527136788E-14  0.17763568394E-14  0.00000000000E+00  0.91188000000E+02  0.91188000000E+02 0.  0.
    9900012    2    3    3    0    0  0.28510468948E+02  0.71078123319E+01 -0.22190355814E+02  0.54367085740E+02  0.40000003561E+02 0.  0.
        -12    1    3    3    0    0 -0.28510468948E+02 -0.71078123319E+01  0.22190355814E+02  0.36820914260E+02  0.00000000000E+00 0.  1.
         11    1    4    4    0    0 -0.15789854071E-01 -0.97567689445E+01 -0.78838605871E+01  0.12543924728E+02  0.51100000000E-03 0. -1.
        -11    1    4    4    0    0  0.48776414600E+01 -0.29104360883E+00 -0.11472900989E+02  0.12470106253E+02  0.51100000000E-03 0.  1.
         12    1    4    4    0    0  0.23648617342E+02  0.17155624885E+02 -0.28335942385E+01  0.29353054759E+02  0.00000000000E+00 0. -1.
</event>
<event>
 8    1  0.3186330E-007  0.9118800E+02  0.7816164E-02  0.1184000E+00
        -11   -1    0    0    0    0  0.00000000000E+00  0.00000000000E+00  0.45593999997E+02  0.45594000000E+02  0.51100000000E-03 0.  1.
         11   -1    0    0    0    0 -0.00000000000E+00 -0.00000000000E+00 -0.45593999997E+02  0.45594000000E+02  0.51100000000E-03 0. -1.
         23    2    1    2    0    0  0.00000000000E+00  0.35527136788E-14  0.00000000000E+00  0.91188000000E+02  0.91188000000E+02 0.  0.
    9900012    2    3    3    0    0  0.22672075720E+02  0.16341537995E+02 -0.23973167169E+02  0.54367059958E+02  0.39999944786E+02 0.  0.
        -12    1    3    3    0    0 -0.22672075720E+02 -0.16341537995E+02  0.23973167169E+02  0.36820940042E+02  0.00000000000E+00 0.  1.
         11    1    4    4    0    0  0.47356884596E+01  0.96841474547E+01  0.29200754100E+00  0.10784003235E+02  0.51100000000E-03 0.  1.
        -11    1    4    4    0    0  0.15561665491E+02  0.18347510603E+02 -0.13932062869E+02  0.27801060307E+02  0.51100000000E-03 0. -1.
        -12    1    4    4    0    0  0.23747217694E+01 -0.11690120062E+02 -0.10333111841E+02  0.15781996416E+02  0.00000000000E+00 0.  1.
</event>
<event>
 8    1  0.3186330E-007  0.9118800E+02  0.7816164E-02  0.1184000E+00
        -11   -1    0    0    0    0  0.00000000000E+00  0.00000000000E+00  0.45593999997E+02  0.45594000000E+02  0.51100000000E-03 0. -1.
         11   -1    0    0    0    0 -0.00000000000E+00 -0.00000000000E+00 -0.45593999997E+02  0.45594000000E+02  0.51100000000E-03 0.  1.
         23    2    1    2    0    0  0.00000000000E+00  0.00000000000E+00  0.55511151231E-15  0.91188000000E+02  0.91188000000E+02 0.  0.
    9900012    2    3    3    0    0 -0.36355733582E+02 -0.58248131875E+01 -0.33513674977E+00  0.54367080273E+02  0.39999991098E+02 0.  0.
         12    1    3    3    0    0  0.36355733582E+02  0.58248131875E+01  0.33513674977E+00  0.36820919727E+02  0.00000000000E+00 0. -1.
         11    1    4    4    0    0 -0.16424646266E+02  0.13320608139E+02 -0.51997106957E+00  0.21153675244E+02  0.51100000000E-03 0. -1.
        -11    1    4    4    0    0 -0.37013083237E+01  0.18370226748E+01 -0.46811992745E+01  0.62440341545E+01  0.51100000000E-03 0.  1.
         12    1    4    4    0    0 -0.16229778992E+02 -0.20982444001E+02  0.48660335943E+01  0.26969370874E+02  0.00000000000E+00 0. -1.
</event>
<event>
 8    1  0.3186330E-007  0.9118800E+02  0.7816164E-02  0.1184000E+00
        -11   -1    0    0    0    0  0.00000000000E+00  0.00000000000E+00  0.45593999997E+02  0.45594000000E+02  0.51100000000E-03 0.  1.
         11   -1    0    0    0    0 -0.00000000000E+00 -0.00000000000E+00 -0.45593999997E+02  0.45594000000E+02  0.51100000000E-03 0. -1.
         23    2    1    2    0    0  0.00000000000E+00 -0.35527136788E-14  0.35527136788E-14  0.91188000000E+02  0.91188000000E+02 0.  0.
    9900012    2    3    3    0    0 -0.27278282448E+02  0.22482858926E+02 -0.10305066442E+02  0.54367108740E+02  0.40000055995E+02 0.  0.
        -12    1    3    3    0    0  0.27278282448E+02 -0.22482858926E+02  0.10305066442E+02  0.36820891260E+02  0.00000000000E+00 0.  1.
         11    1    4    4    0    0 -0.25788617271E+02  0.19447545714E+02 -0.15645915713E+02  0.35889476087E+02  0.51100000000E-03 0. -1.
        -11    1    4    4    0    0 -0.64453643836E+01 -0.45132385874E+01 -0.22234701435E+00  0.78715616646E+01  0.51100000000E-03 0.  1.
         12    1    4    4    0    0  0.49556992071E+01  0.75485518000E+01  0.55631962846E+01  0.10606070988E+02  0.00000000000E+00 0. -1.
</event>
<event>
 8    1  0.3186330E-007  0.9118800E+02  0.7816164E-02  0.1184000E+00
        -11   -1    0    0    0    0  0.00000000000E+00  0.00000000000E+00  0.45593999997E+02  0.45594000000E+02  0.51100000000E-03 0.  1.
         11   -1    0    0    0    0 -0.00000000000E+00 -0.00000000000E+00 -0.45593999997E+02  0.45594000000E+02  0.51100000000E-03 0. -1.
         23    2    1    2    0    0 -0.35527136788E-14  0.00000000000E+00  0.17763568394E-14  0.91188000000E+02  0.91188000000E+02 0.  0.
    9900012    2    3    3    0    0 -0.31422292751E+02 -0.11335075878E+02 -0.15489851752E+02  0.54367082926E+02  0.39999997146E+02 0.  0.
        -12    1    3    3    0    0  0.31422292751E+02  0.11335075878E+02  0.15489851752E+02  0.36820917074E+02  0.00000000000E+00 0.  1.
         11    1    4    4    0    0  0.42990326384E+00 -0.57475843383E+01 -0.19038515436E+02  0.19891822763E+02  0.51100000000E-03 0. -1.
        -11    1    4    4    0    0 -0.28993833848E+02 -0.78376585938E+01  0.10328153285E+01  0.30052254511E+02  0.51100000000E-03 0.  1.
        -12    1    4    4    0    0 -0.28583621669E+01  0.22501670540E+01  0.25158483557E+01  0.44230056520E+01  0.00000000000E+00 0.  1.
</event>
<event>
 8    1  0.3186330E-007  0.9118800E+02  0.7816164E-02  0.1184000E+00
        -11   -1    0    0    0    0  0.00000000000E+00  0.00000000000E+00  0.45593999997E+02  0.45594000000E+02  0.51100000000E-03 0. -1.
         11   -1    0    0    0    0 -0.00000000000E+00 -0.00000000000E+00 -0.45593999997E+02  0.45594000000E+02  0.51100000000E-03 0.  1.
         23    2    1    2    0    0  0.35527136788E-14  0.00000000000E+00  0.35527136788E-14  0.91188000000E+02  0.91188000000E+02 0.  0.
    9900012    2    3    3    0    0 -0.29807668921E+02 -0.64238773669E+01 -0.20640160917E+02  0.54367087877E+02  0.40000008433E+02 0.  0.
         12    1    3    3    0    0  0.29807668921E+02  0.64238773669E+01  0.20640160917E+02  0.36820912123E+02  0.00000000000E+00 0. -1.
         11    1    4    4    0    0  0.50310952685E+01 -0.31681900556E+01 -0.33210300826E+01  0.68101827361E+01  0.51100000000E-03 0. -1.
        -11    1    4    4    0    0 -0.28559113787E+02 -0.11674071962E+02 -0.48136343714E+01  0.31226239169E+02  0.51100000000E-03 0.  1.
        -12    1    4    4    0    0 -0.62796504023E+01  0.84183846512E+01 -0.12505496463E+02  0.16330665972E+02  0.00000000000E+00 0.  1.
</event>
<event>
 8    1  0.3186330E-007  0.9118800E+02  0.7816164E-02  0.1184000E+00
        -11   -1    0    0    0    0  0.00000000000E+00  0.00000000000E+00  0.45593999997E+02  0.45594000000E+02  0.51100000000E-03 0. -1.
         11   -1    0    0    0    0 -0.00000000000E+00 -0.00000000000E+00 -0.45593999997E+02  0.45594000000E+02  0.51100000000E-03 0.  1.
         23    2    1    2    0    0  0.35527136788E-14  0.71054273576E-14 -0.11102230246E-14  0.91188000000E+02  0.91188000000E+02 0.  0.
    9900012    2    3    3    0    0 -0.19633162250E+02 -0.31139144041E+02  0.82020202293E+00  0.54367080907E+02  0.39999992543E+02 0.  0.
        -12    1    3    3    0    0  0.19633162250E+02  0.31139144041E+02 -0.82020202293E+00  0.36820919093E+02  0.00000000000E+00 0.  1.
         11    1    4    4    0    0  0.93607935470E+01 -0.13220597240E+01  0.37458544017E+01  0.10168762127E+02  0.51100000000E-03 0. -1.
        -11    1    4    4    0    0 -0.12476205035E+02 -0.16048552971E+02 -0.84221389141E+01  0.22003276317E+02  0.51100000000E-03 0.  1.
        -12    1    4    4    0    0 -0.16517750762E+02 -0.13768531346E+02  0.54964865353E+01  0.22195042462E+02  0.00000000000E+00 0.  1.
</event>
<event>
 8    1  0.3186330E-007  0.9118800E+02  0.7816164E-02  0.1184000E+00
        -11   -1    0    0    0    0  0.00000000000E+00  0.00000000000E+00  0.45593999997E+02  0.45594000000E+02  0.51100000000E-03 0.  1.
         11   -1    0    0    0    0 -0.00000000000E+00 -0.00000000000E+00 -0.45593999997E+02  0.45594000000E+02  0.51100000000E-03 0. -1.
         23    2    1    2    0    0  0.00000000000E+00 -0.88817841970E-15  0.00000000000E+00  0.91188000000E+02  0.91188000000E+02 0.  0.
    9900012    2    3    3    0    0  0.32061026902E+02  0.66337166860E+01 -0.16848272080E+02  0.54367083184E+02  0.39999997736E+02 0.  0.
        -12    1    3    3    0    0 -0.32061026902E+02 -0.66337166860E+01  0.16848272080E+02  0.36820916816E+02  0.00000000000E+00 0.  1.
         11    1    4    4    0    0  0.94031327452E+01  0.54071719398E+01 -0.17583364337E+02  0.20659891468E+02  0.51100000000E-03 0.  1.
        -11    1    4    4    0    0 -0.23114361853E+00  0.56336656477E+01 -0.71449818421E+01  0.91017790452E+01  0.51100000000E-03 0. -1.
         12    1    4    4    0    0  0.22889037775E+02 -0.44071209015E+01  0.78800740993E+01  0.24605412671E+02  0.00000000000E+00 0. -1.
</event>
<event>
 8    1  0.3186330E-007  0.9118800E+02  0.7816164E-02  0.1184000E+00
        -11   -1    0    0    0    0  0.00000000000E+00  0.00000000000E+00  0.45593999997E+02  0.45594000000E+02  0.51100000000E-03 0.  1.
         11   -1    0    0    0    0 -0.00000000000E+00 -0.00000000000E+00 -0.45593999997E+02  0.45594000000E+02  0.51100000000E-03 0. -1.
         23    2    1    2    0    0  0.00000000000E+00  0.88817841970E-15  0.17763568394E-14  0.91188000000E+02  0.91188000000E+02 0.  0.
    9900012    2    3    3    0    0 -0.34211034733E+02 -0.67821310848E+01 -0.11806263310E+02  0.54367081314E+02  0.39999993471E+02 0.  0.
        -12    1    3    3    0    0  0.34211034733E+02  0.67821310848E+01  0.11806263310E+02  0.36820918686E+02  0.00000000000E+00 0.  1.
         11    1    4    4    0    0  0.35258132602E+01 -0.22587536644E+01 -0.22760210801E+00  0.41934627986E+01  0.51100000000E-03 0. -1.
        -11    1    4    4    0    0 -0.62180837182E+01  0.44141893887E+00  0.99080717863E+01  0.11705951588E+02  0.51100000000E-03 0.  1.
         12    1    4    4    0    0 -0.31518764275E+02 -0.49647963593E+01 -0.21486732988E+02  0.38467666927E+02  0.00000000000E+00 0. -1.
</event>
<event>
 8    1  0.3186330E-007  0.9118800E+02  0.7816164E-02  0.1184000E+00
        -11   -1    0    0    0    0  0.00000000000E+00  0.00000000000E+00  0.45593999997E+02  0.45594000000E+02  0.51100000000E-03 0.  1.
         11   -1    0    0    0    0 -0.00000000000E+00 -0.00000000000E+00 -0.45593999997E+02  0.45594000000E+02  0.51100000000E-03 0. -1.
         23    2    1    2    0    0  0.17763568394E-14 -0.35527136788E-14  0.00000000000E+00  0.91188000000E+02  0.91188000000E+02 0.  0.
    9900012    2    3    3    0    0 -0.27511541370E+01 -0.23714479544E+02  0.28032763033E+02  0.54367065840E+02  0.39999958196E+02 0.  0.
         12    1    3    3    0    0  0.27511541370E+01  0.23714479544E+02 -0.28032763033E+02  0.36820934160E+02  0.00000000000E+00 0. -1.
         11    1    4    4    0    0 -0.92150962159E+01 -0.17476683166E+02  0.49029336833E+01  0.20356601183E+02  0.51100000000E-03 0. -1.
        -11    1    4    4    0    0 -0.67430985659E+01 -0.79364407219E+01  0.15469679955E+02  0.18648524547E+02  0.51100000000E-03 0.  1.
        -12    1    4    4    0    0  0.13207040645E+02  0.16986443443E+01  0.76601493943E+01  0.15361940110E+02  0.00000000000E+00 0.  1.
</event>
<event>
 8    1  0.3186330E-007  0.9118800E+02  0.7816164E-02  0.1184000E+00
        -11   -1    0    0    0    0  0.00000000000E+00  0.00000000000E+00  0.45593999997E+02  0.45594000000E+02  0.51100000000E-03 0.  1.
         11   -1    0    0    0    0 -0.00000000000E+00 -0.00000000000E+00 -0.45593999997E+02  0.45594000000E+02  0.51100000000E-03 0. -1.
         23    2    1    2    0    0  0.00000000000E+00  0.71054273576E-14  0.00000000000E+00  0.91188000000E+02  0.91188000000E+02 0.  0.
    9900012    2    3    3    0    0 -0.57685130462E+01 -0.36322334791E+02  0.17867267975E+01  0.54367080130E+02  0.39999990772E+02 0.  0.
        -12    1    3    3    0    0  0.57685130462E+01  0.36322334791E+02 -0.17867267975E+01  0.36820919870E+02  0.00000000000E+00 0.  1.
         11    1    4    4    0    0  0.14065675141E+02 -0.17577719937E+02  0.36052786324E+01  0.22799506346E+02  0.51100000000E-03 0. -1.
        -11    1    4    4    0    0 -0.14804986447E+02 -0.14486061599E+02 -0.83094457625E+01  0.22317717031E+02  0.51100000000E-03 0.  1.
         12    1    4    4    0    0 -0.50292017406E+01 -0.42585532557E+01  0.64908939276E+01  0.92498567534E+01  0.00000000000E+00 0. -1.
</event>
<event>
 8    1  0.3186330E-007  0.9118800E+02  0.7816164E-02  0.1184000E+00
        -11   -1    0    0    0    0  0.00000000000E+00  0.00000000000E+00  0.45593999997E+02  0.45594000000E+02  0.51100000000E-03 0. -1.
         11   -1    0    0    0    0 -0.00000000000E+00 -0.00000000000E+00 -0.45593999997E+02  0.45594000000E+02  0.51100000000E-03 0.  1.
         23    2    1    2    0    0  0.00000000000E+00  0.35527136788E-14  0.00000000000E+00  0.91188000000E+02  0.91188000000E+02 0.  0.
    9900012    2    3    3    0    0 -0.20009592865E+02  0.20254539310E+02  0.23348450521E+02  0.54367077809E+02  0.39999985481E+02 0.  0.
        -12    1    3    3    0    0  0.20009592865E+02 -0.20254539310E+02 -0.23348450521E+02  0.36820922191E+02  0.00000000000E+00 0.  1.
         11    1    4    4    0    0 -0.36474925837E+01 -0.25304324168E+00  0.69270671020E+01  0.78327831533E+01  0.51100000000E-03 0. -1.
        -11    1    4    4    0    0 -0.97006909186E+01 -0.83413729937E+01  0.99990768199E+01  0.16237716749E+02  0.51100000000E-03 0.  1.
         12    1    4    4    0    0 -0.66614093629E+01  0.28848955546E+02  0.64223065986E+01  0.30296577906E+02  0.00000000000E+00 0. -1.
</event>
<event>
 8    1  0.3186330E-007  0.9118800E+02  0.7816164E-02  0.1184000E+00
        -11   -1    0    0    0    0  0.00000000000E+00  0.00000000000E+00  0.45593999997E+02  0.45594000000E+02  0.51100000000E-03 0.  1.
         11   -1    0    0    0    0 -0.00000000000E+00 -0.00000000000E+00 -0.45593999997E+02  0.45594000000E+02  0.51100000000E-03 0. -1.
         23    2    1    2    0    0  0.35527136788E-14 -0.35527136788E-14  0.00000000000E+00  0.91188000000E+02  0.91188000000E+02 0.  0.
    9900012    2    3    3    0    0 -0.29618195834E+02 -0.12985845852E+02  0.17604330608E+02  0.54367052523E+02  0.39999927837E+02 0.  0.
         12    1    3    3    0    0  0.29618195834E+02  0.12985845852E+02 -0.17604330608E+02  0.36820947477E+02  0.00000000000E+00 0. -1.
         11    1    4    4    0    0 -0.24522276431E+01  0.14292228250E+01  0.97074784507E+01  0.10113913013E+02  0.51100000000E-03 0.  1.
        -11    1    4    4    0    0 -0.26404017277E+02 -0.22832867551E+02  0.47256949785E+01  0.35225617983E+02  0.51100000000E-03 0. -1.
         12    1    4    4    0    0 -0.76195091342E+00  0.84177988743E+01  0.31711571784E+01  0.90275215277E+01  0.00000000000E+00 0. -1.
</event>
<event>
 8    1  0.3186330E-007  0.9118800E+02  0.7816164E-02  0.1184000E+00
        -11   -1    0    0    0    0  0.00000000000E+00  0.00000000000E+00  0.45593999997E+02  0.45594000000E+02  0.51100000000E-03 0.  1.
         11   -1    0    0    0    0 -0.00000000000E+00 -0.00000000000E+00 -0.45593999997E+02  0.45594000000E+02  0.51100000000E-03 0. -1.
         23    2    1    2    0    0  0.00000000000E+00  0.17763568394E-14  0.00000000000E+00  0.91188000000E+02  0.91188000000E+02 0.  0.
    9900012    2    3    3    0    0 -0.10044065500E+02  0.13554228481E+02 -0.32728872059E+02  0.54367089803E+02  0.40000012824E+02 0.  0.
        -12    1    3    3    0    0  0.10044065500E+02 -0.13554228481E+02  0.32728872059E+02  0.36820910197E+02  0.00000000000E+00 0.  1.
         11    1    4    4    0    0 -0.16566248198E+02 -0.66736268111E+01 -0.84594298181E+01  0.19762080540E+02  0.51100000000E-03 0. -1.
        -11    1    4    4    0    0 -0.63678490985E+00  0.16197442730E+02 -0.13740058842E+02  0.21249749722E+02  0.51100000000E-03 0.  1.
        -12    1    4    4    0    0  0.71589676076E+01  0.40304125618E+01 -0.10529383399E+02  0.13355259541E+02  0.00000000000E+00 0.  1.
</event>
<event>
 8    1  0.3186330E-007  0.9118800E+02  0.7816164E-02  0.1184000E+00
        -11   -1    0    0    0    0  0.00000000000E+00  0.00000000000E+00  0.45593999997E+02  0.45594000000E+02  0.51100000000E-03 0. -1.
         11   -1    0    0    0    0 -0.00000000000E+00 -0.00000000000E+00 -0.45593999997E+02  0.45594000000E+02  0.51100000000E-03 0.  1.
         23    2    1    2    0    0  0.00000000000E+00  0.35527136788E-14  0.35527136788E-14  0.91188000000E+02  0.91188000000E+02 0.  0.
    9900012    2    3    3    0    0 -0.55330021367E+01 -0.24796141310E+02 -0.26651784572E+02  0.54367077179E+02  0.39999984046E+02 0.  0.
         12    1    3    3    0    0  0.55330021367E+01  0.24796141310E+02  0.26651784572E+02  0.36820922821E+02  0.00000000000E+00 0. -1.
         11    1    4    4    0    0  0.63087686473E+01 -0.21611360307E+02  0.11134724089E+01  0.22540880135E+02  0.51100000000E-03 0. -1.
        -11    1    4    4    0    0 -0.56397109691E+01 -0.52798692651E+01 -0.21161380813E+02  0.22527480939E+02  0.51100000000E-03 0.  1.
         12    1    4    4    0    0 -0.62020598149E+01  0.20950882627E+01 -0.66038761674E+01  0.92987161055E+01  0.00000000000E+00 0. -1.
</event>
<event>
 8    1  0.3186330E-007  0.9118800E+02  0.7816164E-02  0.1184000E+00
        -11   -1    0    0    0    0  0.00000000000E+00  0.00000000000E+00  0.45593999997E+02  0.45594000000E+02  0.51100000000E-03 0.  1.
         11   -1    0    0    0    0 -0.00000000000E+00 -0.00000000000E+00 -0.45593999997E+02  0.45594000000E+02  0.51100000000E-03 0. -1.
         23    2    1    2    0    0 -0.17763568394E-14  0.00000000000E+00  0.00000000000E+00  0.91188000000E+02  0.91188000000E+02 0.  0.
    9900012    2    3    3    0    0  0.11837680889E+02 -0.33699710061E+02  0.89429870173E+01  0.54367106966E+02  0.40000051950E+02 0.  0.
        -12    1    3    3    0    0 -0.11837680889E+02  0.33699710061E+02 -0.89429870173E+01  0.36820893034E+02  0.00000000000E+00 0.  1.
         11    1    4    4    0    0  0.90305590993E+01 -0.25930343226E+02  0.43201013602E+01  0.27795628675E+02  0.51100000000E-03 0. -1.
        -11    1    4    4    0    0  0.14024475620E+01 -0.89271423751E+01  0.14195271495E+02  0.16827550719E+02  0.51100000000E-03 0.  1.
         12    1    4    4    0    0  0.14046742281E+01  0.11577755394E+01 -0.95723858373E+01  0.97439275708E+01  0.00000000000E+00 0. -1.
</event>
<event>
 8    1  0.3186330E-007  0.9118800E+02  0.7816164E-02  0.1184000E+00
        -11   -1    0    0    0    0  0.00000000000E+00  0.00000000000E+00  0.45593999997E+02  0.45594000000E+02  0.51100000000E-03 0.  1.
         11   -1    0    0    0    0 -0.00000000000E+00 -0.00000000000E+00 -0.45593999997E+02  0.45594000000E+02  0.51100000000E-03 0. -1.
         23    2    1    2    0    0  0.00000000000E+00  0.53290705182E-14 -0.35527136788E-14  0.91188000000E+02  0.91188000000E+02 0.  0.
    9900012    2    3    3    0    0  0.23343155100E+02  0.10854189676E+02  0.26326103115E+02  0.54367081641E+02  0.39999994217E+02 0.  0.
         12    1    3    3    0    0 -0.23343155100E+02 -0.10854189676E+02 -0.26326103115E+02  0.36820918359E+02  0.00000000000E+00 0. -1.
         11    1    4    4    0    0  0.30638306896E+01  0.65178688239E+01  0.81819284418E+01  0.10900166319E+02  0.51100000000E-03 0. -1.
        -11    1    4    4    0    0  0.12458136748E+02  0.18495219777E+02  0.15298701509E+02  0.27043087730E+02  0.51100000000E-03 0.  1.
        -12    1    4    4    0    0  0.78211876630E+01 -0.14158898925E+02  0.28454731641E+01  0.16423827592E+02  0.00000000000E+00 0.  1.
</event>
<event>
 8    1  0.3186330E-007  0.9118800E+02  0.7816164E-02  0.1184000E+00
        -11   -1    0    0    0    0  0.00000000000E+00  0.00000000000E+00  0.45593999997E+02  0.45594000000E+02  0.51100000000E-03 0.  1.
         11   -1    0    0    0    0 -0.00000000000E+00 -0.00000000000E+00 -0.45593999997E+02  0.45594000000E+02  0.51100000000E-03 0. -1.
         23    2    1    2    0    0  0.00000000000E+00  0.00000000000E+00  0.00000000000E+00  0.91188000000E+02  0.91188000000E+02 0.  0.
    9900012    2    3    3    0    0 -0.31325542830E+02 -0.98441908948E+01  0.16660738217E+02  0.54367110197E+02  0.40000059315E+02 0.  0.
         12    1    3    3    0    0  0.31325542830E+02  0.98441908948E+01 -0.16660738217E+02  0.36820889803E+02  0.00000000000E+00 0. -1.
         11    1    4    4    0    0 -0.44179072135E+00  0.38855811280E+01 -0.14722325039E+01  0.41785629767E+01  0.51100000000E-03 0. -1.
        -11    1    4    4    0    0 -0.26942152470E+02 -0.20884444395E+02  0.46225772160E+01  0.34400695019E+02  0.51100000000E-03 0.  1.
        -12    1    4    4    0    0 -0.39415996384E+01  0.71546723721E+01  0.13510393505E+02  0.15787852201E+02  0.00000000000E+00 0.  1.
</event>
<event>
 8    1  0.3186330E-007  0.9118800E+02  0.7816164E-02  0.1184000E+00
        -11   -1    0    0    0    0  0.00000000000E+00  0.00000000000E+00  0.45593999997E+02  0.45594000000E+02  0.51100000000E-03 0.  1.
         11   -1    0    0    0    0 -0.00000000000E+00 -0.00000000000E+00 -0.45593999997E+02  0.45594000000E+02  0.51100000000E-03 0. -1.
         23    2    1    2    0    0 -0.35527136788E-14  0.00000000000E+00  0.35527136788E-14  0.91188000000E+02  0.91188000000E+02 0.  0.
    9900012    2    3    3    0    0 -0.28254623380E+02  0.85862448913E+01  0.21993930285E+02  0.54367077781E+02  0.39999985417E+02 0.  0.
         12    1    3    3    0    0  0.28254623380E+02 -0.85862448913E+01 -0.21993930285E+02  0.36820922219E+02  0.00000000000E+00 0. -1.
         11    1    4    4    0    0 -0.26181993892E+02 -0.96518100569E+01  0.87917648856E+01  0.29256612443E+02  0.51100000000E-03 0. -1.
        -11    1    4    4    0    0 -0.47301212401E+01  0.10157335785E+02  0.12168512733E+02  0.16541409238E+02  0.51100000000E-03 0.  1.
         12    1    4    4    0    0  0.26574917526E+01  0.80807191634E+01  0.10336526666E+01  0.85690561002E+01  0.00000000000E+00 0. -1.
</event>
<event>
 8    1  0.3186330E-007  0.9118800E+02  0.7816164E-02  0.1184000E+00
        -11   -1    0    0    0    0  0.00000000000E+00  0.00000000000E+00  0.45593999997E+02  0.45594000000E+02  0.51100000000E-03 0. -1.
         11   -1    0    0    0    0 -0.00000000000E+00 -0.00000000000E+00 -0.45593999997E+02  0.45594000000E+02  0.51100000000E-03 0.  1.
         23    2    1    2    0    0 -0.88817841970E-15 -0.88817841970E-15  0.00000000000E+00  0.91188000000E+02  0.91188000000E+02 0.  0.
    9900012    2    3    3    0    0 -0.56690619552E+01  0.63147882564E+01  0.35829674012E+02  0.54367077226E+02  0.39999984152E+02 0.  0.
        -12    1    3    3    0    0  0.56690619552E+01 -0.63147882564E+01 -0.35829674012E+02  0.36820922774E+02  0.00000000000E+00 0.  1.
         11    1    4    4    0    0 -0.10322356529E+02 -0.36806458733E+01 -0.48950993844E+01  0.12002507930E+02  0.51100000000E-03 0.  1.
        -11    1    4    4    0    0  0.13789079429E+00  0.45235151733E+01  0.13942638107E+02  0.14658729858E+02  0.51100000000E-03 0. -1.
        -12    1    4    4    0    0  0.45154037795E+01  0.54719189564E+01  0.26782135289E+02  0.27705839438E+02  0.00000000000E+00 0.  1.
</event>
<event>
 8    1  0.3186330E-007  0.9118800E+02  0.7816164E-02  0.1184000E+00
        -11   -1    0    0    0    0  0.00000000000E+00  0.00000000000E+00  0.45593999997E+02  0.45594000000E+02  0.51100000000E-03 0. -1.
         11   -1    0    0    0    0 -0.00000000000E+00 -0.00000000000E+00 -0.45593999997E+02  0.45594000000E+02  0.51100000000E-03 0.  1.
         23    2    1    2    0    0  0.00000000000E+00  0.00000000000E+00  0.00000000000E+00  0.91188000000E+02  0.91188000000E+02 0.  0.
    9900012    2    3    3    0    0  0.22555656862E+02  0.26732569299E+02  0.11506169956E+02  0.54367083867E+02  0.39999999292E+02 0.  0.
         12    1    3    3    0    0 -0.22555656862E+02 -0.26732569299E+02 -0.11506169956E+02  0.36820916133E+02  0.00000000000E+00 0. -1.
         11    1    4    4    0    0  0.10506528499E+02  0.11596493514E+02 -0.14795082797E+01  0.15717975313E+02  0.51100000000E-03 0. -1.
        -11    1    4    4    0    0 -0.26554278298E+01  0.20527885849E+02  0.64772928904E+01  0.21688723287E+02  0.51100000000E-03 0.  1.
         12    1    4    4    0    0  0.14704556193E+02 -0.53918100639E+01  0.65083853457E+01  0.16960385267E+02  0.00000000000E+00 0. -1.
</event>
<event>
 8    1  0.3186330E-007  0.9118800E+02  0.7816164E-02  0.1184000E+00
        -11   -1    0    0    0    0  0.00000000000E+00  0.00000000000E+00  0.45593999997E+02  0.45594000000E+02  0.51100000000E-03 0. -1.
         11   -1    0    0    0    0 -0.00000000000E+00 -0.00000000000E+00 -0.45593999997E+02  0.45594000000E+02  0.51100000000E-03 0.  1.
         23    2    1    2    0    0 -0.17763568394E-14 -0.71054273576E-14 -0.88817841970E-15  0.91188000000E+02  0.91188000000E+02 0.  0.
    9900012    2    3    3    0    0 -0.10594285321E+02 -0.35103850162E+02  0.33551671084E+01  0.54367131949E+02  0.40000108904E+02 0.  0.
         12    1    3    3    0    0  0.10594285321E+02  0.35103850162E+02 -0.33551671084E+01  0.36820868051E+02  0.00000000000E+00 0. -1.
         11    1    4    4    0    0 -0.14945768351E+02 -0.20197162521E+02  0.13225923902E+02  0.28394126661E+02  0.51100000000E-03 0. -1.
        -11    1    4    4    0    0  0.45517057479E+01 -0.18614378739E+02 -0.49196033544E+01  0.19784226507E+02  0.51100000000E-03 0.  1.
        -12    1    4    4    0    0 -0.20022271796E+00  0.37076910982E+01 -0.49511534396E+01  0.61887787809E+01  0.00000000000E+00 0.  1.
</event>
<event>
 8    1  0.3186330E-007  0.9118800E+02  0.7816164E-02  0.1184000E+00
        -11   -1    0    0    0    0  0.00000000000E+00  0.00000000000E+00  0.45593999997E+02  0.45594000000E+02  0.51100000000E-03 0. -1.
         11   -1    0    0    0    0 -0.00000000000E+00 -0.00000000000E+00 -0.45593999997E+02  0.45594000000E+02  0.51100000000E-03 0.  1.
         23    2    1    2    0    0  0.66613381478E-15  0.17763568394E-14  0.00000000000E+00  0.91188000000E+02  0.91188000000E+02 0.  0.
    9900012    2    3    3    0    0 -0.19598724468E+01 -0.12840776098E+02  0.34453618905E+02  0.54367102584E+02  0.40000041962E+02 0.  0.
        -12    1    3    3    0    0  0.19598724468E+01  0.12840776098E+02 -0.34453618905E+02  0.36820897416E+02  0.00000000000E+00 0.  1.
         11    1    4    4    0    0  0.71232600725E+01  0.33946109928E+01 -0.14655452723E+01  0.80257112494E+01  0.51100000000E-03 0.  1.
        -11    1    4    4    0    0 -0.87186136288E+01 -0.14272482107E+02  0.83378281864E+01  0.18687893092E+02  0.51100000000E-03 0. -1.
        -12    1    4    4    0    0 -0.36451889051E+00 -0.19629049836E+01  0.27581335991E+02  0.27653498243E+02  0.00000000000E+00 0.  1.
</event>
<event>
 8    1  0.3186330E-007  0.9118800E+02  0.7816164E-02  0.1184000E+00
        -11   -1    0    0    0    0  0.00000000000E+00  0.00000000000E+00  0.45593999997E+02  0.45594000000E+02  0.51100000000E-03 0.  1.
         11   -1    0    0    0    0 -0.00000000000E+00 -0.00000000000E+00 -0.45593999997E+02  0.45594000000E+02  0.51100000000E-03 0. -1.
         23    2    1    2    0    0 -0.35527136788E-14  0.00000000000E+00  0.35527136788E-14  0.91188000000E+02  0.91188000000E+02 0.  0.
    9900012    2    3    3    0    0 -0.18833134269E+02  0.10004660212E+02  0.30016650565E+02  0.54367089046E+02  0.40000011097E+02 0.  0.
         12    1    3    3    0    0  0.18833134269E+02 -0.10004660212E+02 -0.30016650565E+02  0.36820910954E+02  0.00000000000E+00 0. -1.
         11    1    4    4    0    0 -0.11571031592E+02  0.91975994794E-01  0.17817861964E+02  0.21245550991E+02  0.51100000000E-03 0.  1.
        -11    1    4    4    0    0 -0.57404627504E+01 -0.95614399494E+01  0.57753706992E+01  0.12559018810E+02  0.51100000000E-03 0. -1.
        -12    1    4    4    0    0 -0.15216399265E+01  0.19474124167E+02  0.64234179018E+01  0.20562519244E+02  0.00000000000E+00 0.  1.
</event>
<event>
 8    1  0.3186330E-007  0.9118800E+02  0.7816164E-02  0.1184000E+00
        -11   -1    0    0    0    0  0.00000000000E+00  0.00000000000E+00  0.45593999997E+02  0.45594000000E+02  0.51100000000E-03 0.  1.
         11   -1    0    0    0    0 -0.00000000000E+00 -0.00000000000E+00 -0.45593999997E+02  0.45594000000E+02  0.51100000000E-03 0. -1.
         23    2    1    2    0    0  0.00000000000E+00  0.17763568394E-14  0.00000000000E+00  0.91188000000E+02  0.91188000000E+02 0.  0.
    9900012    2    3    3    0    0  0.74812662002E+01  0.15518037581E+02 -0.32542306304E+02  0.54367074782E+02  0.39999978581E+02 0.  0.
        -12    1    3    3    0    0 -0.74812662002E+01 -0.15518037581E+02  0.32542306304E+02  0.36820925218E+02  0.00000000000E+00 0.  1.
         11    1    4    4    0    0  0.70037900068E+01  0.23262719715E+02 -0.96893473860E+01  0.26155126763E+02  0.51100000000E-03 0. -1.
        -11    1    4    4    0    0 -0.46898279476E+01 -0.95256471632E+01 -0.18023315502E+02  0.20918229896E+02  0.51100000000E-03 0.  1.
         12    1    4    4    0    0  0.51673041410E+01  0.17809650300E+01 -0.48296434162E+01  0.72937181225E+01  0.00000000000E+00 0. -1.
</event>
<event>
 8    1  0.3186330E-007  0.9118800E+02  0.7816164E-02  0.1184000E+00
        -11   -1    0    0    0    0  0.00000000000E+00  0.00000000000E+00  0.45593999997E+02  0.45594000000E+02  0.51100000000E-03 0.  1.
         11   -1    0    0    0    0 -0.00000000000E+00 -0.00000000000E+00 -0.45593999997E+02  0.45594000000E+02  0.51100000000E-03 0. -1.
         23    2    1    2    0    0  0.88817841970E-15  0.00000000000E+00  0.35527136788E-14  0.91188000000E+02  0.91188000000E+02 0.  0.
    9900012    2    3    3    0    0  0.57150785029E+01 -0.17773629967E+02  0.31736666453E+02  0.54367081461E+02  0.39999993806E+02 0.  0.
        -12    1    3    3    0    0 -0.57150785029E+01  0.17773629967E+02 -0.31736666453E+02  0.36820918539E+02  0.00000000000E+00 0.  1.
         11    1    4    4    0    0  0.14423519646E+02 -0.82748648877E+01 -0.17605031656E+01  0.16721563310E+02  0.51100000000E-03 0. -1.
        -11    1    4    4    0    0 -0.18307130825E+01 -0.77687773547E+01  0.26526841719E+02  0.27701601828E+02  0.51100000000E-03 0.  1.
         12    1    4    4    0    0 -0.68777280602E+01 -0.17299877250E+01  0.69703279001E+01  0.99439163228E+01  0.00000000000E+00 0. -1.
</event>
<event>
 8    1  0.3186330E-007  0.9118800E+02  0.7816164E-02  0.1184000E+00
        -11   -1    0    0    0    0  0.00000000000E+00  0.00000000000E+00  0.45593999997E+02  0.45594000000E+02  0.51100000000E-03 0.  1.
         11   -1    0    0    0    0 -0.00000000000E+00 -0.00000000000E+00 -0.45593999997E+02  0.45594000000E+02  0.51100000000E-03 0. -1.
         23    2    1    2    0    0 -0.22204460493E-15 -0.17763568394E-14 -0.71054273576E-14  0.91188000000E+02  0.91188000000E+02 0.  0.
    9900012    2    3    3    0    0 -0.38428526221E+00  0.12414014924E+02  0.34663031001E+02  0.54367066282E+02  0.39999959203E+02 0.  0.
         12    1    3    3    0    0  0.38428526221E+00 -0.12414014924E+02 -0.34663031001E+02  0.36820933718E+02  0.00000000000E+00 0. -1.
         11    1    4    4    0    0 -0.27671403951E+01  0.36888019796E+01  0.27635722611E+02  0.28017806668E+02  0.51100000000E-03 0. -1.
        -11    1    4    4    0    0  0.22583157140E+01  0.11096262227E+02  0.14563535110E+02  0.18447861134E+02  0.51100000000E-03 0.  1.
         12    1    4    4    0    0  0.12453941890E+00 -0.23710492821E+01 -0.75362267195E+01  0.79013984796E+01  0.00000000000E+00 0. -1.
</event>
<event>
 8    1  0.3186330E-007  0.9118800E+02  0.7816164E-02  0.1184000E+00
        -11   -1    0    0    0    0  0.00000000000E+00  0.00000000000E+00  0.45593999997E+02  0.45594000000E+02  0.51100000000E-03 0. -1.
         11   -1    0    0    0    0 -0.00000000000E+00 -0.00000000000E+00 -0.45593999997E+02  0.45594000000E+02  0.51100000000E-03 0.  1.
         23    2    1    2    0    0  0.00000000000E+00  0.00000000000E+00  0.00000000000E+00  0.91188000000E+02  0.91188000000E+02 0.  0.
    9900012    2    3    3    0    0  0.95755292654E+01  0.44598495061E+01  0.35273187655E+02  0.54367098521E+02  0.40000032699E+02 0.  0.
        -12    1    3    3    0    0 -0.95755292654E+01 -0.44598495061E+01 -0.35273187655E+02  0.36820901479E+02  0.00000000000E+00 0.  1.
         11    1    4    4    0    0  0.12021133845E+02 -0.61283692704E+01  0.11984353646E+02  0.18046864033E+02  0.51100000000E-03 0. -1.
        -11    1    4    4    0    0  0.90259788422E+01  0.10938605394E+02  0.56276172506E+01  0.15257504979E+02  0.51100000000E-03 0.  1.
        -12    1    4    4    0    0 -0.11471583422E+02 -0.35038661709E+00  0.17661216758E+02  0.21062729509E+02  0.00000000000E+00 0.  1.
</event>
<event>
 8    1  0.3186330E-007  0.9118800E+02  0.7816164E-02  0.1184000E+00
        -11   -1    0    0    0    0  0.00000000000E+00  0.00000000000E+00  0.45593999997E+02  0.45594000000E+02  0.51100000000E-03 0.  1.
         11   -1    0    0    0    0 -0.00000000000E+00 -0.00000000000E+00 -0.45593999997E+02  0.45594000000E+02  0.51100000000E-03 0. -1.
         23    2    1    2    0    0 -0.35527136788E-14  0.88817841970E-15  0.00000000000E+00  0.91188000000E+02  0.91188000000E+02 0.  0.
    9900012    2    3    3    0    0 -0.16256520810E+02  0.33820926920E+01 -0.32864353464E+02  0.54367099028E+02  0.40000033854E+02 0.  0.
        -12    1    3    3    0    0  0.16256520810E+02 -0.33820926920E+01  0.32864353464E+02  0.36820900972E+02  0.00000000000E+00 0.  1.
         11    1    4    4    0    0 -0.54981206907E+01  0.97100673760E+00 -0.18419758558E+01  0.58792057736E+01  0.51100000000E-03 0. -1.
        -11    1    4    4    0    0 -0.42425511873E+01 -0.16394724865E+02 -0.10639057228E+02  0.19999394565E+02  0.51100000000E-03 0.  1.
         12    1    4    4    0    0 -0.65158489315E+01  0.18805810820E+02 -0.20383320379E+02  0.28488498689E+02  0.00000000000E+00 0. -1.
</event>
<event>
 8    1  0.3186330E-007  0.9118800E+02  0.7816164E-02  0.1184000E+00
        -11   -1    0    0    0    0  0.00000000000E+00  0.00000000000E+00  0.45593999997E+02  0.45594000000E+02  0.51100000000E-03 0.  1.
         11   -1    0    0    0    0 -0.00000000000E+00 -0.00000000000E+00 -0.45593999997E+02  0.45594000000E+02  0.51100000000E-03 0. -1.
         23    2    1    2    0    0  0.00000000000E+00  0.00000000000E+00  0.71054273576E-14  0.91188000000E+02  0.91188000000E+02 0.  0.
    9900012    2    3    3    0    0  0.63159011355E+01  0.21302573742E+02  0.29361313176E+02  0.54367123223E+02  0.40000089012E+02 0.  0.
         12    1    3    3    0    0 -0.63159011355E+01 -0.21302573742E+02 -0.29361313176E+02  0.36820876777E+02  0.00000000000E+00 0. -1.
         11    1    4    4    0    0  0.99317705634E+01  0.20842703889E+02  0.12474430160E+02  0.26242518553E+02  0.51100000000E-03 0. -1.
        -11    1    4    4    0    0  0.92151605511E+01 -0.13865739748E+01  0.52029034016E+01  0.10672955328E+02  0.51100000000E-03 0.  1.
         12    1    4    4    0    0 -0.12831029979E+02  0.18464438279E+01  0.11683979614E+02  0.17451649342E+02  0.00000000000E+00 0. -1.
</event>
<event>
 8    1  0.3186330E-007  0.9118800E+02  0.7816164E-02  0.1184000E+00
        -11   -1    0    0    0    0  0.00000000000E+00  0.00000000000E+00  0.45593999997E+02  0.45594000000E+02  0.51100000000E-03 0.  1.
         11   -1    0    0    0    0 -0.00000000000E+00 -0.00000000000E+00 -0.45593999997E+02  0.45594000000E+02  0.51100000000E-03 0. -1.
         23    2    1    2    0    0  0.00000000000E+00  0.00000000000E+00  0.00000000000E+00  0.91188000000E+02  0.91188000000E+02 0.  0.
    9900012    2    3    3    0    0 -0.19592906181E+02  0.94941498779E+01  0.29694457943E+02  0.54367059124E+02  0.39999942884E+02 0.  0.
        -12    1    3    3    0    0  0.19592906181E+02 -0.94941498779E+01 -0.29694457943E+02  0.36820940876E+02  0.00000000000E+00 0.  1.
         11    1    4    4    0    0 -0.94811768522E+01 -0.96192395721E+00 -0.45896439433E+01  0.10577468695E+02  0.51100000000E-03 0. -1.
        -11    1    4    4    0    0 -0.45370455214E+01 -0.73173969846E+01  0.11229505174E+02  0.14150295665E+02  0.51100000000E-03 0.  1.
        -12    1    4    4    0    0 -0.55746838070E+01  0.17773470820E+02  0.23054596713E+02  0.29639294764E+02  0.00000000000E+00 0.  1.
</event>
<event>
 8    1  0.3186330E-007  0.9118800E+02  0.7816164E-02  0.1184000E+00
        -11   -1    0    0    0    0  0.00000000000E+00  0.00000000000E+00  0.45593999997E+02  0.45594000000E+02  0.51100000000E-03 0.  1.
         11   -1    0    0    0    0 -0.00000000000E+00 -0.00000000000E+00 -0.45593999997E+02  0.45594000000E+02  0.51100000000E-03 0. -1.
         23    2    1    2    0    0  0.00000000000E+00  0.44408920985E-15  0.00000000000E+00  0.91188000000E+02  0.91188000000E+02 0.  0.
    9900012    2    3    3    0    0 -0.94174202165E+01  0.37337457564E+01  0.35399867606E+02  0.54367091708E+02  0.40000017167E+02 0.  0.
         12    1    3    3    0    0  0.94174202165E+01 -0.37337457564E+01 -0.35399867606E+02  0.36820908292E+02  0.00000000000E+00 0. -1.
         11    1    4    4    0    0 -0.42778770264E+01  0.41714025368E+01  0.88638292550E+01  0.10689635181E+02  0.51100000000E-03 0.  1.
        -11    1    4    4    0    0 -0.32275216755E+01 -0.47462401611E+01 -0.74283964180E+01  0.93874791843E+01  0.51100000000E-03 0. -1.
         12    1    4    4    0    0 -0.19120215146E+01  0.43085833807E+01  0.33964434769E+02  0.34289977343E+02  0.00000000000E+00 0. -1.
</event>
<event>
 8    1  0.3186330E-007  0.9118800E+02  0.7816164E-02  0.1184000E+00
        -11   -1    0    0    0    0  0.00000000000E+00  0.00000000000E+00  0.45593999997E+02  0.45594000000E+02  0.51100000000E-03 0.  1.
         11   -1    0    0    0    0 -0.00000000000E+00 -0.00000000000E+00 -0.45593999997E+02  0.45594000000E+02  0.51100000000E-03 0. -1.
         23    2    1    2    0    0  0.35527136788E-14  0.13322676296E-14 -0.35527136788E-14  0.91188000000E+02  0.91188000000E+02 0.  0.
    9900012    2    3    3    0    0 -0.21077873398E+02 -0.34762713476E+01  0.29990278696E+02  0.54367108841E+02  0.40000056225E+02 0.  0.
         12    1    3    3    0    0  0.21077873398E+02  0.34762713476E+01 -0.29990278696E+02  0.36820891159E+02  0.00000000000E+00 0. -1.
         11    1    4    4    0    0 -0.23480743729E+01 -0.53143341366E+01 -0.67565905596E+01  0.89110670981E+01  0.51100000000E-03 0. -1.
        -11    1    4    4    0    0  0.33886408458E+01  0.49860453660E+00  0.10824242286E+02  0.11353224854E+02  0.51100000000E-03 0.  1.
         12    1    4    4    0    0 -0.22118439871E+02  0.13394582524E+01  0.25922626970E+02  0.34102816889E+02  0.00000000000E+00 0. -1.
</event>
<event>
 8    1  0.3186330E-007  0.9118800E+02  0.7816164E-02  0.1184000E+00
        -11   -1    0    0    0    0  0.00000000000E+00  0.00000000000E+00  0.45593999997E+02  0.45594000000E+02  0.51100000000E-03 0.  1.
         11   -1    0    0    0    0 -0.00000000000E+00 -0.00000000000E+00 -0.45593999997E+02  0.45594000000E+02  0.51100000000E-03 0. -1.
         23    2    1    2    0    0  0.71054273576E-14  0.00000000000E+00  0.17763568394E-14  0.91188000000E+02  0.91188000000E+02 0.  0.
    9900012    2    3    3    0    0 -0.20712592559E+02  0.30305037709E+02  0.28935871178E+01  0.54367086819E+02  0.40000006022E+02 0.  0.
        -12    1    3    3    0    0  0.20712592559E+02 -0.30305037709E+02 -0.28935871178E+01  0.36820913181E+02  0.00000000000E+00 0.  1.
         11    1    4    4    0    0  0.20766616399E+01  0.25777574861E+01  0.17337552076E+01  0.37367451886E+01  0.51100000000E-03 0. -1.
        -11    1    4    4    0    0 -0.24708698217E+02  0.29619456126E+02 -0.94254374712E+01  0.39707314447E+02  0.51100000000E-03 0.  1.
        -12    1    4    4    0    0  0.19194440176E+01 -0.18921759035E+01  0.10585269381E+02  0.10923027184E+02  0.00000000000E+00 0.  1.
</event>
<event>
 8    1  0.3186330E-007  0.9118800E+02  0.7816164E-02  0.1184000E+00
        -11   -1    0    0    0    0  0.00000000000E+00  0.00000000000E+00  0.45593999997E+02  0.45594000000E+02  0.51100000000E-03 0.  1.
         11   -1    0    0    0    0 -0.00000000000E+00 -0.00000000000E+00 -0.45593999997E+02  0.45594000000E+02  0.51100000000E-03 0. -1.
         23    2    1    2    0    0  0.00000000000E+00 -0.17763568394E-14  0.71054273576E-14  0.91188000000E+02  0.91188000000E+02 0.  0.
    9900012    2    3    3    0    0  0.29127963686E+01 -0.40515189376E+01 -0.36481203755E+02  0.54367117124E+02  0.40000075107E+02 0.  0.
        -12    1    3    3    0    0 -0.29127963686E+01  0.40515189376E+01  0.36481203755E+02  0.36820882876E+02  0.00000000000E+00 0.  1.
         11    1    4    4    0    0  0.48019825070E+00  0.10349596639E+02 -0.32251166466E+02  0.33874510766E+02  0.51100000000E-03 0. -1.
        -11    1    4    4    0    0 -0.44636212191E+01 -0.76049567424E+00  0.33600670313E+00  0.45403930253E+01  0.51100000000E-03 0.  1.
        -12    1    4    4    0    0  0.68962193370E+01 -0.13640619902E+02 -0.45660439916E+01  0.15952213332E+02  0.00000000000E+00 0.  1.
</event>
<event>
 8    1  0.3186330E-007  0.9118800E+02  0.7816164E-02  0.1184000E+00
        -11   -1    0    0    0    0  0.00000000000E+00  0.00000000000E+00  0.45593999997E+02  0.45594000000E+02  0.51100000000E-03 0. -1.
         11   -1    0    0    0    0 -0.00000000000E+00 -0.00000000000E+00 -0.45593999997E+02  0.45594000000E+02  0.51100000000E-03 0.  1.
         23    2    1    2    0    0  0.00000000000E+00  0.35527136788E-14  0.00000000000E+00  0.91188000000E+02  0.91188000000E+02 0.  0.
    9900012    2    3    3    0    0  0.17621088561E+02  0.21099872387E+02 -0.24496377402E+02  0.54367083626E+02  0.39999998741E+02 0.  0.
         12    1    3    3    0    0 -0.17621088561E+02 -0.21099872387E+02  0.24496377402E+02  0.36820916374E+02  0.00000000000E+00 0. -1.
         11    1    4    4    0    0  0.21111187174E+01 -0.40765335534E+01 -0.23455936092E+02  0.23900959944E+02  0.51100000000E-03 0. -1.
        -11    1    4    4    0    0  0.47602236232E+01  0.60093810155E+01 -0.33561105279E+01  0.83687434701E+01  0.51100000000E-03 0.  1.
         12    1    4    4    0    0  0.10749746220E+02  0.19167024925E+02  0.23156692176E+01  0.22097380211E+02  0.00000000000E+00 0. -1.
</event>
<event>
 8    1  0.3186330E-007  0.9118800E+02  0.7816164E-02  0.1184000E+00
        -11   -1    0    0    0    0  0.00000000000E+00  0.00000000000E+00  0.45593999997E+02  0.45594000000E+02  0.51100000000E-03 0. -1.
         11   -1    0    0    0    0 -0.00000000000E+00 -0.00000000000E+00 -0.45593999997E+02  0.45594000000E+02  0.51100000000E-03 0.  1.
         23    2    1    2    0    0 -0.17763568394E-14  0.00000000000E+00  0.00000000000E+00  0.91188000000E+02  0.91188000000E+02 0.  0.
    9900012    2    3    3    0    0 -0.13398400825E+02  0.16201334746E+02  0.30228796467E+02  0.54367074861E+02  0.39999978762E+02 0.  0.
        -12    1    3    3    0    0  0.13398400825E+02 -0.16201334746E+02 -0.30228796467E+02  0.36820925139E+02  0.00000000000E+00 0.  1.
         11    1    4    4    0    0 -0.51054951032E+01  0.39601228564E+01  0.91017719568E+01  0.11162029668E+02  0.51100000000E-03 0. -1.
        -11    1    4    4    0    0 -0.92735444792E+01  0.65452680788E+01  0.30303794005E+02  0.32359837651E+02  0.51100000000E-03 0.  1.
        -12    1    4    4    0    0  0.98063875756E+00  0.56959438112E+01 -0.91767694953E+01  0.10845207543E+02  0.00000000000E+00 0.  1.
</event>
<event>
 8    1  0.3186330E-007  0.9118800E+02  0.7816164E-02  0.1184000E+00
        -11   -1    0    0    0    0  0.00000000000E+00  0.00000000000E+00  0.45593999997E+02  0.45594000000E+02  0.51100000000E-03 0. -1.
         11   -1    0    0    0    0 -0.00000000000E+00 -0.00000000000E+00 -0.45593999997E+02  0.45594000000E+02  0.51100000000E-03 0.  1.
         23    2    1    2    0    0 -0.35527136788E-14 -0.17763568394E-14 -0.35527136788E-14  0.91188000000E+02  0.91188000000E+02 0.  0.
    9900012    2    3    3    0    0  0.26678590508E+02  0.71823168281E+01  0.24340223193E+02  0.54367091108E+02  0.40000015800E+02 0.  0.
        -12    1    3    3    0    0 -0.26678590508E+02 -0.71823168281E+01 -0.24340223193E+02  0.36820908892E+02  0.00000000000E+00 0.  1.
         11    1    4    4    0    0  0.19216208196E+01 -0.85035038143E+01  0.10372070295E+02  0.13549245225E+02  0.51100000000E-03 0. -1.
        -11    1    4    4    0    0  0.21400198679E+02  0.21080923916E+02  0.16142333899E+02  0.34102035139E+02  0.51100000000E-03 0.  1.
        -12    1    4    4    0    0  0.33567710091E+01 -0.53951032734E+01 -0.21741810003E+01  0.67158107448E+01  0.00000000000E+00 0.  1.
</event>
<event>
 8    1  0.3186330E-007  0.9118800E+02  0.7816164E-02  0.1184000E+00
        -11   -1    0    0    0    0  0.00000000000E+00  0.00000000000E+00  0.45593999997E+02  0.45594000000E+02  0.51100000000E-03 0.  1.
         11   -1    0    0    0    0 -0.00000000000E+00 -0.00000000000E+00 -0.45593999997E+02  0.45594000000E+02  0.51100000000E-03 0. -1.
         23    2    1    2    0    0  0.17763568394E-14 -0.35527136788E-14  0.00000000000E+00  0.91188000000E+02  0.91188000000E+02 0.  0.
    9900012    2    3    3    0    0  0.61174813412E+01  0.30873025656E+02 -0.19110572246E+02  0.54367064886E+02  0.39999956021E+02 0.  0.
        -12    1    3    3    0    0 -0.61174813412E+01 -0.30873025656E+02  0.19110572246E+02  0.36820935114E+02  0.00000000000E+00 0.  1.
         11    1    4    4    0    0  0.13781544759E+02  0.78672575743E+01 -0.12300596619E+02  0.20078082456E+02  0.51100000000E-03 0. -1.
        -11    1    4    4    0    0 -0.32134037955E+01  0.26258761419E+02 -0.12875916383E+01  0.26485966241E+02  0.51100000000E-03 0.  1.
         12    1    4    4    0    0 -0.44506596221E+01 -0.32529933375E+01 -0.55223839888E+01  0.78030161890E+01  0.00000000000E+00 0. -1.
</event>
<event>
 8    1  0.3186330E-007  0.9118800E+02  0.7816164E-02  0.1184000E+00
        -11   -1    0    0    0    0  0.00000000000E+00  0.00000000000E+00  0.45593999997E+02  0.45594000000E+02  0.51100000000E-03 0.  1.
         11   -1    0    0    0    0 -0.00000000000E+00 -0.00000000000E+00 -0.45593999997E+02  0.45594000000E+02  0.51100000000E-03 0. -1.
         23    2    1    2    0    0  0.35527136788E-14  0.35527136788E-14  0.00000000000E+00  0.91188000000E+02  0.91188000000E+02 0.  0.
    9900012    2    3    3    0    0  0.17967011580E+02  0.31766704013E+02 -0.48828342425E+01  0.54367094808E+02  0.40000024233E+02 0.  0.
         12    1    3    3    0    0 -0.17967011580E+02 -0.31766704013E+02  0.48828342425E+01  0.36820905192E+02  0.00000000000E+00 0. -1.
         11    1    4    4    0    0  0.21966804563E+02  0.16982866427E+02 -0.28757818212E+01  0.27914662386E+02  0.51100000000E-03 0.  1.
        -11    1    4    4    0    0  0.30903055430E+01 -0.28549281474E+01  0.46866126626E+01  0.62980109230E+01  0.51100000000E-03 0. -1.
        -12    1    4    4    0    0 -0.70900985257E+01  0.17638765733E+02 -0.66936650840E+01  0.20154421499E+02  0.00000000000E+00 0.  1.
</event>
<event>
 8    1  0.3186330E-007  0.9118800E+02  0.7816164E-02  0.1184000E+00
        -11   -1    0    0    0    0  0.00000000000E+00  0.00000000000E+00  0.45593999997E+02  0.45594000000E+02  0.51100000000E-03 0. -1.
         11   -1    0    0    0    0 -0.00000000000E+00 -0.00000000000E+00 -0.45593999997E+02  0.45594000000E+02  0.51100000000E-03 0.  1.
         23    2    1    2    0    0  0.35527136788E-14 -0.17763568394E-14  0.00000000000E+00  0.91188000000E+02  0.91188000000E+02 0.  0.
    9900012    2    3    3    0    0 -0.27317273150E+02  0.88739118853E+01 -0.23039101899E+02  0.54367082836E+02  0.39999996941E+02 0.  0.
         12    1    3    3    0    0  0.27317273150E+02 -0.88739118853E+01  0.23039101899E+02  0.36820917164E+02  0.00000000000E+00 0. -1.
         11    1    4    4    0    0 -0.13140857461E+02  0.34694038034E+01 -0.20241358581E+02  0.24380965835E+02  0.51100000000E-03 0.  1.
        -11    1    4    4    0    0 -0.95382768893E+01  0.14074165614E+02 -0.80806345376E+01  0.18824386272E+02  0.51100000000E-03 0. -1.
        -12    1    4    4    0    0 -0.46381387989E+01 -0.86696575316E+01  0.52828912191E+01  0.11161730729E+02  0.00000000000E+00 0.  1.
</event>
<event>
 8    1  0.3186330E-007  0.9118800E+02  0.7816164E-02  0.1184000E+00
        -11   -1    0    0    0    0  0.00000000000E+00  0.00000000000E+00  0.45593999997E+02  0.45594000000E+02  0.51100000000E-03 0. -1.
         11   -1    0    0    0    0 -0.00000000000E+00 -0.00000000000E+00 -0.45593999997E+02  0.45594000000E+02  0.51100000000E-03 0.  1.
         23    2    1    2    0    0  0.00000000000E+00  0.00000000000E+00  0.00000000000E+00  0.91188000000E+02  0.91188000000E+02 0.  0.
    9900012    2    3    3    0    0 -0.51725330753E+01  0.20907734090E+02 -0.29864540388E+02  0.54367092681E+02  0.40000019386E+02 0.  0.
         12    1    3    3    0    0  0.51725330753E+01 -0.20907734090E+02  0.29864540388E+02  0.36820907319E+02  0.00000000000E+00 0. -1.
         11    1    4    4    0    0 -0.13746447601E+02  0.20152047358E+02 -0.12983986924E+02  0.27634285790E+02  0.51100000000E-03 0. -1.
        -11    1    4    4    0    0  0.12021426487E+02  0.46063325091E+00 -0.29605121248E+01  0.12389169063E+02  0.51100000000E-03 0.  1.
        -12    1    4    4    0    0 -0.34475119614E+01  0.29505348022E+00 -0.13920041339E+02  0.14343637829E+02  0.00000000000E+00 0.  1.
</event>
<event>
 8    1  0.3186330E-007  0.9118800E+02  0.7816164E-02  0.1184000E+00
        -11   -1    0    0    0    0  0.00000000000E+00  0.00000000000E+00  0.45593999997E+02  0.45594000000E+02  0.51100000000E-03 0.  1.
         11   -1    0    0    0    0 -0.00000000000E+00 -0.00000000000E+00 -0.45593999997E+02  0.45594000000E+02  0.51100000000E-03 0. -1.
         23    2    1    2    0    0  0.00000000000E+00  0.00000000000E+00  0.00000000000E+00  0.91188000000E+02  0.91188000000E+02 0.  0.
    9900012    2    3    3    0    0  0.21473308656E+02 -0.93569242941E+01 -0.28409842902E+02  0.54367160920E+02  0.40000174949E+02 0.  0.
        -12    1    3    3    0    0 -0.21473308656E+02  0.93569242941E+01  0.28409842902E+02  0.36820839080E+02  0.00000000000E+00 0.  1.
         11    1    4    4    0    0  0.88149089162E+01  0.88430141078E+01 -0.34913986282E+01  0.12965006068E+02  0.51100000000E-03 0. -1.
        -11    1    4    4    0    0  0.62496581451E+01 -0.23762813566E+02 -0.18160597145E+02  0.30553834856E+02  0.51100000000E-03 0.  1.
         12    1    4    4    0    0  0.64087415943E+01  0.55628751639E+01 -0.67578471285E+01  0.10848319995E+02  0.00000000000E+00 0. -1.
</event>
<event>
 8    1  0.3186330E-007  0.9118800E+02  0.7816164E-02  0.1184000E+00
        -11   -1    0    0    0    0  0.00000000000E+00  0.00000000000E+00  0.45593999997E+02  0.45594000000E+02  0.51100000000E-03 0.  1.
         11   -1    0    0    0    0 -0.00000000000E+00 -0.00000000000E+00 -0.45593999997E+02  0.45594000000E+02  0.51100000000E-03 0. -1.
         23    2    1    2    0    0  0.00000000000E+00  0.00000000000E+00  0.00000000000E+00  0.91188000000E+02  0.91188000000E+02 0.  0.
    9900012    2    3    3    0    0 -0.11385821501E+02 -0.26497722288E+02  0.22891326101E+02  0.54367095226E+02  0.40000025186E+02 0.  0.
         12    1    3    3    0    0  0.11385821501E+02  0.26497722288E+02 -0.22891326101E+02  0.36820904774E+02  0.00000000000E+00 0. -1.
         11    1    4    4    0    0 -0.10490817810E+02 -0.14897439230E+02  0.21371806627E+02  0.28084605618E+02  0.51100000000E-03 0.  1.
        -11    1    4    4    0    0  0.32342928621E+01  0.51719824136E+01 -0.49314710655E+01  0.78440716172E+01  0.51100000000E-03 0. -1.
         12    1    4    4    0    0 -0.41292965532E+01 -0.16772265471E+02  0.64509905401E+01  0.18438417991E+02  0.00000000000E+00 0. -1.
</event>
<event>
 8    1  0.3186330E-007  0.9118800E+02  0.7816164E-02  0.1184000E+00
        -11   -1    0    0    0    0  0.00000000000E+00  0.00000000000E+00  0.45593999997E+02  0.45594000000E+02  0.51100000000E-03 0.  1.
         11   -1    0    0    0    0 -0.00000000000E+00 -0.00000000000E+00 -0.45593999997E+02  0.45594000000E+02  0.51100000000E-03 0. -1.
         23    2    1    2    0    0 -0.35527136788E-14 -0.11102230246E-14  0.00000000000E+00  0.91188000000E+02  0.91188000000E+02 0.  0.
    9900012    2    3    3    0    0 -0.24855948073E+02  0.14379123162E+01  0.27127357208E+02  0.54367092141E+02  0.40000018155E+02 0.  0.
         12    1    3    3    0    0  0.24855948073E+02 -0.14379123162E+01 -0.27127357208E+02  0.36820907859E+02  0.00000000000E+00 0. -1.
         11    1    4    4    0    0  0.33450834300E+01 -0.11277549274E+02 -0.16885439369E+01  0.11883765467E+02  0.51100000000E-03 0. -1.
        -11    1    4    4    0    0 -0.49813690522E+01  0.23833035797E+01  0.31221118140E+01  0.63436390209E+01  0.51100000000E-03 0.  1.
         12    1    4    4    0    0 -0.23219662451E+02  0.10332158011E+02  0.25693789331E+02  0.36139687653E+02  0.00000000000E+00 0. -1.
</event>
<event>
 8    1  0.3186330E-007  0.9118800E+02  0.7816164E-02  0.1184000E+00
        -11   -1    0    0    0    0  0.00000000000E+00  0.00000000000E+00  0.45593999997E+02  0.45594000000E+02  0.51100000000E-03 0.  1.
         11   -1    0    0    0    0 -0.00000000000E+00 -0.00000000000E+00 -0.45593999997E+02  0.45594000000E+02  0.51100000000E-03 0. -1.
         23    2    1    2    0    0  0.14210854715E-13  0.00000000000E+00 -0.22204460493E-15  0.91188000000E+02  0.91188000000E+02 0.  0.
    9900012    2    3    3    0    0 -0.36731954530E+02  0.21869152382E+01  0.13270209203E+01  0.54367081131E+02  0.39999993054E+02 0.  0.
        -12    1    3    3    0    0  0.36731954530E+02 -0.21869152382E+01 -0.13270209203E+01  0.36820918869E+02  0.00000000000E+00 0.  1.
         11    1    4    4    0    0 -0.23538497291E+02  0.82745397597E+01  0.71420138106E+01  0.25952595717E+02  0.51100000000E-03 0. -1.
        -11    1    4    4    0    0 -0.26859266683E+01  0.85452285000E+00 -0.13413222446E+02  0.13706164599E+02  0.51100000000E-03 0.  1.
         12    1    4    4    0    0 -0.10507530571E+02 -0.69421473715E+01  0.75982295553E+01  0.14708320815E+02  0.00000000000E+00 0. -1.
</event>
<event>
 8    1  0.3186330E-007  0.9118800E+02  0.7816164E-02  0.1184000E+00
        -11   -1    0    0    0    0  0.00000000000E+00  0.00000000000E+00  0.45593999997E+02  0.45594000000E+02  0.51100000000E-03 0. -1.
         11   -1    0    0    0    0 -0.00000000000E+00 -0.00000000000E+00 -0.45593999997E+02  0.45594000000E+02  0.51100000000E-03 0.  1.
         23    2    1    2    0    0  0.00000000000E+00 -0.88817841970E-15  0.00000000000E+00  0.91188000000E+02  0.91188000000E+02 0.  0.
    9900012    2    3    3    0    0  0.29780206271E+02 -0.74941012344E+01 -0.20316489963E+02  0.54367054829E+02  0.39999933094E+02 0.  0.
         12    1    3    3    0    0 -0.29780206271E+02  0.74941012344E+01  0.20316489963E+02  0.36820945171E+02  0.00000000000E+00 0. -1.
         11    1    4    4    0    0 -0.36925717777E+01 -0.34443529634E+01  0.24888752843E+01  0.56296673181E+01  0.51100000000E-03 0. -1.
        -11    1    4    4    0    0 -0.15430613982E+01 -0.54231605635E+01 -0.99014177536E+01  0.11394287287E+02  0.51100000000E-03 0.  1.
         12    1    4    4    0    0  0.35015839446E+02  0.13734122925E+01 -0.12903947494E+02  0.37343100225E+02  0.00000000000E+00 0. -1.
</event>
<event>
 8    1  0.3186330E-007  0.9118800E+02  0.7816164E-02  0.1184000E+00
        -11   -1    0    0    0    0  0.00000000000E+00  0.00000000000E+00  0.45593999997E+02  0.45594000000E+02  0.51100000000E-03 0. -1.
         11   -1    0    0    0    0 -0.00000000000E+00 -0.00000000000E+00 -0.45593999997E+02  0.45594000000E+02  0.51100000000E-03 0.  1.
         23    2    1    2    0    0  0.35527136788E-14 -0.35527136788E-14  0.00000000000E+00  0.91188000000E+02  0.91188000000E+02 0.  0.
    9900012    2    3    3    0    0  0.24819078169E+02 -0.27165976307E+02 -0.13424757276E+01  0.54367093562E+02  0.40000021392E+02 0.  0.
        -12    1    3    3    0    0 -0.24819078169E+02  0.27165976307E+02  0.13424757276E+01  0.36820906438E+02  0.00000000000E+00 0.  1.
         11    1    4    4    0    0  0.56505399455E+01 -0.18803213316E+02  0.45629433548E+01  0.20157129880E+02  0.51100000000E-03 0. -1.
        -11    1    4    4    0    0 -0.16786771009E+01  0.68985614493E+01 -0.43508329644E+01  0.83269354882E+01  0.51100000000E-03 0.  1.
        -12    1    4    4    0    0  0.20847215325E+02 -0.15261324440E+02 -0.15545861180E+01  0.25883028193E+02  0.00000000000E+00 0.  1.
</event>
<event>
 8    1  0.3186330E-007  0.9118800E+02  0.7816164E-02  0.1184000E+00
        -11   -1    0    0    0    0  0.00000000000E+00  0.00000000000E+00  0.45593999997E+02  0.45594000000E+02  0.51100000000E-03 0. -1.
         11   -1    0    0    0    0 -0.00000000000E+00 -0.00000000000E+00 -0.45593999997E+02  0.45594000000E+02  0.51100000000E-03 0.  1.
         23    2    1    2    0    0  0.71054273576E-14  0.17763568394E-14 -0.71054273576E-14  0.91188000000E+02  0.91188000000E+02 0.  0.
    9900012    2    3    3    0    0 -0.19256922002E+02 -0.15938683536E+02  0.27035322914E+02  0.54367090683E+02  0.40000014831E+02 0.  0.
        -12    1    3    3    0    0  0.19256922002E+02  0.15938683536E+02 -0.27035322914E+02  0.36820909317E+02  0.00000000000E+00 0.  1.
         11    1    4    4    0    0 -0.10370974155E+02 -0.59864965851E+01  0.45014269010E+01  0.12792892195E+02  0.51100000000E-03 0. -1.
        -11    1    4    4    0    0 -0.20116671705E+02 -0.33679764030E+00  0.12086100613E+02  0.23470571817E+02  0.51100000000E-03 0.  1.
         12    1    4    4    0    0  0.11230723858E+02 -0.96153893108E+01  0.10447795400E+02  0.18103626672E+02  0.00000000000E+00 0. -1.
</event>
<event>
 8    1  0.3186330E-007  0.9118800E+02  0.7816164E-02  0.1184000E+00
        -11   -1    0    0    0    0  0.00000000000E+00  0.00000000000E+00  0.45593999997E+02  0.45594000000E+02  0.51100000000E-03 0.  1.
         11   -1    0    0    0    0 -0.00000000000E+00 -0.00000000000E+00 -0.45593999997E+02  0.45594000000E+02  0.51100000000E-03 0. -1.
         23    2    1    2    0    0  0.00000000000E+00  0.00000000000E+00  0.00000000000E+00  0.91188000000E+02  0.91188000000E+02 0.  0.
    9900012    2    3    3    0    0 -0.21222948298E+02 -0.22143579075E+02  0.20372235974E+02  0.54367087093E+02  0.40000006647E+02 0.  0.
         12    1    3    3    0    0  0.21222948298E+02  0.22143579075E+02 -0.20372235974E+02  0.36820912907E+02  0.00000000000E+00 0. -1.
         11    1    4    4    0    0 -0.84485545865E+01 -0.10152587669E+02  0.12558389426E+02  0.18225428834E+02  0.51100000000E-03 0.  1.
        -11    1    4    4    0    0  0.53628630188E+01 -0.18631556736E+01 -0.81572519398E+01  0.99384308768E+01  0.51100000000E-03 0. -1.
         12    1    4    4    0    0 -0.18137256730E+02 -0.10127835733E+02  0.15971098488E+02  0.26203227382E+02  0.00000000000E+00 0. -1.
</event>
<event>
 8    1  0.3186330E-007  0.9118800E+02  0.7816164E-02  0.1184000E+00
        -11   -1    0    0    0    0  0.00000000000E+00  0.00000000000E+00  0.45593999997E+02  0.45594000000E+02  0.51100000000E-03 0. -1.
         11   -1    0    0    0    0 -0.00000000000E+00 -0.00000000000E+00 -0.45593999997E+02  0.45594000000E+02  0.51100000000E-03 0.  1.
         23    2    1    2    0    0 -0.17763568394E-14  0.00000000000E+00  0.00000000000E+00  0.91188000000E+02  0.91188000000E+02 0.  0.
    9900012    2    3    3    0    0  0.84164224033E+01  0.15559252561E+02 -0.32293182005E+02  0.54367134851E+02  0.40000115520E+02 0.  0.
         12    1    3    3    0    0 -0.84164224033E+01 -0.15559252561E+02  0.32293182005E+02  0.36820865149E+02  0.00000000000E+00 0. -1.
         11    1    4    4    0    0 -0.55618883769E+01  0.53734448886E+01 -0.15640032231E+02  0.17447610746E+02  0.51100000000E-03 0. -1.
        -11    1    4    4    0    0 -0.85738512817E+01  0.24152926182E+01 -0.28098663959E+01  0.93402309210E+01  0.51100000000E-03 0.  1.
        -12    1    4    4    0    0  0.22552162062E+02  0.77705150539E+01 -0.13843283378E+02  0.27579293185E+02  0.00000000000E+00 0.  1.
</event>
<event>
 8    1  0.3186330E-007  0.9118800E+02  0.7816164E-02  0.1184000E+00
        -11   -1    0    0    0    0  0.00000000000E+00  0.00000000000E+00  0.45593999997E+02  0.45594000000E+02  0.51100000000E-03 0.  1.
         11   -1    0    0    0    0 -0.00000000000E+00 -0.00000000000E+00 -0.45593999997E+02  0.45594000000E+02  0.51100000000E-03 0. -1.
         23    2    1    2    0    0  0.35527136788E-14  0.00000000000E+00  0.88817841970E-15  0.91188000000E+02  0.91188000000E+02 0.  0.
    9900012    2    3    3    0    0  0.21994576287E+02  0.29252208090E+02  0.40411515498E+01  0.54367028122E+02  0.39999872210E+02 0.  0.
         12    1    3    3    0    0 -0.21994576287E+02 -0.29252208090E+02 -0.40411515498E+01  0.36820971878E+02  0.00000000000E+00 0. -1.
         11    1    4    4    0    0  0.15428498702E+02  0.13353894050E+02 -0.12941875859E+02  0.24163137410E+02  0.51100000000E-03 0. -1.
        -11    1    4    4    0    0 -0.34414093950E+01  0.17320485514E-01  0.93088346112E+01  0.99246158970E+01  0.51100000000E-03 0.  1.
        -12    1    4    4    0    0  0.10007486980E+02  0.15880993554E+02  0.76741927976E+01  0.20279274815E+02  0.00000000000E+00 0.  1.
</event>
<event>
 8    1  0.3186330E-007  0.9118800E+02  0.7816164E-02  0.1184000E+00
        -11   -1    0    0    0    0  0.00000000000E+00  0.00000000000E+00  0.45593999997E+02  0.45594000000E+02  0.51100000000E-03 0.  1.
         11   -1    0    0    0    0 -0.00000000000E+00 -0.00000000000E+00 -0.45593999997E+02  0.45594000000E+02  0.51100000000E-03 0. -1.
         23    2    1    2    0    0  0.55511151231E-16 -0.17763568394E-14  0.71054273576E-14  0.91188000000E+02  0.91188000000E+02 0.  0.
    9900012    2    3    3    0    0 -0.17518138019E+00  0.14537165247E+02 -0.33829279965E+02  0.54367081423E+02  0.39999993720E+02 0.  0.
        -12    1    3    3    0    0  0.17518138019E+00 -0.14537165247E+02  0.33829279965E+02  0.36820918577E+02  0.00000000000E+00 0.  1.
         11    1    4    4    0    0  0.18997433484E+01 -0.11237488851E+02 -0.17930306669E+02  0.21245848488E+02  0.51100000000E-03 0.  1.
        -11    1    4    4    0    0  0.20321692117E+01  0.13457680736E+02 -0.14776072953E+02  0.20089081977E+02  0.51100000000E-03 0. -1.
        -12    1    4    4    0    0 -0.41070939402E+01  0.12316973361E+02 -0.11229003428E+01  0.13032150958E+02  0.00000000000E+00 0.  1.
</event>
<event>
 8    1  0.3186330E-007  0.9118800E+02  0.7816164E-02  0.1184000E+00
        -11   -1    0    0    0    0  0.00000000000E+00  0.00000000000E+00  0.45593999997E+02  0.45594000000E+02  0.51100000000E-03 0.  1.
         11   -1    0    0    0    0 -0.00000000000E+00 -0.00000000000E+00 -0.45593999997E+02  0.45594000000E+02  0.51100000000E-03 0. -1.
         23    2    1    2    0    0 -0.17763568394E-14  0.00000000000E+00  0.00000000000E+00  0.91188000000E+02  0.91188000000E+02 0.  0.
    9900012    2    3    3    0    0  0.11586172469E+02 -0.33480869511E+02  0.10028614142E+02  0.54367066860E+02  0.39999960520E+02 0.  0.
         12    1    3    3    0    0 -0.11586172469E+02  0.33480869511E+02 -0.10028614142E+02  0.36820933140E+02  0.00000000000E+00 0. -1.
         11    1    4    4    0    0  0.11741538075E+02 -0.78131305235E+01 -0.86987303861E+01  0.16570354116E+02  0.51100000000E-03 0. -1.
        -11    1    4    4    0    0  0.78559698334E+01 -0.23100954365E+02  0.14472855170E+02  0.28369594492E+02  0.51100000000E-03 0.  1.
         12    1    4    4    0    0 -0.80113354400E+01 -0.25667846228E+01  0.42544893580E+01  0.94271182516E+01  0.00000000000E+00 0. -1.
</event>
<event>
 8    1  0.3186330E-007  0.9118800E+02  0.7816164E-02  0.1184000E+00
        -11   -1    0    0    0    0  0.00000000000E+00  0.00000000000E+00  0.45593999997E+02  0.45594000000E+02  0.51100000000E-03 0. -1.
         11   -1    0    0    0    0 -0.00000000000E+00 -0.00000000000E+00 -0.45593999997E+02  0.45594000000E+02  0.51100000000E-03 0.  1.
         23    2    1    2    0    0 -0.35527136788E-14  0.00000000000E+00  0.00000000000E+00  0.91188000000E+02  0.91188000000E+02 0.  0.
    9900012    2    3    3    0    0  0.18790436722E+02  0.26449164604E+02 -0.17410939864E+02  0.54367086820E+02  0.40000006024E+02 0.  0.
         12    1    3    3    0    0 -0.18790436722E+02 -0.26449164604E+02  0.17410939864E+02  0.36820913180E+02  0.00000000000E+00 0. -1.
         11    1    4    4    0    0  0.10313115941E+01  0.30207629227E+02 -0.27073854715E+01  0.30346241999E+02  0.51100000000E-03 0. -1.
        -11    1    4    4    0    0  0.81846089062E+01  0.10497844304E+01 -0.70603949320E+01  0.10859974547E+02  0.51100000000E-03 0.  1.
         12    1    4    4    0    0  0.95745162218E+01 -0.48082490537E+01 -0.76431594606E+01  0.13160870275E+02  0.00000000000E+00 0. -1.
</event>
<event>
 8    1  0.3186330E-007  0.9118800E+02  0.7816164E-02  0.1184000E+00
        -11   -1    0    0    0    0  0.00000000000E+00  0.00000000000E+00  0.45593999997E+02  0.45594000000E+02  0.51100000000E-03 0.  1.
         11   -1    0    0    0    0 -0.00000000000E+00 -0.00000000000E+00 -0.45593999997E+02  0.45594000000E+02  0.51100000000E-03 0. -1.
         23    2    1    2    0    0 -0.71054273576E-14  0.17763568394E-14  0.00000000000E+00  0.91188000000E+02  0.91188000000E+02 0.  0.
    9900012    2    3    3    0    0  0.31354518056E+02 -0.12043614236E+02 -0.15087338194E+02  0.54367051884E+02  0.39999926380E+02 0.  0.
        -12    1    3    3    0    0 -0.31354518056E+02  0.12043614236E+02  0.15087338194E+02  0.36820948116E+02  0.00000000000E+00 0.  1.
         11    1    4    4    0    0  0.10888915740E+02  0.62228109094E+00 -0.67126531536E+01  0.12806850994E+02  0.51100000000E-03 0.  1.
        -11    1    4    4    0    0  0.26516700263E+02 -0.12578567976E+02  0.21416623224E+01  0.29426900668E+02  0.51100000000E-03 0. -1.
        -12    1    4    4    0    0 -0.60510979470E+01 -0.87327350982E-01 -0.10516347363E+02  0.12133300222E+02  0.00000000000E+00 0.  1.
</event>
<event>
 8    1  0.3186330E-007  0.9118800E+02  0.7816164E-02  0.1184000E+00
        -11   -1    0    0    0    0  0.00000000000E+00  0.00000000000E+00  0.45593999997E+02  0.45594000000E+02  0.51100000000E-03 0. -1.
         11   -1    0    0    0    0 -0.00000000000E+00 -0.00000000000E+00 -0.45593999997E+02  0.45594000000E+02  0.51100000000E-03 0.  1.
         23    2    1    2    0    0  0.00000000000E+00  0.17763568394E-14  0.00000000000E+00  0.91188000000E+02  0.91188000000E+02 0.  0.
    9900012    2    3    3    0    0 -0.34022832557E+02  0.13992006054E+02 -0.15653787909E+01  0.54367085028E+02  0.40000001938E+02 0.  0.
        -12    1    3    3    0    0  0.34022832557E+02 -0.13992006054E+02  0.15653787909E+01  0.36820914972E+02  0.00000000000E+00 0.  1.
         11    1    4    4    0    0 -0.33498979196E+02  0.18227708252E+02  0.62044012058E+01  0.38638394763E+02  0.51100000000E-03 0. -1.
        -11    1    4    4    0    0 -0.50859511398E+01 -0.66638357332E+01 -0.37601806407E+01  0.91876310541E+01  0.51100000000E-03 0.  1.
        -12    1    4    4    0    0  0.45620977785E+01  0.24281335358E+01 -0.40095993559E+01  0.65410592111E+01  0.00000000000E+00 0.  1.
</event>
<event>
 8    1  0.3186330E-007  0.9118800E+02  0.7816164E-02  0.1184000E+00
        -11   -1    0    0    0    0  0.00000000000E+00  0.00000000000E+00  0.45593999997E+02  0.45594000000E+02  0.51100000000E-03 0. -1.
         11   -1    0    0    0    0 -0.00000000000E+00 -0.00000000000E+00 -0.45593999997E+02  0.45594000000E+02  0.51100000000E-03 0.  1.
         23    2    1    2    0    0  0.00000000000E+00 -0.35527136788E-14  0.35527136788E-14  0.91188000000E+02  0.91188000000E+02 0.  0.
    9900012    2    3    3    0    0  0.13916558642E+02  0.30716725460E+02 -0.14784836411E+02  0.54367092690E+02  0.40000019406E+02 0.  0.
         12    1    3    3    0    0 -0.13916558642E+02 -0.30716725460E+02  0.14784836411E+02  0.36820907310E+02  0.00000000000E+00 0. -1.
         11    1    4    4    0    0 -0.33188373338E+01  0.10514978752E+02  0.82195487864E+00  0.11056901442E+02  0.51100000000E-03 0.  1.
        -11    1    4    4    0    0 -0.71482932621E+01  0.14586499368E+01  0.23893941681E+01  0.76769108990E+01  0.51100000000E-03 0. -1.
        -12    1    4    4    0    0  0.24383689238E+02  0.18743096771E+02 -0.17996185458E+02  0.35633280349E+02  0.00000000000E+00 0.  1.
</event>
<event>
 8    1  0.3186330E-007  0.9118800E+02  0.7816164E-02  0.1184000E+00
        -11   -1    0    0    0    0  0.00000000000E+00  0.00000000000E+00  0.45593999997E+02  0.45594000000E+02  0.51100000000E-03 0.  1.
         11   -1    0    0    0    0 -0.00000000000E+00 -0.00000000000E+00 -0.45593999997E+02  0.45594000000E+02  0.51100000000E-03 0. -1.
         23    2    1    2    0    0  0.00000000000E+00  0.88817841970E-15 -0.35527136788E-14  0.91188000000E+02  0.91188000000E+02 0.  0.
    9900012    2    3    3    0    0  0.18147949205E+02  0.56532247698E+01 -0.31535241416E+02  0.54367102920E+02  0.40000042726E+02 0.  0.
        -12    1    3    3    0    0 -0.18147949205E+02 -0.56532247698E+01  0.31535241416E+02  0.36820897080E+02  0.00000000000E+00 0.  1.
         11    1    4    4    0    0  0.47484309695E+01  0.10409746061E+02  0.65716905039E+00  0.11460466009E+02  0.51100000000E-03 0.  1.
        -11    1    4    4    0    0  0.12490337697E+02 -0.78403256099E+01 -0.35409961676E+02  0.38358110323E+02  0.51100000000E-03 0. -1.
         12    1    4    4    0    0  0.90918053868E+00  0.30838043191E+01  0.32175512095E+01  0.45485265874E+01  0.00000000000E+00 0. -1.
</event>
<event>
 8    1  0.3186330E-007  0.9118800E+02  0.7816164E-02  0.1184000E+00
        -11   -1    0    0    0    0  0.00000000000E+00  0.00000000000E+00  0.45593999997E+02  0.45594000000E+02  0.51100000000E-03 0. -1.
         11   -1    0    0    0    0 -0.00000000000E+00 -0.00000000000E+00 -0.45593999997E+02  0.45594000000E+02  0.51100000000E-03 0.  1.
         23    2    1    2    0    0  0.00000000000E+00  0.00000000000E+00  0.00000000000E+00  0.91188000000E+02  0.91188000000E+02 0.  0.
    9900012    2    3    3    0    0  0.13029149269E+02  0.58277717251E+01  0.33941990685E+02  0.54367076796E+02  0.39999983172E+02 0.  0.
        -12    1    3    3    0    0 -0.13029149269E+02 -0.58277717251E+01 -0.33941990685E+02  0.36820923204E+02  0.00000000000E+00 0.  1.
         11    1    4    4    0    0  0.18394914395E+02 -0.11446960502E+02  0.87863245121E+01  0.23379591079E+02  0.51100000000E-03 0.  1.
        -11    1    4    4    0    0 -0.40991833387E+01  0.13815798858E+02  0.20057257290E+02  0.24697634955E+02  0.51100000000E-03 0. -1.
        -12    1    4    4    0    0 -0.12665817875E+01  0.34589333685E+01  0.50984088829E+01  0.62898507621E+01  0.00000000000E+00 0.  1.
</event>
<event>
 8    1  0.3186330E-007  0.9118800E+02  0.7816164E-02  0.1184000E+00
        -11   -1    0    0    0    0  0.00000000000E+00  0.00000000000E+00  0.45593999997E+02  0.45594000000E+02  0.51100000000E-03 0.  1.
         11   -1    0    0    0    0 -0.00000000000E+00 -0.00000000000E+00 -0.45593999997E+02  0.45594000000E+02  0.51100000000E-03 0. -1.
         23    2    1    2    0    0  0.00000000000E+00  0.35527136788E-14 -0.17763568394E-14  0.91188000000E+02  0.91188000000E+02 0.  0.
    9900012    2    3    3    0    0  0.24778432424E+02 -0.24764663231E+02  0.11336692526E+02  0.54367083991E+02  0.39999999573E+02 0.  0.
        -12    1    3    3    0    0 -0.24778432424E+02  0.24764663231E+02 -0.11336692526E+02  0.36820916009E+02  0.00000000000E+00 0.  1.
         11    1    4    4    0    0  0.23471225323E+02  0.23473523015E+01  0.21646489567E+01  0.23687426756E+02  0.51100000000E-03 0. -1.
        -11    1    4    4    0    0  0.29669300289E+01 -0.21826687389E+02  0.11285821129E+02  0.24750287170E+02  0.51100000000E-03 0.  1.
         12    1    4    4    0    0 -0.16597229278E+01 -0.52853281435E+01 -0.21137775597E+01  0.59293700638E+01  0.00000000000E+00 0. -1.
</event>
<event>
 8    1  0.3186330E-007  0.9118800E+02  0.7816164E-02  0.1184000E+00
        -11   -1    0    0    0    0  0.00000000000E+00  0.00000000000E+00  0.45593999997E+02  0.45594000000E+02  0.51100000000E-03 0.  1.
         11   -1    0    0    0    0 -0.00000000000E+00 -0.00000000000E+00 -0.45593999997E+02  0.45594000000E+02  0.51100000000E-03 0. -1.
         23    2    1    2    0    0  0.00000000000E+00  0.00000000000E+00  0.00000000000E+00  0.91188000000E+02  0.91188000000E+02 0.  0.
    9900012    2    3    3    0    0  0.32393425594E+02 -0.63515455547E+01 -0.16312735146E+02  0.54367061927E+02  0.39999949275E+02 0.  0.
        -12    1    3    3    0    0 -0.32393425594E+02  0.63515455547E+01  0.16312735146E+02  0.36820938073E+02  0.00000000000E+00 0.  1.
         11    1    4    4    0    0 -0.45657088614E+01 -0.40718555877E+01  0.20253058332E+01  0.64441888018E+01  0.51100000000E-03 0. -1.
        -11    1    4    4    0    0  0.13255518089E+02  0.37385154814E+01  0.44722423301E+01  0.14480545899E+02  0.51100000000E-03 0.  1.
        -12    1    4    4    0    0  0.23703616366E+02 -0.60182054483E+01 -0.22810283309E+02  0.33442327226E+02  0.00000000000E+00 0.  1.
</event>
<event>
 8    1  0.3186330E-007  0.9118800E+02  0.7816164E-02  0.1184000E+00
        -11   -1    0    0    0    0  0.00000000000E+00  0.00000000000E+00  0.45593999997E+02  0.45594000000E+02  0.51100000000E-03 0.  1.
         11   -1    0    0    0    0 -0.00000000000E+00 -0.00000000000E+00 -0.45593999997E+02  0.45594000000E+02  0.51100000000E-03 0. -1.
         23    2    1    2    0    0 -0.35527136788E-14  0.17763568394E-14  0.71054273576E-14  0.91188000000E+02  0.91188000000E+02 0.  0.
    9900012    2    3    3    0    0  0.22583379968E+02  0.13446003191E+02 -0.25787150149E+02  0.54367066207E+02  0.39999959032E+02 0.  0.
        -12    1    3    3    0    0 -0.22583379968E+02 -0.13446003191E+02  0.25787150149E+02  0.36820933793E+02  0.00000000000E+00 0.  1.
         11    1    4    4    0    0 -0.38214746346E+01 -0.59191013680E+01 -0.72258534413E+01  0.10092194390E+02  0.51100000000E-03 0.  1.
        -11    1    4    4    0    0  0.90852463516E+01  0.17208732147E+02 -0.18457964838E+02  0.26821234677E+02  0.51100000000E-03 0. -1.
         12    1    4    4    0    0  0.17319608251E+02  0.21563724114E+01 -0.10333187032E+00  0.17453637140E+02  0.00000000000E+00 0. -1.
</event>
<event>
 8    1  0.3186330E-007  0.9118800E+02  0.7816164E-02  0.1184000E+00
        -11   -1    0    0    0    0  0.00000000000E+00  0.00000000000E+00  0.45593999997E+02  0.45594000000E+02  0.51100000000E-03 0.  1.
         11   -1    0    0    0    0 -0.00000000000E+00 -0.00000000000E+00 -0.45593999997E+02  0.45594000000E+02  0.51100000000E-03 0. -1.
         23    2    1    2    0    0 -0.17763568394E-14  0.00000000000E+00 -0.35527136788E-14  0.91188000000E+02  0.91188000000E+02 0.  0.
    9900012    2    3    3    0    0 -0.12358134006E+02  0.25809434051E+02 -0.23171742329E+02  0.54367081968E+02  0.39999994962E+02 0.  0.
        -12    1    3    3    0    0  0.12358134006E+02 -0.25809434051E+02  0.23171742329E+02  0.36820918032E+02  0.00000000000E+00 0.  1.
         11    1    4    4    0    0  0.53773550031E+01  0.95619274184E+01 -0.19628299534E+02  0.22485918830E+02  0.51100000000E-03 0. -1.
        -11    1    4    4    0    0 -0.16891901260E+02  0.27335719597E+01  0.20441544971E+01  0.17233319811E+02  0.51100000000E-03 0.  1.
        -12    1    4    4    0    0 -0.84358774948E+00  0.13513934673E+02 -0.55875972928E+01  0.14647843327E+02  0.00000000000E+00 0.  1.
</event>
<event>
 8    1  0.3186330E-007  0.9118800E+02  0.7816164E-02  0.1184000E+00
        -11   -1    0    0    0    0  0.00000000000E+00  0.00000000000E+00  0.45593999997E+02  0.45594000000E+02  0.51100000000E-03 0. -1.
         11   -1    0    0    0    0 -0.00000000000E+00 -0.00000000000E+00 -0.45593999997E+02  0.45594000000E+02  0.51100000000E-03 0.  1.
         23    2    1    2    0    0 -0.71054273576E-14  0.66613381478E-15  0.00000000000E+00  0.91188000000E+02  0.91188000000E+02 0.  0.
    9900012    2    3    3    0    0  0.35369072887E+02  0.11126175586E+01  0.10176978762E+02  0.54367080247E+02  0.39999991040E+02 0.  0.
        -12    1    3    3    0    0 -0.35369072887E+02 -0.11126175586E+01 -0.10176978762E+02  0.36820919753E+02  0.00000000000E+00 0.  1.
         11    1    4    4    0    0  0.44000350056E+01 -0.10031121321E+02  0.57327683419E+01  0.12363184708E+02  0.51100000000E-03 0.  1.
        -11    1    4    4    0    0  0.29985334746E+02 -0.58273531552E+00  0.35936912488E+01  0.30205537527E+02  0.51100000000E-03 0. -1.
        -12    1    4    4    0    0  0.98370313540E+00  0.11726474195E+02  0.85051917126E+00  0.11798358012E+02  0.00000000000E+00 0.  1.
</event>
<event>
 8    1  0.3186330E-007  0.9118800E+02  0.7816164E-02  0.1184000E+00
        -11   -1    0    0    0    0  0.00000000000E+00  0.00000000000E+00  0.45593999997E+02  0.45594000000E+02  0.51100000000E-03 0.  1.
         11   -1    0    0    0    0 -0.00000000000E+00 -0.00000000000E+00 -0.45593999997E+02  0.45594000000E+02  0.51100000000E-03 0. -1.
         23    2    1    2    0    0  0.17763568394E-14 -0.71054273576E-14  0.00000000000E+00  0.91188000000E+02  0.91188000000E+02 0.  0.
    9900012    2    3    3    0    0  0.53096090874E+01  0.36294326714E+02 -0.32108775112E+01  0.54367084277E+02  0.40000000226E+02 0.  0.
        -12    1    3    3    0    0 -0.53096090874E+01 -0.36294326714E+02  0.32108775112E+01  0.36820915723E+02  0.00000000000E+00 0.  1.
         11    1    4    4    0    0  0.61828445969E+01  0.18677783257E+02 -0.33375921176E+00  0.19677361362E+02  0.51100000000E-03 0. -1.
        -11    1    4    4    0    0  0.13236814591E+02  0.15359034325E+02 -0.14036692268E+01  0.20324455305E+02  0.51100000000E-03 0.  1.
        -12    1    4    4    0    0 -0.14110050101E+02  0.22575091330E+01 -0.14734490726E+01  0.14365267610E+02  0.00000000000E+00 0.  1.
</event>
<event>
 8    1  0.3186330E-007  0.9118800E+02  0.7816164E-02  0.1184000E+00
        -11   -1    0    0    0    0  0.00000000000E+00  0.00000000000E+00  0.45593999997E+02  0.45594000000E+02  0.51100000000E-03 0.  1.
         11   -1    0    0    0    0 -0.00000000000E+00 -0.00000000000E+00 -0.45593999997E+02  0.45594000000E+02  0.51100000000E-03 0. -1.
         23    2    1    2    0    0 -0.71054273576E-14  0.00000000000E+00  0.00000000000E+00  0.91188000000E+02  0.91188000000E+02 0.  0.
    9900012    2    3    3    0    0 -0.36066487471E+02 -0.26328527707E+01 -0.69320559498E+01  0.54367125053E+02  0.40000093183E+02 0.  0.
        -12    1    3    3    0    0  0.36066487471E+02  0.26328527707E+01  0.69320559498E+01  0.36820874947E+02  0.00000000000E+00 0.  1.
         11    1    4    4    0    0 -0.10953466115E+02  0.14629576274E+01  0.74124841198E+01  0.13306524191E+02  0.51100000000E-03 0. -1.
        -11    1    4    4    0    0 -0.27699444682E+02  0.49455063746E+01 -0.66569013477E+01  0.28914211122E+02  0.51100000000E-03 0.  1.
        -12    1    4    4    0    0  0.25864233261E+01 -0.90413167726E+01 -0.76876387218E+01  0.12146389740E+02  0.00000000000E+00 0.  1.
</event>
<event>
 8    1  0.3186330E-007  0.9118800E+02  0.7816164E-02  0.1184000E+00
        -11   -1    0    0    0    0  0.00000000000E+00  0.00000000000E+00  0.45593999997E+02  0.45594000000E+02  0.51100000000E-03 0. -1.
         11   -1    0    0    0    0 -0.00000000000E+00 -0.00000000000E+00 -0.45593999997E+02  0.45594000000E+02  0.51100000000E-03 0.  1.
         23    2    1    2    0    0  0.00000000000E+00 -0.17763568394E-14  0.35527136788E-14  0.91188000000E+02  0.91188000000E+02 0.  0.
    9900012    2    3    3    0    0  0.21976486586E+02  0.14875690294E+02 -0.25525047933E+02  0.54367079366E+02  0.39999989030E+02 0.  0.
         12    1    3    3    0    0 -0.21976486586E+02 -0.14875690294E+02  0.25525047933E+02  0.36820920634E+02  0.00000000000E+00 0. -1.
         11    1    4    4    0    0  0.29083411803E+00  0.13978566375E+02 -0.12519484403E+02  0.18767588880E+02  0.51100000000E-03 0.  1.
        -11    1    4    4    0    0 -0.36320824720E+01 -0.53499648228E+01 -0.16230435713E-01  0.64664062954E+01  0.51100000000E-03 0. -1.
        -12    1    4    4    0    0  0.25317734940E+02  0.62470887411E+01 -0.12989333094E+02  0.29133084191E+02  0.00000000000E+00 0.  1.
</event>
<event>
 8    1  0.3186330E-007  0.9118800E+02  0.7816164E-02  0.1184000E+00
        -11   -1    0    0    0    0  0.00000000000E+00  0.00000000000E+00  0.45593999997E+02  0.45594000000E+02  0.51100000000E-03 0.  1.
         11   -1    0    0    0    0 -0.00000000000E+00 -0.00000000000E+00 -0.45593999997E+02  0.45594000000E+02  0.51100000000E-03 0. -1.
         23    2    1    2    0    0  0.35527136788E-14  0.35527136788E-14  0.00000000000E+00  0.91188000000E+02  0.91188000000E+02 0.  0.
    9900012    2    3    3    0    0 -0.19716954233E+02  0.21390149627E+02  0.22571730688E+02  0.54367084591E+02  0.40000000942E+02 0.  0.
         12    1    3    3    0    0  0.19716954233E+02 -0.21390149627E+02 -0.22571730688E+02  0.36820915409E+02  0.00000000000E+00 0. -1.
         11    1    4    4    0    0 -0.61636222065E+01  0.51596708021E+01  0.17911247167E+01  0.82353244929E+01  0.51100000000E-03 0. -1.
        -11    1    4    4    0    0 -0.23831113873E+02  0.18789036968E+02  0.13128243662E+02  0.33065097618E+02  0.51100000000E-03 0.  1.
         12    1    4    4    0    0  0.10277781846E+02 -0.25585581425E+01  0.76523623096E+01  0.13066662480E+02  0.00000000000E+00 0. -1.
</event>
<event>
 8    1  0.3186330E-007  0.9118800E+02  0.7816164E-02  0.1184000E+00
        -11   -1    0    0    0    0  0.00000000000E+00  0.00000000000E+00  0.45593999997E+02  0.45594000000E+02  0.51100000000E-03 0. -1.
         11   -1    0    0    0    0 -0.00000000000E+00 -0.00000000000E+00 -0.45593999997E+02  0.45594000000E+02  0.51100000000E-03 0.  1.
         23    2    1    2    0    0  0.00000000000E+00  0.00000000000E+00 -0.71054273576E-14  0.91188000000E+02  0.91188000000E+02 0.  0.
    9900012    2    3    3    0    0  0.12128083577E+02  0.86046405384E+01  0.33684557659E+02  0.54367086449E+02  0.40000005179E+02 0.  0.
        -12    1    3    3    0    0 -0.12128083577E+02 -0.86046405384E+01 -0.33684557659E+02  0.36820913551E+02  0.00000000000E+00 0.  1.
         11    1    4    4    0    0  0.74804131999E+01  0.67568667578E+01  0.47509074524E+01  0.11143740481E+02  0.51100000000E-03 0. -1.
        -11    1    4    4    0    0 -0.18683742256E+01 -0.52285373907E+01  0.32494929411E+02  0.32965874222E+02  0.51100000000E-03 0.  1.
        -12    1    4    4    0    0  0.65160446028E+01  0.70763111713E+01 -0.35612792051E+01  0.10257471747E+02  0.00000000000E+00 0.  1.
</event>
<event>
 8    1  0.3186330E-007  0.9118800E+02  0.7816164E-02  0.1184000E+00
        -11   -1    0    0    0    0  0.00000000000E+00  0.00000000000E+00  0.45593999997E+02  0.45594000000E+02  0.51100000000E-03 0.  1.
         11   -1    0    0    0    0 -0.00000000000E+00 -0.00000000000E+00 -0.45593999997E+02  0.45594000000E+02  0.51100000000E-03 0. -1.
         23    2    1    2    0    0  0.00000000000E+00  0.00000000000E+00  0.88817841970E-15  0.91188000000E+02  0.91188000000E+02 0.  0.
    9900012    2    3    3    0    0  0.89551682628E+01  0.35241100539E+02 -0.58008754638E+01  0.54367077117E+02  0.39999983903E+02 0.  0.
         12    1    3    3    0    0 -0.89551682628E+01 -0.35241100539E+02  0.58008754638E+01  0.36820922883E+02  0.00000000000E+00 0. -1.
         11    1    4    4    0    0  0.10502982519E+01  0.11161690361E+02 -0.43627581018E+00  0.11219482830E+02  0.51100000000E-03 0. -1.
        -11    1    4    4    0    0 -0.26691990696E+01  0.28629889939E+02  0.30112307825E+01  0.28911290747E+02  0.51100000000E-03 0.  1.
         12    1    4    4    0    0  0.10574069080E+02 -0.45504797607E+01 -0.83758304361E+01  0.14236303539E+02  0.00000000000E+00 0. -1.
</event>
<event>
 8    1  0.3186330E-007  0.9118800E+02  0.7816164E-02  0.1184000E+00
        -11   -1    0    0    0    0  0.00000000000E+00  0.00000000000E+00  0.45593999997E+02  0.45594000000E+02  0.51100000000E-03 0.  1.
         11   -1    0    0    0    0 -0.00000000000E+00 -0.00000000000E+00 -0.45593999997E+02  0.45594000000E+02  0.51100000000E-03 0. -1.
         23    2    1    2    0    0  0.00000000000E+00  0.00000000000E+00  0.00000000000E+00  0.91188000000E+02  0.91188000000E+02 0.  0.
    9900012    2    3    3    0    0  0.82978095643E+01  0.20766068610E+02  0.29252478964E+02  0.54366935721E+02  0.39999661562E+02 0.  0.
         12    1    3    3    0    0 -0.82978095643E+01 -0.20766068610E+02 -0.29252478964E+02  0.36821064279E+02  0.00000000000E+00 0. -1.
         11    1    4    4    0    0 -0.40397584682E+01 -0.83949504203E+01  0.79736628224E+01  0.12262713407E+02  0.51100000000E-03 0. -1.
        -11    1    4    4    0    0  0.15133778513E+01  0.20565242112E+02  0.59461556337E+01  0.21461040579E+02  0.51100000000E-03 0.  1.
        -12    1    4    4    0    0  0.10824190181E+02  0.85957769184E+01  0.15332660508E+02  0.20643181735E+02  0.00000000000E+00 0.  1.
</event>
<event>
 8    1  0.3186330E-007  0.9118800E+02  0.7816164E-02  0.1184000E+00
        -11   -1    0    0    0    0  0.00000000000E+00  0.00000000000E+00  0.45593999997E+02  0.45594000000E+02  0.51100000000E-03 0.  1.
         11   -1    0    0    0    0 -0.00000000000E+00 -0.00000000000E+00 -0.45593999997E+02  0.45594000000E+02  0.51100000000E-03 0. -1.
         23    2    1    2    0    0  0.00000000000E+00  0.00000000000E+00 -0.35527136788E-14  0.91188000000E+02  0.91188000000E+02 0.  0.
    9900012    2    3    3    0    0  0.18676375419E+02  0.10276296337E+02 -0.30022858209E+02  0.54367064648E+02  0.39999955478E+02 0.  0.
        -12    1    3    3    0    0 -0.18676375419E+02 -0.10276296337E+02  0.30022858209E+02  0.36820935352E+02  0.00000000000E+00 0.  1.
         11    1    4    4    0    0 -0.41446651288E+01 -0.38795348382E+01 -0.17765410742E+01  0.59485408328E+01  0.51100000000E-03 0. -1.
        -11    1    4    4    0    0  0.13908033562E+02  0.48853705699E+01  0.26274687433E+01  0.14973437662E+02  0.51100000000E-03 0.  1.
         12    1    4    4    0    0  0.89130069858E+01  0.92704606057E+01 -0.30873785878E+02  0.33445086153E+02  0.00000000000E+00 0. -1.
</event>
<event>
 8    1  0.3186330E-007  0.9118800E+02  0.7816164E-02  0.1184000E+00
        -11   -1    0    0    0    0  0.00000000000E+00  0.00000000000E+00  0.45593999997E+02  0.45594000000E+02  0.51100000000E-03 0.  1.
         11   -1    0    0    0    0 -0.00000000000E+00 -0.00000000000E+00 -0.45593999997E+02  0.45594000000E+02  0.51100000000E-03 0. -1.
         23    2    1    2    0    0  0.00000000000E+00  0.11102230246E-14 -0.71054273576E-14  0.91188000000E+02  0.91188000000E+02 0.  0.
    9900012    2    3    3    0    0  0.19350282333E+02 -0.13357364744E+01 -0.31297936057E+02  0.54367103491E+02  0.40000044029E+02 0.  0.
        -12    1    3    3    0    0 -0.19350282333E+02  0.13357364744E+01  0.31297936057E+02  0.36820896509E+02  0.00000000000E+00 0.  1.
         11    1    4    4    0    0  0.77410060913E+01  0.73808963350E+01 -0.27738721821E+02  0.29729404544E+02  0.51100000000E-03 0. -1.
        -11    1    4    4    0    0  0.79603925268E+01 -0.13160475689E+02  0.32553225258E+01  0.15721421518E+02  0.51100000000E-03 0.  1.
         12    1    4    4    0    0  0.36488837147E+01  0.44438428801E+01 -0.68145367614E+01  0.89162774284E+01  0.00000000000E+00 0. -1.
</event>
<event>
 8    1  0.3186330E-007  0.9118800E+02  0.7816164E-02  0.1184000E+00
        -11   -1    0    0    0    0  0.00000000000E+00  0.00000000000E+00  0.45593999997E+02  0.45594000000E+02  0.51100000000E-03 0.  1.
         11   -1    0    0    0    0 -0.00000000000E+00 -0.00000000000E+00 -0.45593999997E+02  0.45594000000E+02  0.51100000000E-03 0. -1.
         23    2    1    2    0    0  0.00000000000E+00  0.26645352591E-14  0.00000000000E+00  0.91188000000E+02  0.91188000000E+02 0.  0.
    9900012    2    3    3    0    0  0.35877620010E+02 -0.50506304970E+01  0.65624002876E+01  0.54367114846E+02  0.40000069914E+02 0.  0.
        -12    1    3    3    0    0 -0.35877620010E+02  0.50506304970E+01 -0.65624002876E+01  0.36820885154E+02  0.00000000000E+00 0.  1.
         11    1    4    4    0    0  0.12205125618E+02 -0.13778770649E+02 -0.32206453154E+01  0.18686684256E+02  0.51100000000E-03 0.  1.
        -11    1    4    4    0    0  0.10152084693E+02 -0.78617606703E+01  0.47862938306E+01  0.13703310306E+02  0.51100000000E-03 0. -1.
        -12    1    4    4    0    0  0.13520409699E+02  0.16589900822E+02  0.49967517725E+01  0.21977120285E+02  0.00000000000E+00 0.  1.
</event>
<event>
 8    1  0.3186330E-007  0.9118800E+02  0.7816164E-02  0.1184000E+00
        -11   -1    0    0    0    0  0.00000000000E+00  0.00000000000E+00  0.45593999997E+02  0.45594000000E+02  0.51100000000E-03 0.  1.
         11   -1    0    0    0    0 -0.00000000000E+00 -0.00000000000E+00 -0.45593999997E+02  0.45594000000E+02  0.51100000000E-03 0. -1.
         23    2    1    2    0    0 -0.71054273576E-14  0.88817841970E-15  0.35527136788E-14  0.91188000000E+02  0.91188000000E+02 0.  0.
    9900012    2    3    3    0    0 -0.33733650861E+02  0.73959432407E+01  0.12771905181E+02  0.54367072000E+02  0.39999972239E+02 0.  0.
         12    1    3    3    0    0  0.33733650861E+02 -0.73959432407E+01 -0.12771905181E+02  0.36820928000E+02  0.00000000000E+00 0. -1.
         11    1    4    4    0    0 -0.26435932795E+02  0.57227740021E+01  0.16707578689E+02  0.31792324089E+02  0.51100000000E-03 0.  1.
        -11    1    4    4    0    0  0.54480824019E+01 -0.23814640731E+01 -0.66567923756E+01  0.89255732579E+01  0.51100000000E-03 0. -1.
         12    1    4    4    0    0 -0.12745800467E+02  0.40546333118E+01  0.27211188669E+01  0.13649174654E+02  0.00000000000E+00 0. -1.
</event>
<event>
 8    1  0.3186330E-007  0.9118800E+02  0.7816164E-02  0.1184000E+00
        -11   -1    0    0    0    0  0.00000000000E+00  0.00000000000E+00  0.45593999997E+02  0.45594000000E+02  0.51100000000E-03 0. -1.
         11   -1    0    0    0    0 -0.00000000000E+00 -0.00000000000E+00 -0.45593999997E+02  0.45594000000E+02  0.51100000000E-03 0.  1.
         23    2    1    2    0    0  0.00000000000E+00 -0.17763568394E-14  0.00000000000E+00  0.91188000000E+02  0.91188000000E+02 0.  0.
    9900012    2    3    3    0    0 -0.11621223030E+02  0.11456496269E+02 -0.33007203603E+02  0.54367087176E+02  0.40000006835E+02 0.  0.
         12    1    3    3    0    0  0.11621223030E+02 -0.11456496269E+02  0.33007203603E+02  0.36820912824E+02  0.00000000000E+00 0. -1.
         11    1    4    4    0    0 -0.76954786670E+01  0.12340203465E+02 -0.23180520716E+01  0.14726655396E+02  0.51100000000E-03 0. -1.
        -11    1    4    4    0    0 -0.65586438518E+01  0.10900523943E+02 -0.18761412707E+02  0.22667770919E+02  0.51100000000E-03 0.  1.
         12    1    4    4    0    0  0.26328994883E+01 -0.11784231139E+02 -0.11927738824E+02  0.16972660861E+02  0.00000000000E+00 0. -1.
</event>
<event>
 8    1  0.3186330E-007  0.9118800E+02  0.7816164E-02  0.1184000E+00
        -11   -1    0    0    0    0  0.00000000000E+00  0.00000000000E+00  0.45593999997E+02  0.45594000000E+02  0.51100000000E-03 0. -1.
         11   -1    0    0    0    0 -0.00000000000E+00 -0.00000000000E+00 -0.45593999997E+02  0.45594000000E+02  0.51100000000E-03 0.  1.
         23    2    1    2    0    0  0.00000000000E+00  0.00000000000E+00  0.00000000000E+00  0.91188000000E+02  0.91188000000E+02 0.  0.
    9900012    2    3    3    0    0  0.19639881223E+02 -0.25869745176E+02  0.17343952419E+02  0.54367063898E+02  0.39999953768E+02 0.  0.
        -12    1    3    3    0    0 -0.19639881223E+02  0.25869745176E+02 -0.17343952419E+02  0.36820936102E+02  0.00000000000E+00 0.  1.
         11    1    4    4    0    0  0.68488422314E+00  0.14621050943E+00  0.42538594558E+00  0.81938841583E+00  0.51100000000E-03 0. -1.
        -11    1    4    4    0    0  0.28329310133E+02 -0.17928136491E+02  0.12113665582E+01  0.33547508102E+02  0.51100000000E-03 0.  1.
         12    1    4    4    0    0 -0.93743131331E+01 -0.80878191937E+01  0.15707199916E+02  0.20000167380E+02  0.00000000000E+00 0. -1.
</event>
<event>
 8    1  0.3186330E-007  0.9118800E+02  0.7816164E-02  0.1184000E+00
        -11   -1    0    0    0    0  0.00000000000E+00  0.00000000000E+00  0.45593999997E+02  0.45594000000E+02  0.51100000000E-03 0. -1.
         11   -1    0    0    0    0 -0.00000000000E+00 -0.00000000000E+00 -0.45593999997E+02  0.45594000000E+02  0.51100000000E-03 0.  1.
         23    2    1    2    0    0 -0.17763568394E-14  0.35527136788E-14  0.00000000000E+00  0.91188000000E+02  0.91188000000E+02 0.  0.
    9900012    2    3    3    0    0 -0.11332687449E+02  0.28295260228E+02 -0.20657349208E+02  0.54367114181E+02  0.40000068399E+02 0.  0.
         12    1    3    3    0    0  0.11332687449E+02 -0.28295260228E+02  0.20657349208E+02  0.36820885819E+02  0.00000000000E+00 0. -1.
         11    1    4    4    0    0 -0.65578099283E+01  0.18489043229E+02 -0.11136162009E+02  0.22558007340E+02  0.51100000000E-03 0. -1.
        -11    1    4    4    0    0 -0.14562297540E+02  0.16431629545E+01  0.17965927755E+01  0.14764424812E+02  0.51100000000E-03 0.  1.
        -12    1    4    4    0    0  0.97874200194E+01  0.81630540441E+01 -0.11317779975E+02  0.17044682030E+02  0.00000000000E+00 0.  1.
</event>
<event>
 8    1  0.3186330E-007  0.9118800E+02  0.7816164E-02  0.1184000E+00
        -11   -1    0    0    0    0  0.00000000000E+00  0.00000000000E+00  0.45593999997E+02  0.45594000000E+02  0.51100000000E-03 0. -1.
         11   -1    0    0    0    0 -0.00000000000E+00 -0.00000000000E+00 -0.45593999997E+02  0.45594000000E+02  0.51100000000E-03 0.  1.
         23    2    1    2    0    0  0.17763568394E-14  0.00000000000E+00 -0.71054273576E-14  0.91188000000E+02  0.91188000000E+02 0.  0.
    9900012    2    3    3    0    0 -0.59343805241E+01 -0.16693981421E+02 -0.32278072601E+02  0.54367083951E+02  0.39999999483E+02 0.  0.
         12    1    3    3    0    0  0.59343805241E+01  0.16693981421E+02  0.32278072601E+02  0.36820916049E+02  0.00000000000E+00 0. -1.
         11    1    4    4    0    0 -0.12906790553E+02 -0.92428118027E+01 -0.10509361899E+02  0.19038421683E+02  0.51100000000E-03 0. -1.
        -11    1    4    4    0    0 -0.48555070605E+00 -0.77965207565E+01 -0.25721040023E+02  0.26881097365E+02  0.51100000000E-03 0.  1.
         12    1    4    4    0    0  0.74579607345E+01  0.34535113819E+00  0.39523293219E+01  0.84475649033E+01  0.00000000000E+00 0. -1.
</event>
<event>
 8    1  0.3186330E-007  0.9118800E+02  0.7816164E-02  0.1184000E+00
        -11   -1    0    0    0    0  0.00000000000E+00  0.00000000000E+00  0.45593999997E+02  0.45594000000E+02  0.51100000000E-03 0. -1.
         11   -1    0    0    0    0 -0.00000000000E+00 -0.00000000000E+00 -0.45593999997E+02  0.45594000000E+02  0.51100000000E-03 0.  1.
         23    2    1    2    0    0  0.00000000000E+00 -0.88817841970E-15  0.00000000000E+00  0.91188000000E+02  0.91188000000E+02 0.  0.
    9900012    2    3    3    0    0 -0.91802545266E+01  0.68709271660E+01 -0.34989911273E+02  0.54367073827E+02  0.39999976404E+02 0.  0.
         12    1    3    3    0    0  0.91802545266E+01 -0.68709271660E+01  0.34989911273E+02  0.36820926173E+02  0.00000000000E+00 0. -1.
         11    1    4    4    0    0 -0.70543473713E+01 -0.43007439097E+01 -0.35529035874E+01  0.89935165077E+01  0.51100000000E-03 0. -1.
        -11    1    4    4    0    0  0.86825973035E+01  0.37995532975E-01 -0.28221177978E+02  0.29526662973E+02  0.51100000000E-03 0.  1.
        -12    1    4    4    0    0 -0.10808504459E+02  0.11133675543E+02 -0.32158297082E+01  0.15846894347E+02  0.00000000000E+00 0.  1.
</event>
<event>
 8    1  0.3186330E-007  0.9118800E+02  0.7816164E-02  0.1184000E+00
        -11   -1    0    0    0    0  0.00000000000E+00  0.00000000000E+00  0.45593999997E+02  0.45594000000E+02  0.51100000000E-03 0. -1.
         11   -1    0    0    0    0 -0.00000000000E+00 -0.00000000000E+00 -0.45593999997E+02  0.45594000000E+02  0.51100000000E-03 0.  1.
         23    2    1    2    0    0 -0.88817841970E-15 -0.71054273576E-14  0.22204460493E-15  0.91188000000E+02  0.91188000000E+02 0.  0.
    9900012    2    3    3    0    0 -0.71670713855E+01 -0.36097202783E+02 -0.11859773150E+01  0.54367061620E+02  0.39999948575E+02 0.  0.
         12    1    3    3    0    0  0.71670713855E+01  0.36097202783E+02  0.11859773150E+01  0.36820938380E+02  0.00000000000E+00 0. -1.
         11    1    4    4    0    0  0.12184357184E+02 -0.44548285252E+01  0.25216348925E+01  0.13216001663E+02  0.51100000000E-03 0. -1.
        -11    1    4    4    0    0 -0.48724517036E+01 -0.16200372303E+02 -0.92339930509E+01  0.19273284003E+02  0.51100000000E-03 0.  1.
         12    1    4    4    0    0 -0.14478976866E+02 -0.15442001955E+02  0.55263808433E+01  0.21877775954E+02  0.00000000000E+00 0. -1.
</event>
<event>
 8    1  0.3186330E-007  0.9118800E+02  0.7816164E-02  0.1184000E+00
        -11   -1    0    0    0    0  0.00000000000E+00  0.00000000000E+00  0.45593999997E+02  0.45594000000E+02  0.51100000000E-03 0.  1.
         11   -1    0    0    0    0 -0.00000000000E+00 -0.00000000000E+00 -0.45593999997E+02  0.45594000000E+02  0.51100000000E-03 0. -1.
         23    2    1    2    0    0  0.00000000000E+00 -0.88817841970E-15  0.00000000000E+00  0.91188000000E+02  0.91188000000E+02 0.  0.
    9900012    2    3    3    0    0  0.36488255534E+02 -0.13571208279E+01  0.47479475282E+01  0.54367114967E+02  0.40000070190E+02 0.  0.
         12    1    3    3    0    0 -0.36488255534E+02  0.13571208279E+01 -0.47479475282E+01  0.36820885033E+02  0.00000000000E+00 0. -1.
         11    1    4    4    0    0  0.29931073794E+01 -0.11693777075E+02 -0.40178093033E+01  0.12721867234E+02  0.51100000000E-03 0. -1.
        -11    1    4    4    0    0  0.18950986994E+02  0.16254225657E+02  0.44414147476E+01  0.25358744546E+02  0.51100000000E-03 0.  1.
        -12    1    4    4    0    0  0.14544161161E+02 -0.59175694097E+01  0.43243420839E+01  0.16286503187E+02  0.00000000000E+00 0.  1.
</event>
<event>
 8    1  0.3186330E-007  0.9118800E+02  0.7816164E-02  0.1184000E+00
        -11   -1    0    0    0    0  0.00000000000E+00  0.00000000000E+00  0.45593999997E+02  0.45594000000E+02  0.51100000000E-03 0. -1.
         11   -1    0    0    0    0 -0.00000000000E+00 -0.00000000000E+00 -0.45593999997E+02  0.45594000000E+02  0.51100000000E-03 0.  1.
         23    2    1    2    0    0  0.35527136788E-14  0.00000000000E+00  0.00000000000E+00  0.91188000000E+02  0.91188000000E+02 0.  0.
    9900012    2    3    3    0    0  0.30969913607E+02  0.90135909935E+01 -0.17759488305E+02  0.54367084798E+02  0.40000001415E+02 0.  0.
        -12    1    3    3    0    0 -0.30969913607E+02 -0.90135909935E+01  0.17759488305E+02  0.36820915202E+02  0.00000000000E+00 0.  1.
         11    1    4    4    0    0  0.79251002415E+01  0.57569722635E+01 -0.75711840500E+01  0.12380338108E+02  0.51100000000E-03 0. -1.
        -11    1    4    4    0    0  0.18909873431E+02  0.50611639163E+01 -0.21937236029E+02  0.29401377828E+02  0.51100000000E-03 0.  1.
        -12    1    4    4    0    0  0.41349399347E+01 -0.18045451863E+01  0.11748931773E+02  0.12585368863E+02  0.00000000000E+00 0.  1.
</event>
<event>
 8    1  0.3186330E-007  0.9118800E+02  0.7816164E-02  0.1184000E+00
        -11   -1    0    0    0    0  0.00000000000E+00  0.00000000000E+00  0.45593999997E+02  0.45594000000E+02  0.51100000000E-03 0.  1.
         11   -1    0    0    0    0 -0.00000000000E+00 -0.00000000000E+00 -0.45593999997E+02  0.45594000000E+02  0.51100000000E-03 0. -1.
         23    2    1    2    0    0 -0.44408920985E-15 -0.71054273576E-14  0.44408920985E-15  0.91188000000E+02  0.91188000000E+02 0.  0.
    9900012    2    3    3    0    0 -0.35016154138E+01  0.36519167309E+02  0.31414206942E+01  0.54367089970E+02  0.40000013205E+02 0.  0.
         12    1    3    3    0    0  0.35016154138E+01 -0.36519167309E+02 -0.31414206942E+01  0.36820910030E+02  0.00000000000E+00 0. -1.
         11    1    4    4    0    0 -0.17232455863E+02  0.69308165065E+01  0.52231797054E+01  0.19294438551E+02  0.51100000000E-03 0. -1.
        -11    1    4    4    0    0  0.58742115231E+01  0.95291976152E+01  0.51855266858E+01  0.12337003505E+02  0.51100000000E-03 0.  1.
        -12    1    4    4    0    0  0.78566289258E+01  0.20059153187E+02 -0.72672856970E+01  0.22735647914E+02  0.00000000000E+00 0.  1.
</event>
<event>
 8    1  0.3186330E-007  0.9118800E+02  0.7816164E-02  0.1184000E+00
        -11   -1    0    0    0    0  0.00000000000E+00  0.00000000000E+00  0.45593999997E+02  0.45594000000E+02  0.51100000000E-03 0.  1.
         11   -1    0    0    0    0 -0.00000000000E+00 -0.00000000000E+00 -0.45593999997E+02  0.45594000000E+02  0.51100000000E-03 0. -1.
         23    2    1    2    0    0  0.00000000000E+00  0.00000000000E+00  0.00000000000E+00  0.91188000000E+02  0.91188000000E+02 0.  0.
    9900012    2    3    3    0    0  0.91027565052E+01  0.28868937407E+02  0.20964353520E+02  0.54367084184E+02  0.40000000015E+02 0.  0.
         12    1    3    3    0    0 -0.91027565052E+01 -0.28868937407E+02 -0.20964353520E+02  0.36820915816E+02  0.00000000000E+00 0. -1.
         11    1    4    4    0    0 -0.14088384538E+02  0.16850706935E+02  0.89402737125E+01  0.23714075934E+02  0.51100000000E-03 0. -1.
        -11    1    4    4    0    0  0.11705959756E+02  0.11023852901E+02  0.10036305981E+02  0.18954742535E+02  0.51100000000E-03 0.  1.
         12    1    4    4    0    0  0.11485181287E+02  0.99437757158E+00  0.19877738263E+01  0.11698265715E+02  0.00000000000E+00 0. -1.
</event>
<event>
 8    1  0.3186330E-007  0.9118800E+02  0.7816164E-02  0.1184000E+00
        -11   -1    0    0    0    0  0.00000000000E+00  0.00000000000E+00  0.45593999997E+02  0.45594000000E+02  0.51100000000E-03 0. -1.
         11   -1    0    0    0    0 -0.00000000000E+00 -0.00000000000E+00 -0.45593999997E+02  0.45594000000E+02  0.51100000000E-03 0.  1.
         23    2    1    2    0    0  0.00000000000E+00  0.00000000000E+00  0.00000000000E+00  0.91188000000E+02  0.91188000000E+02 0.  0.
    9900012    2    3    3    0    0  0.26506693374E+02  0.18164107157E+02 -0.17978836551E+02  0.54367107205E+02  0.40000052496E+02 0.  0.
         12    1    3    3    0    0 -0.26506693374E+02 -0.18164107157E+02  0.17978836551E+02  0.36820892795E+02  0.00000000000E+00 0. -1.
         11    1    4    4    0    0  0.66273567655E+01 -0.20025630978E+01  0.82296159750E+00  0.69720429366E+01  0.51100000000E-03 0. -1.
        -11    1    4    4    0    0  0.27824791422E+01 -0.53714235350E+01 -0.15313523336E+02  0.16465065387E+02  0.51100000000E-03 0.  1.
         12    1    4    4    0    0  0.17096857467E+02  0.25538093790E+02 -0.34882748124E+01  0.30929998882E+02  0.00000000000E+00 0. -1.
</event>
<event>
 8    1  0.3186330E-007  0.9118800E+02  0.7816164E-02  0.1184000E+00
        -11   -1    0    0    0    0  0.00000000000E+00  0.00000000000E+00  0.45593999997E+02  0.45594000000E+02  0.51100000000E-03 0.  1.
         11   -1    0    0    0    0 -0.00000000000E+00 -0.00000000000E+00 -0.45593999997E+02  0.45594000000E+02  0.51100000000E-03 0. -1.
         23    2    1    2    0    0  0.00000000000E+00  0.17763568394E-14 -0.71054273576E-14  0.91188000000E+02  0.91188000000E+02 0.  0.
    9900012    2    3    3    0    0 -0.42806182280E+01 -0.14564615437E+02  0.33545908309E+02  0.54367086384E+02  0.40000005029E+02 0.  0.
         12    1    3    3    0    0  0.42806182280E+01  0.14564615437E+02 -0.33545908309E+02  0.36820913616E+02  0.00000000000E+00 0. -1.
         11    1    4    4    0    0  0.20233362293E+00 -0.16379425031E+02  0.21272982368E+02  0.26848953096E+02  0.51100000000E-03 0. -1.
        -11    1    4    4    0    0  0.71787277821E+01 -0.49981278265E+01  0.10850741875E+02  0.13937503859E+02  0.51100000000E-03 0.  1.
         12    1    4    4    0    0 -0.11661679633E+02  0.68129374203E+01  0.14221840663E+01  0.13580629429E+02  0.00000000000E+00 0. -1.
</event>
<event>
 8    1  0.3186330E-007  0.9118800E+02  0.7816164E-02  0.1184000E+00
        -11   -1    0    0    0    0  0.00000000000E+00  0.00000000000E+00  0.45593999997E+02  0.45594000000E+02  0.51100000000E-03 0.  1.
         11   -1    0    0    0    0 -0.00000000000E+00 -0.00000000000E+00 -0.45593999997E+02  0.45594000000E+02  0.51100000000E-03 0. -1.
         23    2    1    2    0    0 -0.88817841970E-15  0.00000000000E+00 -0.88817841970E-15  0.91188000000E+02  0.91188000000E+02 0.  0.
    9900012    2    3    3    0    0 -0.62804934901E+01 -0.36138061116E+02  0.32213092927E+01  0.54367069902E+02  0.39999967457E+02 0.  0.
         12    1    3    3    0    0  0.62804934901E+01  0.36138061116E+02 -0.32213092927E+01  0.36820930098E+02  0.00000000000E+00 0. -1.
         11    1    4    4    0    0  0.72554710294E+00 -0.30738189984E+02 -0.23541717848E+01  0.30836745404E+02  0.51100000000E-03 0.  1.
        -11    1    4    4    0    0  0.57922431590E+01  0.12614666264E+01  0.68347611635E+01  0.90473940605E+01  0.51100000000E-03 0. -1.
        -12    1    4    4    0    0 -0.12798283752E+02 -0.66613377586E+01 -0.12592800860E+01  0.14482930438E+02  0.00000000000E+00 0.  1.
</event>
<event>
 8    1  0.3186330E-007  0.9118800E+02  0.7816164E-02  0.1184000E+00
        -11   -1    0    0    0    0  0.00000000000E+00  0.00000000000E+00  0.45593999997E+02  0.45594000000E+02  0.51100000000E-03 0.  1.
         11   -1    0    0    0    0 -0.00000000000E+00 -0.00000000000E+00 -0.45593999997E+02  0.45594000000E+02  0.51100000000E-03 0. -1.
         23    2    1    2    0    0  0.00000000000E+00  0.35527136788E-14 -0.35527136788E-14  0.91188000000E+02  0.91188000000E+02 0.  0.
    9900012    2    3    3    0    0  0.21006324866E+02  0.16353633594E+02  0.25437635331E+02  0.54367077859E+02  0.39999985594E+02 0.  0.
         12    1    3    3    0    0 -0.21006324866E+02 -0.16353633594E+02 -0.25437635331E+02  0.36820922141E+02  0.00000000000E+00 0. -1.
         11    1    4    4    0    0  0.10812895901E+02 -0.48557131651E+01  0.16028159162E+02  0.19934857775E+02  0.51100000000E-03 0. -1.
        -11    1    4    4    0    0  0.70258334460E+01 -0.27161550259E+01  0.68166548823E+01  0.10159065793E+02  0.51100000000E-03 0.  1.
         12    1    4    4    0    0  0.31675955190E+01  0.23925501785E+02  0.25928212868E+01  0.24273154291E+02  0.00000000000E+00 0. -1.
</event>
<event>
 8    1  0.3186330E-007  0.9118800E+02  0.7816164E-02  0.1184000E+00
        -11   -1    0    0    0    0  0.00000000000E+00  0.00000000000E+00  0.45593999997E+02  0.45594000000E+02  0.51100000000E-03 0.  1.
         11   -1    0    0    0    0 -0.00000000000E+00 -0.00000000000E+00 -0.45593999997E+02  0.45594000000E+02  0.51100000000E-03 0. -1.
         23    2    1    2    0    0  0.00000000000E+00  0.00000000000E+00  0.00000000000E+00  0.91188000000E+02  0.91188000000E+02 0.  0.
    9900012    2    3    3    0    0  0.77229995525E+01  0.61788778100E+01 -0.35467685060E+02  0.54367082893E+02  0.39999997072E+02 0.  0.
        -12    1    3    3    0    0 -0.77229995525E+01 -0.61788778100E+01  0.35467685060E+02  0.36820917107E+02  0.00000000000E+00 0.  1.
         11    1    4    4    0    0  0.15915640323E+02  0.66898491070E+01 -0.99636071968E+01  0.19933267585E+02  0.51100000000E-03 0. -1.
        -11    1    4    4    0    0 -0.83649935201E+01  0.60578269819E+01 -0.26624392776E+01  0.10665784899E+02  0.51100000000E-03 0.  1.
         12    1    4    4    0    0  0.17235274968E+00 -0.65687982789E+01 -0.22841638586E+02  0.23768030410E+02  0.00000000000E+00 0. -1.
</event>
<event>
 8    1  0.3186330E-007  0.9118800E+02  0.7816164E-02  0.1184000E+00
        -11   -1    0    0    0    0  0.00000000000E+00  0.00000000000E+00  0.45593999997E+02  0.45594000000E+02  0.51100000000E-03 0.  1.
         11   -1    0    0    0    0 -0.00000000000E+00 -0.00000000000E+00 -0.45593999997E+02  0.45594000000E+02  0.51100000000E-03 0. -1.
         23    2    1    2    0    0  0.00000000000E+00  0.00000000000E+00 -0.88817841970E-15  0.91188000000E+02  0.91188000000E+02 0.  0.
    9900012    2    3    3    0    0  0.34923103476E+02  0.11179249849E+02  0.33437933764E+01  0.54367085594E+02  0.40000003229E+02 0.  0.
         12    1    3    3    0    0 -0.34923103476E+02 -0.11179249849E+02 -0.33437933764E+01  0.36820914406E+02  0.00000000000E+00 0. -1.
         11    1    4    4    0    0  0.34438846440E+01  0.82338212858E+00  0.48018193964E+01  0.59662190161E+01  0.51100000000E-03 0. -1.
        -11    1    4    4    0    0  0.19378853938E+02  0.22677993655E+02 -0.62512460396E+01  0.30478015904E+02  0.51100000000E-03 0.  1.
        -12    1    4    4    0    0  0.12100364894E+02 -0.12322125935E+02  0.47932200196E+01  0.17922850674E+02  0.00000000000E+00 0.  1.
</event>
<event>
 8    1  0.3186330E-007  0.9118800E+02  0.7816164E-02  0.1184000E+00
        -11   -1    0    0    0    0  0.00000000000E+00  0.00000000000E+00  0.45593999997E+02  0.45594000000E+02  0.51100000000E-03 0. -1.
         11   -1    0    0    0    0 -0.00000000000E+00 -0.00000000000E+00 -0.45593999997E+02  0.45594000000E+02  0.51100000000E-03 0.  1.
         23    2    1    2    0    0 -0.17763568394E-14  0.17763568394E-14  0.71054273576E-14  0.91188000000E+02  0.91188000000E+02 0.  0.
    9900012    2    3    3    0    0 -0.13816826268E+02  0.15836472266E+02  0.30233777343E+02  0.54367084281E+02  0.40000000235E+02 0.  0.
        -12    1    3    3    0    0  0.13816826268E+02 -0.15836472266E+02 -0.30233777343E+02  0.36820915719E+02  0.00000000000E+00 0.  1.
         11    1    4    4    0    0 -0.14309113357E+02  0.94621088546E+01 -0.42022981318E+01  0.17661866801E+02  0.51100000000E-03 0.  1.
        -11    1    4    4    0    0  0.18887395816E+01  0.46969784688E+01  0.34127472989E+02  0.34500918202E+02  0.51100000000E-03 0. -1.
         12    1    4    4    0    0 -0.13964524929E+01  0.16773849431E+01  0.30860248582E+00  0.22042992779E+01  0.00000000000E+00 0. -1.
</event>
<event>
 8    1  0.3186330E-007  0.9118800E+02  0.7816164E-02  0.1184000E+00
        -11   -1    0    0    0    0  0.00000000000E+00  0.00000000000E+00  0.45593999997E+02  0.45594000000E+02  0.51100000000E-03 0. -1.
         11   -1    0    0    0    0 -0.00000000000E+00 -0.00000000000E+00 -0.45593999997E+02  0.45594000000E+02  0.51100000000E-03 0.  1.
         23    2    1    2    0    0  0.00000000000E+00  0.00000000000E+00 -0.35527136788E-14  0.91188000000E+02  0.91188000000E+02 0.  0.
    9900012    2    3    3    0    0 -0.10306014136E+02 -0.20068392293E+02  0.29100261995E+02  0.54367088214E+02  0.40000009202E+02 0.  0.
        -12    1    3    3    0    0  0.10306014136E+02  0.20068392293E+02 -0.29100261995E+02  0.36820911786E+02  0.00000000000E+00 0.  1.
         11    1    4    4    0    0 -0.52599368206E+01 -0.15312754490E+01  0.30135100620E+02  0.30629006342E+02  0.51100000000E-03 0. -1.
        -11    1    4    4    0    0 -0.85647507810E+01 -0.18280525454E+02 -0.90022780847E+00  0.20207498044E+02  0.51100000000E-03 0.  1.
         12    1    4    4    0    0  0.35186734660E+01 -0.25659138967E+00 -0.13461081670E+00  0.35305838290E+01  0.00000000000E+00 0. -1.
</event>
<event>
 8    1  0.3186330E-007  0.9118800E+02  0.7816164E-02  0.1184000E+00
        -11   -1    0    0    0    0  0.00000000000E+00  0.00000000000E+00  0.45593999997E+02  0.45594000000E+02  0.51100000000E-03 0.  1.
         11   -1    0    0    0    0 -0.00000000000E+00 -0.00000000000E+00 -0.45593999997E+02  0.45594000000E+02  0.51100000000E-03 0. -1.
         23    2    1    2    0    0 -0.17763568394E-14  0.00000000000E+00 -0.17763568394E-14  0.91188000000E+02  0.91188000000E+02 0.  0.
    9900012    2    3    3    0    0  0.11082497536E+02  0.33669631813E+02 -0.99659400751E+01  0.54367003006E+02  0.39999814952E+02 0.  0.
        -12    1    3    3    0    0 -0.11082497536E+02 -0.33669631813E+02  0.99659400751E+01  0.36820996994E+02  0.00000000000E+00 0.  1.
         11    1    4    4    0    0 -0.74372018718E+01  0.23784355605E+02 -0.11933626492E+02  0.27630037726E+02  0.51100000000E-03 0. -1.
        -11    1    4    4    0    0  0.17839597593E+02  0.11396984360E+01  0.17617004160E+01  0.17962565056E+02  0.51100000000E-03 0.  1.
        -12    1    4    4    0    0  0.68010181527E+00  0.87455777717E+01  0.20598600094E+00  0.87744002230E+01  0.00000000000E+00 0.  1.
</event>
<event>
 8    1  0.3186330E-007  0.9118800E+02  0.7816164E-02  0.1184000E+00
        -11   -1    0    0    0    0  0.00000000000E+00  0.00000000000E+00  0.45593999997E+02  0.45594000000E+02  0.51100000000E-03 0.  1.
         11   -1    0    0    0    0 -0.00000000000E+00 -0.00000000000E+00 -0.45593999997E+02  0.45594000000E+02  0.51100000000E-03 0. -1.
         23    2    1    2    0    0 -0.44408920985E-15  0.00000000000E+00  0.35527136788E-14  0.91188000000E+02  0.91188000000E+02 0.  0.
    9900012    2    3    3    0    0 -0.20666583009E+01 -0.33148772026E+02 -0.15895569818E+02  0.54367064336E+02  0.39999954767E+02 0.  0.
        -12    1    3    3    0    0  0.20666583009E+01  0.33148772026E+02  0.15895569818E+02  0.36820935664E+02  0.00000000000E+00 0.  1.
         11    1    4    4    0    0  0.52799022793E+01 -0.92817657104E+01  0.55158708596E+01  0.12018875754E+02  0.51100000000E-03 0.  1.
        -11    1    4    4    0    0 -0.62430150069E+01 -0.17783939886E+02 -0.27716467181E+02  0.33517850580E+02  0.51100000000E-03 0. -1.
         12    1    4    4    0    0 -0.11035455733E+01 -0.60830664292E+01  0.63050265041E+01  0.88303380021E+01  0.00000000000E+00 0. -1.
</event>
<event>
 8    1  0.3186330E-007  0.9118800E+02  0.7816164E-02  0.1184000E+00
        -11   -1    0    0    0    0  0.00000000000E+00  0.00000000000E+00  0.45593999997E+02  0.45594000000E+02  0.51100000000E-03 0.  1.
         11   -1    0    0    0    0 -0.00000000000E+00 -0.00000000000E+00 -0.45593999997E+02  0.45594000000E+02  0.51100000000E-03 0. -1.
         23    2    1    2    0    0  0.35527136788E-14  0.44408920985E-15  0.35527136788E-14  0.91188000000E+02  0.91188000000E+02 0.  0.
    9900012    2    3    3    0    0  0.20718460805E+02 -0.37746981784E+01  0.30203922988E+02  0.54367083006E+02  0.39999997328E+02 0.  0.
         12    1    3    3    0    0 -0.20718460805E+02  0.37746981784E+01 -0.30203922988E+02  0.36820916994E+02  0.00000000000E+00 0. -1.
         11    1    4    4    0    0 -0.30229484491E+01 -0.61189699900E+01  0.10877698115E+02  0.12841507996E+02  0.51100000000E-03 0. -1.
        -11    1    4    4    0    0  0.23860840976E+01 -0.43525386809E+01 -0.59607435392E+01  0.77568327357E+01  0.51100000000E-03 0.  1.
        -12    1    4    4    0    0  0.21355325156E+02  0.66968104925E+01  0.25286968412E+02  0.33768742274E+02  0.00000000000E+00 0.  1.
</event>
<event>
 8    1  0.3186330E-007  0.9118800E+02  0.7816164E-02  0.1184000E+00
        -11   -1    0    0    0    0  0.00000000000E+00  0.00000000000E+00  0.45593999997E+02  0.45594000000E+02  0.51100000000E-03 0. -1.
         11   -1    0    0    0    0 -0.00000000000E+00 -0.00000000000E+00 -0.45593999997E+02  0.45594000000E+02  0.51100000000E-03 0.  1.
         23    2    1    2    0    0  0.00000000000E+00 -0.71054273576E-14  0.35527136788E-14  0.91188000000E+02  0.91188000000E+02 0.  0.
    9900012    2    3    3    0    0 -0.84051085307E+01  0.28346332594E+02 -0.21945831374E+02  0.54367082906E+02  0.39999997102E+02 0.  0.
         12    1    3    3    0    0  0.84051085307E+01 -0.28346332594E+02  0.21945831374E+02  0.36820917094E+02  0.00000000000E+00 0. -1.
         11    1    4    4    0    0 -0.12597041050E+02  0.74037413702E+01  0.35694321958E+01  0.15041332254E+02  0.51100000000E-03 0. -1.
        -11    1    4    4    0    0  0.82522456129E+01  0.20231577170E+02 -0.27185697682E+02  0.34878050851E+02  0.51100000000E-03 0.  1.
        -12    1    4    4    0    0 -0.40603130934E+01  0.71101405378E+00  0.16704341131E+01  0.44476998018E+01  0.00000000000E+00 0.  1.
</event>
<event>
 8    1  0.3186330E-007  0.9118800E+02  0.7816164E-02  0.1184000E+00
        -11   -1    0    0    0    0  0.00000000000E+00  0.00000000000E+00  0.45593999997E+02  0.45594000000E+02  0.51100000000E-03 0.  1.
         11   -1    0    0    0    0 -0.00000000000E+00 -0.00000000000E+00 -0.45593999997E+02  0.45594000000E+02  0.51100000000E-03 0. -1.
         23    2    1    2    0    0  0.35527136788E-14 -0.35527136788E-14  0.00000000000E+00  0.91188000000E+02  0.91188000000E+02 0.  0.
    9900012    2    3    3    0    0  0.19635394018E+02 -0.15523502059E+02 -0.27004631252E+02  0.54367110230E+02  0.40000059391E+02 0.  0.
        -12    1    3    3    0    0 -0.19635394018E+02  0.15523502059E+02  0.27004631252E+02  0.36820889770E+02  0.00000000000E+00 0.  1.
         11    1    4    4    0    0  0.19437900306E+02 -0.16296077575E+02 -0.24557052787E+02  0.35304999001E+02  0.51100000000E-03 0. -1.
        -11    1    4    4    0    0  0.88157104126E+00 -0.50271586397E+01  0.65694770076E+01  0.83191057154E+01  0.51100000000E-03 0.  1.
         12    1    4    4    0    0 -0.68407732999E+00  0.57997341555E+01 -0.90170554725E+01  0.10743005513E+02  0.00000000000E+00 0. -1.
</event>
<event>
 8    1  0.3186330E-007  0.9118800E+02  0.7816164E-02  0.1184000E+00
        -11   -1    0    0    0    0  0.00000000000E+00  0.00000000000E+00  0.45593999997E+02  0.45594000000E+02  0.51100000000E-03 0.  1.
         11   -1    0    0    0    0 -0.00000000000E+00 -0.00000000000E+00 -0.45593999997E+02  0.45594000000E+02  0.51100000000E-03 0. -1.
         23    2    1    2    0    0  0.00000000000E+00 -0.17763568394E-14 -0.17763568394E-14  0.91188000000E+02  0.91188000000E+02 0.  0.
    9900012    2    3    3    0    0 -0.31659994025E+02  0.10238023214E+02  0.15767283411E+02  0.54367087910E+02  0.40000008508E+02 0.  0.
        -12    1    3    3    0    0  0.31659994025E+02 -0.10238023214E+02 -0.15767283411E+02  0.36820912090E+02  0.00000000000E+00 0.  1.
         11    1    4    4    0    0 -0.26719946005E+01  0.15355581089E+01 -0.54347001224E+01  0.62476763306E+01  0.51100000000E-03 0. -1.
        -11    1    4    4    0    0  0.20000246243E+00 -0.83559911819E+01  0.87268192159E+01  0.12083872041E+02  0.51100000000E-03 0.  1.
         12    1    4    4    0    0 -0.29188001887E+02  0.17058456287E+02  0.12475164317E+02  0.36035539538E+02  0.00000000000E+00 0. -1.
</event>
<event>
 8    1  0.3186330E-007  0.9118800E+02  0.7816164E-02  0.1184000E+00
        -11   -1    0    0    0    0  0.00000000000E+00  0.00000000000E+00  0.45593999997E+02  0.45594000000E+02  0.51100000000E-03 0.  1.
         11   -1    0    0    0    0 -0.00000000000E+00 -0.00000000000E+00 -0.45593999997E+02  0.45594000000E+02  0.51100000000E-03 0. -1.
         23    2    1    2    0    0  0.00000000000E+00 -0.17763568394E-14  0.35527136788E-14  0.91188000000E+02  0.91188000000E+02 0.  0.
    9900012    2    3    3    0    0  0.22781705260E+02 -0.15582314089E+02 -0.24371407797E+02  0.54367080336E+02  0.39999991242E+02 0.  0.
        -12    1    3    3    0    0 -0.22781705260E+02  0.15582314089E+02  0.24371407797E+02  0.36820919664E+02  0.00000000000E+00 0.  1.
         11    1    4    4    0    0  0.25287899652E+02 -0.52799679431E+01 -0.41700117448E+00  0.25836598470E+02  0.51100000000E-03 0.  1.
        -11    1    4    4    0    0 -0.64752655534E+01 -0.91143418179E+01 -0.15454698282E+02  0.19074799868E+02  0.51100000000E-03 0. -1.
        -12    1    4    4    0    0  0.39690711618E+01 -0.11880043280E+01 -0.84997083403E+01  0.94556819977E+01  0.00000000000E+00 0.  1.
</event>
<event>
 8    1  0.3186330E-007  0.9118800E+02  0.7816164E-02  0.1184000E+00
        -11   -1    0    0    0    0  0.00000000000E+00  0.00000000000E+00  0.45593999997E+02  0.45594000000E+02  0.51100000000E-03 0. -1.
         11   -1    0    0    0    0 -0.00000000000E+00 -0.00000000000E+00 -0.45593999997E+02  0.45594000000E+02  0.51100000000E-03 0.  1.
         23    2    1    2    0    0 -0.71054273576E-14  0.00000000000E+00  0.00000000000E+00  0.91188000000E+02  0.91188000000E+02 0.  0.
    9900012    2    3    3    0    0 -0.20958402052E+02 -0.24344441371E+02 -0.17996477459E+02  0.54367086877E+02  0.40000006154E+02 0.  0.
        -12    1    3    3    0    0  0.20958402052E+02  0.24344441371E+02  0.17996477459E+02  0.36820913123E+02  0.00000000000E+00 0.  1.
         11    1    4    4    0    0 -0.10184976781E+02 -0.45695234568E+01 -0.24064057680E+00  0.11165670818E+02  0.51100000000E-03 0. -1.
        -11    1    4    4    0    0 -0.20138193242E+02 -0.48802023479E+01 -0.14545906667E+02  0.25316923253E+02  0.51100000000E-03 0.  1.
        -12    1    4    4    0    0  0.93647679706E+01 -0.14894715567E+02 -0.32099302148E+01  0.17884492806E+02  0.00000000000E+00 0.  1.
</event>
<event>
 8    1  0.3186330E-007  0.9118800E+02  0.7816164E-02  0.1184000E+00
        -11   -1    0    0    0    0  0.00000000000E+00  0.00000000000E+00  0.45593999997E+02  0.45594000000E+02  0.51100000000E-03 0.  1.
         11   -1    0    0    0    0 -0.00000000000E+00 -0.00000000000E+00 -0.45593999997E+02  0.45594000000E+02  0.51100000000E-03 0. -1.
         23    2    1    2    0    0 -0.35527136788E-14 -0.35527136788E-14  0.00000000000E+00  0.91188000000E+02  0.91188000000E+02 0.  0.
    9900012    2    3    3    0    0 -0.29893950881E+02  0.20484499127E+02  0.65204554077E+01  0.54367090960E+02  0.40000015463E+02 0.  0.
         12    1    3    3    0    0  0.29893950881E+02 -0.20484499127E+02 -0.65204554077E+01  0.36820909040E+02  0.00000000000E+00 0. -1.
         11    1    4    4    0    0 -0.45259254271E+01  0.26044435518E+02  0.11295562907E+01  0.26458883576E+02  0.51100000000E-03 0. -1.
        -11    1    4    4    0    0 -0.16155208442E+02 -0.13668451282E+01 -0.45481774094E+00  0.16219305930E+02  0.51100000000E-03 0.  1.
         12    1    4    4    0    0 -0.92128170122E+01 -0.41930912624E+01  0.58457168579E+01  0.11688901455E+02  0.00000000000E+00 0. -1.
</event>
<event>
 8    1  0.3186330E-007  0.9118800E+02  0.7816164E-02  0.1184000E+00
        -11   -1    0    0    0    0  0.00000000000E+00  0.00000000000E+00  0.45593999997E+02  0.45594000000E+02  0.51100000000E-03 0.  1.
         11   -1    0    0    0    0 -0.00000000000E+00 -0.00000000000E+00 -0.45593999997E+02  0.45594000000E+02  0.51100000000E-03 0. -1.
         23    2    1    2    0    0  0.00000000000E+00  0.00000000000E+00  0.00000000000E+00  0.91188000000E+02  0.91188000000E+02 0.  0.
    9900012    2    3    3    0    0 -0.14243368261E+02  0.92920860188E+01 -0.32658007556E+02  0.54367328367E+02  0.40000556674E+02 0.  0.
        -12    1    3    3    0    0  0.14243368261E+02 -0.92920860188E+01  0.32658007556E+02  0.36820671633E+02  0.00000000000E+00 0.  1.
         11    1    4    4    0    0 -0.22933167627E+01  0.76023425441E+01 -0.14762195691E+02  0.16762378585E+02  0.51100000000E-03 0. -1.
        -11    1    4    4    0    0  0.78999617972E+01  0.77181245885E+01 -0.11385493521E+02  0.15862165884E+02  0.51100000000E-03 0.  1.
         12    1    4    4    0    0 -0.19850013296E+02 -0.60283811138E+01 -0.65103183441E+01  0.21742783898E+02  0.00000000000E+00 0. -1.
</event>
<event>
 8    1  0.3186330E-007  0.9118800E+02  0.7816164E-02  0.1184000E+00
        -11   -1    0    0    0    0  0.00000000000E+00  0.00000000000E+00  0.45593999997E+02  0.45594000000E+02  0.51100000000E-03 0.  1.
         11   -1    0    0    0    0 -0.00000000000E+00 -0.00000000000E+00 -0.45593999997E+02  0.45594000000E+02  0.51100000000E-03 0. -1.
         23    2    1    2    0    0 -0.26645352591E-14 -0.26645352591E-14  0.00000000000E+00  0.91188000000E+02  0.91188000000E+02 0.  0.
    9900012    2    3    3    0    0 -0.65341757398E+01  0.55986552060E+01 -0.35801381717E+02  0.54367091191E+02  0.40000015988E+02 0.  0.
        -12    1    3    3    0    0  0.65341757398E+01 -0.55986552060E+01  0.35801381717E+02  0.36820908809E+02  0.00000000000E+00 0.  1.
         11    1    4    4    0    0  0.57230506069E+01  0.46462778669E+01 -0.14540482619E+01  0.75136850396E+01  0.51100000000E-03 0. -1.
        -11    1    4    4    0    0  0.74438410135E+01  0.48653307982E+01 -0.25637336365E+01  0.92549955824E+01  0.51100000000E-03 0.  1.
         12    1    4    4    0    0 -0.19701067360E+02 -0.39129534591E+01 -0.31783599818E+02  0.37598410569E+02  0.00000000000E+00 0. -1.
</event>
<event>
 8    1  0.3186330E-007  0.9118800E+02  0.7816164E-02  0.1184000E+00
        -11   -1    0    0    0    0  0.00000000000E+00  0.00000000000E+00  0.45593999997E+02  0.45594000000E+02  0.51100000000E-03 0.  1.
         11   -1    0    0    0    0 -0.00000000000E+00 -0.00000000000E+00 -0.45593999997E+02  0.45594000000E+02  0.51100000000E-03 0. -1.
         23    2    1    2    0    0  0.35527136788E-14  0.35527136788E-14  0.00000000000E+00  0.91188000000E+02  0.91188000000E+02 0.  0.
    9900012    2    3    3    0    0  0.17015182023E+02  0.31135489217E+02 -0.98408344079E+01  0.54367121006E+02  0.40000083957E+02 0.  0.
        -12    1    3    3    0    0 -0.17015182023E+02 -0.31135489217E+02  0.98408344079E+01  0.36820878994E+02  0.00000000000E+00 0.  1.
         11    1    4    4    0    0  0.15056708633E+02  0.64145424723E+01  0.16259847926E+01  0.16446721764E+02  0.51100000000E-03 0. -1.
        -11    1    4    4    0    0  0.94517802911E+01  0.15371696850E+02 -0.16937638540E+02  0.24748915416E+02  0.51100000000E-03 0.  1.
        -12    1    4    4    0    0 -0.74933069007E+01  0.93492498950E+01  0.54708193397E+01  0.13171483825E+02  0.00000000000E+00 0.  1.
</event>
<event>
 8    1  0.3186330E-007  0.9118800E+02  0.7816164E-02  0.1184000E+00
        -11   -1    0    0    0    0  0.00000000000E+00  0.00000000000E+00  0.45593999997E+02  0.45594000000E+02  0.51100000000E-03 0.  1.
         11   -1    0    0    0    0 -0.00000000000E+00 -0.00000000000E+00 -0.45593999997E+02  0.45594000000E+02  0.51100000000E-03 0. -1.
         23    2    1    2    0    0  0.17763568394E-14  0.00000000000E+00  0.00000000000E+00  0.91188000000E+02  0.91188000000E+02 0.  0.
    9900012    2    3    3    0    0  0.57237579217E+01  0.19652657861E+02 -0.30607046923E+02  0.54367086281E+02  0.40000004795E+02 0.  0.
        -12    1    3    3    0    0 -0.57237579217E+01 -0.19652657861E+02  0.30607046923E+02  0.36820913719E+02  0.00000000000E+00 0.  1.
         11    1    4    4    0    0 -0.89678453432E+01  0.11053337677E+02 -0.18228236591E+02  0.23127194672E+02  0.51100000000E-03 0. -1.
        -11    1    4    4    0    0  0.97131762958E+01  0.68083906056E+01 -0.19223628166E+02  0.22588666550E+02  0.51100000000E-03 0.  1.
        -12    1    4    4    0    0  0.49784269691E+01  0.17909295780E+01  0.68448178339E+01  0.86512250589E+01  0.00000000000E+00 0.  1.
</event>
<event>
 8    1  0.3186330E-007  0.9118800E+02  0.7816164E-02  0.1184000E+00
        -11   -1    0    0    0    0  0.00000000000E+00  0.00000000000E+00  0.45593999997E+02  0.45594000000E+02  0.51100000000E-03 0. -1.
         11   -1    0    0    0    0 -0.00000000000E+00 -0.00000000000E+00 -0.45593999997E+02  0.45594000000E+02  0.51100000000E-03 0.  1.
         23    2    1    2    0    0 -0.88817841970E-15  0.00000000000E+00  0.00000000000E+00  0.91188000000E+02  0.91188000000E+02 0.  0.
    9900012    2    3    3    0    0  0.44014918672E+01 -0.20782676223E+02  0.30074667796E+02  0.54367103695E+02  0.40000044494E+02 0.  0.
        -12    1    3    3    0    0 -0.44014918672E+01  0.20782676223E+02 -0.30074667796E+02  0.36820896305E+02  0.00000000000E+00 0.  1.
         11    1    4    4    0    0 -0.21451310251E+01 -0.19171257562E+01  0.91334231367E+01  0.95758225095E+01  0.51100000000E-03 0. -1.
        -11    1    4    4    0    0  0.15283721855E+02  0.28684076704E+01  0.45535182750E+01  0.16203531876E+02  0.51100000000E-03 0.  1.
        -12    1    4    4    0    0 -0.87370989626E+01 -0.21733958137E+02  0.16387726384E+02  0.28587749310E+02  0.00000000000E+00 0.  1.
</event>
<event>
 8    1  0.3186330E-007  0.9118800E+02  0.7816164E-02  0.1184000E+00
        -11   -1    0    0    0    0  0.00000000000E+00  0.00000000000E+00  0.45593999997E+02  0.45594000000E+02  0.51100000000E-03 0. -1.
         11   -1    0    0    0    0 -0.00000000000E+00 -0.00000000000E+00 -0.45593999997E+02  0.45594000000E+02  0.51100000000E-03 0.  1.
         23    2    1    2    0    0 -0.17763568394E-14 -0.17763568394E-14  0.00000000000E+00  0.91188000000E+02  0.91188000000E+02 0.  0.
    9900012    2    3    3    0    0 -0.58221525279E+01  0.15527717137E+02  0.32875099365E+02  0.54367087222E+02  0.40000006940E+02 0.  0.
        -12    1    3    3    0    0  0.58221525279E+01 -0.15527717137E+02 -0.32875099365E+02  0.36820912778E+02  0.00000000000E+00 0.  1.
         11    1    4    4    0    0  0.44659314311E+01  0.42426577432E+01  0.14882230547E+02  0.16106690367E+02  0.51100000000E-03 0. -1.
        -11    1    4    4    0    0 -0.19023667569E+02  0.15040837982E+02  0.13234708411E+02  0.27627599280E+02  0.51100000000E-03 0.  1.
        -12    1    4    4    0    0  0.87355836103E+01 -0.37557785877E+01  0.47581604067E+01  0.10632797575E+02  0.00000000000E+00 0.  1.
</event>
<event>
 8    1  0.3186330E-007  0.9118800E+02  0.7816164E-02  0.1184000E+00
        -11   -1    0    0    0    0  0.00000000000E+00  0.00000000000E+00  0.45593999997E+02  0.45594000000E+02  0.51100000000E-03 0.  1.
         11   -1    0    0    0    0 -0.00000000000E+00 -0.00000000000E+00 -0.45593999997E+02  0.45594000000E+02  0.51100000000E-03 0. -1.
         23    2    1    2    0    0  0.00000000000E+00  0.00000000000E+00  0.00000000000E+00  0.91188000000E+02  0.91188000000E+02 0.  0.
    9900012    2    3    3    0    0  0.16319133937E+02  0.30971729601E+02 -0.11411204126E+02  0.54367112632E+02  0.40000064868E+02 0.  0.
         12    1    3    3    0    0 -0.16319133937E+02 -0.30971729601E+02  0.11411204126E+02  0.36820887368E+02  0.00000000000E+00 0. -1.
         11    1    4    4    0    0 -0.75254901857E+01 -0.10645427342E+01 -0.10189876498E+02  0.12712192458E+02  0.51100000000E-03 0. -1.
        -11    1    4    4    0    0  0.32381173304E+01  0.12668102264E+02  0.18623520527E+01  0.13207368180E+02  0.51100000000E-03 0.  1.
         12    1    4    4    0    0  0.20606506792E+02  0.19368170071E+02 -0.30836796802E+01  0.28447551994E+02  0.00000000000E+00 0. -1.
</event>
<event>
 8    1  0.3186330E-007  0.9118800E+02  0.7816164E-02  0.1184000E+00
        -11   -1    0    0    0    0  0.00000000000E+00  0.00000000000E+00  0.45593999997E+02  0.45594000000E+02  0.51100000000E-03 0.  1.
         11   -1    0    0    0    0 -0.00000000000E+00 -0.00000000000E+00 -0.45593999997E+02  0.45594000000E+02  0.51100000000E-03 0. -1.
         23    2    1    2    0    0 -0.35527136788E-14  0.35527136788E-14  0.71054273576E-14  0.91188000000E+02  0.91188000000E+02 0.  0.
    9900012    2    3    3    0    0 -0.90776186551E+01 -0.26475002742E+02 -0.23925940753E+02  0.54367087850E+02  0.40000008372E+02 0.  0.
        -12    1    3    3    0    0  0.90776186551E+01  0.26475002742E+02  0.23925940753E+02  0.36820912150E+02  0.00000000000E+00 0.  1.
         11    1    4    4    0    0  0.10940270038E+01 -0.31504633897E+01  0.41616576903E+00  0.33608791802E+01  0.51100000000E-03 0. -1.
        -11    1    4    4    0    0  0.85903886024E+01 -0.29117432717E+01 -0.21255024123E+02  0.23109501854E+02  0.51100000000E-03 0.  1.
        -12    1    4    4    0    0 -0.18762034261E+02 -0.20412796080E+02 -0.30870823994E+01  0.27896706816E+02  0.00000000000E+00 0.  1.
</event>
<event>
 8    1  0.3186330E-007  0.9118800E+02  0.7816164E-02  0.1184000E+00
        -11   -1    0    0    0    0  0.00000000000E+00  0.00000000000E+00  0.45593999997E+02  0.45594000000E+02  0.51100000000E-03 0.  1.
         11   -1    0    0    0    0 -0.00000000000E+00 -0.00000000000E+00 -0.45593999997E+02  0.45594000000E+02  0.51100000000E-03 0. -1.
         23    2    1    2    0    0  0.00000000000E+00 -0.88817841970E-15  0.00000000000E+00  0.91188000000E+02  0.91188000000E+02 0.  0.
    9900012    2    3    3    0    0 -0.15856884002E+02  0.45691095029E+01 -0.32915969713E+02  0.54367101124E+02  0.40000038632E+02 0.  0.
        -12    1    3    3    0    0  0.15856884002E+02 -0.45691095029E+01  0.32915969713E+02  0.36820898876E+02  0.00000000000E+00 0.  1.
         11    1    4    4    0    0  0.32750236194E+01 -0.11240300748E+02 -0.19672980938E+02  0.22893150064E+02  0.51100000000E-03 0. -1.
        -11    1    4    4    0    0 -0.18559578027E+02  0.14088899340E+02 -0.15934418758E+02  0.28228721590E+02  0.51100000000E-03 0.  1.
         12    1    4    4    0    0 -0.57232959378E+00  0.17205109102E+01  0.26914299832E+01  0.32452294696E+01  0.00000000000E+00 0. -1.
</event>
<event>
 8    1  0.3186330E-007  0.9118800E+02  0.7816164E-02  0.1184000E+00
        -11   -1    0    0    0    0  0.00000000000E+00  0.00000000000E+00  0.45593999997E+02  0.45594000000E+02  0.51100000000E-03 0. -1.
         11   -1    0    0    0    0 -0.00000000000E+00 -0.00000000000E+00 -0.45593999997E+02  0.45594000000E+02  0.51100000000E-03 0.  1.
         23    2    1    2    0    0  0.00000000000E+00  0.00000000000E+00 -0.11102230246E-15  0.91188000000E+02  0.91188000000E+02 0.  0.
    9900012    2    3    3    0    0  0.34642457180E+02  0.12455963408E+02 -0.72704173958E+00  0.54367089452E+02  0.40000012024E+02 0.  0.
        -12    1    3    3    0    0 -0.34642457180E+02 -0.12455963408E+02  0.72704173958E+00  0.36820910548E+02  0.00000000000E+00 0.  1.
         11    1    4    4    0    0  0.99930946216E+01 -0.77848755072E+00 -0.81487096241E+01  0.12917795934E+02  0.51100000000E-03 0.  1.
        -11    1    4    4    0    0  0.90482122730E+01  0.61289507630E+01 -0.11535545517E+02  0.15890342773E+02  0.51100000000E-03 0. -1.
         12    1    4    4    0    0  0.15601150285E+02  0.71055001959E+01  0.18957213402E+02  0.25558950746E+02  0.00000000000E+00 0. -1.
</event>
<event>
 8    1  0.3186330E-007  0.9118800E+02  0.7816164E-02  0.1184000E+00
        -11   -1    0    0    0    0  0.00000000000E+00  0.00000000000E+00  0.45593999997E+02  0.45594000000E+02  0.51100000000E-03 0.  1.
         11   -1    0    0    0    0 -0.00000000000E+00 -0.00000000000E+00 -0.45593999997E+02  0.45594000000E+02  0.51100000000E-03 0. -1.
         23    2    1    2    0    0  0.00000000000E+00  0.00000000000E+00  0.00000000000E+00  0.91188000000E+02  0.91188000000E+02 0.  0.
    9900012    2    3    3    0    0 -0.21268754573E+02  0.29931601556E+02 -0.27420670472E+01  0.54367087131E+02  0.40000006733E+02 0.  0.
        -12    1    3    3    0    0  0.21268754573E+02 -0.29931601556E+02  0.27420670472E+01  0.36820912869E+02  0.00000000000E+00 0.  1.
         11    1    4    4    0    0 -0.38065889789E+01  0.12102992427E+02  0.74523248315E+01  0.14714268279E+02  0.51100000000E-03 0. -1.
        -11    1    4    4    0    0  0.58585562144E-01  0.60281635541E+01  0.91845540312E+01  0.10986274215E+02  0.51100000000E-03 0.  1.
         12    1    4    4    0    0 -0.17520751156E+02  0.11800445575E+02 -0.19378945910E+02  0.28666544637E+02  0.00000000000E+00 0. -1.
</event>
<event>
 8    1  0.3186330E-007  0.9118800E+02  0.7816164E-02  0.1184000E+00
        -11   -1    0    0    0    0  0.00000000000E+00  0.00000000000E+00  0.45593999997E+02  0.45594000000E+02  0.51100000000E-03 0.  1.
         11   -1    0    0    0    0 -0.00000000000E+00 -0.00000000000E+00 -0.45593999997E+02  0.45594000000E+02  0.51100000000E-03 0. -1.
         23    2    1    2    0    0  0.35527136788E-14 -0.71054273576E-14  0.88817841970E-15  0.91188000000E+02  0.91188000000E+02 0.  0.
    9900012    2    3    3    0    0 -0.25843469935E+02  0.25809606188E+02  0.46643760480E+01  0.54367121225E+02  0.40000084457E+02 0.  0.
        -12    1    3    3    0    0  0.25843469935E+02 -0.25809606188E+02 -0.46643760480E+01  0.36820878775E+02  0.00000000000E+00 0.  1.
         11    1    4    4    0    0 -0.26873349991E+02  0.89960413848E+01  0.11553138317E+02  0.30603606087E+02  0.51100000000E-03 0. -1.
        -11    1    4    4    0    0  0.41335419661E+01  0.97019048455E+00  0.26563905809E+01  0.50083779750E+01  0.51100000000E-03 0.  1.
         12    1    4    4    0    0 -0.31036619101E+01  0.15843374319E+02 -0.95451528501E+01  0.18755137163E+02  0.00000000000E+00 0. -1.
</event>
<event>
 8    1  0.3186330E-007  0.9118800E+02  0.7816164E-02  0.1184000E+00
        -11   -1    0    0    0    0  0.00000000000E+00  0.00000000000E+00  0.45593999997E+02  0.45594000000E+02  0.51100000000E-03 0. -1.
         11   -1    0    0    0    0 -0.00000000000E+00 -0.00000000000E+00 -0.45593999997E+02  0.45594000000E+02  0.51100000000E-03 0.  1.
         23    2    1    2    0    0  0.00000000000E+00  0.00000000000E+00  0.00000000000E+00  0.91188000000E+02  0.91188000000E+02 0.  0.
    9900012    2    3    3    0    0  0.49322945414E+01  0.24204311721E+02 -0.27305718866E+02  0.54367102155E+02  0.40000040982E+02 0.  0.
        -12    1    3    3    0    0 -0.49322945414E+01 -0.24204311721E+02  0.27305718866E+02  0.36820897845E+02  0.00000000000E+00 0.  1.
         11    1    4    4    0    0 -0.15618779643E+01  0.19260756043E+02  0.32548201478E+00  0.19326720491E+02  0.51100000000E-03 0. -1.
        -11    1    4    4    0    0 -0.78182288482E+00  0.49647889160E+01  0.13138306681E+01  0.51948558488E+01  0.51100000000E-03 0.  1.
        -12    1    4    4    0    0  0.72759953905E+01 -0.21233238346E-01 -0.28945031549E+02  0.29845525815E+02  0.00000000000E+00 0.  1.
</event>
<event>
 8    1  0.3186330E-007  0.9118800E+02  0.7816164E-02  0.1184000E+00
        -11   -1    0    0    0    0  0.00000000000E+00  0.00000000000E+00  0.45593999997E+02  0.45594000000E+02  0.51100000000E-03 0.  1.
         11   -1    0    0    0    0 -0.00000000000E+00 -0.00000000000E+00 -0.45593999997E+02  0.45594000000E+02  0.51100000000E-03 0. -1.
         23    2    1    2    0    0 -0.35527136788E-14 -0.17763568394E-14  0.00000000000E+00  0.91188000000E+02  0.91188000000E+02 0.  0.
    9900012    2    3    3    0    0 -0.10547629973E+02 -0.13562510981E+02 -0.32566622919E+02  0.54367093839E+02  0.40000022024E+02 0.  0.
         12    1    3    3    0    0  0.10547629973E+02  0.13562510981E+02  0.32566622919E+02  0.36820906161E+02  0.00000000000E+00 0. -1.
         11    1    4    4    0    0 -0.10619576355E+02 -0.98606408195E+01 -0.16916751240E+02  0.22275190507E+02  0.51100000000E-03 0. -1.
        -11    1    4    4    0    0 -0.91076345083E+01 -0.15226523546E+01  0.41769043395E+01  0.10134791890E+02  0.51100000000E-03 0.  1.
         12    1    4    4    0    0  0.91795808905E+01 -0.21792178072E+01 -0.19826776019E+02  0.21957111442E+02  0.00000000000E+00 0. -1.
</event>
<event>
 8    1  0.3186330E-007  0.9118800E+02  0.7816164E-02  0.1184000E+00
        -11   -1    0    0    0    0  0.00000000000E+00  0.00000000000E+00  0.45593999997E+02  0.45594000000E+02  0.51100000000E-03 0.  1.
         11   -1    0    0    0    0 -0.00000000000E+00 -0.00000000000E+00 -0.45593999997E+02  0.45594000000E+02  0.51100000000E-03 0. -1.
         23    2    1    2    0    0  0.35527136788E-14  0.88817841970E-15  0.35527136788E-14  0.91188000000E+02  0.91188000000E+02 0.  0.
    9900012    2    3    3    0    0  0.28289161541E+02  0.51429243342E+01 -0.23001156682E+02  0.54367088277E+02  0.40000009346E+02 0.  0.
        -12    1    3    3    0    0 -0.28289161541E+02 -0.51429243342E+01  0.23001156682E+02  0.36820911723E+02  0.00000000000E+00 0.  1.
         11    1    4    4    0    0  0.16888083078E+02  0.31399455421E+01 -0.51543599171E+01  0.17934158315E+02  0.51100000000E-03 0.  1.
        -11    1    4    4    0    0  0.14376915617E+02  0.65711399419E+01 -0.23665413397E+02  0.28459223009E+02  0.51100000000E-03 0. -1.
        -12    1    4    4    0    0 -0.29758371543E+01 -0.45681611499E+01  0.58186166318E+01  0.79737069527E+01  0.00000000000E+00 0.  1.
</event>
<event>
 8    1  0.3186330E-007  0.9118800E+02  0.7816164E-02  0.1184000E+00
        -11   -1    0    0    0    0  0.00000000000E+00  0.00000000000E+00  0.45593999997E+02  0.45594000000E+02  0.51100000000E-03 0.  1.
         11   -1    0    0    0    0 -0.00000000000E+00 -0.00000000000E+00 -0.45593999997E+02  0.45594000000E+02  0.51100000000E-03 0. -1.
         23    2    1    2    0    0  0.71054273576E-14 -0.17763568394E-14  0.00000000000E+00  0.91188000000E+02  0.91188000000E+02 0.  0.
    9900012    2    3    3    0    0 -0.33708884217E+02  0.10215329614E+02 -0.10729993122E+02  0.54367155541E+02  0.40000162686E+02 0.  0.
        -12    1    3    3    0    0  0.33708884217E+02 -0.10215329614E+02  0.10729993122E+02  0.36820844459E+02  0.00000000000E+00 0.  1.
         11    1    4    4    0    0 -0.70576955829E+01  0.47767311338E+01  0.83906607329E+01  0.11959574201E+02  0.51100000000E-03 0. -1.
        -11    1    4    4    0    0 -0.21496533836E+02  0.15412131952E+02 -0.11523299544E+02  0.28851710710E+02  0.51100000000E-03 0.  1.
        -12    1    4    4    0    0 -0.51546547981E+01 -0.99735334718E+01 -0.75973543113E+01  0.13555870630E+02  0.00000000000E+00 0.  1.
</event>
<event>
 8    1  0.3186330E-007  0.9118800E+02  0.7816164E-02  0.1184000E+00
        -11   -1    0    0    0    0  0.00000000000E+00  0.00000000000E+00  0.45593999997E+02  0.45594000000E+02  0.51100000000E-03 0. -1.
         11   -1    0    0    0    0 -0.00000000000E+00 -0.00000000000E+00 -0.45593999997E+02  0.45594000000E+02  0.51100000000E-03 0.  1.
         23    2    1    2    0    0 -0.88817841970E-15 -0.35527136788E-14  0.00000000000E+00  0.91188000000E+02  0.91188000000E+02 0.  0.
    9900012    2    3    3    0    0  0.73538890463E+01  0.22664075415E+02  0.28072059469E+02  0.54367074953E+02  0.39999978970E+02 0.  0.
        -12    1    3    3    0    0 -0.73538890463E+01 -0.22664075415E+02 -0.28072059469E+02  0.36820925047E+02  0.00000000000E+00 0.  1.
         11    1    4    4    0    0  0.42436789769E+01 -0.56835688847E+01 -0.24648596743E+01  0.75091477546E+01  0.51100000000E-03 0. -1.
        -11    1    4    4    0    0  0.89188842233E+00 -0.24536856127E+01  0.85753145716E+01  0.89639309629E+01  0.51100000000E-03 0.  1.
         12    1    4    4    0    0  0.22183216471E+01  0.30801329913E+02  0.21961604571E+02  0.37893996235E+02  0.00000000000E+00 0. -1.
</event>
<event>
 8    1  0.3186330E-007  0.9118800E+02  0.7816164E-02  0.1184000E+00
        -11   -1    0    0    0    0  0.00000000000E+00  0.00000000000E+00  0.45593999997E+02  0.45594000000E+02  0.51100000000E-03 0.  1.
         11   -1    0    0    0    0 -0.00000000000E+00 -0.00000000000E+00 -0.45593999997E+02  0.45594000000E+02  0.51100000000E-03 0. -1.
         23    2    1    2    0    0  0.71054273576E-14  0.33306690739E-15 -0.88817841970E-15  0.91188000000E+02  0.91188000000E+02 0.  0.
    9900012    2    3    3    0    0 -0.36090727691E+02  0.75002448552E+00  0.72578753278E+01  0.54367083169E+02  0.39999997701E+02 0.  0.
         12    1    3    3    0    0  0.36090727691E+02 -0.75002448552E+00 -0.72578753278E+01  0.36820916831E+02  0.00000000000E+00 0. -1.
         11    1    4    4    0    0 -0.25882634465E+02 -0.90495952887E+01  0.20484315933E+02  0.34225913300E+02  0.51100000000E-03 0.  1.
        -11    1    4    4    0    0 -0.29652864211E+01  0.45688880445E+01 -0.83314665059E+01  0.99539437371E+01  0.51100000000E-03 0. -1.
        -12    1    4    4    0    0 -0.72428068049E+01  0.52307317298E+01 -0.48949740990E+01  0.10187226132E+02  0.00000000000E+00 0.  1.
</event>
<event>
 8    1  0.3186330E-007  0.9118800E+02  0.7816164E-02  0.1184000E+00
        -11   -1    0    0    0    0  0.00000000000E+00  0.00000000000E+00  0.45593999997E+02  0.45594000000E+02  0.51100000000E-03 0. -1.
         11   -1    0    0    0    0 -0.00000000000E+00 -0.00000000000E+00 -0.45593999997E+02  0.45594000000E+02  0.51100000000E-03 0.  1.
         23    2    1    2    0    0 -0.35527136788E-14  0.00000000000E+00  0.00000000000E+00  0.91188000000E+02  0.91188000000E+02 0.  0.
    9900012    2    3    3    0    0 -0.11119354996E+02 -0.27190041584E+01  0.34996383243E+02  0.54367083672E+02  0.39999998848E+02 0.  0.
        -12    1    3    3    0    0  0.11119354996E+02  0.27190041584E+01 -0.34996383243E+02  0.36820916328E+02  0.00000000000E+00 0.  1.
         11    1    4    4    0    0  0.10744747903E+01  0.22459163987E+01 -0.21725193607E+01  0.33043119070E+01  0.51100000000E-03 0. -1.
        -11    1    4    4    0    0 -0.22749699963E+02 -0.11218353287E+01  0.18812572922E+02  0.29541839197E+02  0.51100000000E-03 0.  1.
         12    1    4    4    0    0  0.10555870177E+02 -0.38430852284E+01  0.18356329681E+02  0.21520932569E+02  0.00000000000E+00 0. -1.
</event>
<event>
 8    1  0.3186330E-007  0.9118800E+02  0.7816164E-02  0.1184000E+00
        -11   -1    0    0    0    0  0.00000000000E+00  0.00000000000E+00  0.45593999997E+02  0.45594000000E+02  0.51100000000E-03 0.  1.
         11   -1    0    0    0    0 -0.00000000000E+00 -0.00000000000E+00 -0.45593999997E+02  0.45594000000E+02  0.51100000000E-03 0. -1.
         23    2    1    2    0    0  0.00000000000E+00  0.00000000000E+00 -0.31086244690E-14  0.91188000000E+02  0.91188000000E+02 0.  0.
    9900012    2    3    3    0    0 -0.23760212088E+02  0.27868917584E+02  0.38152048402E+01  0.54367081574E+02  0.39999994063E+02 0.  0.
         12    1    3    3    0    0  0.23760212088E+02 -0.27868917584E+02 -0.38152048402E+01  0.36820918426E+02  0.00000000000E+00 0. -1.
         11    1    4    4    0    0 -0.21922988982E+02  0.15799543981E+02  0.18339444121E+02  0.32658509563E+02  0.51100000000E-03 0. -1.
        -11    1    4    4    0    0  0.79025870333E+00  0.80654176334E+01 -0.20684694463E+01  0.83638529716E+01  0.51100000000E-03 0.  1.
        -12    1    4    4    0    0 -0.26274818090E+01  0.40039559701E+01 -0.12455769835E+02  0.13344719039E+02  0.00000000000E+00 0.  1.
</event>
<event>
 8    1  0.3186330E-007  0.9118800E+02  0.7816164E-02  0.1184000E+00
        -11   -1    0    0    0    0  0.00000000000E+00  0.00000000000E+00  0.45593999997E+02  0.45594000000E+02  0.51100000000E-03 0. -1.
         11   -1    0    0    0    0 -0.00000000000E+00 -0.00000000000E+00 -0.45593999997E+02  0.45594000000E+02  0.51100000000E-03 0.  1.
         23    2    1    2    0    0  0.00000000000E+00  0.00000000000E+00  0.00000000000E+00  0.91188000000E+02  0.91188000000E+02 0.  0.
    9900012    2    3    3    0    0 -0.27692750617E+02 -0.20640176358E+02 -0.12762226212E+02  0.54367085635E+02  0.40000003321E+02 0.  0.
         12    1    3    3    0    0  0.27692750617E+02  0.20640176358E+02  0.12762226212E+02  0.36820914365E+02  0.00000000000E+00 0. -1.
         11    1    4    4    0    0 -0.10275908372E+02 -0.15975939416E+01  0.61764893308E+01  0.12095272630E+02  0.51100000000E-03 0. -1.
        -11    1    4    4    0    0 -0.89407078874E+00 -0.15115828233E+02  0.20416600861E+01  0.15279267061E+02  0.51100000000E-03 0.  1.
         12    1    4    4    0    0 -0.16522771455E+02 -0.39267541837E+01 -0.20980375629E+02  0.26992545944E+02  0.00000000000E+00 0. -1.
</event>
<event>
 8    1  0.3186330E-007  0.9118800E+02  0.7816164E-02  0.1184000E+00
        -11   -1    0    0    0    0  0.00000000000E+00  0.00000000000E+00  0.45593999997E+02  0.45594000000E+02  0.51100000000E-03 0. -1.
         11   -1    0    0    0    0 -0.00000000000E+00 -0.00000000000E+00 -0.45593999997E+02  0.45594000000E+02  0.51100000000E-03 0.  1.
         23    2    1    2    0    0  0.00000000000E+00  0.71054273576E-14  0.35527136788E-14  0.91188000000E+02  0.91188000000E+02 0.  0.
    9900012    2    3    3    0    0  0.98888307503E+01  0.28538697249E+02 -0.21060191944E+02  0.54367110562E+02  0.40000060148E+02 0.  0.
         12    1    3    3    0    0 -0.98888307503E+01 -0.28538697249E+02  0.21060191944E+02  0.36820889438E+02  0.00000000000E+00 0. -1.
         11    1    4    4    0    0  0.15693644289E+02  0.51733971891E+01  0.26097448916E+01  0.16729174463E+02  0.51100000000E-03 0. -1.
        -11    1    4    4    0    0 -0.38917044377E+01  0.14356047000E+01 -0.12054823619E+02  0.12748533132E+02  0.51100000000E-03 0.  1.
         12    1    4    4    0    0 -0.19131091011E+01  0.21929695360E+02 -0.11615113217E+02  0.24889402967E+02  0.00000000000E+00 0. -1.
</event>
<event>
 8    1  0.3186330E-007  0.9118800E+02  0.7816164E-02  0.1184000E+00
        -11   -1    0    0    0    0  0.00000000000E+00  0.00000000000E+00  0.45593999997E+02  0.45594000000E+02  0.51100000000E-03 0. -1.
         11   -1    0    0    0    0 -0.00000000000E+00 -0.00000000000E+00 -0.45593999997E+02  0.45594000000E+02  0.51100000000E-03 0.  1.
         23    2    1    2    0    0  0.17763568394E-14  0.00000000000E+00  0.35527136788E-14  0.91188000000E+02  0.91188000000E+02 0.  0.
    9900012    2    3    3    0    0 -0.13355764442E+02  0.30127117315E+02 -0.16424367027E+02  0.54367089177E+02  0.40000011398E+02 0.  0.
        -12    1    3    3    0    0  0.13355764442E+02 -0.30127117315E+02  0.16424367027E+02  0.36820910823E+02  0.00000000000E+00 0.  1.
         11    1    4    4    0    0 -0.40376310442E+01 -0.62683205845E+01  0.65663003261E+01  0.99353212144E+01  0.51100000000E-03 0. -1.
        -11    1    4    4    0    0 -0.97520160443E+01  0.29401670837E+02 -0.19498014143E+02  0.36602358131E+02  0.51100000000E-03 0.  1.
         12    1    4    4    0    0  0.43388264621E+00  0.69937670624E+01 -0.34926532104E+01  0.78294098323E+01  0.00000000000E+00 0. -1.
</event>
<event>
 8    1  0.3186330E-007  0.9118800E+02  0.7816164E-02  0.1184000E+00
        -11   -1    0    0    0    0  0.00000000000E+00  0.00000000000E+00  0.45593999997E+02  0.45594000000E+02  0.51100000000E-03 0.  1.
         11   -1    0    0    0    0 -0.00000000000E+00 -0.00000000000E+00 -0.45593999997E+02  0.45594000000E+02  0.51100000000E-03 0. -1.
         23    2    1    2    0    0 -0.35527136788E-14  0.00000000000E+00 -0.35527136788E-14  0.91188000000E+02  0.91188000000E+02 0.  0.
    9900012    2    3    3    0    0 -0.30383801770E+02 -0.52726806428E+01 -0.20119713995E+02  0.54367089333E+02  0.40000011752E+02 0.  0.
         12    1    3    3    0    0  0.30383801770E+02  0.52726806428E+01  0.20119713995E+02  0.36820910667E+02  0.00000000000E+00 0. -1.
         11    1    4    4    0    0 -0.29692085531E+02 -0.72545554778E+01 -0.24255943032E+02  0.39020498343E+02  0.51100000000E-03 0. -1.
        -11    1    4    4    0    0  0.25844150803E+01  0.73986701984E+01  0.44426893477E+01  0.90087186055E+01  0.51100000000E-03 0.  1.
        -12    1    4    4    0    0 -0.32761313192E+01 -0.54167953634E+01 -0.30646031078E+00  0.63378723837E+01  0.00000000000E+00 0.  1.
</event>
<event>
 8    1  0.3186330E-007  0.9118800E+02  0.7816164E-02  0.1184000E+00
        -11   -1    0    0    0    0  0.00000000000E+00  0.00000000000E+00  0.45593999997E+02  0.45594000000E+02  0.51100000000E-03 0.  1.
         11   -1    0    0    0    0 -0.00000000000E+00 -0.00000000000E+00 -0.45593999997E+02  0.45594000000E+02  0.51100000000E-03 0. -1.
         23    2    1    2    0    0 -0.66613381478E-15 -0.35527136788E-14  0.00000000000E+00  0.91188000000E+02  0.91188000000E+02 0.  0.
    9900012    2    3    3    0    0  0.12539168006E+01  0.26054780204E+02  0.25987640691E+02  0.54367063734E+02  0.39999953394E+02 0.  0.
         12    1    3    3    0    0 -0.12539168006E+01 -0.26054780204E+02 -0.25987640691E+02  0.36820936266E+02  0.00000000000E+00 0. -1.
         11    1    4    4    0    0 -0.42839784492E+01  0.18408678492E+02  0.11252553926E-01  0.18900583114E+02  0.51100000000E-03 0. -1.
        -11    1    4    4    0    0  0.59885562233E+01  0.43525186758E+01 -0.16961326448E+01  0.75950043234E+01  0.51100000000E-03 0.  1.
        -12    1    4    4    0    0 -0.45066097352E+00  0.32935830367E+01  0.27672520782E+02  0.27871476296E+02  0.00000000000E+00 0.  1.
</event>
<event>
 8    1  0.3186330E-007  0.9118800E+02  0.7816164E-02  0.1184000E+00
        -11   -1    0    0    0    0  0.00000000000E+00  0.00000000000E+00  0.45593999997E+02  0.45594000000E+02  0.51100000000E-03 0. -1.
         11   -1    0    0    0    0 -0.00000000000E+00 -0.00000000000E+00 -0.45593999997E+02  0.45594000000E+02  0.51100000000E-03 0.  1.
         23    2    1    2    0    0 -0.35527136788E-14  0.00000000000E+00 -0.35527136788E-14  0.91188000000E+02  0.91188000000E+02 0.  0.
    9900012    2    3    3    0    0 -0.30073597476E+02  0.12492239880E+02 -0.17184305915E+02  0.54367113371E+02  0.40000066552E+02 0.  0.
         12    1    3    3    0    0  0.30073597476E+02 -0.12492239880E+02  0.17184305915E+02  0.36820886629E+02  0.00000000000E+00 0. -1.
         11    1    4    4    0    0 -0.28558592244E+02  0.12782523945E+02 -0.14733369324E+02  0.34584075545E+02  0.51100000000E-03 0.  1.
        -11    1    4    4    0    0  0.28851891931E+01  0.25773754593E+01  0.75518886017E+01  0.84851754639E+01  0.51100000000E-03 0. -1.
         12    1    4    4    0    0 -0.44001944244E+01 -0.28676595239E+01 -0.10002825193E+02  0.11297862362E+02  0.00000000000E+00 0. -1.
</event>
<event>
 8    1  0.3186330E-007  0.9118800E+02  0.7816164E-02  0.1184000E+00
        -11   -1    0    0    0    0  0.00000000000E+00  0.00000000000E+00  0.45593999997E+02  0.45594000000E+02  0.51100000000E-03 0. -1.
         11   -1    0    0    0    0 -0.00000000000E+00 -0.00000000000E+00 -0.45593999997E+02  0.45594000000E+02  0.51100000000E-03 0.  1.
         23    2    1    2    0    0  0.00000000000E+00  0.00000000000E+00  0.35527136788E-14  0.91188000000E+02  0.91188000000E+02 0.  0.
    9900012    2    3    3    0    0 -0.18225495080E+02  0.10697869700E+02  0.30152386920E+02  0.54367088495E+02  0.40000009843E+02 0.  0.
        -12    1    3    3    0    0  0.18225495080E+02 -0.10697869700E+02 -0.30152386920E+02  0.36820911505E+02  0.00000000000E+00 0.  1.
         11    1    4    4    0    0  0.56509123911E+01  0.79643223734E-01  0.73364809613E+01  0.92608372759E+01  0.51100000000E-03 0. -1.
        -11    1    4    4    0    0  0.49503503713E+01  0.48322466797E+01  0.11859078625E+02  0.13729323467E+02  0.51100000000E-03 0.  1.
        -12    1    4    4    0    0 -0.28826757843E+02  0.57859797966E+01  0.10956827334E+02  0.31376927752E+02  0.00000000000E+00 0.  1.
</event>
<event>
 8    1  0.3186330E-007  0.9118800E+02  0.7816164E-02  0.1184000E+00
        -11   -1    0    0    0    0  0.00000000000E+00  0.00000000000E+00  0.45593999997E+02  0.45594000000E+02  0.51100000000E-03 0. -1.
         11   -1    0    0    0    0 -0.00000000000E+00 -0.00000000000E+00 -0.45593999997E+02  0.45594000000E+02  0.51100000000E-03 0.  1.
         23    2    1    2    0    0  0.22204460493E-15 -0.71054273576E-14  0.55511151231E-15  0.91188000000E+02  0.91188000000E+02 0.  0.
    9900012    2    3    3    0    0  0.16782921289E+01 -0.36777777979E+02 -0.59832543190E+00  0.54367087316E+02  0.40000007154E+02 0.  0.
         12    1    3    3    0    0 -0.16782921289E+01  0.36777777979E+02  0.59832543190E+00  0.36820912684E+02  0.00000000000E+00 0. -1.
         11    1    4    4    0    0  0.43485299752E+01 -0.31906941044E+02  0.89403405449E+01  0.33419938496E+02  0.51100000000E-03 0. -1.
        -11    1    4    4    0    0 -0.56662913179E+01 -0.58404880284E+01 -0.13575344198E+02  0.15827448565E+02  0.51100000000E-03 0.  1.
        -12    1    4    4    0    0  0.29960534717E+01  0.96965109297E+00  0.40366782211E+01  0.51197002557E+01  0.00000000000E+00 0.  1.
</event>
<event>
 8    1  0.3186330E-007  0.9118800E+02  0.7816164E-02  0.1184000E+00
        -11   -1    0    0    0    0  0.00000000000E+00  0.00000000000E+00  0.45593999997E+02  0.45594000000E+02  0.51100000000E-03 0. -1.
         11   -1    0    0    0    0 -0.00000000000E+00 -0.00000000000E+00 -0.45593999997E+02  0.45594000000E+02  0.51100000000E-03 0.  1.
         23    2    1    2    0    0  0.00000000000E+00 -0.13322676296E-14 -0.44408920985E-15  0.91188000000E+02  0.91188000000E+02 0.  0.
    9900012    2    3    3    0    0  0.36668277883E+02  0.22486818475E+01 -0.24822548908E+01  0.54367071681E+02  0.39999971511E+02 0.  0.
        -12    1    3    3    0    0 -0.36668277883E+02 -0.22486818475E+01  0.24822548908E+01  0.36820928319E+02  0.00000000000E+00 0.  1.
         11    1    4    4    0    0  0.11010144852E+02  0.14528790392E+02  0.88622128059E+01  0.20269382230E+02  0.51100000000E-03 0. -1.
        -11    1    4    4    0    0 -0.11375059373E+01 -0.13185406658E+01 -0.37996543474E+01  0.41796940876E+01  0.51100000000E-03 0.  1.
         12    1    4    4    0    0  0.26795638968E+02 -0.10961567879E+02 -0.75448133492E+01  0.29917995363E+02  0.00000000000E+00 0. -1.
</event>
<event>
 8    1  0.3186330E-007  0.9118800E+02  0.7816164E-02  0.1184000E+00
        -11   -1    0    0    0    0  0.00000000000E+00  0.00000000000E+00  0.45593999997E+02  0.45594000000E+02  0.51100000000E-03 0.  1.
         11   -1    0    0    0    0 -0.00000000000E+00 -0.00000000000E+00 -0.45593999997E+02  0.45594000000E+02  0.51100000000E-03 0. -1.
         23    2    1    2    0    0  0.00000000000E+00  0.00000000000E+00 -0.71054273576E-14  0.91188000000E+02  0.91188000000E+02 0.  0.
    9900012    2    3    3    0    0 -0.52362127043E+01  0.93767680440E+01  0.35219856114E+02  0.54367082479E+02  0.39999996127E+02 0.  0.
         12    1    3    3    0    0  0.52362127043E+01 -0.93767680440E+01 -0.35219856114E+02  0.36820917521E+02  0.00000000000E+00 0. -1.
         11    1    4    4    0    0  0.88570909145E+01  0.16177023597E+02  0.27138850287E+02  0.32812518146E+02  0.51100000000E-03 0. -1.
        -11    1    4    4    0    0 -0.11566237844E+02 -0.93219747640E+01  0.95867161792E+01  0.17679994308E+02  0.51100000000E-03 0.  1.
         12    1    4    4    0    0 -0.25270657751E+01  0.25217192114E+01 -0.15057103526E+01  0.38745700250E+01  0.00000000000E+00 0. -1.
</event>
<event>
 8    1  0.3186330E-007  0.9118800E+02  0.7816164E-02  0.1184000E+00
        -11   -1    0    0    0    0  0.00000000000E+00  0.00000000000E+00  0.45593999997E+02  0.45594000000E+02  0.51100000000E-03 0. -1.
         11   -1    0    0    0    0 -0.00000000000E+00 -0.00000000000E+00 -0.45593999997E+02  0.45594000000E+02  0.51100000000E-03 0.  1.
         23    2    1    2    0    0  0.17763568394E-14  0.00000000000E+00  0.00000000000E+00  0.91188000000E+02  0.91188000000E+02 0.  0.
    9900012    2    3    3    0    0  0.11544523571E+02  0.25965136645E+02  0.23416194449E+02  0.54367047976E+02  0.39999917470E+02 0.  0.
        -12    1    3    3    0    0 -0.11544523571E+02 -0.25965136645E+02 -0.23416194449E+02  0.36820952024E+02  0.00000000000E+00 0.  1.
         11    1    4    4    0    0  0.19660708675E+02  0.53667491403E+01  0.11002776393E+02  0.23160452296E+02  0.51100000000E-03 0. -1.
        -11    1    4    4    0    0 -0.97052214597E+01  0.14770360003E+02  0.30638949328E+00  0.17676219420E+02  0.51100000000E-03 0.  1.
        -12    1    4    4    0    0  0.15890363557E+01  0.58280275016E+01  0.12107028563E+02  0.13530376260E+02  0.00000000000E+00 0.  1.
</event>
