<event>
 8    1  0.2502398E-006  0.9118800E+02  0.7816164E-02  0.1184000E+00
        -11   -1    0    0    0    0  0.00000000000E+00  0.00000000000E+00  0.45593999997E+02  0.45594000000E+02  0.51100000000E-03 0. -1.
         11   -1    0    0    0    0 -0.00000000000E+00 -0.00000000000E+00 -0.45593999997E+02  0.45594000000E+02  0.51100000000E-03 0.  1.
         23    2    1    2    0    0 -0.88817841970E-15 -0.71054273576E-14 -0.35527136788E-14  0.91188000000E+02  0.91188000000E+02 0.  0.
    9900012    2    3    3    0    0 -0.43928670473E+01 -0.20546304311E+02 -0.30237825741E+02  0.54367163409E+02  0.40000180623E+02 0.  0.
         12    1    3    3    0    0  0.43928670473E+01  0.20546304311E+02  0.30237825741E+02  0.36820836591E+02  0.00000000000E+00 0. -1.
         11    1    4    4    0    0 -0.34771047387E+01  0.28034722950E+01 -0.67875275154E+01  0.81252842600E+01  0.51100000000E-03 0. -1.
        -11    1    4    4    0    0 -0.82953059059E+01  0.42536389866E+01 -0.70209978017E-01  0.93225787421E+01  0.51100000000E-03 0.  1.
         12    1    4    4    0    0  0.73795435973E+01 -0.27603415592E+02 -0.23380088248E+02  0.36919300407E+02  0.00000000000E+00 0. -1.
</event>
<event>
 8    1  0.2502398E-006  0.9118800E+02  0.7816164E-02  0.1184000E+00
        -11   -1    0    0    0    0  0.00000000000E+00  0.00000000000E+00  0.45593999997E+02  0.45594000000E+02  0.51100000000E-03 0.  1.
         11   -1    0    0    0    0 -0.00000000000E+00 -0.00000000000E+00 -0.45593999997E+02  0.45594000000E+02  0.51100000000E-03 0. -1.
         23    2    1    2    0    0  0.71054273576E-14  0.00000000000E+00  0.88817841970E-15  0.91188000000E+02  0.91188000000E+02 0.  0.
    9900012    2    3    3    0    0 -0.34897687398E+02 -0.94823559352E+01  0.69292973770E+01  0.54367098029E+02  0.40000031577E+02 0.  0.
        -12    1    3    3    0    0  0.34897687398E+02  0.94823559352E+01 -0.69292973770E+01  0.36820901971E+02  0.00000000000E+00 0.  1.
         11    1    4    4    0    0 -0.55602110909E+01  0.54788283439E+01  0.42314452005E+01  0.88791123511E+01  0.51100000000E-03 0. -1.
        -11    1    4    4    0    0  0.62347311499E+01 -0.59987867338E+01  0.15249045939E+01  0.87853656196E+01  0.51100000000E-03 0.  1.
         12    1    4    4    0    0 -0.35572207457E+02 -0.89623975453E+01  0.11729475826E+01  0.36702620058E+02  0.00000000000E+00 0. -1.
</event>
<event>
 8    1  0.2502398E-006  0.9118800E+02  0.7816164E-02  0.1184000E+00
        -11   -1    0    0    0    0  0.00000000000E+00  0.00000000000E+00  0.45593999997E+02  0.45594000000E+02  0.51100000000E-03 0. -1.
         11   -1    0    0    0    0 -0.00000000000E+00 -0.00000000000E+00 -0.45593999997E+02  0.45594000000E+02  0.51100000000E-03 0.  1.
         23    2    1    2    0    0  0.35527136788E-14 -0.35527136788E-14  0.88817841970E-15  0.91188000000E+02  0.91188000000E+02 0.  0.
    9900012    2    3    3    0    0 -0.23363611882E+02  0.28018680765E+02 -0.49874756126E+01  0.54367085495E+02  0.40000003003E+02 0.  0.
        -12    1    3    3    0    0  0.23363611882E+02 -0.28018680765E+02  0.49874756126E+01  0.36820914505E+02  0.00000000000E+00 0.  1.
         11    1    4    4    0    0 -0.27735910618E+02  0.19985539804E+02 -0.37666337517E+01  0.34393168932E+02  0.51100000000E-03 0. -1.
        -11    1    4    4    0    0 -0.39162878251E+01  0.94756025937E+01  0.28298709616E+01  0.10636377427E+02  0.51100000000E-03 0.  1.
        -12    1    4    4    0    0  0.82885865618E+01 -0.14424616326E+01 -0.40507128226E+01  0.93375391365E+01  0.00000000000E+00 0.  1.
</event>
<event>
 8    1  0.2502398E-006  0.9118800E+02  0.7816164E-02  0.1184000E+00
        -11   -1    0    0    0    0  0.00000000000E+00  0.00000000000E+00  0.45593999997E+02  0.45594000000E+02  0.51100000000E-03 0.  1.
         11   -1    0    0    0    0 -0.00000000000E+00 -0.00000000000E+00 -0.45593999997E+02  0.45594000000E+02  0.51100000000E-03 0. -1.
         23    2    1    2    0    0  0.00000000000E+00  0.35527136788E-14  0.00000000000E+00  0.91188000000E+02  0.91188000000E+02 0.  0.
    9900012    2    3    3    0    0 -0.79444797721E+01  0.30860924419E+02 -0.18446359553E+02  0.54367087523E+02  0.40000007627E+02 0.  0.
        -12    1    3    3    0    0  0.79444797721E+01 -0.30860924419E+02  0.18446359553E+02  0.36820912477E+02  0.00000000000E+00 0.  1.
         11    1    4    4    0    0 -0.67311502623E+01  0.16062668218E+02  0.40194136693E+01  0.17873818300E+02  0.51100000000E-03 0. -1.
        -11    1    4    4    0    0  0.39265421830E+01 -0.55088102691E+01 -0.10136987256E+02  0.12187010912E+02  0.51100000000E-03 0.  1.
        -12    1    4    4    0    0 -0.51398716928E+01  0.20307066471E+02 -0.12328785967E+02  0.24306258311E+02  0.00000000000E+00 0.  1.
</event>
<event>
 8    1  0.2502398E-006  0.9118800E+02  0.7816164E-02  0.1184000E+00
        -11   -1    0    0    0    0  0.00000000000E+00  0.00000000000E+00  0.45593999997E+02  0.45594000000E+02  0.51100000000E-03 0.  1.
         11   -1    0    0    0    0 -0.00000000000E+00 -0.00000000000E+00 -0.45593999997E+02  0.45594000000E+02  0.51100000000E-03 0. -1.
         23    2    1    2    0    0  0.00000000000E+00  0.00000000000E+00  0.00000000000E+00  0.91188000000E+02  0.91188000000E+02 0.  0.
    9900012    2    3    3    0    0 -0.96436779856E+01 -0.40959270493E+01  0.35298728895E+02  0.54367117269E+02  0.40000075439E+02 0.  0.
         12    1    3    3    0    0  0.96436779856E+01  0.40959270493E+01 -0.35298728895E+02  0.36820882731E+02  0.00000000000E+00 0. -1.
         11    1    4    4    0    0 -0.11160833972E+02 -0.48316986033E+01  0.70071559152E+01  0.14036016551E+02  0.51100000000E-03 0.  1.
        -11    1    4    4    0    0  0.96394842352E+01  0.32258577410E+01 -0.63310674877E+00  0.10184627578E+02  0.51100000000E-03 0. -1.
         12    1    4    4    0    0 -0.81223282485E+01 -0.24900861870E+01  0.28924679728E+02  0.30146473140E+02  0.00000000000E+00 0. -1.
</event>
<event>
 8    1  0.2502398E-006  0.9118800E+02  0.7816164E-02  0.1184000E+00
        -11   -1    0    0    0    0  0.00000000000E+00  0.00000000000E+00  0.45593999997E+02  0.45594000000E+02  0.51100000000E-03 0. -1.
         11   -1    0    0    0    0 -0.00000000000E+00 -0.00000000000E+00 -0.45593999997E+02  0.45594000000E+02  0.51100000000E-03 0.  1.
         23    2    1    2    0    0  0.00000000000E+00  0.00000000000E+00  0.00000000000E+00  0.91188000000E+02  0.91188000000E+02 0.  0.
    9900012    2    3    3    0    0 -0.10809313971E+02 -0.32980772178E+02  0.12296746454E+02  0.54367047061E+02  0.39999915385E+02 0.  0.
         12    1    3    3    0    0  0.10809313971E+02  0.32980772178E+02 -0.12296746454E+02  0.36820952939E+02  0.00000000000E+00 0. -1.
         11    1    4    4    0    0  0.14687604219E+01 -0.16003502939E+01  0.25099069144E+01  0.33193389734E+01  0.51100000000E-03 0. -1.
        -11    1    4    4    0    0  0.39288633826E+01 -0.27429423011E+02 -0.56954125217E+01  0.28288636203E+02  0.51100000000E-03 0.  1.
         12    1    4    4    0    0 -0.16206937776E+02 -0.39509988734E+01  0.15482252061E+02  0.22759071884E+02  0.00000000000E+00 0. -1.
</event>
<event>
 8    1  0.2502398E-006  0.9118800E+02  0.7816164E-02  0.1184000E+00
        -11   -1    0    0    0    0  0.00000000000E+00  0.00000000000E+00  0.45593999997E+02  0.45594000000E+02  0.51100000000E-03 0. -1.
         11   -1    0    0    0    0 -0.00000000000E+00 -0.00000000000E+00 -0.45593999997E+02  0.45594000000E+02  0.51100000000E-03 0.  1.
         23    2    1    2    0    0 -0.44408920985E-15 -0.35527136788E-14  0.00000000000E+00  0.91188000000E+02  0.91188000000E+02 0.  0.
    9900012    2    3    3    0    0 -0.69729948307E+00 -0.29034307747E+02 -0.22634092627E+02  0.54367090152E+02  0.40000013621E+02 0.  0.
         12    1    3    3    0    0  0.69729948307E+00  0.29034307747E+02  0.22634092627E+02  0.36820909848E+02  0.00000000000E+00 0. -1.
         11    1    4    4    0    0 -0.65698395933E+01  0.71625284088E+01  0.56459797233E+00  0.97356754578E+01  0.51100000000E-03 0. -1.
        -11    1    4    4    0    0  0.36542672249E+01 -0.66777510513E+01 -0.11022859395E+01  0.76916228852E+01  0.51100000000E-03 0.  1.
         12    1    4    4    0    0  0.22182728853E+01 -0.29519085105E+02 -0.22096404660E+02  0.36939791809E+02  0.00000000000E+00 0. -1.
</event>
<event>
 8    1  0.2502398E-006  0.9118800E+02  0.7816164E-02  0.1184000E+00
        -11   -1    0    0    0    0  0.00000000000E+00  0.00000000000E+00  0.45593999997E+02  0.45594000000E+02  0.51100000000E-03 0. -1.
         11   -1    0    0    0    0 -0.00000000000E+00 -0.00000000000E+00 -0.45593999997E+02  0.45594000000E+02  0.51100000000E-03 0.  1.
         23    2    1    2    0    0  0.00000000000E+00  0.00000000000E+00  0.35527136788E-14  0.91188000000E+02  0.91188000000E+02 0.  0.
    9900012    2    3    3    0    0 -0.11059227313E+02 -0.21865174314E+02  0.27484318877E+02  0.54367080122E+02  0.39999990755E+02 0.  0.
        -12    1    3    3    0    0  0.11059227313E+02  0.21865174314E+02 -0.27484318877E+02  0.36820919878E+02  0.00000000000E+00 0.  1.
         11    1    4    4    0    0 -0.45571047701E+01  0.35547462046E+01 -0.35946363433E+01  0.68062350214E+01  0.51100000000E-03 0. -1.
        -11    1    4    4    0    0  0.92483559002E+01 -0.10698581651E+02  0.93624896923E+01  0.16960187195E+02  0.51100000000E-03 0.  1.
         12    1    4    4    0    0 -0.15750478443E+02 -0.14721338868E+02  0.21716465528E+02  0.30600657906E+02  0.00000000000E+00 0. -1.
</event>
<event>
 8    1  0.2502398E-006  0.9118800E+02  0.7816164E-02  0.1184000E+00
        -11   -1    0    0    0    0  0.00000000000E+00  0.00000000000E+00  0.45593999997E+02  0.45594000000E+02  0.51100000000E-03 0.  1.
         11   -1    0    0    0    0 -0.00000000000E+00 -0.00000000000E+00 -0.45593999997E+02  0.45594000000E+02  0.51100000000E-03 0. -1.
         23    2    1    2    0    0  0.00000000000E+00  0.00000000000E+00  0.00000000000E+00  0.91188000000E+02  0.91188000000E+02 0.  0.
    9900012    2    3    3    0    0 -0.54333023015E+00 -0.31208488977E+02  0.19532094278E+02  0.54367249073E+02  0.40000375909E+02 0.  0.
         12    1    3    3    0    0  0.54333023015E+00  0.31208488977E+02 -0.19532094278E+02  0.36820750927E+02  0.00000000000E+00 0. -1.
         11    1    4    4    0    0  0.37085761637E+01 -0.43340746391E+00  0.33591191210E+01  0.50224556466E+01  0.51100000000E-03 0.  1.
        -11    1    4    4    0    0 -0.23819157401E+01 -0.24428962968E+01  0.20360002518E+02  0.20643908731E+02  0.51100000000E-03 0. -1.
        -12    1    4    4    0    0 -0.18699906538E+01 -0.28332185216E+02 -0.41870273603E+01  0.28700884695E+02  0.00000000000E+00 0.  1.
</event>
<event>
 8    1  0.2502398E-006  0.9118800E+02  0.7816164E-02  0.1184000E+00
        -11   -1    0    0    0    0  0.00000000000E+00  0.00000000000E+00  0.45593999997E+02  0.45594000000E+02  0.51100000000E-03 0.  1.
         11   -1    0    0    0    0 -0.00000000000E+00 -0.00000000000E+00 -0.45593999997E+02  0.45594000000E+02  0.51100000000E-03 0. -1.
         23    2    1    2    0    0 -0.35527136788E-14  0.44408920985E-15  0.00000000000E+00  0.91188000000E+02  0.91188000000E+02 0.  0.
    9900012    2    3    3    0    0  0.27343617179E+02  0.30372202832E+01  0.24472079214E+02  0.54367071596E+02  0.39999971317E+02 0.  0.
         12    1    3    3    0    0 -0.27343617179E+02 -0.30372202832E+01 -0.24472079214E+02  0.36820928404E+02  0.00000000000E+00 0. -1.
         11    1    4    4    0    0  0.42701575706E+01  0.10005170847E+02 -0.52006774244E+01  0.12057559259E+02  0.51100000000E-03 0. -1.
        -11    1    4    4    0    0  0.21149445898E+02  0.15375171513E+01  0.23326066022E+02  0.31524092011E+02  0.51100000000E-03 0.  1.
         12    1    4    4    0    0  0.19240137105E+01 -0.85054677153E+01  0.63466906162E+01  0.10785420325E+02  0.00000000000E+00 0. -1.
</event>
<event>
 8    1  0.2502398E-006  0.9118800E+02  0.7816164E-02  0.1184000E+00
        -11   -1    0    0    0    0  0.00000000000E+00  0.00000000000E+00  0.45593999997E+02  0.45594000000E+02  0.51100000000E-03 0. -1.
         11   -1    0    0    0    0 -0.00000000000E+00 -0.00000000000E+00 -0.45593999997E+02  0.45594000000E+02  0.51100000000E-03 0.  1.
         23    2    1    2    0    0 -0.35527136788E-14 -0.88817841970E-15  0.00000000000E+00  0.91188000000E+02  0.91188000000E+02 0.  0.
    9900012    2    3    3    0    0 -0.29580797718E+02 -0.53456626560E+01 -0.21264529538E+02  0.54367083128E+02  0.39999997606E+02 0.  0.
         12    1    3    3    0    0  0.29580797718E+02  0.53456626560E+01  0.21264529538E+02  0.36820916872E+02  0.00000000000E+00 0. -1.
         11    1    4    4    0    0 -0.13724474132E+02 -0.19275649217E+02  0.79259078407E+00  0.23675726881E+02  0.51100000000E-03 0. -1.
        -11    1    4    4    0    0 -0.82053707315E+01  0.51948411157E+01 -0.10665837832E+02  0.14424790465E+02  0.51100000000E-03 0.  1.
        -12    1    4    4    0    0 -0.76509528548E+01  0.87351454455E+01 -0.11391282490E+02  0.16266565781E+02  0.00000000000E+00 0.  1.
</event>
<event>
 8    1  0.2502398E-006  0.9118800E+02  0.7816164E-02  0.1184000E+00
        -11   -1    0    0    0    0  0.00000000000E+00  0.00000000000E+00  0.45593999997E+02  0.45594000000E+02  0.51100000000E-03 0. -1.
         11   -1    0    0    0    0 -0.00000000000E+00 -0.00000000000E+00 -0.45593999997E+02  0.45594000000E+02  0.51100000000E-03 0.  1.
         23    2    1    2    0    0  0.26645352591E-14  0.00000000000E+00 -0.71054273576E-14  0.91188000000E+02  0.91188000000E+02 0.  0.
    9900012    2    3    3    0    0 -0.27325747554E+01  0.98332481994E+01  0.35378243778E+02  0.54367083827E+02  0.39999999201E+02 0.  0.
        -12    1    3    3    0    0  0.27325747554E+01 -0.98332481994E+01 -0.35378243778E+02  0.36820916173E+02  0.00000000000E+00 0.  1.
         11    1    4    4    0    0  0.71007403704E+01 -0.19814971593E+01  0.23612291350E+02  0.24736352760E+02  0.51100000000E-03 0. -1.
        -11    1    4    4    0    0  0.23031219908E+01 -0.48067094075E+01 -0.98485431344E+00  0.54202181240E+01  0.51100000000E-03 0.  1.
         12    1    4    4    0    0 -0.12136437117E+02  0.16621454766E+02  0.12750806742E+02  0.24210512944E+02  0.00000000000E+00 0. -1.
</event>
<event>
 8    1  0.2502398E-006  0.9118800E+02  0.7816164E-02  0.1184000E+00
        -11   -1    0    0    0    0  0.00000000000E+00  0.00000000000E+00  0.45593999997E+02  0.45594000000E+02  0.51100000000E-03 0.  1.
         11   -1    0    0    0    0 -0.00000000000E+00 -0.00000000000E+00 -0.45593999997E+02  0.45594000000E+02  0.51100000000E-03 0. -1.
         23    2    1    2    0    0  0.17763568394E-14  0.00000000000E+00  0.00000000000E+00  0.91188000000E+02  0.91188000000E+02 0.  0.
    9900012    2    3    3    0    0  0.78130537726E+01  0.35606269881E+02 -0.51893451056E+01  0.54367087915E+02  0.40000008521E+02 0.  0.
        -12    1    3    3    0    0 -0.78130537726E+01 -0.35606269881E+02  0.51893451056E+01  0.36820912085E+02  0.00000000000E+00 0.  1.
         11    1    4    4    0    0  0.51491464052E+01  0.33354663579E+02 -0.57585576948E+01  0.34237527337E+02  0.51100000000E-03 0. -1.
        -11    1    4    4    0    0  0.32613149424E-01  0.10764822686E+02  0.24087546224E+01  0.11031072938E+02  0.51100000000E-03 0.  1.
        -12    1    4    4    0    0  0.26312942180E+01 -0.85132163833E+01 -0.18395420332E+01  0.90984876404E+01  0.00000000000E+00 0.  1.
</event>
<event>
 8    1  0.2502398E-006  0.9118800E+02  0.7816164E-02  0.1184000E+00
        -11   -1    0    0    0    0  0.00000000000E+00  0.00000000000E+00  0.45593999997E+02  0.45594000000E+02  0.51100000000E-03 0.  1.
         11   -1    0    0    0    0 -0.00000000000E+00 -0.00000000000E+00 -0.45593999997E+02  0.45594000000E+02  0.51100000000E-03 0. -1.
         23    2    1    2    0    0 -0.35527136788E-14  0.00000000000E+00  0.00000000000E+00  0.91188000000E+02  0.91188000000E+02 0.  0.
    9900012    2    3    3    0    0 -0.30518178721E+02 -0.15829123715E+02 -0.13185603849E+02  0.54367074714E+02  0.39999978425E+02 0.  0.
         12    1    3    3    0    0  0.30518178721E+02  0.15829123715E+02  0.13185603849E+02  0.36820925286E+02  0.00000000000E+00 0. -1.
         11    1    4    4    0    0 -0.17416603516E+02 -0.14431118238E+02 -0.54060199640E+01  0.23255543506E+02  0.51100000000E-03 0. -1.
        -11    1    4    4    0    0 -0.14917034187E+02  0.10374124862E+02 -0.38925108758E+01  0.18582034785E+02  0.51100000000E-03 0.  1.
        -12    1    4    4    0    0  0.18154589817E+01 -0.11772130339E+02 -0.38870730095E+01  0.12529496423E+02  0.00000000000E+00 0.  1.
</event>
<event>
 8    1  0.2502398E-006  0.9118800E+02  0.7816164E-02  0.1184000E+00
        -11   -1    0    0    0    0  0.00000000000E+00  0.00000000000E+00  0.45593999997E+02  0.45594000000E+02  0.51100000000E-03 0. -1.
         11   -1    0    0    0    0 -0.00000000000E+00 -0.00000000000E+00 -0.45593999997E+02  0.45594000000E+02  0.51100000000E-03 0.  1.
         23    2    1    2    0    0 -0.35527136788E-14  0.17763568394E-14 -0.35527136788E-14  0.91188000000E+02  0.91188000000E+02 0.  0.
    9900012    2    3    3    0    0  0.15347332689E+02 -0.12248537147E+02 -0.31148224892E+02  0.54367092939E+02  0.40000019972E+02 0.  0.
         12    1    3    3    0    0 -0.15347332689E+02  0.12248537147E+02  0.31148224892E+02  0.36820907061E+02  0.00000000000E+00 0. -1.
         11    1    4    4    0    0 -0.10714516929E+02 -0.32505283529E+01 -0.83016175643E+01  0.13938567432E+02  0.51100000000E-03 0. -1.
        -11    1    4    4    0    0  0.17172268797E+02  0.35313613432E+01 -0.88176975323E+01  0.19624197273E+02  0.51100000000E-03 0.  1.
         12    1    4    4    0    0  0.88895808211E+01 -0.12529370138E+02 -0.14028909795E+02  0.20804328234E+02  0.00000000000E+00 0. -1.
</event>
<event>
 8    1  0.2502398E-006  0.9118800E+02  0.7816164E-02  0.1184000E+00
        -11   -1    0    0    0    0  0.00000000000E+00  0.00000000000E+00  0.45593999997E+02  0.45594000000E+02  0.51100000000E-03 0. -1.
         11   -1    0    0    0    0 -0.00000000000E+00 -0.00000000000E+00 -0.45593999997E+02  0.45594000000E+02  0.51100000000E-03 0.  1.
         23    2    1    2    0    0  0.00000000000E+00  0.00000000000E+00  0.00000000000E+00  0.91188000000E+02  0.91188000000E+02 0.  0.
    9900012    2    3    3    0    0 -0.26786990592E+02 -0.10768293051E+02 -0.22853471342E+02  0.54367079960E+02  0.39999990385E+02 0.  0.
         12    1    3    3    0    0  0.26786990592E+02  0.10768293051E+02  0.22853471342E+02  0.36820920040E+02  0.00000000000E+00 0. -1.
         11    1    4    4    0    0 -0.11678377295E+02  0.23831089340E+01 -0.16021220757E+02  0.19968555763E+02  0.51100000000E-03 0. -1.
        -11    1    4    4    0    0 -0.85761962165E+01  0.25612874330E+01 -0.13437083541E+02  0.16145171080E+02  0.51100000000E-03 0.  1.
         12    1    4    4    0    0 -0.65324170803E+01 -0.15712689418E+02  0.66048329560E+01  0.18253353117E+02  0.00000000000E+00 0. -1.
</event>
<event>
 8    1  0.2502398E-006  0.9118800E+02  0.7816164E-02  0.1184000E+00
        -11   -1    0    0    0    0  0.00000000000E+00  0.00000000000E+00  0.45593999997E+02  0.45594000000E+02  0.51100000000E-03 0.  1.
         11   -1    0    0    0    0 -0.00000000000E+00 -0.00000000000E+00 -0.45593999997E+02  0.45594000000E+02  0.51100000000E-03 0. -1.
         23    2    1    2    0    0  0.35527136788E-14  0.44408920985E-15  0.00000000000E+00  0.91188000000E+02  0.91188000000E+02 0.  0.
    9900012    2    3    3    0    0  0.30399920947E+02 -0.31722203324E+01 -0.20531968960E+02  0.54367083053E+02  0.39999997437E+02 0.  0.
         12    1    3    3    0    0 -0.30399920947E+02  0.31722203324E+01  0.20531968960E+02  0.36820916947E+02  0.00000000000E+00 0. -1.
         11    1    4    4    0    0  0.11575952142E+02 -0.76027797142E+01 -0.78213822334E+01  0.15905311932E+02  0.51100000000E-03 0. -1.
        -11    1    4    4    0    0  0.27314778765E+02  0.17877587736E+01 -0.88610162307E+01  0.28771701884E+02  0.51100000000E-03 0.  1.
         12    1    4    4    0    0 -0.84908099591E+01  0.26428006082E+01 -0.38495704954E+01  0.96900692368E+01  0.00000000000E+00 0. -1.
</event>
<event>
 8    1  0.2502398E-006  0.9118800E+02  0.7816164E-02  0.1184000E+00
        -11   -1    0    0    0    0  0.00000000000E+00  0.00000000000E+00  0.45593999997E+02  0.45594000000E+02  0.51100000000E-03 0.  1.
         11   -1    0    0    0    0 -0.00000000000E+00 -0.00000000000E+00 -0.45593999997E+02  0.45594000000E+02  0.51100000000E-03 0. -1.
         23    2    1    2    0    0 -0.17763568394E-14  0.22204460493E-15  0.00000000000E+00  0.91188000000E+02  0.91188000000E+02 0.  0.
    9900012    2    3    3    0    0 -0.11471442307E+02  0.11499364595E+01  0.34969458347E+02  0.54367090729E+02  0.40000014935E+02 0.  0.
         12    1    3    3    0    0  0.11471442307E+02 -0.11499364595E+01 -0.34969458347E+02  0.36820909271E+02  0.00000000000E+00 0. -1.
         11    1    4    4    0    0 -0.93474264763E+01 -0.72947302789E+01  0.87628736732E+01  0.14743657173E+02  0.51100000000E-03 0. -1.
        -11    1    4    4    0    0 -0.14046493247E+02  0.10191623330E+02  0.12586250543E+02  0.21437977088E+02  0.51100000000E-03 0.  1.
         12    1    4    4    0    0  0.11922477417E+02 -0.17469565918E+01  0.13620334131E+02  0.18185456467E+02  0.00000000000E+00 0. -1.
</event>
<event>
 8    1  0.2502398E-006  0.9118800E+02  0.7816164E-02  0.1184000E+00
        -11   -1    0    0    0    0  0.00000000000E+00  0.00000000000E+00  0.45593999997E+02  0.45594000000E+02  0.51100000000E-03 0.  1.
         11   -1    0    0    0    0 -0.00000000000E+00 -0.00000000000E+00 -0.45593999997E+02  0.45594000000E+02  0.51100000000E-03 0. -1.
         23    2    1    2    0    0  0.17763568394E-14  0.00000000000E+00 -0.17763568394E-14  0.91188000000E+02  0.91188000000E+02 0.  0.
    9900012    2    3    3    0    0 -0.12379147235E+02  0.34371868632E+02  0.45945575978E+01  0.54367101057E+02  0.40000038479E+02 0.  0.
         12    1    3    3    0    0  0.12379147235E+02 -0.34371868632E+02 -0.45945575978E+01  0.36820898943E+02  0.00000000000E+00 0. -1.
         11    1    4    4    0    0  0.10391950423E+02  0.50648335322E+01 -0.64525032178E+01  0.13239334211E+02  0.51100000000E-03 0. -1.
        -11    1    4    4    0    0 -0.12219727140E+01  0.10082513184E+02  0.60463694197E+01  0.11819850796E+02  0.51100000000E-03 0.  1.
         12    1    4    4    0    0 -0.21549124944E+02  0.19224521915E+02  0.50006913960E+01  0.29307916049E+02  0.00000000000E+00 0. -1.
</event>
<event>
 8    1  0.2502398E-006  0.9118800E+02  0.7816164E-02  0.1184000E+00
        -11   -1    0    0    0    0  0.00000000000E+00  0.00000000000E+00  0.45593999997E+02  0.45594000000E+02  0.51100000000E-03 0.  1.
         11   -1    0    0    0    0 -0.00000000000E+00 -0.00000000000E+00 -0.45593999997E+02  0.45594000000E+02  0.51100000000E-03 0. -1.
         23    2    1    2    0    0  0.00000000000E+00 -0.88817841970E-15 -0.35527136788E-14  0.91188000000E+02  0.91188000000E+02 0.  0.
    9900012    2    3    3    0    0 -0.19334372972E+02 -0.60525339518E+01 -0.30746194734E+02  0.54367086973E+02  0.40000006373E+02 0.  0.
        -12    1    3    3    0    0  0.19334372972E+02  0.60525339518E+01  0.30746194734E+02  0.36820913027E+02  0.00000000000E+00 0.  1.
         11    1    4    4    0    0 -0.19792500792E+02  0.24036900220E+01 -0.14461745048E+02  0.24630527469E+02  0.51100000000E-03 0. -1.
        -11    1    4    4    0    0  0.94227617203E+01 -0.18969162327E+01 -0.15951427427E+02  0.18623500392E+02  0.51100000000E-03 0.  1.
        -12    1    4    4    0    0 -0.89646339001E+01 -0.65593077411E+01 -0.33302226018E+00  0.11113059112E+02  0.00000000000E+00 0.  1.
</event>
<event>
 8    1  0.2502398E-006  0.9118800E+02  0.7816164E-02  0.1184000E+00
        -11   -1    0    0    0    0  0.00000000000E+00  0.00000000000E+00  0.45593999997E+02  0.45594000000E+02  0.51100000000E-03 0.  1.
         11   -1    0    0    0    0 -0.00000000000E+00 -0.00000000000E+00 -0.45593999997E+02  0.45594000000E+02  0.51100000000E-03 0. -1.
         23    2    1    2    0    0  0.00000000000E+00 -0.17763568394E-14 -0.35527136788E-14  0.91188000000E+02  0.91188000000E+02 0.  0.
    9900012    2    3    3    0    0  0.15560184626E+02  0.12230429097E+02  0.31049598870E+02  0.54367077531E+02  0.39999984848E+02 0.  0.
         12    1    3    3    0    0 -0.15560184626E+02 -0.12230429097E+02 -0.31049598870E+02  0.36820922469E+02  0.00000000000E+00 0. -1.
         11    1    4    4    0    0  0.30088323888E+00 -0.65716940919E+01 -0.48519758175E+00  0.65964468401E+01  0.51100000000E-03 0. -1.
        -11    1    4    4    0    0  0.15910608217E+01  0.41916814652E+01  0.26850737913E+02  0.27222486933E+02  0.51100000000E-03 0.  1.
         12    1    4    4    0    0  0.13668240566E+02  0.14610441724E+02  0.46840585379E+01  0.20548143758E+02  0.00000000000E+00 0. -1.
</event>
<event>
 8    1  0.2502398E-006  0.9118800E+02  0.7816164E-02  0.1184000E+00
        -11   -1    0    0    0    0  0.00000000000E+00  0.00000000000E+00  0.45593999997E+02  0.45594000000E+02  0.51100000000E-03 0. -1.
         11   -1    0    0    0    0 -0.00000000000E+00 -0.00000000000E+00 -0.45593999997E+02  0.45594000000E+02  0.51100000000E-03 0.  1.
         23    2    1    2    0    0  0.35527136788E-14 -0.13877787808E-14  0.00000000000E+00  0.91188000000E+02  0.91188000000E+02 0.  0.
    9900012    2    3    3    0    0  0.16544871160E+02  0.37312084452E+00 -0.32892357623E+02  0.54367093291E+02  0.40000020775E+02 0.  0.
         12    1    3    3    0    0 -0.16544871160E+02 -0.37312084452E+00  0.32892357623E+02  0.36820906709E+02  0.00000000000E+00 0. -1.
         11    1    4    4    0    0  0.90403690566E+01 -0.15255335235E+00 -0.69826592176E+01  0.11424056863E+02  0.51100000000E-03 0. -1.
        -11    1    4    4    0    0 -0.15219848197E+01  0.15729406489E+02 -0.16756930965E+02  0.23033137040E+02  0.51100000000E-03 0.  1.
        -12    1    4    4    0    0  0.90264869230E+01 -0.15203732292E+02 -0.91527674409E+01  0.19909899387E+02  0.00000000000E+00 0.  1.
</event>
<event>
 8    1  0.2502398E-006  0.9118800E+02  0.7816164E-02  0.1184000E+00
        -11   -1    0    0    0    0  0.00000000000E+00  0.00000000000E+00  0.45593999997E+02  0.45594000000E+02  0.51100000000E-03 0. -1.
         11   -1    0    0    0    0 -0.00000000000E+00 -0.00000000000E+00 -0.45593999997E+02  0.45594000000E+02  0.51100000000E-03 0.  1.
         23    2    1    2    0    0  0.00000000000E+00  0.00000000000E+00 -0.35527136788E-14  0.91188000000E+02  0.91188000000E+02 0.  0.
    9900012    2    3    3    0    0 -0.21803977188E+02  0.11951340708E+02 -0.27157552836E+02  0.54367073315E+02  0.39999975236E+02 0.  0.
         12    1    3    3    0    0  0.21803977188E+02 -0.11951340708E+02  0.27157552836E+02  0.36820926685E+02  0.00000000000E+00 0. -1.
         11    1    4    4    0    0  0.50926345984E+01  0.98984523783E+01 -0.64258383883E+01  0.12853236398E+02  0.51100000000E-03 0. -1.
        -11    1    4    4    0    0 -0.29020621751E+02  0.67409180894E+01 -0.13680370421E+02  0.32783974722E+02  0.51100000000E-03 0.  1.
        -12    1    4    4    0    0  0.21240099642E+01 -0.46880297597E+01 -0.70513440268E+01  0.87298621948E+01  0.00000000000E+00 0.  1.
</event>
<event>
 8    1  0.2502398E-006  0.9118800E+02  0.7816164E-02  0.1184000E+00
        -11   -1    0    0    0    0  0.00000000000E+00  0.00000000000E+00  0.45593999997E+02  0.45594000000E+02  0.51100000000E-03 0. -1.
         11   -1    0    0    0    0 -0.00000000000E+00 -0.00000000000E+00 -0.45593999997E+02  0.45594000000E+02  0.51100000000E-03 0.  1.
         23    2    1    2    0    0  0.88817841970E-15  0.00000000000E+00 -0.35527136788E-14  0.91188000000E+02  0.91188000000E+02 0.  0.
    9900012    2    3    3    0    0  0.13780107060E+01 -0.31098461556E+02 -0.19666295258E+02  0.54367131001E+02  0.40000106744E+02 0.  0.
         12    1    3    3    0    0 -0.13780107060E+01  0.31098461556E+02  0.19666295258E+02  0.36820868999E+02  0.00000000000E+00 0. -1.
         11    1    4    4    0    0  0.38446685150E+01 -0.37752221383E+02 -0.70236380143E+01  0.38592009361E+02  0.51100000000E-03 0. -1.
        -11    1    4    4    0    0  0.67559357063E+00  0.24537195443E+01 -0.90907658834E+01  0.94402961226E+01  0.51100000000E-03 0.  1.
         12    1    4    4    0    0 -0.31422513797E+01  0.42000402824E+01 -0.35518913600E+01  0.63348255177E+01  0.00000000000E+00 0. -1.
</event>
<event>
 8    1  0.2502398E-006  0.9118800E+02  0.7816164E-02  0.1184000E+00
        -11   -1    0    0    0    0  0.00000000000E+00  0.00000000000E+00  0.45593999997E+02  0.45594000000E+02  0.51100000000E-03 0. -1.
         11   -1    0    0    0    0 -0.00000000000E+00 -0.00000000000E+00 -0.45593999997E+02  0.45594000000E+02  0.51100000000E-03 0.  1.
         23    2    1    2    0    0  0.00000000000E+00  0.00000000000E+00 -0.35527136788E-14  0.91188000000E+02  0.91188000000E+02 0.  0.
    9900012    2    3    3    0    0 -0.31215390135E+02  0.10896397973E+02  0.16206406117E+02  0.54367086523E+02  0.40000005346E+02 0.  0.
        -12    1    3    3    0    0  0.31215390135E+02 -0.10896397973E+02 -0.16206406117E+02  0.36820913477E+02  0.00000000000E+00 0.  1.
         11    1    4    4    0    0 -0.30329154497E+00  0.88080874524E+01 -0.43034294145E+01  0.98078486589E+01  0.51100000000E-03 0.  1.
        -11    1    4    4    0    0 -0.12310874265E+01 -0.49619220522E+01 -0.31040845376E+01  0.59809353601E+01  0.51100000000E-03 0. -1.
         12    1    4    4    0    0 -0.29681011164E+02  0.70502325730E+01  0.23613920069E+02  0.38578302504E+02  0.00000000000E+00 0. -1.
</event>
<event>
 8    1  0.2502398E-006  0.9118800E+02  0.7816164E-02  0.1184000E+00
        -11   -1    0    0    0    0  0.00000000000E+00  0.00000000000E+00  0.45593999997E+02  0.45594000000E+02  0.51100000000E-03 0.  1.
         11   -1    0    0    0    0 -0.00000000000E+00 -0.00000000000E+00 -0.45593999997E+02  0.45594000000E+02  0.51100000000E-03 0. -1.
         23    2    1    2    0    0  0.00000000000E+00  0.00000000000E+00  0.00000000000E+00  0.91188000000E+02  0.91188000000E+02 0.  0.
    9900012    2    3    3    0    0  0.31468850075E+02 -0.99756634025E+01  0.16308827028E+02  0.54367078985E+02  0.39999988162E+02 0.  0.
         12    1    3    3    0    0 -0.31468850075E+02  0.99756634025E+01 -0.16308827028E+02  0.36820921015E+02  0.00000000000E+00 0. -1.
         11    1    4    4    0    0  0.33164626175E+01 -0.54560191349E+01  0.14887719994E+02  0.16199113431E+02  0.51100000000E-03 0.  1.
        -11    1    4    4    0    0  0.27389299699E+02 -0.12496233555E+02  0.57952858871E+00  0.30110885818E+02  0.51100000000E-03 0. -1.
         12    1    4    4    0    0  0.76308775818E+00  0.79765892877E+01  0.84157844594E+00  0.80570797359E+01  0.00000000000E+00 0. -1.
</event>
<event>
 8    1  0.2502398E-006  0.9118800E+02  0.7816164E-02  0.1184000E+00
        -11   -1    0    0    0    0  0.00000000000E+00  0.00000000000E+00  0.45593999997E+02  0.45594000000E+02  0.51100000000E-03 0. -1.
         11   -1    0    0    0    0 -0.00000000000E+00 -0.00000000000E+00 -0.45593999997E+02  0.45594000000E+02  0.51100000000E-03 0.  1.
         23    2    1    2    0    0  0.00000000000E+00  0.00000000000E+00  0.00000000000E+00  0.91188000000E+02  0.91188000000E+02 0.  0.
    9900012    2    3    3    0    0 -0.10704301646E+02 -0.21933568791E+02 -0.27569942080E+02  0.54367282735E+02  0.40000452648E+02 0.  0.
         12    1    3    3    0    0  0.10704301646E+02  0.21933568791E+02  0.27569942080E+02  0.36820717265E+02  0.00000000000E+00 0. -1.
         11    1    4    4    0    0 -0.17919954754E+02 -0.48505013054E+01 -0.26479694780E+02  0.32339238971E+02  0.51100000000E-03 0. -1.
        -11    1    4    4    0    0  0.75865179146E+01 -0.78884064851E+01 -0.49965535062E+01  0.12031116247E+02  0.51100000000E-03 0.  1.
        -12    1    4    4    0    0 -0.37086480592E+00 -0.91946610002E+01  0.39063062060E+01  0.99969275173E+01  0.00000000000E+00 0.  1.
</event>
<event>
 8    1  0.2502398E-006  0.9118800E+02  0.7816164E-02  0.1184000E+00
        -11   -1    0    0    0    0  0.00000000000E+00  0.00000000000E+00  0.45593999997E+02  0.45594000000E+02  0.51100000000E-03 0. -1.
         11   -1    0    0    0    0 -0.00000000000E+00 -0.00000000000E+00 -0.45593999997E+02  0.45594000000E+02  0.51100000000E-03 0.  1.
         23    2    1    2    0    0  0.17763568394E-14 -0.35527136788E-14  0.00000000000E+00  0.91188000000E+02  0.91188000000E+02 0.  0.
    9900012    2    3    3    0    0 -0.48150816242E+01  0.25209619375E+02  0.26402049437E+02  0.54367107363E+02  0.40000052855E+02 0.  0.
        -12    1    3    3    0    0  0.48150816242E+01 -0.25209619375E+02 -0.26402049437E+02  0.36820892637E+02  0.00000000000E+00 0.  1.
         11    1    4    4    0    0  0.35348336910E+01  0.16049129606E+01 -0.25786265394E+00  0.38906668122E+01  0.51100000000E-03 0. -1.
        -11    1    4    4    0    0  0.37230747818E+01  0.97037707353E+01 -0.67049951778E+01  0.12368565515E+02  0.51100000000E-03 0.  1.
         12    1    4    4    0    0 -0.12072990097E+02  0.13900935679E+02  0.33364907269E+02  0.38107875035E+02  0.00000000000E+00 0. -1.
</event>
<event>
 8    1  0.2502398E-006  0.9118800E+02  0.7816164E-02  0.1184000E+00
        -11   -1    0    0    0    0  0.00000000000E+00  0.00000000000E+00  0.45593999997E+02  0.45594000000E+02  0.51100000000E-03 0.  1.
         11   -1    0    0    0    0 -0.00000000000E+00 -0.00000000000E+00 -0.45593999997E+02  0.45594000000E+02  0.51100000000E-03 0. -1.
         23    2    1    2    0    0 -0.71054273576E-14  0.00000000000E+00  0.00000000000E+00  0.91188000000E+02  0.91188000000E+02 0.  0.
    9900012    2    3    3    0    0 -0.31437266678E+02 -0.10951407157E+02 -0.15733488386E+02  0.54367113105E+02  0.40000065946E+02 0.  0.
        -12    1    3    3    0    0  0.31437266678E+02  0.10951407157E+02  0.15733488386E+02  0.36820886895E+02  0.00000000000E+00 0.  1.
         11    1    4    4    0    0 -0.56146311625E+01  0.82901429547E+01  0.50597501538E+01  0.11218361074E+02  0.51100000000E-03 0. -1.
        -11    1    4    4    0    0  0.30341271769E+01 -0.66705237929E-02 -0.88365468659E+00  0.31601927295E+01  0.51100000000E-03 0.  1.
        -12    1    4    4    0    0 -0.28856762692E+02 -0.19234879588E+02 -0.19909583854E+02  0.39988559302E+02  0.00000000000E+00 0.  1.
</event>
<event>
 8    1  0.2502398E-006  0.9118800E+02  0.7816164E-02  0.1184000E+00
        -11   -1    0    0    0    0  0.00000000000E+00  0.00000000000E+00  0.45593999997E+02  0.45594000000E+02  0.51100000000E-03 0.  1.
         11   -1    0    0    0    0 -0.00000000000E+00 -0.00000000000E+00 -0.45593999997E+02  0.45594000000E+02  0.51100000000E-03 0. -1.
         23    2    1    2    0    0  0.44408920985E-15  0.35527136788E-14  0.00000000000E+00  0.91188000000E+02  0.91188000000E+02 0.  0.
    9900012    2    3    3    0    0 -0.15709232923E+01 -0.19681871275E+02 -0.31079517251E+02  0.54367078645E+02  0.39999987387E+02 0.  0.
        -12    1    3    3    0    0  0.15709232923E+01  0.19681871275E+02  0.31079517251E+02  0.36820921355E+02  0.00000000000E+00 0.  1.
         11    1    4    4    0    0 -0.98914548421E+01 -0.22047053335E+02 -0.15052256067E+02  0.28468998097E+02  0.51100000000E-03 0. -1.
        -11    1    4    4    0    0  0.43163142034E+01  0.80374572544E+01 -0.79462321006E+00  0.91576587469E+01  0.51100000000E-03 0.  1.
         12    1    4    4    0    0  0.40042173464E+01 -0.56722751939E+01 -0.15232637974E+02  0.16740421801E+02  0.00000000000E+00 0. -1.
</event>
<event>
 8    1  0.2502398E-006  0.9118800E+02  0.7816164E-02  0.1184000E+00
        -11   -1    0    0    0    0  0.00000000000E+00  0.00000000000E+00  0.45593999997E+02  0.45594000000E+02  0.51100000000E-03 0.  1.
         11   -1    0    0    0    0 -0.00000000000E+00 -0.00000000000E+00 -0.45593999997E+02  0.45594000000E+02  0.51100000000E-03 0. -1.
         23    2    1    2    0    0  0.00000000000E+00  0.00000000000E+00  0.35527136788E-14  0.91188000000E+02  0.91188000000E+02 0.  0.
    9900012    2    3    3    0    0  0.23872521454E+02 -0.20275944734E+02  0.19358955072E+02  0.54367077186E+02  0.39999984061E+02 0.  0.
         12    1    3    3    0    0 -0.23872521454E+02  0.20275944734E+02 -0.19358955072E+02  0.36820922814E+02  0.00000000000E+00 0. -1.
         11    1    4    4    0    0  0.10759804080E+02  0.50916083943E+01  0.11023500431E+01  0.11954624033E+02  0.51100000000E-03 0. -1.
        -11    1    4    4    0    0  0.45805288174E+01 -0.53858754810E+01  0.19407152945E+02  0.20654938505E+02  0.51100000000E-03 0.  1.
         12    1    4    4    0    0  0.85321885560E+01 -0.19981677647E+02 -0.11505479165E+01  0.21757514648E+02  0.00000000000E+00 0. -1.
</event>
<event>
 8    1  0.2502398E-006  0.9118800E+02  0.7816164E-02  0.1184000E+00
        -11   -1    0    0    0    0  0.00000000000E+00  0.00000000000E+00  0.45593999997E+02  0.45594000000E+02  0.51100000000E-03 0. -1.
         11   -1    0    0    0    0 -0.00000000000E+00 -0.00000000000E+00 -0.45593999997E+02  0.45594000000E+02  0.51100000000E-03 0.  1.
         23    2    1    2    0    0  0.00000000000E+00  0.00000000000E+00 -0.17763568394E-14  0.91188000000E+02  0.91188000000E+02 0.  0.
    9900012    2    3    3    0    0 -0.32805013921E+02 -0.61187819149E+01  0.15561826009E+02  0.54367097523E+02  0.40000030423E+02 0.  0.
        -12    1    3    3    0    0  0.32805013921E+02  0.61187819149E+01 -0.15561826009E+02  0.36820902477E+02  0.00000000000E+00 0.  1.
         11    1    4    4    0    0 -0.47424394662E+01 -0.12022690418E+02  0.19627324227E+02  0.23500376030E+02  0.51100000000E-03 0. -1.
        -11    1    4    4    0    0 -0.13570780571E+02 -0.22151970698E+01  0.61508070724E-01  0.13750526058E+02  0.51100000000E-03 0.  1.
        -12    1    4    4    0    0 -0.14491793884E+02  0.81191055726E+01 -0.41270062884E+01  0.17116195435E+02  0.00000000000E+00 0.  1.
</event>
<event>
 8    1  0.2502398E-006  0.9118800E+02  0.7816164E-02  0.1184000E+00
        -11   -1    0    0    0    0  0.00000000000E+00  0.00000000000E+00  0.45593999997E+02  0.45594000000E+02  0.51100000000E-03 0.  1.
         11   -1    0    0    0    0 -0.00000000000E+00 -0.00000000000E+00 -0.45593999997E+02  0.45594000000E+02  0.51100000000E-03 0. -1.
         23    2    1    2    0    0  0.00000000000E+00  0.35527136788E-14 -0.13322676296E-14  0.91188000000E+02  0.91188000000E+02 0.  0.
    9900012    2    3    3    0    0 -0.20192590113E+02 -0.30705160396E+02 -0.22874564708E+01  0.54367081658E+02  0.39999994257E+02 0.  0.
         12    1    3    3    0    0  0.20192590113E+02  0.30705160396E+02  0.22874564708E+01  0.36820918342E+02  0.00000000000E+00 0. -1.
         11    1    4    4    0    0 -0.23923494184E+01 -0.57956557722E+01  0.14046953579E+02  0.15382778250E+02  0.51100000000E-03 0. -1.
        -11    1    4    4    0    0 -0.10929523667E+02 -0.15510161404E+01 -0.46642436013E+01  0.11983960417E+02  0.51100000000E-03 0.  1.
        -12    1    4    4    0    0 -0.68707170272E+01 -0.23358488484E+02 -0.11670166448E+02  0.27000342991E+02  0.00000000000E+00 0.  1.
</event>
<event>
 8    1  0.2502398E-006  0.9118800E+02  0.7816164E-02  0.1184000E+00
        -11   -1    0    0    0    0  0.00000000000E+00  0.00000000000E+00  0.45593999997E+02  0.45594000000E+02  0.51100000000E-03 0. -1.
         11   -1    0    0    0    0 -0.00000000000E+00 -0.00000000000E+00 -0.45593999997E+02  0.45594000000E+02  0.51100000000E-03 0.  1.
         23    2    1    2    0    0  0.35527136788E-14  0.88817841970E-15  0.00000000000E+00  0.91188000000E+02  0.91188000000E+02 0.  0.
    9900012    2    3    3    0    0 -0.31538464751E+02  0.41295117062E+01  0.18548708306E+02  0.54367052082E+02  0.39999926831E+02 0.  0.
        -12    1    3    3    0    0  0.31538464751E+02 -0.41295117062E+01 -0.18548708306E+02  0.36820947918E+02  0.00000000000E+00 0.  1.
         11    1    4    4    0    0 -0.11056457977E+02  0.98418112568E+01  0.21442057806E+02  0.26055102284E+02  0.51100000000E-03 0. -1.
        -11    1    4    4    0    0  0.30325124820E+01 -0.33518552700E+01 -0.17541555743E+00  0.45234761615E+01  0.51100000000E-03 0.  1.
        -12    1    4    4    0    0 -0.23514519256E+02 -0.23604442806E+01 -0.27179339425E+01  0.23788473636E+02  0.00000000000E+00 0.  1.
</event>
<event>
 8    1  0.2502398E-006  0.9118800E+02  0.7816164E-02  0.1184000E+00
        -11   -1    0    0    0    0  0.00000000000E+00  0.00000000000E+00  0.45593999997E+02  0.45594000000E+02  0.51100000000E-03 0.  1.
         11   -1    0    0    0    0 -0.00000000000E+00 -0.00000000000E+00 -0.45593999997E+02  0.45594000000E+02  0.51100000000E-03 0. -1.
         23    2    1    2    0    0 -0.88817841970E-15  0.35527136788E-14  0.00000000000E+00  0.91188000000E+02  0.91188000000E+02 0.  0.
    9900012    2    3    3    0    0  0.76159903436E+01  0.25119239453E+02 -0.25822517243E+02  0.54367056281E+02  0.39999936403E+02 0.  0.
        -12    1    3    3    0    0 -0.76159903436E+01 -0.25119239453E+02  0.25822517243E+02  0.36820943719E+02  0.00000000000E+00 0.  1.
         11    1    4    4    0    0 -0.22746044273E+00 -0.49122075811E+01 -0.65723022199E+01  0.82083298121E+01  0.51100000000E-03 0. -1.
        -11    1    4    4    0    0  0.17496309946E+02  0.19058285958E+02 -0.62898743166E+01  0.26625206939E+02  0.51100000000E-03 0.  1.
        -12    1    4    4    0    0 -0.96528591601E+01  0.10973161076E+02 -0.12960340706E+02  0.19533519529E+02  0.00000000000E+00 0.  1.
</event>
<event>
 8    1  0.2502398E-006  0.9118800E+02  0.7816164E-02  0.1184000E+00
        -11   -1    0    0    0    0  0.00000000000E+00  0.00000000000E+00  0.45593999997E+02  0.45594000000E+02  0.51100000000E-03 0. -1.
         11   -1    0    0    0    0 -0.00000000000E+00 -0.00000000000E+00 -0.45593999997E+02  0.45594000000E+02  0.51100000000E-03 0.  1.
         23    2    1    2    0    0  0.00000000000E+00  0.00000000000E+00 -0.35527136788E-14  0.91188000000E+02  0.91188000000E+02 0.  0.
    9900012    2    3    3    0    0  0.26482398651E+02  0.66564154678E+01  0.24701316827E+02  0.54367077168E+02  0.39999984021E+02 0.  0.
        -12    1    3    3    0    0 -0.26482398651E+02 -0.66564154678E+01 -0.24701316827E+02  0.36820922832E+02  0.00000000000E+00 0.  1.
         11    1    4    4    0    0  0.18105411674E+02  0.38889685691E+01  0.11703691012E+02  0.21906765895E+02  0.51100000000E-03 0. -1.
        -11    1    4    4    0    0 -0.62684368529E+01 -0.64278801489E+01  0.12201900162E+02  0.15149168677E+02  0.51100000000E-03 0.  1.
        -12    1    4    4    0    0  0.14645423830E+02  0.91953270476E+01  0.79572565308E+00  0.17311142596E+02  0.00000000000E+00 0.  1.
</event>
<event>
 8    1  0.2502398E-006  0.9118800E+02  0.7816164E-02  0.1184000E+00
        -11   -1    0    0    0    0  0.00000000000E+00  0.00000000000E+00  0.45593999997E+02  0.45594000000E+02  0.51100000000E-03 0.  1.
         11   -1    0    0    0    0 -0.00000000000E+00 -0.00000000000E+00 -0.45593999997E+02  0.45594000000E+02  0.51100000000E-03 0. -1.
         23    2    1    2    0    0  0.22204460493E-15  0.35527136788E-14  0.00000000000E+00  0.91188000000E+02  0.91188000000E+02 0.  0.
    9900012    2    3    3    0    0  0.15365694407E+01  0.22983776722E+02  0.28725672644E+02  0.54367091444E+02  0.40000016564E+02 0.  0.
         12    1    3    3    0    0 -0.15365694407E+01 -0.22983776722E+02 -0.28725672644E+02  0.36820908556E+02  0.00000000000E+00 0. -1.
         11    1    4    4    0    0  0.25495231556E+01  0.12053506400E+02  0.63720569114E+01  0.13870479242E+02  0.51100000000E-03 0. -1.
        -11    1    4    4    0    0 -0.85524394161E+00  0.61264094812E+01  0.30454922481E+02  0.31076786174E+02  0.51100000000E-03 0.  1.
         12    1    4    4    0    0 -0.15770977331E+00  0.48038608406E+01 -0.81013067487E+01  0.94198260273E+01  0.00000000000E+00 0. -1.
</event>
<event>
 8    1  0.2502398E-006  0.9118800E+02  0.7816164E-02  0.1184000E+00
        -11   -1    0    0    0    0  0.00000000000E+00  0.00000000000E+00  0.45593999997E+02  0.45594000000E+02  0.51100000000E-03 0.  1.
         11   -1    0    0    0    0 -0.00000000000E+00 -0.00000000000E+00 -0.45593999997E+02  0.45594000000E+02  0.51100000000E-03 0. -1.
         23    2    1    2    0    0  0.00000000000E+00  0.00000000000E+00  0.00000000000E+00  0.91188000000E+02  0.91188000000E+02 0.  0.
    9900012    2    3    3    0    0  0.18686167121E+02 -0.16277783126E+02 -0.27233060532E+02  0.54367100349E+02  0.40000036865E+02 0.  0.
        -12    1    3    3    0    0 -0.18686167121E+02  0.16277783126E+02  0.27233060532E+02  0.36820899651E+02  0.00000000000E+00 0.  1.
         11    1    4    4    0    0  0.14377447306E+02 -0.21244294966E+02 -0.91114379247E+01  0.27222221822E+02  0.51100000000E-03 0. -1.
        -11    1    4    4    0    0 -0.36723143118E+01 -0.34626642467E+01 -0.13908223155E+02  0.14795763166E+02  0.51100000000E-03 0.  1.
        -12    1    4    4    0    0  0.79810341268E+01  0.84291760861E+01 -0.42133994525E+01  0.12349115360E+02  0.00000000000E+00 0.  1.
</event>
<event>
 8    1  0.2502398E-006  0.9118800E+02  0.7816164E-02  0.1184000E+00
        -11   -1    0    0    0    0  0.00000000000E+00  0.00000000000E+00  0.45593999997E+02  0.45594000000E+02  0.51100000000E-03 0.  1.
         11   -1    0    0    0    0 -0.00000000000E+00 -0.00000000000E+00 -0.45593999997E+02  0.45594000000E+02  0.51100000000E-03 0. -1.
         23    2    1    2    0    0  0.35527136788E-14  0.17763568394E-14  0.35527136788E-14  0.91188000000E+02  0.91188000000E+02 0.  0.
    9900012    2    3    3    0    0 -0.29539671828E+02 -0.93689826088E+01 -0.19884920542E+02  0.54367080514E+02  0.39999991649E+02 0.  0.
        -12    1    3    3    0    0  0.29539671828E+02  0.93689826088E+01  0.19884920542E+02  0.36820919486E+02  0.00000000000E+00 0.  1.
         11    1    4    4    0    0 -0.18968493901E+02 -0.13247239072E+02 -0.55893963683E+01  0.23801984285E+02  0.51100000000E-03 0.  1.
        -11    1    4    4    0    0 -0.97281849770E+01  0.10394798475E+02 -0.18056487341E+02  0.22994046047E+02  0.51100000000E-03 0. -1.
        -12    1    4    4    0    0 -0.84299294943E+00 -0.65165420119E+01  0.37609631673E+01  0.75710501815E+01  0.00000000000E+00 0.  1.
</event>
<event>
 8    1  0.2502398E-006  0.9118800E+02  0.7816164E-02  0.1184000E+00
        -11   -1    0    0    0    0  0.00000000000E+00  0.00000000000E+00  0.45593999997E+02  0.45594000000E+02  0.51100000000E-03 0.  1.
         11   -1    0    0    0    0 -0.00000000000E+00 -0.00000000000E+00 -0.45593999997E+02  0.45594000000E+02  0.51100000000E-03 0. -1.
         23    2    1    2    0    0  0.35527136788E-14 -0.35527136788E-14  0.35527136788E-14  0.91188000000E+02  0.91188000000E+02 0.  0.
    9900012    2    3    3    0    0 -0.17213432396E+02  0.24739074882E+02 -0.21153177811E+02  0.54367068285E+02  0.39999963769E+02 0.  0.
        -12    1    3    3    0    0  0.17213432396E+02 -0.24739074882E+02  0.21153177811E+02  0.36820931715E+02  0.00000000000E+00 0.  1.
         11    1    4    4    0    0 -0.16133264385E+02  0.57297181994E+01 -0.54881390918E+01  0.17978641809E+02  0.51100000000E-03 0. -1.
        -11    1    4    4    0    0  0.42576778594E+01  0.20990267237E+02 -0.19113524555E+01  0.21502846507E+02  0.51100000000E-03 0.  1.
        -12    1    4    4    0    0 -0.53378458709E+01 -0.19809105541E+01 -0.13753686264E+02  0.14885579969E+02  0.00000000000E+00 0.  1.
</event>
<event>
 8    1  0.2502398E-006  0.9118800E+02  0.7816164E-02  0.1184000E+00
        -11   -1    0    0    0    0  0.00000000000E+00  0.00000000000E+00  0.45593999997E+02  0.45594000000E+02  0.51100000000E-03 0.  1.
         11   -1    0    0    0    0 -0.00000000000E+00 -0.00000000000E+00 -0.45593999997E+02  0.45594000000E+02  0.51100000000E-03 0. -1.
         23    2    1    2    0    0  0.00000000000E+00 -0.17763568394E-14  0.00000000000E+00  0.91188000000E+02  0.91188000000E+02 0.  0.
    9900012    2    3    3    0    0  0.21534822563E+02 -0.15794640585E+02  0.25348813782E+02  0.54367060112E+02  0.39999945138E+02 0.  0.
         12    1    3    3    0    0 -0.21534822563E+02  0.15794640585E+02 -0.25348813782E+02  0.36820939888E+02  0.00000000000E+00 0. -1.
         11    1    4    4    0    0 -0.20999776625E+01  0.75466041999E+01  0.68493061420E+01  0.10405485862E+02  0.51100000000E-03 0. -1.
        -11    1    4    4    0    0 -0.28065028647E+01  0.17153131310E+01  0.26988904278E+01  0.42547346885E+01  0.51100000000E-03 0.  1.
        -12    1    4    4    0    0  0.26441303091E+02 -0.25056557916E+02  0.15800617213E+02  0.39706839562E+02  0.00000000000E+00 0.  1.
</event>
<event>
 8    1  0.2502398E-006  0.9118800E+02  0.7816164E-02  0.1184000E+00
        -11   -1    0    0    0    0  0.00000000000E+00  0.00000000000E+00  0.45593999997E+02  0.45594000000E+02  0.51100000000E-03 0. -1.
         11   -1    0    0    0    0 -0.00000000000E+00 -0.00000000000E+00 -0.45593999997E+02  0.45594000000E+02  0.51100000000E-03 0.  1.
         23    2    1    2    0    0  0.00000000000E+00  0.00000000000E+00  0.00000000000E+00  0.91188000000E+02  0.91188000000E+02 0.  0.
    9900012    2    3    3    0    0 -0.32453434547E+02 -0.17147686246E+02 -0.29175381564E+01  0.54367074069E+02  0.39999976955E+02 0.  0.
         12    1    3    3    0    0  0.32453434547E+02  0.17147686246E+02  0.29175381564E+01  0.36820925931E+02  0.00000000000E+00 0. -1.
         11    1    4    4    0    0 -0.22175109563E+02 -0.16215188234E+02  0.82222524249E+01  0.28675307301E+02  0.51100000000E-03 0. -1.
        -11    1    4    4    0    0 -0.83036602726E+01 -0.40783642482E+01  0.40176349481E+01  0.10085892112E+02  0.51100000000E-03 0.  1.
         12    1    4    4    0    0 -0.19746647114E+01  0.31458662358E+01 -0.15157425529E+02  0.15605874656E+02  0.00000000000E+00 0. -1.
</event>
<event>
 8    1  0.2502398E-006  0.9118800E+02  0.7816164E-02  0.1184000E+00
        -11   -1    0    0    0    0  0.00000000000E+00  0.00000000000E+00  0.45593999997E+02  0.45594000000E+02  0.51100000000E-03 0. -1.
         11   -1    0    0    0    0 -0.00000000000E+00 -0.00000000000E+00 -0.45593999997E+02  0.45594000000E+02  0.51100000000E-03 0.  1.
         23    2    1    2    0    0 -0.41633363423E-15  0.35527136788E-14  0.00000000000E+00  0.91188000000E+02  0.91188000000E+02 0.  0.
    9900012    2    3    3    0    0  0.78201620928E-01  0.24175398746E+02  0.27772713045E+02  0.54367087329E+02  0.40000007184E+02 0.  0.
        -12    1    3    3    0    0 -0.78201620928E-01 -0.24175398746E+02 -0.27772713045E+02  0.36820912671E+02  0.00000000000E+00 0.  1.
         11    1    4    4    0    0 -0.19628729751E+01  0.12603773358E+02  0.15833688873E+01  0.12853599904E+02  0.51100000000E-03 0. -1.
        -11    1    4    4    0    0  0.12771056142E+02  0.16100895187E+02  0.16159078174E+02  0.26142962887E+02  0.51100000000E-03 0.  1.
        -12    1    4    4    0    0 -0.10729981546E+02 -0.45292697992E+01  0.10030265984E+02  0.15370524539E+02  0.00000000000E+00 0.  1.
</event>
<event>
 8    1  0.2502398E-006  0.9118800E+02  0.7816164E-02  0.1184000E+00
        -11   -1    0    0    0    0  0.00000000000E+00  0.00000000000E+00  0.45593999997E+02  0.45594000000E+02  0.51100000000E-03 0.  1.
         11   -1    0    0    0    0 -0.00000000000E+00 -0.00000000000E+00 -0.45593999997E+02  0.45594000000E+02  0.51100000000E-03 0. -1.
         23    2    1    2    0    0  0.00000000000E+00 -0.13322676296E-14 -0.35527136788E-14  0.91188000000E+02  0.91188000000E+02 0.  0.
    9900012    2    3    3    0    0 -0.20091913759E+02 -0.16376183505E+01 -0.30812543478E+02  0.54367087084E+02  0.40000006626E+02 0.  0.
        -12    1    3    3    0    0  0.20091913759E+02  0.16376183505E+01  0.30812543478E+02  0.36820912916E+02  0.00000000000E+00 0.  1.
         11    1    4    4    0    0 -0.22134223340E+02 -0.32878138719E+01 -0.20727678185E+02  0.30501970529E+02  0.51100000000E-03 0. -1.
        -11    1    4    4    0    0  0.55461704697E+00 -0.77517065785E+01  0.24290586650E+01  0.81422896784E+01  0.51100000000E-03 0.  1.
        -12    1    4    4    0    0  0.14876925345E+01  0.94019020999E+01 -0.12513923958E+02  0.15722826877E+02  0.00000000000E+00 0.  1.
</event>
<event>
 8    1  0.2502398E-006  0.9118800E+02  0.7816164E-02  0.1184000E+00
        -11   -1    0    0    0    0  0.00000000000E+00  0.00000000000E+00  0.45593999997E+02  0.45594000000E+02  0.51100000000E-03 0.  1.
         11   -1    0    0    0    0 -0.00000000000E+00 -0.00000000000E+00 -0.45593999997E+02  0.45594000000E+02  0.51100000000E-03 0. -1.
         23    2    1    2    0    0  0.35527136788E-14 -0.35527136788E-14  0.00000000000E+00  0.91188000000E+02  0.91188000000E+02 0.  0.
    9900012    2    3    3    0    0  0.17950727681E+02 -0.20115646379E+02  0.25078121348E+02  0.54367081708E+02  0.39999994369E+02 0.  0.
         12    1    3    3    0    0 -0.17950727681E+02  0.20115646379E+02 -0.25078121348E+02  0.36820918292E+02  0.00000000000E+00 0. -1.
         11    1    4    4    0    0 -0.11277553330E+02 -0.49508832245E+01  0.50401311694E+01  0.13307793817E+02  0.51100000000E-03 0. -1.
        -11    1    4    4    0    0 -0.28920444504E+00  0.49054676977E+00  0.39227158629E+01  0.39638334156E+01  0.51100000000E-03 0.  1.
         12    1    4    4    0    0  0.29517485456E+02 -0.15655309924E+02  0.16115274316E+02  0.37095454475E+02  0.00000000000E+00 0. -1.
</event>
<event>
 8    1  0.2502398E-006  0.9118800E+02  0.7816164E-02  0.1184000E+00
        -11   -1    0    0    0    0  0.00000000000E+00  0.00000000000E+00  0.45593999997E+02  0.45594000000E+02  0.51100000000E-03 0.  1.
         11   -1    0    0    0    0 -0.00000000000E+00 -0.00000000000E+00 -0.45593999997E+02  0.45594000000E+02  0.51100000000E-03 0. -1.
         23    2    1    2    0    0 -0.17763568394E-14  0.00000000000E+00  0.00000000000E+00  0.91188000000E+02  0.91188000000E+02 0.  0.
    9900012    2    3    3    0    0  0.11886676670E+02 -0.94046819984E+01  0.33556499972E+02  0.54367084529E+02  0.40000000801E+02 0.  0.
         12    1    3    3    0    0 -0.11886676670E+02  0.94046819984E+01 -0.33556499972E+02  0.36820915471E+02  0.00000000000E+00 0. -1.
         11    1    4    4    0    0 -0.82039460027E+00  0.38926084452E+00  0.22792220341E+01  0.24534515783E+01  0.51100000000E-03 0. -1.
        -11    1    4    4    0    0  0.23625568476E+02 -0.14983782209E+02  0.27546649097E+02  0.39261929294E+02  0.51100000000E-03 0.  1.
        -12    1    4    4    0    0 -0.10918497206E+02  0.51898393661E+01  0.37306288405E+01  0.12651703657E+02  0.00000000000E+00 0.  1.
</event>
<event>
 8    1  0.2502398E-006  0.9118800E+02  0.7816164E-02  0.1184000E+00
        -11   -1    0    0    0    0  0.00000000000E+00  0.00000000000E+00  0.45593999997E+02  0.45594000000E+02  0.51100000000E-03 0. -1.
         11   -1    0    0    0    0 -0.00000000000E+00 -0.00000000000E+00 -0.45593999997E+02  0.45594000000E+02  0.51100000000E-03 0.  1.
         23    2    1    2    0    0  0.00000000000E+00  0.00000000000E+00  0.00000000000E+00  0.91188000000E+02  0.91188000000E+02 0.  0.
    9900012    2    3    3    0    0  0.16856770817E+02  0.11470606353E+02 -0.30660293205E+02  0.54367094092E+02  0.40000022602E+02 0.  0.
         12    1    3    3    0    0 -0.16856770817E+02 -0.11470606353E+02  0.30660293205E+02  0.36820905908E+02  0.00000000000E+00 0. -1.
         11    1    4    4    0    0 -0.58926645983E+01 -0.86248301102E+01 -0.70064627981E+01  0.12577826191E+02  0.51100000000E-03 0. -1.
        -11    1    4    4    0    0  0.18354656349E+02  0.13899842837E+02 -0.79726590588E+01  0.24365186913E+02  0.51100000000E-03 0.  1.
        -12    1    4    4    0    0  0.43947790670E+01  0.61955936256E+01 -0.15681171348E+02  0.17424080987E+02  0.00000000000E+00 0.  1.
</event>
<event>
 8    1  0.2502398E-006  0.9118800E+02  0.7816164E-02  0.1184000E+00
        -11   -1    0    0    0    0  0.00000000000E+00  0.00000000000E+00  0.45593999997E+02  0.45594000000E+02  0.51100000000E-03 0. -1.
         11   -1    0    0    0    0 -0.00000000000E+00 -0.00000000000E+00 -0.45593999997E+02  0.45594000000E+02  0.51100000000E-03 0.  1.
         23    2    1    2    0    0  0.00000000000E+00 -0.35527136788E-14  0.10658141036E-13  0.91188000000E+02  0.91188000000E+02 0.  0.
    9900012    2    3    3    0    0 -0.93720948559E+01  0.16272339269E+02 -0.31672643555E+02  0.54367061160E+02  0.39999947527E+02 0.  0.
         12    1    3    3    0    0  0.93720948559E+01 -0.16272339269E+02  0.31672643555E+02  0.36820938840E+02  0.00000000000E+00 0. -1.
         11    1    4    4    0    0 -0.15352562609E+02 -0.13170869256E+01 -0.24732651849E+02  0.29140006252E+02  0.51100000000E-03 0. -1.
        -11    1    4    4    0    0  0.18761882450E+01  0.83767016490E+00 -0.76937377164E+01  0.79633770440E+01  0.51100000000E-03 0.  1.
        -12    1    4    4    0    0  0.41042795078E+01  0.16751756030E+02  0.75374601013E+00  0.17263677864E+02  0.00000000000E+00 0.  1.
</event>
<event>
 8    1  0.2502398E-006  0.9118800E+02  0.7816164E-02  0.1184000E+00
        -11   -1    0    0    0    0  0.00000000000E+00  0.00000000000E+00  0.45593999997E+02  0.45594000000E+02  0.51100000000E-03 0.  1.
         11   -1    0    0    0    0 -0.00000000000E+00 -0.00000000000E+00 -0.45593999997E+02  0.45594000000E+02  0.51100000000E-03 0. -1.
         23    2    1    2    0    0 -0.17763568394E-14  0.00000000000E+00  0.00000000000E+00  0.91188000000E+02  0.91188000000E+02 0.  0.
    9900012    2    3    3    0    0  0.10366753353E+02 -0.22357504047E+02  0.27357833512E+02  0.54367100815E+02  0.40000037929E+02 0.  0.
         12    1    3    3    0    0 -0.10366753353E+02  0.22357504047E+02 -0.27357833512E+02  0.36820899185E+02  0.00000000000E+00 0. -1.
         11    1    4    4    0    0  0.13935643871E+02 -0.36936421633E+01 -0.48472768140E+01  0.15209906485E+02  0.51100000000E-03 0. -1.
        -11    1    4    4    0    0 -0.15059590566E+01 -0.12858441456E+02  0.10727239043E+02  0.16813122468E+02  0.51100000000E-03 0.  1.
         12    1    4    4    0    0 -0.20629314610E+01 -0.58054204277E+01  0.21477871282E+02  0.22344071862E+02  0.00000000000E+00 0. -1.
</event>
<event>
 8    1  0.2502398E-006  0.9118800E+02  0.7816164E-02  0.1184000E+00
        -11   -1    0    0    0    0  0.00000000000E+00  0.00000000000E+00  0.45593999997E+02  0.45594000000E+02  0.51100000000E-03 0.  1.
         11   -1    0    0    0    0 -0.00000000000E+00 -0.00000000000E+00 -0.45593999997E+02  0.45594000000E+02  0.51100000000E-03 0. -1.
         23    2    1    2    0    0  0.00000000000E+00  0.00000000000E+00  0.17763568394E-14  0.91188000000E+02  0.91188000000E+02 0.  0.
    9900012    2    3    3    0    0  0.21918245945E+02  0.26107573517E+02  0.13919934914E+02  0.54367088981E+02  0.40000010950E+02 0.  0.
         12    1    3    3    0    0 -0.21918245945E+02 -0.26107573517E+02 -0.13919934914E+02  0.36820911019E+02  0.00000000000E+00 0. -1.
         11    1    4    4    0    0 -0.17772609448E+01  0.16189622797E+01 -0.74538586119E+01  0.78319667898E+01  0.51100000000E-03 0. -1.
        -11    1    4    4    0    0  0.83066484106E+00  0.17064675008E+02  0.65812931298E+01  0.18308647048E+02  0.51100000000E-03 0.  1.
         12    1    4    4    0    0  0.22864842049E+02  0.74239362292E+01  0.14792500396E+02  0.28226475143E+02  0.00000000000E+00 0. -1.
</event>
<event>
 8    1  0.2502398E-006  0.9118800E+02  0.7816164E-02  0.1184000E+00
        -11   -1    0    0    0    0  0.00000000000E+00  0.00000000000E+00  0.45593999997E+02  0.45594000000E+02  0.51100000000E-03 0.  1.
         11   -1    0    0    0    0 -0.00000000000E+00 -0.00000000000E+00 -0.45593999997E+02  0.45594000000E+02  0.51100000000E-03 0. -1.
         23    2    1    2    0    0 -0.17763568394E-14  0.35527136788E-14  0.00000000000E+00  0.91188000000E+02  0.91188000000E+02 0.  0.
    9900012    2    3    3    0    0 -0.10147143861E+02  0.31638579085E+02 -0.15868704517E+02  0.54367082058E+02  0.39999995168E+02 0.  0.
        -12    1    3    3    0    0  0.10147143861E+02 -0.31638579085E+02  0.15868704517E+02  0.36820917942E+02  0.00000000000E+00 0.  1.
         11    1    4    4    0    0 -0.72843631951E+01  0.86458274445E+01 -0.17307004734E+02  0.20672317056E+02  0.51100000000E-03 0. -1.
        -11    1    4    4    0    0 -0.84288160567E+01  0.22821305234E+02  0.75053507455E+01  0.25459520867E+02  0.51100000000E-03 0.  1.
        -12    1    4    4    0    0  0.55660353910E+01  0.17144640652E+00 -0.60670505289E+01  0.82352441351E+01  0.00000000000E+00 0.  1.
</event>
<event>
 8    1  0.2502398E-006  0.9118800E+02  0.7816164E-02  0.1184000E+00
        -11   -1    0    0    0    0  0.00000000000E+00  0.00000000000E+00  0.45593999997E+02  0.45594000000E+02  0.51100000000E-03 0. -1.
         11   -1    0    0    0    0 -0.00000000000E+00 -0.00000000000E+00 -0.45593999997E+02  0.45594000000E+02  0.51100000000E-03 0.  1.
         23    2    1    2    0    0  0.00000000000E+00  0.00000000000E+00  0.35527136788E-14  0.91188000000E+02  0.91188000000E+02 0.  0.
    9900012    2    3    3    0    0  0.15194528183E+02  0.26840281191E+02  0.20112299881E+02  0.54367095780E+02  0.40000026449E+02 0.  0.
        -12    1    3    3    0    0 -0.15194528183E+02 -0.26840281191E+02 -0.20112299881E+02  0.36820904220E+02  0.00000000000E+00 0.  1.
         11    1    4    4    0    0  0.13085864171E+01  0.18558729184E+02  0.22894856392E+02  0.29501072468E+02  0.51100000000E-03 0. -1.
        -11    1    4    4    0    0  0.87110588181E+01  0.13909309515E+02 -0.45256952755E+01  0.17024492795E+02  0.51100000000E-03 0.  1.
        -12    1    4    4    0    0  0.51748829476E+01 -0.56277575080E+01  0.17431387646E+01  0.78415305166E+01  0.00000000000E+00 0.  1.
</event>
<event>
 8    1  0.2502398E-006  0.9118800E+02  0.7816164E-02  0.1184000E+00
        -11   -1    0    0    0    0  0.00000000000E+00  0.00000000000E+00  0.45593999997E+02  0.45594000000E+02  0.51100000000E-03 0. -1.
         11   -1    0    0    0    0 -0.00000000000E+00 -0.00000000000E+00 -0.45593999997E+02  0.45594000000E+02  0.51100000000E-03 0.  1.
         23    2    1    2    0    0  0.00000000000E+00  0.00000000000E+00  0.00000000000E+00  0.91188000000E+02  0.91188000000E+02 0.  0.
    9900012    2    3    3    0    0  0.14178702320E+02 -0.30730150792E+02  0.14505273276E+02  0.54367072255E+02  0.39999972820E+02 0.  0.
        -12    1    3    3    0    0 -0.14178702320E+02  0.30730150792E+02 -0.14505273276E+02  0.36820927745E+02  0.00000000000E+00 0.  1.
         11    1    4    4    0    0  0.24022728835E+02 -0.19124093780E+02  0.18269071553E+02  0.35729279859E+02  0.51100000000E-03 0. -1.
        -11    1    4    4    0    0 -0.31048209371E+01  0.15426895785E+01 -0.45557705735E+00  0.34967634898E+01  0.51100000000E-03 0.  1.
         12    1    4    4    0    0 -0.67392055775E+01 -0.13148746590E+02 -0.33082212192E+01  0.15141028907E+02  0.00000000000E+00 0. -1.
</event>
<event>
 8    1  0.2502398E-006  0.9118800E+02  0.7816164E-02  0.1184000E+00
        -11   -1    0    0    0    0  0.00000000000E+00  0.00000000000E+00  0.45593999997E+02  0.45594000000E+02  0.51100000000E-03 0.  1.
         11   -1    0    0    0    0 -0.00000000000E+00 -0.00000000000E+00 -0.45593999997E+02  0.45594000000E+02  0.51100000000E-03 0. -1.
         23    2    1    2    0    0  0.00000000000E+00  0.00000000000E+00  0.00000000000E+00  0.91188000000E+02  0.91188000000E+02 0.  0.
    9900012    2    3    3    0    0  0.31290714372E+02  0.16955771062E+02  0.94431718471E+01  0.54367075613E+02  0.39999980475E+02 0.  0.
         12    1    3    3    0    0 -0.31290714372E+02 -0.16955771062E+02 -0.94431718471E+01  0.36820924387E+02  0.00000000000E+00 0. -1.
         11    1    4    4    0    0  0.27780947236E+02  0.28494419952E+01  0.33669408673E+00  0.27928725574E+02  0.51100000000E-03 0. -1.
        -11    1    4    4    0    0  0.66351650935E+01  0.17422111132E+02  0.10837520680E+02  0.21564026221E+02  0.51100000000E-03 0.  1.
         12    1    4    4    0    0 -0.31253979580E+01 -0.33157820647E+01 -0.17310429193E+01  0.48743238182E+01  0.00000000000E+00 0. -1.
</event>
<event>
 8    1  0.2502398E-006  0.9118800E+02  0.7816164E-02  0.1184000E+00
        -11   -1    0    0    0    0  0.00000000000E+00  0.00000000000E+00  0.45593999997E+02  0.45594000000E+02  0.51100000000E-03 0. -1.
         11   -1    0    0    0    0 -0.00000000000E+00 -0.00000000000E+00 -0.45593999997E+02  0.45594000000E+02  0.51100000000E-03 0.  1.
         23    2    1    2    0    0  0.00000000000E+00  0.00000000000E+00  0.00000000000E+00  0.91188000000E+02  0.91188000000E+02 0.  0.
    9900012    2    3    3    0    0  0.97365152585E+01  0.98859497309E+01  0.34106406101E+02  0.54367100112E+02  0.40000036325E+02 0.  0.
        -12    1    3    3    0    0 -0.97365152585E+01 -0.98859497309E+01 -0.34106406101E+02  0.36820899888E+02  0.00000000000E+00 0.  1.
         11    1    4    4    0    0 -0.61897433447E+01 -0.80812056853E+01  0.26975444897E+02  0.28832159747E+02  0.51100000000E-03 0. -1.
        -11    1    4    4    0    0  0.90085077299E+01  0.13583000520E+02  0.41451649737E+01  0.16817654639E+02  0.51100000000E-03 0.  1.
        -12    1    4    4    0    0  0.69177508733E+01  0.43841548964E+01  0.29857962299E+01  0.87172857259E+01  0.00000000000E+00 0.  1.
</event>
<event>
 8    1  0.2502398E-006  0.9118800E+02  0.7816164E-02  0.1184000E+00
        -11   -1    0    0    0    0  0.00000000000E+00  0.00000000000E+00  0.45593999997E+02  0.45594000000E+02  0.51100000000E-03 0.  1.
         11   -1    0    0    0    0 -0.00000000000E+00 -0.00000000000E+00 -0.45593999997E+02  0.45594000000E+02  0.51100000000E-03 0. -1.
         23    2    1    2    0    0  0.00000000000E+00  0.00000000000E+00  0.00000000000E+00  0.91188000000E+02  0.91188000000E+02 0.  0.
    9900012    2    3    3    0    0 -0.21778841148E+02 -0.25057250768E+02  0.15924710593E+02  0.54367080059E+02  0.39999990611E+02 0.  0.
         12    1    3    3    0    0  0.21778841148E+02  0.25057250768E+02 -0.15924710593E+02  0.36820919941E+02  0.00000000000E+00 0. -1.
         11    1    4    4    0    0  0.33438837907E+01  0.26026815281E+00  0.12408687567E+01  0.35761786658E+01  0.51100000000E-03 0. -1.
        -11    1    4    4    0    0 -0.60542614110E+01 -0.28608369597E+02  0.79657667856E+01  0.30307529311E+02  0.51100000000E-03 0.  1.
        -12    1    4    4    0    0 -0.19068463528E+02  0.32908506758E+01  0.67180750506E+01  0.20483372082E+02  0.00000000000E+00 0.  1.
</event>
<event>
 8    1  0.2502398E-006  0.9118800E+02  0.7816164E-02  0.1184000E+00
        -11   -1    0    0    0    0  0.00000000000E+00  0.00000000000E+00  0.45593999997E+02  0.45594000000E+02  0.51100000000E-03 0.  1.
         11   -1    0    0    0    0 -0.00000000000E+00 -0.00000000000E+00 -0.45593999997E+02  0.45594000000E+02  0.51100000000E-03 0. -1.
         23    2    1    2    0    0  0.88817841970E-15  0.00000000000E+00  0.00000000000E+00  0.91188000000E+02  0.91188000000E+02 0.  0.
    9900012    2    3    3    0    0 -0.75149789974E+01  0.39186919388E+01  0.35832239598E+02  0.54367075916E+02  0.39999981165E+02 0.  0.
         12    1    3    3    0    0  0.75149789974E+01 -0.39186919388E+01 -0.35832239598E+02  0.36820924084E+02  0.00000000000E+00 0. -1.
         11    1    4    4    0    0 -0.15623861466E+02 -0.76449081676E+01  0.15484341728E+02  0.23287647091E+02  0.51100000000E-03 0. -1.
        -11    1    4    4    0    0  0.46284115420E+01  0.65236388621E+01  0.23039999614E+02  0.24388965536E+02  0.51100000000E-03 0.  1.
         12    1    4    4    0    0  0.34804709270E+01  0.50399612443E+01 -0.26921017448E+01  0.66904632890E+01  0.00000000000E+00 0. -1.
</event>
<event>
 8    1  0.2502398E-006  0.9118800E+02  0.7816164E-02  0.1184000E+00
        -11   -1    0    0    0    0  0.00000000000E+00  0.00000000000E+00  0.45593999997E+02  0.45594000000E+02  0.51100000000E-03 0. -1.
         11   -1    0    0    0    0 -0.00000000000E+00 -0.00000000000E+00 -0.45593999997E+02  0.45594000000E+02  0.51100000000E-03 0.  1.
         23    2    1    2    0    0 -0.66613381478E-15  0.00000000000E+00 -0.35527136788E-14  0.91188000000E+02  0.91188000000E+02 0.  0.
    9900012    2    3    3    0    0 -0.18128927122E+01  0.18311696187E+02 -0.31893209328E+02  0.54367060326E+02  0.39999945625E+02 0.  0.
         12    1    3    3    0    0  0.18128927122E+01 -0.18311696187E+02  0.31893209328E+02  0.36820939674E+02  0.00000000000E+00 0. -1.
         11    1    4    4    0    0  0.68826924320E+01 -0.58397349248E+01  0.19052732959E+01  0.92251843179E+01  0.51100000000E-03 0. -1.
        -11    1    4    4    0    0 -0.70923146892E+01  0.16086973635E+02 -0.32313458594E+02  0.36786563512E+02  0.51100000000E-03 0.  1.
        -12    1    4    4    0    0 -0.16032704550E+01  0.80644574768E+01 -0.14850240295E+01  0.83553124965E+01  0.00000000000E+00 0.  1.
</event>
<event>
 8    1  0.2502398E-006  0.9118800E+02  0.7816164E-02  0.1184000E+00
        -11   -1    0    0    0    0  0.00000000000E+00  0.00000000000E+00  0.45593999997E+02  0.45594000000E+02  0.51100000000E-03 0.  1.
         11   -1    0    0    0    0 -0.00000000000E+00 -0.00000000000E+00 -0.45593999997E+02  0.45594000000E+02  0.51100000000E-03 0. -1.
         23    2    1    2    0    0  0.44408920985E-15  0.00000000000E+00  0.35527136788E-14  0.91188000000E+02  0.91188000000E+02 0.  0.
    9900012    2    3    3    0    0  0.30204456408E+01  0.25548767101E+02  0.26342289598E+02  0.54367098144E+02  0.40000031838E+02 0.  0.
         12    1    3    3    0    0 -0.30204456408E+01 -0.25548767101E+02 -0.26342289598E+02  0.36820901856E+02  0.00000000000E+00 0. -1.
         11    1    4    4    0    0  0.21949254442E+01 -0.70034395191E-02  0.74235396275E+00  0.23170749709E+01  0.51100000000E-03 0. -1.
        -11    1    4    4    0    0 -0.82025636853E+01  0.32078235120E+02  0.23779074472E+02  0.40764440416E+02  0.51100000000E-03 0.  1.
        -12    1    4    4    0    0  0.90280838820E+01 -0.65224645800E+01  0.18208611636E+01  0.11285582757E+02  0.00000000000E+00 0.  1.
</event>
<event>
 8    1  0.2502398E-006  0.9118800E+02  0.7816164E-02  0.1184000E+00
        -11   -1    0    0    0    0  0.00000000000E+00  0.00000000000E+00  0.45593999997E+02  0.45594000000E+02  0.51100000000E-03 0. -1.
         11   -1    0    0    0    0 -0.00000000000E+00 -0.00000000000E+00 -0.45593999997E+02  0.45594000000E+02  0.51100000000E-03 0.  1.
         23    2    1    2    0    0  0.00000000000E+00 -0.35527136788E-14 -0.35527136788E-14  0.91188000000E+02  0.91188000000E+02 0.  0.
    9900012    2    3    3    0    0 -0.15436266002E+02  0.20294957923E+02  0.26563398077E+02  0.54367112687E+02  0.40000064992E+02 0.  0.
        -12    1    3    3    0    0  0.15436266002E+02 -0.20294957923E+02 -0.26563398077E+02  0.36820887313E+02  0.00000000000E+00 0.  1.
         11    1    4    4    0    0  0.13821071911E+01  0.15693710844E+01  0.22862811587E+01  0.30984234194E+01  0.51100000000E-03 0. -1.
        -11    1    4    4    0    0 -0.20768884902E+01  0.27495029141E+02  0.11477710392E+02  0.29866836615E+02  0.51100000000E-03 0.  1.
         12    1    4    4    0    0 -0.14741484702E+02 -0.87694423028E+01  0.12799406526E+02  0.21401852652E+02  0.00000000000E+00 0. -1.
</event>
<event>
 8    1  0.2502398E-006  0.9118800E+02  0.7816164E-02  0.1184000E+00
        -11   -1    0    0    0    0  0.00000000000E+00  0.00000000000E+00  0.45593999997E+02  0.45594000000E+02  0.51100000000E-03 0.  1.
         11   -1    0    0    0    0 -0.00000000000E+00 -0.00000000000E+00 -0.45593999997E+02  0.45594000000E+02  0.51100000000E-03 0. -1.
         23    2    1    2    0    0  0.00000000000E+00  0.00000000000E+00  0.35527136788E-14  0.91188000000E+02  0.91188000000E+02 0.  0.
    9900012    2    3    3    0    0 -0.15285277643E+02  0.15865557299E+02  0.29502948922E+02  0.54367087244E+02  0.40000006991E+02 0.  0.
         12    1    3    3    0    0  0.15285277643E+02 -0.15865557299E+02 -0.29502948922E+02  0.36820912756E+02  0.00000000000E+00 0. -1.
         11    1    4    4    0    0 -0.96511954108E+01  0.14855627093E+02  0.12324115407E+02  0.21580524785E+02  0.51100000000E-03 0. -1.
        -11    1    4    4    0    0 -0.12850631053E+02  0.10077149629E+02  0.10400639999E+02  0.19361326808E+02  0.51100000000E-03 0.  1.
         12    1    4    4    0    0  0.72165488211E+01 -0.90672194227E+01  0.67781935166E+01  0.13425235651E+02  0.00000000000E+00 0. -1.
</event>
<event>
 8    1  0.2502398E-006  0.9118800E+02  0.7816164E-02  0.1184000E+00
        -11   -1    0    0    0    0  0.00000000000E+00  0.00000000000E+00  0.45593999997E+02  0.45594000000E+02  0.51100000000E-03 0. -1.
         11   -1    0    0    0    0 -0.00000000000E+00 -0.00000000000E+00 -0.45593999997E+02  0.45594000000E+02  0.51100000000E-03 0.  1.
         23    2    1    2    0    0  0.00000000000E+00  0.44408920985E-15  0.71054273576E-14  0.91188000000E+02  0.91188000000E+02 0.  0.
    9900012    2    3    3    0    0 -0.24153858026E+02  0.39501750434E+01 -0.27509383726E+02  0.54367096516E+02  0.40000028126E+02 0.  0.
         12    1    3    3    0    0  0.24153858026E+02 -0.39501750434E+01  0.27509383726E+02  0.36820903484E+02  0.00000000000E+00 0. -1.
         11    1    4    4    0    0  0.17958340035E+01 -0.11929829670E+02 -0.91324044152E+01  0.15130983655E+02  0.51100000000E-03 0. -1.
        -11    1    4    4    0    0 -0.14204190044E+02  0.88249083212E+01 -0.19259517590E+02  0.25506215708E+02  0.51100000000E-03 0.  1.
         12    1    4    4    0    0 -0.11745501986E+02  0.70550963917E+01  0.88253827928E+00  0.13729897152E+02  0.00000000000E+00 0. -1.
</event>
<event>
 8    1  0.2502398E-006  0.9118800E+02  0.7816164E-02  0.1184000E+00
        -11   -1    0    0    0    0  0.00000000000E+00  0.00000000000E+00  0.45593999997E+02  0.45594000000E+02  0.51100000000E-03 0. -1.
         11   -1    0    0    0    0 -0.00000000000E+00 -0.00000000000E+00 -0.45593999997E+02  0.45594000000E+02  0.51100000000E-03 0.  1.
         23    2    1    2    0    0  0.00000000000E+00  0.00000000000E+00  0.35527136788E-14  0.91188000000E+02  0.91188000000E+02 0.  0.
    9900012    2    3    3    0    0  0.15541384591E+02  0.10676306901E+02 -0.31626947665E+02  0.54367055109E+02  0.39999933732E+02 0.  0.
         12    1    3    3    0    0 -0.15541384591E+02 -0.10676306901E+02  0.31626947665E+02  0.36820944891E+02  0.00000000000E+00 0. -1.
         11    1    4    4    0    0  0.35688636710E+01  0.99331840470E+01 -0.12295798230E+02  0.16204677954E+02  0.51100000000E-03 0. -1.
        -11    1    4    4    0    0 -0.34431022562E+00  0.59543915283E+01 -0.23427797456E+02  0.24175090939E+02  0.51100000000E-03 0.  1.
        -12    1    4    4    0    0  0.12316831146E+02 -0.52112686740E+01  0.40966480218E+01  0.13987286216E+02  0.00000000000E+00 0.  1.
</event>
<event>
 8    1  0.2502398E-006  0.9118800E+02  0.7816164E-02  0.1184000E+00
        -11   -1    0    0    0    0  0.00000000000E+00  0.00000000000E+00  0.45593999997E+02  0.45594000000E+02  0.51100000000E-03 0.  1.
         11   -1    0    0    0    0 -0.00000000000E+00 -0.00000000000E+00 -0.45593999997E+02  0.45594000000E+02  0.51100000000E-03 0. -1.
         23    2    1    2    0    0  0.00000000000E+00  0.00000000000E+00  0.88817841970E-15  0.91188000000E+02  0.91188000000E+02 0.  0.
    9900012    2    3    3    0    0 -0.73519924267E+01  0.35780557013E+02  0.46346720307E+01  0.54367078805E+02  0.39999987751E+02 0.  0.
         12    1    3    3    0    0  0.73519924267E+01 -0.35780557013E+02 -0.46346720307E+01  0.36820921195E+02  0.00000000000E+00 0. -1.
         11    1    4    4    0    0 -0.53812412009E+01 -0.34609459790E+01  0.37003713861E+01  0.73911198467E+01  0.51100000000E-03 0. -1.
        -11    1    4    4    0    0  0.19895748878E+01 -0.25040630508E+01 -0.35801525517E+01  0.48006491802E+01  0.51100000000E-03 0.  1.
        -12    1    4    4    0    0 -0.39603261136E+01  0.41745566043E+02  0.45144531962E+01  0.42175309778E+02  0.00000000000E+00 0.  1.
</event>
<event>
 8    1  0.2502398E-006  0.9118800E+02  0.7816164E-02  0.1184000E+00
        -11   -1    0    0    0    0  0.00000000000E+00  0.00000000000E+00  0.45593999997E+02  0.45594000000E+02  0.51100000000E-03 0.  1.
         11   -1    0    0    0    0 -0.00000000000E+00 -0.00000000000E+00 -0.45593999997E+02  0.45594000000E+02  0.51100000000E-03 0. -1.
         23    2    1    2    0    0 -0.53290705182E-14  0.00000000000E+00  0.00000000000E+00  0.91188000000E+02  0.91188000000E+02 0.  0.
    9900012    2    3    3    0    0 -0.15053525949E+02 -0.25510855066E+02 -0.21871619042E+02  0.54367080820E+02  0.39999992346E+02 0.  0.
        -12    1    3    3    0    0  0.15053525949E+02  0.25510855066E+02  0.21871619042E+02  0.36820919180E+02  0.00000000000E+00 0.  1.
         11    1    4    4    0    0  0.39809959310E+01 -0.55875360581E+00 -0.53056384002E+00  0.40548776115E+01  0.51100000000E-03 0. -1.
        -11    1    4    4    0    0  0.93914349421E+01 -0.40469323674E+01 -0.38232123050E+01  0.10917585101E+02  0.51100000000E-03 0.  1.
         12    1    4    4    0    0 -0.28425956822E+02 -0.20905169093E+02 -0.17517842897E+02  0.39394618107E+02  0.00000000000E+00 0. -1.
</event>
<event>
 8    1  0.2502398E-006  0.9118800E+02  0.7816164E-02  0.1184000E+00
        -11   -1    0    0    0    0  0.00000000000E+00  0.00000000000E+00  0.45593999997E+02  0.45594000000E+02  0.51100000000E-03 0.  1.
         11   -1    0    0    0    0 -0.00000000000E+00 -0.00000000000E+00 -0.45593999997E+02  0.45594000000E+02  0.51100000000E-03 0. -1.
         23    2    1    2    0    0 -0.35527136788E-14  0.00000000000E+00  0.00000000000E+00  0.91188000000E+02  0.91188000000E+02 0.  0.
    9900012    2    3    3    0    0  0.30343217780E+02  0.15940998394E+02 -0.13451891678E+02  0.54367086313E+02  0.40000004868E+02 0.  0.
        -12    1    3    3    0    0 -0.30343217780E+02 -0.15940998394E+02  0.13451891678E+02  0.36820913687E+02  0.00000000000E+00 0.  1.
         11    1    4    4    0    0 -0.33833108901E+01  0.96639563712E+01 -0.95083932354E+01  0.13973130913E+02  0.51100000000E-03 0. -1.
        -11    1    4    4    0    0  0.19232573093E+02  0.31034487118E+01  0.82820088382E+01  0.21168725335E+02  0.51100000000E-03 0.  1.
         12    1    4    4    0    0  0.14493955577E+02  0.31735933106E+01 -0.12225507281E+02  0.19225230065E+02  0.00000000000E+00 0. -1.
</event>
<event>
 8    1  0.2502398E-006  0.9118800E+02  0.7816164E-02  0.1184000E+00
        -11   -1    0    0    0    0  0.00000000000E+00  0.00000000000E+00  0.45593999997E+02  0.45594000000E+02  0.51100000000E-03 0. -1.
         11   -1    0    0    0    0 -0.00000000000E+00 -0.00000000000E+00 -0.45593999997E+02  0.45594000000E+02  0.51100000000E-03 0.  1.
         23    2    1    2    0    0  0.00000000000E+00  0.35527136788E-14 -0.35527136788E-14  0.91188000000E+02  0.91188000000E+02 0.  0.
    9900012    2    3    3    0    0 -0.17151728489E+02 -0.21427235297E+02  0.24545338015E+02  0.54367057306E+02  0.39999938741E+02 0.  0.
        -12    1    3    3    0    0  0.17151728489E+02  0.21427235297E+02 -0.24545338015E+02  0.36820942694E+02  0.00000000000E+00 0.  1.
         11    1    4    4    0    0  0.77554329031E+01 -0.87529347296E+01  0.21362552702E+02  0.24354039995E+02  0.51100000000E-03 0. -1.
        -11    1    4    4    0    0 -0.12892063717E+02 -0.49557079314E+01  0.66322508111E+01  0.15321589313E+02  0.51100000000E-03 0.  1.
         12    1    4    4    0    0 -0.12015097674E+02 -0.77185926358E+01 -0.34494654982E+01  0.14691427998E+02  0.00000000000E+00 0. -1.
</event>
<event>
 8    1  0.2502398E-006  0.9118800E+02  0.7816164E-02  0.1184000E+00
        -11   -1    0    0    0    0  0.00000000000E+00  0.00000000000E+00  0.45593999997E+02  0.45594000000E+02  0.51100000000E-03 0.  1.
         11   -1    0    0    0    0 -0.00000000000E+00 -0.00000000000E+00 -0.45593999997E+02  0.45594000000E+02  0.51100000000E-03 0. -1.
         23    2    1    2    0    0 -0.17763568394E-14  0.00000000000E+00  0.00000000000E+00  0.91188000000E+02  0.91188000000E+02 0.  0.
    9900012    2    3    3    0    0  0.12109638279E+02 -0.28542874050E+02 -0.19860549551E+02  0.54367076237E+02  0.39999981898E+02 0.  0.
         12    1    3    3    0    0 -0.12109638279E+02  0.28542874050E+02  0.19860549551E+02  0.36820923763E+02  0.00000000000E+00 0. -1.
         11    1    4    4    0    0  0.51226322885E+01 -0.23786181126E+02 -0.65405282086E+01  0.25195282964E+02  0.51100000000E-03 0. -1.
        -11    1    4    4    0    0 -0.87636156084E+01 -0.31429330999E+01 -0.15388198369E+01  0.94364693479E+01  0.51100000000E-03 0.  1.
         12    1    4    4    0    0  0.15750621599E+02 -0.16137598243E+01 -0.11781201506E+02  0.19735323925E+02  0.00000000000E+00 0. -1.
</event>
<event>
 8    1  0.2502398E-006  0.9118800E+02  0.7816164E-02  0.1184000E+00
        -11   -1    0    0    0    0  0.00000000000E+00  0.00000000000E+00  0.45593999997E+02  0.45594000000E+02  0.51100000000E-03 0. -1.
         11   -1    0    0    0    0 -0.00000000000E+00 -0.00000000000E+00 -0.45593999997E+02  0.45594000000E+02  0.51100000000E-03 0.  1.
         23    2    1    2    0    0  0.88817841970E-15  0.00000000000E+00  0.00000000000E+00  0.91188000000E+02  0.91188000000E+02 0.  0.
    9900012    2    3    3    0    0 -0.15092083672E+01  0.16040396926E+02 -0.33109024917E+02  0.54367087812E+02  0.40000008284E+02 0.  0.
         12    1    3    3    0    0  0.15092083672E+01 -0.16040396926E+02  0.33109024917E+02  0.36820912188E+02  0.00000000000E+00 0. -1.
         11    1    4    4    0    0 -0.10879756043E-01  0.18957149317E+02 -0.57479129694E+01  0.19809395053E+02  0.51100000000E-03 0. -1.
        -11    1    4    4    0    0 -0.10545081969E+02  0.20403484956E+01 -0.12733799046E+02  0.16658673841E+02  0.51100000000E-03 0.  1.
        -12    1    4    4    0    0  0.90467533583E+01 -0.49571008866E+01 -0.14627312901E+02  0.17899018918E+02  0.00000000000E+00 0.  1.
</event>
<event>
 8    1  0.2502398E-006  0.9118800E+02  0.7816164E-02  0.1184000E+00
        -11   -1    0    0    0    0  0.00000000000E+00  0.00000000000E+00  0.45593999997E+02  0.45594000000E+02  0.51100000000E-03 0. -1.
         11   -1    0    0    0    0 -0.00000000000E+00 -0.00000000000E+00 -0.45593999997E+02  0.45594000000E+02  0.51100000000E-03 0.  1.
         23    2    1    2    0    0  0.35527136788E-14 -0.17763568394E-14 -0.35527136788E-14  0.91188000000E+02  0.91188000000E+02 0.  0.
    9900012    2    3    3    0    0  0.26919291412E+02 -0.14271801794E+02 -0.20674762831E+02  0.54367103831E+02  0.40000044803E+02 0.  0.
         12    1    3    3    0    0 -0.26919291412E+02  0.14271801794E+02  0.20674762831E+02  0.36820896169E+02  0.00000000000E+00 0. -1.
         11    1    4    4    0    0  0.82179965865E+01 -0.18434988377E+02  0.54558059568E+01  0.20908134380E+02  0.51100000000E-03 0. -1.
        -11    1    4    4    0    0  0.24913179465E+01  0.24303027312E+01 -0.97329672908E+01  0.10336522095E+02  0.51100000000E-03 0.  1.
        -12    1    4    4    0    0  0.16209976879E+02  0.17328838515E+01 -0.16397601497E+02  0.23122447356E+02  0.00000000000E+00 0.  1.
</event>
<event>
 8    1  0.2502398E-006  0.9118800E+02  0.7816164E-02  0.1184000E+00
        -11   -1    0    0    0    0  0.00000000000E+00  0.00000000000E+00  0.45593999997E+02  0.45594000000E+02  0.51100000000E-03 0.  1.
         11   -1    0    0    0    0 -0.00000000000E+00 -0.00000000000E+00 -0.45593999997E+02  0.45594000000E+02  0.51100000000E-03 0. -1.
         23    2    1    2    0    0  0.00000000000E+00 -0.88817841970E-15  0.00000000000E+00  0.91188000000E+02  0.91188000000E+02 0.  0.
    9900012    2    3    3    0    0  0.22815398578E+02  0.72299232995E+01  0.27981514896E+02  0.54367090464E+02  0.40000014330E+02 0.  0.
         12    1    3    3    0    0 -0.22815398578E+02 -0.72299232995E+01 -0.27981514896E+02  0.36820909536E+02  0.00000000000E+00 0. -1.
         11    1    4    4    0    0  0.60386004034E+00 -0.92857594365E+01  0.13580822907E+01  0.94039546484E+01  0.51100000000E-03 0. -1.
        -11    1    4    4    0    0  0.25676339957E+01 -0.32205430783E+01  0.13622629010E+02  0.14231678167E+02  0.51100000000E-03 0.  1.
         12    1    4    4    0    0  0.19643904542E+02  0.19736225814E+02  0.13000803596E+02  0.30731457648E+02  0.00000000000E+00 0. -1.
</event>
<event>
 8    1  0.2502398E-006  0.9118800E+02  0.7816164E-02  0.1184000E+00
        -11   -1    0    0    0    0  0.00000000000E+00  0.00000000000E+00  0.45593999997E+02  0.45594000000E+02  0.51100000000E-03 0. -1.
         11   -1    0    0    0    0 -0.00000000000E+00 -0.00000000000E+00 -0.45593999997E+02  0.45594000000E+02  0.51100000000E-03 0.  1.
         23    2    1    2    0    0  0.00000000000E+00  0.35527136788E-14  0.00000000000E+00  0.91188000000E+02  0.91188000000E+02 0.  0.
    9900012    2    3    3    0    0 -0.21165654823E+02  0.19109769289E+02  0.23293771162E+02  0.54367244965E+02  0.40000366546E+02 0.  0.
        -12    1    3    3    0    0  0.21165654823E+02 -0.19109769289E+02 -0.23293771162E+02  0.36820755035E+02  0.00000000000E+00 0.  1.
         11    1    4    4    0    0 -0.30631064201E+00  0.41044284045E+01  0.32447695667E+01  0.52410579599E+01  0.51100000000E-03 0. -1.
        -11    1    4    4    0    0  0.32007602006E+01 -0.73646547390E+01  0.13377906552E+02  0.15602928868E+02  0.51100000000E-03 0.  1.
         12    1    4    4    0    0 -0.24060104382E+02  0.22369995623E+02  0.66710950432E+01  0.33523258137E+02  0.00000000000E+00 0. -1.
</event>
<event>
 8    1  0.2502398E-006  0.9118800E+02  0.7816164E-02  0.1184000E+00
        -11   -1    0    0    0    0  0.00000000000E+00  0.00000000000E+00  0.45593999997E+02  0.45594000000E+02  0.51100000000E-03 0.  1.
         11   -1    0    0    0    0 -0.00000000000E+00 -0.00000000000E+00 -0.45593999997E+02  0.45594000000E+02  0.51100000000E-03 0. -1.
         23    2    1    2    0    0  0.00000000000E+00  0.00000000000E+00  0.00000000000E+00  0.91188000000E+02  0.91188000000E+02 0.  0.
    9900012    2    3    3    0    0 -0.10254409414E+02  0.26129961240E+02 -0.23829631403E+02  0.54367093987E+02  0.40000022361E+02 0.  0.
        -12    1    3    3    0    0  0.10254409414E+02 -0.26129961240E+02  0.23829631403E+02  0.36820906013E+02  0.00000000000E+00 0.  1.
         11    1    4    4    0    0 -0.15728618700E+02  0.18900689913E+02 -0.12391908546E+02  0.27535157945E+02  0.51100000000E-03 0. -1.
        -11    1    4    4    0    0 -0.32486558800E+01 -0.41332399023E+01  0.33579727225E+01  0.62380620535E+01  0.51100000000E-03 0.  1.
        -12    1    4    4    0    0  0.87228651658E+01  0.11362511230E+02 -0.14795695580E+02  0.20593873988E+02  0.00000000000E+00 0.  1.
</event>
<event>
 8    1  0.2502398E-006  0.9118800E+02  0.7816164E-02  0.1184000E+00
        -11   -1    0    0    0    0  0.00000000000E+00  0.00000000000E+00  0.45593999997E+02  0.45594000000E+02  0.51100000000E-03 0. -1.
         11   -1    0    0    0    0 -0.00000000000E+00 -0.00000000000E+00 -0.45593999997E+02  0.45594000000E+02  0.51100000000E-03 0.  1.
         23    2    1    2    0    0 -0.35527136788E-14  0.00000000000E+00  0.00000000000E+00  0.91188000000E+02  0.91188000000E+02 0.  0.
    9900012    2    3    3    0    0 -0.17988523025E+02 -0.23656332870E+02  0.21738737495E+02  0.54367058223E+02  0.39999940830E+02 0.  0.
        -12    1    3    3    0    0  0.17988523025E+02  0.23656332870E+02 -0.21738737495E+02  0.36820941777E+02  0.00000000000E+00 0.  1.
         11    1    4    4    0    0 -0.82506820418E+01  0.81519266849E+01  0.15622846300E+01  0.11703349792E+02  0.51100000000E-03 0. -1.
        -11    1    4    4    0    0  0.14244200066E+01 -0.23768042370E+02  0.12049150599E+02  0.26685779750E+02  0.51100000000E-03 0.  1.
        -12    1    4    4    0    0 -0.11162260990E+02 -0.80402171858E+01  0.81273022660E+01  0.15977928681E+02  0.00000000000E+00 0.  1.
</event>
<event>
 8    1  0.2502398E-006  0.9118800E+02  0.7816164E-02  0.1184000E+00
        -11   -1    0    0    0    0  0.00000000000E+00  0.00000000000E+00  0.45593999997E+02  0.45594000000E+02  0.51100000000E-03 0.  1.
         11   -1    0    0    0    0 -0.00000000000E+00 -0.00000000000E+00 -0.45593999997E+02  0.45594000000E+02  0.51100000000E-03 0. -1.
         23    2    1    2    0    0  0.17763568394E-14  0.00000000000E+00  0.35527136788E-14  0.91188000000E+02  0.91188000000E+02 0.  0.
    9900012    2    3    3    0    0  0.75610907872E+01  0.19645799846E+02  0.30210133404E+02  0.54367086028E+02  0.40000004218E+02 0.  0.
         12    1    3    3    0    0 -0.75610907872E+01 -0.19645799846E+02 -0.30210133404E+02  0.36820913972E+02  0.00000000000E+00 0. -1.
         11    1    4    4    0    0  0.16671030724E+02  0.13416666481E+02  0.14675672155E+02  0.25948132078E+02  0.51100000000E-03 0. -1.
        -11    1    4    4    0    0 -0.81246626723E+01 -0.52646005590E+01  0.13643129877E+02  0.16729051249E+02  0.51100000000E-03 0.  1.
         12    1    4    4    0    0 -0.98527726431E+00  0.11493733924E+02  0.18913313714E+01  0.11689902701E+02  0.00000000000E+00 0. -1.
</event>
<event>
 8    1  0.2502398E-006  0.9118800E+02  0.7816164E-02  0.1184000E+00
        -11   -1    0    0    0    0  0.00000000000E+00  0.00000000000E+00  0.45593999997E+02  0.45594000000E+02  0.51100000000E-03 0.  1.
         11   -1    0    0    0    0 -0.00000000000E+00 -0.00000000000E+00 -0.45593999997E+02  0.45594000000E+02  0.51100000000E-03 0. -1.
         23    2    1    2    0    0 -0.17763568394E-14  0.00000000000E+00 -0.35527136788E-14  0.91188000000E+02  0.91188000000E+02 0.  0.
    9900012    2    3    3    0    0 -0.10112288792E+02 -0.33639935283E+02 -0.11039735724E+02  0.54367090243E+02  0.40000013828E+02 0.  0.
         12    1    3    3    0    0  0.10112288792E+02  0.33639935283E+02  0.11039735724E+02  0.36820909757E+02  0.00000000000E+00 0. -1.
         11    1    4    4    0    0  0.58123654219E+01  0.11211800155E+01  0.80679916166E+01  0.10006654057E+02  0.51100000000E-03 0.  1.
        -11    1    4    4    0    0 -0.11591609022E+02 -0.24607926329E+02 -0.19244152915E+02  0.33320457073E+02  0.51100000000E-03 0. -1.
         12    1    4    4    0    0 -0.43330451918E+01 -0.10153188970E+02  0.13642557356E+00  0.11039979113E+02  0.00000000000E+00 0. -1.
</event>
<event>
 8    1  0.2502398E-006  0.9118800E+02  0.7816164E-02  0.1184000E+00
        -11   -1    0    0    0    0  0.00000000000E+00  0.00000000000E+00  0.45593999997E+02  0.45594000000E+02  0.51100000000E-03 0. -1.
         11   -1    0    0    0    0 -0.00000000000E+00 -0.00000000000E+00 -0.45593999997E+02  0.45594000000E+02  0.51100000000E-03 0.  1.
         23    2    1    2    0    0  0.17763568394E-14  0.35527136788E-14  0.00000000000E+00  0.91188000000E+02  0.91188000000E+02 0.  0.
    9900012    2    3    3    0    0 -0.90350080522E+01 -0.17578073365E+02 -0.31067022865E+02  0.54367082800E+02  0.39999996859E+02 0.  0.
         12    1    3    3    0    0  0.90350080522E+01  0.17578073365E+02  0.31067022865E+02  0.36820917200E+02  0.00000000000E+00 0. -1.
         11    1    4    4    0    0 -0.34457415089E+00  0.16265615724E+01 -0.16256106353E+01  0.23253051613E+01  0.51100000000E-03 0. -1.
        -11    1    4    4    0    0 -0.23461061000E+02 -0.10735326703E+02 -0.16110268755E+02  0.30417254680E+02  0.51100000000E-03 0.  1.
        -12    1    4    4    0    0  0.14770627098E+02 -0.84693082348E+01 -0.13331143475E+02  0.21624522959E+02  0.00000000000E+00 0.  1.
</event>
<event>
 8    1  0.2502398E-006  0.9118800E+02  0.7816164E-02  0.1184000E+00
        -11   -1    0    0    0    0  0.00000000000E+00  0.00000000000E+00  0.45593999997E+02  0.45594000000E+02  0.51100000000E-03 0.  1.
         11   -1    0    0    0    0 -0.00000000000E+00 -0.00000000000E+00 -0.45593999997E+02  0.45594000000E+02  0.51100000000E-03 0. -1.
         23    2    1    2    0    0  0.88817841970E-15  0.00000000000E+00  0.00000000000E+00  0.91188000000E+02  0.91188000000E+02 0.  0.
    9900012    2    3    3    0    0  0.16267165931E+01  0.24487606693E+02  0.27449786410E+02  0.54367083901E+02  0.39999999369E+02 0.  0.
         12    1    3    3    0    0 -0.16267165931E+01 -0.24487606693E+02 -0.27449786410E+02  0.36820916099E+02  0.00000000000E+00 0. -1.
         11    1    4    4    0    0  0.13933014918E+02  0.17586492684E+02  0.18575870240E+02  0.29128621407E+02  0.51100000000E-03 0. -1.
        -11    1    4    4    0    0  0.43296665358E+01 -0.19278114162E+01  0.24798816048E+01  0.53490449804E+01  0.51100000000E-03 0.  1.
         12    1    4    4    0    0 -0.16635964861E+02  0.88289254249E+01  0.63940345653E+01  0.19889417514E+02  0.00000000000E+00 0. -1.
</event>
<event>
 8    1  0.2502398E-006  0.9118800E+02  0.7816164E-02  0.1184000E+00
        -11   -1    0    0    0    0  0.00000000000E+00  0.00000000000E+00  0.45593999997E+02  0.45594000000E+02  0.51100000000E-03 0.  1.
         11   -1    0    0    0    0 -0.00000000000E+00 -0.00000000000E+00 -0.45593999997E+02  0.45594000000E+02  0.51100000000E-03 0. -1.
         23    2    1    2    0    0  0.17763568394E-14 -0.26645352591E-14  0.00000000000E+00  0.91188000000E+02  0.91188000000E+02 0.  0.
    9900012    2    3    3    0    0  0.11462867835E+02 -0.33829131717E+01 -0.34827266578E+02  0.54367082876E+02  0.39999997033E+02 0.  0.
        -12    1    3    3    0    0 -0.11462867835E+02  0.33829131717E+01  0.34827266578E+02  0.36820917124E+02  0.00000000000E+00 0.  1.
         11    1    4    4    0    0  0.75301242178E+01  0.85271973490E+01 -0.22912271797E+01  0.11604550298E+02  0.51100000000E-03 0. -1.
        -11    1    4    4    0    0 -0.19376781749E+01  0.73224767484E+01 -0.76175465709E+01  0.10742452162E+02  0.51100000000E-03 0.  1.
         12    1    4    4    0    0  0.58704217926E+01 -0.19232587269E+02 -0.24918492827E+02  0.32020080416E+02  0.00000000000E+00 0. -1.
</event>
<event>
 8    1  0.2502398E-006  0.9118800E+02  0.7816164E-02  0.1184000E+00
        -11   -1    0    0    0    0  0.00000000000E+00  0.00000000000E+00  0.45593999997E+02  0.45594000000E+02  0.51100000000E-03 0.  1.
         11   -1    0    0    0    0 -0.00000000000E+00 -0.00000000000E+00 -0.45593999997E+02  0.45594000000E+02  0.51100000000E-03 0. -1.
         23    2    1    2    0    0  0.00000000000E+00 -0.17763568394E-14  0.00000000000E+00  0.91188000000E+02  0.91188000000E+02 0.  0.
    9900012    2    3    3    0    0  0.18496190899E+02  0.12307050226E+02  0.29363365672E+02  0.54367084658E+02  0.40000001095E+02 0.  0.
         12    1    3    3    0    0 -0.18496190899E+02 -0.12307050226E+02 -0.29363365672E+02  0.36820915342E+02  0.00000000000E+00 0. -1.
         11    1    4    4    0    0  0.24692327916E+01  0.15993806802E+02  0.52007724968E+01  0.16998441147E+02  0.51100000000E-03 0. -1.
        -11    1    4    4    0    0  0.26816108925E+01 -0.22602156146E+01  0.23680313551E+02  0.23938606094E+02  0.51100000000E-03 0.  1.
         12    1    4    4    0    0  0.13345347215E+02 -0.14265409609E+01  0.48227962401E+00  0.13430037417E+02  0.00000000000E+00 0. -1.
</event>
<event>
 8    1  0.2502398E-006  0.9118800E+02  0.7816164E-02  0.1184000E+00
        -11   -1    0    0    0    0  0.00000000000E+00  0.00000000000E+00  0.45593999997E+02  0.45594000000E+02  0.51100000000E-03 0.  1.
         11   -1    0    0    0    0 -0.00000000000E+00 -0.00000000000E+00 -0.45593999997E+02  0.45594000000E+02  0.51100000000E-03 0. -1.
         23    2    1    2    0    0  0.00000000000E+00  0.00000000000E+00  0.22204460493E-15  0.91188000000E+02  0.91188000000E+02 0.  0.
    9900012    2    3    3    0    0  0.16647856606E+02  0.32797412161E+02  0.17196740926E+01  0.54367100323E+02  0.40000036807E+02 0.  0.
         12    1    3    3    0    0 -0.16647856606E+02 -0.32797412161E+02 -0.17196740926E+01  0.36820899677E+02  0.00000000000E+00 0. -1.
         11    1    4    4    0    0 -0.57923848352E+01 -0.21154918564E+01 -0.10926563592E+01  0.62626612597E+01  0.51100000000E-03 0. -1.
        -11    1    4    4    0    0  0.22761195554E+02  0.37614863206E+02  0.54658821932E+01  0.44303790192E+02  0.51100000000E-03 0.  1.
        -12    1    4    4    0    0 -0.32095411244E+00 -0.27019591882E+01 -0.26535517414E+01  0.38006488711E+01  0.00000000000E+00 0.  1.
</event>
<event>
 8    1  0.2502398E-006  0.9118800E+02  0.7816164E-02  0.1184000E+00
        -11   -1    0    0    0    0  0.00000000000E+00  0.00000000000E+00  0.45593999997E+02  0.45594000000E+02  0.51100000000E-03 0. -1.
         11   -1    0    0    0    0 -0.00000000000E+00 -0.00000000000E+00 -0.45593999997E+02  0.45594000000E+02  0.51100000000E-03 0.  1.
         23    2    1    2    0    0 -0.17763568394E-14  0.00000000000E+00  0.00000000000E+00  0.91188000000E+02  0.91188000000E+02 0.  0.
    9900012    2    3    3    0    0  0.10822141391E+02  0.16832362567E+02  0.30908442293E+02  0.54367095899E+02  0.40000026720E+02 0.  0.
        -12    1    3    3    0    0 -0.10822141391E+02 -0.16832362567E+02 -0.30908442293E+02  0.36820904101E+02  0.00000000000E+00 0.  1.
         11    1    4    4    0    0 -0.99657656058E+01  0.14337206305E+02  0.17429255959E+02  0.24670851875E+02  0.51100000000E-03 0. -1.
        -11    1    4    4    0    0  0.51018645823E+01 -0.40902407375E+01 -0.18507281061E+01  0.67959021690E+01  0.51100000000E-03 0.  1.
         12    1    4    4    0    0  0.15686042415E+02  0.65853969998E+01  0.15329914440E+02  0.22900341854E+02  0.00000000000E+00 0. -1.
</event>
<event>
 8    1  0.2502398E-006  0.9118800E+02  0.7816164E-02  0.1184000E+00
        -11   -1    0    0    0    0  0.00000000000E+00  0.00000000000E+00  0.45593999997E+02  0.45594000000E+02  0.51100000000E-03 0.  1.
         11   -1    0    0    0    0 -0.00000000000E+00 -0.00000000000E+00 -0.45593999997E+02  0.45594000000E+02  0.51100000000E-03 0. -1.
         23    2    1    2    0    0  0.00000000000E+00 -0.71054273576E-14  0.17763568394E-14  0.91188000000E+02  0.91188000000E+02 0.  0.
    9900012    2    3    3    0    0  0.80279408699E+01  0.34703908326E+02 -0.93258318537E+01  0.54367078944E+02  0.39999988068E+02 0.  0.
         12    1    3    3    0    0 -0.80279408699E+01 -0.34703908326E+02  0.93258318537E+01  0.36820921056E+02  0.00000000000E+00 0. -1.
         11    1    4    4    0    0  0.10913099395E+02  0.76392732020E+01 -0.17439697665E+02  0.21945324978E+02  0.51100000000E-03 0. -1.
        -11    1    4    4    0    0  0.31443507009E+01  0.35507146487E+01 -0.31165269506E+01  0.56751437287E+01  0.51100000000E-03 0.  1.
        -12    1    4    4    0    0 -0.60295092265E+01  0.23513920475E+02  0.11230392762E+02  0.26746610237E+02  0.00000000000E+00 0.  1.
</event>
<event>
 8    1  0.2502398E-006  0.9118800E+02  0.7816164E-02  0.1184000E+00
        -11   -1    0    0    0    0  0.00000000000E+00  0.00000000000E+00  0.45593999997E+02  0.45594000000E+02  0.51100000000E-03 0.  1.
         11   -1    0    0    0    0 -0.00000000000E+00 -0.00000000000E+00 -0.45593999997E+02  0.45594000000E+02  0.51100000000E-03 0. -1.
         23    2    1    2    0    0 -0.44408920985E-15  0.00000000000E+00 -0.17763568394E-14  0.91188000000E+02  0.91188000000E+02 0.  0.
    9900012    2    3    3    0    0  0.24864719154E+01 -0.34497776299E+02 -0.12629376939E+02  0.54367078311E+02  0.39999986626E+02 0.  0.
        -12    1    3    3    0    0 -0.24864719154E+01  0.34497776299E+02  0.12629376939E+02  0.36820921689E+02  0.00000000000E+00 0.  1.
         11    1    4    4    0    0 -0.41801931960E+01 -0.24636683720E+02 -0.10061400108E+02  0.26938299357E+02  0.51100000000E-03 0. -1.
        -11    1    4    4    0    0 -0.64075024615E+00 -0.43775842497E+01 -0.12899552211E+02  0.13637164377E+02  0.51100000000E-03 0.  1.
         12    1    4    4    0    0  0.73074153576E+01 -0.54835083293E+01  0.10331575380E+02  0.13791614577E+02  0.00000000000E+00 0. -1.
</event>
<event>
 8    1  0.2502398E-006  0.9118800E+02  0.7816164E-02  0.1184000E+00
        -11   -1    0    0    0    0  0.00000000000E+00  0.00000000000E+00  0.45593999997E+02  0.45594000000E+02  0.51100000000E-03 0.  1.
         11   -1    0    0    0    0 -0.00000000000E+00 -0.00000000000E+00 -0.45593999997E+02  0.45594000000E+02  0.51100000000E-03 0. -1.
         23    2    1    2    0    0  0.00000000000E+00 -0.71054273576E-14  0.35527136788E-14  0.91188000000E+02  0.91188000000E+02 0.  0.
    9900012    2    3    3    0    0  0.20959966465E+02  0.22851868293E+02 -0.19855781751E+02  0.54367080027E+02  0.39999990538E+02 0.  0.
        -12    1    3    3    0    0 -0.20959966465E+02 -0.22851868293E+02  0.19855781751E+02  0.36820919973E+02  0.00000000000E+00 0.  1.
         11    1    4    4    0    0 -0.59771639142E+01  0.70284577044E+01  0.77540294844E-01  0.92266851533E+01  0.51100000000E-03 0. -1.
        -11    1    4    4    0    0  0.54572120280E+01  0.38654319531E+01  0.63003267728E+01  0.91878640068E+01  0.51100000000E-03 0.  1.
        -12    1    4    4    0    0  0.21479918351E+02  0.11957978636E+02 -0.26233648819E+02  0.35952530867E+02  0.00000000000E+00 0.  1.
</event>
<event>
 8    1  0.2502398E-006  0.9118800E+02  0.7816164E-02  0.1184000E+00
        -11   -1    0    0    0    0  0.00000000000E+00  0.00000000000E+00  0.45593999997E+02  0.45594000000E+02  0.51100000000E-03 0. -1.
         11   -1    0    0    0    0 -0.00000000000E+00 -0.00000000000E+00 -0.45593999997E+02  0.45594000000E+02  0.51100000000E-03 0.  1.
         23    2    1    2    0    0  0.00000000000E+00 -0.17763568394E-14  0.00000000000E+00  0.91188000000E+02  0.91188000000E+02 0.  0.
    9900012    2    3    3    0    0  0.47100970962E+01  0.14585206746E+02 -0.33479275729E+02  0.54367147568E+02  0.40000144511E+02 0.  0.
         12    1    3    3    0    0 -0.47100970962E+01 -0.14585206746E+02  0.33479275729E+02  0.36820852432E+02  0.00000000000E+00 0. -1.
         11    1    4    4    0    0  0.91756917475E+01  0.11896282814E+02 -0.68303865217E+01  0.16503607003E+02  0.51100000000E-03 0. -1.
        -11    1    4    4    0    0  0.79280397878E+01  0.93679586646E+01 -0.16236017467E+02  0.20352413318E+02  0.51100000000E-03 0.  1.
         12    1    4    4    0    0 -0.12393634439E+02 -0.66790347325E+01 -0.10412871741E+02  0.17511127247E+02  0.00000000000E+00 0. -1.
</event>
<event>
 8    1  0.2502398E-006  0.9118800E+02  0.7816164E-02  0.1184000E+00
        -11   -1    0    0    0    0  0.00000000000E+00  0.00000000000E+00  0.45593999997E+02  0.45594000000E+02  0.51100000000E-03 0.  1.
         11   -1    0    0    0    0 -0.00000000000E+00 -0.00000000000E+00 -0.45593999997E+02  0.45594000000E+02  0.51100000000E-03 0. -1.
         23    2    1    2    0    0  0.44408920985E-15  0.00000000000E+00  0.71054273576E-14  0.91188000000E+02  0.91188000000E+02 0.  0.
    9900012    2    3    3    0    0  0.28888535144E+01 -0.94609464299E+01  0.35467287896E+02  0.54367034605E+02  0.39999886988E+02 0.  0.
         12    1    3    3    0    0 -0.28888535144E+01  0.94609464299E+01 -0.35467287896E+02  0.36820965395E+02  0.00000000000E+00 0. -1.
         11    1    4    4    0    0 -0.12813853664E+02 -0.42433503805E+01 -0.55291776431E+00  0.13509499861E+02  0.51100000000E-03 0. -1.
        -11    1    4    4    0    0  0.96627276542E+01 -0.69792974201E+01  0.16547206740E+02  0.20393355520E+02  0.51100000000E-03 0.  1.
         12    1    4    4    0    0  0.60399795243E+01  0.17617013708E+01  0.19472998920E+02  0.20464179224E+02  0.00000000000E+00 0. -1.
</event>
<event>
 8    1  0.2502398E-006  0.9118800E+02  0.7816164E-02  0.1184000E+00
        -11   -1    0    0    0    0  0.00000000000E+00  0.00000000000E+00  0.45593999997E+02  0.45594000000E+02  0.51100000000E-03 0.  1.
         11   -1    0    0    0    0 -0.00000000000E+00 -0.00000000000E+00 -0.45593999997E+02  0.45594000000E+02  0.51100000000E-03 0. -1.
         23    2    1    2    0    0  0.00000000000E+00  0.35527136788E-14  0.00000000000E+00  0.91188000000E+02  0.91188000000E+02 0.  0.
    9900012    2    3    3    0    0  0.26736774897E+02 -0.17059949109E+02  0.18704970096E+02  0.54367178420E+02  0.40000214844E+02 0.  0.
        -12    1    3    3    0    0 -0.26736774897E+02  0.17059949109E+02 -0.18704970096E+02  0.36820821580E+02  0.00000000000E+00 0.  1.
         11    1    4    4    0    0 -0.24633786297E+01  0.15080265295E+01  0.64912831482E+01  0.71048670261E+01  0.51100000000E-03 0. -1.
        -11    1    4    4    0    0  0.78412407747E+00  0.40803582182E+01  0.10033050585E+02  0.10859386634E+02  0.51100000000E-03 0.  1.
         12    1    4    4    0    0  0.28416029449E+02 -0.22648333857E+02  0.21806363629E+01  0.36402924760E+02  0.00000000000E+00 0. -1.
</event>
<event>
 8    1  0.2502398E-006  0.9118800E+02  0.7816164E-02  0.1184000E+00
        -11   -1    0    0    0    0  0.00000000000E+00  0.00000000000E+00  0.45593999997E+02  0.45594000000E+02  0.51100000000E-03 0. -1.
         11   -1    0    0    0    0 -0.00000000000E+00 -0.00000000000E+00 -0.45593999997E+02  0.45594000000E+02  0.51100000000E-03 0.  1.
         23    2    1    2    0    0 -0.35527136788E-14 -0.35527136788E-14 -0.17763568394E-14  0.91188000000E+02  0.91188000000E+02 0.  0.
    9900012    2    3    3    0    0  0.23052599402E+02  0.24085650024E+02  0.15628085345E+02  0.54367110171E+02  0.40000059256E+02 0.  0.
         12    1    3    3    0    0 -0.23052599402E+02 -0.24085650024E+02 -0.15628085345E+02  0.36820889829E+02  0.00000000000E+00 0. -1.
         11    1    4    4    0    0 -0.48802050586E+01  0.12148601585E+02  0.52085828564E+01  0.14090218505E+02  0.51100000000E-03 0. -1.
        -11    1    4    4    0    0  0.83683690528E+01 -0.41768749370E+01  0.11602944888E+02  0.14903161248E+02  0.51100000000E-03 0.  1.
        -12    1    4    4    0    0  0.19564435408E+02  0.16113923377E+02 -0.11834423999E+01  0.25373730418E+02  0.00000000000E+00 0.  1.
</event>
<event>
 8    1  0.2502398E-006  0.9118800E+02  0.7816164E-02  0.1184000E+00
        -11   -1    0    0    0    0  0.00000000000E+00  0.00000000000E+00  0.45593999997E+02  0.45594000000E+02  0.51100000000E-03 0. -1.
         11   -1    0    0    0    0 -0.00000000000E+00 -0.00000000000E+00 -0.45593999997E+02  0.45594000000E+02  0.51100000000E-03 0.  1.
         23    2    1    2    0    0  0.35527136788E-14  0.00000000000E+00  0.99920072216E-15  0.91188000000E+02  0.91188000000E+02 0.  0.
    9900012    2    3    3    0    0  0.22933499135E+02 -0.28798631833E+02 -0.68759601278E+00  0.54367090637E+02  0.40000014725E+02 0.  0.
         12    1    3    3    0    0 -0.22933499135E+02  0.28798631833E+02  0.68759601278E+00  0.36820909363E+02  0.00000000000E+00 0. -1.
         11    1    4    4    0    0 -0.86110436141E+00 -0.26658346940E+02 -0.69310214538E+01  0.27558084493E+02  0.51100000000E-03 0. -1.
        -11    1    4    4    0    0  0.99867228791E+01 -0.56205931055E+01  0.50382097162E+01  0.12518356846E+02  0.51100000000E-03 0.  1.
        -12    1    4    4    0    0  0.13807880617E+02  0.34803082118E+01  0.12052157248E+01  0.14290649297E+02  0.00000000000E+00 0.  1.
</event>
<event>
 8    1  0.2502398E-006  0.9118800E+02  0.7816164E-02  0.1184000E+00
        -11   -1    0    0    0    0  0.00000000000E+00  0.00000000000E+00  0.45593999997E+02  0.45594000000E+02  0.51100000000E-03 0.  1.
         11   -1    0    0    0    0 -0.00000000000E+00 -0.00000000000E+00 -0.45593999997E+02  0.45594000000E+02  0.51100000000E-03 0. -1.
         23    2    1    2    0    0  0.17763568394E-14  0.71054273576E-14  0.71054273576E-14  0.91188000000E+02  0.91188000000E+02 0.  0.
    9900012    2    3    3    0    0 -0.12773626137E+02 -0.26759269728E+02 -0.21830155397E+02  0.54367085757E+02  0.40000003599E+02 0.  0.
        -12    1    3    3    0    0  0.12773626137E+02  0.26759269728E+02  0.21830155397E+02  0.36820914243E+02  0.00000000000E+00 0.  1.
         11    1    4    4    0    0 -0.35125016355E+01 -0.11078662431E+02 -0.82882567298E+01  0.14274789977E+02  0.51100000000E-03 0. -1.
        -11    1    4    4    0    0  0.71889700849E+01 -0.79804538071E+01 -0.18386729113E+02  0.21294148059E+02  0.51100000000E-03 0.  1.
         12    1    4    4    0    0 -0.16450094586E+02 -0.77001534893E+01  0.48448304454E+01  0.18798147720E+02  0.00000000000E+00 0. -1.
</event>
<event>
 8    1  0.2502398E-006  0.9118800E+02  0.7816164E-02  0.1184000E+00
        -11   -1    0    0    0    0  0.00000000000E+00  0.00000000000E+00  0.45593999997E+02  0.45594000000E+02  0.51100000000E-03 0. -1.
         11   -1    0    0    0    0 -0.00000000000E+00 -0.00000000000E+00 -0.45593999997E+02  0.45594000000E+02  0.51100000000E-03 0.  1.
         23    2    1    2    0    0 -0.35527136788E-14  0.10658141036E-13  0.35527136788E-14  0.91188000000E+02  0.91188000000E+02 0.  0.
    9900012    2    3    3    0    0 -0.89658238536E+01  0.29020145019E+02  0.20814109134E+02  0.54367055508E+02  0.39999934641E+02 0.  0.
        -12    1    3    3    0    0  0.89658238536E+01 -0.29020145019E+02 -0.20814109134E+02  0.36820944492E+02  0.00000000000E+00 0.  1.
         11    1    4    4    0    0 -0.99417293984E+00  0.29063831441E+02  0.21393418635E+02  0.36102258087E+02  0.51100000000E-03 0. -1.
        -11    1    4    4    0    0  0.48868504720E+01 -0.25383808159E+00  0.17468662384E+01  0.51958909942E+01  0.51100000000E-03 0.  1.
        -12    1    4    4    0    0 -0.12858501386E+02  0.21015165967E+00 -0.23261757396E+01  0.13068906426E+02  0.00000000000E+00 0.  1.
</event>
<event>
 8    1  0.2502398E-006  0.9118800E+02  0.7816164E-02  0.1184000E+00
        -11   -1    0    0    0    0  0.00000000000E+00  0.00000000000E+00  0.45593999997E+02  0.45594000000E+02  0.51100000000E-03 0.  1.
         11   -1    0    0    0    0 -0.00000000000E+00 -0.00000000000E+00 -0.45593999997E+02  0.45594000000E+02  0.51100000000E-03 0. -1.
         23    2    1    2    0    0 -0.35527136788E-14  0.35527136788E-14  0.00000000000E+00  0.91188000000E+02  0.91188000000E+02 0.  0.
    9900012    2    3    3    0    0  0.29375043559E+02 -0.19705849615E+02  0.10225793447E+02  0.54367074635E+02  0.39999978244E+02 0.  0.
         12    1    3    3    0    0 -0.29375043559E+02  0.19705849615E+02 -0.10225793447E+02  0.36820925365E+02  0.00000000000E+00 0. -1.
         11    1    4    4    0    0 -0.55671221345E+00  0.37534407898E+01 -0.80590116870E+01  0.89076324511E+01  0.51100000000E-03 0. -1.
        -11    1    4    4    0    0  0.94351542663E+01 -0.22269485356E+01  0.11750352033E+02  0.15233259959E+02  0.51100000000E-03 0.  1.
        -12    1    4    4    0    0  0.20496601506E+02 -0.21232341869E+02  0.65344531015E+01  0.30226182225E+02  0.00000000000E+00 0.  1.
</event>
<event>
 8    1  0.2502398E-006  0.9118800E+02  0.7816164E-02  0.1184000E+00
        -11   -1    0    0    0    0  0.00000000000E+00  0.00000000000E+00  0.45593999997E+02  0.45594000000E+02  0.51100000000E-03 0.  1.
         11   -1    0    0    0    0 -0.00000000000E+00 -0.00000000000E+00 -0.45593999997E+02  0.45594000000E+02  0.51100000000E-03 0. -1.
         23    2    1    2    0    0  0.00000000000E+00  0.00000000000E+00  0.35527136788E-14  0.91188000000E+02  0.91188000000E+02 0.  0.
    9900012    2    3    3    0    0  0.18857225414E+02 -0.11551101504E+02 -0.29440743585E+02  0.54367078242E+02  0.39999986469E+02 0.  0.
        -12    1    3    3    0    0 -0.18857225414E+02  0.11551101504E+02  0.29440743585E+02  0.36820921758E+02  0.00000000000E+00 0.  1.
         11    1    4    4    0    0 -0.24860813311E+01 -0.11485689960E+01 -0.29039308291E+01  0.39915693210E+01  0.51100000000E-03 0. -1.
        -11    1    4    4    0    0  0.12381089437E+02 -0.16023662965E+02  0.16027667105E+01  0.20313001054E+02  0.51100000000E-03 0.  1.
         12    1    4    4    0    0  0.89622173087E+01  0.56211304573E+01 -0.28139579466E+02  0.30062507867E+02  0.00000000000E+00 0. -1.
</event>
<event>
 8    1  0.2502398E-006  0.9118800E+02  0.7816164E-02  0.1184000E+00
        -11   -1    0    0    0    0  0.00000000000E+00  0.00000000000E+00  0.45593999997E+02  0.45594000000E+02  0.51100000000E-03 0. -1.
         11   -1    0    0    0    0 -0.00000000000E+00 -0.00000000000E+00 -0.45593999997E+02  0.45594000000E+02  0.51100000000E-03 0.  1.
         23    2    1    2    0    0 -0.88817841970E-15  0.00000000000E+00  0.00000000000E+00  0.91188000000E+02  0.91188000000E+02 0.  0.
    9900012    2    3    3    0    0 -0.67035783424E+01  0.10547161012E+02 -0.34635241678E+02  0.54367074779E+02  0.39999978575E+02 0.  0.
         12    1    3    3    0    0  0.67035783424E+01 -0.10547161012E+02  0.34635241678E+02  0.36820925221E+02  0.00000000000E+00 0. -1.
         11    1    4    4    0    0 -0.10407993728E+02 -0.68907443951E+01 -0.25051519411E+01  0.12731240249E+02  0.51100000000E-03 0. -1.
        -11    1    4    4    0    0 -0.45969263862E+01  0.11838637104E+02 -0.28110156334E+02  0.30845841699E+02  0.51100000000E-03 0.  1.
        -12    1    4    4    0    0  0.83013417723E+01  0.55992683032E+01 -0.40199334024E+01  0.10789992832E+02  0.00000000000E+00 0.  1.
</event>
<event>
 8    1  0.2502398E-006  0.9118800E+02  0.7816164E-02  0.1184000E+00
        -11   -1    0    0    0    0  0.00000000000E+00  0.00000000000E+00  0.45593999997E+02  0.45594000000E+02  0.51100000000E-03 0.  1.
         11   -1    0    0    0    0 -0.00000000000E+00 -0.00000000000E+00 -0.45593999997E+02  0.45594000000E+02  0.51100000000E-03 0. -1.
         23    2    1    2    0    0  0.35527136788E-14  0.17763568394E-14  0.35527136788E-14  0.91188000000E+02  0.91188000000E+02 0.  0.
    9900012    2    3    3    0    0  0.19014027459E+02  0.58463436075E+01  0.30984949197E+02  0.54367081346E+02  0.39999993545E+02 0.  0.
         12    1    3    3    0    0 -0.19014027459E+02 -0.58463436075E+01 -0.30984949197E+02  0.36820918654E+02  0.00000000000E+00 0. -1.
         11    1    4    4    0    0 -0.41849145935E+01 -0.36949485527E+01 -0.29499140283E+01  0.63141229001E+01  0.51100000000E-03 0. -1.
        -11    1    4    4    0    0  0.29776808750E+01 -0.47946679892E+01 -0.45341253555E+00  0.56622440523E+01  0.51100000000E-03 0.  1.
        -12    1    4    4    0    0  0.20221261178E+02  0.14335960149E+02  0.34388275761E+02  0.42390714394E+02  0.00000000000E+00 0.  1.
</event>
<event>
 8    1  0.2502398E-006  0.9118800E+02  0.7816164E-02  0.1184000E+00
        -11   -1    0    0    0    0  0.00000000000E+00  0.00000000000E+00  0.45593999997E+02  0.45594000000E+02  0.51100000000E-03 0. -1.
         11   -1    0    0    0    0 -0.00000000000E+00 -0.00000000000E+00 -0.45593999997E+02  0.45594000000E+02  0.51100000000E-03 0.  1.
         23    2    1    2    0    0  0.35527136788E-14 -0.35527136788E-14  0.00000000000E+00  0.91188000000E+02  0.91188000000E+02 0.  0.
    9900012    2    3    3    0    0  0.22902595604E+02  0.20779106833E+02  0.19986987616E+02  0.54367084203E+02  0.40000000058E+02 0.  0.
        -12    1    3    3    0    0 -0.22902595604E+02 -0.20779106833E+02 -0.19986987616E+02  0.36820915797E+02  0.00000000000E+00 0.  1.
         11    1    4    4    0    0  0.10646712978E+02  0.31285179877E+01  0.14016245538E+02  0.17877227449E+02  0.51100000000E-03 0. -1.
        -11    1    4    4    0    0  0.27064530306E+01 -0.33539194628E+01  0.11908787743E+02  0.12664631441E+02  0.51100000000E-03 0.  1.
        -12    1    4    4    0    0  0.95494295954E+01  0.21004508308E+02 -0.59380456658E+01  0.23825225312E+02  0.00000000000E+00 0.  1.
</event>
<event>
 8    1  0.2502398E-006  0.9118800E+02  0.7816164E-02  0.1184000E+00
        -11   -1    0    0    0    0  0.00000000000E+00  0.00000000000E+00  0.45593999997E+02  0.45594000000E+02  0.51100000000E-03 0.  1.
         11   -1    0    0    0    0 -0.00000000000E+00 -0.00000000000E+00 -0.45593999997E+02  0.45594000000E+02  0.51100000000E-03 0. -1.
         23    2    1    2    0    0  0.26645352591E-14  0.00000000000E+00  0.35527136788E-14  0.91188000000E+02  0.91188000000E+02 0.  0.
    9900012    2    3    3    0    0 -0.51550416102E+01 -0.34355558620E+02 -0.12202928674E+02  0.54366941755E+02  0.39999675317E+02 0.  0.
         12    1    3    3    0    0  0.51550416102E+01  0.34355558620E+02  0.12202928674E+02  0.36821058245E+02  0.00000000000E+00 0. -1.
         11    1    4    4    0    0 -0.14402357421E+02 -0.13306950960E+02 -0.13681137419E+02  0.23909754589E+02  0.51100000000E-03 0. -1.
        -11    1    4    4    0    0  0.34622329836E+01  0.20620085903E+00  0.69432700187E+01  0.77613513540E+01  0.51100000000E-03 0.  1.
        -12    1    4    4    0    0  0.57850828277E+01 -0.21254808519E+02 -0.54650612739E+01  0.22695835812E+02  0.00000000000E+00 0.  1.
</event>
<event>
 8    1  0.2502398E-006  0.9118800E+02  0.7816164E-02  0.1184000E+00
        -11   -1    0    0    0    0  0.00000000000E+00  0.00000000000E+00  0.45593999997E+02  0.45594000000E+02  0.51100000000E-03 0.  1.
         11   -1    0    0    0    0 -0.00000000000E+00 -0.00000000000E+00 -0.45593999997E+02  0.45594000000E+02  0.51100000000E-03 0. -1.
         23    2    1    2    0    0  0.00000000000E+00  0.00000000000E+00  0.00000000000E+00  0.91188000000E+02  0.91188000000E+02 0.  0.
    9900012    2    3    3    0    0 -0.58001815870E+00  0.96603764233E+01 -0.35526328070E+02  0.54367091812E+02  0.40000017403E+02 0.  0.
        -12    1    3    3    0    0  0.58001815870E+00 -0.96603764233E+01  0.35526328070E+02  0.36820908188E+02  0.00000000000E+00 0.  1.
         11    1    4    4    0    0 -0.46527163582E+01 -0.52287030460E+01 -0.20914453681E+02  0.22054511513E+02  0.51100000000E-03 0. -1.
        -11    1    4    4    0    0  0.10073129209E+02  0.10071765108E+02  0.16325046195E+01  0.14337833031E+02  0.51100000000E-03 0.  1.
        -12    1    4    4    0    0 -0.60004310091E+01  0.48173143613E+01 -0.16244379008E+02  0.17974747267E+02  0.00000000000E+00 0.  1.
</event>
<event>
 8    1  0.2502398E-006  0.9118800E+02  0.7816164E-02  0.1184000E+00
        -11   -1    0    0    0    0  0.00000000000E+00  0.00000000000E+00  0.45593999997E+02  0.45594000000E+02  0.51100000000E-03 0. -1.
         11   -1    0    0    0    0 -0.00000000000E+00 -0.00000000000E+00 -0.45593999997E+02  0.45594000000E+02  0.51100000000E-03 0.  1.
         23    2    1    2    0    0  0.88817841970E-15 -0.17763568394E-14  0.00000000000E+00  0.91188000000E+02  0.91188000000E+02 0.  0.
    9900012    2    3    3    0    0  0.79441835176E+01 -0.13947980236E+02 -0.33137957545E+02  0.54367076130E+02  0.39999981653E+02 0.  0.
         12    1    3    3    0    0 -0.79441835176E+01  0.13947980236E+02  0.33137957545E+02  0.36820923870E+02  0.00000000000E+00 0. -1.
         11    1    4    4    0    0 -0.83488433570E+01  0.10571251563E+01 -0.61769542766E+01  0.10439131352E+02  0.51100000000E-03 0. -1.
        -11    1    4    4    0    0  0.11350137349E+02 -0.94973469172E+01  0.11643680496E+01  0.14845233899E+02  0.51100000000E-03 0.  1.
        -12    1    4    4    0    0  0.49428895260E+01 -0.55077584754E+01 -0.28125371318E+02  0.29082710878E+02  0.00000000000E+00 0.  1.
</event>
<event>
 8    1  0.2502398E-006  0.9118800E+02  0.7816164E-02  0.1184000E+00
        -11   -1    0    0    0    0  0.00000000000E+00  0.00000000000E+00  0.45593999997E+02  0.45594000000E+02  0.51100000000E-03 0. -1.
         11   -1    0    0    0    0 -0.00000000000E+00 -0.00000000000E+00 -0.45593999997E+02  0.45594000000E+02  0.51100000000E-03 0.  1.
         23    2    1    2    0    0  0.00000000000E+00 -0.71054273576E-14 -0.88817841970E-15  0.91188000000E+02  0.91188000000E+02 0.  0.
    9900012    2    3    3    0    0 -0.15315401711E+02 -0.33375391733E+02  0.27027445436E+01  0.54367039516E+02  0.39999898185E+02 0.  0.
        -12    1    3    3    0    0  0.15315401711E+02  0.33375391733E+02 -0.27027445436E+01  0.36820960484E+02  0.00000000000E+00 0.  1.
         11    1    4    4    0    0 -0.21900590917E+01 -0.60401778613E+01 -0.61567820161E+01  0.88986556556E+01  0.51100000000E-03 0. -1.
        -11    1    4    4    0    0 -0.44437284167E+01 -0.12935117032E+02 -0.12332350228E+02  0.18416048362E+02  0.51100000000E-03 0.  1.
         12    1    4    4    0    0 -0.86816142025E+01 -0.14400096840E+02  0.21191876788E+02  0.27052335499E+02  0.00000000000E+00 0. -1.
</event>
<event>
 8    1  0.2502398E-006  0.9118800E+02  0.7816164E-02  0.1184000E+00
        -11   -1    0    0    0    0  0.00000000000E+00  0.00000000000E+00  0.45593999997E+02  0.45594000000E+02  0.51100000000E-03 0.  1.
         11   -1    0    0    0    0 -0.00000000000E+00 -0.00000000000E+00 -0.45593999997E+02  0.45594000000E+02  0.51100000000E-03 0. -1.
         23    2    1    2    0    0  0.00000000000E+00  0.00000000000E+00  0.00000000000E+00  0.91188000000E+02  0.91188000000E+02 0.  0.
    9900012    2    3    3    0    0  0.67514572358E+01  0.40132551890E+01 -0.35973488451E+02  0.54367078456E+02  0.39999986956E+02 0.  0.
        -12    1    3    3    0    0 -0.67514572358E+01 -0.40132551890E+01  0.35973488451E+02  0.36820921544E+02  0.00000000000E+00 0.  1.
         11    1    4    4    0    0  0.14079840920E+02  0.12492099031E+02 -0.95027227936E+01  0.21085449943E+02  0.51100000000E-03 0. -1.
        -11    1    4    4    0    0  0.39246297504E+00 -0.11667978639E+02 -0.17364598258E+02  0.20924268819E+02  0.51100000000E-03 0.  1.
         12    1    4    4    0    0 -0.77208466594E+01  0.31891347963E+01 -0.91061673996E+01  0.12357359694E+02  0.00000000000E+00 0. -1.
</event>
<event>
 8    1  0.2502398E-006  0.9118800E+02  0.7816164E-02  0.1184000E+00
        -11   -1    0    0    0    0  0.00000000000E+00  0.00000000000E+00  0.45593999997E+02  0.45594000000E+02  0.51100000000E-03 0.  1.
         11   -1    0    0    0    0 -0.00000000000E+00 -0.00000000000E+00 -0.45593999997E+02  0.45594000000E+02  0.51100000000E-03 0. -1.
         23    2    1    2    0    0  0.00000000000E+00  0.00000000000E+00  0.00000000000E+00  0.91188000000E+02  0.91188000000E+02 0.  0.
    9900012    2    3    3    0    0  0.23283508364E+02 -0.15717275869E+02 -0.23803844329E+02  0.54367115609E+02  0.40000071654E+02 0.  0.
        -12    1    3    3    0    0 -0.23283508364E+02  0.15717275869E+02  0.23803844329E+02  0.36820884391E+02  0.00000000000E+00 0.  1.
         11    1    4    4    0    0  0.21242514112E+02 -0.14253439706E+02 -0.23606822576E+02  0.34809295047E+02  0.51100000000E-03 0. -1.
        -11    1    4    4    0    0  0.37956064117E+01 -0.87492283518E+00  0.91945672783E+01  0.99855989153E+01  0.51100000000E-03 0.  1.
        -12    1    4    4    0    0 -0.17546121597E+01 -0.58891332807E+00 -0.93915890307E+01  0.95722216470E+01  0.00000000000E+00 0.  1.
</event>
<event>
 8    1  0.2502398E-006  0.9118800E+02  0.7816164E-02  0.1184000E+00
        -11   -1    0    0    0    0  0.00000000000E+00  0.00000000000E+00  0.45593999997E+02  0.45594000000E+02  0.51100000000E-03 0. -1.
         11   -1    0    0    0    0 -0.00000000000E+00 -0.00000000000E+00 -0.45593999997E+02  0.45594000000E+02  0.51100000000E-03 0.  1.
         23    2    1    2    0    0  0.00000000000E+00  0.00000000000E+00 -0.35527136788E-14  0.91188000000E+02  0.91188000000E+02 0.  0.
    9900012    2    3    3    0    0  0.70003927140E+01  0.27300412745E+02  0.23695200439E+02  0.54367074454E+02  0.39999977833E+02 0.  0.
        -12    1    3    3    0    0 -0.70003927140E+01 -0.27300412745E+02 -0.23695200439E+02  0.36820925546E+02  0.00000000000E+00 0.  1.
         11    1    4    4    0    0  0.10832232586E+02  0.10120937208E+02  0.13024480779E+02  0.19733416648E+02  0.51100000000E-03 0. -1.
        -11    1    4    4    0    0  0.56026160034E+01 -0.57924206255E+01  0.34955343022E+01  0.87840880633E+01  0.51100000000E-03 0.  1.
        -12    1    4    4    0    0 -0.94344558759E+01  0.22971896162E+02  0.71751853573E+01  0.25849569743E+02  0.00000000000E+00 0.  1.
</event>
<event>
 8    1  0.2502398E-006  0.9118800E+02  0.7816164E-02  0.1184000E+00
        -11   -1    0    0    0    0  0.00000000000E+00  0.00000000000E+00  0.45593999997E+02  0.45594000000E+02  0.51100000000E-03 0.  1.
         11   -1    0    0    0    0 -0.00000000000E+00 -0.00000000000E+00 -0.45593999997E+02  0.45594000000E+02  0.51100000000E-03 0. -1.
         23    2    1    2    0    0  0.00000000000E+00  0.35527136788E-14 -0.17763568394E-14  0.91188000000E+02  0.91188000000E+02 0.  0.
    9900012    2    3    3    0    0 -0.28508947879E+02 -0.18456972575E+02  0.14225288129E+02  0.54367098760E+02  0.40000033243E+02 0.  0.
         12    1    3    3    0    0  0.28508947879E+02  0.18456972575E+02 -0.14225288129E+02  0.36820901240E+02  0.00000000000E+00 0. -1.
         11    1    4    4    0    0  0.12637866093E+01 -0.41534453174E+01 -0.77465607850E+01  0.88801727942E+01  0.51100000000E-03 0. -1.
        -11    1    4    4    0    0 -0.71846048115E+01  0.30590979528E+01 -0.22126207875E+01  0.81161762914E+01  0.51100000000E-03 0.  1.
         12    1    4    4    0    0 -0.22588129677E+02 -0.17362625210E+02  0.24184469701E+02  0.37370749674E+02  0.00000000000E+00 0. -1.
</event>
<event>
 8    1  0.2502398E-006  0.9118800E+02  0.7816164E-02  0.1184000E+00
        -11   -1    0    0    0    0  0.00000000000E+00  0.00000000000E+00  0.45593999997E+02  0.45594000000E+02  0.51100000000E-03 0. -1.
         11   -1    0    0    0    0 -0.00000000000E+00 -0.00000000000E+00 -0.45593999997E+02  0.45594000000E+02  0.51100000000E-03 0.  1.
         23    2    1    2    0    0  0.88817841970E-15  0.00000000000E+00  0.71054273576E-14  0.91188000000E+02  0.91188000000E+02 0.  0.
    9900012    2    3    3    0    0 -0.63091537722E+01 -0.34754523939E+01 -0.36109494208E+02  0.54367085256E+02  0.40000002458E+02 0.  0.
         12    1    3    3    0    0  0.63091537722E+01  0.34754523939E+01  0.36109494208E+02  0.36820914744E+02  0.00000000000E+00 0. -1.
         11    1    4    4    0    0 -0.95887232929E+01 -0.78441266002E+01 -0.12228575990E+01  0.12448667297E+02  0.51100000000E-03 0. -1.
        -11    1    4    4    0    0  0.10717297730E+01  0.66597483699E+01  0.14066979281E+00  0.67468986437E+01  0.51100000000E-03 0.  1.
        -12    1    4    4    0    0  0.22078397477E+01 -0.22910741637E+01 -0.35027306402E+02  0.35171519315E+02  0.00000000000E+00 0.  1.
</event>
<event>
 8    1  0.2502398E-006  0.9118800E+02  0.7816164E-02  0.1184000E+00
        -11   -1    0    0    0    0  0.00000000000E+00  0.00000000000E+00  0.45593999997E+02  0.45594000000E+02  0.51100000000E-03 0.  1.
         11   -1    0    0    0    0 -0.00000000000E+00 -0.00000000000E+00 -0.45593999997E+02  0.45594000000E+02  0.51100000000E-03 0. -1.
         23    2    1    2    0    0  0.17763568394E-14  0.00000000000E+00  0.00000000000E+00  0.91188000000E+02  0.91188000000E+02 0.  0.
    9900012    2    3    3    0    0  0.15003986451E+02  0.43383047981E+01 -0.33344372425E+02  0.54366977874E+02  0.39999757659E+02 0.  0.
        -12    1    3    3    0    0 -0.15003986451E+02 -0.43383047981E+01  0.33344372425E+02  0.36821022126E+02  0.00000000000E+00 0.  1.
         11    1    4    4    0    0 -0.60787215874E+00 -0.10637114809E+02 -0.21005260004E+02  0.23552890865E+02  0.51100000000E-03 0. -1.
        -11    1    4    4    0    0  0.12266511744E+02  0.84700517798E+01  0.16801736582E+01  0.15001069005E+02  0.51100000000E-03 0.  1.
         12    1    4    4    0    0  0.33453468665E+01  0.65053678269E+01 -0.14019286080E+02  0.15813018004E+02  0.00000000000E+00 0. -1.
</event>
<event>
 8    1  0.2502398E-006  0.9118800E+02  0.7816164E-02  0.1184000E+00
        -11   -1    0    0    0    0  0.00000000000E+00  0.00000000000E+00  0.45593999997E+02  0.45594000000E+02  0.51100000000E-03 0.  1.
         11   -1    0    0    0    0 -0.00000000000E+00 -0.00000000000E+00 -0.45593999997E+02  0.45594000000E+02  0.51100000000E-03 0. -1.
         23    2    1    2    0    0  0.71054273576E-14 -0.88817841970E-15 -0.17763568394E-14  0.91188000000E+02  0.91188000000E+02 0.  0.
    9900012    2    3    3    0    0  0.35415191509E+02 -0.21489363240E+01 -0.98450984959E+01  0.54367086359E+02  0.40000004973E+02 0.  0.
        -12    1    3    3    0    0 -0.35415191509E+02  0.21489363240E+01  0.98450984959E+01  0.36820913641E+02  0.00000000000E+00 0.  1.
         11    1    4    4    0    0  0.22336417752E+02 -0.16533330256E+02 -0.40416180896E+01  0.28082044875E+02  0.51100000000E-03 0. -1.
        -11    1    4    4    0    0  0.70206810062E+01  0.27122855095E+01 -0.99684347572E+01  0.12490642347E+02  0.51100000000E-03 0.  1.
        -12    1    4    4    0    0  0.60580927514E+01  0.11672108422E+02  0.41649543510E+01  0.13794399137E+02  0.00000000000E+00 0.  1.
</event>
<event>
 8    1  0.2502398E-006  0.9118800E+02  0.7816164E-02  0.1184000E+00
        -11   -1    0    0    0    0  0.00000000000E+00  0.00000000000E+00  0.45593999997E+02  0.45594000000E+02  0.51100000000E-03 0. -1.
         11   -1    0    0    0    0 -0.00000000000E+00 -0.00000000000E+00 -0.45593999997E+02  0.45594000000E+02  0.51100000000E-03 0.  1.
         23    2    1    2    0    0  0.00000000000E+00  0.00000000000E+00  0.35527136788E-14  0.91188000000E+02  0.91188000000E+02 0.  0.
    9900012    2    3    3    0    0 -0.23767397426E+02  0.10535840726E+02 -0.26074629633E+02  0.54367089763E+02  0.40000012733E+02 0.  0.
         12    1    3    3    0    0  0.23767397426E+02 -0.10535840726E+02  0.26074629633E+02  0.36820910237E+02  0.00000000000E+00 0. -1.
         11    1    4    4    0    0 -0.12225715631E+02 -0.18943085200E+00  0.38480800239E+01  0.12818413586E+02  0.51100000000E-03 0. -1.
        -11    1    4    4    0    0 -0.18747314762E+02  0.99506969386E+01 -0.24966040266E+02  0.32768603070E+02  0.51100000000E-03 0.  1.
        -12    1    4    4    0    0  0.72056329664E+01  0.77457463892E+00 -0.49566693903E+01  0.87800731069E+01  0.00000000000E+00 0.  1.
</event>
<event>
 8    1  0.2502398E-006  0.9118800E+02  0.7816164E-02  0.1184000E+00
        -11   -1    0    0    0    0  0.00000000000E+00  0.00000000000E+00  0.45593999997E+02  0.45594000000E+02  0.51100000000E-03 0. -1.
         11   -1    0    0    0    0 -0.00000000000E+00 -0.00000000000E+00 -0.45593999997E+02  0.45594000000E+02  0.51100000000E-03 0.  1.
         23    2    1    2    0    0  0.35527136788E-14  0.00000000000E+00  0.35527136788E-14  0.91188000000E+02  0.91188000000E+02 0.  0.
    9900012    2    3    3    0    0 -0.21228357933E+02 -0.28899130059E+02 -0.83657377919E+01  0.54366967050E+02  0.39999732982E+02 0.  0.
         12    1    3    3    0    0  0.21228357933E+02  0.28899130059E+02  0.83657377919E+01  0.36821032950E+02  0.00000000000E+00 0. -1.
         11    1    4    4    0    0 -0.81655518446E+01 -0.12056601287E+02  0.82895113003E+01  0.16755711545E+02  0.51100000000E-03 0. -1.
        -11    1    4    4    0    0 -0.20067232504E+02 -0.10857259408E+02 -0.61341337056E+01  0.23626288299E+02  0.51100000000E-03 0.  1.
         12    1    4    4    0    0  0.70044264150E+01 -0.59852693651E+01 -0.10521115387E+02  0.13984967206E+02  0.00000000000E+00 0. -1.
</event>
<event>
 8    1  0.2502398E-006  0.9118800E+02  0.7816164E-02  0.1184000E+00
        -11   -1    0    0    0    0  0.00000000000E+00  0.00000000000E+00  0.45593999997E+02  0.45594000000E+02  0.51100000000E-03 0. -1.
         11   -1    0    0    0    0 -0.00000000000E+00 -0.00000000000E+00 -0.45593999997E+02  0.45594000000E+02  0.51100000000E-03 0.  1.
         23    2    1    2    0    0 -0.35527136788E-14  0.17763568394E-14  0.00000000000E+00  0.91188000000E+02  0.91188000000E+02 0.  0.
    9900012    2    3    3    0    0  0.19217649095E+02 -0.11593345775E+02  0.29190003919E+02  0.54367081600E+02  0.39999994124E+02 0.  0.
        -12    1    3    3    0    0 -0.19217649095E+02  0.11593345775E+02 -0.29190003919E+02  0.36820918400E+02  0.00000000000E+00 0.  1.
         11    1    4    4    0    0 -0.16805609652E+01 -0.41211656109E+01  0.17781365675E+02  0.18329900618E+02  0.51100000000E-03 0. -1.
        -11    1    4    4    0    0 -0.30978505917E+01 -0.94042134716E+01  0.15449863066E+01  0.10021122305E+02  0.51100000000E-03 0.  1.
        -12    1    4    4    0    0  0.23996060652E+02  0.19320333075E+01  0.98636519377E+01  0.26016058677E+02  0.00000000000E+00 0.  1.
</event>
<event>
 8    1  0.2502398E-006  0.9118800E+02  0.7816164E-02  0.1184000E+00
        -11   -1    0    0    0    0  0.00000000000E+00  0.00000000000E+00  0.45593999997E+02  0.45594000000E+02  0.51100000000E-03 0. -1.
         11   -1    0    0    0    0 -0.00000000000E+00 -0.00000000000E+00 -0.45593999997E+02  0.45594000000E+02  0.51100000000E-03 0.  1.
         23    2    1    2    0    0  0.00000000000E+00  0.35527136788E-14 -0.53290705182E-14  0.91188000000E+02  0.91188000000E+02 0.  0.
    9900012    2    3    3    0    0 -0.32536576559E+02  0.16402911818E+02  0.53005564341E+01  0.54367078925E+02  0.39999988025E+02 0.  0.
        -12    1    3    3    0    0  0.32536576559E+02 -0.16402911818E+02 -0.53005564341E+01  0.36820921075E+02  0.00000000000E+00 0.  1.
         11    1    4    4    0    0 -0.99246554641E+00 -0.32749045245E+00 -0.11691129157E+02  0.11737748467E+02  0.51100000000E-03 0.  1.
        -11    1    4    4    0    0 -0.22057365101E+02  0.11043783099E+02  0.30839628974E+01  0.24859672720E+02  0.51100000000E-03 0. -1.
         12    1    4    4    0    0 -0.94867459120E+01  0.56866191712E+01  0.13907722693E+02  0.17769657738E+02  0.00000000000E+00 0. -1.
</event>
<event>
 8    1  0.2502398E-006  0.9118800E+02  0.7816164E-02  0.1184000E+00
        -11   -1    0    0    0    0  0.00000000000E+00  0.00000000000E+00  0.45593999997E+02  0.45594000000E+02  0.51100000000E-03 0.  1.
         11   -1    0    0    0    0 -0.00000000000E+00 -0.00000000000E+00 -0.45593999997E+02  0.45594000000E+02  0.51100000000E-03 0. -1.
         23    2    1    2    0    0  0.00000000000E+00  0.35527136788E-14  0.00000000000E+00  0.91188000000E+02  0.91188000000E+02 0.  0.
    9900012    2    3    3    0    0  0.16675857892E+02  0.31878927686E+02 -0.78377574953E+01  0.54367072399E+02  0.39999973149E+02 0.  0.
        -12    1    3    3    0    0 -0.16675857892E+02 -0.31878927686E+02  0.78377574953E+01  0.36820927601E+02  0.00000000000E+00 0.  1.
         11    1    4    4    0    0  0.14296746906E+02  0.23960614379E+02  0.58854395568E+01  0.28515722200E+02  0.51100000000E-03 0. -1.
        -11    1    4    4    0    0  0.35482596634E+01  0.12857750338E+02 -0.15522401222E+02  0.20465992044E+02  0.51100000000E-03 0.  1.
        -12    1    4    4    0    0 -0.11691486775E+01 -0.49394370316E+01  0.17992041698E+01  0.53853581556E+01  0.00000000000E+00 0.  1.
</event>
<event>
 8    1  0.2502398E-006  0.9118800E+02  0.7816164E-02  0.1184000E+00
        -11   -1    0    0    0    0  0.00000000000E+00  0.00000000000E+00  0.45593999997E+02  0.45594000000E+02  0.51100000000E-03 0.  1.
         11   -1    0    0    0    0 -0.00000000000E+00 -0.00000000000E+00 -0.45593999997E+02  0.45594000000E+02  0.51100000000E-03 0. -1.
         23    2    1    2    0    0  0.00000000000E+00  0.00000000000E+00 -0.14210854715E-13  0.91188000000E+02  0.91188000000E+02 0.  0.
    9900012    2    3    3    0    0  0.84493728451E+01 -0.45815520407E+01 -0.35544318296E+02  0.54367067317E+02  0.39999961561E+02 0.  0.
        -12    1    3    3    0    0 -0.84493728451E+01  0.45815520407E+01  0.35544318296E+02  0.36820932683E+02  0.00000000000E+00 0.  1.
         11    1    4    4    0    0 -0.10395532315E-01  0.91243223933E-01 -0.34656175887E+02  0.34656297563E+02  0.51100000000E-03 0. -1.
        -11    1    4    4    0    0  0.21232455420E+01 -0.61307325866E+01  0.69627052019E+01  0.95170015062E+01  0.51100000000E-03 0.  1.
        -12    1    4    4    0    0  0.63365228354E+01  0.14579373219E+01 -0.78508476107E+01  0.10193768248E+02  0.00000000000E+00 0.  1.
</event>
<event>
 8    1  0.2502398E-006  0.9118800E+02  0.7816164E-02  0.1184000E+00
        -11   -1    0    0    0    0  0.00000000000E+00  0.00000000000E+00  0.45593999997E+02  0.45594000000E+02  0.51100000000E-03 0. -1.
         11   -1    0    0    0    0 -0.00000000000E+00 -0.00000000000E+00 -0.45593999997E+02  0.45594000000E+02  0.51100000000E-03 0.  1.
         23    2    1    2    0    0  0.17763568394E-14  0.35527136788E-14  0.35527136788E-14  0.91188000000E+02  0.91188000000E+02 0.  0.
    9900012    2    3    3    0    0  0.15525912804E+02  0.26004144024E+02  0.20940642149E+02  0.54367082461E+02  0.39999996086E+02 0.  0.
        -12    1    3    3    0    0 -0.15525912804E+02 -0.26004144024E+02 -0.20940642149E+02  0.36820917539E+02  0.00000000000E+00 0.  1.
         11    1    4    4    0    0 -0.10945102062E+02  0.18575456144E+02  0.14286881832E+02  0.25864218968E+02  0.51100000000E-03 0. -1.
        -11    1    4    4    0    0  0.82610980299E+01  0.66076152079E+00  0.20968254964E+01  0.85486270167E+01  0.51100000000E-03 0.  1.
         12    1    4    4    0    0  0.18209916836E+02  0.67679263598E+01  0.45569348208E+01  0.19954236476E+02  0.00000000000E+00 0. -1.
</event>
<event>
 8    1  0.2502398E-006  0.9118800E+02  0.7816164E-02  0.1184000E+00
        -11   -1    0    0    0    0  0.00000000000E+00  0.00000000000E+00  0.45593999997E+02  0.45594000000E+02  0.51100000000E-03 0. -1.
         11   -1    0    0    0    0 -0.00000000000E+00 -0.00000000000E+00 -0.45593999997E+02  0.45594000000E+02  0.51100000000E-03 0.  1.
         23    2    1    2    0    0  0.00000000000E+00  0.35527136788E-14  0.17763568394E-14  0.91188000000E+02  0.91188000000E+02 0.  0.
    9900012    2    3    3    0    0 -0.30328441297E+02 -0.17447961879E+02 -0.11468616981E+02  0.54367151277E+02  0.40000152966E+02 0.  0.
         12    1    3    3    0    0  0.30328441297E+02  0.17447961879E+02  0.11468616981E+02  0.36820848723E+02  0.00000000000E+00 0. -1.
         11    1    4    4    0    0 -0.92285292737E+01 -0.22175692097E+01  0.10116380810E+02  0.13871716790E+02  0.51100000000E-03 0. -1.
        -11    1    4    4    0    0 -0.22574639200E+02 -0.84897393018E+01 -0.82663953690E+01  0.25495554536E+02  0.51100000000E-03 0.  1.
        -12    1    4    4    0    0  0.14747271769E+01 -0.67406533672E+01 -0.13318602422E+02  0.14999879951E+02  0.00000000000E+00 0.  1.
</event>
<event>
 8    1  0.2502398E-006  0.9118800E+02  0.7816164E-02  0.1184000E+00
        -11   -1    0    0    0    0  0.00000000000E+00  0.00000000000E+00  0.45593999997E+02  0.45594000000E+02  0.51100000000E-03 0. -1.
         11   -1    0    0    0    0 -0.00000000000E+00 -0.00000000000E+00 -0.45593999997E+02  0.45594000000E+02  0.51100000000E-03 0.  1.
         23    2    1    2    0    0  0.59674487574E-15 -0.35527136788E-14  0.00000000000E+00  0.91188000000E+02  0.91188000000E+02 0.  0.
    9900012    2    3    3    0    0  0.42637161317E-01 -0.20154714260E+02  0.30815015145E+02  0.54367089050E+02  0.40000011107E+02 0.  0.
        -12    1    3    3    0    0 -0.42637161317E-01  0.20154714260E+02 -0.30815015145E+02  0.36820910950E+02  0.00000000000E+00 0.  1.
         11    1    4    4    0    0 -0.32729032159E+01 -0.92919868200E+01  0.85079838919E+01  0.13016862321E+02  0.51100000000E-03 0. -1.
        -11    1    4    4    0    0 -0.75034555598E+01 -0.18770688142E+02  0.18541087951E+02  0.27430138923E+02  0.51100000000E-03 0.  1.
        -12    1    4    4    0    0  0.10818995937E+02  0.79079607026E+01  0.37659433015E+01  0.13920087805E+02  0.00000000000E+00 0.  1.
</event>
<event>
 8    1  0.2502398E-006  0.9118800E+02  0.7816164E-02  0.1184000E+00
        -11   -1    0    0    0    0  0.00000000000E+00  0.00000000000E+00  0.45593999997E+02  0.45594000000E+02  0.51100000000E-03 0.  1.
         11   -1    0    0    0    0 -0.00000000000E+00 -0.00000000000E+00 -0.45593999997E+02  0.45594000000E+02  0.51100000000E-03 0. -1.
         23    2    1    2    0    0  0.00000000000E+00 -0.35527136788E-14  0.17763568394E-14  0.91188000000E+02  0.91188000000E+02 0.  0.
    9900012    2    3    3    0    0  0.21716556406E+02 -0.27989688370E+02  0.10037358433E+02  0.54367081469E+02  0.39999993824E+02 0.  0.
         12    1    3    3    0    0 -0.21716556406E+02  0.27989688370E+02 -0.10037358433E+02  0.36820918531E+02  0.00000000000E+00 0. -1.
         11    1    4    4    0    0  0.12534394694E+02 -0.59294172266E+01 -0.33188124037E+01  0.14257754206E+02  0.51100000000E-03 0. -1.
        -11    1    4    4    0    0  0.11661714338E+02 -0.10625138355E+02  0.20901157778E+02  0.26186781839E+02  0.51100000000E-03 0.  1.
        -12    1    4    4    0    0 -0.24795526259E+01 -0.11435132788E+02 -0.75449869412E+01  0.13922545423E+02  0.00000000000E+00 0.  1.
</event>
<event>
 8    1  0.2502398E-006  0.9118800E+02  0.7816164E-02  0.1184000E+00
        -11   -1    0    0    0    0  0.00000000000E+00  0.00000000000E+00  0.45593999997E+02  0.45594000000E+02  0.51100000000E-03 0.  1.
         11   -1    0    0    0    0 -0.00000000000E+00 -0.00000000000E+00 -0.45593999997E+02  0.45594000000E+02  0.51100000000E-03 0. -1.
         23    2    1    2    0    0 -0.71054273576E-14  0.00000000000E+00  0.88817841970E-15  0.91188000000E+02  0.91188000000E+02 0.  0.
    9900012    2    3    3    0    0  0.33119011764E+02 -0.15308099051E+02  0.49570391955E+01  0.54367094601E+02  0.40000023763E+02 0.  0.
        -12    1    3    3    0    0 -0.33119011764E+02  0.15308099051E+02 -0.49570391955E+01  0.36820905399E+02  0.00000000000E+00 0.  1.
         11    1    4    4    0    0  0.13973905919E+02 -0.23098151790E+02 -0.90569894957E+01  0.28474966580E+02  0.51100000000E-03 0. -1.
        -11    1    4    4    0    0  0.38926075193E+01 -0.35099781368E+00  0.48420893105E+00  0.39382802484E+01  0.51100000000E-03 0.  1.
        -12    1    4    4    0    0  0.15252498326E+02  0.81410505531E+01  0.13529819760E+02  0.21953847773E+02  0.00000000000E+00 0.  1.
</event>
<event>
 8    1  0.2502398E-006  0.9118800E+02  0.7816164E-02  0.1184000E+00
        -11   -1    0    0    0    0  0.00000000000E+00  0.00000000000E+00  0.45593999997E+02  0.45594000000E+02  0.51100000000E-03 0.  1.
         11   -1    0    0    0    0 -0.00000000000E+00 -0.00000000000E+00 -0.45593999997E+02  0.45594000000E+02  0.51100000000E-03 0. -1.
         23    2    1    2    0    0 -0.17763568394E-14  0.00000000000E+00  0.00000000000E+00  0.91188000000E+02  0.91188000000E+02 0.  0.
    9900012    2    3    3    0    0  0.11042561249E+02 -0.12021556842E+02  0.33004897096E+02  0.54367092622E+02  0.40000019250E+02 0.  0.
         12    1    3    3    0    0 -0.11042561249E+02  0.12021556842E+02 -0.33004897096E+02  0.36820907378E+02  0.00000000000E+00 0. -1.
         11    1    4    4    0    0 -0.11839423745E+02 -0.25902693655E+01  0.11763796247E+02  0.16889889058E+02  0.51100000000E-03 0. -1.
        -11    1    4    4    0    0 -0.27007505512E+01  0.14618431575E+01  0.20794913720E+01  0.37088170060E+01  0.51100000000E-03 0.  1.
        -12    1    4    4    0    0  0.25582735545E+02 -0.10893130634E+02  0.19161609477E+02  0.33768386558E+02  0.00000000000E+00 0.  1.
</event>
<event>
 8    1  0.2502398E-006  0.9118800E+02  0.7816164E-02  0.1184000E+00
        -11   -1    0    0    0    0  0.00000000000E+00  0.00000000000E+00  0.45593999997E+02  0.45594000000E+02  0.51100000000E-03 0.  1.
         11   -1    0    0    0    0 -0.00000000000E+00 -0.00000000000E+00 -0.45593999997E+02  0.45594000000E+02  0.51100000000E-03 0. -1.
         23    2    1    2    0    0  0.00000000000E+00 -0.26645352591E-14  0.35527136788E-14  0.91188000000E+02  0.91188000000E+02 0.  0.
    9900012    2    3    3    0    0  0.22543302149E+02  0.19227673105E+01 -0.29049662020E+02  0.54367077016E+02  0.39999983673E+02 0.  0.
        -12    1    3    3    0    0 -0.22543302149E+02 -0.19227673105E+01  0.29049662020E+02  0.36820922984E+02  0.00000000000E+00 0.  1.
         11    1    4    4    0    0  0.10295999405E+02 -0.54155471731E+01 -0.94980321497E+00  0.11672098412E+02  0.51100000000E-03 0. -1.
        -11    1    4    4    0    0  0.95355541025E+01 -0.90642534177E+01 -0.20631590957E+02  0.24469369174E+02  0.51100000000E-03 0.  1.
         12    1    4    4    0    0  0.27117486408E+01  0.16402567901E+02 -0.74682678480E+01  0.18225609430E+02  0.00000000000E+00 0. -1.
</event>
<event>
 8    1  0.2502398E-006  0.9118800E+02  0.7816164E-02  0.1184000E+00
        -11   -1    0    0    0    0  0.00000000000E+00  0.00000000000E+00  0.45593999997E+02  0.45594000000E+02  0.51100000000E-03 0.  1.
         11   -1    0    0    0    0 -0.00000000000E+00 -0.00000000000E+00 -0.45593999997E+02  0.45594000000E+02  0.51100000000E-03 0. -1.
         23    2    1    2    0    0  0.00000000000E+00  0.88817841970E-15  0.35527136788E-14  0.91188000000E+02  0.91188000000E+02 0.  0.
    9900012    2    3    3    0    0  0.22043621551E+02 -0.64835794926E+01 -0.28771886141E+02  0.54367089009E+02  0.40000011014E+02 0.  0.
        -12    1    3    3    0    0 -0.22043621551E+02  0.64835794926E+01  0.28771886141E+02  0.36820910991E+02  0.00000000000E+00 0.  1.
         11    1    4    4    0    0  0.16574907571E+02 -0.14259092739E+02 -0.18140836755E+02  0.28410196148E+02  0.51100000000E-03 0. -1.
        -11    1    4    4    0    0 -0.15877188437E+00  0.44104705379E+01 -0.16547138151E+02  0.17125572695E+02  0.51100000000E-03 0.  1.
         12    1    4    4    0    0  0.56274858643E+01  0.33650427084E+01  0.59160887660E+01  0.88313201657E+01  0.00000000000E+00 0. -1.
</event>
<event>
 8    1  0.2502398E-006  0.9118800E+02  0.7816164E-02  0.1184000E+00
        -11   -1    0    0    0    0  0.00000000000E+00  0.00000000000E+00  0.45593999997E+02  0.45594000000E+02  0.51100000000E-03 0.  1.
         11   -1    0    0    0    0 -0.00000000000E+00 -0.00000000000E+00 -0.45593999997E+02  0.45594000000E+02  0.51100000000E-03 0. -1.
         23    2    1    2    0    0  0.00000000000E+00  0.00000000000E+00 -0.17763568394E-14  0.91188000000E+02  0.91188000000E+02 0.  0.
    9900012    2    3    3    0    0 -0.29235503986E+02 -0.20086476081E+02  0.98791692530E+01  0.54367092898E+02  0.40000019880E+02 0.  0.
         12    1    3    3    0    0  0.29235503986E+02  0.20086476081E+02 -0.98791692530E+01  0.36820907102E+02  0.00000000000E+00 0. -1.
         11    1    4    4    0    0 -0.31068989793E+01  0.40661360311E+01  0.14801411127E+02  0.15661036208E+02  0.51100000000E-03 0. -1.
        -11    1    4    4    0    0 -0.39573034228E+01 -0.32481778483E+01  0.44937765816E+01  0.68121169940E+01  0.51100000000E-03 0.  1.
         12    1    4    4    0    0 -0.22171301584E+02 -0.20904434263E+02 -0.94160184557E+01  0.31893939696E+02  0.00000000000E+00 0. -1.
</event>
<event>
 8    1  0.2502398E-006  0.9118800E+02  0.7816164E-02  0.1184000E+00
        -11   -1    0    0    0    0  0.00000000000E+00  0.00000000000E+00  0.45593999997E+02  0.45594000000E+02  0.51100000000E-03 0.  1.
         11   -1    0    0    0    0 -0.00000000000E+00 -0.00000000000E+00 -0.45593999997E+02  0.45594000000E+02  0.51100000000E-03 0. -1.
         23    2    1    2    0    0  0.00000000000E+00  0.35527136788E-14  0.17763568394E-14  0.91188000000E+02  0.91188000000E+02 0.  0.
    9900012    2    3    3    0    0  0.32348788053E+02  0.11481034277E+02 -0.13323708712E+02  0.54367089495E+02  0.40000012121E+02 0.  0.
        -12    1    3    3    0    0 -0.32348788053E+02 -0.11481034277E+02  0.13323708712E+02  0.36820910505E+02  0.00000000000E+00 0.  1.
         11    1    4    4    0    0 -0.30715118760E+01 -0.17848956624E+01 -0.10070786769E+02  0.10678987973E+02  0.51100000000E-03 0. -1.
        -11    1    4    4    0    0  0.58181387055E+01 -0.54006186117E+01 -0.35373907255E+01  0.86908315363E+01  0.51100000000E-03 0.  1.
        -12    1    4    4    0    0  0.29602161224E+02  0.18666548551E+02  0.28446878248E+00  0.34997269985E+02  0.00000000000E+00 0.  1.
</event>
<event>
 8    1  0.2502398E-006  0.9118800E+02  0.7816164E-02  0.1184000E+00
        -11   -1    0    0    0    0  0.00000000000E+00  0.00000000000E+00  0.45593999997E+02  0.45594000000E+02  0.51100000000E-03 0. -1.
         11   -1    0    0    0    0 -0.00000000000E+00 -0.00000000000E+00 -0.45593999997E+02  0.45594000000E+02  0.51100000000E-03 0.  1.
         23    2    1    2    0    0  0.00000000000E+00 -0.17763568394E-14 -0.35527136788E-14  0.91188000000E+02  0.91188000000E+02 0.  0.
    9900012    2    3    3    0    0 -0.23275166603E+02  0.90447247148E+01  0.27059934254E+02  0.54367075685E+02  0.39999980639E+02 0.  0.
        -12    1    3    3    0    0  0.23275166603E+02 -0.90447247148E+01 -0.27059934254E+02  0.36820924315E+02  0.00000000000E+00 0.  1.
         11    1    4    4    0    0 -0.31703110556E+02  0.14717413550E+02  0.14694673877E+02  0.37915998221E+02  0.51100000000E-03 0. -1.
        -11    1    4    4    0    0  0.44318976399E+01 -0.11958003506E+01  0.71708976807E+01  0.85143073104E+01  0.51100000000E-03 0.  1.
         12    1    4    4    0    0  0.39960463125E+01 -0.44768884846E+01  0.51943626970E+01  0.79367701531E+01  0.00000000000E+00 0. -1.
</event>
<event>
 8    1  0.2502398E-006  0.9118800E+02  0.7816164E-02  0.1184000E+00
        -11   -1    0    0    0    0  0.00000000000E+00  0.00000000000E+00  0.45593999997E+02  0.45594000000E+02  0.51100000000E-03 0.  1.
         11   -1    0    0    0    0 -0.00000000000E+00 -0.00000000000E+00 -0.45593999997E+02  0.45594000000E+02  0.51100000000E-03 0. -1.
         23    2    1    2    0    0  0.00000000000E+00  0.88817841970E-15  0.00000000000E+00  0.91188000000E+02  0.91188000000E+02 0.  0.
    9900012    2    3    3    0    0 -0.33274694920E+02  0.57317673061E+01 -0.14687443690E+02  0.54367089085E+02  0.40000011187E+02 0.  0.
        -12    1    3    3    0    0  0.33274694920E+02 -0.57317673061E+01  0.14687443690E+02  0.36820910915E+02  0.00000000000E+00 0.  1.
         11    1    4    4    0    0 -0.22181253385E+02  0.21961902223E+02 -0.11008977451E+02  0.33098802633E+02  0.51100000000E-03 0. -1.
        -11    1    4    4    0    0 -0.10696074761E+02 -0.16016793273E+02 -0.49779127990E+01  0.19892795131E+02  0.51100000000E-03 0.  1.
         12    1    4    4    0    0 -0.39736677441E+00 -0.21334164345E+00  0.12994465602E+01  0.13754913206E+01  0.00000000000E+00 0. -1.
</event>
<event>
 8    1  0.2502398E-006  0.9118800E+02  0.7816164E-02  0.1184000E+00
        -11   -1    0    0    0    0  0.00000000000E+00  0.00000000000E+00  0.45593999997E+02  0.45594000000E+02  0.51100000000E-03 0.  1.
         11   -1    0    0    0    0 -0.00000000000E+00 -0.00000000000E+00 -0.45593999997E+02  0.45594000000E+02  0.51100000000E-03 0. -1.
         23    2    1    2    0    0  0.35527136788E-14 -0.17763568394E-14  0.00000000000E+00  0.91188000000E+02  0.91188000000E+02 0.  0.
    9900012    2    3    3    0    0 -0.18600675996E+02  0.99404263352E+01  0.30182467248E+02  0.54367101689E+02  0.40000039920E+02 0.  0.
         12    1    3    3    0    0  0.18600675996E+02 -0.99404263352E+01 -0.30182467248E+02  0.36820898311E+02  0.00000000000E+00 0. -1.
         11    1    4    4    0    0 -0.61786059026E+01  0.13751468360E+02 -0.32789062380E+01  0.15428197540E+02  0.51100000000E-03 0. -1.
        -11    1    4    4    0    0 -0.61972320818E+01  0.14390495486E+01  0.28926970724E+02  0.29618342030E+02  0.51100000000E-03 0.  1.
         12    1    4    4    0    0 -0.62248380118E+01 -0.52500915733E+01  0.45344027619E+01  0.93205621187E+01  0.00000000000E+00 0. -1.
</event>
<event>
 8    1  0.2502398E-006  0.9118800E+02  0.7816164E-02  0.1184000E+00
        -11   -1    0    0    0    0  0.00000000000E+00  0.00000000000E+00  0.45593999997E+02  0.45594000000E+02  0.51100000000E-03 0. -1.
         11   -1    0    0    0    0 -0.00000000000E+00 -0.00000000000E+00 -0.45593999997E+02  0.45594000000E+02  0.51100000000E-03 0.  1.
         23    2    1    2    0    0 -0.26645352591E-14  0.17763568394E-14  0.00000000000E+00  0.91188000000E+02  0.91188000000E+02 0.  0.
    9900012    2    3    3    0    0 -0.29885794563E+01 -0.86897157396E+01  0.35655817907E+02  0.54367080438E+02  0.39999991474E+02 0.  0.
        -12    1    3    3    0    0  0.29885794563E+01  0.86897157396E+01 -0.35655817907E+02  0.36820919562E+02  0.00000000000E+00 0.  1.
         11    1    4    4    0    0  0.11068507401E+02  0.71906140129E+01  0.16767255611E+02  0.21339110734E+02  0.51100000000E-03 0. -1.
        -11    1    4    4    0    0 -0.67099259431E+01  0.25612081456E+01  0.60117885113E+01  0.93661355261E+01  0.51100000000E-03 0.  1.
         12    1    4    4    0    0 -0.73471609138E+01 -0.18441537898E+02  0.12876773785E+02  0.23661834177E+02  0.00000000000E+00 0. -1.
</event>
<event>
 8    1  0.2502398E-006  0.9118800E+02  0.7816164E-02  0.1184000E+00
        -11   -1    0    0    0    0  0.00000000000E+00  0.00000000000E+00  0.45593999997E+02  0.45594000000E+02  0.51100000000E-03 0.  1.
         11   -1    0    0    0    0 -0.00000000000E+00 -0.00000000000E+00 -0.45593999997E+02  0.45594000000E+02  0.51100000000E-03 0. -1.
         23    2    1    2    0    0  0.00000000000E+00  0.00000000000E+00  0.00000000000E+00  0.91188000000E+02  0.91188000000E+02 0.  0.
    9900012    2    3    3    0    0  0.24993747997E+02  0.11257157068E+02  0.24583915060E+02  0.54367083337E+02  0.39999998084E+02 0.  0.
         12    1    3    3    0    0 -0.24993747997E+02 -0.11257157068E+02 -0.24583915060E+02  0.36820916663E+02  0.00000000000E+00 0. -1.
         11    1    4    4    0    0  0.26324943595E+02  0.13561668991E+02  0.19601728868E+02  0.35512663882E+02  0.51100000000E-03 0. -1.
        -11    1    4    4    0    0  0.23259172727E+01  0.43435053901E+01  0.90062138069E+01  0.10265856887E+02  0.51100000000E-03 0.  1.
         12    1    4    4    0    0 -0.36571128709E+01 -0.66480173133E+01 -0.40240276146E+01  0.85885625684E+01  0.00000000000E+00 0. -1.
</event>
<event>
 8    1  0.2502398E-006  0.9118800E+02  0.7816164E-02  0.1184000E+00
        -11   -1    0    0    0    0  0.00000000000E+00  0.00000000000E+00  0.45593999997E+02  0.45594000000E+02  0.51100000000E-03 0. -1.
         11   -1    0    0    0    0 -0.00000000000E+00 -0.00000000000E+00 -0.45593999997E+02  0.45594000000E+02  0.51100000000E-03 0.  1.
         23    2    1    2    0    0 -0.22204460493E-14  0.00000000000E+00  0.44408920985E-15  0.91188000000E+02  0.91188000000E+02 0.  0.
    9900012    2    3    3    0    0  0.35760053860E+01  0.36490372220E+02 -0.33820491607E+01  0.54367172527E+02  0.40000201410E+02 0.  0.
         12    1    3    3    0    0 -0.35760053860E+01 -0.36490372220E+02  0.33820491607E+01  0.36820827473E+02  0.00000000000E+00 0. -1.
         11    1    4    4    0    0 -0.11818653264E+02  0.62108295392E+01  0.29974465671E+01  0.13683554170E+02  0.51100000000E-03 0. -1.
        -11    1    4    4    0    0  0.67984699741E+01  0.10713375609E+02 -0.13142303931E+02  0.18267888871E+02  0.51100000000E-03 0.  1.
         12    1    4    4    0    0  0.85961886760E+01  0.19566167071E+02  0.67628082029E+01  0.22415729486E+02  0.00000000000E+00 0. -1.
</event>
<event>
 8    1  0.2502398E-006  0.9118800E+02  0.7816164E-02  0.1184000E+00
        -11   -1    0    0    0    0  0.00000000000E+00  0.00000000000E+00  0.45593999997E+02  0.45594000000E+02  0.51100000000E-03 0. -1.
         11   -1    0    0    0    0 -0.00000000000E+00 -0.00000000000E+00 -0.45593999997E+02  0.45594000000E+02  0.51100000000E-03 0.  1.
         23    2    1    2    0    0  0.00000000000E+00  0.35527136788E-14  0.00000000000E+00  0.91188000000E+02  0.91188000000E+02 0.  0.
    9900012    2    3    3    0    0 -0.24176918240E+02  0.26740076346E+02 -0.74983955055E+01  0.54367068538E+02  0.39999964345E+02 0.  0.
         12    1    3    3    0    0  0.24176918240E+02 -0.26740076346E+02  0.74983955055E+01  0.36820931462E+02  0.00000000000E+00 0. -1.
         11    1    4    4    0    0 -0.46410891604E+00 -0.62774460738E+01 -0.35561697575E+00  0.63046165617E+01  0.51100000000E-03 0. -1.
        -11    1    4    4    0    0 -0.88239555765E+01  0.20716171172E+02 -0.15166735733E+02  0.27148698185E+02  0.51100000000E-03 0.  1.
         12    1    4    4    0    0 -0.14888853747E+02  0.12301351248E+02  0.80239572037E+01  0.20913753791E+02  0.00000000000E+00 0. -1.
</event>
<event>
 8    1  0.2502398E-006  0.9118800E+02  0.7816164E-02  0.1184000E+00
        -11   -1    0    0    0    0  0.00000000000E+00  0.00000000000E+00  0.45593999997E+02  0.45594000000E+02  0.51100000000E-03 0.  1.
         11   -1    0    0    0    0 -0.00000000000E+00 -0.00000000000E+00 -0.45593999997E+02  0.45594000000E+02  0.51100000000E-03 0. -1.
         23    2    1    2    0    0  0.00000000000E+00  0.17763568394E-14  0.00000000000E+00  0.91188000000E+02  0.91188000000E+02 0.  0.
    9900012    2    3    3    0    0  0.31043090000E+02 -0.15854015052E+02  0.11864058305E+02  0.54367094125E+02  0.40000022676E+02 0.  0.
        -12    1    3    3    0    0 -0.31043090000E+02  0.15854015052E+02 -0.11864058305E+02  0.36820905875E+02  0.00000000000E+00 0.  1.
         11    1    4    4    0    0  0.16227112252E+02 -0.17555958133E+01  0.53998266632E+01  0.17191841582E+02  0.51100000000E-03 0. -1.
        -11    1    4    4    0    0  0.18342265749E+02 -0.20543003304E+02  0.23115096953E+00  0.27541008126E+02  0.51100000000E-03 0.  1.
        -12    1    4    4    0    0 -0.35262880019E+01  0.64445840645E+01  0.62330806718E+01  0.96342444176E+01  0.00000000000E+00 0.  1.
</event>
<event>
 8    1  0.2502398E-006  0.9118800E+02  0.7816164E-02  0.1184000E+00
        -11   -1    0    0    0    0  0.00000000000E+00  0.00000000000E+00  0.45593999997E+02  0.45594000000E+02  0.51100000000E-03 0. -1.
         11   -1    0    0    0    0 -0.00000000000E+00 -0.00000000000E+00 -0.45593999997E+02  0.45594000000E+02  0.51100000000E-03 0.  1.
         23    2    1    2    0    0  0.22204460493E-15  0.00000000000E+00 -0.17763568394E-14  0.91188000000E+02  0.91188000000E+02 0.  0.
    9900012    2    3    3    0    0  0.16334498062E+01 -0.33594748092E+02 -0.14983474825E+02  0.54367085081E+02  0.40000002059E+02 0.  0.
         12    1    3    3    0    0 -0.16334498062E+01  0.33594748092E+02  0.14983474825E+02  0.36820914919E+02  0.00000000000E+00 0. -1.
         11    1    4    4    0    0 -0.93010739366E+01 -0.36667304818E+02 -0.53539227017E+01  0.38205571682E+02  0.51100000000E-03 0. -1.
        -11    1    4    4    0    0  0.16136053004E+01  0.29144126146E+01 -0.42444951931E+01  0.53956707330E+01  0.51100000000E-03 0.  1.
         12    1    4    4    0    0  0.93209184423E+01  0.15814411080E+00 -0.53850569300E+01  0.10765842666E+02  0.00000000000E+00 0. -1.
</event>
<event>
 8    1  0.2502398E-006  0.9118800E+02  0.7816164E-02  0.1184000E+00
        -11   -1    0    0    0    0  0.00000000000E+00  0.00000000000E+00  0.45593999997E+02  0.45594000000E+02  0.51100000000E-03 0.  1.
         11   -1    0    0    0    0 -0.00000000000E+00 -0.00000000000E+00 -0.45593999997E+02  0.45594000000E+02  0.51100000000E-03 0. -1.
         23    2    1    2    0    0 -0.17763568394E-14 -0.71054273576E-14 -0.17763568394E-14  0.91188000000E+02  0.91188000000E+02 0.  0.
    9900012    2    3    3    0    0 -0.13349876576E+02 -0.32503184211E+02  0.11004701918E+02  0.54367086747E+02  0.40000005858E+02 0.  0.
        -12    1    3    3    0    0  0.13349876576E+02  0.32503184211E+02 -0.11004701918E+02  0.36820913253E+02  0.00000000000E+00 0.  1.
         11    1    4    4    0    0 -0.10856757555E+02 -0.14002224389E+02 -0.71255146262E+01  0.19097236224E+02  0.51100000000E-03 0. -1.
        -11    1    4    4    0    0  0.52909764100E+01  0.37389545688E+01  0.22632338238E+01  0.68626846235E+01  0.51100000000E-03 0.  1.
        -12    1    4    4    0    0 -0.77840954307E+01 -0.22239914391E+02  0.15866982720E+02  0.28407165899E+02  0.00000000000E+00 0.  1.
</event>
<event>
 8    1  0.2502398E-006  0.9118800E+02  0.7816164E-02  0.1184000E+00
        -11   -1    0    0    0    0  0.00000000000E+00  0.00000000000E+00  0.45593999997E+02  0.45594000000E+02  0.51100000000E-03 0. -1.
         11   -1    0    0    0    0 -0.00000000000E+00 -0.00000000000E+00 -0.45593999997E+02  0.45594000000E+02  0.51100000000E-03 0.  1.
         23    2    1    2    0    0  0.44408920985E-15 -0.71054273576E-14  0.00000000000E+00  0.91188000000E+02  0.91188000000E+02 0.  0.
    9900012    2    3    3    0    0  0.28641227596E+01 -0.33587228554E+02  0.14814693596E+02  0.54367078401E+02  0.39999986830E+02 0.  0.
         12    1    3    3    0    0 -0.28641227596E+01  0.33587228554E+02 -0.14814693596E+02  0.36820921599E+02  0.00000000000E+00 0. -1.
         11    1    4    4    0    0 -0.12119380072E+02 -0.74691897934E+01 -0.30423802837E+01  0.14557618196E+02  0.51100000000E-03 0. -1.
        -11    1    4    4    0    0 -0.38683782012E+01 -0.57446742040E+01  0.23278371560E+00  0.69296334779E+01  0.51100000000E-03 0.  1.
        -12    1    4    4    0    0  0.18851881032E+02 -0.20373364556E+02  0.17624290164E+02  0.32879826727E+02  0.00000000000E+00 0.  1.
</event>
<event>
 8    1  0.2502398E-006  0.9118800E+02  0.7816164E-02  0.1184000E+00
        -11   -1    0    0    0    0  0.00000000000E+00  0.00000000000E+00  0.45593999997E+02  0.45594000000E+02  0.51100000000E-03 0.  1.
         11   -1    0    0    0    0 -0.00000000000E+00 -0.00000000000E+00 -0.45593999997E+02  0.45594000000E+02  0.51100000000E-03 0. -1.
         23    2    1    2    0    0  0.00000000000E+00 -0.35527136788E-14  0.00000000000E+00  0.91188000000E+02  0.91188000000E+02 0.  0.
    9900012    2    3    3    0    0  0.51435065837E+01  0.25195672673E+02  0.26353455157E+02  0.54367052428E+02  0.39999927620E+02 0.  0.
         12    1    3    3    0    0 -0.51435065837E+01 -0.25195672673E+02 -0.26353455157E+02  0.36820947572E+02  0.00000000000E+00 0. -1.
         11    1    4    4    0    0 -0.88411943595E+01 -0.60461898208E+01  0.33089546828E+01  0.11210366203E+02  0.51100000000E-03 0. -1.
        -11    1    4    4    0    0  0.56219829229E+01  0.18571596276E+02  0.19618978164E+02  0.27593752638E+02  0.51100000000E-03 0.  1.
         12    1    4    4    0    0  0.83627180204E+01  0.12670266218E+02  0.34255223101E+01  0.15562933586E+02  0.00000000000E+00 0. -1.
</event>
<event>
 8    1  0.2502398E-006  0.9118800E+02  0.7816164E-02  0.1184000E+00
        -11   -1    0    0    0    0  0.00000000000E+00  0.00000000000E+00  0.45593999997E+02  0.45594000000E+02  0.51100000000E-03 0. -1.
         11   -1    0    0    0    0 -0.00000000000E+00 -0.00000000000E+00 -0.45593999997E+02  0.45594000000E+02  0.51100000000E-03 0.  1.
         23    2    1    2    0    0  0.00000000000E+00  0.00000000000E+00  0.00000000000E+00  0.91188000000E+02  0.91188000000E+02 0.  0.
    9900012    2    3    3    0    0  0.23234193380E+02 -0.19094810424E+02  0.21244815531E+02  0.54367058756E+02  0.39999942047E+02 0.  0.
        -12    1    3    3    0    0 -0.23234193380E+02  0.19094810424E+02 -0.21244815531E+02  0.36820941244E+02  0.00000000000E+00 0.  1.
         11    1    4    4    0    0 -0.23774684285E+01  0.17877452612E+01  0.12045186987E+02  0.12407051183E+02  0.51100000000E-03 0. -1.
        -11    1    4    4    0    0  0.51002714719E+00 -0.14560422163E+02  0.25157879571E+00  0.14571524059E+02  0.51100000000E-03 0.  1.
         12    1    4    4    0    0  0.25101634661E+02 -0.63221335225E+01  0.89480497485E+01  0.27388483514E+02  0.00000000000E+00 0. -1.
</event>
<event>
 8    1  0.2502398E-006  0.9118800E+02  0.7816164E-02  0.1184000E+00
        -11   -1    0    0    0    0  0.00000000000E+00  0.00000000000E+00  0.45593999997E+02  0.45594000000E+02  0.51100000000E-03 0.  1.
         11   -1    0    0    0    0 -0.00000000000E+00 -0.00000000000E+00 -0.45593999997E+02  0.45594000000E+02  0.51100000000E-03 0. -1.
         23    2    1    2    0    0  0.00000000000E+00  0.00000000000E+00  0.00000000000E+00  0.91188000000E+02  0.91188000000E+02 0.  0.
    9900012    2    3    3    0    0  0.59704090632E+01 -0.19153487150E+02  0.30875198856E+02  0.54367085307E+02  0.40000002575E+02 0.  0.
         12    1    3    3    0    0 -0.59704090632E+01  0.19153487150E+02 -0.30875198856E+02  0.36820914693E+02  0.00000000000E+00 0. -1.
         11    1    4    4    0    0 -0.13920575038E+01  0.51604436439E+01  0.55124055076E+00  0.53732549820E+01  0.51100000000E-03 0. -1.
        -11    1    4    4    0    0  0.35495457158E+01 -0.15996565192E+02 -0.94581600866E+00  0.16412919938E+02  0.51100000000E-03 0.  1.
        -12    1    4    4    0    0  0.38129208512E+01 -0.83173656024E+01  0.31269774314E+02  0.32580910387E+02  0.00000000000E+00 0.  1.
</event>
<event>
 8    1  0.2502398E-006  0.9118800E+02  0.7816164E-02  0.1184000E+00
        -11   -1    0    0    0    0  0.00000000000E+00  0.00000000000E+00  0.45593999997E+02  0.45594000000E+02  0.51100000000E-03 0.  1.
         11   -1    0    0    0    0 -0.00000000000E+00 -0.00000000000E+00 -0.45593999997E+02  0.45594000000E+02  0.51100000000E-03 0. -1.
         23    2    1    2    0    0 -0.17763568394E-14  0.35527136788E-14  0.35527136788E-14  0.91188000000E+02  0.91188000000E+02 0.  0.
    9900012    2    3    3    0    0  0.88405110574E+01 -0.16347150887E+02 -0.31786733571E+02  0.54367076479E+02  0.39999982449E+02 0.  0.
        -12    1    3    3    0    0 -0.88405110574E+01  0.16347150887E+02  0.31786733571E+02  0.36820923521E+02  0.00000000000E+00 0.  1.
         11    1    4    4    0    0 -0.36328118046E+01 -0.59562217758E+01 -0.26847710778E+02  0.27739384884E+02  0.51100000000E-03 0. -1.
        -11    1    4    4    0    0  0.89197607501E+01  0.10801712943E+01  0.56527569935E+01  0.10615204367E+02  0.51100000000E-03 0.  1.
         12    1    4    4    0    0  0.35535621119E+01 -0.11471100405E+02 -0.10591779786E+02  0.16012487228E+02  0.00000000000E+00 0. -1.
</event>
<event>
 8    1  0.2502398E-006  0.9118800E+02  0.7816164E-02  0.1184000E+00
        -11   -1    0    0    0    0  0.00000000000E+00  0.00000000000E+00  0.45593999997E+02  0.45594000000E+02  0.51100000000E-03 0.  1.
         11   -1    0    0    0    0 -0.00000000000E+00 -0.00000000000E+00 -0.45593999997E+02  0.45594000000E+02  0.51100000000E-03 0. -1.
         23    2    1    2    0    0  0.17763568394E-14 -0.17763568394E-14  0.00000000000E+00  0.91188000000E+02  0.91188000000E+02 0.  0.
    9900012    2    3    3    0    0 -0.10967168505E+02  0.15715060167E+02 -0.31441015885E+02  0.54367090438E+02  0.40000014272E+02 0.  0.
        -12    1    3    3    0    0  0.10967168505E+02 -0.15715060167E+02  0.31441015885E+02  0.36820909562E+02  0.00000000000E+00 0.  1.
         11    1    4    4    0    0  0.55046778356E+01  0.12508169884E+02 -0.60856571538E+01  0.14959646225E+02  0.51100000000E-03 0. -1.
        -11    1    4    4    0    0 -0.21015417838E+02 -0.13678906964E+01 -0.25354027262E+02  0.32959757440E+02  0.51100000000E-03 0.  1.
        -12    1    4    4    0    0  0.45435714967E+01  0.45747809795E+01 -0.13314693748E-02  0.64476867735E+01  0.00000000000E+00 0.  1.
</event>
<event>
 8    1  0.2502398E-006  0.9118800E+02  0.7816164E-02  0.1184000E+00
        -11   -1    0    0    0    0  0.00000000000E+00  0.00000000000E+00  0.45593999997E+02  0.45594000000E+02  0.51100000000E-03 0.  1.
         11   -1    0    0    0    0 -0.00000000000E+00 -0.00000000000E+00 -0.45593999997E+02  0.45594000000E+02  0.51100000000E-03 0. -1.
         23    2    1    2    0    0  0.00000000000E+00  0.00000000000E+00  0.17763568394E-14  0.91188000000E+02  0.91188000000E+02 0.  0.
    9900012    2    3    3    0    0 -0.21317230467E+02 -0.26650121289E+02 -0.13824879483E+02  0.54367074262E+02  0.39999977396E+02 0.  0.
        -12    1    3    3    0    0  0.21317230467E+02  0.26650121289E+02  0.13824879483E+02  0.36820925738E+02  0.00000000000E+00 0.  1.
         11    1    4    4    0    0 -0.25416590558E+02 -0.90530507739E+01 -0.26988546545E+01  0.27115394532E+02  0.51100000000E-03 0. -1.
        -11    1    4    4    0    0 -0.39148642973E+00  0.10954461274E+01  0.31162974060E+01  0.33263453859E+01  0.51100000000E-03 0.  1.
        -12    1    4    4    0    0  0.44908465208E+01 -0.18692516642E+02 -0.14242322234E+02  0.23925334345E+02  0.00000000000E+00 0.  1.
</event>
<event>
 8    1  0.2502398E-006  0.9118800E+02  0.7816164E-02  0.1184000E+00
        -11   -1    0    0    0    0  0.00000000000E+00  0.00000000000E+00  0.45593999997E+02  0.45594000000E+02  0.51100000000E-03 0.  1.
         11   -1    0    0    0    0 -0.00000000000E+00 -0.00000000000E+00 -0.45593999997E+02  0.45594000000E+02  0.51100000000E-03 0. -1.
         23    2    1    2    0    0 -0.35527136788E-14  0.00000000000E+00  0.35527136788E-14  0.91188000000E+02  0.91188000000E+02 0.  0.
    9900012    2    3    3    0    0 -0.24448299652E+02 -0.18774444059E+02  0.20139038253E+02  0.54367082475E+02  0.39999996119E+02 0.  0.
         12    1    3    3    0    0  0.24448299652E+02  0.18774444059E+02 -0.20139038253E+02  0.36820917525E+02  0.00000000000E+00 0. -1.
         11    1    4    4    0    0 -0.36403809241E+01 -0.15548982733E+02  0.42024179995E+01  0.16513132792E+02  0.51100000000E-03 0. -1.
        -11    1    4    4    0    0 -0.93893574979E+01 -0.12575830029E+02  0.16900788381E+02  0.23064001893E+02  0.51100000000E-03 0.  1.
         12    1    4    4    0    0 -0.11418561230E+02  0.93503687034E+01 -0.96416812803E+00  0.14789947790E+02  0.00000000000E+00 0. -1.
</event>
<event>
 8    1  0.2502398E-006  0.9118800E+02  0.7816164E-02  0.1184000E+00
        -11   -1    0    0    0    0  0.00000000000E+00  0.00000000000E+00  0.45593999997E+02  0.45594000000E+02  0.51100000000E-03 0. -1.
         11   -1    0    0    0    0 -0.00000000000E+00 -0.00000000000E+00 -0.45593999997E+02  0.45594000000E+02  0.51100000000E-03 0.  1.
         23    2    1    2    0    0  0.00000000000E+00  0.00000000000E+00  0.00000000000E+00  0.91188000000E+02  0.91188000000E+02 0.  0.
    9900012    2    3    3    0    0  0.28704064705E+02 -0.11329274759E+02  0.20087435247E+02  0.54367070463E+02  0.39999968735E+02 0.  0.
        -12    1    3    3    0    0 -0.28704064705E+02  0.11329274759E+02 -0.20087435247E+02  0.36820929537E+02  0.00000000000E+00 0.  1.
         11    1    4    4    0    0  0.11072482260E+02 -0.43520382629E+01  0.16018129047E+02  0.19952958649E+02  0.51100000000E-03 0. -1.
        -11    1    4    4    0    0  0.82054748540E+01  0.10726362987E+02 -0.15277984359E+01  0.13591131257E+02  0.51100000000E-03 0.  1.
         12    1    4    4    0    0  0.94261075914E+01 -0.17703599483E+02  0.55971046366E+01  0.20822980557E+02  0.00000000000E+00 0. -1.
</event>
<event>
 8    1  0.2502398E-006  0.9118800E+02  0.7816164E-02  0.1184000E+00
        -11   -1    0    0    0    0  0.00000000000E+00  0.00000000000E+00  0.45593999997E+02  0.45594000000E+02  0.51100000000E-03 0.  1.
         11   -1    0    0    0    0 -0.00000000000E+00 -0.00000000000E+00 -0.45593999997E+02  0.45594000000E+02  0.51100000000E-03 0. -1.
         23    2    1    2    0    0  0.00000000000E+00  0.00000000000E+00 -0.35527136788E-14  0.91188000000E+02  0.91188000000E+02 0.  0.
    9900012    2    3    3    0    0 -0.34811296885E+02  0.88111396347E+01  0.81434284064E+01  0.54367109209E+02  0.40000057063E+02 0.  0.
         12    1    3    3    0    0  0.34811296885E+02 -0.88111396347E+01 -0.81434284064E+01  0.36820890791E+02  0.00000000000E+00 0. -1.
         11    1    4    4    0    0 -0.51336354202E+01 -0.47072953225E+01 -0.63416767952E+01  0.94196447235E+01  0.51100000000E-03 0. -1.
        -11    1    4    4    0    0 -0.14965158979E+02  0.24739168909E+01 -0.69632710617E+01  0.16690218458E+02  0.51100000000E-03 0.  1.
        -12    1    4    4    0    0 -0.14712502486E+02  0.11044518066E+02  0.21448376263E+02  0.28257246027E+02  0.00000000000E+00 0.  1.
</event>
<event>
 8    1  0.2502398E-006  0.9118800E+02  0.7816164E-02  0.1184000E+00
        -11   -1    0    0    0    0  0.00000000000E+00  0.00000000000E+00  0.45593999997E+02  0.45594000000E+02  0.51100000000E-03 0. -1.
         11   -1    0    0    0    0 -0.00000000000E+00 -0.00000000000E+00 -0.45593999997E+02  0.45594000000E+02  0.51100000000E-03 0.  1.
         23    2    1    2    0    0  0.88817841970E-15  0.17763568394E-14 -0.71054273576E-14  0.91188000000E+02  0.91188000000E+02 0.  0.
    9900012    2    3    3    0    0  0.31530423086E+01  0.11286039358E+02 -0.34906495164E+02  0.54367085226E+02  0.40000002389E+02 0.  0.
         12    1    3    3    0    0 -0.31530423086E+01 -0.11286039358E+02  0.34906495164E+02  0.36820914774E+02  0.00000000000E+00 0. -1.
         11    1    4    4    0    0  0.24120881920E+01 -0.50712829248E+01  0.22383186418E+01  0.60453412271E+01  0.51100000000E-03 0. -1.
        -11    1    4    4    0    0 -0.50209830338E+01  0.19125750573E+02 -0.13788893535E+02  0.24106807975E+02  0.51100000000E-03 0.  1.
        -12    1    4    4    0    0  0.57619371504E+01 -0.27684282897E+01 -0.23355920271E+02  0.24214936023E+02  0.00000000000E+00 0.  1.
</event>
<event>
 8    1  0.2502398E-006  0.9118800E+02  0.7816164E-02  0.1184000E+00
        -11   -1    0    0    0    0  0.00000000000E+00  0.00000000000E+00  0.45593999997E+02  0.45594000000E+02  0.51100000000E-03 0.  1.
         11   -1    0    0    0    0 -0.00000000000E+00 -0.00000000000E+00 -0.45593999997E+02  0.45594000000E+02  0.51100000000E-03 0. -1.
         23    2    1    2    0    0  0.88817841970E-15  0.00000000000E+00  0.00000000000E+00  0.91188000000E+02  0.91188000000E+02 0.  0.
    9900012    2    3    3    0    0  0.68975220196E+01  0.10055641167E+02 -0.34743212206E+02  0.54367047763E+02  0.39999916985E+02 0.  0.
        -12    1    3    3    0    0 -0.68975220196E+01 -0.10055641167E+02  0.34743212206E+02  0.36820952237E+02  0.00000000000E+00 0.  1.
         11    1    4    4    0    0  0.61495725721E+01  0.82232330172E+01 -0.14981851250E+02  0.18163002814E+02  0.51100000000E-03 0.  1.
        -11    1    4    4    0    0 -0.86165889667E+01  0.18186415766E+01 -0.24264413896E+02  0.25813075071E+02  0.51100000000E-03 0. -1.
         12    1    4    4    0    0  0.93645384141E+01  0.13766572894E-01  0.45030529408E+01  0.10390969878E+02  0.00000000000E+00 0. -1.
</event>
<event>
 8    1  0.2502398E-006  0.9118800E+02  0.7816164E-02  0.1184000E+00
        -11   -1    0    0    0    0  0.00000000000E+00  0.00000000000E+00  0.45593999997E+02  0.45594000000E+02  0.51100000000E-03 0. -1.
         11   -1    0    0    0    0 -0.00000000000E+00 -0.00000000000E+00 -0.45593999997E+02  0.45594000000E+02  0.51100000000E-03 0.  1.
         23    2    1    2    0    0 -0.35527136788E-14  0.00000000000E+00 -0.35527136788E-14  0.91188000000E+02  0.91188000000E+02 0.  0.
    9900012    2    3    3    0    0  0.26202121029E+02 -0.58080653860E+01  0.25209040803E+02  0.54367075132E+02  0.39999979378E+02 0.  0.
        -12    1    3    3    0    0 -0.26202121029E+02  0.58080653860E+01 -0.25209040803E+02  0.36820924868E+02  0.00000000000E+00 0.  1.
         11    1    4    4    0    0  0.18654940608E+00 -0.15875164182E+02  0.16915322381E+02  0.23198788115E+02  0.51100000000E-03 0. -1.
        -11    1    4    4    0    0 -0.48592774572E+00  0.18324383665E+01  0.19121261039E+01  0.26926163186E+01  0.51100000000E-03 0.  1.
         12    1    4    4    0    0  0.26501499369E+02  0.82346604297E+01  0.63815923179E+01  0.28475670698E+02  0.00000000000E+00 0. -1.
</event>
<event>
 8    1  0.2502398E-006  0.9118800E+02  0.7816164E-02  0.1184000E+00
        -11   -1    0    0    0    0  0.00000000000E+00  0.00000000000E+00  0.45593999997E+02  0.45594000000E+02  0.51100000000E-03 0. -1.
         11   -1    0    0    0    0 -0.00000000000E+00 -0.00000000000E+00 -0.45593999997E+02  0.45594000000E+02  0.51100000000E-03 0.  1.
         23    2    1    2    0    0  0.00000000000E+00  0.35527136788E-14  0.53290705182E-14  0.91188000000E+02  0.91188000000E+02 0.  0.
    9900012    2    3    3    0    0  0.20241845083E+02  0.29111628322E+02  0.99277907688E+01  0.54367078971E+02  0.39999988129E+02 0.  0.
        -12    1    3    3    0    0 -0.20241845083E+02 -0.29111628322E+02 -0.99277907688E+01  0.36820921029E+02  0.00000000000E+00 0.  1.
         11    1    4    4    0    0  0.24983913316E+01  0.59804183742E+01  0.10894890529E+02  0.12676987145E+02  0.51100000000E-03 0. -1.
        -11    1    4    4    0    0  0.19136998635E+02  0.14288866325E+01 -0.43617563429E+01  0.19679719318E+02  0.51100000000E-03 0.  1.
        -12    1    4    4    0    0 -0.13935448836E+01  0.21702323315E+02  0.33946565825E+01  0.22010372507E+02  0.00000000000E+00 0.  1.
</event>
<event>
 8    1  0.2502398E-006  0.9118800E+02  0.7816164E-02  0.1184000E+00
        -11   -1    0    0    0    0  0.00000000000E+00  0.00000000000E+00  0.45593999997E+02  0.45594000000E+02  0.51100000000E-03 0.  1.
         11   -1    0    0    0    0 -0.00000000000E+00 -0.00000000000E+00 -0.45593999997E+02  0.45594000000E+02  0.51100000000E-03 0. -1.
         23    2    1    2    0    0  0.00000000000E+00  0.88817841970E-15 -0.35527136788E-14  0.91188000000E+02  0.91188000000E+02 0.  0.
    9900012    2    3    3    0    0 -0.27880198268E+02 -0.33681026302E+01  0.23814508132E+02  0.54367077030E+02  0.39999983705E+02 0.  0.
         12    1    3    3    0    0  0.27880198268E+02  0.33681026302E+01 -0.23814508132E+02  0.36820922970E+02  0.00000000000E+00 0. -1.
         11    1    4    4    0    0 -0.23760770611E+02 -0.73390203784E+01  0.39541250810E+01  0.25180757446E+02  0.51100000000E-03 0. -1.
        -11    1    4    4    0    0 -0.48843486670E+01 -0.46966690595E+01  0.19313697782E+02  0.20467889105E+02  0.51100000000E-03 0.  1.
         12    1    4    4    0    0  0.76492101036E+00  0.86675868077E+01  0.54668526910E+00  0.87184304782E+01  0.00000000000E+00 0. -1.
</event>
<event>
 8    1  0.2502398E-006  0.9118800E+02  0.7816164E-02  0.1184000E+00
        -11   -1    0    0    0    0  0.00000000000E+00  0.00000000000E+00  0.45593999997E+02  0.45594000000E+02  0.51100000000E-03 0.  1.
         11   -1    0    0    0    0 -0.00000000000E+00 -0.00000000000E+00 -0.45593999997E+02  0.45594000000E+02  0.51100000000E-03 0. -1.
         23    2    1    2    0    0  0.13322676296E-14  0.00000000000E+00  0.44408920985E-15  0.91188000000E+02  0.91188000000E+02 0.  0.
    9900012    2    3    3    0    0 -0.35881497587E+01 -0.36519736241E+02 -0.30354797233E+01  0.54367080797E+02  0.39999992294E+02 0.  0.
         12    1    3    3    0    0  0.35881497587E+01  0.36519736241E+02  0.30354797233E+01  0.36820919203E+02  0.00000000000E+00 0. -1.
         11    1    4    4    0    0  0.54376749739E+01 -0.11996230576E+01  0.61626189504E+01  0.83057376067E+01  0.51100000000E-03 0. -1.
        -11    1    4    4    0    0  0.30723099084E+01  0.14179770259E+01 -0.64516085592E+01  0.72851218440E+01  0.51100000000E-03 0.  1.
        -12    1    4    4    0    0 -0.12098134641E+02 -0.36738090209E+02 -0.27464901145E+01  0.38776221347E+02  0.00000000000E+00 0.  1.
</event>
<event>
 8    1  0.2502398E-006  0.9118800E+02  0.7816164E-02  0.1184000E+00
        -11   -1    0    0    0    0  0.00000000000E+00  0.00000000000E+00  0.45593999997E+02  0.45594000000E+02  0.51100000000E-03 0. -1.
         11   -1    0    0    0    0 -0.00000000000E+00 -0.00000000000E+00 -0.45593999997E+02  0.45594000000E+02  0.51100000000E-03 0.  1.
         23    2    1    2    0    0 -0.35527136788E-14  0.00000000000E+00  0.00000000000E+00  0.91188000000E+02  0.91188000000E+02 0.  0.
    9900012    2    3    3    0    0 -0.28804282618E+02 -0.21414089280E+02  0.82176622601E+01  0.54367083528E+02  0.39999998519E+02 0.  0.
        -12    1    3    3    0    0  0.28804282618E+02  0.21414089280E+02 -0.82176622601E+01  0.36820916472E+02  0.00000000000E+00 0.  1.
         11    1    4    4    0    0 -0.11515686882E+01  0.87818530745E+01 -0.13440979023E-01  0.88570443595E+01  0.51100000000E-03 0.  1.
        -11    1    4    4    0    0  0.55281262763E+00  0.13755135806E+01  0.23349017416E+01  0.27657559213E+01  0.51100000000E-03 0. -1.
        -12    1    4    4    0    0 -0.28205526558E+02 -0.31571455935E+02  0.58962014975E+01  0.42744283247E+02  0.00000000000E+00 0.  1.
</event>
<event>
 8    1  0.2502398E-006  0.9118800E+02  0.7816164E-02  0.1184000E+00
        -11   -1    0    0    0    0  0.00000000000E+00  0.00000000000E+00  0.45593999997E+02  0.45594000000E+02  0.51100000000E-03 0. -1.
         11   -1    0    0    0    0 -0.00000000000E+00 -0.00000000000E+00 -0.45593999997E+02  0.45594000000E+02  0.51100000000E-03 0.  1.
         23    2    1    2    0    0 -0.88817841970E-15  0.00000000000E+00  0.00000000000E+00  0.91188000000E+02  0.91188000000E+02 0.  0.
    9900012    2    3    3    0    0 -0.53353577697E+01 -0.15836159280E+02  0.32810544821E+02  0.54367057118E+02  0.39999938312E+02 0.  0.
        -12    1    3    3    0    0  0.53353577697E+01  0.15836159280E+02 -0.32810544821E+02  0.36820942882E+02  0.00000000000E+00 0.  1.
         11    1    4    4    0    0  0.44354243678E+01 -0.10562091814E+02  0.13043779994E+02  0.17360039447E+02  0.51100000000E-03 0. -1.
        -11    1    4    4    0    0  0.91220189369E+01 -0.58828688761E+01  0.12986008893E+02  0.16925005257E+02  0.51100000000E-03 0.  1.
        -12    1    4    4    0    0 -0.18892801074E+02  0.60880140937E+00  0.67807559331E+01  0.20082012415E+02  0.00000000000E+00 0.  1.
</event>
<event>
 8    1  0.2502398E-006  0.9118800E+02  0.7816164E-02  0.1184000E+00
        -11   -1    0    0    0    0  0.00000000000E+00  0.00000000000E+00  0.45593999997E+02  0.45594000000E+02  0.51100000000E-03 0.  1.
         11   -1    0    0    0    0 -0.00000000000E+00 -0.00000000000E+00 -0.45593999997E+02  0.45594000000E+02  0.51100000000E-03 0. -1.
         23    2    1    2    0    0  0.00000000000E+00  0.00000000000E+00  0.88817841970E-15  0.91188000000E+02  0.91188000000E+02 0.  0.
    9900012    2    3    3    0    0  0.35720605184E+02  0.59716827500E+01  0.66450128873E+01  0.54367097976E+02  0.40000031456E+02 0.  0.
        -12    1    3    3    0    0 -0.35720605184E+02 -0.59716827500E+01 -0.66450128873E+01  0.36820902024E+02  0.00000000000E+00 0.  1.
         11    1    4    4    0    0  0.67023511614E+01  0.27427801805E+01 -0.81886979298E+01  0.10931565682E+02  0.51100000000E-03 0. -1.
        -11    1    4    4    0    0  0.22830527407E+02  0.12752140147E+02  0.17878015217E+02  0.31677649666E+02  0.51100000000E-03 0.  1.
        -12    1    4    4    0    0  0.61877266158E+01 -0.95232375775E+01 -0.30443043996E+01  0.11757882629E+02  0.00000000000E+00 0.  1.
</event>
<event>
 8    1  0.2502398E-006  0.9118800E+02  0.7816164E-02  0.1184000E+00
        -11   -1    0    0    0    0  0.00000000000E+00  0.00000000000E+00  0.45593999997E+02  0.45594000000E+02  0.51100000000E-03 0.  1.
         11   -1    0    0    0    0 -0.00000000000E+00 -0.00000000000E+00 -0.45593999997E+02  0.45594000000E+02  0.51100000000E-03 0. -1.
         23    2    1    2    0    0 -0.35527136788E-14  0.71054273576E-14 -0.35527136788E-14  0.91188000000E+02  0.91188000000E+02 0.  0.
    9900012    2    3    3    0    0  0.90593271653E+01 -0.29537068858E+02  0.20031717723E+02  0.54367088002E+02  0.40000008719E+02 0.  0.
         12    1    3    3    0    0 -0.90593271653E+01  0.29537068858E+02 -0.20031717723E+02  0.36820911998E+02  0.00000000000E+00 0. -1.
         11    1    4    4    0    0  0.10328222195E+02  0.66845180728E+00 -0.48512070526E+01  0.11430363584E+02  0.51100000000E-03 0. -1.
        -11    1    4    4    0    0 -0.60306280376E+01 -0.29405821059E+02  0.22716681170E+02  0.37644632955E+02  0.51100000000E-03 0.  1.
        -12    1    4    4    0    0  0.47617330077E+01 -0.79969960606E+00  0.21662436059E+01  0.52920914634E+01  0.00000000000E+00 0.  1.
</event>
<event>
 8    1  0.2502398E-006  0.9118800E+02  0.7816164E-02  0.1184000E+00
        -11   -1    0    0    0    0  0.00000000000E+00  0.00000000000E+00  0.45593999997E+02  0.45594000000E+02  0.51100000000E-03 0. -1.
         11   -1    0    0    0    0 -0.00000000000E+00 -0.00000000000E+00 -0.45593999997E+02  0.45594000000E+02  0.51100000000E-03 0.  1.
         23    2    1    2    0    0  0.00000000000E+00  0.00000000000E+00  0.00000000000E+00  0.91188000000E+02  0.91188000000E+02 0.  0.
    9900012    2    3    3    0    0 -0.15326930664E+02 -0.20634410671E+02 -0.26364480227E+02  0.54367088483E+02  0.40000009815E+02 0.  0.
         12    1    3    3    0    0  0.15326930664E+02  0.20634410671E+02  0.26364480227E+02  0.36820911517E+02  0.00000000000E+00 0. -1.
         11    1    4    4    0    0  0.53606100376E+01  0.59012461104E+01 -0.32356399127E+01  0.86040810977E+01  0.51100000000E-03 0. -1.
        -11    1    4    4    0    0 -0.11737406554E+02 -0.75888752118E+01 -0.20259489740E+02  0.24613099447E+02  0.51100000000E-03 0.  1.
         12    1    4    4    0    0 -0.89501341473E+01 -0.18946781569E+02 -0.28693505747E+01  0.21149907939E+02  0.00000000000E+00 0. -1.
</event>
<event>
 8    1  0.2502398E-006  0.9118800E+02  0.7816164E-02  0.1184000E+00
        -11   -1    0    0    0    0  0.00000000000E+00  0.00000000000E+00  0.45593999997E+02  0.45594000000E+02  0.51100000000E-03 0. -1.
         11   -1    0    0    0    0 -0.00000000000E+00 -0.00000000000E+00 -0.45593999997E+02  0.45594000000E+02  0.51100000000E-03 0.  1.
         23    2    1    2    0    0 -0.88817841970E-15 -0.11102230246E-14  0.00000000000E+00  0.91188000000E+02  0.91188000000E+02 0.  0.
    9900012    2    3    3    0    0  0.34853744981E+01  0.18359429006E+01  0.36609384105E+02  0.54367278575E+02  0.40000443164E+02 0.  0.
        -12    1    3    3    0    0 -0.34853744981E+01 -0.18359429006E+01 -0.36609384105E+02  0.36820721425E+02  0.00000000000E+00 0.  1.
         11    1    4    4    0    0 -0.78905023708E+01  0.71512748025E+01  0.55230903212E+01  0.11996052931E+02  0.51100000000E-03 0. -1.
        -11    1    4    4    0    0  0.13676251418E+02  0.80438753800E+00  0.36654397505E+01  0.14181760856E+02  0.51100000000E-03 0.  1.
         12    1    4    4    0    0 -0.23003745486E+01 -0.61197194399E+01  0.27420854034E+02  0.28189464788E+02  0.00000000000E+00 0. -1.
</event>
<event>
 8    1  0.2502398E-006  0.9118800E+02  0.7816164E-02  0.1184000E+00
        -11   -1    0    0    0    0  0.00000000000E+00  0.00000000000E+00  0.45593999997E+02  0.45594000000E+02  0.51100000000E-03 0. -1.
         11   -1    0    0    0    0 -0.00000000000E+00 -0.00000000000E+00 -0.45593999997E+02  0.45594000000E+02  0.51100000000E-03 0.  1.
         23    2    1    2    0    0  0.00000000000E+00  0.00000000000E+00  0.00000000000E+00  0.91188000000E+02  0.91188000000E+02 0.  0.
    9900012    2    3    3    0    0 -0.39794478516E+01 -0.56672273240E+01 -0.36163880463E+02  0.54367085822E+02  0.40000003748E+02 0.  0.
         12    1    3    3    0    0  0.39794478516E+01  0.56672273240E+01  0.36163880463E+02  0.36820914178E+02  0.00000000000E+00 0. -1.
         11    1    4    4    0    0  0.20319909949E+00  0.50127243170E+01  0.60632731813E+01  0.78696872164E+01  0.51100000000E-03 0. -1.
        -11    1    4    4    0    0 -0.39349829637E+01 -0.13713108748E+02 -0.40626996317E+02  0.43059102086E+02  0.51100000000E-03 0.  1.
        -12    1    4    4    0    0 -0.24766398742E+00  0.30331571066E+01 -0.16001573275E+01  0.34382965196E+01  0.00000000000E+00 0.  1.
</event>
<event>
 8    1  0.2502398E-006  0.9118800E+02  0.7816164E-02  0.1184000E+00
        -11   -1    0    0    0    0  0.00000000000E+00  0.00000000000E+00  0.45593999997E+02  0.45594000000E+02  0.51100000000E-03 0.  1.
         11   -1    0    0    0    0 -0.00000000000E+00 -0.00000000000E+00 -0.45593999997E+02  0.45594000000E+02  0.51100000000E-03 0. -1.
         23    2    1    2    0    0  0.35527136788E-14  0.00000000000E+00  0.00000000000E+00  0.91188000000E+02  0.91188000000E+02 0.  0.
    9900012    2    3    3    0    0  0.28162029842E+02  0.23174215778E+02 -0.50632047158E+01  0.54367078723E+02  0.39999987564E+02 0.  0.
        -12    1    3    3    0    0 -0.28162029842E+02 -0.23174215778E+02  0.50632047158E+01  0.36820921277E+02  0.00000000000E+00 0.  1.
         11    1    4    4    0    0  0.23688399033E+01  0.74706879223E+01 -0.49845091362E+01  0.92880521160E+01  0.51100000000E-03 0. -1.
        -11    1    4    4    0    0  0.12579426278E+02  0.25580289091E+02  0.12099235002E+01  0.28531685379E+02  0.51100000000E-03 0.  1.
        -12    1    4    4    0    0  0.13213763660E+02 -0.98767612352E+01 -0.12886190798E+01  0.16547341227E+02  0.00000000000E+00 0.  1.
</event>
<event>
 8    1  0.2502398E-006  0.9118800E+02  0.7816164E-02  0.1184000E+00
        -11   -1    0    0    0    0  0.00000000000E+00  0.00000000000E+00  0.45593999997E+02  0.45594000000E+02  0.51100000000E-03 0. -1.
         11   -1    0    0    0    0 -0.00000000000E+00 -0.00000000000E+00 -0.45593999997E+02  0.45594000000E+02  0.51100000000E-03 0.  1.
         23    2    1    2    0    0  0.00000000000E+00  0.00000000000E+00 -0.88817841970E-15  0.91188000000E+02  0.91188000000E+02 0.  0.
    9900012    2    3    3    0    0 -0.14226290481E+02  0.33074853324E+02 -0.77102044612E+01  0.54367075024E+02  0.39999979132E+02 0.  0.
         12    1    3    3    0    0  0.14226290481E+02 -0.33074853324E+02  0.77102044612E+01  0.36820924976E+02  0.00000000000E+00 0. -1.
         11    1    4    4    0    0  0.26082235013E+01  0.19169535404E+02 -0.12555089100E+02  0.23063047934E+02  0.51100000000E-03 0. -1.
        -11    1    4    4    0    0 -0.78125506295E+00  0.10994459250E+02 -0.51551659791E+01  0.12168164620E+02  0.51100000000E-03 0.  1.
         12    1    4    4    0    0 -0.16053258919E+02  0.29108586698E+01  0.10000050618E+02  0.19135862470E+02  0.00000000000E+00 0. -1.
</event>
<event>
 8    1  0.2502398E-006  0.9118800E+02  0.7816164E-02  0.1184000E+00
        -11   -1    0    0    0    0  0.00000000000E+00  0.00000000000E+00  0.45593999997E+02  0.45594000000E+02  0.51100000000E-03 0. -1.
         11   -1    0    0    0    0 -0.00000000000E+00 -0.00000000000E+00 -0.45593999997E+02  0.45594000000E+02  0.51100000000E-03 0.  1.
         23    2    1    2    0    0  0.00000000000E+00  0.00000000000E+00  0.35527136788E-14  0.91188000000E+02  0.91188000000E+02 0.  0.
    9900012    2    3    3    0    0 -0.26920804489E+02 -0.53644005724E+01  0.24541249544E+02  0.54367089677E+02  0.40000012536E+02 0.  0.
        -12    1    3    3    0    0  0.26920804489E+02  0.53644005724E+01 -0.24541249544E+02  0.36820910323E+02  0.00000000000E+00 0.  1.
         11    1    4    4    0    0  0.50899782658E+01  0.38224623373E+01  0.54450842385E+01  0.83766365382E+01  0.51100000000E-03 0. -1.
        -11    1    4    4    0    0 -0.51763823184E+00  0.54507480908E+01  0.76832726378E+01  0.94345790991E+01  0.51100000000E-03 0.  1.
         12    1    4    4    0    0 -0.31493144523E+02 -0.14637611001E+02  0.11412892668E+02  0.36555874040E+02  0.00000000000E+00 0. -1.
</event>
<event>
 8    1  0.2502398E-006  0.9118800E+02  0.7816164E-02  0.1184000E+00
        -11   -1    0    0    0    0  0.00000000000E+00  0.00000000000E+00  0.45593999997E+02  0.45594000000E+02  0.51100000000E-03 0.  1.
         11   -1    0    0    0    0 -0.00000000000E+00 -0.00000000000E+00 -0.45593999997E+02  0.45594000000E+02  0.51100000000E-03 0. -1.
         23    2    1    2    0    0 -0.71054273576E-14  0.17763568394E-14  0.00000000000E+00  0.91188000000E+02  0.91188000000E+02 0.  0.
    9900012    2    3    3    0    0 -0.33056734901E+02  0.83241066764E+01  0.13919094476E+02  0.54367086577E+02  0.40000005470E+02 0.  0.
         12    1    3    3    0    0  0.33056734901E+02 -0.83241066764E+01 -0.13919094476E+02  0.36820913423E+02  0.00000000000E+00 0. -1.
         11    1    4    4    0    0 -0.16062259506E+02 -0.29888359725E+01  0.20139491338E+02  0.25933153154E+02  0.51100000000E-03 0. -1.
        -11    1    4    4    0    0 -0.19575317786E+02  0.57828624928E+01 -0.82308027464E+01  0.22008650099E+02  0.51100000000E-03 0.  1.
         12    1    4    4    0    0  0.25808423910E+01  0.55300801562E+01  0.20104058842E+01  0.64252833245E+01  0.00000000000E+00 0. -1.
</event>
<event>
 8    1  0.2502398E-006  0.9118800E+02  0.7816164E-02  0.1184000E+00
        -11   -1    0    0    0    0  0.00000000000E+00  0.00000000000E+00  0.45593999997E+02  0.45594000000E+02  0.51100000000E-03 0. -1.
         11   -1    0    0    0    0 -0.00000000000E+00 -0.00000000000E+00 -0.45593999997E+02  0.45594000000E+02  0.51100000000E-03 0.  1.
         23    2    1    2    0    0  0.00000000000E+00 -0.17763568394E-14 -0.35527136788E-14  0.91188000000E+02  0.91188000000E+02 0.  0.
    9900012    2    3    3    0    0  0.20781002405E+02 -0.10467548220E+02 -0.28536994207E+02  0.54367086580E+02  0.40000005476E+02 0.  0.
        -12    1    3    3    0    0 -0.20781002405E+02  0.10467548220E+02  0.28536994207E+02  0.36820913420E+02  0.00000000000E+00 0.  1.
         11    1    4    4    0    0  0.18401597674E+02 -0.17198922774E+02 -0.18560089757E+02  0.31287356449E+02  0.51100000000E-03 0. -1.
        -11    1    4    4    0    0  0.54928745584E+01  0.11820042954E+02 -0.10965079704E+02  0.17032852360E+02  0.51100000000E-03 0.  1.
        -12    1    4    4    0    0 -0.31134698268E+01 -0.50886683997E+01  0.98817525395E+00  0.60468777710E+01  0.00000000000E+00 0.  1.
</event>
<event>
 8    1  0.2502398E-006  0.9118800E+02  0.7816164E-02  0.1184000E+00
        -11   -1    0    0    0    0  0.00000000000E+00  0.00000000000E+00  0.45593999997E+02  0.45594000000E+02  0.51100000000E-03 0.  1.
         11   -1    0    0    0    0 -0.00000000000E+00 -0.00000000000E+00 -0.45593999997E+02  0.45594000000E+02  0.51100000000E-03 0. -1.
         23    2    1    2    0    0  0.35527136788E-14  0.17763568394E-14  0.00000000000E+00  0.91188000000E+02  0.91188000000E+02 0.  0.
    9900012    2    3    3    0    0  0.23581815192E+02  0.10926198325E+02 -0.26082623540E+02  0.54366986050E+02  0.39999776297E+02 0.  0.
         12    1    3    3    0    0 -0.23581815192E+02 -0.10926198325E+02  0.26082623540E+02  0.36821013950E+02  0.00000000000E+00 0. -1.
         11    1    4    4    0    0 -0.24405054288E+01 -0.29205724418E-01 -0.23099189909E+02  0.23227774203E+02  0.51100000000E-03 0. -1.
        -11    1    4    4    0    0  0.10083300984E+02 -0.57075153581E+00 -0.51741347834E+01  0.11347704044E+02  0.51100000000E-03 0.  1.
         12    1    4    4    0    0  0.15939019637E+02  0.11526155585E+02  0.21907011520E+01  0.19791507802E+02  0.00000000000E+00 0. -1.
</event>
<event>
 8    1  0.2502398E-006  0.9118800E+02  0.7816164E-02  0.1184000E+00
        -11   -1    0    0    0    0  0.00000000000E+00  0.00000000000E+00  0.45593999997E+02  0.45594000000E+02  0.51100000000E-03 0.  1.
         11   -1    0    0    0    0 -0.00000000000E+00 -0.00000000000E+00 -0.45593999997E+02  0.45594000000E+02  0.51100000000E-03 0. -1.
         23    2    1    2    0    0 -0.35527136788E-14  0.35527136788E-14 -0.44408920985E-15  0.91188000000E+02  0.91188000000E+02 0.  0.
    9900012    2    3    3    0    0  0.22346016686E+02 -0.29232021337E+02  0.13862413284E+01  0.54367120078E+02  0.40000081842E+02 0.  0.
         12    1    3    3    0    0 -0.22346016686E+02  0.29232021337E+02 -0.13862413284E+01  0.36820879922E+02  0.00000000000E+00 0. -1.
         11    1    4    4    0    0  0.32581428286E+01  0.40554587072E+01 -0.43560580448E+01  0.67850926278E+01  0.51100000000E-03 0. -1.
        -11    1    4    4    0    0  0.26095128303E+02 -0.26871432082E+02  0.24893349254E+01  0.37539663983E+02  0.51100000000E-03 0.  1.
        -12    1    4    4    0    0 -0.70072544455E+01 -0.64160479625E+01  0.32529644478E+01  0.10042363468E+02  0.00000000000E+00 0.  1.
</event>
<event>
 8    1  0.2502398E-006  0.9118800E+02  0.7816164E-02  0.1184000E+00
        -11   -1    0    0    0    0  0.00000000000E+00  0.00000000000E+00  0.45593999997E+02  0.45594000000E+02  0.51100000000E-03 0. -1.
         11   -1    0    0    0    0 -0.00000000000E+00 -0.00000000000E+00 -0.45593999997E+02  0.45594000000E+02  0.51100000000E-03 0.  1.
         23    2    1    2    0    0  0.35527136788E-14 -0.35527136788E-14  0.00000000000E+00  0.91188000000E+02  0.91188000000E+02 0.  0.
    9900012    2    3    3    0    0  0.17759565158E+02 -0.30876759456E+02 -0.93275415307E+01  0.54367089364E+02  0.40000011823E+02 0.  0.
         12    1    3    3    0    0 -0.17759565158E+02  0.30876759456E+02  0.93275415307E+01  0.36820910636E+02  0.00000000000E+00 0. -1.
         11    1    4    4    0    0  0.93377502468E+00 -0.30130456762E+01 -0.12443870954E+02  0.12837457093E+02  0.51100000000E-03 0.  1.
        -11    1    4    4    0    0  0.12622634068E+02 -0.95507733867E+01  0.12832511255E+02  0.20376984774E+02  0.51100000000E-03 0. -1.
         12    1    4    4    0    0  0.42031560646E+01 -0.18312940393E+02 -0.97161818319E+01  0.21152647497E+02  0.00000000000E+00 0. -1.
</event>
<event>
 8    1  0.2502398E-006  0.9118800E+02  0.7816164E-02  0.1184000E+00
        -11   -1    0    0    0    0  0.00000000000E+00  0.00000000000E+00  0.45593999997E+02  0.45594000000E+02  0.51100000000E-03 0.  1.
         11   -1    0    0    0    0 -0.00000000000E+00 -0.00000000000E+00 -0.45593999997E+02  0.45594000000E+02  0.51100000000E-03 0. -1.
         23    2    1    2    0    0  0.00000000000E+00 -0.35527136788E-14  0.13322676296E-14  0.91188000000E+02  0.91188000000E+02 0.  0.
    9900012    2    3    3    0    0  0.31101814595E+02 -0.19420274177E+02  0.33629104130E+01  0.54367094435E+02  0.40000023383E+02 0.  0.
        -12    1    3    3    0    0 -0.31101814595E+02  0.19420274177E+02 -0.33629104130E+01  0.36820905565E+02  0.00000000000E+00 0.  1.
         11    1    4    4    0    0  0.51267634011E+01 -0.13902764853E+02  0.15341264955E+02  0.21328970538E+02  0.51100000000E-03 0.  1.
        -11    1    4    4    0    0  0.13664153053E+01  0.31461166056E+01 -0.49439245297E+01  0.60172693557E+01  0.51100000000E-03 0. -1.
         12    1    4    4    0    0  0.24608635888E+02 -0.86636259300E+01 -0.70344300120E+01  0.27020854541E+02  0.00000000000E+00 0. -1.
</event>
<event>
 8    1  0.2502398E-006  0.9118800E+02  0.7816164E-02  0.1184000E+00
        -11   -1    0    0    0    0  0.00000000000E+00  0.00000000000E+00  0.45593999997E+02  0.45594000000E+02  0.51100000000E-03 0.  1.
         11   -1    0    0    0    0 -0.00000000000E+00 -0.00000000000E+00 -0.45593999997E+02  0.45594000000E+02  0.51100000000E-03 0. -1.
         23    2    1    2    0    0 -0.35527136788E-14  0.17763568394E-14  0.00000000000E+00  0.91188000000E+02  0.91188000000E+02 0.  0.
    9900012    2    3    3    0    0  0.27108297128E+02 -0.13310314918E+02 -0.21065502262E+02  0.54367086895E+02  0.40000006193E+02 0.  0.
        -12    1    3    3    0    0 -0.27108297128E+02  0.13310314918E+02  0.21065502262E+02  0.36820913105E+02  0.00000000000E+00 0.  1.
         11    1    4    4    0    0  0.17583003551E+02 -0.25307433618E+02 -0.14017037197E+02  0.33854180572E+02  0.51100000000E-03 0. -1.
        -11    1    4    4    0    0  0.16300031956E+01  0.75138450181E+01 -0.83386509665E+01  0.11342304774E+02  0.51100000000E-03 0.  1.
         12    1    4    4    0    0  0.78952903810E+01  0.44832736812E+01  0.12901859020E+01  0.91706015485E+01  0.00000000000E+00 0. -1.
</event>
<event>
 8    1  0.2502398E-006  0.9118800E+02  0.7816164E-02  0.1184000E+00
        -11   -1    0    0    0    0  0.00000000000E+00  0.00000000000E+00  0.45593999997E+02  0.45594000000E+02  0.51100000000E-03 0. -1.
         11   -1    0    0    0    0 -0.00000000000E+00 -0.00000000000E+00 -0.45593999997E+02  0.45594000000E+02  0.51100000000E-03 0.  1.
         23    2    1    2    0    0  0.00000000000E+00  0.00000000000E+00  0.35527136788E-14  0.91188000000E+02  0.91188000000E+02 0.  0.
    9900012    2    3    3    0    0 -0.16041140251E+02 -0.10806919430E+02 -0.31331566800E+02  0.54367153102E+02  0.40000157127E+02 0.  0.
         12    1    3    3    0    0  0.16041140251E+02  0.10806919430E+02  0.31331566800E+02  0.36820846898E+02  0.00000000000E+00 0. -1.
         11    1    4    4    0    0  0.23783786884E+00  0.43190615010E+01 -0.86315059423E+00  0.44108829401E+01  0.51100000000E-03 0. -1.
        -11    1    4    4    0    0  0.92938229554E+01 -0.90182084101E+01 -0.13252375201E+02  0.18529130492E+02  0.51100000000E-03 0.  1.
        -12    1    4    4    0    0 -0.25572801075E+02 -0.61077725205E+01 -0.17216041005E+02  0.31427139671E+02  0.00000000000E+00 0.  1.
</event>
<event>
 8    1  0.2502398E-006  0.9118800E+02  0.7816164E-02  0.1184000E+00
        -11   -1    0    0    0    0  0.00000000000E+00  0.00000000000E+00  0.45593999997E+02  0.45594000000E+02  0.51100000000E-03 0.  1.
         11   -1    0    0    0    0 -0.00000000000E+00 -0.00000000000E+00 -0.45593999997E+02  0.45594000000E+02  0.51100000000E-03 0. -1.
         23    2    1    2    0    0  0.00000000000E+00  0.00000000000E+00  0.35527136788E-14  0.91188000000E+02  0.91188000000E+02 0.  0.
    9900012    2    3    3    0    0 -0.18805877653E+02 -0.24435527608E+02 -0.20125173046E+02  0.54367100583E+02  0.40000037398E+02 0.  0.
        -12    1    3    3    0    0  0.18805877653E+02  0.24435527608E+02  0.20125173046E+02  0.36820899417E+02  0.00000000000E+00 0.  1.
         11    1    4    4    0    0 -0.13814543959E+02 -0.78174483635E+01 -0.57600713484E+01  0.16885868231E+02  0.51100000000E-03 0. -1.
        -11    1    4    4    0    0 -0.15592116058E+02 -0.15276085681E+02 -0.32603178188E+01  0.22070399848E+02  0.51100000000E-03 0.  1.
         12    1    4    4    0    0  0.10600782364E+02 -0.13419935631E+01 -0.11104783879E+02  0.15410832504E+02  0.00000000000E+00 0. -1.
</event>
<event>
 8    1  0.2502398E-006  0.9118800E+02  0.7816164E-02  0.1184000E+00
        -11   -1    0    0    0    0  0.00000000000E+00  0.00000000000E+00  0.45593999997E+02  0.45594000000E+02  0.51100000000E-03 0. -1.
         11   -1    0    0    0    0 -0.00000000000E+00 -0.00000000000E+00 -0.45593999997E+02  0.45594000000E+02  0.51100000000E-03 0.  1.
         23    2    1    2    0    0 -0.71054273576E-14 -0.88817841970E-15  0.00000000000E+00  0.91188000000E+02  0.91188000000E+02 0.  0.
    9900012    2    3    3    0    0  0.34278288297E+02  0.74881838345E+01 -0.11167333190E+02  0.54367037543E+02  0.39999893686E+02 0.  0.
        -12    1    3    3    0    0 -0.34278288297E+02 -0.74881838345E+01  0.11167333190E+02  0.36820962457E+02  0.00000000000E+00 0.  1.
         11    1    4    4    0    0  0.43499714294E+01 -0.76121926938E+01 -0.64159138597E+01  0.10864238582E+02  0.51100000000E-03 0.  1.
        -11    1    4    4    0    0  0.13965539871E+02 -0.72740493949E+01 -0.22068922066E+01  0.15900266412E+02  0.51100000000E-03 0. -1.
        -12    1    4    4    0    0  0.15962776996E+02  0.22374425923E+02 -0.25445271241E+01  0.27602532549E+02  0.00000000000E+00 0.  1.
</event>
<event>
 8    1  0.2502398E-006  0.9118800E+02  0.7816164E-02  0.1184000E+00
        -11   -1    0    0    0    0  0.00000000000E+00  0.00000000000E+00  0.45593999997E+02  0.45594000000E+02  0.51100000000E-03 0. -1.
         11   -1    0    0    0    0 -0.00000000000E+00 -0.00000000000E+00 -0.45593999997E+02  0.45594000000E+02  0.51100000000E-03 0.  1.
         23    2    1    2    0    0 -0.17763568394E-14  0.71054273576E-14 -0.26645352591E-14  0.91188000000E+02  0.91188000000E+02 0.  0.
    9900012    2    3    3    0    0 -0.93794501790E+01  0.35570120680E+02 -0.16037486669E+01  0.54367087727E+02  0.40000008090E+02 0.  0.
         12    1    3    3    0    0  0.93794501790E+01 -0.35570120680E+02  0.16037486669E+01  0.36820912273E+02  0.00000000000E+00 0. -1.
         11    1    4    4    0    0 -0.41611828777E+01 -0.62656163608E+01 -0.95057389396E+00  0.75813575507E+01  0.51100000000E-03 0. -1.
        -11    1    4    4    0    0 -0.50943429661E+01  0.59024813472E+01  0.64955171336E+01  0.10148071709E+02  0.51100000000E-03 0.  1.
        -12    1    4    4    0    0 -0.12392433522E+00  0.35933255694E+02 -0.71486919066E+01  0.36637658467E+02  0.00000000000E+00 0.  1.
</event>
<event>
 8    1  0.2502398E-006  0.9118800E+02  0.7816164E-02  0.1184000E+00
        -11   -1    0    0    0    0  0.00000000000E+00  0.00000000000E+00  0.45593999997E+02  0.45594000000E+02  0.51100000000E-03 0.  1.
         11   -1    0    0    0    0 -0.00000000000E+00 -0.00000000000E+00 -0.45593999997E+02  0.45594000000E+02  0.51100000000E-03 0. -1.
         23    2    1    2    0    0 -0.88817841970E-15  0.35527136788E-14  0.00000000000E+00  0.91188000000E+02  0.91188000000E+02 0.  0.
    9900012    2    3    3    0    0  0.60526921995E+01  0.16116591605E+02  0.32548423244E+02  0.54367089317E+02  0.40000011716E+02 0.  0.
         12    1    3    3    0    0 -0.60526921995E+01 -0.16116591605E+02 -0.32548423244E+02  0.36820910683E+02  0.00000000000E+00 0. -1.
         11    1    4    4    0    0  0.25414568284E+01  0.26455969152E+01  0.16551883079E+02  0.16953554777E+02  0.51100000000E-03 0. -1.
        -11    1    4    4    0    0  0.11317733299E+02 -0.26715864288E+00  0.18226059699E+02  0.21455808379E+02  0.51100000000E-03 0.  1.
         12    1    4    4    0    0 -0.78064979278E+01  0.13738153333E+02 -0.22295195336E+01  0.15957726162E+02  0.00000000000E+00 0. -1.
</event>
<event>
 8    1  0.2502398E-006  0.9118800E+02  0.7816164E-02  0.1184000E+00
        -11   -1    0    0    0    0  0.00000000000E+00  0.00000000000E+00  0.45593999997E+02  0.45594000000E+02  0.51100000000E-03 0.  1.
         11   -1    0    0    0    0 -0.00000000000E+00 -0.00000000000E+00 -0.45593999997E+02  0.45594000000E+02  0.51100000000E-03 0. -1.
         23    2    1    2    0    0 -0.35527136788E-14  0.35527136788E-14  0.00000000000E+00  0.91188000000E+02  0.91188000000E+02 0.  0.
    9900012    2    3    3    0    0  0.31356153205E+02 -0.17708222891E+02 -0.76805978218E+01  0.54367067303E+02  0.39999961531E+02 0.  0.
        -12    1    3    3    0    0 -0.31356153205E+02  0.17708222891E+02  0.76805978218E+01  0.36820932697E+02  0.00000000000E+00 0.  1.
         11    1    4    4    0    0  0.52330953819E+01 -0.18567457867E+02 -0.28470078266E+01  0.19499775197E+02  0.51100000000E-03 0. -1.
        -11    1    4    4    0    0  0.79012140541E+01 -0.93650595283E+00  0.89304713631E+01  0.11960750225E+02  0.51100000000E-03 0.  1.
        -12    1    4    4    0    0  0.18221843769E+02  0.17957409289E+01 -0.13764061358E+02  0.22906541880E+02  0.00000000000E+00 0.  1.
</event>
<event>
 8    1  0.2502398E-006  0.9118800E+02  0.7816164E-02  0.1184000E+00
        -11   -1    0    0    0    0  0.00000000000E+00  0.00000000000E+00  0.45593999997E+02  0.45594000000E+02  0.51100000000E-03 0.  1.
         11   -1    0    0    0    0 -0.00000000000E+00 -0.00000000000E+00 -0.45593999997E+02  0.45594000000E+02  0.51100000000E-03 0. -1.
         23    2    1    2    0    0  0.00000000000E+00  0.17763568394E-14  0.35527136788E-14  0.91188000000E+02  0.91188000000E+02 0.  0.
    9900012    2    3    3    0    0 -0.30396395797E+02 -0.12818722073E+02  0.16356029340E+02  0.54367079197E+02  0.39999988645E+02 0.  0.
        -12    1    3    3    0    0  0.30396395797E+02  0.12818722073E+02 -0.16356029340E+02  0.36820920803E+02  0.00000000000E+00 0.  1.
         11    1    4    4    0    0 -0.97651924420E+01  0.60309895693E+01 -0.62457015649E+01  0.13066774924E+02  0.51100000000E-03 0. -1.
        -11    1    4    4    0    0 -0.14074011686E+02  0.17546109095E+00  0.63840673862E+01  0.15455255035E+02  0.51100000000E-03 0.  1.
        -12    1    4    4    0    0 -0.65571916689E+01 -0.19025172733E+02  0.16217663519E+02  0.25845049238E+02  0.00000000000E+00 0.  1.
</event>
<event>
 8    1  0.2502398E-006  0.9118800E+02  0.7816164E-02  0.1184000E+00
        -11   -1    0    0    0    0  0.00000000000E+00  0.00000000000E+00  0.45593999997E+02  0.45594000000E+02  0.51100000000E-03 0. -1.
         11   -1    0    0    0    0 -0.00000000000E+00 -0.00000000000E+00 -0.45593999997E+02  0.45594000000E+02  0.51100000000E-03 0.  1.
         23    2    1    2    0    0  0.71054273576E-14  0.00000000000E+00  0.66613381478E-15  0.91188000000E+02  0.91188000000E+02 0.  0.
    9900012    2    3    3    0    0  0.35386591061E+02  0.10121829845E+02  0.10569642832E+01  0.54367089639E+02  0.40000012450E+02 0.  0.
         12    1    3    3    0    0 -0.35386591061E+02 -0.10121829845E+02 -0.10569642832E+01  0.36820910361E+02  0.00000000000E+00 0. -1.
         11    1    4    4    0    0  0.54009201383E+01  0.27217606165E+01 -0.13703891847E+02  0.14979137866E+02  0.51100000000E-03 0. -1.
        -11    1    4    4    0    0  0.18705594869E+02 -0.39411509862E+01  0.13378237860E+02  0.23332578061E+02  0.51100000000E-03 0.  1.
        -12    1    4    4    0    0  0.11280076054E+02  0.11341220215E+02  0.13826182708E+01  0.16055373712E+02  0.00000000000E+00 0.  1.
</event>
<event>
 8    1  0.2502398E-006  0.9118800E+02  0.7816164E-02  0.1184000E+00
        -11   -1    0    0    0    0  0.00000000000E+00  0.00000000000E+00  0.45593999997E+02  0.45594000000E+02  0.51100000000E-03 0. -1.
         11   -1    0    0    0    0 -0.00000000000E+00 -0.00000000000E+00 -0.45593999997E+02  0.45594000000E+02  0.51100000000E-03 0.  1.
         23    2    1    2    0    0  0.22204460493E-14 -0.35527136788E-14  0.00000000000E+00  0.91188000000E+02  0.91188000000E+02 0.  0.
    9900012    2    3    3    0    0 -0.21691496751E+01 -0.29344180340E+02 -0.22135816670E+02  0.54367075110E+02  0.39999979328E+02 0.  0.
         12    1    3    3    0    0  0.21691496751E+01  0.29344180340E+02  0.22135816670E+02  0.36820924890E+02  0.00000000000E+00 0. -1.
         11    1    4    4    0    0  0.49970831171E+01 -0.83037128559E+01 -0.47607707775E+01  0.10797565722E+02  0.51100000000E-03 0. -1.
        -11    1    4    4    0    0  0.12773602396E+02 -0.13081568280E+02 -0.10178588471E+02  0.20925964981E+02  0.51100000000E-03 0.  1.
         12    1    4    4    0    0 -0.19939835188E+02 -0.79588992035E+01 -0.71964574221E+01  0.22643544407E+02  0.00000000000E+00 0. -1.
</event>
<event>
 8    1  0.2502398E-006  0.9118800E+02  0.7816164E-02  0.1184000E+00
        -11   -1    0    0    0    0  0.00000000000E+00  0.00000000000E+00  0.45593999997E+02  0.45594000000E+02  0.51100000000E-03 0.  1.
         11   -1    0    0    0    0 -0.00000000000E+00 -0.00000000000E+00 -0.45593999997E+02  0.45594000000E+02  0.51100000000E-03 0. -1.
         23    2    1    2    0    0  0.00000000000E+00 -0.88817841970E-15 -0.17763568394E-14  0.91188000000E+02  0.91188000000E+02 0.  0.
    9900012    2    3    3    0    0  0.33631067971E+02  0.72291679093E+01 -0.13132773824E+02  0.54367090861E+02  0.40000015236E+02 0.  0.
        -12    1    3    3    0    0 -0.33631067971E+02 -0.72291679093E+01  0.13132773824E+02  0.36820909139E+02  0.00000000000E+00 0.  1.
         11    1    4    4    0    0  0.25998707287E+02  0.14310339044E+02 -0.10838695811E+02  0.31594238577E+02  0.51100000000E-03 0. -1.
        -11    1    4    4    0    0 -0.59968227520E+00 -0.15025411147E+01  0.81750918792E+01  0.83336292291E+01  0.51100000000E-03 0.  1.
         12    1    4    4    0    0  0.82320429594E+01 -0.55786300203E+01 -0.10469169892E+02  0.14439223054E+02  0.00000000000E+00 0. -1.
</event>
<event>
 8    1  0.2502398E-006  0.9118800E+02  0.7816164E-02  0.1184000E+00
        -11   -1    0    0    0    0  0.00000000000E+00  0.00000000000E+00  0.45593999997E+02  0.45594000000E+02  0.51100000000E-03 0. -1.
         11   -1    0    0    0    0 -0.00000000000E+00 -0.00000000000E+00 -0.45593999997E+02  0.45594000000E+02  0.51100000000E-03 0.  1.
         23    2    1    2    0    0  0.00000000000E+00 -0.17763568394E-14  0.00000000000E+00  0.91188000000E+02  0.91188000000E+02 0.  0.
    9900012    2    3    3    0    0 -0.18116307349E+02  0.13335222501E+02 -0.29150484941E+02  0.54367088504E+02  0.40000009862E+02 0.  0.
         12    1    3    3    0    0  0.18116307349E+02 -0.13335222501E+02  0.29150484941E+02  0.36820911496E+02  0.00000000000E+00 0. -1.
         11    1    4    4    0    0 -0.80292385775E+01 -0.83658044525E+01 -0.12442242391E+00  0.11596156151E+02  0.51100000000E-03 0. -1.
        -11    1    4    4    0    0 -0.87549929688E+01 -0.31349535066E+00 -0.47236711705E+01  0.99529518640E+01  0.51100000000E-03 0.  1.
         12    1    4    4    0    0 -0.13320758024E+01  0.22014522304E+02 -0.24302391347E+02  0.32817980489E+02  0.00000000000E+00 0. -1.
</event>
<event>
 8    1  0.2502398E-006  0.9118800E+02  0.7816164E-02  0.1184000E+00
        -11   -1    0    0    0    0  0.00000000000E+00  0.00000000000E+00  0.45593999997E+02  0.45594000000E+02  0.51100000000E-03 0.  1.
         11   -1    0    0    0    0 -0.00000000000E+00 -0.00000000000E+00 -0.45593999997E+02  0.45594000000E+02  0.51100000000E-03 0. -1.
         23    2    1    2    0    0  0.35527136788E-14  0.00000000000E+00 -0.35527136788E-14  0.91188000000E+02  0.91188000000E+02 0.  0.
    9900012    2    3    3    0    0 -0.19919182732E+02  0.16304454464E+02  0.26328123564E+02  0.54367093351E+02  0.40000020913E+02 0.  0.
         12    1    3    3    0    0  0.19919182732E+02 -0.16304454464E+02 -0.26328123564E+02  0.36820906649E+02  0.00000000000E+00 0. -1.
         11    1    4    4    0    0  0.53134371059E+01  0.86459813222E+01 -0.49938547794E+01  0.11310357763E+02  0.51100000000E-03 0. -1.
        -11    1    4    4    0    0 -0.13257076354E+02  0.10754697466E+02  0.16368785890E+02  0.23650597092E+02  0.51100000000E-03 0.  1.
         12    1    4    4    0    0 -0.11975543484E+02 -0.30962243250E+01  0.14953192453E+02  0.19406138496E+02  0.00000000000E+00 0. -1.
</event>
<event>
 8    1  0.2502398E-006  0.9118800E+02  0.7816164E-02  0.1184000E+00
        -11   -1    0    0    0    0  0.00000000000E+00  0.00000000000E+00  0.45593999997E+02  0.45594000000E+02  0.51100000000E-03 0. -1.
         11   -1    0    0    0    0 -0.00000000000E+00 -0.00000000000E+00 -0.45593999997E+02  0.45594000000E+02  0.51100000000E-03 0.  1.
         23    2    1    2    0    0 -0.35527136788E-14 -0.35527136788E-14  0.00000000000E+00  0.91188000000E+02  0.91188000000E+02 0.  0.
    9900012    2    3    3    0    0  0.18345793544E+02  0.23728729340E+02 -0.21357882322E+02  0.54367083741E+02  0.39999999005E+02 0.  0.
        -12    1    3    3    0    0 -0.18345793544E+02 -0.23728729340E+02  0.21357882322E+02  0.36820916259E+02  0.00000000000E+00 0.  1.
         11    1    4    4    0    0 -0.12213599664E+01 -0.38688202734E+01 -0.11045875070E+02  0.11767363630E+02  0.51100000000E-03 0. -1.
        -11    1    4    4    0    0  0.23236386733E+02  0.16052796079E+02 -0.11358636341E+02  0.30440771182E+02  0.51100000000E-03 0.  1.
         12    1    4    4    0    0 -0.36692332230E+01  0.11544753535E+02  0.10466290890E+01  0.12158948930E+02  0.00000000000E+00 0. -1.
</event>
<event>
 8    1  0.2502398E-006  0.9118800E+02  0.7816164E-02  0.1184000E+00
        -11   -1    0    0    0    0  0.00000000000E+00  0.00000000000E+00  0.45593999997E+02  0.45594000000E+02  0.51100000000E-03 0.  1.
         11   -1    0    0    0    0 -0.00000000000E+00 -0.00000000000E+00 -0.45593999997E+02  0.45594000000E+02  0.51100000000E-03 0. -1.
         23    2    1    2    0    0  0.00000000000E+00  0.35527136788E-14 -0.35527136788E-14  0.91188000000E+02  0.91188000000E+02 0.  0.
    9900012    2    3    3    0    0  0.40282519368E+01 -0.31527592499E+02  0.18589361114E+02  0.54367078650E+02  0.39999987398E+02 0.  0.
         12    1    3    3    0    0 -0.40282519368E+01  0.31527592499E+02 -0.18589361114E+02  0.36820921350E+02  0.00000000000E+00 0. -1.
         11    1    4    4    0    0  0.32594727527E+01  0.41585061937E+01  0.33956657384E+01  0.62807549273E+01  0.51100000000E-03 0. -1.
        -11    1    4    4    0    0  0.11510540728E+02 -0.29606929665E+02  0.16282533269E+02  0.35695710134E+02  0.51100000000E-03 0.  1.
        -12    1    4    4    0    0 -0.10741761544E+02 -0.60791690277E+01 -0.10888378936E+01  0.12390613588E+02  0.00000000000E+00 0.  1.
</event>
<event>
 8    1  0.2502398E-006  0.9118800E+02  0.7816164E-02  0.1184000E+00
        -11   -1    0    0    0    0  0.00000000000E+00  0.00000000000E+00  0.45593999997E+02  0.45594000000E+02  0.51100000000E-03 0. -1.
         11   -1    0    0    0    0 -0.00000000000E+00 -0.00000000000E+00 -0.45593999997E+02  0.45594000000E+02  0.51100000000E-03 0.  1.
         23    2    1    2    0    0 -0.17763568394E-14 -0.17763568394E-14  0.00000000000E+00  0.91188000000E+02  0.91188000000E+02 0.  0.
    9900012    2    3    3    0    0  0.11331649938E+02 -0.15633723374E+02  0.31352266348E+02  0.54367024972E+02  0.39999865029E+02 0.  0.
        -12    1    3    3    0    0 -0.11331649938E+02  0.15633723374E+02 -0.31352266348E+02  0.36820975028E+02  0.00000000000E+00 0.  1.
         11    1    4    4    0    0 -0.67172171013E+01  0.37596933879E+01  0.15523584704E+02  0.17327376671E+02  0.51100000000E-03 0. -1.
        -11    1    4    4    0    0 -0.44406966034E+01 -0.42540245271E+01  0.46731441917E+01  0.77236512025E+01  0.51100000000E-03 0.  1.
         12    1    4    4    0    0  0.22489563642E+02 -0.15139392235E+02  0.11155537452E+02  0.29315997099E+02  0.00000000000E+00 0. -1.
</event>
<event>
 8    1  0.2502398E-006  0.9118800E+02  0.7816164E-02  0.1184000E+00
        -11   -1    0    0    0    0  0.00000000000E+00  0.00000000000E+00  0.45593999997E+02  0.45594000000E+02  0.51100000000E-03 0. -1.
         11   -1    0    0    0    0 -0.00000000000E+00 -0.00000000000E+00 -0.45593999997E+02  0.45594000000E+02  0.51100000000E-03 0.  1.
         23    2    1    2    0    0  0.35527136788E-14  0.00000000000E+00  0.00000000000E+00  0.91188000000E+02  0.91188000000E+02 0.  0.
    9900012    2    3    3    0    0  0.17993329855E+02  0.24008304494E+02  0.21345312382E+02  0.54367068933E+02  0.39999965247E+02 0.  0.
        -12    1    3    3    0    0 -0.17993329855E+02 -0.24008304494E+02 -0.21345312382E+02  0.36820931067E+02  0.00000000000E+00 0.  1.
         11    1    4    4    0    0  0.51025749498E+01  0.11548848107E+02  0.74262475842E+01  0.14647911700E+02  0.51100000000E-03 0. -1.
        -11    1    4    4    0    0 -0.15873013766E+01  0.45900925291E+01 -0.97419023552E+01  0.10885455289E+02  0.51100000000E-03 0.  1.
         12    1    4    4    0    0  0.14478056281E+02  0.78693638576E+01  0.23660967153E+02  0.28833701945E+02  0.00000000000E+00 0. -1.
</event>
<event>
 8    1  0.2502398E-006  0.9118800E+02  0.7816164E-02  0.1184000E+00
        -11   -1    0    0    0    0  0.00000000000E+00  0.00000000000E+00  0.45593999997E+02  0.45594000000E+02  0.51100000000E-03 0.  1.
         11   -1    0    0    0    0 -0.00000000000E+00 -0.00000000000E+00 -0.45593999997E+02  0.45594000000E+02  0.51100000000E-03 0. -1.
         23    2    1    2    0    0  0.00000000000E+00  0.71054273576E-14  0.00000000000E+00  0.91188000000E+02  0.91188000000E+02 0.  0.
    9900012    2    3    3    0    0 -0.19910089262E+02  0.26726841969E+02 -0.15653853700E+02  0.54367097353E+02  0.40000030037E+02 0.  0.
        -12    1    3    3    0    0  0.19910089262E+02 -0.26726841969E+02  0.15653853700E+02  0.36820902647E+02  0.00000000000E+00 0.  1.
         11    1    4    4    0    0  0.80849805765E-01 -0.29114327765E+01 -0.13698570089E+01  0.32186155392E+01  0.51100000000E-03 0. -1.
        -11    1    4    4    0    0 -0.23179259071E+02  0.10033404718E+02  0.21774207754E+01  0.25351300220E+02  0.51100000000E-03 0.  1.
         12    1    4    4    0    0  0.31883200037E+01  0.19604870027E+02 -0.16461417466E+02  0.25797181595E+02  0.00000000000E+00 0. -1.
</event>
<event>
 8    1  0.2502398E-006  0.9118800E+02  0.7816164E-02  0.1184000E+00
        -11   -1    0    0    0    0  0.00000000000E+00  0.00000000000E+00  0.45593999997E+02  0.45594000000E+02  0.51100000000E-03 0.  1.
         11   -1    0    0    0    0 -0.00000000000E+00 -0.00000000000E+00 -0.45593999997E+02  0.45594000000E+02  0.51100000000E-03 0. -1.
         23    2    1    2    0    0  0.35527136788E-14  0.00000000000E+00 -0.35527136788E-14  0.91188000000E+02  0.91188000000E+02 0.  0.
    9900012    2    3    3    0    0  0.21978556111E+02 -0.89252794660E+01 -0.28161385223E+02  0.54367066281E+02  0.39999959200E+02 0.  0.
        -12    1    3    3    0    0 -0.21978556111E+02  0.89252794660E+01  0.28161385223E+02  0.36820933719E+02  0.00000000000E+00 0.  1.
         11    1    4    4    0    0  0.22662904077E+02 -0.86172243934E+01 -0.73916975922E+01  0.25347602865E+02  0.51100000000E-03 0. -1.
        -11    1    4    4    0    0 -0.27009727239E+00 -0.80687270169E+01 -0.14596317295E+01  0.82041351315E+01  0.51100000000E-03 0.  1.
        -12    1    4    4    0    0 -0.41425069363E+00  0.77606719443E+01 -0.19310055901E+02  0.20815328284E+02  0.00000000000E+00 0.  1.
</event>
<event>
 8    1  0.2502398E-006  0.9118800E+02  0.7816164E-02  0.1184000E+00
        -11   -1    0    0    0    0  0.00000000000E+00  0.00000000000E+00  0.45593999997E+02  0.45594000000E+02  0.51100000000E-03 0.  1.
         11   -1    0    0    0    0 -0.00000000000E+00 -0.00000000000E+00 -0.45593999997E+02  0.45594000000E+02  0.51100000000E-03 0. -1.
         23    2    1    2    0    0 -0.66613381478E-15  0.00000000000E+00  0.41633363423E-15  0.91188000000E+02  0.91188000000E+02 0.  0.
    9900012    2    3    3    0    0  0.67508995855E+00 -0.36813968174E+02 -0.23880833128E+00  0.54367068064E+02  0.39999963266E+02 0.  0.
        -12    1    3    3    0    0 -0.67508995855E+00  0.36813968174E+02  0.23880833128E+00  0.36820931936E+02  0.00000000000E+00 0.  1.
         11    1    4    4    0    0 -0.13256942533E+02 -0.10707064932E+02  0.29957272763E+01  0.17302085046E+02  0.51100000000E-03 0. -1.
        -11    1    4    4    0    0  0.50649650221E+00  0.38525753132E+01  0.86228830187E+00  0.39802533370E+01  0.51100000000E-03 0.  1.
         12    1    4    4    0    0  0.13425535989E+02 -0.29959478555E+02 -0.40968239094E+01  0.33084729681E+02  0.00000000000E+00 0. -1.
</event>
<event>
 8    1  0.2502398E-006  0.9118800E+02  0.7816164E-02  0.1184000E+00
        -11   -1    0    0    0    0  0.00000000000E+00  0.00000000000E+00  0.45593999997E+02  0.45594000000E+02  0.51100000000E-03 0. -1.
         11   -1    0    0    0    0 -0.00000000000E+00 -0.00000000000E+00 -0.45593999997E+02  0.45594000000E+02  0.51100000000E-03 0.  1.
         23    2    1    2    0    0 -0.27200464103E-14  0.00000000000E+00  0.00000000000E+00  0.91188000000E+02  0.91188000000E+02 0.  0.
    9900012    2    3    3    0    0  0.25761151527E+00 -0.26525527257E+02  0.25536451240E+02  0.54367077932E+02  0.39999985762E+02 0.  0.
        -12    1    3    3    0    0 -0.25761151527E+00  0.26525527257E+02 -0.25536451240E+02  0.36820922068E+02  0.00000000000E+00 0.  1.
         11    1    4    4    0    0  0.77514731545E+00 -0.17289736795E+02  0.23742773623E+02  0.29381204049E+02  0.51100000000E-03 0. -1.
        -11    1    4    4    0    0 -0.97174728273E+01 -0.45119199258E+00  0.61863623458E+01  0.11528396753E+02  0.51100000000E-03 0.  1.
        -12    1    4    4    0    0  0.91999370271E+01 -0.87845984698E+01 -0.43926847285E+01  0.13457477130E+02  0.00000000000E+00 0.  1.
</event>
<event>
 8    1  0.2502398E-006  0.9118800E+02  0.7816164E-02  0.1184000E+00
        -11   -1    0    0    0    0  0.00000000000E+00  0.00000000000E+00  0.45593999997E+02  0.45594000000E+02  0.51100000000E-03 0.  1.
         11   -1    0    0    0    0 -0.00000000000E+00 -0.00000000000E+00 -0.45593999997E+02  0.45594000000E+02  0.51100000000E-03 0. -1.
         23    2    1    2    0    0 -0.35527136788E-14  0.00000000000E+00  0.00000000000E+00  0.91188000000E+02  0.91188000000E+02 0.  0.
    9900012    2    3    3    0    0 -0.16996996454E+02  0.23610976355E+02  0.22569979622E+02  0.54367081041E+02  0.39999992848E+02 0.  0.
         12    1    3    3    0    0  0.16996996454E+02 -0.23610976355E+02 -0.22569979622E+02  0.36820918959E+02  0.00000000000E+00 0. -1.
         11    1    4    4    0    0 -0.21316327028E+02  0.14481469600E+02  0.14199811532E+02  0.29423348001E+02  0.51100000000E-03 0.  1.
        -11    1    4    4    0    0 -0.60762893882E+01 -0.32794345284E+01  0.44291702543E+00  0.69189709718E+01  0.51100000000E-03 0. -1.
         12    1    4    4    0    0  0.10395619963E+02  0.12408941283E+02  0.79272510643E+01  0.18024762068E+02  0.00000000000E+00 0. -1.
</event>
<event>
 8    1  0.2502398E-006  0.9118800E+02  0.7816164E-02  0.1184000E+00
        -11   -1    0    0    0    0  0.00000000000E+00  0.00000000000E+00  0.45593999997E+02  0.45594000000E+02  0.51100000000E-03 0.  1.
         11   -1    0    0    0    0 -0.00000000000E+00 -0.00000000000E+00 -0.45593999997E+02  0.45594000000E+02  0.51100000000E-03 0. -1.
         23    2    1    2    0    0  0.00000000000E+00 -0.35527136788E-14  0.00000000000E+00  0.91188000000E+02  0.91188000000E+02 0.  0.
    9900012    2    3    3    0    0 -0.17395506888E+02 -0.30913619177E+02  0.98752484748E+01  0.54367135766E+02  0.40000117606E+02 0.  0.
         12    1    3    3    0    0  0.17395506888E+02  0.30913619177E+02 -0.98752484748E+01  0.36820864234E+02  0.00000000000E+00 0. -1.
         11    1    4    4    0    0 -0.14908679654E+02 -0.49033869723E+01 -0.60165043447E+01  0.16808041457E+02  0.51100000000E-03 0. -1.
        -11    1    4    4    0    0 -0.77769729106E+01 -0.22715298519E+02  0.42909060093E+01  0.24390120317E+02  0.51100000000E-03 0.  1.
         12    1    4    4    0    0  0.52901456774E+01 -0.32949336855E+01  0.11600846810E+02  0.13168973992E+02  0.00000000000E+00 0. -1.
</event>
<event>
 8    1  0.2502398E-006  0.9118800E+02  0.7816164E-02  0.1184000E+00
        -11   -1    0    0    0    0  0.00000000000E+00  0.00000000000E+00  0.45593999997E+02  0.45594000000E+02  0.51100000000E-03 0. -1.
         11   -1    0    0    0    0 -0.00000000000E+00 -0.00000000000E+00 -0.45593999997E+02  0.45594000000E+02  0.51100000000E-03 0.  1.
         23    2    1    2    0    0  0.00000000000E+00  0.00000000000E+00 -0.71054273576E-14  0.91188000000E+02  0.91188000000E+02 0.  0.
    9900012    2    3    3    0    0 -0.29074420772E+01 -0.87825254327E+01 -0.35639765393E+02  0.54367097653E+02  0.40000030719E+02 0.  0.
         12    1    3    3    0    0  0.29074420772E+01  0.87825254327E+01  0.35639765393E+02  0.36820902347E+02  0.00000000000E+00 0. -1.
         11    1    4    4    0    0 -0.68152233381E+01  0.98012398706E+00  0.39607518208E+01  0.79432655391E+01  0.51100000000E-03 0. -1.
        -11    1    4    4    0    0 -0.81917109908E+01 -0.14403888846E+01 -0.78283222140E+01  0.11421973474E+02  0.51100000000E-03 0.  1.
        -12    1    4    4    0    0  0.12099492252E+02 -0.83222605351E+01 -0.31772194999E+02  0.35001858640E+02  0.00000000000E+00 0.  1.
</event>
<event>
 8    1  0.2502398E-006  0.9118800E+02  0.7816164E-02  0.1184000E+00
        -11   -1    0    0    0    0  0.00000000000E+00  0.00000000000E+00  0.45593999997E+02  0.45594000000E+02  0.51100000000E-03 0. -1.
         11   -1    0    0    0    0 -0.00000000000E+00 -0.00000000000E+00 -0.45593999997E+02  0.45594000000E+02  0.51100000000E-03 0.  1.
         23    2    1    2    0    0  0.00000000000E+00  0.00000000000E+00  0.17763568394E-14  0.91188000000E+02  0.91188000000E+02 0.  0.
    9900012    2    3    3    0    0 -0.33833978615E+02  0.52627550588E+01 -0.13540555380E+02  0.54367063840E+02  0.39999953636E+02 0.  0.
         12    1    3    3    0    0  0.33833978615E+02 -0.52627550588E+01  0.13540555380E+02  0.36820936160E+02  0.00000000000E+00 0. -1.
         11    1    4    4    0    0 -0.30768785080E+01  0.73403500561E+01 -0.90309132739E+00  0.80102118890E+01  0.51100000000E-03 0. -1.
        -11    1    4    4    0    0 -0.25571932162E+02  0.28672665087E+01 -0.22489504586E+02  0.34174884762E+02  0.51100000000E-03 0.  1.
        -12    1    4    4    0    0 -0.51851679444E+01 -0.49448615060E+01  0.98520405331E+01  0.12181967189E+02  0.00000000000E+00 0.  1.
</event>
<event>
 8    1  0.2502398E-006  0.9118800E+02  0.7816164E-02  0.1184000E+00
        -11   -1    0    0    0    0  0.00000000000E+00  0.00000000000E+00  0.45593999997E+02  0.45594000000E+02  0.51100000000E-03 0.  1.
         11   -1    0    0    0    0 -0.00000000000E+00 -0.00000000000E+00 -0.45593999997E+02  0.45594000000E+02  0.51100000000E-03 0. -1.
         23    2    1    2    0    0  0.00000000000E+00  0.00000000000E+00 -0.35527136788E-14  0.91188000000E+02  0.91188000000E+02 0.  0.
    9900012    2    3    3    0    0  0.22957040870E+02  0.15718762605E+02 -0.24117951361E+02  0.54367071153E+02  0.39999970307E+02 0.  0.
        -12    1    3    3    0    0 -0.22957040870E+02 -0.15718762605E+02  0.24117951361E+02  0.36820928847E+02  0.00000000000E+00 0.  1.
         11    1    4    4    0    0  0.51856401281E+01  0.12677066554E+02 -0.12725474694E+02  0.18695897583E+02  0.51100000000E-03 0. -1.
        -11    1    4    4    0    0  0.10338867818E+02 -0.69783714286E+01  0.63379492150E+01  0.13991406508E+02  0.51100000000E-03 0.  1.
        -12    1    4    4    0    0  0.74325329234E+01  0.10020067479E+02 -0.17730425881E+02  0.21679767062E+02  0.00000000000E+00 0.  1.
</event>
<event>
 8    1  0.2502398E-006  0.9118800E+02  0.7816164E-02  0.1184000E+00
        -11   -1    0    0    0    0  0.00000000000E+00  0.00000000000E+00  0.45593999997E+02  0.45594000000E+02  0.51100000000E-03 0.  1.
         11   -1    0    0    0    0 -0.00000000000E+00 -0.00000000000E+00 -0.45593999997E+02  0.45594000000E+02  0.51100000000E-03 0. -1.
         23    2    1    2    0    0  0.13877787808E-15  0.00000000000E+00  0.00000000000E+00  0.91188000000E+02  0.91188000000E+02 0.  0.
    9900012    2    3    3    0    0  0.17510507928E+00  0.83668830090E+01  0.35857271099E+02  0.54367091758E+02  0.40000017281E+02 0.  0.
         12    1    3    3    0    0 -0.17510507928E+00 -0.83668830090E+01 -0.35857271099E+02  0.36820908242E+02  0.00000000000E+00 0. -1.
         11    1    4    4    0    0  0.54359278476E+01  0.97867091322E+01  0.17619032107E+01  0.11332841232E+02  0.51100000000E-03 0.  1.
        -11    1    4    4    0    0  0.17011785273E+01 -0.12230418137E+02  0.22754937660E+02  0.25889463578E+02  0.51100000000E-03 0. -1.
         12    1    4    4    0    0 -0.69620012956E+01  0.10810592014E+02  0.11340430228E+02  0.17144786948E+02  0.00000000000E+00 0. -1.
</event>
<event>
 8    1  0.2502398E-006  0.9118800E+02  0.7816164E-02  0.1184000E+00
        -11   -1    0    0    0    0  0.00000000000E+00  0.00000000000E+00  0.45593999997E+02  0.45594000000E+02  0.51100000000E-03 0.  1.
         11   -1    0    0    0    0 -0.00000000000E+00 -0.00000000000E+00 -0.45593999997E+02  0.45594000000E+02  0.51100000000E-03 0. -1.
         23    2    1    2    0    0 -0.22204460493E-14  0.00000000000E+00  0.00000000000E+00  0.91188000000E+02  0.91188000000E+02 0.  0.
    9900012    2    3    3    0    0  0.21503753813E+01  0.17638837253E+02  0.32249455461E+02  0.54367081062E+02  0.39999992897E+02 0.  0.
         12    1    3    3    0    0 -0.21503753813E+01 -0.17638837253E+02 -0.32249455461E+02  0.36820918938E+02  0.00000000000E+00 0. -1.
         11    1    4    4    0    0  0.17899991484E+02 -0.11736605552E+01  0.12696262252E+02  0.21976857138E+02  0.51100000000E-03 0.  1.
        -11    1    4    4    0    0 -0.84595198546E+01  0.13558690027E+02  0.83585617817E+01  0.18035163064E+02  0.51100000000E-03 0. -1.
        -12    1    4    4    0    0 -0.72900962485E+01  0.52538077820E+01  0.11194631426E+02  0.14355060860E+02  0.00000000000E+00 0.  1.
</event>
<event>
 8    1  0.2502398E-006  0.9118800E+02  0.7816164E-02  0.1184000E+00
        -11   -1    0    0    0    0  0.00000000000E+00  0.00000000000E+00  0.45593999997E+02  0.45594000000E+02  0.51100000000E-03 0.  1.
         11   -1    0    0    0    0 -0.00000000000E+00 -0.00000000000E+00 -0.45593999997E+02  0.45594000000E+02  0.51100000000E-03 0. -1.
         23    2    1    2    0    0  0.00000000000E+00 -0.35527136788E-14 -0.35527136788E-14  0.91188000000E+02  0.91188000000E+02 0.  0.
    9900012    2    3    3    0    0  0.10408678709E+02 -0.29818124822E+02 -0.18929302745E+02  0.54367086611E+02  0.40000005547E+02 0.  0.
        -12    1    3    3    0    0 -0.10408678709E+02  0.29818124822E+02  0.18929302745E+02  0.36820913389E+02  0.00000000000E+00 0.  1.
         11    1    4    4    0    0  0.21043472806E+02 -0.24456596403E+02 -0.43994987066E+01  0.32562377746E+02  0.51100000000E-03 0. -1.
        -11    1    4    4    0    0 -0.34927362503E+01 -0.64692995351E+01 -0.12139574096E+02  0.14192262064E+02  0.51100000000E-03 0.  1.
         12    1    4    4    0    0 -0.71420578461E+01  0.11077711158E+01 -0.23902299425E+01  0.76124468012E+01  0.00000000000E+00 0. -1.
</event>
<event>
 8    1  0.2502398E-006  0.9118800E+02  0.7816164E-02  0.1184000E+00
        -11   -1    0    0    0    0  0.00000000000E+00  0.00000000000E+00  0.45593999997E+02  0.45594000000E+02  0.51100000000E-03 0.  1.
         11   -1    0    0    0    0 -0.00000000000E+00 -0.00000000000E+00 -0.45593999997E+02  0.45594000000E+02  0.51100000000E-03 0. -1.
         23    2    1    2    0    0 -0.22204460493E-15  0.35527136788E-14  0.00000000000E+00  0.91188000000E+02  0.91188000000E+02 0.  0.
    9900012    2    3    3    0    0 -0.87710726055E+00  0.29612181246E+02 -0.21866186361E+02  0.54367072509E+02  0.39999973399E+02 0.  0.
        -12    1    3    3    0    0  0.87710726055E+00 -0.29612181246E+02  0.21866186361E+02  0.36820927491E+02  0.00000000000E+00 0.  1.
         11    1    4    4    0    0 -0.33731881604E+01 -0.44635492340E+01 -0.60256866776E+01  0.82225647050E+01  0.51100000000E-03 0. -1.
        -11    1    4    4    0    0 -0.20465639954E+00 -0.32954165767E+01  0.27688320402E+01  0.43090701763E+01  0.51100000000E-03 0.  1.
         12    1    4    4    0    0  0.27007372994E+01  0.37371147057E+02 -0.18609331724E+02  0.41835437628E+02  0.00000000000E+00 0. -1.
</event>
<event>
 8    1  0.2502398E-006  0.9118800E+02  0.7816164E-02  0.1184000E+00
        -11   -1    0    0    0    0  0.00000000000E+00  0.00000000000E+00  0.45593999997E+02  0.45594000000E+02  0.51100000000E-03 0.  1.
         11   -1    0    0    0    0 -0.00000000000E+00 -0.00000000000E+00 -0.45593999997E+02  0.45594000000E+02  0.51100000000E-03 0. -1.
         23    2    1    2    0    0  0.00000000000E+00  0.00000000000E+00  0.35527136788E-14  0.91188000000E+02  0.91188000000E+02 0.  0.
    9900012    2    3    3    0    0 -0.20587964617E+02 -0.92431085390E+01  0.29094332158E+02  0.54367088736E+02  0.40000010393E+02 0.  0.
         12    1    3    3    0    0  0.20587964617E+02  0.92431085390E+01 -0.29094332158E+02  0.36820911264E+02  0.00000000000E+00 0. -1.
         11    1    4    4    0    0  0.41526007904E+00 -0.22473171278E+01  0.13628963310E+02  0.13819244421E+02  0.51100000000E-03 0. -1.
        -11    1    4    4    0    0  0.77531475199E+00  0.76926548024E+01  0.11680649341E+02  0.14007698603E+02  0.51100000000E-03 0.  1.
         12    1    4    4    0    0 -0.21778539449E+02 -0.14688446214E+02  0.37847195075E+01  0.26540145712E+02  0.00000000000E+00 0. -1.
</event>
<event>
 8    1  0.2502398E-006  0.9118800E+02  0.7816164E-02  0.1184000E+00
        -11   -1    0    0    0    0  0.00000000000E+00  0.00000000000E+00  0.45593999997E+02  0.45594000000E+02  0.51100000000E-03 0. -1.
         11   -1    0    0    0    0 -0.00000000000E+00 -0.00000000000E+00 -0.45593999997E+02  0.45594000000E+02  0.51100000000E-03 0.  1.
         23    2    1    2    0    0 -0.17763568394E-14  0.00000000000E+00  0.00000000000E+00  0.91188000000E+02  0.91188000000E+02 0.  0.
    9900012    2    3    3    0    0 -0.80375078208E+01 -0.10997656984E+02  0.34208621425E+02  0.54367085143E+02  0.40000002201E+02 0.  0.
        -12    1    3    3    0    0  0.80375078208E+01  0.10997656984E+02 -0.34208621425E+02  0.36820914857E+02  0.00000000000E+00 0.  1.
         11    1    4    4    0    0 -0.62415807967E+01  0.45149166157E+01  0.70217374624E+01  0.10423367984E+02  0.51100000000E-03 0. -1.
        -11    1    4    4    0    0 -0.10269263949E+01  0.88397655216E+01  0.24667972208E+01  0.92347778039E+01  0.51100000000E-03 0.  1.
        -12    1    4    4    0    0 -0.76900062918E+00 -0.24352339121E+02  0.24720086742E+02  0.34708939355E+02  0.00000000000E+00 0.  1.
</event>
<event>
 8    1  0.2502398E-006  0.9118800E+02  0.7816164E-02  0.1184000E+00
        -11   -1    0    0    0    0  0.00000000000E+00  0.00000000000E+00  0.45593999997E+02  0.45594000000E+02  0.51100000000E-03 0.  1.
         11   -1    0    0    0    0 -0.00000000000E+00 -0.00000000000E+00 -0.45593999997E+02  0.45594000000E+02  0.51100000000E-03 0. -1.
         23    2    1    2    0    0 -0.44408920985E-15  0.00000000000E+00  0.00000000000E+00  0.91188000000E+02  0.91188000000E+02 0.  0.
    9900012    2    3    3    0    0 -0.15503431764E+01  0.11036803718E+02  0.35093669173E+02  0.54367079094E+02  0.39999988411E+02 0.  0.
         12    1    3    3    0    0  0.15503431764E+01 -0.11036803718E+02 -0.35093669173E+02  0.36820920906E+02  0.00000000000E+00 0. -1.
         11    1    4    4    0    0  0.37774283763E+01 -0.66710657826E+01 -0.23235048962E+00  0.76698155666E+01  0.51100000000E-03 0. -1.
        -11    1    4    4    0    0 -0.12784681871E+01  0.16317518293E+02  0.38187747566E+02  0.41547562486E+02  0.51100000000E-03 0.  1.
         12    1    4    4    0    0 -0.40493033656E+01  0.13903512076E+01 -0.28617279026E+01  0.51497010414E+01  0.00000000000E+00 0. -1.
</event>
<event>
 8    1  0.2502398E-006  0.9118800E+02  0.7816164E-02  0.1184000E+00
        -11   -1    0    0    0    0  0.00000000000E+00  0.00000000000E+00  0.45593999997E+02  0.45594000000E+02  0.51100000000E-03 0.  1.
         11   -1    0    0    0    0 -0.00000000000E+00 -0.00000000000E+00 -0.45593999997E+02  0.45594000000E+02  0.51100000000E-03 0. -1.
         23    2    1    2    0    0  0.17763568394E-14  0.00000000000E+00  0.00000000000E+00  0.91188000000E+02  0.91188000000E+02 0.  0.
    9900012    2    3    3    0    0  0.77568326050E+01 -0.90889226546E+01  0.34828160485E+02  0.54367112859E+02  0.40000065385E+02 0.  0.
         12    1    3    3    0    0 -0.77568326050E+01  0.90889226546E+01 -0.34828160485E+02  0.36820887141E+02  0.00000000000E+00 0. -1.
         11    1    4    4    0    0  0.11801552471E+02 -0.54311819207E+01  0.12627736682E+02  0.18117232453E+02  0.51100000000E-03 0. -1.
        -11    1    4    4    0    0 -0.42276872830E+01 -0.90967472925E+01 -0.29987202552E+01  0.10469788656E+02  0.51100000000E-03 0.  1.
        -12    1    4    4    0    0  0.18296741739E+00  0.54390065586E+01  0.25199144058E+02  0.25780091751E+02  0.00000000000E+00 0.  1.
</event>
<event>
 8    1  0.2502398E-006  0.9118800E+02  0.7816164E-02  0.1184000E+00
        -11   -1    0    0    0    0  0.00000000000E+00  0.00000000000E+00  0.45593999997E+02  0.45594000000E+02  0.51100000000E-03 0. -1.
         11   -1    0    0    0    0 -0.00000000000E+00 -0.00000000000E+00 -0.45593999997E+02  0.45594000000E+02  0.51100000000E-03 0.  1.
         23    2    1    2    0    0 -0.71054273576E-14 -0.35527136788E-14 -0.35527136788E-14  0.91188000000E+02  0.91188000000E+02 0.  0.
    9900012    2    3    3    0    0 -0.25578833519E+02 -0.14016832225E+02 -0.22472876660E+02  0.54367102467E+02  0.40000041693E+02 0.  0.
         12    1    3    3    0    0  0.25578833519E+02  0.14016832225E+02  0.22472876660E+02  0.36820897533E+02  0.00000000000E+00 0. -1.
         11    1    4    4    0    0 -0.19643026200E+02  0.56204251487E+01 -0.50572137548E+00  0.20437549059E+02  0.51100000000E-03 0. -1.
        -11    1    4    4    0    0 -0.28546879311E+01  0.37822655427E+00  0.12343882481E+01  0.31330517261E+01  0.51100000000E-03 0.  1.
        -12    1    4    4    0    0 -0.30811193875E+01 -0.20015483928E+02 -0.23201543532E+02  0.30796501682E+02  0.00000000000E+00 0.  1.
</event>
<event>
 8    1  0.2502398E-006  0.9118800E+02  0.7816164E-02  0.1184000E+00
        -11   -1    0    0    0    0  0.00000000000E+00  0.00000000000E+00  0.45593999997E+02  0.45594000000E+02  0.51100000000E-03 0.  1.
         11   -1    0    0    0    0 -0.00000000000E+00 -0.00000000000E+00 -0.45593999997E+02  0.45594000000E+02  0.51100000000E-03 0. -1.
         23    2    1    2    0    0  0.17763568394E-14  0.00000000000E+00  0.00000000000E+00  0.91188000000E+02  0.91188000000E+02 0.  0.
    9900012    2    3    3    0    0  0.13230237783E+02  0.32012765973E+01 -0.34212459935E+02  0.54367085041E+02  0.40000001967E+02 0.  0.
        -12    1    3    3    0    0 -0.13230237783E+02 -0.32012765973E+01  0.34212459935E+02  0.36820914959E+02  0.00000000000E+00 0.  1.
         11    1    4    4    0    0  0.89682298471E+01  0.94200853064E+01 -0.99853302696E+01  0.16397377065E+02  0.51100000000E-03 0. -1.
        -11    1    4    4    0    0  0.76454127298E+01  0.89067162033E+01 -0.38201182408E+01  0.12344036332E+02  0.51100000000E-03 0.  1.
         12    1    4    4    0    0 -0.33834047944E+01 -0.15125524912E+02 -0.20407011425E+02  0.25625671643E+02  0.00000000000E+00 0. -1.
</event>
<event>
 8    1  0.2502398E-006  0.9118800E+02  0.7816164E-02  0.1184000E+00
        -11   -1    0    0    0    0  0.00000000000E+00  0.00000000000E+00  0.45593999997E+02  0.45594000000E+02  0.51100000000E-03 0. -1.
         11   -1    0    0    0    0 -0.00000000000E+00 -0.00000000000E+00 -0.45593999997E+02  0.45594000000E+02  0.51100000000E-03 0.  1.
         23    2    1    2    0    0  0.00000000000E+00  0.00000000000E+00 -0.35527136788E-14  0.91188000000E+02  0.91188000000E+02 0.  0.
    9900012    2    3    3    0    0 -0.12928567323E+02 -0.18641744639E+02  0.29002069968E+02  0.54367047287E+02  0.39999915901E+02 0.  0.
        -12    1    3    3    0    0  0.12928567323E+02  0.18641744639E+02 -0.29002069968E+02  0.36820952713E+02  0.00000000000E+00 0.  1.
         11    1    4    4    0    0 -0.80256683516E+01 -0.38145273797E+00  0.19496399248E+02  0.21087115558E+02  0.51100000000E-03 0. -1.
        -11    1    4    4    0    0  0.32943973307E+01  0.51230618397E+01  0.54469347384E+01  0.81711636070E+01  0.51100000000E-03 0.  1.
        -12    1    4    4    0    0 -0.81972963022E+01 -0.23383353741E+02  0.40587359821E+01  0.25108768122E+02  0.00000000000E+00 0.  1.
</event>
<event>
 8    1  0.2502398E-006  0.9118800E+02  0.7816164E-02  0.1184000E+00
        -11   -1    0    0    0    0  0.00000000000E+00  0.00000000000E+00  0.45593999997E+02  0.45594000000E+02  0.51100000000E-03 0.  1.
         11   -1    0    0    0    0 -0.00000000000E+00 -0.00000000000E+00 -0.45593999997E+02  0.45594000000E+02  0.51100000000E-03 0. -1.
         23    2    1    2    0    0  0.44408920985E-15 -0.71054273576E-14  0.00000000000E+00  0.91188000000E+02  0.91188000000E+02 0.  0.
    9900012    2    3    3    0    0 -0.35076658575E+01  0.32984347013E+02 -0.15984656530E+02  0.54367080511E+02  0.39999991641E+02 0.  0.
        -12    1    3    3    0    0  0.35076658575E+01 -0.32984347013E+02  0.15984656530E+02  0.36820919489E+02  0.00000000000E+00 0.  1.
         11    1    4    4    0    0 -0.73383446813E+01  0.33075979076E+02 -0.14831615083E+02  0.36984435925E+02  0.51100000000E-03 0. -1.
        -11    1    4    4    0    0  0.97734293221E+01 -0.15066255026E+01 -0.39694125139E+01  0.10655800162E+02  0.51100000000E-03 0.  1.
         12    1    4    4    0    0 -0.59427504982E+01  0.14149934394E+01  0.28163710670E+01  0.67268444240E+01  0.00000000000E+00 0. -1.
</event>
<event>
 8    1  0.2502398E-006  0.9118800E+02  0.7816164E-02  0.1184000E+00
        -11   -1    0    0    0    0  0.00000000000E+00  0.00000000000E+00  0.45593999997E+02  0.45594000000E+02  0.51100000000E-03 0. -1.
         11   -1    0    0    0    0 -0.00000000000E+00 -0.00000000000E+00 -0.45593999997E+02  0.45594000000E+02  0.51100000000E-03 0.  1.
         23    2    1    2    0    0  0.71054273576E-14  0.35527136788E-14 -0.88817841970E-15  0.91188000000E+02  0.91188000000E+02 0.  0.
    9900012    2    3    3    0    0  0.18117495130E+02 -0.31417079108E+02 -0.63641957615E+01  0.54367089132E+02  0.40000011294E+02 0.  0.
         12    1    3    3    0    0 -0.18117495130E+02  0.31417079108E+02  0.63641957615E+01  0.36820910868E+02  0.00000000000E+00 0. -1.
         11    1    4    4    0    0 -0.49836727559E+01 -0.14717011038E+02  0.79991634987E+01  0.17476098677E+02  0.51100000000E-03 0. -1.
        -11    1    4    4    0    0  0.22389306284E+02 -0.17827294738E+02 -0.70745073002E+01  0.29481216518E+02  0.51100000000E-03 0.  1.
         12    1    4    4    0    0  0.71186160166E+00  0.11272266677E+01 -0.72888519600E+01  0.74097739368E+01  0.00000000000E+00 0. -1.
</event>
<event>
 8    1  0.2502398E-006  0.9118800E+02  0.7816164E-02  0.1184000E+00
        -11   -1    0    0    0    0  0.00000000000E+00  0.00000000000E+00  0.45593999997E+02  0.45594000000E+02  0.51100000000E-03 0. -1.
         11   -1    0    0    0    0 -0.00000000000E+00 -0.00000000000E+00 -0.45593999997E+02  0.45594000000E+02  0.51100000000E-03 0.  1.
         23    2    1    2    0    0  0.00000000000E+00  0.00000000000E+00  0.00000000000E+00  0.91188000000E+02  0.91188000000E+02 0.  0.
    9900012    2    3    3    0    0  0.21693618486E+02 -0.16612815064E+02 -0.24681591680E+02  0.54367086442E+02  0.40000005163E+02 0.  0.
         12    1    3    3    0    0 -0.21693618486E+02  0.16612815064E+02  0.24681591680E+02  0.36820913558E+02  0.00000000000E+00 0. -1.
         11    1    4    4    0    0  0.64456297473E+01 -0.23234619104E+00 -0.28608460098E+01  0.70558180068E+01  0.51100000000E-03 0. -1.
        -11    1    4    4    0    0  0.23112802718E+02 -0.30580397750E+01 -0.39028592278E+01  0.23638645629E+02  0.51100000000E-03 0.  1.
         12    1    4    4    0    0 -0.78648139793E+01 -0.13322429097E+02 -0.17917886442E+02  0.23672622807E+02  0.00000000000E+00 0. -1.
</event>
<event>
 8    1  0.2502398E-006  0.9118800E+02  0.7816164E-02  0.1184000E+00
        -11   -1    0    0    0    0  0.00000000000E+00  0.00000000000E+00  0.45593999997E+02  0.45594000000E+02  0.51100000000E-03 0.  1.
         11   -1    0    0    0    0 -0.00000000000E+00 -0.00000000000E+00 -0.45593999997E+02  0.45594000000E+02  0.51100000000E-03 0. -1.
         23    2    1    2    0    0  0.00000000000E+00  0.17763568394E-14  0.00000000000E+00  0.91188000000E+02  0.91188000000E+02 0.  0.
    9900012    2    3    3    0    0  0.21861626095E+02  0.10997389887E+02  0.27511939509E+02  0.54367080737E+02  0.39999992156E+02 0.  0.
        -12    1    3    3    0    0 -0.21861626095E+02 -0.10997389887E+02 -0.27511939509E+02  0.36820919263E+02  0.00000000000E+00 0.  1.
         11    1    4    4    0    0  0.99722587891E+01 -0.62214722520E+01 -0.31075793310E+01  0.12157701752E+02  0.51100000000E-03 0. -1.
        -11    1    4    4    0    0  0.51523642748E+01  0.15511297994E+02  0.73446775372E+01  0.17919026521E+02  0.51100000000E-03 0.  1.
         12    1    4    4    0    0  0.67370030313E+01  0.17075641449E+01  0.23274841302E+02  0.24290352464E+02  0.00000000000E+00 0. -1.
</event>
<event>
 8    1  0.2502398E-006  0.9118800E+02  0.7816164E-02  0.1184000E+00
        -11   -1    0    0    0    0  0.00000000000E+00  0.00000000000E+00  0.45593999997E+02  0.45594000000E+02  0.51100000000E-03 0.  1.
         11   -1    0    0    0    0 -0.00000000000E+00 -0.00000000000E+00 -0.45593999997E+02  0.45594000000E+02  0.51100000000E-03 0. -1.
         23    2    1    2    0    0  0.35527136788E-14  0.53290705182E-14  0.00000000000E+00  0.91188000000E+02  0.91188000000E+02 0.  0.
    9900012    2    3    3    0    0  0.20685622732E+02  0.12916394165E+02  0.27587145040E+02  0.54367098361E+02  0.40000032333E+02 0.  0.
         12    1    3    3    0    0 -0.20685622732E+02 -0.12916394165E+02 -0.27587145040E+02  0.36820901639E+02  0.00000000000E+00 0. -1.
         11    1    4    4    0    0 -0.14791902342E+01  0.72281789208E-01  0.99808707625E+01  0.10090144193E+02  0.51100000000E-03 0. -1.
        -11    1    4    4    0    0  0.15406692880E+02 -0.44919155020E+01  0.19860748512E+02  0.25534150115E+02  0.51100000000E-03 0.  1.
        -12    1    4    4    0    0  0.67581200865E+01  0.17336027878E+02 -0.22544742341E+01  0.18742804052E+02  0.00000000000E+00 0.  1.
</event>
<event>
 8    1  0.2502398E-006  0.9118800E+02  0.7816164E-02  0.1184000E+00
        -11   -1    0    0    0    0  0.00000000000E+00  0.00000000000E+00  0.45593999997E+02  0.45594000000E+02  0.51100000000E-03 0. -1.
         11   -1    0    0    0    0 -0.00000000000E+00 -0.00000000000E+00 -0.45593999997E+02  0.45594000000E+02  0.51100000000E-03 0.  1.
         23    2    1    2    0    0  0.00000000000E+00  0.00000000000E+00  0.17763568394E-14  0.91188000000E+02  0.91188000000E+02 0.  0.
    9900012    2    3    3    0    0  0.50019872295E+01  0.34980605919E+02 -0.10349688386E+02  0.54367099462E+02  0.40000034844E+02 0.  0.
         12    1    3    3    0    0 -0.50019872295E+01 -0.34980605919E+02  0.10349688386E+02  0.36820900538E+02  0.00000000000E+00 0. -1.
         11    1    4    4    0    0  0.11648982847E+02  0.22799461225E+02 -0.19911702840E+02  0.32434397540E+02  0.51100000000E-03 0. -1.
        -11    1    4    4    0    0  0.22638685295E+01  0.99101327227E+01  0.28796522759E+01  0.10565426106E+02  0.51100000000E-03 0.  1.
         12    1    4    4    0    0 -0.89108641468E+01  0.22710119711E+01  0.66823621780E+01  0.11367275817E+02  0.00000000000E+00 0. -1.
</event>
<event>
 8    1  0.2502398E-006  0.9118800E+02  0.7816164E-02  0.1184000E+00
        -11   -1    0    0    0    0  0.00000000000E+00  0.00000000000E+00  0.45593999997E+02  0.45594000000E+02  0.51100000000E-03 0. -1.
         11   -1    0    0    0    0 -0.00000000000E+00 -0.00000000000E+00 -0.45593999997E+02  0.45594000000E+02  0.51100000000E-03 0.  1.
         23    2    1    2    0    0  0.00000000000E+00  0.00000000000E+00  0.00000000000E+00  0.91188000000E+02  0.91188000000E+02 0.  0.
    9900012    2    3    3    0    0 -0.35365456621E+01 -0.19321907356E+02 -0.31143776636E+02  0.54367108074E+02  0.40000054476E+02 0.  0.
         12    1    3    3    0    0  0.35365456621E+01  0.19321907356E+02  0.31143776636E+02  0.36820891926E+02  0.00000000000E+00 0. -1.
         11    1    4    4    0    0 -0.55476733486E+01  0.13120252458E+01 -0.27778985718E+02  0.28357893744E+02  0.51100000000E-03 0. -1.
        -11    1    4    4    0    0 -0.52548270498E+01 -0.16545522601E+02 -0.33052117310E+01  0.17671784016E+02  0.51100000000E-03 0.  1.
         12    1    4    4    0    0  0.72659547363E+01 -0.40884100007E+01 -0.59579187054E-01  0.83374303142E+01  0.00000000000E+00 0. -1.
</event>
<event>
 8    1  0.2502398E-006  0.9118800E+02  0.7816164E-02  0.1184000E+00
        -11   -1    0    0    0    0  0.00000000000E+00  0.00000000000E+00  0.45593999997E+02  0.45594000000E+02  0.51100000000E-03 0.  1.
         11   -1    0    0    0    0 -0.00000000000E+00 -0.00000000000E+00 -0.45593999997E+02  0.45594000000E+02  0.51100000000E-03 0. -1.
         23    2    1    2    0    0  0.00000000000E+00  0.00000000000E+00  0.00000000000E+00  0.91188000000E+02  0.91188000000E+02 0.  0.
    9900012    2    3    3    0    0  0.11722785866E+02 -0.20164390730E+02 -0.28491272271E+02  0.54367096187E+02  0.40000027378E+02 0.  0.
        -12    1    3    3    0    0 -0.11722785866E+02  0.20164390730E+02  0.28491272271E+02  0.36820903813E+02  0.00000000000E+00 0.  1.
         11    1    4    4    0    0  0.61004513091E+01 -0.10373320985E+02 -0.24382972797E+02  0.27191003239E+02  0.51100000000E-03 0. -1.
        -11    1    4    4    0    0 -0.37723979866E+01 -0.26347190125E+01 -0.12080547771E+02  0.12927194806E+02  0.51100000000E-03 0.  1.
        -12    1    4    4    0    0  0.93947325432E+01 -0.71563507323E+01  0.79722482975E+01  0.14248898143E+02  0.00000000000E+00 0.  1.
</event>
<event>
 8    1  0.2502398E-006  0.9118800E+02  0.7816164E-02  0.1184000E+00
        -11   -1    0    0    0    0  0.00000000000E+00  0.00000000000E+00  0.45593999997E+02  0.45594000000E+02  0.51100000000E-03 0. -1.
         11   -1    0    0    0    0 -0.00000000000E+00 -0.00000000000E+00 -0.45593999997E+02  0.45594000000E+02  0.51100000000E-03 0.  1.
         23    2    1    2    0    0  0.17763568394E-14 -0.35527136788E-14 -0.35527136788E-14  0.91188000000E+02  0.91188000000E+02 0.  0.
    9900012    2    3    3    0    0  0.11586380979E+02 -0.27149358388E+02 -0.22010315605E+02  0.54367002212E+02  0.39999813143E+02 0.  0.
         12    1    3    3    0    0 -0.11586380979E+02  0.27149358388E+02  0.22010315605E+02  0.36820997788E+02  0.00000000000E+00 0. -1.
         11    1    4    4    0    0  0.17782442836E+02 -0.66409492178E+01  0.47524243574E-01  0.18982089942E+02  0.51100000000E-03 0. -1.
        -11    1    4    4    0    0  0.20417482285E+01  0.24919305531E+01 -0.29637219748E+01  0.43774538164E+01  0.51100000000E-03 0.  1.
        -12    1    4    4    0    0 -0.82378100862E+01 -0.23000339723E+02 -0.19094117873E+02  0.31007458454E+02  0.00000000000E+00 0.  1.
</event>
<event>
 8    1  0.2502398E-006  0.9118800E+02  0.7816164E-02  0.1184000E+00
        -11   -1    0    0    0    0  0.00000000000E+00  0.00000000000E+00  0.45593999997E+02  0.45594000000E+02  0.51100000000E-03 0.  1.
         11   -1    0    0    0    0 -0.00000000000E+00 -0.00000000000E+00 -0.45593999997E+02  0.45594000000E+02  0.51100000000E-03 0. -1.
         23    2    1    2    0    0  0.00000000000E+00  0.00000000000E+00  0.00000000000E+00  0.91188000000E+02  0.91188000000E+02 0.  0.
    9900012    2    3    3    0    0  0.52278792558E+01  0.35155672477E+02  0.96191265178E+01  0.54367087141E+02  0.40000006755E+02 0.  0.
        -12    1    3    3    0    0 -0.52278792558E+01 -0.35155672477E+02 -0.96191265178E+01  0.36820912859E+02  0.00000000000E+00 0.  1.
         11    1    4    4    0    0  0.18099325952E+02  0.19416911344E+02  0.50451596291E+01  0.27019542594E+02  0.51100000000E-03 0.  1.
        -11    1    4    4    0    0 -0.66948115432E+01  0.18726543287E+02  0.48875561311E+01  0.20479065659E+02  0.51100000000E-03 0. -1.
        -12    1    4    4    0    0 -0.61766351529E+01 -0.29877821543E+01 -0.31358924245E+00  0.68684788874E+01  0.00000000000E+00 0.  1.
</event>
<event>
 8    1  0.2502398E-006  0.9118800E+02  0.7816164E-02  0.1184000E+00
        -11   -1    0    0    0    0  0.00000000000E+00  0.00000000000E+00  0.45593999997E+02  0.45594000000E+02  0.51100000000E-03 0.  1.
         11   -1    0    0    0    0 -0.00000000000E+00 -0.00000000000E+00 -0.45593999997E+02  0.45594000000E+02  0.51100000000E-03 0. -1.
         23    2    1    2    0    0  0.35527136788E-14  0.10658141036E-13  0.35527136788E-14  0.91188000000E+02  0.91188000000E+02 0.  0.
    9900012    2    3    3    0    0  0.16128757760E+02  0.21671330332E+02  0.25019938432E+02  0.54367072467E+02  0.39999973302E+02 0.  0.
         12    1    3    3    0    0 -0.16128757760E+02 -0.21671330332E+02 -0.25019938432E+02  0.36820927533E+02  0.00000000000E+00 0. -1.
         11    1    4    4    0    0  0.12116434282E+02 -0.63269007579E+01  0.13818950870E+02  0.19437105142E+02  0.51100000000E-03 0.  1.
        -11    1    4    4    0    0  0.75025956619E+01  0.56748863428E+01  0.75073190634E+01  0.12035494026E+02  0.51100000000E-03 0. -1.
        -12    1    4    4    0    0 -0.34902721834E+01  0.22323344747E+02  0.36936684987E+01  0.22894473298E+02  0.00000000000E+00 0.  1.
</event>
<event>
 8    1  0.2502398E-006  0.9118800E+02  0.7816164E-02  0.1184000E+00
        -11   -1    0    0    0    0  0.00000000000E+00  0.00000000000E+00  0.45593999997E+02  0.45594000000E+02  0.51100000000E-03 0.  1.
         11   -1    0    0    0    0 -0.00000000000E+00 -0.00000000000E+00 -0.45593999997E+02  0.45594000000E+02  0.51100000000E-03 0. -1.
         23    2    1    2    0    0 -0.12906342661E-14  0.88817841970E-15  0.00000000000E+00  0.91188000000E+02  0.91188000000E+02 0.  0.
    9900012    2    3    3    0    0 -0.45558520130E-01  0.61385001957E+01  0.36305639846E+02  0.54367044759E+02  0.39999910137E+02 0.  0.
         12    1    3    3    0    0  0.45558520130E-01 -0.61385001957E+01 -0.36305639846E+02  0.36820955241E+02  0.00000000000E+00 0. -1.
         11    1    4    4    0    0  0.56815135115E+01 -0.85732802173E+01  0.11200552726E+02  0.15206351012E+02  0.51100000000E-03 0. -1.
        -11    1    4    4    0    0 -0.14458561829E+02  0.10733398481E+02  0.23216759667E+02  0.29381521111E+02  0.51100000000E-03 0.  1.
         12    1    4    4    0    0  0.87314897972E+01  0.39783819318E+01  0.18883274534E+01  0.97791726360E+01  0.00000000000E+00 0. -1.
</event>
<event>
 8    1  0.2502398E-006  0.9118800E+02  0.7816164E-02  0.1184000E+00
        -11   -1    0    0    0    0  0.00000000000E+00  0.00000000000E+00  0.45593999997E+02  0.45594000000E+02  0.51100000000E-03 0.  1.
         11   -1    0    0    0    0 -0.00000000000E+00 -0.00000000000E+00 -0.45593999997E+02  0.45594000000E+02  0.51100000000E-03 0. -1.
         23    2    1    2    0    0 -0.88817841970E-15  0.00000000000E+00 -0.35527136788E-14  0.91188000000E+02  0.91188000000E+02 0.  0.
    9900012    2    3    3    0    0  0.49995208342E+01  0.21505194403E+02 -0.29467108664E+02  0.54367094418E+02  0.40000023345E+02 0.  0.
        -12    1    3    3    0    0 -0.49995208342E+01 -0.21505194403E+02  0.29467108664E+02  0.36820905582E+02  0.00000000000E+00 0.  1.
         11    1    4    4    0    0  0.80852608188E+01  0.22231687837E+02 -0.25435696912E+02  0.34736062877E+02  0.51100000000E-03 0.  1.
        -11    1    4    4    0    0 -0.77063651077E+01  0.67934243654E+01 -0.32283353550E+01  0.10768510909E+02  0.51100000000E-03 0. -1.
        -12    1    4    4    0    0  0.46206251231E+01 -0.75199177995E+01 -0.80307639700E+00  0.88625206313E+01  0.00000000000E+00 0.  1.
</event>
<event>
 8    1  0.2502398E-006  0.9118800E+02  0.7816164E-02  0.1184000E+00
        -11   -1    0    0    0    0  0.00000000000E+00  0.00000000000E+00  0.45593999997E+02  0.45594000000E+02  0.51100000000E-03 0. -1.
         11   -1    0    0    0    0 -0.00000000000E+00 -0.00000000000E+00 -0.45593999997E+02  0.45594000000E+02  0.51100000000E-03 0.  1.
         23    2    1    2    0    0 -0.35527136788E-14 -0.35527136788E-14 -0.35527136788E-14  0.91188000000E+02  0.91188000000E+02 0.  0.
    9900012    2    3    3    0    0 -0.22394953033E+02  0.20484695465E+02  0.20847586940E+02  0.54367101710E+02  0.40000039969E+02 0.  0.
        -12    1    3    3    0    0  0.22394953033E+02 -0.20484695465E+02 -0.20847586940E+02  0.36820898290E+02  0.00000000000E+00 0.  1.
         11    1    4    4    0    0 -0.11058788197E+02 -0.58051521520E+01  0.51668437996E+01  0.13516392382E+02  0.51100000000E-03 0. -1.
        -11    1    4    4    0    0  0.28127565816E+01  0.23027534870E+02  0.94177336989E+01  0.25037425388E+02  0.51100000000E-03 0.  1.
        -12    1    4    4    0    0 -0.14148921417E+02  0.32623127475E+01  0.62630094418E+01  0.15813283941E+02  0.00000000000E+00 0.  1.
</event>
<event>
 8    1  0.2502398E-006  0.9118800E+02  0.7816164E-02  0.1184000E+00
        -11   -1    0    0    0    0  0.00000000000E+00  0.00000000000E+00  0.45593999997E+02  0.45594000000E+02  0.51100000000E-03 0.  1.
         11   -1    0    0    0    0 -0.00000000000E+00 -0.00000000000E+00 -0.45593999997E+02  0.45594000000E+02  0.51100000000E-03 0. -1.
         23    2    1    2    0    0  0.17763568394E-14  0.00000000000E+00 -0.17763568394E-14  0.91188000000E+02  0.91188000000E+02 0.  0.
    9900012    2    3    3    0    0 -0.39916365133E+01  0.34277706310E+02 -0.12840815186E+02  0.54367070536E+02  0.39999968901E+02 0.  0.
        -12    1    3    3    0    0  0.39916365133E+01 -0.34277706310E+02  0.12840815186E+02  0.36820929464E+02  0.00000000000E+00 0.  1.
         11    1    4    4    0    0  0.82661118858E+01  0.24978140170E+02 -0.58661083818E+01  0.26956396641E+02  0.51100000000E-03 0. -1.
        -11    1    4    4    0    0 -0.16879248270E+02  0.53294219793E+01 -0.10290160303E+02  0.20474353717E+02  0.51100000000E-03 0.  1.
        -12    1    4    4    0    0  0.46214998711E+01  0.39701441606E+01  0.33154534982E+01  0.69363201781E+01  0.00000000000E+00 0.  1.
</event>
<event>
 8    1  0.2502398E-006  0.9118800E+02  0.7816164E-02  0.1184000E+00
        -11   -1    0    0    0    0  0.00000000000E+00  0.00000000000E+00  0.45593999997E+02  0.45594000000E+02  0.51100000000E-03 0.  1.
         11   -1    0    0    0    0 -0.00000000000E+00 -0.00000000000E+00 -0.45593999997E+02  0.45594000000E+02  0.51100000000E-03 0. -1.
         23    2    1    2    0    0 -0.44408920985E-15  0.35527136788E-14  0.35527136788E-14  0.91188000000E+02  0.91188000000E+02 0.  0.
    9900012    2    3    3    0    0  0.36396648481E+01 -0.29907699477E+02 -0.21167468774E+02  0.54367090417E+02  0.40000014224E+02 0.  0.
        -12    1    3    3    0    0 -0.36396648481E+01  0.29907699477E+02  0.21167468774E+02  0.36820909583E+02  0.00000000000E+00 0.  1.
         11    1    4    4    0    0 -0.70474337006E+01 -0.48658342984E+01 -0.13512254119E+02  0.15997614723E+02  0.51100000000E-03 0. -1.
        -11    1    4    4    0    0 -0.21516364858E+01 -0.41877954178E+01  0.80151439658E+01  0.92956819589E+01  0.51100000000E-03 0.  1.
        -12    1    4    4    0    0  0.12838735035E+02 -0.20854069761E+02 -0.15670358621E+02  0.29073793735E+02  0.00000000000E+00 0.  1.
</event>
<event>
 8    1  0.2502398E-006  0.9118800E+02  0.7816164E-02  0.1184000E+00
        -11   -1    0    0    0    0  0.00000000000E+00  0.00000000000E+00  0.45593999997E+02  0.45594000000E+02  0.51100000000E-03 0.  1.
         11   -1    0    0    0    0 -0.00000000000E+00 -0.00000000000E+00 -0.45593999997E+02  0.45594000000E+02  0.51100000000E-03 0. -1.
         23    2    1    2    0    0  0.44408920985E-15  0.00000000000E+00  0.71054273576E-14  0.91188000000E+02  0.91188000000E+02 0.  0.
    9900012    2    3    3    0    0  0.30095393749E+01  0.21969912552E+02  0.29394647006E+02  0.54367086684E+02  0.40000005714E+02 0.  0.
         12    1    3    3    0    0 -0.30095393749E+01 -0.21969912552E+02 -0.29394647006E+02  0.36820913316E+02  0.00000000000E+00 0. -1.
         11    1    4    4    0    0 -0.53669176403E+01  0.22958248618E+02  0.42080218240E+01  0.23949789821E+02  0.51100000000E-03 0.  1.
        -11    1    4    4    0    0  0.48942925937E+01  0.14440673064E+01  0.25642499395E+02  0.26145309443E+02  0.51100000000E-03 0. -1.
         12    1    4    4    0    0  0.34821644215E+01 -0.24324033720E+01 -0.45587421268E+00  0.42719874204E+01  0.00000000000E+00 0. -1.
</event>
<event>
 8    1  0.2502398E-006  0.9118800E+02  0.7816164E-02  0.1184000E+00
        -11   -1    0    0    0    0  0.00000000000E+00  0.00000000000E+00  0.45593999997E+02  0.45594000000E+02  0.51100000000E-03 0. -1.
         11   -1    0    0    0    0 -0.00000000000E+00 -0.00000000000E+00 -0.45593999997E+02  0.45594000000E+02  0.51100000000E-03 0.  1.
         23    2    1    2    0    0 -0.17763568394E-14  0.00000000000E+00 -0.35527136788E-14  0.91188000000E+02  0.91188000000E+02 0.  0.
    9900012    2    3    3    0    0  0.93763281605E+01 -0.23722458692E+02  0.26553883137E+02  0.54367091731E+02  0.40000017218E+02 0.  0.
        -12    1    3    3    0    0 -0.93763281605E+01  0.23722458692E+02 -0.26553883137E+02  0.36820908269E+02  0.00000000000E+00 0.  1.
         11    1    4    4    0    0 -0.72643244829E+00 -0.19786339880E+02  0.57359347947E+01  0.20613779328E+02  0.51100000000E-03 0. -1.
        -11    1    4    4    0    0 -0.57605777183E+00 -0.67490327531E+01  0.21644218443E+02  0.22679362379E+02  0.51100000000E-03 0.  1.
        -12    1    4    4    0    0  0.10678818381E+02  0.28129139416E+01 -0.82627010065E+00  0.11073950024E+02  0.00000000000E+00 0.  1.
</event>
<event>
 8    1  0.2502398E-006  0.9118800E+02  0.7816164E-02  0.1184000E+00
        -11   -1    0    0    0    0  0.00000000000E+00  0.00000000000E+00  0.45593999997E+02  0.45594000000E+02  0.51100000000E-03 0.  1.
         11   -1    0    0    0    0 -0.00000000000E+00 -0.00000000000E+00 -0.45593999997E+02  0.45594000000E+02  0.51100000000E-03 0. -1.
         23    2    1    2    0    0  0.00000000000E+00  0.00000000000E+00  0.00000000000E+00  0.91188000000E+02  0.91188000000E+02 0.  0.
    9900012    2    3    3    0    0 -0.35849611446E+02 -0.55276733629E+01 -0.63269349159E+01  0.54367083131E+02  0.39999997614E+02 0.  0.
        -12    1    3    3    0    0  0.35849611446E+02  0.55276733629E+01  0.63269349159E+01  0.36820916869E+02  0.00000000000E+00 0.  1.
         11    1    4    4    0    0 -0.15466090831E+02  0.60451063997E+00  0.65365022536E+00  0.15491696407E+02  0.51100000000E-03 0. -1.
        -11    1    4    4    0    0 -0.25385512984E+02 -0.13893348551E+02 -0.63028880645E+01  0.29617153840E+02  0.51100000000E-03 0.  1.
        -12    1    4    4    0    0  0.50019923684E+01  0.77611645477E+01 -0.67769707671E+00  0.92582328831E+01  0.00000000000E+00 0.  1.
</event>
<event>
 8    1  0.2502398E-006  0.9118800E+02  0.7816164E-02  0.1184000E+00
        -11   -1    0    0    0    0  0.00000000000E+00  0.00000000000E+00  0.45593999997E+02  0.45594000000E+02  0.51100000000E-03 0. -1.
         11   -1    0    0    0    0 -0.00000000000E+00 -0.00000000000E+00 -0.45593999997E+02  0.45594000000E+02  0.51100000000E-03 0.  1.
         23    2    1    2    0    0  0.00000000000E+00  0.35527136788E-14  0.00000000000E+00  0.91188000000E+02  0.91188000000E+02 0.  0.
    9900012    2    3    3    0    0 -0.22805211576E+02  0.23328791883E+02  0.17072478846E+02  0.54367085567E+02  0.40000003166E+02 0.  0.
        -12    1    3    3    0    0  0.22805211576E+02 -0.23328791883E+02 -0.17072478846E+02  0.36820914433E+02  0.00000000000E+00 0.  1.
         11    1    4    4    0    0 -0.95488460773E+01  0.23091054096E+02  0.19085387012E+02  0.31442475067E+02  0.51100000000E-03 0. -1.
        -11    1    4    4    0    0 -0.10783309485E+02 -0.11199360954E+01  0.73815436334E+01  0.13115685532E+02  0.51100000000E-03 0.  1.
        -12    1    4    4    0    0 -0.24730560143E+01  0.13576738826E+01 -0.93944517990E+01  0.98089249678E+01  0.00000000000E+00 0.  1.
</event>
<event>
 8    1  0.2502398E-006  0.9118800E+02  0.7816164E-02  0.1184000E+00
        -11   -1    0    0    0    0  0.00000000000E+00  0.00000000000E+00  0.45593999997E+02  0.45594000000E+02  0.51100000000E-03 0. -1.
         11   -1    0    0    0    0 -0.00000000000E+00 -0.00000000000E+00 -0.45593999997E+02  0.45594000000E+02  0.51100000000E-03 0.  1.
         23    2    1    2    0    0  0.00000000000E+00 -0.88817841970E-15  0.00000000000E+00  0.91188000000E+02  0.91188000000E+02 0.  0.
    9900012    2    3    3    0    0 -0.92115846419E+01 -0.55443318770E+01 -0.35216289571E+02  0.54367082593E+02  0.39999996386E+02 0.  0.
         12    1    3    3    0    0  0.92115846419E+01  0.55443318770E+01  0.35216289571E+02  0.36820917407E+02  0.00000000000E+00 0. -1.
         11    1    4    4    0    0  0.85606564204E+01 -0.10145944639E+02 -0.66120344764E+01  0.14830510144E+02  0.51100000000E-03 0. -1.
        -11    1    4    4    0    0  0.20634336341E+01 -0.27764654984E+01  0.55829354074E+00  0.35040278203E+01  0.51100000000E-03 0.  1.
        -12    1    4    4    0    0 -0.19835674696E+02  0.73780782601E+01 -0.29162548635E+02  0.36032544628E+02  0.00000000000E+00 0.  1.
</event>
<event>
 8    1  0.2502398E-006  0.9118800E+02  0.7816164E-02  0.1184000E+00
        -11   -1    0    0    0    0  0.00000000000E+00  0.00000000000E+00  0.45593999997E+02  0.45594000000E+02  0.51100000000E-03 0.  1.
         11   -1    0    0    0    0 -0.00000000000E+00 -0.00000000000E+00 -0.45593999997E+02  0.45594000000E+02  0.51100000000E-03 0. -1.
         23    2    1    2    0    0 -0.17763568394E-14  0.22204460493E-14  0.14210854715E-13  0.91188000000E+02  0.91188000000E+02 0.  0.
    9900012    2    3    3    0    0  0.12312250850E+02 -0.34734538793E+01 -0.34527118902E+02  0.54367104539E+02  0.40000046418E+02 0.  0.
        -12    1    3    3    0    0 -0.12312250850E+02  0.34734538793E+01  0.34527118902E+02  0.36820895461E+02  0.00000000000E+00 0.  1.
         11    1    4    4    0    0 -0.61189791521E+01 -0.57556960213E+01 -0.21568251211E+02  0.23146477121E+02  0.51100000000E-03 0. -1.
        -11    1    4    4    0    0  0.91355228552E+01  0.34301421945E+01  0.50010231747E+01  0.10965121357E+02  0.51100000000E-03 0.  1.
        -12    1    4    4    0    0  0.92957071473E+01 -0.11479000525E+01 -0.17959890866E+02  0.20255506062E+02  0.00000000000E+00 0.  1.
</event>
<event>
 8    1  0.2502398E-006  0.9118800E+02  0.7816164E-02  0.1184000E+00
        -11   -1    0    0    0    0  0.00000000000E+00  0.00000000000E+00  0.45593999997E+02  0.45594000000E+02  0.51100000000E-03 0. -1.
         11   -1    0    0    0    0 -0.00000000000E+00 -0.00000000000E+00 -0.45593999997E+02  0.45594000000E+02  0.51100000000E-03 0.  1.
         23    2    1    2    0    0  0.12212453271E-14 -0.26645352591E-14  0.00000000000E+00  0.91188000000E+02  0.91188000000E+02 0.  0.
    9900012    2    3    3    0    0 -0.72291449659E+00  0.31207523686E+01  0.36681297367E+02  0.54367091847E+02  0.40000017483E+02 0.  0.
        -12    1    3    3    0    0  0.72291449659E+00 -0.31207523686E+01 -0.36681297367E+02  0.36820908153E+02  0.00000000000E+00 0.  1.
         11    1    4    4    0    0 -0.26703689844E+01  0.81782005768E+01  0.90783625787E+00  0.86508960299E+01  0.51100000000E-03 0. -1.
        -11    1    4    4    0    0  0.42724678774E+01 -0.16236042803E+02  0.18216067704E+02  0.24772730785E+02  0.51100000000E-03 0.  1.
        -12    1    4    4    0    0 -0.23250133896E+01  0.11178594595E+02  0.17557393405E+02  0.20943465032E+02  0.00000000000E+00 0.  1.
</event>
<event>
 8    1  0.2502398E-006  0.9118800E+02  0.7816164E-02  0.1184000E+00
        -11   -1    0    0    0    0  0.00000000000E+00  0.00000000000E+00  0.45593999997E+02  0.45594000000E+02  0.51100000000E-03 0.  1.
         11   -1    0    0    0    0 -0.00000000000E+00 -0.00000000000E+00 -0.45593999997E+02  0.45594000000E+02  0.51100000000E-03 0. -1.
         23    2    1    2    0    0  0.00000000000E+00  0.00000000000E+00 -0.71054273576E-14  0.91188000000E+02  0.91188000000E+02 0.  0.
    9900012    2    3    3    0    0 -0.12082684330E+02 -0.68228191336E+01  0.34106240314E+02  0.54367112587E+02  0.40000064764E+02 0.  0.
         12    1    3    3    0    0  0.12082684330E+02  0.68228191336E+01 -0.34106240314E+02  0.36820887413E+02  0.00000000000E+00 0. -1.
         11    1    4    4    0    0 -0.10991370354E+02 -0.16198732754E+02  0.22070917189E+01  0.19699756831E+02  0.51100000000E-03 0. -1.
        -11    1    4    4    0    0 -0.10881044140E+01 -0.94363489465E+00  0.13460667492E+02  0.13537503005E+02  0.51100000000E-03 0.  1.
         12    1    4    4    0    0 -0.32095623096E-02  0.10319548515E+02  0.18438481103E+02  0.21129852750E+02  0.00000000000E+00 0. -1.
</event>
<event>
 8    1  0.2502398E-006  0.9118800E+02  0.7816164E-02  0.1184000E+00
        -11   -1    0    0    0    0  0.00000000000E+00  0.00000000000E+00  0.45593999997E+02  0.45594000000E+02  0.51100000000E-03 0.  1.
         11   -1    0    0    0    0 -0.00000000000E+00 -0.00000000000E+00 -0.45593999997E+02  0.45594000000E+02  0.51100000000E-03 0. -1.
         23    2    1    2    0    0  0.00000000000E+00  0.44408920985E-15  0.88817841970E-15  0.91188000000E+02  0.91188000000E+02 0.  0.
    9900012    2    3    3    0    0  0.36094785713E+02  0.15936443086E+01 -0.70997693357E+01  0.54367082270E+02  0.39999995652E+02 0.  0.
        -12    1    3    3    0    0 -0.36094785713E+02 -0.15936443086E+01  0.70997693357E+01  0.36820917730E+02  0.00000000000E+00 0.  1.
         11    1    4    4    0    0  0.15903876743E+02 -0.54527550800E+01  0.10710232429E+02  0.19934264782E+02  0.51100000000E-03 0. -1.
        -11    1    4    4    0    0  0.13246185589E+02 -0.46512913874E+01 -0.30628117813E+01  0.14369299234E+02  0.51100000000E-03 0.  1.
         12    1    4    4    0    0  0.69447233806E+01  0.11697690776E+02 -0.14747189984E+02  0.20063518254E+02  0.00000000000E+00 0. -1.
</event>
<event>
 8    1  0.2502398E-006  0.9118800E+02  0.7816164E-02  0.1184000E+00
        -11   -1    0    0    0    0  0.00000000000E+00  0.00000000000E+00  0.45593999997E+02  0.45594000000E+02  0.51100000000E-03 0.  1.
         11   -1    0    0    0    0 -0.00000000000E+00 -0.00000000000E+00 -0.45593999997E+02  0.45594000000E+02  0.51100000000E-03 0. -1.
         23    2    1    2    0    0  0.71054273576E-14 -0.35527136788E-14  0.00000000000E+00  0.91188000000E+02  0.91188000000E+02 0.  0.
    9900012    2    3    3    0    0  0.22123515892E+02 -0.22937697946E+02  0.18444318672E+02  0.54367070711E+02  0.39999969299E+02 0.  0.
         12    1    3    3    0    0 -0.22123515892E+02  0.22937697946E+02 -0.18444318672E+02  0.36820929289E+02  0.00000000000E+00 0. -1.
         11    1    4    4    0    0  0.31128295414E+02 -0.69414629396E+01  0.11220148602E+02  0.33808969491E+02  0.51100000000E-03 0.  1.
        -11    1    4    4    0    0 -0.75660347110E+01 -0.77281714627E+01  0.34133684720E+01  0.11341102239E+02  0.51100000000E-03 0. -1.
        -12    1    4    4    0    0 -0.14387448118E+01 -0.82680635434E+01  0.38108015977E+01  0.92169989806E+01  0.00000000000E+00 0.  1.
</event>
<event>
 8    1  0.2502398E-006  0.9118800E+02  0.7816164E-02  0.1184000E+00
        -11   -1    0    0    0    0  0.00000000000E+00  0.00000000000E+00  0.45593999997E+02  0.45594000000E+02  0.51100000000E-03 0.  1.
         11   -1    0    0    0    0 -0.00000000000E+00 -0.00000000000E+00 -0.45593999997E+02  0.45594000000E+02  0.51100000000E-03 0. -1.
         23    2    1    2    0    0  0.17763568394E-14  0.00000000000E+00 -0.88817841970E-15  0.91188000000E+02  0.91188000000E+02 0.  0.
    9900012    2    3    3    0    0 -0.81301072375E+01  0.35656515134E+02 -0.42771905400E+01  0.54367081026E+02  0.39999992814E+02 0.  0.
        -12    1    3    3    0    0  0.81301072375E+01 -0.35656515134E+02  0.42771905400E+01  0.36820918974E+02  0.00000000000E+00 0.  1.
         11    1    4    4    0    0 -0.49086126551E+01  0.70441784039E+01  0.87182319379E+01  0.12236114415E+02  0.51100000000E-03 0. -1.
        -11    1    4    4    0    0  0.63529699167E+01  0.28358907033E+02 -0.46581307055E+01  0.29432737161E+02  0.51100000000E-03 0.  1.
        -12    1    4    4    0    0 -0.95744644992E+01  0.25342969679E+00 -0.83372917724E+01  0.12698229450E+02  0.00000000000E+00 0.  1.
</event>
<event>
 8    1  0.2502398E-006  0.9118800E+02  0.7816164E-02  0.1184000E+00
        -11   -1    0    0    0    0  0.00000000000E+00  0.00000000000E+00  0.45593999997E+02  0.45594000000E+02  0.51100000000E-03 0. -1.
         11   -1    0    0    0    0 -0.00000000000E+00 -0.00000000000E+00 -0.45593999997E+02  0.45594000000E+02  0.51100000000E-03 0.  1.
         23    2    1    2    0    0  0.00000000000E+00  0.00000000000E+00  0.17763568394E-14  0.91188000000E+02  0.91188000000E+02 0.  0.
    9900012    2    3    3    0    0 -0.20486163071E+02  0.29973715222E+02 -0.61375145109E+01  0.54367142243E+02  0.40000132371E+02 0.  0.
         12    1    3    3    0    0  0.20486163071E+02 -0.29973715222E+02  0.61375145109E+01  0.36820857757E+02  0.00000000000E+00 0. -1.
         11    1    4    4    0    0  0.14071616324E+01 -0.21115529193E+01  0.50898144058E+01  0.56872638885E+01  0.51100000000E-03 0. -1.
        -11    1    4    4    0    0  0.22156274760E+01  0.17431514909E+02  0.16851376986E+01  0.17652376794E+02  0.51100000000E-03 0.  1.
        -12    1    4    4    0    0 -0.24108952180E+02  0.14653753232E+02 -0.12912466615E+02  0.31027501560E+02  0.00000000000E+00 0.  1.
</event>
<event>
 8    1  0.2502398E-006  0.9118800E+02  0.7816164E-02  0.1184000E+00
        -11   -1    0    0    0    0  0.00000000000E+00  0.00000000000E+00  0.45593999997E+02  0.45594000000E+02  0.51100000000E-03 0.  1.
         11   -1    0    0    0    0 -0.00000000000E+00 -0.00000000000E+00 -0.45593999997E+02  0.45594000000E+02  0.51100000000E-03 0. -1.
         23    2    1    2    0    0 -0.88817841970E-15  0.00000000000E+00  0.00000000000E+00  0.91188000000E+02  0.91188000000E+02 0.  0.
    9900012    2    3    3    0    0  0.62053610274E+01  0.35672939689E+02 -0.66869143006E+01  0.54367082651E+02  0.39999996521E+02 0.  0.
        -12    1    3    3    0    0 -0.62053610274E+01 -0.35672939689E+02  0.66869143006E+01  0.36820917349E+02  0.00000000000E+00 0.  1.
         11    1    4    4    0    0  0.98959900912E+00  0.15276165635E+02 -0.42871747579E+01  0.15897182466E+02  0.51100000000E-03 0. -1.
        -11    1    4    4    0    0 -0.25913872303E+01  0.23260731079E+02  0.83761857866E+01  0.24858346419E+02  0.51100000000E-03 0.  1.
         12    1    4    4    0    0  0.78071492485E+01 -0.28639570246E+01 -0.10775925329E+02  0.13611553766E+02  0.00000000000E+00 0. -1.
</event>
<event>
 8    1  0.2502398E-006  0.9118800E+02  0.7816164E-02  0.1184000E+00
        -11   -1    0    0    0    0  0.00000000000E+00  0.00000000000E+00  0.45593999997E+02  0.45594000000E+02  0.51100000000E-03 0.  1.
         11   -1    0    0    0    0 -0.00000000000E+00 -0.00000000000E+00 -0.45593999997E+02  0.45594000000E+02  0.51100000000E-03 0. -1.
         23    2    1    2    0    0  0.17763568394E-14 -0.35527136788E-14 -0.35527136788E-14  0.91188000000E+02  0.91188000000E+02 0.  0.
    9900012    2    3    3    0    0  0.70787278685E+01 -0.21128411154E+02 -0.29313158044E+02  0.54367090443E+02  0.40000014282E+02 0.  0.
        -12    1    3    3    0    0 -0.70787278685E+01  0.21128411154E+02  0.29313158044E+02  0.36820909557E+02  0.00000000000E+00 0.  1.
         11    1    4    4    0    0 -0.14605934842E+02 -0.78575896607E+01 -0.16378131591E+02  0.23309187942E+02  0.51100000000E-03 0. -1.
        -11    1    4    4    0    0  0.71369713456E+01  0.16822139394E+01 -0.26348962413E+01  0.77915904788E+01  0.51100000000E-03 0.  1.
         12    1    4    4    0    0  0.14547691365E+02 -0.14953035433E+02 -0.10300130212E+02  0.23266312021E+02  0.00000000000E+00 0. -1.
</event>
<event>
 8    1  0.2502398E-006  0.9118800E+02  0.7816164E-02  0.1184000E+00
        -11   -1    0    0    0    0  0.00000000000E+00  0.00000000000E+00  0.45593999997E+02  0.45594000000E+02  0.51100000000E-03 0.  1.
         11   -1    0    0    0    0 -0.00000000000E+00 -0.00000000000E+00 -0.45593999997E+02  0.45594000000E+02  0.51100000000E-03 0. -1.
         23    2    1    2    0    0  0.00000000000E+00  0.00000000000E+00  0.17763568394E-14  0.91188000000E+02  0.91188000000E+02 0.  0.
    9900012    2    3    3    0    0  0.25895595540E+02 -0.23449325897E+02 -0.11632982052E+02  0.54367095274E+02  0.40000025297E+02 0.  0.
         12    1    3    3    0    0 -0.25895595540E+02  0.23449325897E+02  0.11632982052E+02  0.36820904726E+02  0.00000000000E+00 0. -1.
         11    1    4    4    0    0  0.13472638112E+02 -0.15460357163E+02 -0.13412660274E+02  0.24503756389E+02  0.51100000000E-03 0. -1.
        -11    1    4    4    0    0 -0.39326618035E+00 -0.14810156134E+02  0.35574358156E+01  0.15236493456E+02  0.51100000000E-03 0.  1.
         12    1    4    4    0    0  0.12816223609E+02  0.68211874002E+01 -0.17777575940E+01  0.14626845429E+02  0.00000000000E+00 0. -1.
</event>
<event>
 8    1  0.2502398E-006  0.9118800E+02  0.7816164E-02  0.1184000E+00
        -11   -1    0    0    0    0  0.00000000000E+00  0.00000000000E+00  0.45593999997E+02  0.45594000000E+02  0.51100000000E-03 0.  1.
         11   -1    0    0    0    0 -0.00000000000E+00 -0.00000000000E+00 -0.45593999997E+02  0.45594000000E+02  0.51100000000E-03 0. -1.
         23    2    1    2    0    0  0.00000000000E+00 -0.88817841970E-15  0.55511151231E-15  0.91188000000E+02  0.91188000000E+02 0.  0.
    9900012    2    3    3    0    0  0.36330819586E+02 -0.59583109674E+01  0.59084450562E+00  0.54367095358E+02  0.40000025488E+02 0.  0.
         12    1    3    3    0    0 -0.36330819586E+02  0.59583109674E+01 -0.59084450562E+00  0.36820904642E+02  0.00000000000E+00 0. -1.
         11    1    4    4    0    0  0.57830896202E+01 -0.11159946232E+02 -0.35035577272E+01  0.13048503457E+02  0.51100000000E-03 0. -1.
        -11    1    4    4    0    0  0.91172018562E+01 -0.10943438194E+02  0.22886436369E+01  0.14426368190E+02  0.51100000000E-03 0.  1.
         12    1    4    4    0    0  0.21430528110E+02  0.16145073458E+02  0.18057585959E+01  0.26892223712E+02  0.00000000000E+00 0. -1.
</event>
<event>
 8    1  0.2502398E-006  0.9118800E+02  0.7816164E-02  0.1184000E+00
        -11   -1    0    0    0    0  0.00000000000E+00  0.00000000000E+00  0.45593999997E+02  0.45594000000E+02  0.51100000000E-03 0. -1.
         11   -1    0    0    0    0 -0.00000000000E+00 -0.00000000000E+00 -0.45593999997E+02  0.45594000000E+02  0.51100000000E-03 0.  1.
         23    2    1    2    0    0  0.00000000000E+00  0.00000000000E+00  0.00000000000E+00  0.91188000000E+02  0.91188000000E+02 0.  0.
    9900012    2    3    3    0    0 -0.57341854769E+01  0.33311693576E+02  0.14602379866E+02  0.54367091405E+02  0.40000016477E+02 0.  0.
         12    1    3    3    0    0  0.57341854769E+01 -0.33311693576E+02 -0.14602379866E+02  0.36820908595E+02  0.00000000000E+00 0. -1.
         11    1    4    4    0    0  0.13352105947E+02  0.36923857676E+01  0.38835773248E+01  0.14387307565E+02  0.51100000000E-03 0.  1.
        -11    1    4    4    0    0 -0.36957317316E+01  0.46636172816E+01  0.87661341678E+01  0.10594945384E+02  0.51100000000E-03 0. -1.
        -12    1    4    4    0    0 -0.15390559692E+02  0.24955690527E+02  0.19526683732E+01  0.29384838456E+02  0.00000000000E+00 0.  1.
</event>
<event>
 8    1  0.2502398E-006  0.9118800E+02  0.7816164E-02  0.1184000E+00
        -11   -1    0    0    0    0  0.00000000000E+00  0.00000000000E+00  0.45593999997E+02  0.45594000000E+02  0.51100000000E-03 0.  1.
         11   -1    0    0    0    0 -0.00000000000E+00 -0.00000000000E+00 -0.45593999997E+02  0.45594000000E+02  0.51100000000E-03 0. -1.
         23    2    1    2    0    0  0.35527136788E-14  0.00000000000E+00  0.00000000000E+00  0.91188000000E+02  0.91188000000E+02 0.  0.
    9900012    2    3    3    0    0 -0.20454649266E+02  0.24931855898E+02  0.17770450422E+02  0.54367095295E+02  0.40000025343E+02 0.  0.
         12    1    3    3    0    0  0.20454649266E+02 -0.24931855898E+02 -0.17770450422E+02  0.36820904705E+02  0.00000000000E+00 0. -1.
         11    1    4    4    0    0  0.52297434463E+01 -0.41974186123E+01  0.12698344254E+02  0.14360239781E+02  0.51100000000E-03 0. -1.
        -11    1    4    4    0    0 -0.22526147621E+02  0.26701903424E+02  0.69241041006E+01  0.35614072934E+02  0.51100000000E-03 0.  1.
         12    1    4    4    0    0 -0.31582450916E+01  0.24273710866E+01 -0.18519979322E+01  0.43927825796E+01  0.00000000000E+00 0. -1.
</event>
<event>
 8    1  0.2502398E-006  0.9118800E+02  0.7816164E-02  0.1184000E+00
        -11   -1    0    0    0    0  0.00000000000E+00  0.00000000000E+00  0.45593999997E+02  0.45594000000E+02  0.51100000000E-03 0.  1.
         11   -1    0    0    0    0 -0.00000000000E+00 -0.00000000000E+00 -0.45593999997E+02  0.45594000000E+02  0.51100000000E-03 0. -1.
         23    2    1    2    0    0  0.00000000000E+00  0.35527136788E-14 -0.17763568394E-14  0.91188000000E+02  0.91188000000E+02 0.  0.
    9900012    2    3    3    0    0 -0.26336534424E+02 -0.20573656725E+02  0.15456101533E+02  0.54367089214E+02  0.40000011482E+02 0.  0.
         12    1    3    3    0    0  0.26336534424E+02  0.20573656725E+02 -0.15456101533E+02  0.36820910786E+02  0.00000000000E+00 0. -1.
         11    1    4    4    0    0  0.24887642308E+01  0.91076913526E+01 -0.40437917288E+00  0.94502651787E+01  0.51100000000E-03 0. -1.
        -11    1    4    4    0    0 -0.28843483028E+01 -0.96042839943E+00 -0.12752644191E+00  0.30427210021E+01  0.51100000000E-03 0.  1.
        -12    1    4    4    0    0 -0.25940950352E+02 -0.28720919678E+02  0.15988007148E+02  0.41874103034E+02  0.00000000000E+00 0.  1.
</event>
<event>
 8    1  0.2502398E-006  0.9118800E+02  0.7816164E-02  0.1184000E+00
        -11   -1    0    0    0    0  0.00000000000E+00  0.00000000000E+00  0.45593999997E+02  0.45594000000E+02  0.51100000000E-03 0.  1.
         11   -1    0    0    0    0 -0.00000000000E+00 -0.00000000000E+00 -0.45593999997E+02  0.45594000000E+02  0.51100000000E-03 0. -1.
         23    2    1    2    0    0  0.00000000000E+00 -0.17763568394E-14  0.00000000000E+00  0.91188000000E+02  0.91188000000E+02 0.  0.
    9900012    2    3    3    0    0  0.16895037348E+02  0.13820012040E+02 -0.29653749492E+02  0.54367083680E+02  0.39999998864E+02 0.  0.
        -12    1    3    3    0    0 -0.16895037348E+02 -0.13820012040E+02  0.29653749492E+02  0.36820916320E+02  0.00000000000E+00 0.  1.
         11    1    4    4    0    0  0.15214120101E+02  0.21763970298E+02 -0.18036282863E+02  0.32100581823E+02  0.51100000000E-03 0. -1.
        -11    1    4    4    0    0 -0.31479713540E+01 -0.10110735085E+02 -0.13028175104E+02  0.16788985509E+02  0.51100000000E-03 0.  1.
         12    1    4    4    0    0  0.48288886010E+01  0.21667768275E+01  0.14107084754E+01  0.54775163481E+01  0.00000000000E+00 0. -1.
</event>
<event>
 8    1  0.2502398E-006  0.9118800E+02  0.7816164E-02  0.1184000E+00
        -11   -1    0    0    0    0  0.00000000000E+00  0.00000000000E+00  0.45593999997E+02  0.45594000000E+02  0.51100000000E-03 0. -1.
         11   -1    0    0    0    0 -0.00000000000E+00 -0.00000000000E+00 -0.45593999997E+02  0.45594000000E+02  0.51100000000E-03 0.  1.
         23    2    1    2    0    0  0.00000000000E+00  0.11102230246E-14  0.00000000000E+00  0.91188000000E+02  0.91188000000E+02 0.  0.
    9900012    2    3    3    0    0 -0.33534996768E+02 -0.19882928371E+01 -0.15074192014E+02  0.54367074136E+02  0.39999977107E+02 0.  0.
         12    1    3    3    0    0  0.33534996768E+02  0.19882928371E+01  0.15074192014E+02  0.36820925864E+02  0.00000000000E+00 0. -1.
         11    1    4    4    0    0 -0.49556787356E+00 -0.47259996207E+01  0.75038765992E+00  0.48107943038E+01  0.51100000000E-03 0. -1.
        -11    1    4    4    0    0 -0.18699987116E+02 -0.11455166059E+02 -0.19143011721E+02  0.29109538739E+02  0.51100000000E-03 0.  1.
        -12    1    4    4    0    0 -0.14339441778E+02  0.14192872843E+02  0.33184320473E+01  0.20446741093E+02  0.00000000000E+00 0.  1.
</event>
<event>
 8    1  0.2502398E-006  0.9118800E+02  0.7816164E-02  0.1184000E+00
        -11   -1    0    0    0    0  0.00000000000E+00  0.00000000000E+00  0.45593999997E+02  0.45594000000E+02  0.51100000000E-03 0. -1.
         11   -1    0    0    0    0 -0.00000000000E+00 -0.00000000000E+00 -0.45593999997E+02  0.45594000000E+02  0.51100000000E-03 0.  1.
         23    2    1    2    0    0 -0.35527136788E-14 -0.88817841970E-15  0.00000000000E+00  0.91188000000E+02  0.91188000000E+02 0.  0.
    9900012    2    3    3    0    0 -0.16813563663E+02  0.68350083924E+01 -0.32036875284E+02  0.54367154807E+02  0.40000161012E+02 0.  0.
         12    1    3    3    0    0  0.16813563663E+02 -0.68350083924E+01  0.32036875284E+02  0.36820845193E+02  0.00000000000E+00 0. -1.
         11    1    4    4    0    0 -0.87123316881E+01  0.13539708952E+02 -0.74314278087E+01  0.17732866702E+02  0.51100000000E-03 0. -1.
        -11    1    4    4    0    0 -0.11050255598E+02 -0.94775382184E+01 -0.27864006528E+02  0.31437791582E+02  0.51100000000E-03 0.  1.
         12    1    4    4    0    0  0.29490236231E+01  0.27728376589E+01  0.32585590525E+01  0.51964965227E+01  0.00000000000E+00 0. -1.
</event>
<event>
 8    1  0.2502398E-006  0.9118800E+02  0.7816164E-02  0.1184000E+00
        -11   -1    0    0    0    0  0.00000000000E+00  0.00000000000E+00  0.45593999997E+02  0.45594000000E+02  0.51100000000E-03 0. -1.
         11   -1    0    0    0    0 -0.00000000000E+00 -0.00000000000E+00 -0.45593999997E+02  0.45594000000E+02  0.51100000000E-03 0.  1.
         23    2    1    2    0    0 -0.35527136788E-14  0.00000000000E+00  0.35527136788E-14  0.91188000000E+02  0.91188000000E+02 0.  0.
    9900012    2    3    3    0    0 -0.21207420334E+02 -0.23817602612E+02  0.18405076929E+02  0.54367085723E+02  0.40000003523E+02 0.  0.
        -12    1    3    3    0    0  0.21207420334E+02  0.23817602612E+02 -0.18405076929E+02  0.36820914277E+02  0.00000000000E+00 0.  1.
         11    1    4    4    0    0 -0.16072786463E+02 -0.29672300336E+02  0.19678920946E+02  0.39064559409E+02  0.51100000000E-03 0. -1.
        -11    1    4    4    0    0 -0.79215335133E+01  0.33536525079E+01  0.34554441087E+01  0.92702628116E+01  0.51100000000E-03 0.  1.
         12    1    4    4    0    0  0.27868996419E+01  0.25010452164E+01 -0.47292881260E+01  0.60322635028E+01  0.00000000000E+00 0. -1.
</event>
<event>
 8    1  0.2502398E-006  0.9118800E+02  0.7816164E-02  0.1184000E+00
        -11   -1    0    0    0    0  0.00000000000E+00  0.00000000000E+00  0.45593999997E+02  0.45594000000E+02  0.51100000000E-03 0.  1.
         11   -1    0    0    0    0 -0.00000000000E+00 -0.00000000000E+00 -0.45593999997E+02  0.45594000000E+02  0.51100000000E-03 0. -1.
         23    2    1    2    0    0  0.00000000000E+00  0.00000000000E+00 -0.88817841970E-15  0.91188000000E+02  0.91188000000E+02 0.  0.
    9900012    2    3    3    0    0  0.32157118272E+02  0.16088916725E+02 -0.79277213178E+01  0.54367051313E+02  0.39999925078E+02 0.  0.
         12    1    3    3    0    0 -0.32157118272E+02 -0.16088916725E+02  0.79277213178E+01  0.36820948687E+02  0.00000000000E+00 0. -1.
         11    1    4    4    0    0  0.26122861667E+02  0.13749635823E+02 -0.14517572331E+02  0.32897056002E+02  0.51100000000E-03 0. -1.
        -11    1    4    4    0    0  0.10707304306E+02  0.57560317380E+01  0.90750272781E+01  0.15170180857E+02  0.51100000000E-03 0.  1.
         12    1    4    4    0    0 -0.46730477005E+01 -0.34167508366E+01 -0.24851762651E+01  0.62998144543E+01  0.00000000000E+00 0. -1.
</event>
<event>
 8    1  0.2502398E-006  0.9118800E+02  0.7816164E-02  0.1184000E+00
        -11   -1    0    0    0    0  0.00000000000E+00  0.00000000000E+00  0.45593999997E+02  0.45594000000E+02  0.51100000000E-03 0.  1.
         11   -1    0    0    0    0 -0.00000000000E+00 -0.00000000000E+00 -0.45593999997E+02  0.45594000000E+02  0.51100000000E-03 0. -1.
         23    2    1    2    0    0  0.18041124150E-14  0.00000000000E+00 -0.71054273576E-14  0.91188000000E+02  0.91188000000E+02 0.  0.
    9900012    2    3    3    0    0  0.19141713316E+00 -0.16834898463E+02  0.32746438115E+02  0.54367086703E+02  0.40000005757E+02 0.  0.
         12    1    3    3    0    0 -0.19141713316E+00  0.16834898463E+02 -0.32746438115E+02  0.36820913297E+02  0.00000000000E+00 0. -1.
         11    1    4    4    0    0 -0.12579647681E+02 -0.16841422880E+02  0.12549796450E+02  0.24482206837E+02  0.51100000000E-03 0. -1.
        -11    1    4    4    0    0 -0.42611605033E+01  0.19083229128E+01  0.27014653249E+01  0.53941728131E+01  0.51100000000E-03 0.  1.
        -12    1    4    4    0    0  0.17032225318E+02 -0.19017984957E+01  0.17495176340E+02  0.24490707053E+02  0.00000000000E+00 0.  1.
</event>
<event>
 8    1  0.2502398E-006  0.9118800E+02  0.7816164E-02  0.1184000E+00
        -11   -1    0    0    0    0  0.00000000000E+00  0.00000000000E+00  0.45593999997E+02  0.45594000000E+02  0.51100000000E-03 0.  1.
         11   -1    0    0    0    0 -0.00000000000E+00 -0.00000000000E+00 -0.45593999997E+02  0.45594000000E+02  0.51100000000E-03 0. -1.
         23    2    1    2    0    0 -0.35527136788E-14  0.00000000000E+00  0.00000000000E+00  0.91188000000E+02  0.91188000000E+02 0.  0.
    9900012    2    3    3    0    0  0.27075108734E+02 -0.23870371098E+02  0.72747917423E+01  0.54367099357E+02  0.40000034603E+02 0.  0.
         12    1    3    3    0    0 -0.27075108734E+02  0.23870371098E+02 -0.72747917423E+01  0.36820900643E+02  0.00000000000E+00 0. -1.
         11    1    4    4    0    0 -0.86446395117E+01 -0.68145246328E+01 -0.29398362669E+01  0.11393426868E+02  0.51100000000E-03 0. -1.
        -11    1    4    4    0    0  0.15176096661E+02 -0.14317734780E+02  0.69598462373E+01  0.21994337885E+02  0.51100000000E-03 0.  1.
        -12    1    4    4    0    0  0.20543651585E+02 -0.27381116849E+01  0.32547817720E+01  0.20979334604E+02  0.00000000000E+00 0.  1.
</event>
<event>
 8    1  0.2502398E-006  0.9118800E+02  0.7816164E-02  0.1184000E+00
        -11   -1    0    0    0    0  0.00000000000E+00  0.00000000000E+00  0.45593999997E+02  0.45594000000E+02  0.51100000000E-03 0.  1.
         11   -1    0    0    0    0 -0.00000000000E+00 -0.00000000000E+00 -0.45593999997E+02  0.45594000000E+02  0.51100000000E-03 0. -1.
         23    2    1    2    0    0  0.00000000000E+00 -0.35527136788E-14  0.00000000000E+00  0.91188000000E+02  0.91188000000E+02 0.  0.
    9900012    2    3    3    0    0  0.87505339109E+01 -0.25135194617E+02  0.25444653327E+02  0.54367078840E+02  0.39999987832E+02 0.  0.
         12    1    3    3    0    0 -0.87505339109E+01  0.25135194617E+02 -0.25444653327E+02  0.36820921160E+02  0.00000000000E+00 0. -1.
         11    1    4    4    0    0  0.22369348165E+01  0.46747770427E+01  0.34716940091E+01  0.62377942677E+01  0.51100000000E-03 0. -1.
        -11    1    4    4    0    0  0.16944598801E+02 -0.83302924368E+01  0.10978431529E+02  0.21841226149E+02  0.51100000000E-03 0.  1.
        -12    1    4    4    0    0 -0.10430999706E+02 -0.21479679223E+02  0.10994527789E+02  0.26288058423E+02  0.00000000000E+00 0.  1.
</event>
<event>
 8    1  0.2502398E-006  0.9118800E+02  0.7816164E-02  0.1184000E+00
        -11   -1    0    0    0    0  0.00000000000E+00  0.00000000000E+00  0.45593999997E+02  0.45594000000E+02  0.51100000000E-03 0.  1.
         11   -1    0    0    0    0 -0.00000000000E+00 -0.00000000000E+00 -0.45593999997E+02  0.45594000000E+02  0.51100000000E-03 0. -1.
         23    2    1    2    0    0  0.35527136788E-14  0.00000000000E+00  0.00000000000E+00  0.91188000000E+02  0.91188000000E+02 0.  0.
    9900012    2    3    3    0    0  0.19944984105E+02 -0.23251263666E+02  0.20429262129E+02  0.54367103702E+02  0.40000044510E+02 0.  0.
         12    1    3    3    0    0 -0.19944984105E+02  0.23251263666E+02 -0.20429262129E+02  0.36820896298E+02  0.00000000000E+00 0. -1.
         11    1    4    4    0    0  0.12422378101E+02  0.72765084438E+01  0.67425454005E+01  0.15897325925E+02  0.51100000000E-03 0. -1.
        -11    1    4    4    0    0  0.17042577883E+01  0.24629500267E+00  0.59706719097E+01  0.62140227833E+01  0.51100000000E-03 0.  1.
        -12    1    4    4    0    0  0.58183482155E+01 -0.30774067112E+02  0.77160448193E+01  0.32255754994E+02  0.00000000000E+00 0.  1.
</event>
<event>
 8    1  0.2502398E-006  0.9118800E+02  0.7816164E-02  0.1184000E+00
        -11   -1    0    0    0    0  0.00000000000E+00  0.00000000000E+00  0.45593999997E+02  0.45594000000E+02  0.51100000000E-03 0. -1.
         11   -1    0    0    0    0 -0.00000000000E+00 -0.00000000000E+00 -0.45593999997E+02  0.45594000000E+02  0.51100000000E-03 0.  1.
         23    2    1    2    0    0  0.00000000000E+00  0.88817841970E-15 -0.17763568394E-14  0.91188000000E+02  0.91188000000E+02 0.  0.
    9900012    2    3    3    0    0  0.33109521912E+02 -0.49470814673E+01  0.15331961473E+02  0.54367039952E+02  0.39999899177E+02 0.  0.
        -12    1    3    3    0    0 -0.33109521912E+02  0.49470814673E+01 -0.15331961473E+02  0.36820960048E+02  0.00000000000E+00 0.  1.
         11    1    4    4    0    0  0.28471435583E+02  0.24362092490E+01  0.22056837196E+02  0.36097947684E+02  0.51100000000E-03 0. -1.
        -11    1    4    4    0    0  0.18402808095E+01  0.41371843874E+01  0.21276377364E+00  0.45330118904E+01  0.51100000000E-03 0.  1.
         12    1    4    4    0    0  0.27978055192E+01 -0.11520475104E+02 -0.69376394965E+01  0.13736080377E+02  0.00000000000E+00 0. -1.
</event>
<event>
 8    1  0.2502398E-006  0.9118800E+02  0.7816164E-02  0.1184000E+00
        -11   -1    0    0    0    0  0.00000000000E+00  0.00000000000E+00  0.45593999997E+02  0.45594000000E+02  0.51100000000E-03 0. -1.
         11   -1    0    0    0    0 -0.00000000000E+00 -0.00000000000E+00 -0.45593999997E+02  0.45594000000E+02  0.51100000000E-03 0.  1.
         23    2    1    2    0    0  0.11102230246E-14  0.00000000000E+00  0.35527136788E-14  0.91188000000E+02  0.91188000000E+02 0.  0.
    9900012    2    3    3    0    0  0.19015934797E+01  0.31511153339E+02  0.18952890652E+02  0.54367069721E+02  0.39999967043E+02 0.  0.
        -12    1    3    3    0    0 -0.19015934797E+01 -0.31511153339E+02 -0.18952890652E+02  0.36820930279E+02  0.00000000000E+00 0.  1.
         11    1    4    4    0    0  0.10120579770E+02  0.45654907239E+01 -0.53150608079E+01  0.12309334348E+02  0.51100000000E-03 0. -1.
        -11    1    4    4    0    0 -0.71766236923E+01  0.14566988148E+01  0.11235544319E+02  0.13411314457E+02  0.51100000000E-03 0.  1.
         12    1    4    4    0    0 -0.10423625980E+01  0.25488963801E+02  0.13032407141E+02  0.28646420916E+02  0.00000000000E+00 0. -1.
</event>
<event>
 8    1  0.2502398E-006  0.9118800E+02  0.7816164E-02  0.1184000E+00
        -11   -1    0    0    0    0  0.00000000000E+00  0.00000000000E+00  0.45593999997E+02  0.45594000000E+02  0.51100000000E-03 0.  1.
         11   -1    0    0    0    0 -0.00000000000E+00 -0.00000000000E+00 -0.45593999997E+02  0.45594000000E+02  0.51100000000E-03 0. -1.
         23    2    1    2    0    0  0.17763568394E-14  0.00000000000E+00 -0.35527136788E-14  0.91188000000E+02  0.91188000000E+02 0.  0.
    9900012    2    3    3    0    0  0.15227784255E+02  0.29863801789E+02 -0.15233120727E+02  0.54367081520E+02  0.39999993941E+02 0.  0.
        -12    1    3    3    0    0 -0.15227784255E+02 -0.29863801789E+02  0.15233120727E+02  0.36820918480E+02  0.00000000000E+00 0.  1.
         11    1    4    4    0    0  0.56004488007E+01  0.33423814247E+02 -0.17370324284E+02  0.38082076513E+02  0.51100000000E-03 0.  1.
        -11    1    4    4    0    0  0.12607357571E+02 -0.21462626010E+01  0.22478239489E+01  0.12984784205E+02  0.51100000000E-03 0. -1.
         12    1    4    4    0    0 -0.29800221165E+01 -0.14137498564E+01 -0.11062039185E+00  0.33002208021E+01  0.00000000000E+00 0. -1.
</event>
<event>
 8    1  0.2502398E-006  0.9118800E+02  0.7816164E-02  0.1184000E+00
        -11   -1    0    0    0    0  0.00000000000E+00  0.00000000000E+00  0.45593999997E+02  0.45594000000E+02  0.51100000000E-03 0. -1.
         11   -1    0    0    0    0 -0.00000000000E+00 -0.00000000000E+00 -0.45593999997E+02  0.45594000000E+02  0.51100000000E-03 0.  1.
         23    2    1    2    0    0  0.00000000000E+00 -0.88817841970E-15  0.35527136788E-14  0.91188000000E+02  0.91188000000E+02 0.  0.
    9900012    2    3    3    0    0  0.20331823137E+02  0.64338131394E+01 -0.30016742327E+02  0.54367057542E+02  0.39999939278E+02 0.  0.
         12    1    3    3    0    0 -0.20331823137E+02 -0.64338131394E+01  0.30016742327E+02  0.36820942458E+02  0.00000000000E+00 0. -1.
         11    1    4    4    0    0 -0.17185397801E+01  0.13053118124E+02 -0.11681972022E+02  0.17601299450E+02  0.51100000000E-03 0. -1.
        -11    1    4    4    0    0  0.93814247434E+01  0.75698335457E+00  0.38549108808E+01  0.10170766548E+02  0.51100000000E-03 0.  1.
        -12    1    4    4    0    0  0.12668938174E+02 -0.73762883394E+01 -0.22189681185E+02  0.26594991544E+02  0.00000000000E+00 0.  1.
</event>
<event>
 8    1  0.2502398E-006  0.9118800E+02  0.7816164E-02  0.1184000E+00
        -11   -1    0    0    0    0  0.00000000000E+00  0.00000000000E+00  0.45593999997E+02  0.45594000000E+02  0.51100000000E-03 0. -1.
         11   -1    0    0    0    0 -0.00000000000E+00 -0.00000000000E+00 -0.45593999997E+02  0.45594000000E+02  0.51100000000E-03 0.  1.
         23    2    1    2    0    0  0.00000000000E+00  0.00000000000E+00  0.00000000000E+00  0.91188000000E+02  0.91188000000E+02 0.  0.
    9900012    2    3    3    0    0  0.25447183371E+02 -0.21083270726E+02  0.16239386778E+02  0.54367066702E+02  0.39999960160E+02 0.  0.
        -12    1    3    3    0    0 -0.25447183371E+02  0.21083270726E+02 -0.16239386778E+02  0.36820933298E+02  0.00000000000E+00 0.  1.
         11    1    4    4    0    0  0.15087692046E+02  0.52913726853E+01  0.14837302228E+02  0.21812441721E+02  0.51100000000E-03 0. -1.
        -11    1    4    4    0    0  0.10665407619E+02 -0.27649480937E+02 -0.11801036408E+01  0.29658681033E+02  0.51100000000E-03 0.  1.
         12    1    4    4    0    0 -0.30591629375E+00  0.12748375254E+01  0.25821881911E+01  0.28959439479E+01  0.00000000000E+00 0. -1.
</event>
<event>
 8    1  0.2502398E-006  0.9118800E+02  0.7816164E-02  0.1184000E+00
        -11   -1    0    0    0    0  0.00000000000E+00  0.00000000000E+00  0.45593999997E+02  0.45594000000E+02  0.51100000000E-03 0. -1.
         11   -1    0    0    0    0 -0.00000000000E+00 -0.00000000000E+00 -0.45593999997E+02  0.45594000000E+02  0.51100000000E-03 0.  1.
         23    2    1    2    0    0 -0.35527136788E-14 -0.35527136788E-14  0.44408920985E-15  0.91188000000E+02  0.91188000000E+02 0.  0.
    9900012    2    3    3    0    0  0.19254367346E+02  0.31288653189E+02 -0.24635715952E+01  0.54367086577E+02  0.40000005471E+02 0.  0.
        -12    1    3    3    0    0 -0.19254367346E+02 -0.31288653189E+02  0.24635715952E+01  0.36820913423E+02  0.00000000000E+00 0.  1.
         11    1    4    4    0    0  0.85462157401E+01  0.11695921315E+02  0.48683307248E+01  0.15281787303E+02  0.51100000000E-03 0. -1.
        -11    1    4    4    0    0  0.27012158021E+01  0.16171837722E+02 -0.18632573556E+02  0.24819300951E+02  0.51100000000E-03 0.  1.
         12    1    4    4    0    0  0.80069358036E+01  0.34208941527E+01  0.11300671236E+02  0.14265998323E+02  0.00000000000E+00 0. -1.
</event>
<event>
 8    1  0.2502398E-006  0.9118800E+02  0.7816164E-02  0.1184000E+00
        -11   -1    0    0    0    0  0.00000000000E+00  0.00000000000E+00  0.45593999997E+02  0.45594000000E+02  0.51100000000E-03 0. -1.
         11   -1    0    0    0    0 -0.00000000000E+00 -0.00000000000E+00 -0.45593999997E+02  0.45594000000E+02  0.51100000000E-03 0.  1.
         23    2    1    2    0    0 -0.88817841970E-15  0.35527136788E-14  0.00000000000E+00  0.91188000000E+02  0.91188000000E+02 0.  0.
    9900012    2    3    3    0    0  0.60756147639E+01 -0.11714424971E+02  0.34374972917E+02  0.54367087325E+02  0.40000007176E+02 0.  0.
        -12    1    3    3    0    0 -0.60756147639E+01  0.11714424971E+02 -0.34374972917E+02  0.36820912675E+02  0.00000000000E+00 0.  1.
         11    1    4    4    0    0 -0.59622325913E+00 -0.19503341316E+01  0.17474751111E+02  0.17593357044E+02  0.51100000000E-03 0. -1.
        -11    1    4    4    0    0  0.12340434617E+02  0.63343765092E+01  0.13529493971E+02  0.19376735010E+02  0.51100000000E-03 0.  1.
        -12    1    4    4    0    0 -0.56685965943E+01 -0.16098467349E+02  0.33707278348E+01  0.17396995271E+02  0.00000000000E+00 0.  1.
</event>
<event>
 8    1  0.2502398E-006  0.9118800E+02  0.7816164E-02  0.1184000E+00
        -11   -1    0    0    0    0  0.00000000000E+00  0.00000000000E+00  0.45593999997E+02  0.45594000000E+02  0.51100000000E-03 0. -1.
         11   -1    0    0    0    0 -0.00000000000E+00 -0.00000000000E+00 -0.45593999997E+02  0.45594000000E+02  0.51100000000E-03 0.  1.
         23    2    1    2    0    0  0.13183898417E-14  0.88817841970E-15  0.00000000000E+00  0.91188000000E+02  0.91188000000E+02 0.  0.
    9900012    2    3    3    0    0 -0.23746473484E-01  0.72261869119E+01  0.36104881210E+02  0.54367071327E+02  0.39999970704E+02 0.  0.
        -12    1    3    3    0    0  0.23746473484E-01 -0.72261869119E+01 -0.36104881210E+02  0.36820928673E+02  0.00000000000E+00 0.  1.
         11    1    4    4    0    0  0.75951138406E+01  0.42237219237E+00 -0.23779337702E+01  0.79698633487E+01  0.51100000000E-03 0.  1.
        -11    1    4    4    0    0  0.65353749254E+01  0.64128343537E+01  0.59583381334E+01  0.10924164199E+02  0.51100000000E-03 0. -1.
         12    1    4    4    0    0 -0.14154235239E+02  0.39098036586E+00  0.32524476846E+02  0.35473043780E+02  0.00000000000E+00 0. -1.
</event>
<event>
 8    1  0.2502398E-006  0.9118800E+02  0.7816164E-02  0.1184000E+00
        -11   -1    0    0    0    0  0.00000000000E+00  0.00000000000E+00  0.45593999997E+02  0.45594000000E+02  0.51100000000E-03 0. -1.
         11   -1    0    0    0    0 -0.00000000000E+00 -0.00000000000E+00 -0.45593999997E+02  0.45594000000E+02  0.51100000000E-03 0.  1.
         23    2    1    2    0    0  0.00000000000E+00  0.00000000000E+00 -0.17763568394E-14  0.91188000000E+02  0.91188000000E+02 0.  0.
    9900012    2    3    3    0    0  0.34779429172E+02 -0.97510122808E+01 -0.71476848200E+01  0.54367077520E+02  0.39999984822E+02 0.  0.
         12    1    3    3    0    0 -0.34779429172E+02  0.97510122808E+01  0.71476848200E+01  0.36820922480E+02  0.00000000000E+00 0. -1.
         11    1    4    4    0    0  0.11999327828E+02 -0.77500802100E+00  0.13726628298E+02  0.18248419944E+02  0.51100000000E-03 0. -1.
        -11    1    4    4    0    0 -0.16096813626E+01 -0.38899411941E+01 -0.51723189226E+01  0.66690029150E+01  0.51100000000E-03 0.  1.
         12    1    4    4    0    0  0.24389782706E+02 -0.50860630657E+01 -0.15701994195E+02  0.29449654661E+02  0.00000000000E+00 0. -1.
</event>
<event>
 8    1  0.2502398E-006  0.9118800E+02  0.7816164E-02  0.1184000E+00
        -11   -1    0    0    0    0  0.00000000000E+00  0.00000000000E+00  0.45593999997E+02  0.45594000000E+02  0.51100000000E-03 0.  1.
         11   -1    0    0    0    0 -0.00000000000E+00 -0.00000000000E+00 -0.45593999997E+02  0.45594000000E+02  0.51100000000E-03 0. -1.
         23    2    1    2    0    0 -0.17763568394E-14  0.71054273576E-14  0.17763568394E-14  0.91188000000E+02  0.91188000000E+02 0.  0.
    9900012    2    3    3    0    0 -0.11704013146E+02  0.32318316915E+02  0.13203186086E+02  0.54367059562E+02  0.39999943882E+02 0.  0.
         12    1    3    3    0    0  0.11704013146E+02 -0.32318316915E+02 -0.13203186086E+02  0.36820940438E+02  0.00000000000E+00 0. -1.
         11    1    4    4    0    0  0.38660176429E+01  0.19220399354E+01  0.76865167079E+01  0.88160574686E+01  0.51100000000E-03 0. -1.
        -11    1    4    4    0    0  0.10549546788E+01  0.27912185963E+02  0.66179949797E+01  0.28705416082E+02  0.51100000000E-03 0.  1.
         12    1    4    4    0    0 -0.16624985467E+02  0.24840910166E+01 -0.11013256019E+01  0.16845586011E+02  0.00000000000E+00 0. -1.
</event>
<event>
 8    1  0.2502398E-006  0.9118800E+02  0.7816164E-02  0.1184000E+00
        -11   -1    0    0    0    0  0.00000000000E+00  0.00000000000E+00  0.45593999997E+02  0.45594000000E+02  0.51100000000E-03 0.  1.
         11   -1    0    0    0    0 -0.00000000000E+00 -0.00000000000E+00 -0.45593999997E+02  0.45594000000E+02  0.51100000000E-03 0. -1.
         23    2    1    2    0    0  0.17763568394E-14  0.00000000000E+00  0.00000000000E+00  0.91188000000E+02  0.91188000000E+02 0.  0.
    9900012    2    3    3    0    0 -0.78014704409E+01 -0.21240556965E+02 -0.29047399866E+02  0.54367141235E+02  0.40000130073E+02 0.  0.
        -12    1    3    3    0    0  0.78014704409E+01  0.21240556965E+02  0.29047399866E+02  0.36820858765E+02  0.00000000000E+00 0.  1.
         11    1    4    4    0    0 -0.59932809297E+00 -0.13142428819E+02 -0.16463997635E+00  0.13157117314E+02  0.51100000000E-03 0. -1.
        -11    1    4    4    0    0 -0.12114876931E+02  0.66244071957E+01 -0.12219090549E+02  0.18437982207E+02  0.51100000000E-03 0.  1.
         12    1    4    4    0    0  0.49127345828E+01 -0.14722535341E+02 -0.16663669341E+02  0.22772041715E+02  0.00000000000E+00 0. -1.
</event>
<event>
 8    1  0.2502398E-006  0.9118800E+02  0.7816164E-02  0.1184000E+00
        -11   -1    0    0    0    0  0.00000000000E+00  0.00000000000E+00  0.45593999997E+02  0.45594000000E+02  0.51100000000E-03 0.  1.
         11   -1    0    0    0    0 -0.00000000000E+00 -0.00000000000E+00 -0.45593999997E+02  0.45594000000E+02  0.51100000000E-03 0. -1.
         23    2    1    2    0    0  0.00000000000E+00 -0.17763568394E-14  0.00000000000E+00  0.91188000000E+02  0.91188000000E+02 0.  0.
    9900012    2    3    3    0    0  0.67388179606E+01  0.71590784690E+01 -0.35483754817E+02  0.54367341017E+02  0.40000585511E+02 0.  0.
        -12    1    3    3    0    0 -0.67388179606E+01 -0.71590784690E+01  0.35483754817E+02  0.36820658983E+02  0.00000000000E+00 0.  1.
         11    1    4    4    0    0  0.29324036480E+01 -0.16123941639E+02 -0.10289358377E+02  0.19350746270E+02  0.51100000000E-03 0. -1.
        -11    1    4    4    0    0  0.10162630115E+01  0.14795469898E+02 -0.11976509201E+02  0.19062410470E+02  0.51100000000E-03 0.  1.
         12    1    4    4    0    0  0.27901513010E+01  0.84875502108E+01 -0.13217887239E+02  0.15954184277E+02  0.00000000000E+00 0. -1.
</event>
<event>
 8    1  0.2502398E-006  0.9118800E+02  0.7816164E-02  0.1184000E+00
        -11   -1    0    0    0    0  0.00000000000E+00  0.00000000000E+00  0.45593999997E+02  0.45594000000E+02  0.51100000000E-03 0.  1.
         11   -1    0    0    0    0 -0.00000000000E+00 -0.00000000000E+00 -0.45593999997E+02  0.45594000000E+02  0.51100000000E-03 0. -1.
         23    2    1    2    0    0  0.00000000000E+00  0.00000000000E+00  0.00000000000E+00  0.91188000000E+02  0.91188000000E+02 0.  0.
    9900012    2    3    3    0    0 -0.90658800735E+01 -0.28853287626E+02 -0.21001840461E+02  0.54367086227E+02  0.40000004671E+02 0.  0.
        -12    1    3    3    0    0  0.90658800735E+01  0.28853287626E+02  0.21001840461E+02  0.36820913773E+02  0.00000000000E+00 0.  1.
         11    1    4    4    0    0 -0.55371046193E+01  0.25405805836E+01 -0.71294314644E+01  0.93777860144E+01  0.51100000000E-03 0. -1.
        -11    1    4    4    0    0 -0.13552732976E+02 -0.18958997200E+02  0.77502225878E+00  0.23317821633E+02  0.51100000000E-03 0.  1.
         12    1    4    4    0    0  0.10023957522E+02 -0.12434871009E+02 -0.14647431256E+02  0.21671478579E+02  0.00000000000E+00 0. -1.
</event>
<event>
 8    1  0.2502398E-006  0.9118800E+02  0.7816164E-02  0.1184000E+00
        -11   -1    0    0    0    0  0.00000000000E+00  0.00000000000E+00  0.45593999997E+02  0.45594000000E+02  0.51100000000E-03 0. -1.
         11   -1    0    0    0    0 -0.00000000000E+00 -0.00000000000E+00 -0.45593999997E+02  0.45594000000E+02  0.51100000000E-03 0.  1.
         23    2    1    2    0    0  0.00000000000E+00 -0.88817841970E-15  0.00000000000E+00  0.91188000000E+02  0.91188000000E+02 0.  0.
    9900012    2    3    3    0    0 -0.21282615103E+02  0.61163861832E+01 -0.29418006806E+02  0.54367095476E+02  0.40000025757E+02 0.  0.
         12    1    3    3    0    0  0.21282615103E+02 -0.61163861832E+01  0.29418006806E+02  0.36820904524E+02  0.00000000000E+00 0. -1.
         11    1    4    4    0    0  0.63611646850E+01  0.70309427997E+01 -0.91897039357E+01  0.13204136908E+02  0.51100000000E-03 0. -1.
        -11    1    4    4    0    0 -0.94046518654E+01 -0.36248540392E+01 -0.20365408709E+02  0.22723048115E+02  0.51100000000E-03 0.  1.
        -12    1    4    4    0    0 -0.18239127922E+02  0.27102974227E+01  0.13710583878E+00  0.18439910452E+02  0.00000000000E+00 0.  1.
</event>
<event>
 8    1  0.2502398E-006  0.9118800E+02  0.7816164E-02  0.1184000E+00
        -11   -1    0    0    0    0  0.00000000000E+00  0.00000000000E+00  0.45593999997E+02  0.45594000000E+02  0.51100000000E-03 0. -1.
         11   -1    0    0    0    0 -0.00000000000E+00 -0.00000000000E+00 -0.45593999997E+02  0.45594000000E+02  0.51100000000E-03 0.  1.
         23    2    1    2    0    0  0.88817841970E-15  0.00000000000E+00  0.00000000000E+00  0.91188000000E+02  0.91188000000E+02 0.  0.
    9900012    2    3    3    0    0  0.67343642376E+01 -0.32743730974E+02  0.15436176119E+02  0.54367094078E+02  0.40000022569E+02 0.  0.
        -12    1    3    3    0    0 -0.67343642376E+01  0.32743730974E+02 -0.15436176119E+02  0.36820905922E+02  0.00000000000E+00 0.  1.
         11    1    4    4    0    0  0.45788486452E+00 -0.35467103221E+02 -0.14561039256E+01  0.35499933921E+02  0.51100000000E-03 0. -1.
        -11    1    4    4    0    0  0.55460338792E+01  0.16762169159E+01  0.16565189547E+02  0.17549179466E+02  0.51100000000E-03 0.  1.
         12    1    4    4    0    0  0.73044549383E+00  0.10471553319E+01  0.32709049694E+00  0.13179806910E+01  0.00000000000E+00 0. -1.
</event>
<event>
 8    1  0.2502398E-006  0.9118800E+02  0.7816164E-02  0.1184000E+00
        -11   -1    0    0    0    0  0.00000000000E+00  0.00000000000E+00  0.45593999997E+02  0.45594000000E+02  0.51100000000E-03 0. -1.
         11   -1    0    0    0    0 -0.00000000000E+00 -0.00000000000E+00 -0.45593999997E+02  0.45594000000E+02  0.51100000000E-03 0.  1.
         23    2    1    2    0    0  0.00000000000E+00  0.00000000000E+00  0.00000000000E+00  0.91188000000E+02  0.91188000000E+02 0.  0.
    9900012    2    3    3    0    0 -0.18439450685E+02 -0.30223483637E+02 -0.10114614936E+02  0.54367112721E+02  0.40000065070E+02 0.  0.
         12    1    3    3    0    0  0.18439450685E+02  0.30223483637E+02  0.10114614936E+02  0.36820887279E+02  0.00000000000E+00 0. -1.
         11    1    4    4    0    0 -0.12660666245E+01 -0.11637987545E+02 -0.83948975941E+01  0.14405553953E+02  0.51100000000E-03 0. -1.
        -11    1    4    4    0    0 -0.24982736788E+02 -0.76647198789E+01 -0.36926273116E+01  0.26391676055E+02  0.51100000000E-03 0.  1.
        -12    1    4    4    0    0  0.78093527281E+01 -0.10920776213E+02  0.19729099702E+01  0.13569882714E+02  0.00000000000E+00 0.  1.
</event>
<event>
 8    1  0.2502398E-006  0.9118800E+02  0.7816164E-02  0.1184000E+00
        -11   -1    0    0    0    0  0.00000000000E+00  0.00000000000E+00  0.45593999997E+02  0.45594000000E+02  0.51100000000E-03 0. -1.
         11   -1    0    0    0    0 -0.00000000000E+00 -0.00000000000E+00 -0.45593999997E+02  0.45594000000E+02  0.51100000000E-03 0.  1.
         23    2    1    2    0    0  0.00000000000E+00 -0.44408920985E-15  0.00000000000E+00  0.91188000000E+02  0.91188000000E+02 0.  0.
    9900012    2    3    3    0    0 -0.13917386150E+02  0.31602434985E+01 -0.33942587519E+02  0.54367081711E+02  0.39999994375E+02 0.  0.
         12    1    3    3    0    0  0.13917386150E+02 -0.31602434985E+01  0.33942587519E+02  0.36820918289E+02  0.00000000000E+00 0. -1.
         11    1    4    4    0    0 -0.11800023436E+02 -0.61498196732E+01 -0.73326644256E+01  0.15193051140E+02  0.51100000000E-03 0. -1.
        -11    1    4    4    0    0 -0.11632903560E+02  0.28843031863E+01 -0.21819415486E+01  0.12182139356E+02  0.51100000000E-03 0.  1.
         12    1    4    4    0    0  0.95155408464E+01  0.64257599854E+01 -0.24427981545E+02  0.26991891214E+02  0.00000000000E+00 0. -1.
</event>
<event>
 8    1  0.2502398E-006  0.9118800E+02  0.7816164E-02  0.1184000E+00
        -11   -1    0    0    0    0  0.00000000000E+00  0.00000000000E+00  0.45593999997E+02  0.45594000000E+02  0.51100000000E-03 0.  1.
         11   -1    0    0    0    0 -0.00000000000E+00 -0.00000000000E+00 -0.45593999997E+02  0.45594000000E+02  0.51100000000E-03 0. -1.
         23    2    1    2    0    0  0.00000000000E+00  0.55511151231E-16 -0.17763568394E-14  0.91188000000E+02  0.91188000000E+02 0.  0.
    9900012    2    3    3    0    0  0.35875933391E+02  0.35918931931E+00  0.82806299258E+01  0.54367075981E+02  0.39999981313E+02 0.  0.
         12    1    3    3    0    0 -0.35875933391E+02 -0.35918931931E+00 -0.82806299258E+01  0.36820924019E+02  0.00000000000E+00 0. -1.
         11    1    4    4    0    0  0.70216768832E+01  0.14322190920E+01 -0.12283143159E+02  0.14220787739E+02  0.51100000000E-03 0. -1.
        -11    1    4    4    0    0  0.21071060545E+02 -0.89865836928E+01  0.16866959639E+02  0.28447189785E+02  0.51100000000E-03 0.  1.
        -12    1    4    4    0    0  0.77831959629E+01  0.79135539202E+01  0.36968134464E+01  0.11699098457E+02  0.00000000000E+00 0.  1.
</event>
<event>
 8    1  0.2502398E-006  0.9118800E+02  0.7816164E-02  0.1184000E+00
        -11   -1    0    0    0    0  0.00000000000E+00  0.00000000000E+00  0.45593999997E+02  0.45594000000E+02  0.51100000000E-03 0.  1.
         11   -1    0    0    0    0 -0.00000000000E+00 -0.00000000000E+00 -0.45593999997E+02  0.45594000000E+02  0.51100000000E-03 0. -1.
         23    2    1    2    0    0  0.44408920985E-15  0.88817841970E-15 -0.71054273576E-14  0.91188000000E+02  0.91188000000E+02 0.  0.
    9900012    2    3    3    0    0  0.35071342847E+01  0.75176255375E+01  0.35874273966E+02  0.54367106241E+02  0.40000050298E+02 0.  0.
         12    1    3    3    0    0 -0.35071342847E+01 -0.75176255375E+01 -0.35874273966E+02  0.36820893759E+02  0.00000000000E+00 0. -1.
         11    1    4    4    0    0 -0.74091654909E+01 -0.38938588610E+00  0.14741833241E+02  0.16503605734E+02  0.51100000000E-03 0. -1.
        -11    1    4    4    0    0  0.14471996598E+02 -0.59641503551E+01  0.16664604606E+02  0.22863044896E+02  0.51100000000E-03 0.  1.
         12    1    4    4    0    0 -0.35556968220E+01  0.13871161779E+02  0.44678361188E+01  0.15000455612E+02  0.00000000000E+00 0. -1.
</event>
<event>
 8    1  0.2502398E-006  0.9118800E+02  0.7816164E-02  0.1184000E+00
        -11   -1    0    0    0    0  0.00000000000E+00  0.00000000000E+00  0.45593999997E+02  0.45594000000E+02  0.51100000000E-03 0.  1.
         11   -1    0    0    0    0 -0.00000000000E+00 -0.00000000000E+00 -0.45593999997E+02  0.45594000000E+02  0.51100000000E-03 0. -1.
         23    2    1    2    0    0  0.88817841970E-15  0.00000000000E+00  0.00000000000E+00  0.91188000000E+02  0.91188000000E+02 0.  0.
    9900012    2    3    3    0    0 -0.26492212295E+01  0.36473949572E+02  0.42907752828E+01  0.54367107520E+02  0.40000053213E+02 0.  0.
         12    1    3    3    0    0  0.26492212295E+01 -0.36473949572E+02 -0.42907752828E+01  0.36820892480E+02  0.00000000000E+00 0. -1.
         11    1    4    4    0    0 -0.23118030885E+01 -0.16441843577E+01  0.31463862618E+01  0.42364516392E+01  0.51100000000E-03 0. -1.
        -11    1    4    4    0    0 -0.13637432307E+02  0.33025113970E+02  0.25423125755E+01  0.35820400139E+02  0.51100000000E-03 0.  1.
         12    1    4    4    0    0  0.13300014166E+02  0.50930199600E+01 -0.13979235544E+01  0.14310255742E+02  0.00000000000E+00 0. -1.
</event>
<event>
 8    1  0.2502398E-006  0.9118800E+02  0.7816164E-02  0.1184000E+00
        -11   -1    0    0    0    0  0.00000000000E+00  0.00000000000E+00  0.45593999997E+02  0.45594000000E+02  0.51100000000E-03 0.  1.
         11   -1    0    0    0    0 -0.00000000000E+00 -0.00000000000E+00 -0.45593999997E+02  0.45594000000E+02  0.51100000000E-03 0. -1.
         23    2    1    2    0    0  0.00000000000E+00 -0.88817841970E-15  0.35527136788E-14  0.91188000000E+02  0.91188000000E+02 0.  0.
    9900012    2    3    3    0    0  0.21408781603E+02  0.78042910992E+01 -0.28923010153E+02  0.54367035787E+02  0.39999889684E+02 0.  0.
        -12    1    3    3    0    0 -0.21408781603E+02 -0.78042910992E+01  0.28923010153E+02  0.36820964213E+02  0.00000000000E+00 0.  1.
         11    1    4    4    0    0  0.32290050459E+02  0.31225827896E+01 -0.23344364731E+02  0.39966951934E+02  0.51100000000E-03 0. -1.
        -11    1    4    4    0    0 -0.56960332099E+01 -0.54770430121E+00 -0.12480930538E+01  0.58568345428E+01  0.51100000000E-03 0.  1.
         12    1    4    4    0    0 -0.51852356469E+01  0.52294126108E+01 -0.43305523674E+01  0.85432493101E+01  0.00000000000E+00 0. -1.
</event>
<event>
 8    1  0.2502398E-006  0.9118800E+02  0.7816164E-02  0.1184000E+00
        -11   -1    0    0    0    0  0.00000000000E+00  0.00000000000E+00  0.45593999997E+02  0.45594000000E+02  0.51100000000E-03 0. -1.
         11   -1    0    0    0    0 -0.00000000000E+00 -0.00000000000E+00 -0.45593999997E+02  0.45594000000E+02  0.51100000000E-03 0.  1.
         23    2    1    2    0    0  0.00000000000E+00  0.44408920985E-15  0.00000000000E+00  0.91188000000E+02  0.91188000000E+02 0.  0.
    9900012    2    3    3    0    0  0.10586215172E+02 -0.23502271482E+01  0.35187893805E+02  0.54367090319E+02  0.40000014001E+02 0.  0.
        -12    1    3    3    0    0 -0.10586215172E+02  0.23502271482E+01 -0.35187893805E+02  0.36820909681E+02  0.00000000000E+00 0.  1.
         11    1    4    4    0    0  0.10626360097E+02 -0.34205272649E+01  0.72654642392E+01  0.13319403386E+02  0.51100000000E-03 0. -1.
        -11    1    4    4    0    0  0.81209153125E+01  0.10672572349E+02  0.39762008269E+01  0.13987967663E+02  0.51100000000E-03 0.  1.
        -12    1    4    4    0    0 -0.81610602377E+01 -0.96022722321E+01  0.23946228738E+02  0.27059719271E+02  0.00000000000E+00 0.  1.
</event>
<event>
 8    1  0.2502398E-006  0.9118800E+02  0.7816164E-02  0.1184000E+00
        -11   -1    0    0    0    0  0.00000000000E+00  0.00000000000E+00  0.45593999997E+02  0.45594000000E+02  0.51100000000E-03 0. -1.
         11   -1    0    0    0    0 -0.00000000000E+00 -0.00000000000E+00 -0.45593999997E+02  0.45594000000E+02  0.51100000000E-03 0.  1.
         23    2    1    2    0    0  0.35527136788E-14  0.12212453271E-14 -0.35527136788E-14  0.91188000000E+02  0.91188000000E+02 0.  0.
    9900012    2    3    3    0    0 -0.21266468253E+02 -0.67750626490E+00  0.30050926871E+02  0.54367083492E+02  0.39999998436E+02 0.  0.
        -12    1    3    3    0    0  0.21266468253E+02  0.67750626490E+00 -0.30050926871E+02  0.36820916508E+02  0.00000000000E+00 0.  1.
         11    1    4    4    0    0 -0.27487333724E+02 -0.98473065217E+01  0.29264968300E+02  0.41339585518E+02  0.51100000000E-03 0. -1.
        -11    1    4    4    0    0  0.39159491180E+01  0.12508463521E+01 -0.16470427979E+01  0.44285465257E+01  0.51100000000E-03 0.  1.
         12    1    4    4    0    0  0.23049163530E+01  0.79189539047E+01  0.24330013691E+01  0.85989514478E+01  0.00000000000E+00 0. -1.
</event>
<event>
 8    1  0.2502398E-006  0.9118800E+02  0.7816164E-02  0.1184000E+00
        -11   -1    0    0    0    0  0.00000000000E+00  0.00000000000E+00  0.45593999997E+02  0.45594000000E+02  0.51100000000E-03 0. -1.
         11   -1    0    0    0    0 -0.00000000000E+00 -0.00000000000E+00 -0.45593999997E+02  0.45594000000E+02  0.51100000000E-03 0.  1.
         23    2    1    2    0    0 -0.71054273576E-14 -0.44408920985E-15  0.00000000000E+00  0.91188000000E+02  0.91188000000E+02 0.  0.
    9900012    2    3    3    0    0 -0.35949606131E+02  0.37980157546E+01 -0.69986289364E+01  0.54367083232E+02  0.39999997845E+02 0.  0.
         12    1    3    3    0    0  0.35949606131E+02 -0.37980157546E+01  0.69986289364E+01  0.36820916768E+02  0.00000000000E+00 0. -1.
         11    1    4    4    0    0 -0.13536319329E+02  0.85672480655E+01  0.25861173034E+01  0.16227066382E+02  0.51100000000E-03 0. -1.
        -11    1    4    4    0    0 -0.67863120627E+01  0.66179725093E+01 -0.15281401708E+02  0.17982570171E+02  0.51100000000E-03 0.  1.
         12    1    4    4    0    0 -0.15626974739E+02 -0.11387204820E+02  0.56966554679E+01  0.20157446679E+02  0.00000000000E+00 0. -1.
</event>
<event>
 8    1  0.2502398E-006  0.9118800E+02  0.7816164E-02  0.1184000E+00
        -11   -1    0    0    0    0  0.00000000000E+00  0.00000000000E+00  0.45593999997E+02  0.45594000000E+02  0.51100000000E-03 0.  1.
         11   -1    0    0    0    0 -0.00000000000E+00 -0.00000000000E+00 -0.45593999997E+02  0.45594000000E+02  0.51100000000E-03 0. -1.
         23    2    1    2    0    0  0.00000000000E+00  0.00000000000E+00  0.00000000000E+00  0.91188000000E+02  0.91188000000E+02 0.  0.
    9900012    2    3    3    0    0 -0.19449202600E+02 -0.20564153974E+02  0.23550459706E+02  0.54367081179E+02  0.39999993164E+02 0.  0.
         12    1    3    3    0    0  0.19449202600E+02  0.20564153974E+02 -0.23550459706E+02  0.36820918821E+02  0.00000000000E+00 0. -1.
         11    1    4    4    0    0 -0.83463719032E+00 -0.19128977257E+01  0.37343041979E+01  0.42779463592E+01  0.51100000000E-03 0. -1.
        -11    1    4    4    0    0 -0.11672265144E+02 -0.25472799673E+02  0.26271887140E+02  0.38409860074E+02  0.51100000000E-03 0.  1.
         12    1    4    4    0    0 -0.69423002657E+01  0.68215434248E+01 -0.64557316320E+01  0.11679274745E+02  0.00000000000E+00 0. -1.
</event>
<event>
 8    1  0.2502398E-006  0.9118800E+02  0.7816164E-02  0.1184000E+00
        -11   -1    0    0    0    0  0.00000000000E+00  0.00000000000E+00  0.45593999997E+02  0.45594000000E+02  0.51100000000E-03 0. -1.
         11   -1    0    0    0    0 -0.00000000000E+00 -0.00000000000E+00 -0.45593999997E+02  0.45594000000E+02  0.51100000000E-03 0.  1.
         23    2    1    2    0    0  0.00000000000E+00 -0.22204460493E-15  0.00000000000E+00  0.91188000000E+02  0.91188000000E+02 0.  0.
    9900012    2    3    3    0    0 -0.14022128004E+02 -0.13312245244E+01 -0.34020392627E+02  0.54367090900E+02  0.40000015324E+02 0.  0.
         12    1    3    3    0    0  0.14022128004E+02  0.13312245244E+01  0.34020392627E+02  0.36820909100E+02  0.00000000000E+00 0. -1.
         11    1    4    4    0    0  0.57197513534E+01 -0.88747869553E+00  0.17090845292E+01  0.60352418484E+01  0.51100000000E-03 0. -1.
        -11    1    4    4    0    0 -0.22822224617E+02 -0.27832948618E+01 -0.15481750445E+02  0.27717959230E+02  0.51100000000E-03 0.  1.
        -12    1    4    4    0    0  0.30803452603E+01  0.23395490330E+01 -0.20247726711E+02  0.20613889822E+02  0.00000000000E+00 0.  1.
</event>
<event>
 8    1  0.2502398E-006  0.9118800E+02  0.7816164E-02  0.1184000E+00
        -11   -1    0    0    0    0  0.00000000000E+00  0.00000000000E+00  0.45593999997E+02  0.45594000000E+02  0.51100000000E-03 0.  1.
         11   -1    0    0    0    0 -0.00000000000E+00 -0.00000000000E+00 -0.45593999997E+02  0.45594000000E+02  0.51100000000E-03 0. -1.
         23    2    1    2    0    0 -0.88817841970E-15  0.00000000000E+00  0.00000000000E+00  0.91188000000E+02  0.91188000000E+02 0.  0.
    9900012    2    3    3    0    0  0.24478829532E+01 -0.90869548136E+01  0.35597959657E+02  0.54367087322E+02  0.40000007167E+02 0.  0.
         12    1    3    3    0    0 -0.24478829532E+01  0.90869548136E+01 -0.35597959657E+02  0.36820912678E+02  0.00000000000E+00 0. -1.
         11    1    4    4    0    0 -0.35466528232E+01  0.40403710985E+01 -0.34938181430E+01  0.64117166453E+01  0.51100000000E-03 0. -1.
        -11    1    4    4    0    0  0.14572692298E+02 -0.12445171808E+02  0.27502589411E+02  0.33520711310E+02  0.51100000000E-03 0.  1.
        -12    1    4    4    0    0 -0.85781565214E+01 -0.68215410441E+00  0.11589188388E+02  0.14434659367E+02  0.00000000000E+00 0.  1.
</event>
<event>
 8    1  0.2502398E-006  0.9118800E+02  0.7816164E-02  0.1184000E+00
        -11   -1    0    0    0    0  0.00000000000E+00  0.00000000000E+00  0.45593999997E+02  0.45594000000E+02  0.51100000000E-03 0.  1.
         11   -1    0    0    0    0 -0.00000000000E+00 -0.00000000000E+00 -0.45593999997E+02  0.45594000000E+02  0.51100000000E-03 0. -1.
         23    2    1    2    0    0  0.00000000000E+00 -0.35527136788E-14  0.17763568394E-14  0.91188000000E+02  0.91188000000E+02 0.  0.
    9900012    2    3    3    0    0  0.28576133126E+02  0.23091952835E+02 -0.24385371851E+01  0.54367080215E+02  0.39999990967E+02 0.  0.
         12    1    3    3    0    0 -0.28576133126E+02 -0.23091952835E+02  0.24385371851E+01  0.36820919785E+02  0.00000000000E+00 0. -1.
         11    1    4    4    0    0  0.17912444804E+02  0.51902774239E+01 -0.14347366363E+02  0.23529589465E+02  0.51100000000E-03 0. -1.
        -11    1    4    4    0    0  0.48051275148E+01  0.12729176921E+02 -0.30649931895E+01  0.13946877035E+02  0.51100000000E-03 0.  1.
        -12    1    4    4    0    0  0.58585608073E+01  0.51724984904E+01  0.14973822368E+02  0.16890613715E+02  0.00000000000E+00 0.  1.
</event>
<event>
 8    1  0.2502398E-006  0.9118800E+02  0.7816164E-02  0.1184000E+00
        -11   -1    0    0    0    0  0.00000000000E+00  0.00000000000E+00  0.45593999997E+02  0.45594000000E+02  0.51100000000E-03 0.  1.
         11   -1    0    0    0    0 -0.00000000000E+00 -0.00000000000E+00 -0.45593999997E+02  0.45594000000E+02  0.51100000000E-03 0. -1.
         23    2    1    2    0    0 -0.88817841970E-15  0.00000000000E+00 -0.71054273576E-14  0.91188000000E+02  0.91188000000E+02 0.  0.
    9900012    2    3    3    0    0 -0.66105306640E+01 -0.11297744883E+02 -0.34415745166E+02  0.54367059349E+02  0.39999943397E+02 0.  0.
        -12    1    3    3    0    0  0.66105306640E+01  0.11297744883E+02  0.34415745166E+02  0.36820940651E+02  0.00000000000E+00 0.  1.
         11    1    4    4    0    0 -0.79463637171E+00 -0.48092551162E+01 -0.24880372660E+01  0.54727243155E+01  0.51100000000E-03 0. -1.
        -11    1    4    4    0    0 -0.53964875789E+01 -0.21392120971E+02 -0.17689713999E+02  0.28278452918E+02  0.51100000000E-03 0.  1.
        -12    1    4    4    0    0 -0.41940671340E+00  0.14903631204E+02 -0.14237993901E+02  0.20615882115E+02  0.00000000000E+00 0.  1.
</event>
<event>
 8    1  0.2502398E-006  0.9118800E+02  0.7816164E-02  0.1184000E+00
        -11   -1    0    0    0    0  0.00000000000E+00  0.00000000000E+00  0.45593999997E+02  0.45594000000E+02  0.51100000000E-03 0.  1.
         11   -1    0    0    0    0 -0.00000000000E+00 -0.00000000000E+00 -0.45593999997E+02  0.45594000000E+02  0.51100000000E-03 0. -1.
         23    2    1    2    0    0  0.00000000000E+00  0.35527136788E-14  0.00000000000E+00  0.91188000000E+02  0.91188000000E+02 0.  0.
    9900012    2    3    3    0    0  0.17406440098E+02  0.24581401867E+02  0.21179016974E+02  0.54367078846E+02  0.39999987844E+02 0.  0.
         12    1    3    3    0    0 -0.17406440098E+02 -0.24581401867E+02 -0.21179016974E+02  0.36820921154E+02  0.00000000000E+00 0. -1.
         11    1    4    4    0    0 -0.72343095932E+00  0.24407586967E+02  0.75608759164E+01  0.25562091049E+02  0.51100000000E-03 0. -1.
        -11    1    4    4    0    0 -0.25684744177E+01  0.10730666999E+01  0.62050199063E+01  0.68007944591E+01  0.51100000000E-03 0.  1.
        -12    1    4    4    0    0  0.20698345475E+02 -0.89925180001E+00  0.74131211518E+01  0.22004193337E+02  0.00000000000E+00 0.  1.
</event>
<event>
 8    1  0.2502398E-006  0.9118800E+02  0.7816164E-02  0.1184000E+00
        -11   -1    0    0    0    0  0.00000000000E+00  0.00000000000E+00  0.45593999997E+02  0.45594000000E+02  0.51100000000E-03 0. -1.
         11   -1    0    0    0    0 -0.00000000000E+00 -0.00000000000E+00 -0.45593999997E+02  0.45594000000E+02  0.51100000000E-03 0.  1.
         23    2    1    2    0    0  0.00000000000E+00  0.44408920985E-15  0.00000000000E+00  0.91188000000E+02  0.91188000000E+02 0.  0.
    9900012    2    3    3    0    0 -0.32921987393E+02 -0.30470316980E+01 -0.16205870384E+02  0.54367192146E+02  0.40000246135E+02 0.  0.
         12    1    3    3    0    0  0.32921987393E+02  0.30470316980E+01  0.16205870384E+02  0.36820807854E+02  0.00000000000E+00 0. -1.
         11    1    4    4    0    0 -0.11435461770E+02  0.71435396532E+01  0.79372614384E+01  0.15646087820E+02  0.51100000000E-03 0. -1.
        -11    1    4    4    0    0  0.76029799920E+00  0.17104854617E+01 -0.92198716042E+01  0.94079671673E+01  0.51100000000E-03 0.  1.
        -12    1    4    4    0    0 -0.22246823622E+02 -0.11901056813E+02 -0.14923260218E+02  0.29313137159E+02  0.00000000000E+00 0.  1.
</event>
<event>
 8    1  0.2502398E-006  0.9118800E+02  0.7816164E-02  0.1184000E+00
        -11   -1    0    0    0    0  0.00000000000E+00  0.00000000000E+00  0.45593999997E+02  0.45594000000E+02  0.51100000000E-03 0.  1.
         11   -1    0    0    0    0 -0.00000000000E+00 -0.00000000000E+00 -0.45593999997E+02  0.45594000000E+02  0.51100000000E-03 0. -1.
         23    2    1    2    0    0  0.00000000000E+00  0.00000000000E+00  0.35527136788E-14  0.91188000000E+02  0.91188000000E+02 0.  0.
    9900012    2    3    3    0    0  0.27419652179E+02 -0.16613395717E+02  0.18109028945E+02  0.54367093273E+02  0.40000020735E+02 0.  0.
        -12    1    3    3    0    0 -0.27419652179E+02  0.16613395717E+02 -0.18109028945E+02  0.36820906727E+02  0.00000000000E+00 0.  1.
         11    1    4    4    0    0 -0.16133441186E+01 -0.12220928929E+02  0.27182519417E+01  0.12623108849E+02  0.51100000000E-03 0. -1.
        -11    1    4    4    0    0  0.30385730360E+02 -0.37584488564E+01  0.47317446704E+01  0.30980767505E+02  0.51100000000E-03 0.  1.
        -12    1    4    4    0    0 -0.13527340623E+01 -0.63401793149E+00  0.10659032333E+02  0.10763216919E+02  0.00000000000E+00 0.  1.
</event>
<event>
 8    1  0.2502398E-006  0.9118800E+02  0.7816164E-02  0.1184000E+00
        -11   -1    0    0    0    0  0.00000000000E+00  0.00000000000E+00  0.45593999997E+02  0.45594000000E+02  0.51100000000E-03 0.  1.
         11   -1    0    0    0    0 -0.00000000000E+00 -0.00000000000E+00 -0.45593999997E+02  0.45594000000E+02  0.51100000000E-03 0. -1.
         23    2    1    2    0    0 -0.17763568394E-14 -0.17763568394E-14  0.00000000000E+00  0.91188000000E+02  0.91188000000E+02 0.  0.
    9900012    2    3    3    0    0 -0.11742951094E+02 -0.65904991862E+01  0.34270311537E+02  0.54367002828E+02  0.39999814546E+02 0.  0.
         12    1    3    3    0    0  0.11742951094E+02  0.65904991862E+01 -0.34270311537E+02  0.36820997172E+02  0.00000000000E+00 0. -1.
         11    1    4    4    0    0 -0.72696266900E+00 -0.48234161868E+01 -0.37720817076E+01  0.61662321643E+01  0.51100000000E-03 0. -1.
        -11    1    4    4    0    0 -0.13541949921E+02  0.68358206464E+01  0.86308148248E+01  0.17452902807E+02  0.51100000000E-03 0.  1.
        -12    1    4    4    0    0  0.25259614965E+01 -0.86029036458E+01  0.29411578420E+02  0.30747867857E+02  0.00000000000E+00 0.  1.
</event>
<event>
 8    1  0.2502398E-006  0.9118800E+02  0.7816164E-02  0.1184000E+00
        -11   -1    0    0    0    0  0.00000000000E+00  0.00000000000E+00  0.45593999997E+02  0.45594000000E+02  0.51100000000E-03 0.  1.
         11   -1    0    0    0    0 -0.00000000000E+00 -0.00000000000E+00 -0.45593999997E+02  0.45594000000E+02  0.51100000000E-03 0. -1.
         23    2    1    2    0    0  0.17763568394E-14 -0.71054273576E-14  0.44408920985E-15  0.91188000000E+02  0.91188000000E+02 0.  0.
    9900012    2    3    3    0    0  0.13103944589E+02 -0.34327799932E+02 -0.23806369419E+01  0.54367100442E+02  0.40000037078E+02 0.  0.
         12    1    3    3    0    0 -0.13103944589E+02  0.34327799932E+02  0.23806369419E+01  0.36820899558E+02  0.00000000000E+00 0. -1.
         11    1    4    4    0    0 -0.51716559153E+01  0.21803400823E+01 -0.11061630518E+01  0.57204462011E+01  0.51100000000E-03 0. -1.
        -11    1    4    4    0    0  0.10131626371E+02  0.66865366888E+00 -0.28807616856E+01  0.10554417975E+02  0.51100000000E-03 0.  1.
        -12    1    4    4    0    0  0.81439741342E+01 -0.37176793683E+02  0.16062877956E+01  0.38092236266E+02  0.00000000000E+00 0.  1.
</event>
<event>
 8    1  0.2502398E-006  0.9118800E+02  0.7816164E-02  0.1184000E+00
        -11   -1    0    0    0    0  0.00000000000E+00  0.00000000000E+00  0.45593999997E+02  0.45594000000E+02  0.51100000000E-03 0. -1.
         11   -1    0    0    0    0 -0.00000000000E+00 -0.00000000000E+00 -0.45593999997E+02  0.45594000000E+02  0.51100000000E-03 0.  1.
         23    2    1    2    0    0  0.35527136788E-14  0.00000000000E+00  0.00000000000E+00  0.91188000000E+02  0.91188000000E+02 0.  0.
    9900012    2    3    3    0    0  0.17276450152E+02  0.68199217556E+01  0.31792980737E+02  0.54367072706E+02  0.39999973848E+02 0.  0.
        -12    1    3    3    0    0 -0.17276450152E+02 -0.68199217556E+01 -0.31792980737E+02  0.36820927294E+02  0.00000000000E+00 0.  1.
         11    1    4    4    0    0  0.18342818158E+01  0.69225876970E+01  0.32156759142E+02  0.32944559020E+02  0.51100000000E-03 0. -1.
        -11    1    4    4    0    0  0.46407805864E+01 -0.66920186642E+01  0.23625245244E+01  0.84794740782E+01  0.51100000000E-03 0.  1.
         12    1    4    4    0    0  0.10801387750E+02  0.65893527228E+01 -0.27263029296E+01  0.12943039608E+02  0.00000000000E+00 0. -1.
</event>
<event>
 8    1  0.2502398E-006  0.9118800E+02  0.7816164E-02  0.1184000E+00
        -11   -1    0    0    0    0  0.00000000000E+00  0.00000000000E+00  0.45593999997E+02  0.45594000000E+02  0.51100000000E-03 0.  1.
         11   -1    0    0    0    0 -0.00000000000E+00 -0.00000000000E+00 -0.45593999997E+02  0.45594000000E+02  0.51100000000E-03 0. -1.
         23    2    1    2    0    0  0.00000000000E+00 -0.71054273576E-14  0.00000000000E+00  0.91188000000E+02  0.91188000000E+02 0.  0.
    9900012    2    3    3    0    0  0.89455359458E+01  0.32729712481E+02  0.14301156414E+02  0.54367085193E+02  0.40000002315E+02 0.  0.
         12    1    3    3    0    0 -0.89455359458E+01 -0.32729712481E+02 -0.14301156414E+02  0.36820914807E+02  0.00000000000E+00 0. -1.
         11    1    4    4    0    0 -0.78793866045E+01  0.35701305427E+01  0.35581258356E+01  0.93536530339E+01  0.51100000000E-03 0. -1.
        -11    1    4    4    0    0  0.11909809101E+02 -0.73377308186E+00  0.84711995938E+01  0.14633632446E+02  0.51100000000E-03 0.  1.
         12    1    4    4    0    0  0.49151134495E+01  0.29893355020E+02  0.22718309848E+01  0.30379799713E+02  0.00000000000E+00 0. -1.
</event>
<event>
 8    1  0.2502398E-006  0.9118800E+02  0.7816164E-02  0.1184000E+00
        -11   -1    0    0    0    0  0.00000000000E+00  0.00000000000E+00  0.45593999997E+02  0.45594000000E+02  0.51100000000E-03 0.  1.
         11   -1    0    0    0    0 -0.00000000000E+00 -0.00000000000E+00 -0.45593999997E+02  0.45594000000E+02  0.51100000000E-03 0. -1.
         23    2    1    2    0    0 -0.71054273576E-14  0.88817841970E-15 -0.88817841970E-15  0.91188000000E+02  0.91188000000E+02 0.  0.
    9900012    2    3    3    0    0  0.35573154365E+02 -0.53110791148E+01  0.78817213069E+01  0.54367103710E+02  0.40000044528E+02 0.  0.
         12    1    3    3    0    0 -0.35573154365E+02  0.53110791148E+01 -0.78817213069E+01  0.36820896290E+02  0.00000000000E+00 0. -1.
         11    1    4    4    0    0 -0.69176456268E+01  0.18754380087E+01  0.68737384272E+01  0.99307285216E+01  0.51100000000E-03 0.  1.
        -11    1    4    4    0    0  0.23883593366E+02 -0.87120521192E+01  0.32612114028E+01  0.25631257953E+02  0.51100000000E-03 0. -1.
        -12    1    4    4    0    0  0.18607206626E+02  0.15255349958E+01 -0.22532285232E+01  0.18805117235E+02  0.00000000000E+00 0.  1.
</event>
<event>
 8    1  0.2502398E-006  0.9118800E+02  0.7816164E-02  0.1184000E+00
        -11   -1    0    0    0    0  0.00000000000E+00  0.00000000000E+00  0.45593999997E+02  0.45594000000E+02  0.51100000000E-03 0. -1.
         11   -1    0    0    0    0 -0.00000000000E+00 -0.00000000000E+00 -0.45593999997E+02  0.45594000000E+02  0.51100000000E-03 0.  1.
         23    2    1    2    0    0  0.26645352591E-14  0.00000000000E+00  0.00000000000E+00  0.91188000000E+02  0.91188000000E+02 0.  0.
    9900012    2    3    3    0    0 -0.63525540366E+01 -0.34718491366E+02  0.10490521143E+02  0.54367087201E+02  0.40000006891E+02 0.  0.
        -12    1    3    3    0    0  0.63525540366E+01  0.34718491366E+02 -0.10490521143E+02  0.36820912799E+02  0.00000000000E+00 0.  1.
         11    1    4    4    0    0  0.85905828080E+01 -0.17086633745E+02  0.99198452759E+01  0.21544245085E+02  0.51100000000E-03 0. -1.
        -11    1    4    4    0    0  0.36772791742E+01  0.55036966170E+00 -0.49773253769E+01  0.62128139404E+01  0.51100000000E-03 0.  1.
         12    1    4    4    0    0 -0.18620416019E+02 -0.18182227283E+02  0.55480012444E+01  0.26610028175E+02  0.00000000000E+00 0. -1.
</event>
<event>
 8    1  0.2502398E-006  0.9118800E+02  0.7816164E-02  0.1184000E+00
        -11   -1    0    0    0    0  0.00000000000E+00  0.00000000000E+00  0.45593999997E+02  0.45594000000E+02  0.51100000000E-03 0. -1.
         11   -1    0    0    0    0 -0.00000000000E+00 -0.00000000000E+00 -0.45593999997E+02  0.45594000000E+02  0.51100000000E-03 0.  1.
         23    2    1    2    0    0 -0.17763568394E-14  0.35527136788E-14  0.00000000000E+00  0.91188000000E+02  0.91188000000E+02 0.  0.
    9900012    2    3    3    0    0  0.11175519636E+02  0.22916155375E+02  0.26565718700E+02  0.54367084390E+02  0.40000000484E+02 0.  0.
        -12    1    3    3    0    0 -0.11175519636E+02 -0.22916155375E+02 -0.26565718700E+02  0.36820915610E+02  0.00000000000E+00 0.  1.
         11    1    4    4    0    0 -0.36049988608E+01  0.99352729894E+01  0.25242066282E+01  0.10866337263E+02  0.51100000000E-03 0. -1.
        -11    1    4    4    0    0  0.22611758605E+01  0.59887696693E+01 -0.68913518784E+01  0.94057965849E+01  0.51100000000E-03 0.  1.
         12    1    4    4    0    0  0.12519342636E+02  0.69921127158E+01  0.30932863950E+02  0.34094950542E+02  0.00000000000E+00 0. -1.
</event>
<event>
 8    1  0.2502398E-006  0.9118800E+02  0.7816164E-02  0.1184000E+00
        -11   -1    0    0    0    0  0.00000000000E+00  0.00000000000E+00  0.45593999997E+02  0.45594000000E+02  0.51100000000E-03 0. -1.
         11   -1    0    0    0    0 -0.00000000000E+00 -0.00000000000E+00 -0.45593999997E+02  0.45594000000E+02  0.51100000000E-03 0.  1.
         23    2    1    2    0    0  0.00000000000E+00  0.00000000000E+00 -0.35527136788E-14  0.91188000000E+02  0.91188000000E+02 0.  0.
    9900012    2    3    3    0    0 -0.17052180040E+02 -0.10619998105E+02  0.30858031228E+02  0.54367091603E+02  0.40000016928E+02 0.  0.
        -12    1    3    3    0    0  0.17052180040E+02  0.10619998105E+02 -0.30858031228E+02  0.36820908397E+02  0.00000000000E+00 0.  1.
         11    1    4    4    0    0 -0.23665612268E-01 -0.11399073776E+02 -0.38593828640E+01  0.12034711437E+02  0.51100000000E-03 0.  1.
        -11    1    4    4    0    0 -0.68166047870E+01  0.68531609486E+01  0.63182987472E+01  0.11547848940E+02  0.51100000000E-03 0. -1.
        -12    1    4    4    0    0 -0.10211909641E+02 -0.60740852777E+01  0.28399115345E+02  0.30784531227E+02  0.00000000000E+00 0.  1.
</event>
<event>
 8    1  0.2502398E-006  0.9118800E+02  0.7816164E-02  0.1184000E+00
        -11   -1    0    0    0    0  0.00000000000E+00  0.00000000000E+00  0.45593999997E+02  0.45594000000E+02  0.51100000000E-03 0.  1.
         11   -1    0    0    0    0 -0.00000000000E+00 -0.00000000000E+00 -0.45593999997E+02  0.45594000000E+02  0.51100000000E-03 0. -1.
         23    2    1    2    0    0 -0.27755575616E-16 -0.44408920985E-15 -0.71054273576E-14  0.91188000000E+02  0.91188000000E+02 0.  0.
    9900012    2    3    3    0    0  0.19588249586E+00  0.26198141336E+01  0.36727073892E+02  0.54367085390E+02  0.40000002763E+02 0.  0.
         12    1    3    3    0    0 -0.19588249586E+00 -0.26198141336E+01 -0.36727073892E+02  0.36820914610E+02  0.00000000000E+00 0. -1.
         11    1    4    4    0    0  0.33528155888E+01  0.12608679623E+02  0.39072419269E+01  0.13619350717E+02  0.51100000000E-03 0. -1.
        -11    1    4    4    0    0  0.26387677037E+00 -0.10874040243E+02  0.38125825183E+01  0.11526064718E+02  0.51100000000E-03 0.  1.
         12    1    4    4    0    0 -0.34208098633E+01  0.88517475332E+00  0.29007249447E+02  0.29221669955E+02  0.00000000000E+00 0. -1.
</event>
<event>
 8    1  0.2502398E-006  0.9118800E+02  0.7816164E-02  0.1184000E+00
        -11   -1    0    0    0    0  0.00000000000E+00  0.00000000000E+00  0.45593999997E+02  0.45594000000E+02  0.51100000000E-03 0.  1.
         11   -1    0    0    0    0 -0.00000000000E+00 -0.00000000000E+00 -0.45593999997E+02  0.45594000000E+02  0.51100000000E-03 0. -1.
         23    2    1    2    0    0  0.35527136788E-14  0.00000000000E+00 -0.17763568394E-14  0.91188000000E+02  0.91188000000E+02 0.  0.
    9900012    2    3    3    0    0 -0.26083632076E+02  0.25825305374E+02 -0.29115319639E+01  0.54367091832E+02  0.40000017450E+02 0.  0.
        -12    1    3    3    0    0  0.26083632076E+02 -0.25825305374E+02  0.29115319639E+01  0.36820908168E+02  0.00000000000E+00 0.  1.
         11    1    4    4    0    0 -0.39549877845E+01  0.35069120877E+00 -0.50198253256E+01  0.64002780611E+01  0.51100000000E-03 0. -1.
        -11    1    4    4    0    0 -0.17511197249E+02  0.51998241729E+01 -0.12865281413E+02  0.22342687095E+02  0.51100000000E-03 0.  1.
        -12    1    4    4    0    0 -0.46174470421E+01  0.20274789992E+02  0.14973574774E+02  0.25624126677E+02  0.00000000000E+00 0.  1.
</event>
<event>
 8    1  0.2502398E-006  0.9118800E+02  0.7816164E-02  0.1184000E+00
        -11   -1    0    0    0    0  0.00000000000E+00  0.00000000000E+00  0.45593999997E+02  0.45594000000E+02  0.51100000000E-03 0.  1.
         11   -1    0    0    0    0 -0.00000000000E+00 -0.00000000000E+00 -0.45593999997E+02  0.45594000000E+02  0.51100000000E-03 0. -1.
         23    2    1    2    0    0  0.19984014443E-14  0.00000000000E+00  0.35527136788E-14  0.91188000000E+02  0.91188000000E+02 0.  0.
    9900012    2    3    3    0    0 -0.58640843435E+00  0.33863392786E+02  0.14446687163E+02  0.54367081817E+02  0.39999994619E+02 0.  0.
        -12    1    3    3    0    0  0.58640843435E+00 -0.33863392786E+02 -0.14446687163E+02  0.36820918183E+02  0.00000000000E+00 0.  1.
         11    1    4    4    0    0 -0.79672110913E+01  0.28495982167E+02  0.21378381683E+02  0.36503871793E+02  0.51100000000E-03 0. -1.
        -11    1    4    4    0    0  0.99032241275E+01 -0.41430857864E+00 -0.27197117548E+01  0.10278245570E+02  0.51100000000E-03 0.  1.
        -12    1    4    4    0    0 -0.25224214705E+01  0.57817191976E+01 -0.42119827646E+01  0.75849644537E+01  0.00000000000E+00 0.  1.
</event>
<event>
 8    1  0.2502398E-006  0.9118800E+02  0.7816164E-02  0.1184000E+00
        -11   -1    0    0    0    0  0.00000000000E+00  0.00000000000E+00  0.45593999997E+02  0.45594000000E+02  0.51100000000E-03 0.  1.
         11   -1    0    0    0    0 -0.00000000000E+00 -0.00000000000E+00 -0.45593999997E+02  0.45594000000E+02  0.51100000000E-03 0. -1.
         23    2    1    2    0    0  0.00000000000E+00 -0.37747582837E-14  0.00000000000E+00  0.91188000000E+02  0.91188000000E+02 0.  0.
    9900012    2    3    3    0    0 -0.36320411595E+02  0.13049533485E+01  0.59079452311E+01  0.54367095359E+02  0.40000025491E+02 0.  0.
        -12    1    3    3    0    0  0.36320411595E+02 -0.13049533485E+01 -0.59079452311E+01  0.36820904641E+02  0.00000000000E+00 0.  1.
         11    1    4    4    0    0 -0.17191121810E+02 -0.23506911285E+01 -0.50528073429E+01  0.18071836658E+02  0.51100000000E-03 0. -1.
        -11    1    4    4    0    0 -0.13573698432E+02  0.16025446315E+02  0.75004718355E+01  0.22300612026E+02  0.51100000000E-03 0.  1.
        -12    1    4    4    0    0 -0.55555913528E+01 -0.12369801838E+02  0.34602807385E+01  0.13994646676E+02  0.00000000000E+00 0.  1.
</event>
<event>
 8    1  0.2502398E-006  0.9118800E+02  0.7816164E-02  0.1184000E+00
        -11   -1    0    0    0    0  0.00000000000E+00  0.00000000000E+00  0.45593999997E+02  0.45594000000E+02  0.51100000000E-03 0. -1.
         11   -1    0    0    0    0 -0.00000000000E+00 -0.00000000000E+00 -0.45593999997E+02  0.45594000000E+02  0.51100000000E-03 0.  1.
         23    2    1    2    0    0  0.00000000000E+00  0.00000000000E+00  0.00000000000E+00  0.91188000000E+02  0.91188000000E+02 0.  0.
    9900012    2    3    3    0    0 -0.25254449647E+02 -0.10025671250E+02 -0.24849243076E+02  0.54366997943E+02  0.39999803411E+02 0.  0.
         12    1    3    3    0    0  0.25254449647E+02  0.10025671250E+02  0.24849243076E+02  0.36821002057E+02  0.00000000000E+00 0. -1.
         11    1    4    4    0    0 -0.61392747682E+01 -0.99428173650E+01 -0.25053280929E+02  0.27644478606E+02  0.51100000000E-03 0. -1.
        -11    1    4    4    0    0 -0.12097277979E+02  0.87021546399E+01  0.28481999381E+01  0.15171811791E+02  0.51100000000E-03 0.  1.
        -12    1    4    4    0    0 -0.70178969000E+01 -0.87850085252E+01 -0.26441620851E+01  0.11550707546E+02  0.00000000000E+00 0.  1.
</event>
<event>
 8    1  0.2502398E-006  0.9118800E+02  0.7816164E-02  0.1184000E+00
        -11   -1    0    0    0    0  0.00000000000E+00  0.00000000000E+00  0.45593999997E+02  0.45594000000E+02  0.51100000000E-03 0.  1.
         11   -1    0    0    0    0 -0.00000000000E+00 -0.00000000000E+00 -0.45593999997E+02  0.45594000000E+02  0.51100000000E-03 0. -1.
         23    2    1    2    0    0  0.00000000000E+00  0.00000000000E+00  0.00000000000E+00  0.91188000000E+02  0.91188000000E+02 0.  0.
    9900012    2    3    3    0    0 -0.95100961641E+01 -0.26842245610E+02 -0.23341635476E+02  0.54367081691E+02  0.39999994330E+02 0.  0.
        -12    1    3    3    0    0  0.95100961641E+01  0.26842245610E+02  0.23341635476E+02  0.36820918309E+02  0.00000000000E+00 0.  1.
         11    1    4    4    0    0 -0.25952271967E+01  0.10122050180E+01 -0.14032501899E+02  0.14306322833E+02  0.51100000000E-03 0. -1.
        -11    1    4    4    0    0  0.20860120934E+01 -0.29541020904E+02 -0.87767027363E+01  0.30887762523E+02  0.51100000000E-03 0.  1.
        -12    1    4    4    0    0 -0.90008810608E+01  0.16865702751E+01 -0.53243084105E+00  0.91729963351E+01  0.00000000000E+00 0.  1.
</event>
<event>
 8    1  0.2502398E-006  0.9118800E+02  0.7816164E-02  0.1184000E+00
        -11   -1    0    0    0    0  0.00000000000E+00  0.00000000000E+00  0.45593999997E+02  0.45594000000E+02  0.51100000000E-03 0.  1.
         11   -1    0    0    0    0 -0.00000000000E+00 -0.00000000000E+00 -0.45593999997E+02  0.45594000000E+02  0.51100000000E-03 0. -1.
         23    2    1    2    0    0 -0.66613381478E-15  0.00000000000E+00  0.71054273576E-14  0.91188000000E+02  0.91188000000E+02 0.  0.
    9900012    2    3    3    0    0  0.11524369220E+01  0.40567994547E+01 -0.36578608756E+02  0.54367077263E+02  0.39999984237E+02 0.  0.
        -12    1    3    3    0    0 -0.11524369220E+01 -0.40567994547E+01  0.36578608756E+02  0.36820922737E+02  0.00000000000E+00 0.  1.
         11    1    4    4    0    0 -0.81633980467E+01 -0.54445277980E+01 -0.31208311775E+02  0.32714563649E+02  0.51100000000E-03 0. -1.
        -11    1    4    4    0    0  0.34568406865E+01 -0.41156721300E+01 -0.41270132023E+01  0.67764845493E+01  0.51100000000E-03 0.  1.
        -12    1    4    4    0    0  0.58589942823E+01  0.13616999383E+02 -0.12432837786E+01  0.14876029065E+02  0.00000000000E+00 0.  1.
</event>
<event>
 8    1  0.2502398E-006  0.9118800E+02  0.7816164E-02  0.1184000E+00
        -11   -1    0    0    0    0  0.00000000000E+00  0.00000000000E+00  0.45593999997E+02  0.45594000000E+02  0.51100000000E-03 0.  1.
         11   -1    0    0    0    0 -0.00000000000E+00 -0.00000000000E+00 -0.45593999997E+02  0.45594000000E+02  0.51100000000E-03 0. -1.
         23    2    1    2    0    0  0.88817841970E-15  0.00000000000E+00  0.00000000000E+00  0.91188000000E+02  0.91188000000E+02 0.  0.
    9900012    2    3    3    0    0  0.46855123863E+01 -0.35976217792E+02  0.62877897505E+01  0.54367101411E+02  0.40000039287E+02 0.  0.
         12    1    3    3    0    0 -0.46855123863E+01  0.35976217792E+02 -0.62877897505E+01  0.36820898589E+02  0.00000000000E+00 0. -1.
         11    1    4    4    0    0 -0.22612823625E+01 -0.74500830434E+01 -0.12504907616E+02  0.14730575346E+02  0.51100000000E-03 0. -1.
        -11    1    4    4    0    0  0.33603191361E+01 -0.16513073970E+02  0.20980434346E+02  0.26910072134E+02  0.51100000000E-03 0.  1.
         12    1    4    4    0    0  0.35864756128E+01 -0.12013060778E+02 -0.21877369794E+01  0.12726453931E+02  0.00000000000E+00 0. -1.
</event>
<event>
 8    1  0.2502398E-006  0.9118800E+02  0.7816164E-02  0.1184000E+00
        -11   -1    0    0    0    0  0.00000000000E+00  0.00000000000E+00  0.45593999997E+02  0.45594000000E+02  0.51100000000E-03 0.  1.
         11   -1    0    0    0    0 -0.00000000000E+00 -0.00000000000E+00 -0.45593999997E+02  0.45594000000E+02  0.51100000000E-03 0. -1.
         23    2    1    2    0    0 -0.35527136788E-14 -0.71054273576E-14  0.88817841970E-15  0.91188000000E+02  0.91188000000E+02 0.  0.
    9900012    2    3    3    0    0  0.14625421902E+02  0.33072533130E+02  0.69342985577E+01  0.54367083255E+02  0.39999997895E+02 0.  0.
         12    1    3    3    0    0 -0.14625421902E+02 -0.33072533130E+02 -0.69342985577E+01  0.36820916745E+02  0.00000000000E+00 0. -1.
         11    1    4    4    0    0 -0.24417548775E+01  0.10291747498E+02 -0.60045020810E+01  0.12162905859E+02  0.51100000000E-03 0. -1.
        -11    1    4    4    0    0  0.19031612831E+02  0.28135870868E+02  0.86064479111E+01  0.35041410679E+02  0.51100000000E-03 0.  1.
         12    1    4    4    0    0 -0.19644360508E+01 -0.53550852357E+01  0.43323527276E+01  0.71627667165E+01  0.00000000000E+00 0. -1.
</event>
<event>
 8    1  0.2502398E-006  0.9118800E+02  0.7816164E-02  0.1184000E+00
        -11   -1    0    0    0    0  0.00000000000E+00  0.00000000000E+00  0.45593999997E+02  0.45594000000E+02  0.51100000000E-03 0. -1.
         11   -1    0    0    0    0 -0.00000000000E+00 -0.00000000000E+00 -0.45593999997E+02  0.45594000000E+02  0.51100000000E-03 0.  1.
         23    2    1    2    0    0  0.00000000000E+00 -0.35527136788E-14  0.00000000000E+00  0.91188000000E+02  0.91188000000E+02 0.  0.
    9900012    2    3    3    0    0 -0.17941280754E+02 -0.29990149454E+02 -0.11596550540E+02  0.54367100992E+02  0.40000038330E+02 0.  0.
         12    1    3    3    0    0  0.17941280754E+02  0.29990149454E+02  0.11596550540E+02  0.36820899008E+02  0.00000000000E+00 0. -1.
         11    1    4    4    0    0 -0.12671143731E+01 -0.26914039652E+01 -0.12977396055E+02  0.13313979224E+02  0.51100000000E-03 0.  1.
        -11    1    4    4    0    0 -0.20734066743E+02 -0.26313911754E+02  0.68265680022E+01  0.34189552592E+02  0.51100000000E-03 0. -1.
         12    1    4    4    0    0  0.40599003617E+01 -0.98483373498E+00 -0.54457224867E+01  0.68635691761E+01  0.00000000000E+00 0. -1.
</event>
<event>
 8    1  0.2502398E-006  0.9118800E+02  0.7816164E-02  0.1184000E+00
        -11   -1    0    0    0    0  0.00000000000E+00  0.00000000000E+00  0.45593999997E+02  0.45594000000E+02  0.51100000000E-03 0.  1.
         11   -1    0    0    0    0 -0.00000000000E+00 -0.00000000000E+00 -0.45593999997E+02  0.45594000000E+02  0.51100000000E-03 0. -1.
         23    2    1    2    0    0  0.00000000000E+00  0.00000000000E+00  0.00000000000E+00  0.91188000000E+02  0.91188000000E+02 0.  0.
    9900012    2    3    3    0    0  0.88326722703E+00  0.61408561540E+01 -0.36294450660E+02  0.54367117012E+02  0.40000074852E+02 0.  0.
        -12    1    3    3    0    0 -0.88326722703E+00 -0.61408561540E+01  0.36294450660E+02  0.36820882988E+02  0.00000000000E+00 0.  1.
         11    1    4    4    0    0  0.58198958779E+01 -0.11758203045E+02 -0.24587739969E+02  0.27869041676E+02  0.51100000000E-03 0. -1.
        -11    1    4    4    0    0 -0.47749130094E+01  0.11886913181E+02 -0.14931676060E+02  0.19673674020E+02  0.51100000000E-03 0.  1.
         12    1    4    4    0    0 -0.16171564151E+00  0.60121460180E+01  0.32249653688E+01  0.68244013159E+01  0.00000000000E+00 0. -1.
</event>
<event>
 8    1  0.2502398E-006  0.9118800E+02  0.7816164E-02  0.1184000E+00
        -11   -1    0    0    0    0  0.00000000000E+00  0.00000000000E+00  0.45593999997E+02  0.45594000000E+02  0.51100000000E-03 0.  1.
         11   -1    0    0    0    0 -0.00000000000E+00 -0.00000000000E+00 -0.45593999997E+02  0.45594000000E+02  0.51100000000E-03 0. -1.
         23    2    1    2    0    0  0.00000000000E+00  0.17763568394E-14  0.00000000000E+00  0.91188000000E+02  0.91188000000E+02 0.  0.
    9900012    2    3    3    0    0  0.25001378750E+02 -0.10639289332E+01 -0.27010714546E+02  0.54367087675E+02  0.40000007973E+02 0.  0.
        -12    1    3    3    0    0 -0.25001378750E+02  0.10639289332E+01  0.27010714546E+02  0.36820912325E+02  0.00000000000E+00 0.  1.
         11    1    4    4    0    0  0.13374842897E+02  0.10232253979E+02 -0.28895878582E+02  0.33444838814E+02  0.51100000000E-03 0. -1.
        -11    1    4    4    0    0  0.47721395190E+01 -0.11519845373E+02 -0.25872316275E+01  0.12734752481E+02  0.51100000000E-03 0.  1.
         12    1    4    4    0    0  0.68543963342E+01  0.22366246012E+00  0.44723956637E+01  0.81874963801E+01  0.00000000000E+00 0. -1.
</event>
<event>
 8    1  0.2502398E-006  0.9118800E+02  0.7816164E-02  0.1184000E+00
        -11   -1    0    0    0    0  0.00000000000E+00  0.00000000000E+00  0.45593999997E+02  0.45594000000E+02  0.51100000000E-03 0.  1.
         11   -1    0    0    0    0 -0.00000000000E+00 -0.00000000000E+00 -0.45593999997E+02  0.45594000000E+02  0.51100000000E-03 0. -1.
         23    2    1    2    0    0  0.00000000000E+00  0.35527136788E-14  0.35527136788E-14  0.91188000000E+02  0.91188000000E+02 0.  0.
    9900012    2    3    3    0    0  0.20624538792E+02  0.23505155978E+02  0.19440060756E+02  0.54367083117E+02  0.39999997581E+02 0.  0.
         12    1    3    3    0    0 -0.20624538792E+02 -0.23505155978E+02 -0.19440060756E+02  0.36820916883E+02  0.00000000000E+00 0. -1.
         11    1    4    4    0    0  0.76632895665E+01  0.52165210907E+01  0.40442596091E+01  0.10114056324E+02  0.51100000000E-03 0.  1.
        -11    1    4    4    0    0  0.21338414442E+01 -0.24146305261E+01  0.20153863753E+02  0.20409849199E+02  0.51100000000E-03 0. -1.
         12    1    4    4    0    0  0.10827407782E+02  0.20703265413E+02 -0.47580626060E+01  0.23843177594E+02  0.00000000000E+00 0. -1.
</event>
<event>
 8    1  0.2502398E-006  0.9118800E+02  0.7816164E-02  0.1184000E+00
        -11   -1    0    0    0    0  0.00000000000E+00  0.00000000000E+00  0.45593999997E+02  0.45594000000E+02  0.51100000000E-03 0.  1.
         11   -1    0    0    0    0 -0.00000000000E+00 -0.00000000000E+00 -0.45593999997E+02  0.45594000000E+02  0.51100000000E-03 0. -1.
         23    2    1    2    0    0  0.00000000000E+00  0.00000000000E+00  0.00000000000E+00  0.91188000000E+02  0.91188000000E+02 0.  0.
    9900012    2    3    3    0    0 -0.15335774938E+02 -0.27066324637E+02 -0.19697910236E+02  0.54367087600E+02  0.40000007802E+02 0.  0.
        -12    1    3    3    0    0  0.15335774938E+02  0.27066324637E+02  0.19697910236E+02  0.36820912400E+02  0.00000000000E+00 0.  1.
         11    1    4    4    0    0  0.96108163765E+01 -0.15685150152E+02 -0.18903076037E+02  0.26376466986E+02  0.51100000000E-03 0. -1.
        -11    1    4    4    0    0 -0.31992642904E+01 -0.84964729741E+00  0.16599691816E+01  0.37030650109E+01  0.51100000000E-03 0.  1.
         12    1    4    4    0    0 -0.21747327024E+02 -0.10531527187E+02 -0.24548033805E+01  0.24287555604E+02  0.00000000000E+00 0. -1.
</event>
<event>
 8    1  0.2502398E-006  0.9118800E+02  0.7816164E-02  0.1184000E+00
        -11   -1    0    0    0    0  0.00000000000E+00  0.00000000000E+00  0.45593999997E+02  0.45594000000E+02  0.51100000000E-03 0.  1.
         11   -1    0    0    0    0 -0.00000000000E+00 -0.00000000000E+00 -0.45593999997E+02  0.45594000000E+02  0.51100000000E-03 0. -1.
         23    2    1    2    0    0  0.44408920985E-15  0.00000000000E+00  0.00000000000E+00  0.91188000000E+02  0.91188000000E+02 0.  0.
    9900012    2    3    3    0    0 -0.25149792127E+01  0.27782145021E+02 -0.24033462170E+02  0.54367081947E+02  0.39999994914E+02 0.  0.
        -12    1    3    3    0    0  0.25149792127E+01 -0.27782145021E+02  0.24033462170E+02  0.36820918053E+02  0.00000000000E+00 0.  1.
         11    1    4    4    0    0 -0.64251112966E+01  0.87513308814E+01 -0.60397416357E+01  0.12423619708E+02  0.51100000000E-03 0. -1.
        -11    1    4    4    0    0  0.93557509821E+01  0.22316430192E+02 -0.14755171529E+01  0.24243149220E+02  0.51100000000E-03 0.  1.
         12    1    4    4    0    0 -0.54456188982E+01 -0.32856160526E+01 -0.16518203381E+02  0.17700313019E+02  0.00000000000E+00 0. -1.
</event>
<event>
 8    1  0.2502398E-006  0.9118800E+02  0.7816164E-02  0.1184000E+00
        -11   -1    0    0    0    0  0.00000000000E+00  0.00000000000E+00  0.45593999997E+02  0.45594000000E+02  0.51100000000E-03 0.  1.
         11   -1    0    0    0    0 -0.00000000000E+00 -0.00000000000E+00 -0.45593999997E+02  0.45594000000E+02  0.51100000000E-03 0. -1.
         23    2    1    2    0    0  0.00000000000E+00  0.00000000000E+00  0.00000000000E+00  0.91188000000E+02  0.91188000000E+02 0.  0.
    9900012    2    3    3    0    0  0.19284091501E+02  0.25643517842E+02 -0.18064140794E+02  0.54367090520E+02  0.40000014458E+02 0.  0.
        -12    1    3    3    0    0 -0.19284091501E+02 -0.25643517842E+02  0.18064140794E+02  0.36820909480E+02  0.00000000000E+00 0.  1.
         11    1    4    4    0    0  0.24662582037E+01  0.16672519264E+02 -0.48850397373E+01  0.17547619258E+02  0.51100000000E-03 0. -1.
        -11    1    4    4    0    0 -0.78243845394E+01  0.40171608686E+01 -0.61090813861E+01  0.10708849168E+02  0.51100000000E-03 0.  1.
        -12    1    4    4    0    0  0.24642217836E+02  0.49538377093E+01 -0.70700196710E+01  0.26110622093E+02  0.00000000000E+00 0.  1.
</event>
<event>
 8    1  0.2502398E-006  0.9118800E+02  0.7816164E-02  0.1184000E+00
        -11   -1    0    0    0    0  0.00000000000E+00  0.00000000000E+00  0.45593999997E+02  0.45594000000E+02  0.51100000000E-03 0. -1.
         11   -1    0    0    0    0 -0.00000000000E+00 -0.00000000000E+00 -0.45593999997E+02  0.45594000000E+02  0.51100000000E-03 0.  1.
         23    2    1    2    0    0  0.00000000000E+00 -0.35527136788E-14  0.26645352591E-14  0.91188000000E+02  0.91188000000E+02 0.  0.
    9900012    2    3    3    0    0  0.27215003989E+02 -0.24332130795E+02 -0.48034164282E+01  0.54367057039E+02  0.39999938132E+02 0.  0.
         12    1    3    3    0    0 -0.27215003989E+02  0.24332130795E+02  0.48034164282E+01  0.36820942961E+02  0.00000000000E+00 0. -1.
         11    1    4    4    0    0  0.43309270391E+00  0.22431418460E+01  0.54990421252E+01  0.59547224274E+01  0.51100000000E-03 0. -1.
        -11    1    4    4    0    0  0.16121466429E+01 -0.19317661629E+02  0.19702355919E+01  0.19484683630E+02  0.51100000000E-03 0.  1.
         12    1    4    4    0    0  0.25169764642E+02 -0.72576110118E+01 -0.12272694145E+02  0.28927650982E+02  0.00000000000E+00 0. -1.
</event>
<event>
 8    1  0.2502398E-006  0.9118800E+02  0.7816164E-02  0.1184000E+00
        -11   -1    0    0    0    0  0.00000000000E+00  0.00000000000E+00  0.45593999997E+02  0.45594000000E+02  0.51100000000E-03 0.  1.
         11   -1    0    0    0    0 -0.00000000000E+00 -0.00000000000E+00 -0.45593999997E+02  0.45594000000E+02  0.51100000000E-03 0. -1.
         23    2    1    2    0    0  0.00000000000E+00 -0.35527136788E-14 -0.99920072216E-15  0.91188000000E+02  0.91188000000E+02 0.  0.
    9900012    2    3    3    0    0 -0.24582832661E+02  0.27395580899E+02  0.97285154252E+00  0.54367082649E+02  0.39999996514E+02 0.  0.
         12    1    3    3    0    0  0.24582832661E+02 -0.27395580899E+02 -0.97285154252E+00  0.36820917351E+02  0.00000000000E+00 0. -1.
         11    1    4    4    0    0  0.55309800539E+01  0.80575257441E-01 -0.10377546215E+02  0.11759749080E+02  0.51100000000E-03 0. -1.
        -11    1    4    4    0    0 -0.25163807911E+02  0.23449200837E+02  0.11661248625E+02  0.36318961552E+02  0.51100000000E-03 0.  1.
         12    1    4    4    0    0 -0.49500048043E+01  0.38658048047E+01 -0.31085086769E+00  0.62883720161E+01  0.00000000000E+00 0. -1.
</event>
<event>
 8    1  0.2502398E-006  0.9118800E+02  0.7816164E-02  0.1184000E+00
        -11   -1    0    0    0    0  0.00000000000E+00  0.00000000000E+00  0.45593999997E+02  0.45594000000E+02  0.51100000000E-03 0.  1.
         11   -1    0    0    0    0 -0.00000000000E+00 -0.00000000000E+00 -0.45593999997E+02  0.45594000000E+02  0.51100000000E-03 0. -1.
         23    2    1    2    0    0 -0.35527136788E-14  0.17763568394E-14  0.35527136788E-14  0.91188000000E+02  0.91188000000E+02 0.  0.
    9900012    2    3    3    0    0  0.20372600610E+02  0.98366610085E+01  0.29051283526E+02  0.54367084342E+02  0.40000000374E+02 0.  0.
         12    1    3    3    0    0 -0.20372600610E+02 -0.98366610085E+01 -0.29051283526E+02  0.36820915658E+02  0.00000000000E+00 0. -1.
         11    1    4    4    0    0  0.24298719620E+01 -0.63012856610E+01  0.23364296499E+02  0.24320790076E+02  0.51100000000E-03 0.  1.
        -11    1    4    4    0    0  0.17296390988E+02  0.46315365882E+01  0.44872872371E+01  0.18459469640E+02  0.51100000000E-03 0. -1.
         12    1    4    4    0    0  0.64633766007E+00  0.11506410081E+02  0.11996997891E+01  0.11586824626E+02  0.00000000000E+00 0. -1.
</event>
<event>
 8    1  0.2502398E-006  0.9118800E+02  0.7816164E-02  0.1184000E+00
        -11   -1    0    0    0    0  0.00000000000E+00  0.00000000000E+00  0.45593999997E+02  0.45594000000E+02  0.51100000000E-03 0.  1.
         11   -1    0    0    0    0 -0.00000000000E+00 -0.00000000000E+00 -0.45593999997E+02  0.45594000000E+02  0.51100000000E-03 0. -1.
         23    2    1    2    0    0  0.00000000000E+00 -0.35527136788E-14  0.00000000000E+00  0.91188000000E+02  0.91188000000E+02 0.  0.
    9900012    2    3    3    0    0  0.10880136026E+02  0.24613692979E+02  0.25131045691E+02  0.54367072533E+02  0.39999973454E+02 0.  0.
         12    1    3    3    0    0 -0.10880136026E+02 -0.24613692979E+02 -0.25131045691E+02  0.36820927467E+02  0.00000000000E+00 0. -1.
         11    1    4    4    0    0 -0.94773383742E+01  0.66948847408E+01 -0.45762002633E+01  0.12473292808E+02  0.51100000000E-03 0. -1.
        -11    1    4    4    0    0  0.19479754315E+02  0.17100149546E+02  0.21722328040E+02  0.33819158452E+02  0.51100000000E-03 0.  1.
         12    1    4    4    0    0  0.87772008473E+00  0.81865869212E+00  0.79849179150E+01  0.80746212735E+01  0.00000000000E+00 0. -1.
</event>
<event>
 8    1  0.2502398E-006  0.9118800E+02  0.7816164E-02  0.1184000E+00
        -11   -1    0    0    0    0  0.00000000000E+00  0.00000000000E+00  0.45593999997E+02  0.45594000000E+02  0.51100000000E-03 0. -1.
         11   -1    0    0    0    0 -0.00000000000E+00 -0.00000000000E+00 -0.45593999997E+02  0.45594000000E+02  0.51100000000E-03 0.  1.
         23    2    1    2    0    0  0.44408920985E-15  0.00000000000E+00 -0.88817841970E-15  0.91188000000E+02  0.91188000000E+02 0.  0.
    9900012    2    3    3    0    0 -0.28573098850E+01 -0.36461149164E+02 -0.42661716655E+01  0.54367084221E+02  0.40000000098E+02 0.  0.
         12    1    3    3    0    0  0.28573098850E+01  0.36461149164E+02  0.42661716655E+01  0.36820915779E+02  0.00000000000E+00 0. -1.
         11    1    4    4    0    0  0.24943349428E+01  0.52135028681E+01  0.55714115409E-02  0.57794766428E+01  0.51100000000E-03 0. -1.
        -11    1    4    4    0    0  0.64407025561E+00 -0.10945276042E+02 -0.12086089307E+02  0.16318316369E+02  0.51100000000E-03 0.  1.
        -12    1    4    4    0    0 -0.59957150834E+01 -0.30729375990E+02  0.78143462303E+01  0.32269291209E+02  0.00000000000E+00 0.  1.
</event>
<event>
 8    1  0.2502398E-006  0.9118800E+02  0.7816164E-02  0.1184000E+00
        -11   -1    0    0    0    0  0.00000000000E+00  0.00000000000E+00  0.45593999997E+02  0.45594000000E+02  0.51100000000E-03 0.  1.
         11   -1    0    0    0    0 -0.00000000000E+00 -0.00000000000E+00 -0.45593999997E+02  0.45594000000E+02  0.51100000000E-03 0. -1.
         23    2    1    2    0    0 -0.35527136788E-14 -0.17763568394E-14  0.00000000000E+00  0.91188000000E+02  0.91188000000E+02 0.  0.
    9900012    2    3    3    0    0 -0.22422336008E+02 -0.12288183136E+02  0.26495549331E+02  0.54367153579E+02  0.40000158213E+02 0.  0.
         12    1    3    3    0    0  0.22422336008E+02  0.12288183136E+02 -0.26495549331E+02  0.36820846421E+02  0.00000000000E+00 0. -1.
         11    1    4    4    0    0 -0.21029434032E+02  0.10119552273E+01  0.25341150232E+02  0.32945941244E+02  0.51100000000E-03 0. -1.
        -11    1    4    4    0    0  0.21638466039E+01 -0.40999625462E+00  0.66190642115E+01  0.69758397596E+01  0.51100000000E-03 0.  1.
         12    1    4    4    0    0 -0.35567485797E+01 -0.12890142108E+02 -0.54646651129E+01  0.14445372575E+02  0.00000000000E+00 0. -1.
</event>
<event>
 8    1  0.2502398E-006  0.9118800E+02  0.7816164E-02  0.1184000E+00
        -11   -1    0    0    0    0  0.00000000000E+00  0.00000000000E+00  0.45593999997E+02  0.45594000000E+02  0.51100000000E-03 0.  1.
         11   -1    0    0    0    0 -0.00000000000E+00 -0.00000000000E+00 -0.45593999997E+02  0.45594000000E+02  0.51100000000E-03 0. -1.
         23    2    1    2    0    0  0.00000000000E+00  0.35527136788E-14  0.00000000000E+00  0.91188000000E+02  0.91188000000E+02 0.  0.
    9900012    2    3    3    0    0  0.25025396045E+02  0.20087259252E+02  0.18055769407E+02  0.54367092347E+02  0.40000018624E+02 0.  0.
        -12    1    3    3    0    0 -0.25025396045E+02 -0.20087259252E+02 -0.18055769407E+02  0.36820907653E+02  0.00000000000E+00 0.  1.
         11    1    4    4    0    0 -0.43492940765E+01 -0.26075521296E+01  0.13786743967E+02  0.14689792257E+02  0.51100000000E-03 0.  1.
        -11    1    4    4    0    0  0.13428717829E+02  0.49080993548E+01  0.64594467160E+01  0.15688988302E+02  0.51100000000E-03 0. -1.
         12    1    4    4    0    0  0.15945972293E+02  0.17786712026E+02 -0.21904212761E+01  0.23988311788E+02  0.00000000000E+00 0. -1.
</event>
<event>
 8    1  0.2502398E-006  0.9118800E+02  0.7816164E-02  0.1184000E+00
        -11   -1    0    0    0    0  0.00000000000E+00  0.00000000000E+00  0.45593999997E+02  0.45594000000E+02  0.51100000000E-03 0. -1.
         11   -1    0    0    0    0 -0.00000000000E+00 -0.00000000000E+00 -0.45593999997E+02  0.45594000000E+02  0.51100000000E-03 0.  1.
         23    2    1    2    0    0  0.00000000000E+00 -0.13322676296E-14  0.44408920985E-15  0.91188000000E+02  0.91188000000E+02 0.  0.
    9900012    2    3    3    0    0  0.36793634001E+02  0.12576105839E+01 -0.65322628855E+00  0.54367084857E+02  0.40000001549E+02 0.  0.
        -12    1    3    3    0    0 -0.36793634001E+02 -0.12576105839E+01  0.65322628855E+00  0.36820915143E+02  0.00000000000E+00 0.  1.
         11    1    4    4    0    0  0.19789636747E+02 -0.55956936072E+01 -0.17262125687E+02  0.26849999870E+02  0.51100000000E-03 0. -1.
        -11    1    4    4    0    0  0.14083353598E+02  0.84336170844E+01  0.79419217265E+01  0.18235703075E+02  0.51100000000E-03 0.  1.
        -12    1    4    4    0    0  0.29206436560E+01 -0.15803128933E+01  0.86669776724E+01  0.92813819112E+01  0.00000000000E+00 0.  1.
</event>
<event>
 8    1  0.2502398E-006  0.9118800E+02  0.7816164E-02  0.1184000E+00
        -11   -1    0    0    0    0  0.00000000000E+00  0.00000000000E+00  0.45593999997E+02  0.45594000000E+02  0.51100000000E-03 0. -1.
         11   -1    0    0    0    0 -0.00000000000E+00 -0.00000000000E+00 -0.45593999997E+02  0.45594000000E+02  0.51100000000E-03 0.  1.
         23    2    1    2    0    0  0.35527136788E-14 -0.35527136788E-14 -0.35527136788E-14  0.91188000000E+02  0.91188000000E+02 0.  0.
    9900012    2    3    3    0    0  0.11152877675E+02 -0.31197431387E+02 -0.16065930872E+02  0.54367074694E+02  0.39999978380E+02 0.  0.
         12    1    3    3    0    0 -0.11152877675E+02  0.31197431387E+02  0.16065930872E+02  0.36820925306E+02  0.00000000000E+00 0. -1.
         11    1    4    4    0    0  0.68155243141E+01 -0.10962344416E+02  0.68540166383E+01  0.14615126107E+02  0.51100000000E-03 0. -1.
        -11    1    4    4    0    0  0.11736857376E+02 -0.21159611562E+02 -0.21031693362E+02  0.32059555650E+02  0.51100000000E-03 0.  1.
        -12    1    4    4    0    0 -0.73995040143E+01  0.92452459121E+00 -0.18882541477E+01  0.76923929375E+01  0.00000000000E+00 0.  1.
</event>
<event>
 8    1  0.2502398E-006  0.9118800E+02  0.7816164E-02  0.1184000E+00
        -11   -1    0    0    0    0  0.00000000000E+00  0.00000000000E+00  0.45593999997E+02  0.45594000000E+02  0.51100000000E-03 0. -1.
         11   -1    0    0    0    0 -0.00000000000E+00 -0.00000000000E+00 -0.45593999997E+02  0.45594000000E+02  0.51100000000E-03 0.  1.
         23    2    1    2    0    0  0.00000000000E+00  0.00000000000E+00  0.00000000000E+00  0.91188000000E+02  0.91188000000E+02 0.  0.
    9900012    2    3    3    0    0 -0.11442321607E+02  0.15357076662E+02 -0.31448585240E+02  0.54367081476E+02  0.39999993841E+02 0.  0.
         12    1    3    3    0    0  0.11442321607E+02 -0.15357076662E+02  0.31448585240E+02  0.36820918524E+02  0.00000000000E+00 0. -1.
         11    1    4    4    0    0  0.21314751227E+01  0.10146274693E+02 -0.17049287237E+01  0.10506990937E+02  0.51100000000E-03 0. -1.
        -11    1    4    4    0    0 -0.71288981233E+00 -0.67454719659E+01 -0.24664530829E+02  0.25580240132E+02  0.51100000000E-03 0.  1.
        -12    1    4    4    0    0 -0.12860906918E+02  0.11956273935E+02 -0.50791256873E+01  0.18279850407E+02  0.00000000000E+00 0.  1.
</event>
<event>
 8    1  0.2502398E-006  0.9118800E+02  0.7816164E-02  0.1184000E+00
        -11   -1    0    0    0    0  0.00000000000E+00  0.00000000000E+00  0.45593999997E+02  0.45594000000E+02  0.51100000000E-03 0. -1.
         11   -1    0    0    0    0 -0.00000000000E+00 -0.00000000000E+00 -0.45593999997E+02  0.45594000000E+02  0.51100000000E-03 0.  1.
         23    2    1    2    0    0  0.35527136788E-14  0.00000000000E+00  0.00000000000E+00  0.91188000000E+02  0.91188000000E+02 0.  0.
    9900012    2    3    3    0    0  0.29257033242E+02 -0.21896025197E+02 -0.45127066386E+01  0.54367157604E+02  0.40000167389E+02 0.  0.
        -12    1    3    3    0    0 -0.29257033242E+02  0.21896025197E+02  0.45127066386E+01  0.36820842396E+02  0.00000000000E+00 0.  1.
         11    1    4    4    0    0  0.82656875736E+01 -0.25634576559E+02  0.13196950312E+01  0.26966547826E+02  0.51100000000E-03 0. -1.
        -11    1    4    4    0    0 -0.50927813315E+00  0.28415297237E+01 -0.51101304378E+01  0.58691642284E+01  0.51100000000E-03 0.  1.
        -12    1    4    4    0    0  0.21500623802E+02  0.89702163904E+00 -0.72227123197E+00  0.21531445549E+02  0.00000000000E+00 0.  1.
</event>
<event>
 8    1  0.2502398E-006  0.9118800E+02  0.7816164E-02  0.1184000E+00
        -11   -1    0    0    0    0  0.00000000000E+00  0.00000000000E+00  0.45593999997E+02  0.45594000000E+02  0.51100000000E-03 0. -1.
         11   -1    0    0    0    0 -0.00000000000E+00 -0.00000000000E+00 -0.45593999997E+02  0.45594000000E+02  0.51100000000E-03 0.  1.
         23    2    1    2    0    0 -0.35527136788E-14 -0.35527136788E-14 -0.17763568394E-14  0.91188000000E+02  0.91188000000E+02 0.  0.
    9900012    2    3    3    0    0 -0.18325509846E+02 -0.29788426856E+02 -0.11515455724E+02  0.54367076516E+02  0.39999982533E+02 0.  0.
        -12    1    3    3    0    0  0.18325509846E+02  0.29788426856E+02  0.11515455724E+02  0.36820923484E+02  0.00000000000E+00 0.  1.
         11    1    4    4    0    0 -0.25300795174E+02 -0.15887197799E+02 -0.27724020898E+01  0.30003658176E+02  0.51100000000E-03 0. -1.
        -11    1    4    4    0    0  0.24087301420E+01 -0.12838510843E+02 -0.12707152382E+02  0.18223640237E+02  0.51100000000E-03 0.  1.
         12    1    4    4    0    0  0.45665551863E+01 -0.10627182141E+01  0.39640987470E+01  0.61397781025E+01  0.00000000000E+00 0. -1.
</event>
<event>
 8    1  0.2502398E-006  0.9118800E+02  0.7816164E-02  0.1184000E+00
        -11   -1    0    0    0    0  0.00000000000E+00  0.00000000000E+00  0.45593999997E+02  0.45594000000E+02  0.51100000000E-03 0. -1.
         11   -1    0    0    0    0 -0.00000000000E+00 -0.00000000000E+00 -0.45593999997E+02  0.45594000000E+02  0.51100000000E-03 0.  1.
         23    2    1    2    0    0  0.00000000000E+00 -0.35527136788E-14  0.27755575616E-15  0.91188000000E+02  0.91188000000E+02 0.  0.
    9900012    2    3    3    0    0 -0.26605334482E+02  0.25450176257E+02  0.47355983694E+00  0.54367088098E+02  0.40000008937E+02 0.  0.
        -12    1    3    3    0    0  0.26605334482E+02 -0.25450176257E+02 -0.47355983694E+00  0.36820911902E+02  0.00000000000E+00 0.  1.
         11    1    4    4    0    0 -0.62721987153E+01 -0.64194383658E+00  0.15859345347E+02  0.17066675239E+02  0.51100000000E-03 0. -1.
        -11    1    4    4    0    0 -0.12351949424E+02  0.19434937385E+02 -0.73809858420E+01  0.24181943635E+02  0.51100000000E-03 0.  1.
         12    1    4    4    0    0 -0.79811863429E+01  0.66571827084E+01 -0.80047996679E+01  0.13118469224E+02  0.00000000000E+00 0. -1.
</event>
<event>
 8    1  0.2502398E-006  0.9118800E+02  0.7816164E-02  0.1184000E+00
        -11   -1    0    0    0    0  0.00000000000E+00  0.00000000000E+00  0.45593999997E+02  0.45594000000E+02  0.51100000000E-03 0. -1.
         11   -1    0    0    0    0 -0.00000000000E+00 -0.00000000000E+00 -0.45593999997E+02  0.45594000000E+02  0.51100000000E-03 0.  1.
         23    2    1    2    0    0  0.00000000000E+00  0.00000000000E+00  0.71054273576E-14  0.91188000000E+02  0.91188000000E+02 0.  0.
    9900012    2    3    3    0    0 -0.30801981423E+01 -0.10291290775E+02  0.35219046766E+02  0.54367088258E+02  0.40000009302E+02 0.  0.
        -12    1    3    3    0    0  0.30801981423E+01  0.10291290775E+02 -0.35219046766E+02  0.36820911742E+02  0.00000000000E+00 0.  1.
         11    1    4    4    0    0 -0.10428569326E+02 -0.11957501932E+02  0.20429889276E+02  0.25867301497E+02  0.51100000000E-03 0. -1.
        -11    1    4    4    0    0  0.45313232238E+01  0.12200109654E+02  0.10720614341E+02  0.16861409722E+02  0.51100000000E-03 0.  1.
        -12    1    4    4    0    0  0.28170479600E+01 -0.10533898497E+02  0.40685431490E+01  0.11638377039E+02  0.00000000000E+00 0.  1.
</event>
<event>
 8    1  0.2502398E-006  0.9118800E+02  0.7816164E-02  0.1184000E+00
        -11   -1    0    0    0    0  0.00000000000E+00  0.00000000000E+00  0.45593999997E+02  0.45594000000E+02  0.51100000000E-03 0.  1.
         11   -1    0    0    0    0 -0.00000000000E+00 -0.00000000000E+00 -0.45593999997E+02  0.45594000000E+02  0.51100000000E-03 0. -1.
         23    2    1    2    0    0 -0.35527136788E-14  0.35527136788E-14 -0.88817841970E-15  0.91188000000E+02  0.91188000000E+02 0.  0.
    9900012    2    3    3    0    0 -0.23219724400E+02  0.27571724352E+02  0.75116341542E+01  0.54367078873E+02  0.39999987907E+02 0.  0.
        -12    1    3    3    0    0  0.23219724400E+02 -0.27571724352E+02 -0.75116341542E+01  0.36820921127E+02  0.00000000000E+00 0.  1.
         11    1    4    4    0    0 -0.25354928537E+02  0.12867200066E+02 -0.31133223636E+00  0.28434735214E+02  0.51100000000E-03 0. -1.
        -11    1    4    4    0    0  0.43891700398E+01 -0.38164810228E+01  0.34727989378E+01  0.67742655513E+01  0.51100000000E-03 0.  1.
         12    1    4    4    0    0 -0.22539659032E+01  0.18521005309E+02  0.43501674528E+01  0.19158078108E+02  0.00000000000E+00 0. -1.
</event>
<event>
 8    1  0.2502398E-006  0.9118800E+02  0.7816164E-02  0.1184000E+00
        -11   -1    0    0    0    0  0.00000000000E+00  0.00000000000E+00  0.45593999997E+02  0.45594000000E+02  0.51100000000E-03 0.  1.
         11   -1    0    0    0    0 -0.00000000000E+00 -0.00000000000E+00 -0.45593999997E+02  0.45594000000E+02  0.51100000000E-03 0. -1.
         23    2    1    2    0    0  0.00000000000E+00  0.35527136788E-14 -0.35527136788E-14  0.91188000000E+02  0.91188000000E+02 0.  0.
    9900012    2    3    3    0    0  0.15685028913E+02  0.27160035990E+02  0.19289724424E+02  0.54367066344E+02  0.39999959343E+02 0.  0.
         12    1    3    3    0    0 -0.15685028913E+02 -0.27160035990E+02 -0.19289724424E+02  0.36820933656E+02  0.00000000000E+00 0. -1.
         11    1    4    4    0    0  0.11716734401E+02  0.18263223020E+02 -0.93019782362E+01  0.23608345548E+02  0.51100000000E-03 0. -1.
        -11    1    4    4    0    0  0.15674932707E+01  0.13963767299E+01  0.15940421403E+01  0.26358819647E+01  0.51100000000E-03 0.  1.
        -12    1    4    4    0    0  0.24008012414E+01  0.75004362394E+01  0.26997660520E+02  0.28122838831E+02  0.00000000000E+00 0.  1.
</event>
<event>
 8    1  0.2502398E-006  0.9118800E+02  0.7816164E-02  0.1184000E+00
        -11   -1    0    0    0    0  0.00000000000E+00  0.00000000000E+00  0.45593999997E+02  0.45594000000E+02  0.51100000000E-03 0. -1.
         11   -1    0    0    0    0 -0.00000000000E+00 -0.00000000000E+00 -0.45593999997E+02  0.45594000000E+02  0.51100000000E-03 0.  1.
         23    2    1    2    0    0  0.00000000000E+00  0.17763568394E-14  0.00000000000E+00  0.91188000000E+02  0.91188000000E+02 0.  0.
    9900012    2    3    3    0    0  0.32985504072E+02  0.56541812363E+01 -0.15354716403E+02  0.54367074426E+02  0.39999977769E+02 0.  0.
        -12    1    3    3    0    0 -0.32985504072E+02 -0.56541812363E+01  0.15354716403E+02  0.36820925574E+02  0.00000000000E+00 0.  1.
         11    1    4    4    0    0  0.10729904413E+02  0.61519068187E+01 -0.74335296313E+01  0.14430321176E+02  0.51100000000E-03 0. -1.
        -11    1    4    4    0    0  0.30476585720E+01  0.13991791169E+02 -0.67950097928E+01  0.15850255557E+02  0.51100000000E-03 0.  1.
        -12    1    4    4    0    0  0.19207941087E+02 -0.14489516751E+02 -0.11261769794E+01  0.24086497692E+02  0.00000000000E+00 0.  1.
</event>
<event>
 8    1  0.2502398E-006  0.9118800E+02  0.7816164E-02  0.1184000E+00
        -11   -1    0    0    0    0  0.00000000000E+00  0.00000000000E+00  0.45593999997E+02  0.45594000000E+02  0.51100000000E-03 0.  1.
         11   -1    0    0    0    0 -0.00000000000E+00 -0.00000000000E+00 -0.45593999997E+02  0.45594000000E+02  0.51100000000E-03 0. -1.
         23    2    1    2    0    0  0.35527136788E-14  0.17763568394E-14  0.00000000000E+00  0.91188000000E+02  0.91188000000E+02 0.  0.
    9900012    2    3    3    0    0 -0.22787648057E+02  0.11974343342E+02  0.26326910929E+02  0.54367244419E+02  0.40000365301E+02 0.  0.
         12    1    3    3    0    0  0.22787648057E+02 -0.11974343342E+02 -0.26326910929E+02  0.36820755581E+02  0.00000000000E+00 0. -1.
         11    1    4    4    0    0 -0.99707527201E+00  0.16454408585E+01 -0.18846316438E+01  0.26932269512E+01  0.51100000000E-03 0. -1.
        -11    1    4    4    0    0 -0.19988796443E+02  0.22863883371E+02  0.17259984763E+02  0.34931593441E+02  0.51100000000E-03 0.  1.
         12    1    4    4    0    0 -0.18017763416E+01 -0.12534980887E+02  0.10951557811E+02  0.16742424027E+02  0.00000000000E+00 0. -1.
</event>
<event>
 8    1  0.2502398E-006  0.9118800E+02  0.7816164E-02  0.1184000E+00
        -11   -1    0    0    0    0  0.00000000000E+00  0.00000000000E+00  0.45593999997E+02  0.45594000000E+02  0.51100000000E-03 0.  1.
         11   -1    0    0    0    0 -0.00000000000E+00 -0.00000000000E+00 -0.45593999997E+02  0.45594000000E+02  0.51100000000E-03 0. -1.
         23    2    1    2    0    0 -0.35527136788E-14  0.44408920985E-15  0.00000000000E+00  0.91188000000E+02  0.91188000000E+02 0.  0.
    9900012    2    3    3    0    0  0.17315831147E+02 -0.24803183609E+01 -0.32400472962E+02  0.54367073400E+02  0.39999975431E+02 0.  0.
        -12    1    3    3    0    0 -0.17315831147E+02  0.24803183609E+01  0.32400472962E+02  0.36820926600E+02  0.00000000000E+00 0.  1.
         11    1    4    4    0    0 -0.48055576295E+01 -0.72765118179E+01 -0.42425351976E+01  0.96974281915E+01  0.51100000000E-03 0. -1.
        -11    1    4    4    0    0  0.14423422433E+02  0.66381173062E+01 -0.48295059021E+00  0.15884991582E+02  0.51100000000E-03 0.  1.
         12    1    4    4    0    0  0.76979663437E+01 -0.18419238492E+01 -0.27674987174E+02  0.28784653627E+02  0.00000000000E+00 0. -1.
</event>
<event>
 8    1  0.2502398E-006  0.9118800E+02  0.7816164E-02  0.1184000E+00
        -11   -1    0    0    0    0  0.00000000000E+00  0.00000000000E+00  0.45593999997E+02  0.45594000000E+02  0.51100000000E-03 0.  1.
         11   -1    0    0    0    0 -0.00000000000E+00 -0.00000000000E+00 -0.45593999997E+02  0.45594000000E+02  0.51100000000E-03 0. -1.
         23    2    1    2    0    0 -0.17763568394E-14  0.00000000000E+00  0.00000000000E+00  0.91188000000E+02  0.91188000000E+02 0.  0.
    9900012    2    3    3    0    0 -0.36845402850E+00 -0.19322765178E+02 -0.31341293268E+02  0.54367059270E+02  0.39999943218E+02 0.  0.
        -12    1    3    3    0    0  0.36845402850E+00  0.19322765178E+02  0.31341293268E+02  0.36820940730E+02  0.00000000000E+00 0.  1.
         11    1    4    4    0    0 -0.12478577664E+02 -0.16598809700E+02 -0.74343537700E+01  0.22056858349E+02  0.51100000000E-03 0.  1.
        -11    1    4    4    0    0  0.92002117856E+01  0.21781934781E+01 -0.24798938297E+02  0.26540078460E+02  0.51100000000E-03 0. -1.
         12    1    4    4    0    0  0.29099118502E+01 -0.49021489562E+01  0.89199879839E+00  0.57701224615E+01  0.00000000000E+00 0. -1.
</event>
<event>
 8    1  0.2502398E-006  0.9118800E+02  0.7816164E-02  0.1184000E+00
        -11   -1    0    0    0    0  0.00000000000E+00  0.00000000000E+00  0.45593999997E+02  0.45594000000E+02  0.51100000000E-03 0. -1.
         11   -1    0    0    0    0 -0.00000000000E+00 -0.00000000000E+00 -0.45593999997E+02  0.45594000000E+02  0.51100000000E-03 0.  1.
         23    2    1    2    0    0 -0.35527136788E-14  0.35527136788E-14 -0.71054273576E-14  0.91188000000E+02  0.91188000000E+02 0.  0.
    9900012    2    3    3    0    0  0.11471084920E+02 -0.24112157050E+02  0.25353465924E+02  0.54367080114E+02  0.39999990737E+02 0.  0.
        -12    1    3    3    0    0 -0.11471084920E+02  0.24112157050E+02 -0.25353465924E+02  0.36820919886E+02  0.00000000000E+00 0.  1.
         11    1    4    4    0    0 -0.38785861264E+01 -0.70787358841E+01 -0.63675624899E+01  0.10280942777E+02  0.51100000000E-03 0. -1.
        -11    1    4    4    0    0 -0.29407796015E+01 -0.33564422881E+01 -0.60801090054E+00  0.45037281240E+01  0.51100000000E-03 0.  1.
         12    1    4    4    0    0  0.18290450648E+02 -0.13676978877E+02  0.32329039315E+02  0.39582409214E+02  0.00000000000E+00 0. -1.
</event>
<event>
 8    1  0.2502398E-006  0.9118800E+02  0.7816164E-02  0.1184000E+00
        -11   -1    0    0    0    0  0.00000000000E+00  0.00000000000E+00  0.45593999997E+02  0.45594000000E+02  0.51100000000E-03 0.  1.
         11   -1    0    0    0    0 -0.00000000000E+00 -0.00000000000E+00 -0.45593999997E+02  0.45594000000E+02  0.51100000000E-03 0. -1.
         23    2    1    2    0    0  0.17763568394E-14  0.00000000000E+00  0.17763568394E-14  0.91188000000E+02  0.91188000000E+02 0.  0.
    9900012    2    3    3    0    0  0.15855283392E+02  0.30727738358E+02 -0.12656824333E+02  0.54367094006E+02  0.40000022406E+02 0.  0.
        -12    1    3    3    0    0 -0.15855283392E+02 -0.30727738358E+02  0.12656824333E+02  0.36820905994E+02  0.00000000000E+00 0.  1.
         11    1    4    4    0    0  0.17166879427E+02  0.24254202065E+02 -0.42394908322E+01  0.30015685064E+02  0.51100000000E-03 0. -1.
        -11    1    4    4    0    0  0.33533947795E+01 -0.13483778312E+01  0.61722114331E+01  0.71525920868E+01  0.51100000000E-03 0.  1.
        -12    1    4    4    0    0 -0.46649908152E+01  0.78219141235E+01 -0.14589544933E+02  0.17198816855E+02  0.00000000000E+00 0.  1.
</event>
<event>
 8    1  0.2502398E-006  0.9118800E+02  0.7816164E-02  0.1184000E+00
        -11   -1    0    0    0    0  0.00000000000E+00  0.00000000000E+00  0.45593999997E+02  0.45594000000E+02  0.51100000000E-03 0. -1.
         11   -1    0    0    0    0 -0.00000000000E+00 -0.00000000000E+00 -0.45593999997E+02  0.45594000000E+02  0.51100000000E-03 0.  1.
         23    2    1    2    0    0  0.00000000000E+00 -0.35527136788E-14  0.35527136788E-14  0.91188000000E+02  0.91188000000E+02 0.  0.
    9900012    2    3    3    0    0 -0.15527121573E+02 -0.20840984413E+02  0.26083369913E+02  0.54367077664E+02  0.39999985151E+02 0.  0.
        -12    1    3    3    0    0  0.15527121573E+02  0.20840984413E+02 -0.26083369913E+02  0.36820922336E+02  0.00000000000E+00 0.  1.
         11    1    4    4    0    0 -0.23571507654E+01 -0.18609462466E+01  0.10931854417E+01  0.31959873802E+01  0.51100000000E-03 0. -1.
        -11    1    4    4    0    0  0.16163333705E+01  0.10833352269E+02  0.93458271994E+01  0.14398560388E+02  0.51100000000E-03 0.  1.
         12    1    4    4    0    0 -0.14786304178E+02 -0.29813390435E+02  0.15644357272E+02  0.36772529896E+02  0.00000000000E+00 0. -1.
</event>
<event>
 8    1  0.2502398E-006  0.9118800E+02  0.7816164E-02  0.1184000E+00
        -11   -1    0    0    0    0  0.00000000000E+00  0.00000000000E+00  0.45593999997E+02  0.45594000000E+02  0.51100000000E-03 0.  1.
         11   -1    0    0    0    0 -0.00000000000E+00 -0.00000000000E+00 -0.45593999997E+02  0.45594000000E+02  0.51100000000E-03 0. -1.
         23    2    1    2    0    0  0.00000000000E+00  0.00000000000E+00  0.00000000000E+00  0.91188000000E+02  0.91188000000E+02 0.  0.
    9900012    2    3    3    0    0  0.10917616455E+02  0.21869700499E+02 -0.27537215576E+02  0.54367131044E+02  0.40000106842E+02 0.  0.
        -12    1    3    3    0    0 -0.10917616455E+02 -0.21869700499E+02  0.27537215576E+02  0.36820868956E+02  0.00000000000E+00 0.  1.
         11    1    4    4    0    0  0.42950589393E+01  0.43020187220E+01 -0.17858921791E+02  0.18865205649E+02  0.51100000000E-03 0. -1.
        -11    1    4    4    0    0  0.77283204241E+01  0.23097365423E+02 -0.14271140412E+02  0.28229074993E+02  0.51100000000E-03 0.  1.
        -12    1    4    4    0    0 -0.11057629080E+01 -0.55296836462E+01  0.45928466269E+01  0.72728504023E+01  0.00000000000E+00 0.  1.
</event>
<event>
 8    1  0.2502398E-006  0.9118800E+02  0.7816164E-02  0.1184000E+00
        -11   -1    0    0    0    0  0.00000000000E+00  0.00000000000E+00  0.45593999997E+02  0.45594000000E+02  0.51100000000E-03 0.  1.
         11   -1    0    0    0    0 -0.00000000000E+00 -0.00000000000E+00 -0.45593999997E+02  0.45594000000E+02  0.51100000000E-03 0. -1.
         23    2    1    2    0    0  0.00000000000E+00  0.00000000000E+00  0.00000000000E+00  0.91188000000E+02  0.91188000000E+02 0.  0.
    9900012    2    3    3    0    0 -0.20003305918E+02 -0.68395694197E+01 -0.30147476181E+02  0.54367051104E+02  0.39999924603E+02 0.  0.
        -12    1    3    3    0    0  0.20003305918E+02  0.68395694197E+01  0.30147476181E+02  0.36820948896E+02  0.00000000000E+00 0.  1.
         11    1    4    4    0    0 -0.39118815261E+01 -0.43589763742E+01 -0.25603057344E+02  0.26264425326E+02  0.51100000000E-03 0. -1.
        -11    1    4    4    0    0 -0.20887814863E+01 -0.80263909871E+01 -0.91537429459E+01  0.12352205089E+02  0.51100000000E-03 0.  1.
        -12    1    4    4    0    0 -0.14002642906E+02  0.55457979416E+01  0.46093241090E+01  0.15750420689E+02  0.00000000000E+00 0.  1.
</event>
<event>
 8    1  0.2502398E-006  0.9118800E+02  0.7816164E-02  0.1184000E+00
        -11   -1    0    0    0    0  0.00000000000E+00  0.00000000000E+00  0.45593999997E+02  0.45594000000E+02  0.51100000000E-03 0. -1.
         11   -1    0    0    0    0 -0.00000000000E+00 -0.00000000000E+00 -0.45593999997E+02  0.45594000000E+02  0.51100000000E-03 0.  1.
         23    2    1    2    0    0  0.35527136788E-14  0.00000000000E+00  0.00000000000E+00  0.91188000000E+02  0.91188000000E+02 0.  0.
    9900012    2    3    3    0    0  0.27736952650E+02 -0.17483757059E+02  0.16755882727E+02  0.54367083265E+02  0.39999997920E+02 0.  0.
        -12    1    3    3    0    0 -0.27736952650E+02  0.17483757059E+02 -0.16755882727E+02  0.36820916735E+02  0.00000000000E+00 0.  1.
         11    1    4    4    0    0  0.12444622451E+02  0.11078292940E+02  0.12520056986E+02  0.20841041951E+02  0.51100000000E-03 0.  1.
        -11    1    4    4    0    0  0.91024756818E+01 -0.10020016734E+02  0.34129651793E+01  0.13960806941E+02  0.51100000000E-03 0. -1.
        -12    1    4    4    0    0  0.61898545179E+01 -0.18542033265E+02  0.82286056213E+00  0.19565234373E+02  0.00000000000E+00 0.  1.
</event>
<event>
 8    1  0.2502398E-006  0.9118800E+02  0.7816164E-02  0.1184000E+00
        -11   -1    0    0    0    0  0.00000000000E+00  0.00000000000E+00  0.45593999997E+02  0.45594000000E+02  0.51100000000E-03 0. -1.
         11   -1    0    0    0    0 -0.00000000000E+00 -0.00000000000E+00 -0.45593999997E+02  0.45594000000E+02  0.51100000000E-03 0.  1.
         23    2    1    2    0    0 -0.35527136788E-14  0.00000000000E+00  0.35527136788E-14  0.91188000000E+02  0.91188000000E+02 0.  0.
    9900012    2    3    3    0    0  0.27676293126E+02  0.44475066695E+01  0.23875119860E+02  0.54367097443E+02  0.40000030241E+02 0.  0.
        -12    1    3    3    0    0 -0.27676293126E+02 -0.44475066695E+01 -0.23875119860E+02  0.36820902557E+02  0.00000000000E+00 0.  1.
         11    1    4    4    0    0  0.10664221203E+02  0.54351754235E+01  0.66575508336E+01  0.13696339990E+02  0.51100000000E-03 0. -1.
        -11    1    4    4    0    0  0.16177087281E+02 -0.11500008442E+02 -0.72201552857E+00  0.19861260125E+02  0.51100000000E-03 0.  1.
         12    1    4    4    0    0  0.83498464284E+00  0.10512339688E+02  0.17939584555E+02  0.20809497329E+02  0.00000000000E+00 0. -1.
</event>
<event>
 8    1  0.2502398E-006  0.9118800E+02  0.7816164E-02  0.1184000E+00
        -11   -1    0    0    0    0  0.00000000000E+00  0.00000000000E+00  0.45593999997E+02  0.45594000000E+02  0.51100000000E-03 0.  1.
         11   -1    0    0    0    0 -0.00000000000E+00 -0.00000000000E+00 -0.45593999997E+02  0.45594000000E+02  0.51100000000E-03 0. -1.
         23    2    1    2    0    0  0.00000000000E+00  0.00000000000E+00  0.00000000000E+00  0.91188000000E+02  0.91188000000E+02 0.  0.
    9900012    2    3    3    0    0 -0.20372642943E+02 -0.20965162545E+02  0.22387407241E+02  0.54367100717E+02  0.40000037705E+02 0.  0.
         12    1    3    3    0    0  0.20372642943E+02  0.20965162545E+02 -0.22387407241E+02  0.36820899283E+02  0.00000000000E+00 0. -1.
         11    1    4    4    0    0 -0.17914914686E+02  0.68441026301E+00  0.22194002575E+02  0.28530445776E+02  0.51100000000E-03 0. -1.
        -11    1    4    4    0    0  0.40466563971E+01 -0.11471513141E+02  0.45625457025E+01  0.12991838411E+02  0.51100000000E-03 0.  1.
         12    1    4    4    0    0 -0.65043846545E+01 -0.10178059666E+02 -0.43691410363E+01  0.12844816530E+02  0.00000000000E+00 0. -1.
</event>
<event>
 8    1  0.2502398E-006  0.9118800E+02  0.7816164E-02  0.1184000E+00
        -11   -1    0    0    0    0  0.00000000000E+00  0.00000000000E+00  0.45593999997E+02  0.45594000000E+02  0.51100000000E-03 0. -1.
         11   -1    0    0    0    0 -0.00000000000E+00 -0.00000000000E+00 -0.45593999997E+02  0.45594000000E+02  0.51100000000E-03 0.  1.
         23    2    1    2    0    0  0.88817841970E-15  0.00000000000E+00  0.71054273576E-14  0.91188000000E+02  0.91188000000E+02 0.  0.
    9900012    2    3    3    0    0 -0.71487113809E+01 -0.12072286662E+02  0.34043144316E+02  0.54367084007E+02  0.39999999611E+02 0.  0.
        -12    1    3    3    0    0  0.71487113809E+01  0.12072286662E+02 -0.34043144316E+02  0.36820915993E+02  0.00000000000E+00 0.  1.
         11    1    4    4    0    0 -0.66195340943E+01  0.19381196210E+01  0.81704518117E+01  0.10692559205E+02  0.51100000000E-03 0. -1.
        -11    1    4    4    0    0 -0.81524466730E+01  0.40512263748E+00  0.26119850376E+02  0.27365545765E+02  0.51100000000E-03 0.  1.
         12    1    4    4    0    0  0.76232693864E+01 -0.14415528921E+02 -0.24715787163E+00  0.16308979036E+02  0.00000000000E+00 0. -1.
</event>
<event>
 8    1  0.2502398E-006  0.9118800E+02  0.7816164E-02  0.1184000E+00
        -11   -1    0    0    0    0  0.00000000000E+00  0.00000000000E+00  0.45593999997E+02  0.45594000000E+02  0.51100000000E-03 0. -1.
         11   -1    0    0    0    0 -0.00000000000E+00 -0.00000000000E+00 -0.45593999997E+02  0.45594000000E+02  0.51100000000E-03 0.  1.
         23    2    1    2    0    0  0.00000000000E+00  0.00000000000E+00  0.00000000000E+00  0.91188000000E+02  0.91188000000E+02 0.  0.
    9900012    2    3    3    0    0 -0.11055873685E+02  0.27026968487E+02 -0.22429680554E+02  0.54367082870E+02  0.39999997019E+02 0.  0.
         12    1    3    3    0    0  0.11055873685E+02 -0.27026968487E+02  0.22429680554E+02  0.36820917130E+02  0.00000000000E+00 0. -1.
         11    1    4    4    0    0  0.71300855839E+01  0.14062644408E+02 -0.66091412596E+01  0.17096105891E+02  0.51100000000E-03 0. -1.
        -11    1    4    4    0    0 -0.42714743795E+01  0.74615178078E+01 -0.19970895969E+02  0.21742962711E+02  0.51100000000E-03 0.  1.
        -12    1    4    4    0    0 -0.13914484890E+02  0.55028062712E+01  0.41503566743E+01  0.15528014269E+02  0.00000000000E+00 0.  1.
</event>
<event>
 8    1  0.2502398E-006  0.9118800E+02  0.7816164E-02  0.1184000E+00
        -11   -1    0    0    0    0  0.00000000000E+00  0.00000000000E+00  0.45593999997E+02  0.45594000000E+02  0.51100000000E-03 0. -1.
         11   -1    0    0    0    0 -0.00000000000E+00 -0.00000000000E+00 -0.45593999997E+02  0.45594000000E+02  0.51100000000E-03 0.  1.
         23    2    1    2    0    0  0.00000000000E+00  0.88817841970E-15  0.00000000000E+00  0.91188000000E+02  0.91188000000E+02 0.  0.
    9900012    2    3    3    0    0 -0.57816246382E+01 -0.48587952222E+01 -0.36038090263E+02  0.54367095281E+02  0.40000025313E+02 0.  0.
         12    1    3    3    0    0  0.57816246382E+01  0.48587952222E+01  0.36038090263E+02  0.36820904719E+02  0.00000000000E+00 0. -1.
         11    1    4    4    0    0  0.76328197887E+01  0.11333449390E+02 -0.46805085711E+01  0.14443482050E+02  0.51100000000E-03 0. -1.
        -11    1    4    4    0    0 -0.85417392677E+01 -0.40561826885E+01 -0.54796607826E+01  0.10928888794E+02  0.51100000000E-03 0.  1.
         12    1    4    4    0    0 -0.48727051593E+01 -0.12136061923E+02 -0.25877920910E+02  0.28994724437E+02  0.00000000000E+00 0. -1.
</event>
<event>
 8    1  0.2502398E-006  0.9118800E+02  0.7816164E-02  0.1184000E+00
        -11   -1    0    0    0    0  0.00000000000E+00  0.00000000000E+00  0.45593999997E+02  0.45594000000E+02  0.51100000000E-03 0. -1.
         11   -1    0    0    0    0 -0.00000000000E+00 -0.00000000000E+00 -0.45593999997E+02  0.45594000000E+02  0.51100000000E-03 0.  1.
         23    2    1    2    0    0  0.88817841970E-15  0.00000000000E+00  0.17763568394E-14  0.91188000000E+02  0.91188000000E+02 0.  0.
    9900012    2    3    3    0    0  0.38937591782E+01  0.36223512484E+02  0.53362172884E+01  0.54367089743E+02  0.40000012686E+02 0.  0.
        -12    1    3    3    0    0 -0.38937591782E+01 -0.36223512484E+02 -0.53362172884E+01  0.36820910257E+02  0.00000000000E+00 0.  1.
         11    1    4    4    0    0 -0.30361307587E+01  0.31248724936E+02 -0.11720456747E+02  0.33512236671E+02  0.51100000000E-03 0. -1.
        -11    1    4    4    0    0 -0.10072136002E+00  0.48461387712E+01  0.84425937639E+01  0.97351217510E+01  0.51100000000E-03 0.  1.
         12    1    4    4    0    0  0.70306112969E+01  0.12864877717E+00  0.86140802714E+01  0.11119731320E+02  0.00000000000E+00 0. -1.
</event>
<event>
 8    1  0.2502398E-006  0.9118800E+02  0.7816164E-02  0.1184000E+00
        -11   -1    0    0    0    0  0.00000000000E+00  0.00000000000E+00  0.45593999997E+02  0.45594000000E+02  0.51100000000E-03 0.  1.
         11   -1    0    0    0    0 -0.00000000000E+00 -0.00000000000E+00 -0.45593999997E+02  0.45594000000E+02  0.51100000000E-03 0. -1.
         23    2    1    2    0    0  0.00000000000E+00  0.00000000000E+00 -0.35527136788E-14  0.91188000000E+02  0.91188000000E+02 0.  0.
    9900012    2    3    3    0    0 -0.18588696539E+02  0.24476191939E+02 -0.20276987340E+02  0.54367084390E+02  0.40000000483E+02 0.  0.
        -12    1    3    3    0    0  0.18588696539E+02 -0.24476191939E+02  0.20276987340E+02  0.36820915610E+02  0.00000000000E+00 0.  1.
         11    1    4    4    0    0  0.82589864581E+01  0.29516273565E+01  0.45955151503E+01  0.99016019474E+01  0.51100000000E-03 0. -1.
        -11    1    4    4    0    0 -0.14086326056E+02  0.50448976305E+01 -0.53004325988E+01  0.15873567962E+02  0.51100000000E-03 0.  1.
         12    1    4    4    0    0 -0.12761356941E+02  0.16479666952E+02 -0.19572069891E+02  0.28591914480E+02  0.00000000000E+00 0. -1.
</event>
<event>
 8    1  0.2502398E-006  0.9118800E+02  0.7816164E-02  0.1184000E+00
        -11   -1    0    0    0    0  0.00000000000E+00  0.00000000000E+00  0.45593999997E+02  0.45594000000E+02  0.51100000000E-03 0.  1.
         11   -1    0    0    0    0 -0.00000000000E+00 -0.00000000000E+00 -0.45593999997E+02  0.45594000000E+02  0.51100000000E-03 0. -1.
         23    2    1    2    0    0 -0.17763568394E-14 -0.35527136788E-14  0.00000000000E+00  0.91188000000E+02  0.91188000000E+02 0.  0.
    9900012    2    3    3    0    0  0.30621468596E+01  0.30062483096E+02  0.21039267463E+02  0.54367076483E+02  0.39999982459E+02 0.  0.
         12    1    3    3    0    0 -0.30621468596E+01 -0.30062483096E+02 -0.21039267463E+02  0.36820923517E+02  0.00000000000E+00 0. -1.
         11    1    4    4    0    0 -0.10495999635E+02  0.13436864675E+02  0.89131497284E+01  0.19239531672E+02  0.51100000000E-03 0. -1.
        -11    1    4    4    0    0  0.13267948615E+02  0.73209942023E+00  0.13782856372E+02  0.19145275136E+02  0.51100000000E-03 0.  1.
        -12    1    4    4    0    0  0.29019787913E+00  0.15893519001E+02 -0.16567386377E+01  0.15982269674E+02  0.00000000000E+00 0.  1.
</event>
<event>
 8    1  0.2502398E-006  0.9118800E+02  0.7816164E-02  0.1184000E+00
        -11   -1    0    0    0    0  0.00000000000E+00  0.00000000000E+00  0.45593999997E+02  0.45594000000E+02  0.51100000000E-03 0.  1.
         11   -1    0    0    0    0 -0.00000000000E+00 -0.00000000000E+00 -0.45593999997E+02  0.45594000000E+02  0.51100000000E-03 0. -1.
         23    2    1    2    0    0  0.00000000000E+00 -0.17763568394E-14  0.00000000000E+00  0.91188000000E+02  0.91188000000E+02 0.  0.
    9900012    2    3    3    0    0  0.12344184057E+02 -0.52246454257E+01 -0.34294369658E+02  0.54367087599E+02  0.40000007799E+02 0.  0.
        -12    1    3    3    0    0 -0.12344184057E+02  0.52246454257E+01  0.34294369658E+02  0.36820912401E+02  0.00000000000E+00 0.  1.
         11    1    4    4    0    0  0.41377840690E+01 -0.41391204936E+01 -0.28173412614E+01  0.64954589912E+01  0.51100000000E-03 0. -1.
        -11    1    4    4    0    0  0.55204347416E+01  0.16403306772E+02 -0.97971915222E+01  0.19887901719E+02  0.51100000000E-03 0.  1.
        -12    1    4    4    0    0  0.26859652464E+01 -0.17488831704E+02 -0.21679836874E+02  0.27983726888E+02  0.00000000000E+00 0.  1.
</event>
<event>
 8    1  0.2502398E-006  0.9118800E+02  0.7816164E-02  0.1184000E+00
        -11   -1    0    0    0    0  0.00000000000E+00  0.00000000000E+00  0.45593999997E+02  0.45594000000E+02  0.51100000000E-03 0. -1.
         11   -1    0    0    0    0 -0.00000000000E+00 -0.00000000000E+00 -0.45593999997E+02  0.45594000000E+02  0.51100000000E-03 0.  1.
         23    2    1    2    0    0  0.00000000000E+00  0.00000000000E+00  0.00000000000E+00  0.91188000000E+02  0.91188000000E+02 0.  0.
    9900012    2    3    3    0    0 -0.21317601694E+02  0.28577504587E+02 -0.92014634604E+01  0.54367070623E+02  0.39999969099E+02 0.  0.
        -12    1    3    3    0    0  0.21317601694E+02 -0.28577504587E+02  0.92014634604E+01  0.36820929377E+02  0.00000000000E+00 0.  1.
         11    1    4    4    0    0 -0.23107830436E+02  0.19576079083E+02 -0.27337680828E+01  0.30408357205E+02  0.51100000000E-03 0. -1.
        -11    1    4    4    0    0 -0.88610157752E+01 -0.31759898923E+00 -0.17270699349E+01  0.90333404955E+01  0.51100000000E-03 0.  1.
         12    1    4    4    0    0  0.10651244518E+02  0.93190244932E+01 -0.47406254427E+01  0.14925372922E+02  0.00000000000E+00 0. -1.
</event>
<event>
 8    1  0.2502398E-006  0.9118800E+02  0.7816164E-02  0.1184000E+00
        -11   -1    0    0    0    0  0.00000000000E+00  0.00000000000E+00  0.45593999997E+02  0.45594000000E+02  0.51100000000E-03 0. -1.
         11   -1    0    0    0    0 -0.00000000000E+00 -0.00000000000E+00 -0.45593999997E+02  0.45594000000E+02  0.51100000000E-03 0.  1.
         23    2    1    2    0    0  0.00000000000E+00  0.00000000000E+00  0.00000000000E+00  0.91188000000E+02  0.91188000000E+02 0.  0.
    9900012    2    3    3    0    0 -0.74343052538E+01  0.32235328436E+02  0.16167833790E+02  0.54367025767E+02  0.39999866841E+02 0.  0.
        -12    1    3    3    0    0  0.74343052538E+01 -0.32235328436E+02 -0.16167833790E+02  0.36820974233E+02  0.00000000000E+00 0.  1.
         11    1    4    4    0    0 -0.12117400833E+02  0.15158602294E+02  0.18628311408E+02  0.26900345957E+02  0.51100000000E-03 0. -1.
        -11    1    4    4    0    0  0.49066780638E+01 -0.11165889539E+01 -0.70880971240E+01  0.86927200354E+01  0.51100000000E-03 0.  1.
         12    1    4    4    0    0 -0.22358248498E+00  0.18193315096E+02  0.46276195066E+01  0.18773959774E+02  0.00000000000E+00 0. -1.
</event>
<event>
 8    1  0.2502398E-006  0.9118800E+02  0.7816164E-02  0.1184000E+00
        -11   -1    0    0    0    0  0.00000000000E+00  0.00000000000E+00  0.45593999997E+02  0.45594000000E+02  0.51100000000E-03 0. -1.
         11   -1    0    0    0    0 -0.00000000000E+00 -0.00000000000E+00 -0.45593999997E+02  0.45594000000E+02  0.51100000000E-03 0.  1.
         23    2    1    2    0    0  0.17763568394E-14  0.00000000000E+00  0.00000000000E+00  0.91188000000E+02  0.91188000000E+02 0.  0.
    9900012    2    3    3    0    0  0.11000820374E+02  0.29956290553E+02 -0.18367970631E+02  0.54367085594E+02  0.40000003229E+02 0.  0.
        -12    1    3    3    0    0 -0.11000820374E+02 -0.29956290553E+02  0.18367970631E+02  0.36820914406E+02  0.00000000000E+00 0.  1.
         11    1    4    4    0    0  0.17447693674E+02  0.28748017098E+02 -0.66137195459E+01  0.34272609882E+02  0.51100000000E-03 0. -1.
        -11    1    4    4    0    0 -0.92236350022E+01  0.57878652733E+01 -0.86286905426E+01  0.13893492283E+02  0.51100000000E-03 0.  1.
         12    1    4    4    0    0  0.27767617017E+01 -0.45795918190E+01 -0.31255605428E+01  0.62009834287E+01  0.00000000000E+00 0. -1.
</event>
<event>
 8    1  0.2502398E-006  0.9118800E+02  0.7816164E-02  0.1184000E+00
        -11   -1    0    0    0    0  0.00000000000E+00  0.00000000000E+00  0.45593999997E+02  0.45594000000E+02  0.51100000000E-03 0. -1.
         11   -1    0    0    0    0 -0.00000000000E+00 -0.00000000000E+00 -0.45593999997E+02  0.45594000000E+02  0.51100000000E-03 0.  1.
         23    2    1    2    0    0  0.35527136788E-14  0.00000000000E+00  0.71054273576E-14  0.91188000000E+02  0.91188000000E+02 0.  0.
    9900012    2    3    3    0    0 -0.23354222211E+02  0.17412910397E+02  0.22520332275E+02  0.54366885007E+02  0.39999545947E+02 0.  0.
        -12    1    3    3    0    0  0.23354222211E+02 -0.17412910397E+02 -0.22520332275E+02  0.36821114993E+02  0.00000000000E+00 0.  1.
         11    1    4    4    0    0 -0.17688413887E+02  0.48500114936E+01  0.24123532641E+02  0.30304247634E+02  0.51100000000E-03 0. -1.
        -11    1    4    4    0    0  0.61190615671E-01  0.13171827051E+02  0.60414118711E+01  0.14491357073E+02  0.51100000000E-03 0.  1.
        -12    1    4    4    0    0 -0.57269989396E+01 -0.60892814777E+00 -0.76446122365E+01  0.95712803005E+01  0.00000000000E+00 0.  1.
</event>
<event>
 8    1  0.2502398E-006  0.9118800E+02  0.7816164E-02  0.1184000E+00
        -11   -1    0    0    0    0  0.00000000000E+00  0.00000000000E+00  0.45593999997E+02  0.45594000000E+02  0.51100000000E-03 0.  1.
         11   -1    0    0    0    0 -0.00000000000E+00 -0.00000000000E+00 -0.45593999997E+02  0.45594000000E+02  0.51100000000E-03 0. -1.
         23    2    1    2    0    0  0.00000000000E+00 -0.35527136788E-14  0.00000000000E+00  0.91188000000E+02  0.91188000000E+02 0.  0.
    9900012    2    3    3    0    0 -0.20359893985E+02 -0.21903776392E+02 -0.21482077617E+02  0.54367077116E+02  0.39999983902E+02 0.  0.
        -12    1    3    3    0    0  0.20359893985E+02  0.21903776392E+02  0.21482077617E+02  0.36820922884E+02  0.00000000000E+00 0.  1.
         11    1    4    4    0    0 -0.74693255096E+01 -0.17835335377E+02 -0.24891098313E+02  0.31519149530E+02  0.51100000000E-03 0. -1.
        -11    1    4    4    0    0 -0.36987069552E+01 -0.67494792835E+01 -0.57427031850E+01  0.96028404064E+01  0.51100000000E-03 0.  1.
        -12    1    4    4    0    0 -0.91918615200E+01  0.26810382687E+01  0.91517238818E+01  0.13245087180E+02  0.00000000000E+00 0.  1.
</event>
<event>
 8    1  0.2502398E-006  0.9118800E+02  0.7816164E-02  0.1184000E+00
        -11   -1    0    0    0    0  0.00000000000E+00  0.00000000000E+00  0.45593999997E+02  0.45594000000E+02  0.51100000000E-03 0.  1.
         11   -1    0    0    0    0 -0.00000000000E+00 -0.00000000000E+00 -0.45593999997E+02  0.45594000000E+02  0.51100000000E-03 0. -1.
         23    2    1    2    0    0  0.00000000000E+00 -0.17763568394E-14  0.00000000000E+00  0.91188000000E+02  0.91188000000E+02 0.  0.
    9900012    2    3    3    0    0  0.24279106994E+02 -0.64754497267E+01  0.26914179405E+02  0.54367088298E+02  0.40000009392E+02 0.  0.
         12    1    3    3    0    0 -0.24279106994E+02  0.64754497267E+01 -0.26914179405E+02  0.36820911702E+02  0.00000000000E+00 0. -1.
         11    1    4    4    0    0  0.13400881460E+02  0.82994081909E+01  0.13602046442E+02  0.20820169737E+02  0.51100000000E-03 0. -1.
        -11    1    4    4    0    0  0.17525271584E+02 -0.11384490389E+02  0.34518534784E+01  0.21181526343E+02  0.51100000000E-03 0.  1.
        -12    1    4    4    0    0 -0.66470460508E+01 -0.33903675287E+01  0.98602794846E+01  0.12365392218E+02  0.00000000000E+00 0.  1.
</event>
<event>
 8    1  0.2502398E-006  0.9118800E+02  0.7816164E-02  0.1184000E+00
        -11   -1    0    0    0    0  0.00000000000E+00  0.00000000000E+00  0.45593999997E+02  0.45594000000E+02  0.51100000000E-03 0. -1.
         11   -1    0    0    0    0 -0.00000000000E+00 -0.00000000000E+00 -0.45593999997E+02  0.45594000000E+02  0.51100000000E-03 0.  1.
         23    2    1    2    0    0 -0.35527136788E-14  0.00000000000E+00  0.35527136788E-14  0.91188000000E+02  0.91188000000E+02 0.  0.
    9900012    2    3    3    0    0  0.18128704724E+02  0.24882362890E+02  0.20198944596E+02  0.54367091799E+02  0.40000017375E+02 0.  0.
        -12    1    3    3    0    0 -0.18128704724E+02 -0.24882362890E+02 -0.20198944596E+02  0.36820908201E+02  0.00000000000E+00 0.  1.
         11    1    4    4    0    0 -0.83351706809E+00  0.61708679475E+01  0.21901976483E+02  0.22769956874E+02  0.51100000000E-03 0. -1.
        -11    1    4    4    0    0  0.13462071568E+02  0.17498316563E+02  0.52061497564E+01  0.22683087289E+02  0.51100000000E-03 0.  1.
         12    1    4    4    0    0  0.55001502240E+01  0.12131783795E+01 -0.69091816434E+01  0.89140476356E+01  0.00000000000E+00 0. -1.
</event>
<event>
 8    1  0.2502398E-006  0.9118800E+02  0.7816164E-02  0.1184000E+00
        -11   -1    0    0    0    0  0.00000000000E+00  0.00000000000E+00  0.45593999997E+02  0.45594000000E+02  0.51100000000E-03 0.  1.
         11   -1    0    0    0    0 -0.00000000000E+00 -0.00000000000E+00 -0.45593999997E+02  0.45594000000E+02  0.51100000000E-03 0. -1.
         23    2    1    2    0    0  0.00000000000E+00  0.00000000000E+00  0.00000000000E+00  0.91188000000E+02  0.91188000000E+02 0.  0.
    9900012    2    3    3    0    0 -0.43361797584E+01 -0.30367714264E+02  0.20366136395E+02  0.54367081541E+02  0.39999993989E+02 0.  0.
         12    1    3    3    0    0  0.43361797584E+01  0.30367714264E+02 -0.20366136395E+02  0.36820918459E+02  0.00000000000E+00 0. -1.
         11    1    4    4    0    0  0.90596273676E+01 -0.16222645418E+01 -0.14866492120E+01  0.93230207779E+01  0.51100000000E-03 0. -1.
        -11    1    4    4    0    0 -0.63775760414E+01 -0.11405385872E+02  0.22837406135E+02  0.26311659437E+02  0.51100000000E-03 0.  1.
         12    1    4    4    0    0 -0.70182310847E+01 -0.17340063850E+02 -0.98462052819E+00  0.18732401326E+02  0.00000000000E+00 0. -1.
</event>
<event>
 8    1  0.2502398E-006  0.9118800E+02  0.7816164E-02  0.1184000E+00
        -11   -1    0    0    0    0  0.00000000000E+00  0.00000000000E+00  0.45593999997E+02  0.45594000000E+02  0.51100000000E-03 0.  1.
         11   -1    0    0    0    0 -0.00000000000E+00 -0.00000000000E+00 -0.45593999997E+02  0.45594000000E+02  0.51100000000E-03 0. -1.
         23    2    1    2    0    0  0.00000000000E+00 -0.88817841970E-15  0.00000000000E+00  0.91188000000E+02  0.91188000000E+02 0.  0.
    9900012    2    3    3    0    0 -0.34784007713E+02  0.38480584981E+01  0.11447395854E+02  0.54367114370E+02  0.40000068828E+02 0.  0.
         12    1    3    3    0    0  0.34784007713E+02 -0.38480584981E+01 -0.11447395854E+02  0.36820885630E+02  0.00000000000E+00 0. -1.
         11    1    4    4    0    0 -0.37839928947E+02 -0.51357443435E+01  0.75959998672E+01  0.38935013894E+02  0.51100000000E-03 0.  1.
        -11    1    4    4    0    0 -0.56830049620E+00  0.90560137775E+00  0.61842439452E+01  0.62759822135E+01  0.51100000000E-03 0. -1.
         12    1    4    4    0    0  0.36242217302E+01  0.80782014638E+01 -0.23328479582E+01  0.91561182624E+01  0.00000000000E+00 0. -1.
</event>
<event>
 8    1  0.2502398E-006  0.9118800E+02  0.7816164E-02  0.1184000E+00
        -11   -1    0    0    0    0  0.00000000000E+00  0.00000000000E+00  0.45593999997E+02  0.45594000000E+02  0.51100000000E-03 0. -1.
         11   -1    0    0    0    0 -0.00000000000E+00 -0.00000000000E+00 -0.45593999997E+02  0.45594000000E+02  0.51100000000E-03 0.  1.
         23    2    1    2    0    0 -0.35527136788E-14 -0.35527136788E-14  0.35527136788E-14  0.91188000000E+02  0.91188000000E+02 0.  0.
    9900012    2    3    3    0    0 -0.24296341332E+02 -0.21596159955E+02  0.17293722497E+02  0.54367093374E+02  0.40000020965E+02 0.  0.
        -12    1    3    3    0    0  0.24296341332E+02  0.21596159955E+02 -0.17293722497E+02  0.36820906626E+02  0.00000000000E+00 0.  1.
         11    1    4    4    0    0 -0.12462056932E+02 -0.31111826354E+02  0.43855249837E+01  0.33800612890E+02  0.51100000000E-03 0. -1.
        -11    1    4    4    0    0 -0.25549070036E+01  0.51496479590E+01  0.43382248883E+01  0.72018483281E+01  0.51100000000E-03 0.  1.
         12    1    4    4    0    0 -0.92793773963E+01  0.43660184399E+01  0.85699726250E+01  0.13364632156E+02  0.00000000000E+00 0. -1.
</event>
<event>
 8    1  0.2502398E-006  0.9118800E+02  0.7816164E-02  0.1184000E+00
        -11   -1    0    0    0    0  0.00000000000E+00  0.00000000000E+00  0.45593999997E+02  0.45594000000E+02  0.51100000000E-03 0. -1.
         11   -1    0    0    0    0 -0.00000000000E+00 -0.00000000000E+00 -0.45593999997E+02  0.45594000000E+02  0.51100000000E-03 0.  1.
         23    2    1    2    0    0  0.17763568394E-14  0.71054273576E-14  0.00000000000E+00  0.91188000000E+02  0.91188000000E+02 0.  0.
    9900012    2    3    3    0    0 -0.13267189412E+02 -0.32898216096E+02  0.98726680741E+01  0.54367075078E+02  0.39999979256E+02 0.  0.
         12    1    3    3    0    0  0.13267189412E+02  0.32898216096E+02 -0.98726680741E+01  0.36820924922E+02  0.00000000000E+00 0. -1.
         11    1    4    4    0    0 -0.12249961327E+02  0.36407064871E+01  0.92787496125E+01  0.15792767043E+02  0.51100000000E-03 0. -1.
        -11    1    4    4    0    0  0.23951539260E+01 -0.70804807121E+00 -0.57259069930E+00  0.25624119049E+01  0.51100000000E-03 0.  1.
        -12    1    4    4    0    0 -0.34123820105E+01 -0.35830874512E+02  0.11665091609E+01  0.36011896130E+02  0.00000000000E+00 0.  1.
</event>
<event>
 8    1  0.2502398E-006  0.9118800E+02  0.7816164E-02  0.1184000E+00
        -11   -1    0    0    0    0  0.00000000000E+00  0.00000000000E+00  0.45593999997E+02  0.45594000000E+02  0.51100000000E-03 0.  1.
         11   -1    0    0    0    0 -0.00000000000E+00 -0.00000000000E+00 -0.45593999997E+02  0.45594000000E+02  0.51100000000E-03 0. -1.
         23    2    1    2    0    0 -0.17763568394E-14 -0.35527136788E-14  0.00000000000E+00  0.91188000000E+02  0.91188000000E+02 0.  0.
    9900012    2    3    3    0    0 -0.12276664339E+02 -0.26635568207E+02  0.22262328513E+02  0.54367065033E+02  0.39999956356E+02 0.  0.
         12    1    3    3    0    0  0.12276664339E+02  0.26635568207E+02 -0.22262328513E+02  0.36820934967E+02  0.00000000000E+00 0. -1.
         11    1    4    4    0    0 -0.14243981676E+01  0.46603167669E+01  0.53215855456E+01  0.72157283408E+01  0.51100000000E-03 0.  1.
        -11    1    4    4    0    0 -0.14484723329E+02 -0.27365787962E+02  0.23365465241E+02  0.38789670363E+02  0.51100000000E-03 0. -1.
         12    1    4    4    0    0  0.36324571575E+01 -0.39300970115E+01 -0.64247222729E+01  0.83616663294E+01  0.00000000000E+00 0. -1.
</event>
<event>
 8    1  0.2502398E-006  0.9118800E+02  0.7816164E-02  0.1184000E+00
        -11   -1    0    0    0    0  0.00000000000E+00  0.00000000000E+00  0.45593999997E+02  0.45594000000E+02  0.51100000000E-03 0. -1.
         11   -1    0    0    0    0 -0.00000000000E+00 -0.00000000000E+00 -0.45593999997E+02  0.45594000000E+02  0.51100000000E-03 0.  1.
         23    2    1    2    0    0  0.35527136788E-14  0.35527136788E-14  0.00000000000E+00  0.91188000000E+02  0.91188000000E+02 0.  0.
    9900012    2    3    3    0    0 -0.25347035150E+02  0.26243990847E+02  0.49558780953E+01  0.54367082383E+02  0.39999995909E+02 0.  0.
        -12    1    3    3    0    0  0.25347035150E+02 -0.26243990847E+02 -0.49558780953E+01  0.36820917617E+02  0.00000000000E+00 0.  1.
         11    1    4    4    0    0 -0.11294069404E+02  0.24972376077E+02 -0.78482173095E+01  0.28509122853E+02  0.51100000000E-03 0. -1.
        -11    1    4    4    0    0 -0.36416806918E+01 -0.45668172429E+01  0.12635415804E+02  0.13920179266E+02  0.51100000000E-03 0.  1.
        -12    1    4    4    0    0 -0.10411285054E+02  0.58384320128E+01  0.16867960068E+00  0.11937780265E+02  0.00000000000E+00 0.  1.
</event>
<event>
 8    1  0.2502398E-006  0.9118800E+02  0.7816164E-02  0.1184000E+00
        -11   -1    0    0    0    0  0.00000000000E+00  0.00000000000E+00  0.45593999997E+02  0.45594000000E+02  0.51100000000E-03 0.  1.
         11   -1    0    0    0    0 -0.00000000000E+00 -0.00000000000E+00 -0.45593999997E+02  0.45594000000E+02  0.51100000000E-03 0. -1.
         23    2    1    2    0    0 -0.35527136788E-14  0.35527136788E-14  0.00000000000E+00  0.91188000000E+02  0.91188000000E+02 0.  0.
    9900012    2    3    3    0    0 -0.22844388701E+02  0.23649716462E+02  0.16571169643E+02  0.54367097686E+02  0.40000030796E+02 0.  0.
         12    1    3    3    0    0  0.22844388701E+02 -0.23649716462E+02 -0.16571169643E+02  0.36820902314E+02  0.00000000000E+00 0. -1.
         11    1    4    4    0    0  0.11927081580E+01  0.17241828960E+02  0.24726448661E+01  0.17459014621E+02  0.51100000000E-03 0. -1.
        -11    1    4    4    0    0  0.34893231014E+01 -0.73604628386E+00 -0.21411698373E+01  0.41595370380E+01  0.51100000000E-03 0.  1.
        -12    1    4    4    0    0 -0.27526419960E+02  0.71439337860E+01  0.16239694614E+02  0.32748546028E+02  0.00000000000E+00 0.  1.
</event>
<event>
 8    1  0.2502398E-006  0.9118800E+02  0.7816164E-02  0.1184000E+00
        -11   -1    0    0    0    0  0.00000000000E+00  0.00000000000E+00  0.45593999997E+02  0.45594000000E+02  0.51100000000E-03 0.  1.
         11   -1    0    0    0    0 -0.00000000000E+00 -0.00000000000E+00 -0.45593999997E+02  0.45594000000E+02  0.51100000000E-03 0. -1.
         23    2    1    2    0    0  0.35527136788E-14 -0.88817841970E-15  0.00000000000E+00  0.91188000000E+02  0.91188000000E+02 0.  0.
    9900012    2    3    3    0    0 -0.23749964649E+02  0.42712187873E+01 -0.27811437805E+02  0.54367079268E+02  0.39999988808E+02 0.  0.
        -12    1    3    3    0    0  0.23749964649E+02 -0.42712187873E+01  0.27811437805E+02  0.36820920732E+02  0.00000000000E+00 0.  1.
         11    1    4    4    0    0 -0.30122740531E+02  0.25909584054E+01 -0.17432187072E+02  0.34899480067E+02  0.51100000000E-03 0. -1.
        -11    1    4    4    0    0  0.52726042547E+01  0.64470687165E+01 -0.38172806873E+00  0.83373117515E+01  0.51100000000E-03 0.  1.
        -12    1    4    4    0    0  0.11001716276E+01 -0.47668083346E+01 -0.99975226634E+01  0.11130287450E+02  0.00000000000E+00 0.  1.
</event>
<event>
 8    1  0.2502398E-006  0.9118800E+02  0.7816164E-02  0.1184000E+00
        -11   -1    0    0    0    0  0.00000000000E+00  0.00000000000E+00  0.45593999997E+02  0.45594000000E+02  0.51100000000E-03 0.  1.
         11   -1    0    0    0    0 -0.00000000000E+00 -0.00000000000E+00 -0.45593999997E+02  0.45594000000E+02  0.51100000000E-03 0. -1.
         23    2    1    2    0    0  0.35527136788E-14 -0.17763568394E-14  0.00000000000E+00  0.91188000000E+02  0.91188000000E+02 0.  0.
    9900012    2    3    3    0    0  0.31464999880E+02 -0.14738597740E+02 -0.12186358951E+02  0.54367084405E+02  0.40000000517E+02 0.  0.
        -12    1    3    3    0    0 -0.31464999880E+02  0.14738597740E+02  0.12186358951E+02  0.36820915595E+02  0.00000000000E+00 0.  1.
         11    1    4    4    0    0  0.26062748751E+02 -0.87553031034E+01 -0.25671402567E+02  0.37615729621E+02  0.51100000000E-03 0. -1.
        -11    1    4    4    0    0  0.16933410745E+01 -0.59936245006E+00  0.35094872184E-01  0.17966277445E+01  0.51100000000E-03 0.  1.
        -12    1    4    4    0    0  0.37089100541E+01 -0.53839321870E+01  0.13449948744E+02  0.14954727039E+02  0.00000000000E+00 0.  1.
</event>
<event>
 8    1  0.2502398E-006  0.9118800E+02  0.7816164E-02  0.1184000E+00
        -11   -1    0    0    0    0  0.00000000000E+00  0.00000000000E+00  0.45593999997E+02  0.45594000000E+02  0.51100000000E-03 0. -1.
         11   -1    0    0    0    0 -0.00000000000E+00 -0.00000000000E+00 -0.45593999997E+02  0.45594000000E+02  0.51100000000E-03 0.  1.
         23    2    1    2    0    0  0.72164496601E-15  0.88817841970E-15 -0.71054273576E-14  0.91188000000E+02  0.91188000000E+02 0.  0.
    9900012    2    3    3    0    0  0.48454608475E+00  0.57790286141E+01  0.36361358614E+02  0.54367077186E+02  0.39999984061E+02 0.  0.
        -12    1    3    3    0    0 -0.48454608475E+00 -0.57790286141E+01 -0.36361358614E+02  0.36820922814E+02  0.00000000000E+00 0.  1.
         11    1    4    4    0    0 -0.81771202112E+01  0.88427669969E+01  0.25660524957E+02  0.28346470053E+02  0.51100000000E-03 0. -1.
        -11    1    4    4    0    0 -0.55653358609E+01 -0.44357251692E+01 -0.14473334669E+01  0.72624648327E+01  0.51100000000E-03 0.  1.
        -12    1    4    4    0    0  0.14227002157E+02  0.13719867864E+01  0.12148167123E+02  0.18758142301E+02  0.00000000000E+00 0.  1.
</event>
<event>
 8    1  0.2502398E-006  0.9118800E+02  0.7816164E-02  0.1184000E+00
        -11   -1    0    0    0    0  0.00000000000E+00  0.00000000000E+00  0.45593999997E+02  0.45594000000E+02  0.51100000000E-03 0.  1.
         11   -1    0    0    0    0 -0.00000000000E+00 -0.00000000000E+00 -0.45593999997E+02  0.45594000000E+02  0.51100000000E-03 0. -1.
         23    2    1    2    0    0  0.00000000000E+00 -0.35527136788E-14 -0.35527136788E-14  0.91188000000E+02  0.91188000000E+02 0.  0.
    9900012    2    3    3    0    0  0.20170350305E+02  0.24676752079E+02  0.18438937360E+02  0.54367088339E+02  0.40000009486E+02 0.  0.
         12    1    3    3    0    0 -0.20170350305E+02 -0.24676752079E+02 -0.18438937360E+02  0.36820911661E+02  0.00000000000E+00 0. -1.
         11    1    4    4    0    0 -0.36174133048E+01  0.12045796242E+02 -0.47887744493E+01  0.13458055101E+02  0.51100000000E-03 0. -1.
        -11    1    4    4    0    0  0.14848334094E+01  0.67179276945E+01  0.14841795525E+02  0.16358917367E+02  0.51100000000E-03 0.  1.
        -12    1    4    4    0    0  0.22302930200E+02  0.59130281429E+01  0.83859162850E+01  0.24550115871E+02  0.00000000000E+00 0.  1.
</event>
<event>
 8    1  0.2502398E-006  0.9118800E+02  0.7816164E-02  0.1184000E+00
        -11   -1    0    0    0    0  0.00000000000E+00  0.00000000000E+00  0.45593999997E+02  0.45594000000E+02  0.51100000000E-03 0.  1.
         11   -1    0    0    0    0 -0.00000000000E+00 -0.00000000000E+00 -0.45593999997E+02  0.45594000000E+02  0.51100000000E-03 0. -1.
         23    2    1    2    0    0  0.00000000000E+00  0.00000000000E+00 -0.88817841970E-15  0.91188000000E+02  0.91188000000E+02 0.  0.
    9900012    2    3    3    0    0  0.35212496993E+02 -0.84692320864E+01 -0.66431573226E+01  0.54367090508E+02  0.40000014432E+02 0.  0.
        -12    1    3    3    0    0 -0.35212496993E+02  0.84692320864E+01  0.66431573226E+01  0.36820909492E+02  0.00000000000E+00 0.  1.
         11    1    4    4    0    0  0.38739711517E+02  0.31560419882E+01 -0.35267171607E+01  0.39027728395E+02  0.51100000000E-03 0.  1.
        -11    1    4    4    0    0  0.21545262499E+00  0.33136852453E+00  0.18280226206E+01  0.18702651938E+01  0.51100000000E-03 0. -1.
         12    1    4    4    0    0 -0.37426671494E+01 -0.11956642599E+02 -0.49444627825E+01  0.13469096920E+02  0.00000000000E+00 0. -1.
</event>
<event>
 8    1  0.2502398E-006  0.9118800E+02  0.7816164E-02  0.1184000E+00
        -11   -1    0    0    0    0  0.00000000000E+00  0.00000000000E+00  0.45593999997E+02  0.45594000000E+02  0.51100000000E-03 0.  1.
         11   -1    0    0    0    0 -0.00000000000E+00 -0.00000000000E+00 -0.45593999997E+02  0.45594000000E+02  0.51100000000E-03 0. -1.
         23    2    1    2    0    0  0.88817841970E-15  0.17763568394E-14  0.71054273576E-14  0.91188000000E+02  0.91188000000E+02 0.  0.
    9900012    2    3    3    0    0 -0.29175943317E+01 -0.15122035090E+02  0.33445365216E+02  0.54367071761E+02  0.39999971693E+02 0.  0.
         12    1    3    3    0    0  0.29175943317E+01  0.15122035090E+02 -0.33445365216E+02  0.36820928239E+02  0.00000000000E+00 0. -1.
         11    1    4    4    0    0 -0.47962189773E+01 -0.38094928214E+01  0.32263889238E+02  0.32840135522E+02  0.51100000000E-03 0. -1.
        -11    1    4    4    0    0 -0.71241734554E+01 -0.10713442064E+01  0.29345009413E+01  0.77790051978E+01  0.51100000000E-03 0.  1.
         12    1    4    4    0    0  0.90027981010E+01 -0.10241198062E+02 -0.17530249635E+01  0.13747931042E+02  0.00000000000E+00 0. -1.
</event>
<event>
 8    1  0.2502398E-006  0.9118800E+02  0.7816164E-02  0.1184000E+00
        -11   -1    0    0    0    0  0.00000000000E+00  0.00000000000E+00  0.45593999997E+02  0.45594000000E+02  0.51100000000E-03 0.  1.
         11   -1    0    0    0    0 -0.00000000000E+00 -0.00000000000E+00 -0.45593999997E+02  0.45594000000E+02  0.51100000000E-03 0. -1.
         23    2    1    2    0    0  0.88817841970E-15 -0.17763568394E-14  0.00000000000E+00  0.91188000000E+02  0.91188000000E+02 0.  0.
    9900012    2    3    3    0    0  0.64672193774E+01  0.15944428185E+02 -0.32553494321E+02  0.54367085982E+02  0.40000004113E+02 0.  0.
        -12    1    3    3    0    0 -0.64672193774E+01 -0.15944428185E+02  0.32553494321E+02  0.36820914018E+02  0.00000000000E+00 0.  1.
         11    1    4    4    0    0 -0.52559030512E-01  0.78879748129E+01 -0.28985016514E+02  0.30039209239E+02  0.51100000000E-03 0. -1.
        -11    1    4    4    0    0 -0.25358175249E+01 -0.60556811091E+01  0.16454205282E+01  0.67682385589E+01  0.51100000000E-03 0.  1.
         12    1    4    4    0    0  0.90555959328E+01  0.14112134481E+02 -0.52138983344E+01  0.17559638184E+02  0.00000000000E+00 0. -1.
</event>
<event>
 8    1  0.2502398E-006  0.9118800E+02  0.7816164E-02  0.1184000E+00
        -11   -1    0    0    0    0  0.00000000000E+00  0.00000000000E+00  0.45593999997E+02  0.45594000000E+02  0.51100000000E-03 0. -1.
         11   -1    0    0    0    0 -0.00000000000E+00 -0.00000000000E+00 -0.45593999997E+02  0.45594000000E+02  0.51100000000E-03 0.  1.
         23    2    1    2    0    0  0.00000000000E+00  0.00000000000E+00 -0.17763568394E-14  0.91188000000E+02  0.91188000000E+02 0.  0.
    9900012    2    3    3    0    0  0.22342717556E+02 -0.27462590872E+02 -0.10118729806E+02  0.54367087218E+02  0.40000006932E+02 0.  0.
         12    1    3    3    0    0 -0.22342717556E+02  0.27462590872E+02  0.10118729806E+02  0.36820912782E+02  0.00000000000E+00 0. -1.
         11    1    4    4    0    0 -0.84948692868E+01 -0.43018382960E+01 -0.72756202525E+01  0.11983458067E+02  0.51100000000E-03 0. -1.
        -11    1    4    4    0    0  0.19861626201E+02 -0.12824456694E+02 -0.10029670748E+02  0.25681611717E+02  0.51100000000E-03 0.  1.
         12    1    4    4    0    0  0.10975960642E+02 -0.10336295882E+02  0.71865611939E+01  0.16702017434E+02  0.00000000000E+00 0. -1.
</event>
<event>
 8    1  0.2502398E-006  0.9118800E+02  0.7816164E-02  0.1184000E+00
        -11   -1    0    0    0    0  0.00000000000E+00  0.00000000000E+00  0.45593999997E+02  0.45594000000E+02  0.51100000000E-03 0.  1.
         11   -1    0    0    0    0 -0.00000000000E+00 -0.00000000000E+00 -0.45593999997E+02  0.45594000000E+02  0.51100000000E-03 0. -1.
         23    2    1    2    0    0 -0.35527136788E-14  0.35527136788E-14 -0.35527136788E-14  0.91188000000E+02  0.91188000000E+02 0.  0.
    9900012    2    3    3    0    0 -0.22808237012E+02  0.25940651019E+02 -0.12753299564E+02  0.54367086097E+02  0.40000004376E+02 0.  0.
        -12    1    3    3    0    0  0.22808237012E+02 -0.25940651019E+02  0.12753299564E+02  0.36820913903E+02  0.00000000000E+00 0.  1.
         11    1    4    4    0    0 -0.83297620636E+01  0.26828688142E+02 -0.84362986529E+01  0.29331460561E+02  0.51100000000E-03 0. -1.
        -11    1    4    4    0    0 -0.17726205680E+02  0.44337198909E+01 -0.44240208512E+01  0.18800218100E+02  0.51100000000E-03 0.  1.
        -12    1    4    4    0    0  0.32477307311E+01 -0.53217570142E+01  0.10701994037E+00  0.62354074356E+01  0.00000000000E+00 0.  1.
</event>
<event>
 8    1  0.2502398E-006  0.9118800E+02  0.7816164E-02  0.1184000E+00
        -11   -1    0    0    0    0  0.00000000000E+00  0.00000000000E+00  0.45593999997E+02  0.45594000000E+02  0.51100000000E-03 0.  1.
         11   -1    0    0    0    0 -0.00000000000E+00 -0.00000000000E+00 -0.45593999997E+02  0.45594000000E+02  0.51100000000E-03 0. -1.
         23    2    1    2    0    0  0.00000000000E+00 -0.35527136788E-14  0.00000000000E+00  0.91188000000E+02  0.91188000000E+02 0.  0.
    9900012    2    3    3    0    0  0.20051446553E+02  0.29865315531E+02 -0.78602471475E+01  0.54367067558E+02  0.39999962113E+02 0.  0.
        -12    1    3    3    0    0 -0.20051446553E+02 -0.29865315531E+02  0.78602471475E+01  0.36820932442E+02  0.00000000000E+00 0.  1.
         11    1    4    4    0    0 -0.57102796523E+01  0.21127605474E+02 -0.72912628065E+01  0.23068279527E+02  0.51100000000E-03 0. -1.
        -11    1    4    4    0    0  0.14805630676E+02  0.63145815541E+01 -0.78647191736E+01  0.17914643392E+02  0.51100000000E-03 0.  1.
        -12    1    4    4    0    0  0.10956095529E+02  0.24231285035E+01  0.72957348326E+01  0.13384144640E+02  0.00000000000E+00 0.  1.
</event>
<event>
 8    1  0.2502398E-006  0.9118800E+02  0.7816164E-02  0.1184000E+00
        -11   -1    0    0    0    0  0.00000000000E+00  0.00000000000E+00  0.45593999997E+02  0.45594000000E+02  0.51100000000E-03 0. -1.
         11   -1    0    0    0    0 -0.00000000000E+00 -0.00000000000E+00 -0.45593999997E+02  0.45594000000E+02  0.51100000000E-03 0.  1.
         23    2    1    2    0    0  0.00000000000E+00  0.44408920985E-15  0.44408920985E-15  0.91188000000E+02  0.91188000000E+02 0.  0.
    9900012    2    3    3    0    0 -0.36537070681E+02  0.23572591024E+01 -0.39070534135E+01  0.54367091934E+02  0.40000017681E+02 0.  0.
         12    1    3    3    0    0  0.36537070681E+02 -0.23572591024E+01  0.39070534135E+01  0.36820908066E+02  0.00000000000E+00 0. -1.
         11    1    4    4    0    0 -0.14728296182E+02 -0.30195678274E+00  0.31965384113E+01  0.15074207919E+02  0.51100000000E-03 0. -1.
        -11    1    4    4    0    0 -0.24918136074E+02 -0.90268986994E+01 -0.39480614123E+01  0.26795253212E+02  0.51100000000E-03 0.  1.
        -12    1    4    4    0    0  0.31093615744E+01  0.11686114585E+02 -0.31555304125E+01  0.12497630802E+02  0.00000000000E+00 0.  1.
</event>
<event>
 8    1  0.2502398E-006  0.9118800E+02  0.7816164E-02  0.1184000E+00
        -11   -1    0    0    0    0  0.00000000000E+00  0.00000000000E+00  0.45593999997E+02  0.45594000000E+02  0.51100000000E-03 0. -1.
         11   -1    0    0    0    0 -0.00000000000E+00 -0.00000000000E+00 -0.45593999997E+02  0.45594000000E+02  0.51100000000E-03 0.  1.
         23    2    1    2    0    0  0.35527136788E-14  0.17763568394E-14  0.00000000000E+00  0.91188000000E+02  0.91188000000E+02 0.  0.
    9900012    2    3    3    0    0  0.21702466659E+02  0.80014963970E+01  0.28648875363E+02  0.54367094753E+02  0.40000024107E+02 0.  0.
        -12    1    3    3    0    0 -0.21702466659E+02 -0.80014963970E+01 -0.28648875363E+02  0.36820905247E+02  0.00000000000E+00 0.  1.
         11    1    4    4    0    0  0.21958255674E+01 -0.49850074844E+01  0.12831062349E+02  0.13939444423E+02  0.51100000000E-03 0. -1.
        -11    1    4    4    0    0 -0.57423732454E+01 -0.18421833903E-01 -0.28798468544E+01  0.64240725415E+01  0.51100000000E-03 0.  1.
         12    1    4    4    0    0  0.25249014337E+02  0.13004925715E+02  0.18697659868E+02  0.34003577788E+02  0.00000000000E+00 0. -1.
</event>
<event>
 8    1  0.2502398E-006  0.9118800E+02  0.7816164E-02  0.1184000E+00
        -11   -1    0    0    0    0  0.00000000000E+00  0.00000000000E+00  0.45593999997E+02  0.45594000000E+02  0.51100000000E-03 0.  1.
         11   -1    0    0    0    0 -0.00000000000E+00 -0.00000000000E+00 -0.45593999997E+02  0.45594000000E+02  0.51100000000E-03 0. -1.
         23    2    1    2    0    0  0.00000000000E+00  0.00000000000E+00  0.00000000000E+00  0.91188000000E+02  0.91188000000E+02 0.  0.
    9900012    2    3    3    0    0  0.11396555722E+02  0.11199222499E+02 -0.33173264057E+02  0.54367224409E+02  0.40000319684E+02 0.  0.
        -12    1    3    3    0    0 -0.11396555722E+02 -0.11199222499E+02  0.33173264057E+02  0.36820775591E+02  0.00000000000E+00 0.  1.
         11    1    4    4    0    0  0.76892599216E+01 -0.57452499114E+01 -0.14083625779E+02  0.17043506976E+02  0.51100000000E-03 0. -1.
        -11    1    4    4    0    0  0.85561658501E+01  0.90318806684E+01  0.34816269328E+01  0.12919155113E+02  0.51100000000E-03 0.  1.
         12    1    4    4    0    0 -0.48488700495E+01  0.79125917423E+01 -0.22571265211E+02  0.24404562321E+02  0.00000000000E+00 0. -1.
</event>
<event>
 8    1  0.2502398E-006  0.9118800E+02  0.7816164E-02  0.1184000E+00
        -11   -1    0    0    0    0  0.00000000000E+00  0.00000000000E+00  0.45593999997E+02  0.45594000000E+02  0.51100000000E-03 0.  1.
         11   -1    0    0    0    0 -0.00000000000E+00 -0.00000000000E+00 -0.45593999997E+02  0.45594000000E+02  0.51100000000E-03 0. -1.
         23    2    1    2    0    0  0.00000000000E+00  0.00000000000E+00  0.17763568394E-14  0.91188000000E+02  0.91188000000E+02 0.  0.
    9900012    2    3    3    0    0  0.31351480154E+02  0.14033846988E+02  0.13263429580E+02  0.54367044916E+02  0.39999910494E+02 0.  0.
         12    1    3    3    0    0 -0.31351480154E+02 -0.14033846988E+02 -0.13263429580E+02  0.36820955084E+02  0.00000000000E+00 0. -1.
         11    1    4    4    0    0 -0.31824088237E+01 -0.16047189284E+01 -0.70169264185E+01  0.78702036431E+01  0.51100000000E-03 0. -1.
        -11    1    4    4    0    0  0.18939849700E+02  0.25543607560E+01  0.21401325877E+01  0.19230778281E+02  0.51100000000E-03 0.  1.
        -12    1    4    4    0    0  0.15594039277E+02  0.13084205161E+02  0.18140223410E+02  0.27266062991E+02  0.00000000000E+00 0.  1.
</event>
<event>
 8    1  0.2502398E-006  0.9118800E+02  0.7816164E-02  0.1184000E+00
        -11   -1    0    0    0    0  0.00000000000E+00  0.00000000000E+00  0.45593999997E+02  0.45594000000E+02  0.51100000000E-03 0.  1.
         11   -1    0    0    0    0 -0.00000000000E+00 -0.00000000000E+00 -0.45593999997E+02  0.45594000000E+02  0.51100000000E-03 0. -1.
         23    2    1    2    0    0  0.00000000000E+00 -0.35527136788E-14 -0.71054273576E-14  0.91188000000E+02  0.91188000000E+02 0.  0.
    9900012    2    3    3    0    0  0.54449584410E+01 -0.16399066936E+02 -0.32514650825E+02  0.54367088997E+02  0.40000010987E+02 0.  0.
        -12    1    3    3    0    0 -0.54449584410E+01  0.16399066936E+02  0.32514650825E+02  0.36820911003E+02  0.00000000000E+00 0.  1.
         11    1    4    4    0    0  0.81969076553E+01  0.75346742943E+01 -0.11249406245E+02  0.15827499896E+02  0.51100000000E-03 0. -1.
        -11    1    4    4    0    0  0.10852368761E+01 -0.71275415594E+01  0.37757483746E+01  0.81385418723E+01  0.51100000000E-03 0.  1.
         12    1    4    4    0    0 -0.38371860903E+01 -0.16806199671E+02 -0.25040992954E+02  0.30401047229E+02  0.00000000000E+00 0. -1.
</event>
<event>
 8    1  0.2502398E-006  0.9118800E+02  0.7816164E-02  0.1184000E+00
        -11   -1    0    0    0    0  0.00000000000E+00  0.00000000000E+00  0.45593999997E+02  0.45594000000E+02  0.51100000000E-03 0. -1.
         11   -1    0    0    0    0 -0.00000000000E+00 -0.00000000000E+00 -0.45593999997E+02  0.45594000000E+02  0.51100000000E-03 0.  1.
         23    2    1    2    0    0  0.00000000000E+00 -0.88817841970E-15 -0.71054273576E-14  0.91188000000E+02  0.91188000000E+02 0.  0.
    9900012    2    3    3    0    0 -0.92662092618E+01 -0.65658535659E+01  0.35025819140E+02  0.54367067454E+02  0.39999961874E+02 0.  0.
        -12    1    3    3    0    0  0.92662092618E+01  0.65658535659E+01 -0.35025819140E+02  0.36820932546E+02  0.00000000000E+00 0.  1.
         11    1    4    4    0    0 -0.10466259209E+02  0.32792975973E+01  0.25022699011E+02  0.27320904828E+02  0.51100000000E-03 0. -1.
        -11    1    4    4    0    0 -0.90884171411E+01 -0.10659771192E+02  0.90594658169E+01  0.16682444939E+02  0.51100000000E-03 0.  1.
        -12    1    4    4    0    0  0.10288467089E+02  0.81462002925E+00  0.94365431249E+00  0.10363717686E+02  0.00000000000E+00 0.  1.
</event>
<event>
 8    1  0.2502398E-006  0.9118800E+02  0.7816164E-02  0.1184000E+00
        -11   -1    0    0    0    0  0.00000000000E+00  0.00000000000E+00  0.45593999997E+02  0.45594000000E+02  0.51100000000E-03 0. -1.
         11   -1    0    0    0    0 -0.00000000000E+00 -0.00000000000E+00 -0.45593999997E+02  0.45594000000E+02  0.51100000000E-03 0.  1.
         23    2    1    2    0    0  0.00000000000E+00  0.00000000000E+00 -0.44408920985E-15  0.91188000000E+02  0.91188000000E+02 0.  0.
    9900012    2    3    3    0    0 -0.23603074629E+02  0.28136074078E+02 -0.26526784934E+01  0.54367075247E+02  0.39999979641E+02 0.  0.
         12    1    3    3    0    0  0.23603074629E+02 -0.28136074078E+02  0.26526784934E+01  0.36820924753E+02  0.00000000000E+00 0. -1.
         11    1    4    4    0    0  0.32002087036E+01  0.22410229250E+02  0.46830883587E+01  0.23116899178E+02  0.51100000000E-03 0. -1.
        -11    1    4    4    0    0 -0.18541931849E+02  0.99903049510E+01 -0.55814710600E+01  0.21789039657E+02  0.51100000000E-03 0.  1.
         12    1    4    4    0    0 -0.82613514838E+01 -0.42644601236E+01 -0.17542957922E+01  0.94611364122E+01  0.00000000000E+00 0. -1.
</event>
<event>
 8    1  0.2502398E-006  0.9118800E+02  0.7816164E-02  0.1184000E+00
        -11   -1    0    0    0    0  0.00000000000E+00  0.00000000000E+00  0.45593999997E+02  0.45594000000E+02  0.51100000000E-03 0. -1.
         11   -1    0    0    0    0 -0.00000000000E+00 -0.00000000000E+00 -0.45593999997E+02  0.45594000000E+02  0.51100000000E-03 0.  1.
         23    2    1    2    0    0  0.00000000000E+00  0.00000000000E+00  0.00000000000E+00  0.91188000000E+02  0.91188000000E+02 0.  0.
    9900012    2    3    3    0    0  0.34917469127E+02  0.79743838273E+01 -0.85415946753E+01  0.54367091711E+02  0.40000017173E+02 0.  0.
         12    1    3    3    0    0 -0.34917469127E+02 -0.79743838273E+01  0.85415946753E+01  0.36820908289E+02  0.00000000000E+00 0. -1.
         11    1    4    4    0    0  0.33581062641E+02  0.15790470144E+02  0.11637341786E+01  0.37126553745E+02  0.51100000000E-03 0. -1.
        -11    1    4    4    0    0 -0.32256069348E+01 -0.78219225302E+01 -0.94313012752E+01  0.12670298188E+02  0.51100000000E-03 0.  1.
        -12    1    4    4    0    0  0.45620134209E+01  0.58362130070E-02 -0.27402757870E+00  0.45702397779E+01  0.00000000000E+00 0.  1.
</event>
<event>
 8    1  0.2502398E-006  0.9118800E+02  0.7816164E-02  0.1184000E+00
        -11   -1    0    0    0    0  0.00000000000E+00  0.00000000000E+00  0.45593999997E+02  0.45594000000E+02  0.51100000000E-03 0.  1.
         11   -1    0    0    0    0 -0.00000000000E+00 -0.00000000000E+00 -0.45593999997E+02  0.45594000000E+02  0.51100000000E-03 0. -1.
         23    2    1    2    0    0  0.00000000000E+00 -0.88817841970E-15  0.17763568394E-14  0.91188000000E+02  0.91188000000E+02 0.  0.
    9900012    2    3    3    0    0  0.34734796448E+02  0.38129165002E+01  0.11607549203E+02  0.54367087260E+02  0.40000007026E+02 0.  0.
         12    1    3    3    0    0 -0.34734796448E+02 -0.38129165002E+01 -0.11607549203E+02  0.36820912740E+02  0.00000000000E+00 0. -1.
         11    1    4    4    0    0 -0.21722779742E+00 -0.61710026503E+01  0.14408636970E+02  0.15676009735E+02  0.51100000000E-03 0. -1.
        -11    1    4    4    0    0  0.21066685360E+02  0.11921331058E+02 -0.43230395786E+01  0.24588860032E+02  0.51100000000E-03 0.  1.
        -12    1    4    4    0    0  0.13885338886E+02 -0.19374119071E+01  0.15219518109E+01  0.14102217492E+02  0.00000000000E+00 0.  1.
</event>
<event>
 8    1  0.2502398E-006  0.9118800E+02  0.7816164E-02  0.1184000E+00
        -11   -1    0    0    0    0  0.00000000000E+00  0.00000000000E+00  0.45593999997E+02  0.45594000000E+02  0.51100000000E-03 0.  1.
         11   -1    0    0    0    0 -0.00000000000E+00 -0.00000000000E+00 -0.45593999997E+02  0.45594000000E+02  0.51100000000E-03 0. -1.
         23    2    1    2    0    0  0.00000000000E+00  0.00000000000E+00  0.35527136788E-14  0.91188000000E+02  0.91188000000E+02 0.  0.
    9900012    2    3    3    0    0 -0.20443684871E+01 -0.20089134037E+02  0.30790052829E+02  0.54367080647E+02  0.39999991950E+02 0.  0.
         12    1    3    3    0    0  0.20443684871E+01  0.20089134037E+02 -0.30790052829E+02  0.36820919353E+02  0.00000000000E+00 0. -1.
         11    1    4    4    0    0 -0.72756182051E+01  0.27093896713E+01  0.29063395129E+01  0.82898867473E+01  0.51100000000E-03 0. -1.
        -11    1    4    4    0    0 -0.39757176546E+01 -0.75544851502E+01 -0.40995591091E+01  0.94701088645E+01  0.51100000000E-03 0.  1.
        -12    1    4    4    0    0  0.92069673726E+01 -0.15244038558E+02  0.31983272425E+02  0.36607085035E+02  0.00000000000E+00 0.  1.
</event>
<event>
 8    1  0.2502398E-006  0.9118800E+02  0.7816164E-02  0.1184000E+00
        -11   -1    0    0    0    0  0.00000000000E+00  0.00000000000E+00  0.45593999997E+02  0.45594000000E+02  0.51100000000E-03 0.  1.
         11   -1    0    0    0    0 -0.00000000000E+00 -0.00000000000E+00 -0.45593999997E+02  0.45594000000E+02  0.51100000000E-03 0. -1.
         23    2    1    2    0    0 -0.17763568394E-14  0.00000000000E+00 -0.44408920985E-15  0.91188000000E+02  0.91188000000E+02 0.  0.
    9900012    2    3    3    0    0  0.14317595695E+02  0.33908643165E+02  0.99529325823E+00  0.54367078822E+02  0.39999987790E+02 0.  0.
         12    1    3    3    0    0 -0.14317595695E+02 -0.33908643165E+02 -0.99529325823E+00  0.36820921178E+02  0.00000000000E+00 0. -1.
         11    1    4    4    0    0 -0.88418464495E+01 -0.23238902354E+01 -0.17375529602E+01  0.93057941635E+01  0.51100000000E-03 0. -1.
        -11    1    4    4    0    0  0.40961914139E+01  0.82925130815E+01  0.60858099578E+01  0.11071659334E+02  0.51100000000E-03 0.  1.
         12    1    4    4    0    0  0.19063250731E+02  0.27940020318E+02 -0.33529637394E+01  0.33989625324E+02  0.00000000000E+00 0. -1.
</event>
<event>
 8    1  0.2502398E-006  0.9118800E+02  0.7816164E-02  0.1184000E+00
        -11   -1    0    0    0    0  0.00000000000E+00  0.00000000000E+00  0.45593999997E+02  0.45594000000E+02  0.51100000000E-03 0. -1.
         11   -1    0    0    0    0 -0.00000000000E+00 -0.00000000000E+00 -0.45593999997E+02  0.45594000000E+02  0.51100000000E-03 0.  1.
         23    2    1    2    0    0 -0.11102230246E-15  0.00000000000E+00  0.00000000000E+00  0.91188000000E+02  0.91188000000E+02 0.  0.
    9900012    2    3    3    0    0  0.37808047697E+00 -0.32480794461E+02  0.17338658635E+02  0.54367163006E+02  0.40000179706E+02 0.  0.
        -12    1    3    3    0    0 -0.37808047697E+00  0.32480794461E+02 -0.17338658635E+02  0.36820836994E+02  0.00000000000E+00 0.  1.
         11    1    4    4    0    0  0.98809915096E+01 -0.31648858601E+01  0.38170487829E+01  0.11055331627E+02  0.51100000000E-03 0. -1.
        -11    1    4    4    0    0 -0.57128252181E+01 -0.21660767201E+02 -0.49668368633E+01  0.22945471806E+02  0.51100000000E-03 0.  1.
         12    1    4    4    0    0 -0.37900858145E+01 -0.76551413999E+01  0.18488446715E+02  0.20366359573E+02  0.00000000000E+00 0. -1.
</event>
<event>
 8    1  0.2502398E-006  0.9118800E+02  0.7816164E-02  0.1184000E+00
        -11   -1    0    0    0    0  0.00000000000E+00  0.00000000000E+00  0.45593999997E+02  0.45594000000E+02  0.51100000000E-03 0. -1.
         11   -1    0    0    0    0 -0.00000000000E+00 -0.00000000000E+00 -0.45593999997E+02  0.45594000000E+02  0.51100000000E-03 0.  1.
         23    2    1    2    0    0  0.00000000000E+00 -0.35527136788E-14  0.35527136788E-14  0.91188000000E+02  0.91188000000E+02 0.  0.
    9900012    2    3    3    0    0 -0.14282644833E+02 -0.31212305105E+02 -0.13325827163E+02  0.54367087424E+02  0.40000007400E+02 0.  0.
         12    1    3    3    0    0  0.14282644833E+02  0.31212305105E+02  0.13325827163E+02  0.36820912576E+02  0.00000000000E+00 0. -1.
         11    1    4    4    0    0  0.10873336229E+02 -0.51215792420E+01  0.42165177765E+01  0.12737308864E+02  0.51100000000E-03 0. -1.
        -11    1    4    4    0    0 -0.17585526468E+02 -0.10821927948E+02 -0.84199733792E+01  0.22299345677E+02  0.51100000000E-03 0.  1.
         12    1    4    4    0    0 -0.75704545940E+01 -0.15268797915E+02 -0.91223715604E+01  0.19330432882E+02  0.00000000000E+00 0. -1.
</event>
<event>
 8    1  0.2502398E-006  0.9118800E+02  0.7816164E-02  0.1184000E+00
        -11   -1    0    0    0    0  0.00000000000E+00  0.00000000000E+00  0.45593999997E+02  0.45594000000E+02  0.51100000000E-03 0.  1.
         11   -1    0    0    0    0 -0.00000000000E+00 -0.00000000000E+00 -0.45593999997E+02  0.45594000000E+02  0.51100000000E-03 0. -1.
         23    2    1    2    0    0  0.35527136788E-14  0.00000000000E+00  0.35527136788E-14  0.91188000000E+02  0.91188000000E+02 0.  0.
    9900012    2    3    3    0    0 -0.27172361359E+02  0.25883865042E+01 -0.24713169043E+02  0.54367113392E+02  0.40000066599E+02 0.  0.
        -12    1    3    3    0    0  0.27172361359E+02 -0.25883865042E+01  0.24713169043E+02  0.36820886608E+02  0.00000000000E+00 0.  1.
         11    1    4    4    0    0 -0.26989533285E+02 -0.47374321521E+01 -0.83981399088E+01  0.28660197566E+02  0.51100000000E-03 0. -1.
        -11    1    4    4    0    0  0.18090528434E+01 -0.29345822515E+01  0.24486927183E+01  0.42285389286E+01  0.51100000000E-03 0.  1.
         12    1    4    4    0    0 -0.19918809171E+01  0.10260400908E+02 -0.18763721852E+02  0.21478376897E+02  0.00000000000E+00 0. -1.
</event>
<event>
 8    1  0.2502398E-006  0.9118800E+02  0.7816164E-02  0.1184000E+00
        -11   -1    0    0    0    0  0.00000000000E+00  0.00000000000E+00  0.45593999997E+02  0.45594000000E+02  0.51100000000E-03 0. -1.
         11   -1    0    0    0    0 -0.00000000000E+00 -0.00000000000E+00 -0.45593999997E+02  0.45594000000E+02  0.51100000000E-03 0.  1.
         23    2    1    2    0    0  0.35527136788E-14  0.00000000000E+00 -0.35527136788E-14  0.91188000000E+02  0.91188000000E+02 0.  0.
    9900012    2    3    3    0    0 -0.29845194389E+02 -0.20850662837E+02  0.55040166710E+01  0.54367082461E+02  0.39999996087E+02 0.  0.
        -12    1    3    3    0    0  0.29845194389E+02  0.20850662837E+02 -0.55040166710E+01  0.36820917539E+02  0.00000000000E+00 0.  1.
         11    1    4    4    0    0 -0.12282283041E+00 -0.55117480872E+01 -0.83963610394E+01  0.10044567257E+02  0.51100000000E-03 0.  1.
        -11    1    4    4    0    0  0.36975969220E+01  0.22925507349E+00 -0.19557603567E+01  0.41892457221E+01  0.51100000000E-03 0. -1.
         12    1    4    4    0    0 -0.33419968481E+02 -0.15568169824E+02  0.15856138067E+02  0.40133269482E+02  0.00000000000E+00 0. -1.
</event>
<event>
 8    1  0.2502398E-006  0.9118800E+02  0.7816164E-02  0.1184000E+00
        -11   -1    0    0    0    0  0.00000000000E+00  0.00000000000E+00  0.45593999997E+02  0.45594000000E+02  0.51100000000E-03 0. -1.
         11   -1    0    0    0    0 -0.00000000000E+00 -0.00000000000E+00 -0.45593999997E+02  0.45594000000E+02  0.51100000000E-03 0.  1.
         23    2    1    2    0    0 -0.17763568394E-14  0.00000000000E+00  0.00000000000E+00  0.91188000000E+02  0.91188000000E+02 0.  0.
    9900012    2    3    3    0    0  0.11717109823E+02 -0.32177543240E+02  0.13531251224E+02  0.54367085953E+02  0.40000004048E+02 0.  0.
        -12    1    3    3    0    0 -0.11717109823E+02  0.32177543240E+02 -0.13531251224E+02  0.36820914047E+02  0.00000000000E+00 0.  1.
         11    1    4    4    0    0  0.18081074299E+02 -0.54244943296E+01 -0.24020876773E+01  0.19029461685E+02  0.51100000000E-03 0. -1.
        -11    1    4    4    0    0 -0.45132858255E+01 -0.28440930417E+02  0.13354911799E+02  0.31742872292E+02  0.51100000000E-03 0.  1.
        -12    1    4    4    0    0 -0.18506786508E+01  0.16878815069E+01  0.25784271028E+01  0.35947519767E+01  0.00000000000E+00 0.  1.
</event>
<event>
 8    1  0.2502398E-006  0.9118800E+02  0.7816164E-02  0.1184000E+00
        -11   -1    0    0    0    0  0.00000000000E+00  0.00000000000E+00  0.45593999997E+02  0.45594000000E+02  0.51100000000E-03 0.  1.
         11   -1    0    0    0    0 -0.00000000000E+00 -0.00000000000E+00 -0.45593999997E+02  0.45594000000E+02  0.51100000000E-03 0. -1.
         23    2    1    2    0    0 -0.17763568394E-14  0.00000000000E+00  0.88817841970E-15  0.91188000000E+02  0.91188000000E+02 0.  0.
    9900012    2    3    3    0    0  0.86637847002E+01 -0.35126376926E+02 -0.68450920809E+01  0.54367098234E+02  0.40000032044E+02 0.  0.
         12    1    3    3    0    0 -0.86637847002E+01  0.35126376926E+02  0.68450920809E+01  0.36820901766E+02  0.00000000000E+00 0. -1.
         11    1    4    4    0    0  0.14386347661E+02 -0.83664101070E+01 -0.11090426934E+01  0.16679142456E+02  0.51100000000E-03 0. -1.
        -11    1    4    4    0    0 -0.27176081102E+01  0.47710536982E+01  0.44385657061E-01  0.54909304840E+01  0.51100000000E-03 0.  1.
        -12    1    4    4    0    0 -0.30049548510E+01 -0.31531020517E+02 -0.57804350446E+01  0.32197025294E+02  0.00000000000E+00 0.  1.
</event>
<event>
 8    1  0.2502398E-006  0.9118800E+02  0.7816164E-02  0.1184000E+00
        -11   -1    0    0    0    0  0.00000000000E+00  0.00000000000E+00  0.45593999997E+02  0.45594000000E+02  0.51100000000E-03 0.  1.
         11   -1    0    0    0    0 -0.00000000000E+00 -0.00000000000E+00 -0.45593999997E+02  0.45594000000E+02  0.51100000000E-03 0. -1.
         23    2    1    2    0    0 -0.35527136788E-14  0.71054273576E-14  0.17763568394E-14  0.91188000000E+02  0.91188000000E+02 0.  0.
    9900012    2    3    3    0    0 -0.21337073626E+02  0.29827519610E+02 -0.32905414494E+01  0.54367091537E+02  0.40000016777E+02 0.  0.
        -12    1    3    3    0    0  0.21337073626E+02 -0.29827519610E+02  0.32905414494E+01  0.36820908463E+02  0.00000000000E+00 0.  1.
         11    1    4    4    0    0 -0.10561792609E+02  0.10472803844E+02 -0.16762089683E+02  0.22409791036E+02  0.51100000000E-03 0. -1.
        -11    1    4    4    0    0 -0.58142099054E+01 -0.25367075474E+01  0.15023270668E+01  0.65189653229E+01  0.51100000000E-03 0.  1.
        -12    1    4    4    0    0 -0.49610711113E+01  0.21891423314E+02  0.11969221167E+02  0.25438335178E+02  0.00000000000E+00 0.  1.
</event>
<event>
 8    1  0.2502398E-006  0.9118800E+02  0.7816164E-02  0.1184000E+00
        -11   -1    0    0    0    0  0.00000000000E+00  0.00000000000E+00  0.45593999997E+02  0.45594000000E+02  0.51100000000E-03 0.  1.
         11   -1    0    0    0    0 -0.00000000000E+00 -0.00000000000E+00 -0.45593999997E+02  0.45594000000E+02  0.51100000000E-03 0. -1.
         23    2    1    2    0    0  0.35527136788E-14 -0.17763568394E-14  0.00000000000E+00  0.91188000000E+02  0.91188000000E+02 0.  0.
    9900012    2    3    3    0    0  0.23868864447E+02 -0.10208276352E+02  0.26112207103E+02  0.54367096211E+02  0.40000027433E+02 0.  0.
         12    1    3    3    0    0 -0.23868864447E+02  0.10208276352E+02 -0.26112207103E+02  0.36820903789E+02  0.00000000000E+00 0. -1.
         11    1    4    4    0    0  0.22187100501E+02  0.13826021710E+01  0.47268540411E+01  0.22727124032E+02  0.51100000000E-03 0. -1.
        -11    1    4    4    0    0  0.59706890963E+01 -0.45982411879E+01 -0.11817320140E+01  0.76282003855E+01  0.51100000000E-03 0.  1.
        -12    1    4    4    0    0 -0.42889251503E+01 -0.69926373350E+01  0.22567085076E+02  0.24011771793E+02  0.00000000000E+00 0.  1.
</event>
<event>
 8    1  0.2502398E-006  0.9118800E+02  0.7816164E-02  0.1184000E+00
        -11   -1    0    0    0    0  0.00000000000E+00  0.00000000000E+00  0.45593999997E+02  0.45594000000E+02  0.51100000000E-03 0. -1.
         11   -1    0    0    0    0 -0.00000000000E+00 -0.00000000000E+00 -0.45593999997E+02  0.45594000000E+02  0.51100000000E-03 0.  1.
         23    2    1    2    0    0  0.14988010832E-14  0.00000000000E+00  0.00000000000E+00  0.91188000000E+02  0.91188000000E+02 0.  0.
    9900012    2    3    3    0    0  0.42138150906E+00 -0.11674437297E+02  0.34918604335E+02  0.54367095920E+02  0.40000026769E+02 0.  0.
        -12    1    3    3    0    0 -0.42138150906E+00  0.11674437297E+02 -0.34918604335E+02  0.36820904080E+02  0.00000000000E+00 0.  1.
         11    1    4    4    0    0  0.11215868197E+02 -0.71244251744E+01  0.55322490109E+01  0.14393016114E+02  0.51100000000E-03 0. -1.
        -11    1    4    4    0    0 -0.91032644044E+01 -0.10687237930E+02  0.52111136283E+01  0.14974718124E+02  0.51100000000E-03 0.  1.
         12    1    4    4    0    0 -0.16912222839E+01  0.61372258076E+01  0.24175241696E+02  0.24999361681E+02  0.00000000000E+00 0. -1.
</event>
<event>
 8    1  0.2502398E-006  0.9118800E+02  0.7816164E-02  0.1184000E+00
        -11   -1    0    0    0    0  0.00000000000E+00  0.00000000000E+00  0.45593999997E+02  0.45594000000E+02  0.51100000000E-03 0. -1.
         11   -1    0    0    0    0 -0.00000000000E+00 -0.00000000000E+00 -0.45593999997E+02  0.45594000000E+02  0.51100000000E-03 0.  1.
         23    2    1    2    0    0  0.00000000000E+00  0.00000000000E+00  0.00000000000E+00  0.91188000000E+02  0.91188000000E+02 0.  0.
    9900012    2    3    3    0    0 -0.30663318245E+02 -0.16654428724E+02  0.11754595168E+02  0.54367087606E+02  0.40000007816E+02 0.  0.
        -12    1    3    3    0    0  0.30663318245E+02  0.16654428724E+02 -0.11754595168E+02  0.36820912394E+02  0.00000000000E+00 0.  1.
         11    1    4    4    0    0 -0.12102480826E+02 -0.17492753414E+02 -0.25302888808E+01  0.21421223733E+02  0.51100000000E-03 0. -1.
        -11    1    4    4    0    0 -0.80917250561E+01  0.10984981960E+02  0.12036769018E+02  0.18194220282E+02  0.51100000000E-03 0.  1.
        -12    1    4    4    0    0 -0.10469112364E+02 -0.10146657269E+02  0.22481150315E+01  0.14751643590E+02  0.00000000000E+00 0.  1.
</event>
<event>
 8    1  0.2502398E-006  0.9118800E+02  0.7816164E-02  0.1184000E+00
        -11   -1    0    0    0    0  0.00000000000E+00  0.00000000000E+00  0.45593999997E+02  0.45594000000E+02  0.51100000000E-03 0.  1.
         11   -1    0    0    0    0 -0.00000000000E+00 -0.00000000000E+00 -0.45593999997E+02  0.45594000000E+02  0.51100000000E-03 0. -1.
         23    2    1    2    0    0 -0.35527136788E-14 -0.71054273576E-14 -0.35527136788E-14  0.91188000000E+02  0.91188000000E+02 0.  0.
    9900012    2    3    3    0    0 -0.22364926530E+02 -0.27640741492E+02 -0.95696843768E+01  0.54367090343E+02  0.40000014055E+02 0.  0.
         12    1    3    3    0    0  0.22364926530E+02  0.27640741492E+02  0.95696843768E+01  0.36820909657E+02  0.00000000000E+00 0. -1.
         11    1    4    4    0    0 -0.26073717431E+02 -0.12199235510E+02 -0.36625197030E+00  0.28788786506E+02  0.51100000000E-03 0. -1.
        -11    1    4    4    0    0 -0.12357347681E+01  0.25660811241E+01  0.22866183410E+01  0.36524562217E+01  0.51100000000E-03 0.  1.
        -12    1    4    4    0    0  0.49445256696E+01 -0.18007587106E+02 -0.11490050748E+02  0.21925847616E+02  0.00000000000E+00 0.  1.
</event>
<event>
 8    1  0.2502398E-006  0.9118800E+02  0.7816164E-02  0.1184000E+00
        -11   -1    0    0    0    0  0.00000000000E+00  0.00000000000E+00  0.45593999997E+02  0.45594000000E+02  0.51100000000E-03 0.  1.
         11   -1    0    0    0    0 -0.00000000000E+00 -0.00000000000E+00 -0.45593999997E+02  0.45594000000E+02  0.51100000000E-03 0. -1.
         23    2    1    2    0    0 -0.17763568394E-14  0.00000000000E+00  0.17763568394E-14  0.91188000000E+02  0.91188000000E+02 0.  0.
    9900012    2    3    3    0    0 -0.92662781506E+01 -0.35150207057E+02 -0.58633557854E+01  0.54367083282E+02  0.39999997957E+02 0.  0.
        -12    1    3    3    0    0  0.92662781506E+01  0.35150207057E+02  0.58633557854E+01  0.36820916718E+02  0.00000000000E+00 0.  1.
         11    1    4    4    0    0 -0.11699227419E+02 -0.44212961392E+01 -0.71768469802E+01  0.14419671098E+02  0.51100000000E-03 0. -1.
        -11    1    4    4    0    0  0.56071278169E+01 -0.23585858192E+02  0.11723848110E+02  0.26929188695E+02  0.51100000000E-03 0.  1.
        -12    1    4    4    0    0 -0.31741785489E+01 -0.71430527260E+01 -0.10410356915E+02  0.13018223489E+02  0.00000000000E+00 0.  1.
</event>
<event>
 8    1  0.2502398E-006  0.9118800E+02  0.7816164E-02  0.1184000E+00
        -11   -1    0    0    0    0  0.00000000000E+00  0.00000000000E+00  0.45593999997E+02  0.45594000000E+02  0.51100000000E-03 0.  1.
         11   -1    0    0    0    0 -0.00000000000E+00 -0.00000000000E+00 -0.45593999997E+02  0.45594000000E+02  0.51100000000E-03 0. -1.
         23    2    1    2    0    0 -0.35527136788E-14  0.00000000000E+00  0.00000000000E+00  0.91188000000E+02  0.91188000000E+02 0.  0.
    9900012    2    3    3    0    0 -0.21569709252E+02 -0.17548501622E+02 -0.24136641594E+02  0.54367085647E+02  0.40000003349E+02 0.  0.
        -12    1    3    3    0    0  0.21569709252E+02  0.17548501622E+02  0.24136641594E+02  0.36820914353E+02  0.00000000000E+00 0.  1.
         11    1    4    4    0    0  0.98951137628E+00 -0.19433014337E+02 -0.16815775522E+02  0.25717532651E+02  0.51100000000E-03 0. -1.
        -11    1    4    4    0    0 -0.46313098603E+00  0.49960147838E+01 -0.32199036931E+01  0.59617475696E+01  0.51100000000E-03 0.  1.
         12    1    4    4    0    0 -0.22096089642E+02 -0.31115020686E+01 -0.41009623783E+01  0.22687805426E+02  0.00000000000E+00 0. -1.
</event>
<event>
 8    1  0.2502398E-006  0.9118800E+02  0.7816164E-02  0.1184000E+00
        -11   -1    0    0    0    0  0.00000000000E+00  0.00000000000E+00  0.45593999997E+02  0.45594000000E+02  0.51100000000E-03 0.  1.
         11   -1    0    0    0    0 -0.00000000000E+00 -0.00000000000E+00 -0.45593999997E+02  0.45594000000E+02  0.51100000000E-03 0. -1.
         23    2    1    2    0    0 -0.35527136788E-14  0.35527136788E-14 -0.35527136788E-14  0.91188000000E+02  0.91188000000E+02 0.  0.
    9900012    2    3    3    0    0 -0.24431762038E+02 -0.86183829252E+01 -0.26164908723E+02  0.54366946661E+02  0.39999686502E+02 0.  0.
        -12    1    3    3    0    0  0.24431762038E+02  0.86183829252E+01  0.26164908723E+02  0.36821053339E+02  0.00000000000E+00 0.  1.
         11    1    4    4    0    0 -0.11132117853E+02  0.89298620209E+01 -0.18713594997E+02  0.23534339200E+02  0.51100000000E-03 0. -1.
        -11    1    4    4    0    0 -0.13919881136E+02 -0.68173292174E+01  0.30596217393E+01  0.15798745329E+02  0.51100000000E-03 0.  1.
         12    1    4    4    0    0  0.62023695187E+00 -0.10730915729E+02 -0.10510935466E+02  0.15033862133E+02  0.00000000000E+00 0. -1.
</event>
<event>
 8    1  0.2502398E-006  0.9118800E+02  0.7816164E-02  0.1184000E+00
        -11   -1    0    0    0    0  0.00000000000E+00  0.00000000000E+00  0.45593999997E+02  0.45594000000E+02  0.51100000000E-03 0.  1.
         11   -1    0    0    0    0 -0.00000000000E+00 -0.00000000000E+00 -0.45593999997E+02  0.45594000000E+02  0.51100000000E-03 0. -1.
         23    2    1    2    0    0  0.88817841970E-15 -0.71054273576E-14  0.00000000000E+00  0.91188000000E+02  0.91188000000E+02 0.  0.
    9900012    2    3    3    0    0 -0.57255834248E+01  0.32454994137E+02 -0.16421653460E+02  0.54367086752E+02  0.40000005870E+02 0.  0.
        -12    1    3    3    0    0  0.57255834248E+01 -0.32454994137E+02  0.16421653460E+02  0.36820913248E+02  0.00000000000E+00 0.  1.
         11    1    4    4    0    0 -0.13945560198E+02  0.37438823722E+00 -0.10504747441E+02  0.17463348329E+02  0.51100000000E-03 0. -1.
        -11    1    4    4    0    0  0.11333475838E+02  0.13790372591E+02 -0.35565814213E+01  0.18200860486E+02  0.51100000000E-03 0.  1.
         12    1    4    4    0    0 -0.31134990644E+01  0.18290233309E+02 -0.23603245981E+01  0.18702877937E+02  0.00000000000E+00 0. -1.
</event>
<event>
 8    1  0.2502398E-006  0.9118800E+02  0.7816164E-02  0.1184000E+00
        -11   -1    0    0    0    0  0.00000000000E+00  0.00000000000E+00  0.45593999997E+02  0.45594000000E+02  0.51100000000E-03 0. -1.
         11   -1    0    0    0    0 -0.00000000000E+00 -0.00000000000E+00 -0.45593999997E+02  0.45594000000E+02  0.51100000000E-03 0.  1.
         23    2    1    2    0    0  0.00000000000E+00 -0.35527136788E-14  0.00000000000E+00  0.91188000000E+02  0.91188000000E+02 0.  0.
    9900012    2    3    3    0    0 -0.13467424072E+02  0.21315122925E+02 -0.26834187392E+02  0.54367087608E+02  0.40000007819E+02 0.  0.
         12    1    3    3    0    0  0.13467424072E+02 -0.21315122925E+02  0.26834187392E+02  0.36820912392E+02  0.00000000000E+00 0. -1.
         11    1    4    4    0    0 -0.40729222242E+01  0.27379654353E+02 -0.72364227081E+01  0.28611186305E+02  0.51100000000E-03 0. -1.
        -11    1    4    4    0    0 -0.58429802731E+01  0.11288858852E+01 -0.15792980154E+02  0.16876996896E+02  0.51100000000E-03 0.  1.
         12    1    4    4    0    0 -0.35515215747E+01 -0.71934173135E+01 -0.38047845293E+01  0.88789044063E+01  0.00000000000E+00 0. -1.
</event>
<event>
 8    1  0.2502398E-006  0.9118800E+02  0.7816164E-02  0.1184000E+00
        -11   -1    0    0    0    0  0.00000000000E+00  0.00000000000E+00  0.45593999997E+02  0.45594000000E+02  0.51100000000E-03 0.  1.
         11   -1    0    0    0    0 -0.00000000000E+00 -0.00000000000E+00 -0.45593999997E+02  0.45594000000E+02  0.51100000000E-03 0. -1.
         23    2    1    2    0    0 -0.35527136788E-14  0.35527136788E-14  0.00000000000E+00  0.91188000000E+02  0.91188000000E+02 0.  0.
    9900012    2    3    3    0    0  0.20519786787E+02 -0.15093612430E+02  0.26587604095E+02  0.54367089128E+02  0.40000011284E+02 0.  0.
         12    1    3    3    0    0 -0.20519786787E+02  0.15093612430E+02 -0.26587604095E+02  0.36820910872E+02  0.00000000000E+00 0. -1.
         11    1    4    4    0    0  0.65097811532E+01 -0.79048855778E+01 -0.51282585070E+01  0.11452663543E+02  0.51100000000E-03 0. -1.
        -11    1    4    4    0    0  0.80676387787E+01 -0.16205583382E+02  0.20345953191E+02  0.27233537041E+02  0.51100000000E-03 0.  1.
         12    1    4    4    0    0  0.59423668548E+01  0.90168565299E+01  0.11369909410E+02  0.15680888544E+02  0.00000000000E+00 0. -1.
</event>
<event>
 8    1  0.2502398E-006  0.9118800E+02  0.7816164E-02  0.1184000E+00
        -11   -1    0    0    0    0  0.00000000000E+00  0.00000000000E+00  0.45593999997E+02  0.45594000000E+02  0.51100000000E-03 0. -1.
         11   -1    0    0    0    0 -0.00000000000E+00 -0.00000000000E+00 -0.45593999997E+02  0.45594000000E+02  0.51100000000E-03 0.  1.
         23    2    1    2    0    0  0.00000000000E+00  0.00000000000E+00 -0.35527136788E-14  0.91188000000E+02  0.91188000000E+02 0.  0.
    9900012    2    3    3    0    0 -0.19233964535E+02  0.52019477022E+01 -0.30964080153E+02  0.54367083235E+02  0.39999997852E+02 0.  0.
         12    1    3    3    0    0  0.19233964535E+02 -0.52019477022E+01  0.30964080153E+02  0.36820916765E+02  0.00000000000E+00 0. -1.
         11    1    4    4    0    0 -0.75590379066E+01  0.12396645760E+01  0.67156161727E+01  0.10187017384E+02  0.51100000000E-03 0. -1.
        -11    1    4    4    0    0 -0.75549086599E+01  0.11902950494E+02 -0.22067589627E+02  0.26186549745E+02  0.51100000000E-03 0.  1.
         12    1    4    4    0    0 -0.41200179690E+01 -0.79406673678E+01 -0.15612106699E+02  0.17993516107E+02  0.00000000000E+00 0. -1.
</event>
<event>
 8    1  0.2502398E-006  0.9118800E+02  0.7816164E-02  0.1184000E+00
        -11   -1    0    0    0    0  0.00000000000E+00  0.00000000000E+00  0.45593999997E+02  0.45594000000E+02  0.51100000000E-03 0.  1.
         11   -1    0    0    0    0 -0.00000000000E+00 -0.00000000000E+00 -0.45593999997E+02  0.45594000000E+02  0.51100000000E-03 0. -1.
         23    2    1    2    0    0  0.00000000000E+00  0.00000000000E+00  0.00000000000E+00  0.91188000000E+02  0.91188000000E+02 0.  0.
    9900012    2    3    3    0    0 -0.27102036895E+02  0.23992252849E+02  0.67550552496E+01  0.54367090559E+02  0.40000014547E+02 0.  0.
        -12    1    3    3    0    0  0.27102036895E+02 -0.23992252849E+02 -0.67550552496E+01  0.36820909441E+02  0.00000000000E+00 0.  1.
         11    1    4    4    0    0  0.57088002941E+00  0.33847785135E+01 -0.18956289298E+01  0.39212292580E+01  0.51100000000E-03 0. -1.
        -11    1    4    4    0    0 -0.36430050872E+02  0.17236301277E+02  0.74695511261E+01  0.40988204188E+02  0.51100000000E-03 0.  1.
        -12    1    4    4    0    0  0.87571339480E+01  0.33711730588E+01  0.11811330533E+01  0.94576571129E+01  0.00000000000E+00 0.  1.
</event>
<event>
 8    1  0.2502398E-006  0.9118800E+02  0.7816164E-02  0.1184000E+00
        -11   -1    0    0    0    0  0.00000000000E+00  0.00000000000E+00  0.45593999997E+02  0.45594000000E+02  0.51100000000E-03 0.  1.
         11   -1    0    0    0    0 -0.00000000000E+00 -0.00000000000E+00 -0.45593999997E+02  0.45594000000E+02  0.51100000000E-03 0. -1.
         23    2    1    2    0    0  0.00000000000E+00  0.00000000000E+00  0.00000000000E+00  0.91188000000E+02  0.91188000000E+02 0.  0.
    9900012    2    3    3    0    0  0.22559385686E+02 -0.26016470289E+02 -0.13038139501E+02  0.54367140552E+02  0.40000128517E+02 0.  0.
        -12    1    3    3    0    0 -0.22559385686E+02  0.26016470289E+02  0.13038139501E+02  0.36820859448E+02  0.00000000000E+00 0.  1.
         11    1    4    4    0    0  0.20533394312E+02 -0.19390195243E+02 -0.87735081043E+01  0.29573204057E+02  0.51100000000E-03 0.  1.
        -11    1    4    4    0    0  0.49181123559E+01 -0.14661136047E+02 -0.49238342887E+01  0.16229013639E+02  0.51100000000E-03 0. -1.
        -12    1    4    4    0    0 -0.28921209814E+01  0.80348610009E+01  0.65920289162E+00  0.85649228559E+01  0.00000000000E+00 0.  1.
</event>
<event>
 8    1  0.2502398E-006  0.9118800E+02  0.7816164E-02  0.1184000E+00
        -11   -1    0    0    0    0  0.00000000000E+00  0.00000000000E+00  0.45593999997E+02  0.45594000000E+02  0.51100000000E-03 0.  1.
         11   -1    0    0    0    0 -0.00000000000E+00 -0.00000000000E+00 -0.45593999997E+02  0.45594000000E+02  0.51100000000E-03 0. -1.
         23    2    1    2    0    0  0.88817841970E-15 -0.71054273576E-14  0.00000000000E+00  0.91188000000E+02  0.91188000000E+02 0.  0.
    9900012    2    3    3    0    0  0.72363411751E+01  0.31412320036E+02 -0.17795572008E+02  0.54367070263E+02  0.39999968278E+02 0.  0.
        -12    1    3    3    0    0 -0.72363411751E+01 -0.31412320036E+02  0.17795572008E+02  0.36820929737E+02  0.00000000000E+00 0.  1.
         11    1    4    4    0    0 -0.97189725882E-01  0.90295552308E+01 -0.86192825169E+01  0.12483362723E+02  0.51100000000E-03 0. -1.
        -11    1    4    4    0    0  0.12127939819E+02 -0.48534641212E+01 -0.12919556046E+01  0.13126773700E+02  0.51100000000E-03 0.  1.
        -12    1    4    4    0    0 -0.47944089182E+01  0.27236228926E+02 -0.78843338869E+01  0.28756933839E+02  0.00000000000E+00 0.  1.
</event>
<event>
 8    1  0.2502398E-006  0.9118800E+02  0.7816164E-02  0.1184000E+00
        -11   -1    0    0    0    0  0.00000000000E+00  0.00000000000E+00  0.45593999997E+02  0.45594000000E+02  0.51100000000E-03 0.  1.
         11   -1    0    0    0    0 -0.00000000000E+00 -0.00000000000E+00 -0.45593999997E+02  0.45594000000E+02  0.51100000000E-03 0. -1.
         23    2    1    2    0    0  0.00000000000E+00 -0.88817841970E-15  0.00000000000E+00  0.91188000000E+02  0.91188000000E+02 0.  0.
    9900012    2    3    3    0    0 -0.34192307046E+02 -0.77578268025E+01 -0.11246468788E+02  0.54367071196E+02  0.39999970405E+02 0.  0.
        -12    1    3    3    0    0  0.34192307046E+02  0.77578268025E+01  0.11246468788E+02  0.36820928804E+02  0.00000000000E+00 0.  1.
         11    1    4    4    0    0 -0.41923764324E+02 -0.67080747718E+01 -0.99561377402E+01  0.43608771608E+02  0.51100000000E-03 0. -1.
        -11    1    4    4    0    0  0.57776493311E+01  0.14609028896E+01 -0.34754260166E+01  0.68988444905E+01  0.51100000000E-03 0.  1.
         12    1    4    4    0    0  0.19538079470E+01 -0.25106549203E+01  0.21850949689E+01  0.38594550970E+01  0.00000000000E+00 0. -1.
</event>
<event>
 8    1  0.2502398E-006  0.9118800E+02  0.7816164E-02  0.1184000E+00
        -11   -1    0    0    0    0  0.00000000000E+00  0.00000000000E+00  0.45593999997E+02  0.45594000000E+02  0.51100000000E-03 0. -1.
         11   -1    0    0    0    0 -0.00000000000E+00 -0.00000000000E+00 -0.45593999997E+02  0.45594000000E+02  0.51100000000E-03 0.  1.
         23    2    1    2    0    0  0.35527136788E-14  0.00000000000E+00  0.35527136788E-14  0.91188000000E+02  0.91188000000E+02 0.  0.
    9900012    2    3    3    0    0 -0.24724321294E+02  0.23841537685E+02  0.13269138868E+02  0.54367068061E+02  0.39999963258E+02 0.  0.
        -12    1    3    3    0    0  0.24724321294E+02 -0.23841537685E+02 -0.13269138868E+02  0.36820931939E+02  0.00000000000E+00 0.  1.
         11    1    4    4    0    0  0.29751387483E+01  0.78367202674E-01 -0.23195296795E+01  0.37733022918E+01  0.51100000000E-03 0. -1.
        -11    1    4    4    0    0 -0.72142991018E+00 -0.56437073809E+01  0.82434409019E+01  0.10016297334E+02  0.51100000000E-03 0.  1.
         12    1    4    4    0    0 -0.26978030132E+02  0.29406877863E+02  0.73452276454E+01  0.40577468435E+02  0.00000000000E+00 0. -1.
</event>
<event>
 8    1  0.2502398E-006  0.9118800E+02  0.7816164E-02  0.1184000E+00
        -11   -1    0    0    0    0  0.00000000000E+00  0.00000000000E+00  0.45593999997E+02  0.45594000000E+02  0.51100000000E-03 0.  1.
         11   -1    0    0    0    0 -0.00000000000E+00 -0.00000000000E+00 -0.45593999997E+02  0.45594000000E+02  0.51100000000E-03 0. -1.
         23    2    1    2    0    0  0.00000000000E+00 -0.35527136788E-14  0.00000000000E+00  0.91188000000E+02  0.91188000000E+02 0.  0.
    9900012    2    3    3    0    0  0.20675484778E+02  0.29470750712E+02  0.77319362325E+01  0.54367032383E+02  0.39999881924E+02 0.  0.
        -12    1    3    3    0    0 -0.20675484778E+02 -0.29470750712E+02 -0.77319362325E+01  0.36820967617E+02  0.00000000000E+00 0.  1.
         11    1    4    4    0    0  0.79528750381E+01  0.38644391214E+01  0.56506098705E+01  0.10493402845E+02  0.51100000000E-03 0. -1.
        -11    1    4    4    0    0 -0.11169964940E+02  0.49003426314E+01  0.10060577200E+01  0.12239020674E+02  0.51100000000E-03 0.  1.
         12    1    4    4    0    0  0.23892574679E+02  0.20705968960E+02  0.10752686420E+01  0.31634608864E+02  0.00000000000E+00 0. -1.
</event>
<event>
 8    1  0.2502398E-006  0.9118800E+02  0.7816164E-02  0.1184000E+00
        -11   -1    0    0    0    0  0.00000000000E+00  0.00000000000E+00  0.45593999997E+02  0.45594000000E+02  0.51100000000E-03 0.  1.
         11   -1    0    0    0    0 -0.00000000000E+00 -0.00000000000E+00 -0.45593999997E+02  0.45594000000E+02  0.51100000000E-03 0. -1.
         23    2    1    2    0    0  0.17763568394E-14  0.00000000000E+00 -0.35527136788E-14  0.91188000000E+02  0.91188000000E+02 0.  0.
    9900012    2    3    3    0    0  0.13580515187E+02 -0.12237403357E+02 -0.31962413323E+02  0.54367077970E+02  0.39999985849E+02 0.  0.
        -12    1    3    3    0    0 -0.13580515187E+02  0.12237403357E+02  0.31962413323E+02  0.36820922030E+02  0.00000000000E+00 0.  1.
         11    1    4    4    0    0  0.11041482933E+01  0.53056432735E+01  0.12380345748E+01  0.55589319000E+01  0.51100000000E-03 0. -1.
        -11    1    4    4    0    0  0.17956428992E+02 -0.11302630463E+02 -0.86886539878E+01  0.22927614483E+02  0.51100000000E-03 0.  1.
         12    1    4    4    0    0 -0.54800620982E+01 -0.62404161675E+01 -0.24511793910E+02  0.25880531587E+02  0.00000000000E+00 0. -1.
</event>
<event>
 8    1  0.2502398E-006  0.9118800E+02  0.7816164E-02  0.1184000E+00
        -11   -1    0    0    0    0  0.00000000000E+00  0.00000000000E+00  0.45593999997E+02  0.45594000000E+02  0.51100000000E-03 0.  1.
         11   -1    0    0    0    0 -0.00000000000E+00 -0.00000000000E+00 -0.45593999997E+02  0.45594000000E+02  0.51100000000E-03 0. -1.
         23    2    1    2    0    0  0.00000000000E+00  0.00000000000E+00  0.00000000000E+00  0.91188000000E+02  0.91188000000E+02 0.  0.
    9900012    2    3    3    0    0  0.27758792492E+02  0.20124492780E+02  0.13425123420E+02  0.54367085982E+02  0.40000004113E+02 0.  0.
         12    1    3    3    0    0 -0.27758792492E+02 -0.20124492780E+02 -0.13425123420E+02  0.36820914018E+02  0.00000000000E+00 0. -1.
         11    1    4    4    0    0  0.44993084937E+01 -0.14812393844E+01  0.68402408588E+00  0.47859937574E+01  0.51100000000E-03 0. -1.
        -11    1    4    4    0    0  0.26065838627E+02  0.23928912379E+02 -0.96701340441E+00  0.35397117201E+02  0.51100000000E-03 0.  1.
        -12    1    4    4    0    0 -0.28063546281E+01 -0.23231802152E+01  0.13708112739E+02  0.14183975023E+02  0.00000000000E+00 0.  1.
</event>
<event>
 8    1  0.2502398E-006  0.9118800E+02  0.7816164E-02  0.1184000E+00
        -11   -1    0    0    0    0  0.00000000000E+00  0.00000000000E+00  0.45593999997E+02  0.45594000000E+02  0.51100000000E-03 0. -1.
         11   -1    0    0    0    0 -0.00000000000E+00 -0.00000000000E+00 -0.45593999997E+02  0.45594000000E+02  0.51100000000E-03 0.  1.
         23    2    1    2    0    0 -0.88817841970E-15  0.00000000000E+00 -0.71054273576E-14  0.91188000000E+02  0.91188000000E+02 0.  0.
    9900012    2    3    3    0    0 -0.62650637674E+01 -0.80730442170E+01 -0.35374487212E+02  0.54367090011E+02  0.40000013297E+02 0.  0.
         12    1    3    3    0    0  0.62650637674E+01  0.80730442170E+01  0.35374487212E+02  0.36820909989E+02  0.00000000000E+00 0. -1.
         11    1    4    4    0    0 -0.11896604765E+02  0.66532727437E+01 -0.10141349240E+02  0.16989473441E+02  0.51100000000E-03 0. -1.
        -11    1    4    4    0    0 -0.15076249094E+01  0.24304761598E+01 -0.16675444911E+02  0.16918942357E+02  0.51100000000E-03 0.  1.
         12    1    4    4    0    0  0.71391659069E+01 -0.17156793120E+02 -0.85576930608E+01  0.20458674213E+02  0.00000000000E+00 0. -1.
</event>
<event>
 8    1  0.2502398E-006  0.9118800E+02  0.7816164E-02  0.1184000E+00
        -11   -1    0    0    0    0  0.00000000000E+00  0.00000000000E+00  0.45593999997E+02  0.45594000000E+02  0.51100000000E-03 0.  1.
         11   -1    0    0    0    0 -0.00000000000E+00 -0.00000000000E+00 -0.45593999997E+02  0.45594000000E+02  0.51100000000E-03 0. -1.
         23    2    1    2    0    0  0.00000000000E+00  0.17763568394E-14 -0.17763568394E-14  0.91188000000E+02  0.91188000000E+02 0.  0.
    9900012    2    3    3    0    0  0.30765232593E+02 -0.13494758871E+02  0.15072282359E+02  0.54367058282E+02  0.39999940966E+02 0.  0.
         12    1    3    3    0    0 -0.30765232593E+02  0.13494758871E+02 -0.15072282359E+02  0.36820941718E+02  0.00000000000E+00 0. -1.
         11    1    4    4    0    0  0.30965999422E+01  0.24118697087E+01  0.72575212314E+01  0.82509188203E+01  0.51100000000E-03 0. -1.
        -11    1    4    4    0    0  0.16784306940E+02 -0.87739972334E+01  0.20523394967E+02  0.27926792300E+02  0.51100000000E-03 0.  1.
         12    1    4    4    0    0  0.10884325711E+02 -0.71326313459E+01 -0.12708633840E+02  0.18189347162E+02  0.00000000000E+00 0. -1.
</event>
<event>
 8    1  0.2502398E-006  0.9118800E+02  0.7816164E-02  0.1184000E+00
        -11   -1    0    0    0    0  0.00000000000E+00  0.00000000000E+00  0.45593999997E+02  0.45594000000E+02  0.51100000000E-03 0. -1.
         11   -1    0    0    0    0 -0.00000000000E+00 -0.00000000000E+00 -0.45593999997E+02  0.45594000000E+02  0.51100000000E-03 0.  1.
         23    2    1    2    0    0  0.35527136788E-14  0.00000000000E+00 -0.35527136788E-14  0.91188000000E+02  0.91188000000E+02 0.  0.
    9900012    2    3    3    0    0 -0.21550302815E+02 -0.12672600781E+02  0.27032741170E+02  0.54367089404E+02  0.40000011914E+02 0.  0.
        -12    1    3    3    0    0  0.21550302815E+02  0.12672600781E+02 -0.27032741170E+02  0.36820910596E+02  0.00000000000E+00 0.  1.
         11    1    4    4    0    0  0.39356725470E+01 -0.45852675292E+01  0.99319683836E+00  0.61237763620E+01  0.51100000000E-03 0. -1.
        -11    1    4    4    0    0  0.67801778187E+01 -0.39736850049E+01  0.31359616554E+01  0.84613970203E+01  0.51100000000E-03 0.  1.
         12    1    4    4    0    0 -0.32266153180E+02 -0.41136482471E+01  0.22903582676E+02  0.39781916022E+02  0.00000000000E+00 0. -1.
</event>
<event>
 8    1  0.2502398E-006  0.9118800E+02  0.7816164E-02  0.1184000E+00
        -11   -1    0    0    0    0  0.00000000000E+00  0.00000000000E+00  0.45593999997E+02  0.45594000000E+02  0.51100000000E-03 0.  1.
         11   -1    0    0    0    0 -0.00000000000E+00 -0.00000000000E+00 -0.45593999997E+02  0.45594000000E+02  0.51100000000E-03 0. -1.
         23    2    1    2    0    0  0.00000000000E+00  0.00000000000E+00 -0.35527136788E-14  0.91188000000E+02  0.91188000000E+02 0.  0.
    9900012    2    3    3    0    0  0.23939364961E+02  0.14833203834E+02  0.23720524213E+02  0.54367076606E+02  0.39999982738E+02 0.  0.
         12    1    3    3    0    0 -0.23939364961E+02 -0.14833203834E+02 -0.23720524213E+02  0.36820923394E+02  0.00000000000E+00 0. -1.
         11    1    4    4    0    0  0.79531839303E+01 -0.29230522473E+01  0.64489752076E+01  0.10648316795E+02  0.51100000000E-03 0. -1.
        -11    1    4    4    0    0  0.10370878467E+02  0.14080662883E+02  0.26838096517E+02  0.32032852079E+02  0.51100000000E-03 0.  1.
         12    1    4    4    0    0  0.56153025630E+01  0.36755931977E+01 -0.95665475117E+01  0.11685907732E+02  0.00000000000E+00 0. -1.
</event>
<event>
 8    1  0.2502398E-006  0.9118800E+02  0.7816164E-02  0.1184000E+00
        -11   -1    0    0    0    0  0.00000000000E+00  0.00000000000E+00  0.45593999997E+02  0.45594000000E+02  0.51100000000E-03 0.  1.
         11   -1    0    0    0    0 -0.00000000000E+00 -0.00000000000E+00 -0.45593999997E+02  0.45594000000E+02  0.51100000000E-03 0. -1.
         23    2    1    2    0    0  0.00000000000E+00 -0.71054273576E-14  0.00000000000E+00  0.91188000000E+02  0.91188000000E+02 0.  0.
    9900012    2    3    3    0    0  0.28781608698E+01  0.36671176654E+02 -0.16516632382E+01  0.54366986996E+02  0.39999778455E+02 0.  0.
         12    1    3    3    0    0 -0.28781608698E+01 -0.36671176654E+02  0.16516632382E+01  0.36821013004E+02  0.00000000000E+00 0. -1.
         11    1    4    4    0    0  0.37017082549E+01 -0.57105940337E+01 -0.15252970015E+01  0.69742425701E+01  0.51100000000E-03 0. -1.
        -11    1    4    4    0    0  0.78170623556E+00  0.96589601860E+01 -0.92367654022E+01  0.13387472199E+02  0.51100000000E-03 0.  1.
        -12    1    4    4    0    0 -0.16052536206E+01  0.32722810502E+02  0.91103991655E+01  0.34005272228E+02  0.00000000000E+00 0.  1.
</event>
<event>
 8    1  0.2502398E-006  0.9118800E+02  0.7816164E-02  0.1184000E+00
        -11   -1    0    0    0    0  0.00000000000E+00  0.00000000000E+00  0.45593999997E+02  0.45594000000E+02  0.51100000000E-03 0.  1.
         11   -1    0    0    0    0 -0.00000000000E+00 -0.00000000000E+00 -0.45593999997E+02  0.45594000000E+02  0.51100000000E-03 0. -1.
         23    2    1    2    0    0  0.00000000000E+00 -0.35527136788E-14 -0.17763568394E-14  0.91188000000E+02  0.91188000000E+02 0.  0.
    9900012    2    3    3    0    0 -0.27024436521E+02 -0.24300754485E+02  0.59104301001E+01  0.54367081737E+02  0.39999994435E+02 0.  0.
         12    1    3    3    0    0  0.27024436521E+02  0.24300754485E+02 -0.59104301001E+01  0.36820918263E+02  0.00000000000E+00 0. -1.
         11    1    4    4    0    0  0.29428214796E+00  0.84076411611E+01  0.55294451348E+00  0.84309418081E+01  0.51100000000E-03 0. -1.
        -11    1    4    4    0    0 -0.34178515454E+01 -0.78695036898E+01 -0.50161534063E+01  0.99384401576E+01  0.51100000000E-03 0.  1.
        -12    1    4    4    0    0 -0.23900867123E+02 -0.24838891956E+02  0.10373638993E+02  0.35997699771E+02  0.00000000000E+00 0.  1.
</event>
<event>
 8    1  0.2502398E-006  0.9118800E+02  0.7816164E-02  0.1184000E+00
        -11   -1    0    0    0    0  0.00000000000E+00  0.00000000000E+00  0.45593999997E+02  0.45594000000E+02  0.51100000000E-03 0. -1.
         11   -1    0    0    0    0 -0.00000000000E+00 -0.00000000000E+00 -0.45593999997E+02  0.45594000000E+02  0.51100000000E-03 0.  1.
         23    2    1    2    0    0  0.00000000000E+00 -0.35527136788E-14 -0.88817841970E-15  0.91188000000E+02  0.91188000000E+02 0.  0.
    9900012    2    3    3    0    0 -0.19422518977E+02  0.30602257685E+02  0.64844139285E+01  0.54367081451E+02  0.39999993783E+02 0.  0.
        -12    1    3    3    0    0  0.19422518977E+02 -0.30602257685E+02 -0.64844139285E+01  0.36820918549E+02  0.00000000000E+00 0.  1.
         11    1    4    4    0    0 -0.15686959883E+02  0.90300653456E+01 -0.57593021724E+01  0.18994534801E+02  0.51100000000E-03 0. -1.
        -11    1    4    4    0    0  0.47002152563E+01  0.15385248024E+02 -0.35062133549E+01  0.16464853858E+02  0.51100000000E-03 0.  1.
         12    1    4    4    0    0 -0.84357743506E+01  0.61869443151E+01  0.15749929456E+02  0.18907692792E+02  0.00000000000E+00 0. -1.
</event>
<event>
 8    1  0.2502398E-006  0.9118800E+02  0.7816164E-02  0.1184000E+00
        -11   -1    0    0    0    0  0.00000000000E+00  0.00000000000E+00  0.45593999997E+02  0.45594000000E+02  0.51100000000E-03 0.  1.
         11   -1    0    0    0    0 -0.00000000000E+00 -0.00000000000E+00 -0.45593999997E+02  0.45594000000E+02  0.51100000000E-03 0. -1.
         23    2    1    2    0    0  0.71054273576E-14  0.44408920985E-15  0.00000000000E+00  0.91188000000E+02  0.91188000000E+02 0.  0.
    9900012    2    3    3    0    0  0.31232019344E+02  0.28608987487E+01  0.19291601057E+02  0.54366951056E+02  0.39999696521E+02 0.  0.
         12    1    3    3    0    0 -0.31232019344E+02 -0.28608987487E+01 -0.19291601057E+02  0.36821048944E+02  0.00000000000E+00 0. -1.
         11    1    4    4    0    0  0.23970830113E+02 -0.91369215872E+01  0.87876811959E+01  0.27116551651E+02  0.51100000000E-03 0. -1.
        -11    1    4    4    0    0  0.44013003491E+01  0.90039412872E+01 -0.50021628506E+01  0.11201073025E+02  0.51100000000E-03 0.  1.
        -12    1    4    4    0    0  0.28598888824E+01  0.29938790486E+01  0.15506082712E+02  0.16049326380E+02  0.00000000000E+00 0.  1.
</event>
<event>
 8    1  0.2502398E-006  0.9118800E+02  0.7816164E-02  0.1184000E+00
        -11   -1    0    0    0    0  0.00000000000E+00  0.00000000000E+00  0.45593999997E+02  0.45594000000E+02  0.51100000000E-03 0.  1.
         11   -1    0    0    0    0 -0.00000000000E+00 -0.00000000000E+00 -0.45593999997E+02  0.45594000000E+02  0.51100000000E-03 0. -1.
         23    2    1    2    0    0 -0.35527136788E-14  0.17763568394E-14 -0.35527136788E-14  0.91188000000E+02  0.91188000000E+02 0.  0.
    9900012    2    3    3    0    0 -0.18688480921E+02 -0.11418748550E+02 -0.29599540137E+02  0.54367083201E+02  0.39999997773E+02 0.  0.
        -12    1    3    3    0    0  0.18688480921E+02  0.11418748550E+02  0.29599540137E+02  0.36820916799E+02  0.00000000000E+00 0.  1.
         11    1    4    4    0    0 -0.24859699010E+01  0.54392362837E+00 -0.41188415814E+01  0.48415653972E+01  0.51100000000E-03 0. -1.
        -11    1    4    4    0    0 -0.53322422213E+01  0.12583171471E+02 -0.19064345173E+01  0.13798677625E+02  0.51100000000E-03 0.  1.
        -12    1    4    4    0    0 -0.10870268799E+02 -0.24545843648E+02 -0.23574264039E+02  0.35726840179E+02  0.00000000000E+00 0.  1.
</event>
<event>
 8    1  0.2502398E-006  0.9118800E+02  0.7816164E-02  0.1184000E+00
        -11   -1    0    0    0    0  0.00000000000E+00  0.00000000000E+00  0.45593999997E+02  0.45594000000E+02  0.51100000000E-03 0.  1.
         11   -1    0    0    0    0 -0.00000000000E+00 -0.00000000000E+00 -0.45593999997E+02  0.45594000000E+02  0.51100000000E-03 0. -1.
         23    2    1    2    0    0  0.00000000000E+00  0.26645352591E-14  0.00000000000E+00  0.91188000000E+02  0.91188000000E+02 0.  0.
    9900012    2    3    3    0    0 -0.15339560635E+02  0.26657552212E+01 -0.33367226162E+02  0.54367079953E+02  0.39999990369E+02 0.  0.
        -12    1    3    3    0    0  0.15339560635E+02 -0.26657552212E+01  0.33367226162E+02  0.36820920047E+02  0.00000000000E+00 0.  1.
         11    1    4    4    0    0 -0.88745231617E+01 -0.29036045882E+01 -0.37898021722E+01  0.10077235817E+02  0.51100000000E-03 0. -1.
        -11    1    4    4    0    0 -0.14584427646E+01  0.13849896062E+02 -0.31484723586E+02  0.34427234797E+02  0.51100000000E-03 0.  1.
        -12    1    4    4    0    0 -0.50065947089E+01 -0.82805362524E+01  0.19072995967E+01  0.98626093382E+01  0.00000000000E+00 0.  1.
</event>
<event>
 8    1  0.2502398E-006  0.9118800E+02  0.7816164E-02  0.1184000E+00
        -11   -1    0    0    0    0  0.00000000000E+00  0.00000000000E+00  0.45593999997E+02  0.45594000000E+02  0.51100000000E-03 0. -1.
         11   -1    0    0    0    0 -0.00000000000E+00 -0.00000000000E+00 -0.45593999997E+02  0.45594000000E+02  0.51100000000E-03 0.  1.
         23    2    1    2    0    0 -0.17763568394E-14  0.00000000000E+00 -0.35527136788E-14  0.91188000000E+02  0.91188000000E+02 0.  0.
    9900012    2    3    3    0    0 -0.14210998034E+02  0.16008628814E+02 -0.29959134389E+02  0.54367103827E+02  0.40000044795E+02 0.  0.
         12    1    3    3    0    0  0.14210998034E+02 -0.16008628814E+02  0.29959134389E+02  0.36820896173E+02  0.00000000000E+00 0. -1.
         11    1    4    4    0    0  0.52604478658E+01 -0.31409071805E+01 -0.96141685322E+01  0.11400431855E+02  0.51100000000E-03 0. -1.
        -11    1    4    4    0    0  0.15956281145E+01  0.16008812123E+02 -0.12083943187E+02  0.20120879153E+02  0.51100000000E-03 0.  1.
         12    1    4    4    0    0 -0.21067074014E+02  0.31407238713E+01 -0.82610226703E+01  0.22845792819E+02  0.00000000000E+00 0. -1.
</event>
<event>
 8    1  0.2502398E-006  0.9118800E+02  0.7816164E-02  0.1184000E+00
        -11   -1    0    0    0    0  0.00000000000E+00  0.00000000000E+00  0.45593999997E+02  0.45594000000E+02  0.51100000000E-03 0. -1.
         11   -1    0    0    0    0 -0.00000000000E+00 -0.00000000000E+00 -0.45593999997E+02  0.45594000000E+02  0.51100000000E-03 0.  1.
         23    2    1    2    0    0  0.00000000000E+00  0.00000000000E+00  0.00000000000E+00  0.91188000000E+02  0.91188000000E+02 0.  0.
    9900012    2    3    3    0    0 -0.33582827444E+02 -0.88975116025E+01  0.12198683255E+02  0.54367083593E+02  0.39999998667E+02 0.  0.
        -12    1    3    3    0    0  0.33582827444E+02  0.88975116025E+01 -0.12198683255E+02  0.36820916407E+02  0.00000000000E+00 0.  1.
         11    1    4    4    0    0 -0.25043197458E+02 -0.10880811735E+02  0.12617046334E+02  0.30078957119E+02  0.51100000000E-03 0. -1.
        -11    1    4    4    0    0 -0.55309792458E+01 -0.10056891754E+02 -0.23855301641E+01  0.11722779431E+02  0.51100000000E-03 0.  1.
         12    1    4    4    0    0 -0.30086507410E+01  0.12040191887E+02  0.19671670849E+01  0.12565347042E+02  0.00000000000E+00 0. -1.
</event>
<event>
 8    1  0.2502398E-006  0.9118800E+02  0.7816164E-02  0.1184000E+00
        -11   -1    0    0    0    0  0.00000000000E+00  0.00000000000E+00  0.45593999997E+02  0.45594000000E+02  0.51100000000E-03 0. -1.
         11   -1    0    0    0    0 -0.00000000000E+00 -0.00000000000E+00 -0.45593999997E+02  0.45594000000E+02  0.51100000000E-03 0.  1.
         23    2    1    2    0    0  0.00000000000E+00  0.00000000000E+00  0.35527136788E-14  0.91188000000E+02  0.91188000000E+02 0.  0.
    9900012    2    3    3    0    0 -0.19007470077E+02 -0.12750349258E+02 -0.28843112785E+02  0.54367075513E+02  0.39999980247E+02 0.  0.
         12    1    3    3    0    0  0.19007470077E+02  0.12750349258E+02  0.28843112785E+02  0.36820924487E+02  0.00000000000E+00 0. -1.
         11    1    4    4    0    0  0.23337946191E+00 -0.18621256789E+02 -0.16843034783E+02  0.25109629455E+02  0.51100000000E-03 0. -1.
        -11    1    4    4    0    0 -0.13490420034E+02 -0.35324061164E+00 -0.15084136896E+02  0.20239747968E+02  0.51100000000E-03 0.  1.
        -12    1    4    4    0    0 -0.57504295048E+01  0.62241481426E+01  0.30840588939E+01  0.90176980905E+01  0.00000000000E+00 0.  1.
</event>
<event>
 8    1  0.2502398E-006  0.9118800E+02  0.7816164E-02  0.1184000E+00
        -11   -1    0    0    0    0  0.00000000000E+00  0.00000000000E+00  0.45593999997E+02  0.45594000000E+02  0.51100000000E-03 0.  1.
         11   -1    0    0    0    0 -0.00000000000E+00 -0.00000000000E+00 -0.45593999997E+02  0.45594000000E+02  0.51100000000E-03 0. -1.
         23    2    1    2    0    0  0.35527136788E-14  0.00000000000E+00  0.17763568394E-14  0.91188000000E+02  0.91188000000E+02 0.  0.
    9900012    2    3    3    0    0 -0.30443465916E+02  0.14029779294E+02 -0.15236189547E+02  0.54367071224E+02  0.39999970469E+02 0.  0.
        -12    1    3    3    0    0  0.30443465916E+02 -0.14029779294E+02  0.15236189547E+02  0.36820928776E+02  0.00000000000E+00 0.  1.
         11    1    4    4    0    0 -0.27072609753E+02  0.79770419235E+01 -0.15876898418E+02  0.32382638872E+02  0.51100000000E-03 0. -1.
        -11    1    4    4    0    0  0.11580165645E+01 -0.24596610809E+01 -0.83619491882E+01  0.87927884930E+01  0.51100000000E-03 0.  1.
        -12    1    4    4    0    0 -0.45288727270E+01  0.85123984511E+01  0.90026580588E+01  0.13191643859E+02  0.00000000000E+00 0.  1.
</event>
<event>
 8    1  0.2502398E-006  0.9118800E+02  0.7816164E-02  0.1184000E+00
        -11   -1    0    0    0    0  0.00000000000E+00  0.00000000000E+00  0.45593999997E+02  0.45594000000E+02  0.51100000000E-03 0.  1.
         11   -1    0    0    0    0 -0.00000000000E+00 -0.00000000000E+00 -0.45593999997E+02  0.45594000000E+02  0.51100000000E-03 0. -1.
         23    2    1    2    0    0  0.00000000000E+00 -0.66613381478E-15  0.00000000000E+00  0.91188000000E+02  0.91188000000E+02 0.  0.
    9900012    2    3    3    0    0  0.32593762513E+02 -0.13485217097E+01  0.17076644392E+02  0.54367032478E+02  0.39999882141E+02 0.  0.
        -12    1    3    3    0    0 -0.32593762513E+02  0.13485217097E+01 -0.17076644392E+02  0.36820967522E+02  0.00000000000E+00 0.  1.
         11    1    4    4    0    0 -0.21086673601E+01 -0.40147687920E+01 -0.68956212959E+01  0.82531472668E+01  0.51100000000E-03 0. -1.
        -11    1    4    4    0    0  0.15028293076E+02  0.89495407203E+01  0.16795434010E+02  0.24249339696E+02  0.51100000000E-03 0.  1.
         12    1    4    4    0    0  0.19674136797E+02 -0.62832936380E+01  0.71768316781E+01  0.21864545515E+02  0.00000000000E+00 0. -1.
</event>
<event>
 8    1  0.2502398E-006  0.9118800E+02  0.7816164E-02  0.1184000E+00
        -11   -1    0    0    0    0  0.00000000000E+00  0.00000000000E+00  0.45593999997E+02  0.45594000000E+02  0.51100000000E-03 0. -1.
         11   -1    0    0    0    0 -0.00000000000E+00 -0.00000000000E+00 -0.45593999997E+02  0.45594000000E+02  0.51100000000E-03 0.  1.
         23    2    1    2    0    0  0.35527136788E-14  0.00000000000E+00 -0.35527136788E-14  0.91188000000E+02  0.91188000000E+02 0.  0.
    9900012    2    3    3    0    0  0.22725514464E+02  0.31350602908E+01 -0.28801060261E+02  0.54367099918E+02  0.40000035884E+02 0.  0.
         12    1    3    3    0    0 -0.22725514464E+02 -0.31350602908E+01  0.28801060261E+02  0.36820900082E+02  0.00000000000E+00 0. -1.
         11    1    4    4    0    0  0.17480764873E+02  0.14183456888E+01 -0.83645817971E+01  0.19430776463E+02  0.51100000000E-03 0. -1.
        -11    1    4    4    0    0  0.14273055431E+02  0.47592048148E+01 -0.20475610540E+02  0.25409068638E+02  0.51100000000E-03 0.  1.
         12    1    4    4    0    0 -0.90283058404E+01 -0.30424902127E+01  0.39132075815E-01  0.95272548177E+01  0.00000000000E+00 0. -1.
</event>
<event>
 8    1  0.2502398E-006  0.9118800E+02  0.7816164E-02  0.1184000E+00
        -11   -1    0    0    0    0  0.00000000000E+00  0.00000000000E+00  0.45593999997E+02  0.45594000000E+02  0.51100000000E-03 0.  1.
         11   -1    0    0    0    0 -0.00000000000E+00 -0.00000000000E+00 -0.45593999997E+02  0.45594000000E+02  0.51100000000E-03 0. -1.
         23    2    1    2    0    0  0.00000000000E+00 -0.17763568394E-14  0.00000000000E+00  0.91188000000E+02  0.91188000000E+02 0.  0.
    9900012    2    3    3    0    0  0.26018401191E+02 -0.10572561257E+02 -0.23812685493E+02  0.54367078740E+02  0.39999987603E+02 0.  0.
         12    1    3    3    0    0 -0.26018401191E+02  0.10572561257E+02  0.23812685493E+02  0.36820921260E+02  0.00000000000E+00 0. -1.
         11    1    4    4    0    0 -0.15381077758E+01  0.94238230733E+01 -0.10968686518E+02  0.14542568585E+02  0.51100000000E-03 0. -1.
        -11    1    4    4    0    0  0.16642191521E+02 -0.23696953579E+01 -0.75462732971E+01  0.18426183426E+02  0.51100000000E-03 0.  1.
         12    1    4    4    0    0  0.10914317445E+02 -0.17626688973E+02 -0.52977256784E+01  0.21398326729E+02  0.00000000000E+00 0. -1.
</event>
<event>
 8    1  0.2502398E-006  0.9118800E+02  0.7816164E-02  0.1184000E+00
        -11   -1    0    0    0    0  0.00000000000E+00  0.00000000000E+00  0.45593999997E+02  0.45594000000E+02  0.51100000000E-03 0.  1.
         11   -1    0    0    0    0 -0.00000000000E+00 -0.00000000000E+00 -0.45593999997E+02  0.45594000000E+02  0.51100000000E-03 0. -1.
         23    2    1    2    0    0  0.00000000000E+00  0.00000000000E+00  0.00000000000E+00  0.91188000000E+02  0.91188000000E+02 0.  0.
    9900012    2    3    3    0    0 -0.27643039441E+02  0.23332650902E+02 -0.68721834818E+01  0.54367120958E+02  0.40000083848E+02 0.  0.
         12    1    3    3    0    0  0.27643039441E+02 -0.23332650902E+02  0.68721834818E+01  0.36820879042E+02  0.00000000000E+00 0. -1.
         11    1    4    4    0    0 -0.12730022603E+02  0.72868565266E+01  0.53006942933E+01  0.15596445549E+02  0.51100000000E-03 0. -1.
        -11    1    4    4    0    0 -0.23458115387E+02  0.13699077872E+02 -0.55969274853E+01  0.27735780313E+02  0.51100000000E-03 0.  1.
         12    1    4    4    0    0  0.85450985491E+01  0.23467165037E+01 -0.65759502899E+01  0.11034895096E+02  0.00000000000E+00 0. -1.
</event>
<event>
 8    1  0.2502398E-006  0.9118800E+02  0.7816164E-02  0.1184000E+00
        -11   -1    0    0    0    0  0.00000000000E+00  0.00000000000E+00  0.45593999997E+02  0.45594000000E+02  0.51100000000E-03 0. -1.
         11   -1    0    0    0    0 -0.00000000000E+00 -0.00000000000E+00 -0.45593999997E+02  0.45594000000E+02  0.51100000000E-03 0.  1.
         23    2    1    2    0    0  0.00000000000E+00  0.44408920985E-15  0.35527136788E-14  0.91188000000E+02  0.91188000000E+02 0.  0.
    9900012    2    3    3    0    0  0.24042221531E+02 -0.89276402148E+00  0.27873899245E+02  0.54367086067E+02  0.40000004307E+02 0.  0.
        -12    1    3    3    0    0 -0.24042221531E+02  0.89276402148E+00 -0.27873899245E+02  0.36820913933E+02  0.00000000000E+00 0.  1.
         11    1    4    4    0    0  0.29161583493E+02  0.64932560071E+01  0.17667356314E+02  0.34708728078E+02  0.51100000000E-03 0.  1.
        -11    1    4    4    0    0  0.21638074514E+01  0.23389026645E+01 -0.77714852359E+00  0.32797085922E+01  0.51100000000E-03 0. -1.
         12    1    4    4    0    0 -0.72831694139E+01 -0.97249226931E+01  0.10983691454E+02  0.16378649397E+02  0.00000000000E+00 0. -1.
</event>
<event>
 8    1  0.2502398E-006  0.9118800E+02  0.7816164E-02  0.1184000E+00
        -11   -1    0    0    0    0  0.00000000000E+00  0.00000000000E+00  0.45593999997E+02  0.45594000000E+02  0.51100000000E-03 0. -1.
         11   -1    0    0    0    0 -0.00000000000E+00 -0.00000000000E+00 -0.45593999997E+02  0.45594000000E+02  0.51100000000E-03 0.  1.
         23    2    1    2    0    0  0.00000000000E+00 -0.35527136788E-14 -0.35527136788E-14  0.91188000000E+02  0.91188000000E+02 0.  0.
    9900012    2    3    3    0    0  0.22475749509E+01 -0.29845374303E+02  0.21447178600E+02  0.54367089768E+02  0.40000012744E+02 0.  0.
        -12    1    3    3    0    0 -0.22475749509E+01  0.29845374303E+02 -0.21447178600E+02  0.36820910232E+02  0.00000000000E+00 0.  1.
         11    1    4    4    0    0  0.56111942503E+00 -0.52231436107E+01  0.52136404941E+01  0.74012250101E+01  0.51100000000E-03 0. -1.
        -11    1    4    4    0    0  0.68451299978E-01  0.85585373777E+01  0.10005768879E+02  0.13166953283E+02  0.51100000000E-03 0.  1.
        -12    1    4    4    0    0  0.16180042259E+01 -0.33180768070E+02  0.62277692261E+01  0.33798911475E+02  0.00000000000E+00 0.  1.
</event>
<event>
 8    1  0.2502398E-006  0.9118800E+02  0.7816164E-02  0.1184000E+00
        -11   -1    0    0    0    0  0.00000000000E+00  0.00000000000E+00  0.45593999997E+02  0.45594000000E+02  0.51100000000E-03 0.  1.
         11   -1    0    0    0    0 -0.00000000000E+00 -0.00000000000E+00 -0.45593999997E+02  0.45594000000E+02  0.51100000000E-03 0. -1.
         23    2    1    2    0    0  0.17763568394E-14  0.00000000000E+00  0.00000000000E+00  0.91188000000E+02  0.91188000000E+02 0.  0.
    9900012    2    3    3    0    0 -0.58047966842E+01 -0.16754943725E+02  0.32270036475E+02  0.54367094826E+02  0.40000024274E+02 0.  0.
         12    1    3    3    0    0  0.58047966842E+01  0.16754943725E+02 -0.32270036475E+02  0.36820905174E+02  0.00000000000E+00 0. -1.
         11    1    4    4    0    0  0.33917507155E+01 -0.86076588694E+01  0.24094665537E+01  0.95604023693E+01  0.51100000000E-03 0. -1.
        -11    1    4    4    0    0  0.85876662640E+01 -0.25526457925E+01 -0.72352868784E+00  0.89881870490E+01  0.51100000000E-03 0.  1.
        -12    1    4    4    0    0 -0.17784213664E+02 -0.55946390630E+01  0.30584098609E+02  0.35818505407E+02  0.00000000000E+00 0.  1.
</event>
<event>
 8    1  0.2502398E-006  0.9118800E+02  0.7816164E-02  0.1184000E+00
        -11   -1    0    0    0    0  0.00000000000E+00  0.00000000000E+00  0.45593999997E+02  0.45594000000E+02  0.51100000000E-03 0. -1.
         11   -1    0    0    0    0 -0.00000000000E+00 -0.00000000000E+00 -0.45593999997E+02  0.45594000000E+02  0.51100000000E-03 0.  1.
         23    2    1    2    0    0  0.17763568394E-14  0.00000000000E+00 -0.10658141036E-13  0.91188000000E+02  0.91188000000E+02 0.  0.
    9900012    2    3    3    0    0  0.10433967846E+02 -0.25676298894E+02 -0.24241269123E+02  0.54367093729E+02  0.40000021775E+02 0.  0.
         12    1    3    3    0    0 -0.10433967846E+02  0.25676298894E+02  0.24241269123E+02  0.36820906271E+02  0.00000000000E+00 0. -1.
         11    1    4    4    0    0 -0.54544859274E+01 -0.22434126768E+01 -0.10801818744E+01  0.59959244753E+01  0.51100000000E-03 0. -1.
        -11    1    4    4    0    0  0.30805192436E+01 -0.23763580363E+01 -0.23402890213E+02  0.23724079474E+02  0.51100000000E-03 0.  1.
         12    1    4    4    0    0  0.12807934530E+02 -0.21056528181E+02  0.24180296415E+00  0.24647089780E+02  0.00000000000E+00 0. -1.
</event>
<event>
 8    1  0.2502398E-006  0.9118800E+02  0.7816164E-02  0.1184000E+00
        -11   -1    0    0    0    0  0.00000000000E+00  0.00000000000E+00  0.45593999997E+02  0.45594000000E+02  0.51100000000E-03 0.  1.
         11   -1    0    0    0    0 -0.00000000000E+00 -0.00000000000E+00 -0.45593999997E+02  0.45594000000E+02  0.51100000000E-03 0. -1.
         23    2    1    2    0    0  0.00000000000E+00  0.00000000000E+00  0.22204460493E-15  0.91188000000E+02  0.91188000000E+02 0.  0.
    9900012    2    3    3    0    0 -0.35570868014E+02 -0.95054474975E+01 -0.37367621024E+00  0.54367084513E+02  0.40000000764E+02 0.  0.
         12    1    3    3    0    0  0.35570868014E+02  0.95054474975E+01  0.37367621024E+00  0.36820915487E+02  0.00000000000E+00 0. -1.
         11    1    4    4    0    0 -0.21781521475E+01 -0.10236245650E+02 -0.45629964700E+01  0.11416917659E+02  0.51100000000E-03 0. -1.
        -11    1    4    4    0    0 -0.12701848549E+02 -0.31159129442E+01  0.14489798934E+02  0.19519224970E+02  0.51100000000E-03 0.  1.
         12    1    4    4    0    0 -0.20690867318E+02  0.38467110971E+01 -0.10300478674E+02  0.23430941883E+02  0.00000000000E+00 0. -1.
</event>
<event>
 8    1  0.2502398E-006  0.9118800E+02  0.7816164E-02  0.1184000E+00
        -11   -1    0    0    0    0  0.00000000000E+00  0.00000000000E+00  0.45593999997E+02  0.45594000000E+02  0.51100000000E-03 0. -1.
         11   -1    0    0    0    0 -0.00000000000E+00 -0.00000000000E+00 -0.45593999997E+02  0.45594000000E+02  0.51100000000E-03 0.  1.
         23    2    1    2    0    0  0.35527136788E-14  0.88817841970E-15  0.00000000000E+00  0.91188000000E+02  0.91188000000E+02 0.  0.
    9900012    2    3    3    0    0 -0.18823967168E+02  0.44291987380E+01 -0.31334027610E+02  0.54367070793E+02  0.39999969487E+02 0.  0.
         12    1    3    3    0    0  0.18823967168E+02 -0.44291987380E+01  0.31334027610E+02  0.36820929207E+02  0.00000000000E+00 0. -1.
         11    1    4    4    0    0 -0.40575820977E+01  0.16187562487E+02 -0.22384726086E+02  0.27920908186E+02  0.51100000000E-03 0. -1.
        -11    1    4    4    0    0 -0.34532021703E+01 -0.12754348919E+02 -0.27114236117E+01  0.13488878375E+02  0.51100000000E-03 0.  1.
         12    1    4    4    0    0 -0.11313182900E+02  0.99598516979E+00 -0.62378779119E+01  0.12957284231E+02  0.00000000000E+00 0. -1.
</event>
<event>
 8    1  0.2502398E-006  0.9118800E+02  0.7816164E-02  0.1184000E+00
        -11   -1    0    0    0    0  0.00000000000E+00  0.00000000000E+00  0.45593999997E+02  0.45594000000E+02  0.51100000000E-03 0.  1.
         11   -1    0    0    0    0 -0.00000000000E+00 -0.00000000000E+00 -0.45593999997E+02  0.45594000000E+02  0.51100000000E-03 0. -1.
         23    2    1    2    0    0  0.00000000000E+00  0.88817841970E-15  0.00000000000E+00  0.91188000000E+02  0.91188000000E+02 0.  0.
    9900012    2    3    3    0    0  0.10751043278E+02  0.62667092372E+01  0.34654327466E+02  0.54367095769E+02  0.40000026425E+02 0.  0.
         12    1    3    3    0    0 -0.10751043278E+02 -0.62667092372E+01 -0.34654327466E+02  0.36820904231E+02  0.00000000000E+00 0. -1.
         11    1    4    4    0    0  0.42346292020E+00 -0.14607132665E+02  0.14823656062E+02  0.20815581300E+02  0.51100000000E-03 0. -1.
        -11    1    4    4    0    0  0.10153928455E+02  0.92016050415E+01  0.16426770897E+02  0.21391834910E+02  0.51100000000E-03 0.  1.
         12    1    4    4    0    0  0.17365190292E+00  0.11672236861E+02  0.34039005065E+01  0.12159679559E+02  0.00000000000E+00 0. -1.
</event>
<event>
 8    1  0.2502398E-006  0.9118800E+02  0.7816164E-02  0.1184000E+00
        -11   -1    0    0    0    0  0.00000000000E+00  0.00000000000E+00  0.45593999997E+02  0.45594000000E+02  0.51100000000E-03 0.  1.
         11   -1    0    0    0    0 -0.00000000000E+00 -0.00000000000E+00 -0.45593999997E+02  0.45594000000E+02  0.51100000000E-03 0. -1.
         23    2    1    2    0    0  0.35527136788E-14 -0.35527136788E-14  0.00000000000E+00  0.91188000000E+02  0.91188000000E+02 0.  0.
    9900012    2    3    3    0    0 -0.30064065618E+02  0.21017563609E+02 -0.31926922271E+01  0.54367091467E+02  0.40000016618E+02 0.  0.
        -12    1    3    3    0    0  0.30064065618E+02 -0.21017563609E+02  0.31926922271E+01  0.36820908533E+02  0.00000000000E+00 0.  1.
         11    1    4    4    0    0 -0.30998734287E+01  0.87529891439E+00 -0.77933163104E+01  0.84327423084E+01  0.51100000000E-03 0. -1.
        -11    1    4    4    0    0  0.29496379541E+01 -0.54901844718E+01  0.15532222442E+01  0.64230046859E+01  0.51100000000E-03 0.  1.
         12    1    4    4    0    0 -0.29913830143E+02  0.25632449166E+02  0.30474018392E+01  0.39511344473E+02  0.00000000000E+00 0. -1.
</event>
<event>
 8    1  0.2502398E-006  0.9118800E+02  0.7816164E-02  0.1184000E+00
        -11   -1    0    0    0    0  0.00000000000E+00  0.00000000000E+00  0.45593999997E+02  0.45594000000E+02  0.51100000000E-03 0. -1.
         11   -1    0    0    0    0 -0.00000000000E+00 -0.00000000000E+00 -0.45593999997E+02  0.45594000000E+02  0.51100000000E-03 0.  1.
         23    2    1    2    0    0 -0.71054273576E-14  0.00000000000E+00  0.00000000000E+00  0.91188000000E+02  0.91188000000E+02 0.  0.
    9900012    2    3    3    0    0  0.34443941269E+02  0.11455423804E+02 -0.61780717402E+01  0.54367076666E+02  0.39999982877E+02 0.  0.
         12    1    3    3    0    0 -0.34443941269E+02 -0.11455423804E+02  0.61780717402E+01  0.36820923334E+02  0.00000000000E+00 0. -1.
         11    1    4    4    0    0  0.10650242551E+02  0.70700995174E+01 -0.10943996146E+01  0.12830108509E+02  0.51100000000E-03 0. -1.
        -11    1    4    4    0    0  0.30712914879E+02  0.56875649908E+01 -0.10172424625E+02  0.32849806071E+02  0.51100000000E-03 0.  1.
         12    1    4    4    0    0 -0.69192161602E+01 -0.13022407041E+01  0.50887524990E+01  0.86871620866E+01  0.00000000000E+00 0. -1.
</event>
<event>
 8    1  0.2502398E-006  0.9118800E+02  0.7816164E-02  0.1184000E+00
        -11   -1    0    0    0    0  0.00000000000E+00  0.00000000000E+00  0.45593999997E+02  0.45594000000E+02  0.51100000000E-03 0. -1.
         11   -1    0    0    0    0 -0.00000000000E+00 -0.00000000000E+00 -0.45593999997E+02  0.45594000000E+02  0.51100000000E-03 0.  1.
         23    2    1    2    0    0 -0.35527136788E-14  0.00000000000E+00  0.00000000000E+00  0.91188000000E+02  0.91188000000E+02 0.  0.
    9900012    2    3    3    0    0 -0.30310507506E+02  0.85702872744E+01 -0.19068357939E+02  0.54367096104E+02  0.40000027188E+02 0.  0.
         12    1    3    3    0    0  0.30310507506E+02 -0.85702872744E+01  0.19068357939E+02  0.36820903896E+02  0.00000000000E+00 0. -1.
         11    1    4    4    0    0  0.43329355111E+00  0.12471405848E+01  0.86865984576E+00  0.15804028374E+01  0.51100000000E-03 0. -1.
        -11    1    4    4    0    0 -0.25496242891E+02 -0.25171290446E+01  0.44194134738E+01  0.25998568344E+02  0.51100000000E-03 0.  1.
        -12    1    4    4    0    0 -0.52475581660E+01  0.98402757342E+01 -0.24356431259E+02  0.26788124923E+02  0.00000000000E+00 0.  1.
</event>
<event>
 8    1  0.2502398E-006  0.9118800E+02  0.7816164E-02  0.1184000E+00
        -11   -1    0    0    0    0  0.00000000000E+00  0.00000000000E+00  0.45593999997E+02  0.45594000000E+02  0.51100000000E-03 0. -1.
         11   -1    0    0    0    0 -0.00000000000E+00 -0.00000000000E+00 -0.45593999997E+02  0.45594000000E+02  0.51100000000E-03 0.  1.
         23    2    1    2    0    0  0.00000000000E+00  0.00000000000E+00  0.00000000000E+00  0.91188000000E+02  0.91188000000E+02 0.  0.
    9900012    2    3    3    0    0  0.29711329926E+02 -0.39244094529E+01  0.21391962184E+02  0.54367079837E+02  0.39999990105E+02 0.  0.
         12    1    3    3    0    0 -0.29711329926E+02  0.39244094529E+01 -0.21391962184E+02  0.36820920163E+02  0.00000000000E+00 0. -1.
         11    1    4    4    0    0 -0.55204724779E+01  0.37301902327E+01 -0.20915355965E+01  0.69831552298E+01  0.51100000000E-03 0. -1.
        -11    1    4    4    0    0  0.12001244884E+02 -0.33864289100E+01 -0.20097265718E+01  0.12630787017E+02  0.51100000000E-03 0.  1.
        -12    1    4    4    0    0  0.23230557521E+02 -0.42681707756E+01  0.25493224352E+02  0.34753137590E+02  0.00000000000E+00 0.  1.
</event>
<event>
 8    1  0.2502398E-006  0.9118800E+02  0.7816164E-02  0.1184000E+00
        -11   -1    0    0    0    0  0.00000000000E+00  0.00000000000E+00  0.45593999997E+02  0.45594000000E+02  0.51100000000E-03 0. -1.
         11   -1    0    0    0    0 -0.00000000000E+00 -0.00000000000E+00 -0.45593999997E+02  0.45594000000E+02  0.51100000000E-03 0.  1.
         23    2    1    2    0    0 -0.35527136788E-14  0.00000000000E+00  0.00000000000E+00  0.91188000000E+02  0.91188000000E+02 0.  0.
    9900012    2    3    3    0    0  0.11253524099E+02 -0.33873559769E+02 -0.90398922465E+01  0.54367088714E+02  0.40000010342E+02 0.  0.
         12    1    3    3    0    0 -0.11253524099E+02  0.33873559769E+02  0.90398922465E+01  0.36820911286E+02  0.00000000000E+00 0. -1.
         11    1    4    4    0    0  0.53130346642E+00  0.39770956854E+01 -0.15554983473E+01  0.43033880645E+01  0.51100000000E-03 0. -1.
        -11    1    4    4    0    0  0.20712975238E+02 -0.18780860524E+02 -0.47954499457E+01  0.28368017303E+02  0.51100000000E-03 0.  1.
         12    1    4    4    0    0 -0.99907546062E+01 -0.19069794930E+02 -0.26889439535E+01  0.21695683347E+02  0.00000000000E+00 0. -1.
</event>
<event>
 8    1  0.2502398E-006  0.9118800E+02  0.7816164E-02  0.1184000E+00
        -11   -1    0    0    0    0  0.00000000000E+00  0.00000000000E+00  0.45593999997E+02  0.45594000000E+02  0.51100000000E-03 0.  1.
         11   -1    0    0    0    0 -0.00000000000E+00 -0.00000000000E+00 -0.45593999997E+02  0.45594000000E+02  0.51100000000E-03 0. -1.
         23    2    1    2    0    0  0.00000000000E+00  0.00000000000E+00 -0.22204460493E-14  0.91188000000E+02  0.91188000000E+02 0.  0.
    9900012    2    3    3    0    0  0.19033105288E+02  0.31429937614E+02  0.23805814092E+01  0.54367255261E+02  0.40000390016E+02 0.  0.
         12    1    3    3    0    0 -0.19033105288E+02 -0.31429937614E+02 -0.23805814092E+01  0.36820744739E+02  0.00000000000E+00 0. -1.
         11    1    4    4    0    0  0.59341963009E+01  0.10885632004E+02 -0.14896535327E+02  0.19380878073E+02  0.51100000000E-03 0. -1.
        -11    1    4    4    0    0  0.16418589581E+02  0.13663620863E+02  0.17071254855E+02  0.27343963895E+02  0.51100000000E-03 0.  1.
        -12    1    4    4    0    0 -0.33196805936E+01  0.68806847465E+01  0.20586188165E+00  0.76424132928E+01  0.00000000000E+00 0.  1.
</event>
<event>
 8    1  0.2502398E-006  0.9118800E+02  0.7816164E-02  0.1184000E+00
        -11   -1    0    0    0    0  0.00000000000E+00  0.00000000000E+00  0.45593999997E+02  0.45594000000E+02  0.51100000000E-03 0.  1.
         11   -1    0    0    0    0 -0.00000000000E+00 -0.00000000000E+00 -0.45593999997E+02  0.45594000000E+02  0.51100000000E-03 0. -1.
         23    2    1    2    0    0  0.35527136788E-14  0.35527136788E-14 -0.35527136788E-14  0.91188000000E+02  0.91188000000E+02 0.  0.
    9900012    2    3    3    0    0 -0.14850540936E+02 -0.21045121766E+02  0.26312438909E+02  0.54367079893E+02  0.39999990231E+02 0.  0.
         12    1    3    3    0    0  0.14850540936E+02  0.21045121766E+02 -0.26312438909E+02  0.36820920107E+02  0.00000000000E+00 0. -1.
         11    1    4    4    0    0 -0.87053067589E+01 -0.50959150707E+00  0.74426190715E+01  0.11464494240E+02  0.51100000000E-03 0. -1.
        -11    1    4    4    0    0  0.16483799010E+01 -0.17722669340E+02  0.26310991756E+02  0.31765995219E+02  0.51100000000E-03 0.  1.
         12    1    4    4    0    0 -0.77936140783E+01 -0.28128609190E+01 -0.74411719190E+01  0.11136590433E+02  0.00000000000E+00 0. -1.
</event>
<event>
 8    1  0.2502398E-006  0.9118800E+02  0.7816164E-02  0.1184000E+00
        -11   -1    0    0    0    0  0.00000000000E+00  0.00000000000E+00  0.45593999997E+02  0.45594000000E+02  0.51100000000E-03 0.  1.
         11   -1    0    0    0    0 -0.00000000000E+00 -0.00000000000E+00 -0.45593999997E+02  0.45594000000E+02  0.51100000000E-03 0. -1.
         23    2    1    2    0    0  0.35527136788E-14  0.88817841970E-15  0.00000000000E+00  0.91188000000E+02  0.91188000000E+02 0.  0.
    9900012    2    3    3    0    0  0.16397173964E+02  0.61830064794E+01  0.32383378071E+02  0.54367081238E+02  0.39999993299E+02 0.  0.
         12    1    3    3    0    0 -0.16397173964E+02 -0.61830064794E+01 -0.32383378071E+02  0.36820918762E+02  0.00000000000E+00 0. -1.
         11    1    4    4    0    0 -0.16218493388E+01 -0.70738989626E+01 -0.39140423026E+01  0.82456151510E+01  0.51100000000E-03 0. -1.
        -11    1    4    4    0    0 -0.32193245385E+01  0.40586693160E+01  0.84503837926E+01  0.99119036318E+01  0.51100000000E-03 0.  1.
         12    1    4    4    0    0  0.21238347842E+02  0.91982361259E+01  0.27847036581E+02  0.36209562456E+02  0.00000000000E+00 0. -1.
</event>
<event>
 8    1  0.2502398E-006  0.9118800E+02  0.7816164E-02  0.1184000E+00
        -11   -1    0    0    0    0  0.00000000000E+00  0.00000000000E+00  0.45593999997E+02  0.45594000000E+02  0.51100000000E-03 0. -1.
         11   -1    0    0    0    0 -0.00000000000E+00 -0.00000000000E+00 -0.45593999997E+02  0.45594000000E+02  0.51100000000E-03 0.  1.
         23    2    1    2    0    0 -0.17763568394E-14  0.00000000000E+00  0.35527136788E-14  0.91188000000E+02  0.91188000000E+02 0.  0.
    9900012    2    3    3    0    0 -0.11940655362E+02  0.25858797096E+02 -0.23335037173E+02  0.54367073918E+02  0.39999976610E+02 0.  0.
         12    1    3    3    0    0  0.11940655362E+02 -0.25858797096E+02  0.23335037173E+02  0.36820926082E+02  0.00000000000E+00 0. -1.
         11    1    4    4    0    0 -0.97452569232E+01  0.12372247290E+02 -0.56712411251E+01  0.16739340240E+02  0.51100000000E-03 0.  1.
        -11    1    4    4    0    0 -0.82288800890E+01  0.38371839913E+01  0.63323976159E+01  0.11069675168E+02  0.51100000000E-03 0. -1.
         12    1    4    4    0    0  0.60334816505E+01  0.96493658144E+01 -0.23996193664E+02  0.26558058510E+02  0.00000000000E+00 0. -1.
</event>
<event>
 8    1  0.2502398E-006  0.9118800E+02  0.7816164E-02  0.1184000E+00
        -11   -1    0    0    0    0  0.00000000000E+00  0.00000000000E+00  0.45593999997E+02  0.45594000000E+02  0.51100000000E-03 0.  1.
         11   -1    0    0    0    0 -0.00000000000E+00 -0.00000000000E+00 -0.45593999997E+02  0.45594000000E+02  0.51100000000E-03 0. -1.
         23    2    1    2    0    0 -0.35527136788E-14  0.17763568394E-14 -0.35527136788E-14  0.91188000000E+02  0.91188000000E+02 0.  0.
    9900012    2    3    3    0    0 -0.17433033563E+02 -0.13382980190E+02 -0.29542753318E+02  0.54366958575E+02  0.39999713663E+02 0.  0.
        -12    1    3    3    0    0  0.17433033563E+02  0.13382980190E+02  0.29542753318E+02  0.36821041425E+02  0.00000000000E+00 0.  1.
         11    1    4    4    0    0  0.80955453629E+01 -0.13206049945E+02 -0.39533793819E+01  0.15986457352E+02  0.51100000000E-03 0. -1.
        -11    1    4    4    0    0  0.98101382108E+00  0.14747065312E+01 -0.31315510931E+01  0.35977437346E+01  0.51100000000E-03 0.  1.
        -12    1    4    4    0    0 -0.26509592747E+02 -0.16516367764E+01 -0.22457822843E+02  0.34782757489E+02  0.00000000000E+00 0.  1.
</event>
<event>
 8    1  0.2502398E-006  0.9118800E+02  0.7816164E-02  0.1184000E+00
        -11   -1    0    0    0    0  0.00000000000E+00  0.00000000000E+00  0.45593999997E+02  0.45594000000E+02  0.51100000000E-03 0.  1.
         11   -1    0    0    0    0 -0.00000000000E+00 -0.00000000000E+00 -0.45593999997E+02  0.45594000000E+02  0.51100000000E-03 0. -1.
         23    2    1    2    0    0 -0.71054273576E-14  0.35527136788E-14 -0.44408920985E-15  0.91188000000E+02  0.91188000000E+02 0.  0.
    9900012    2    3    3    0    0  0.28258411923E+02 -0.23352615011E+02 -0.34488165755E+01  0.54367125376E+02  0.40000093920E+02 0.  0.
        -12    1    3    3    0    0 -0.28258411923E+02  0.23352615011E+02  0.34488165755E+01  0.36820874624E+02  0.00000000000E+00 0.  1.
         11    1    4    4    0    0 -0.10162521809E+01  0.28074605236E+01 -0.71594769563E+01  0.77571072981E+01  0.51100000000E-03 0. -1.
        -11    1    4    4    0    0  0.15988598180E+01 -0.40553742004E+01  0.97489206705E+01  0.10679132321E+02  0.51100000000E-03 0.  1.
         12    1    4    4    0    0  0.27675804286E+02 -0.22104701335E+02 -0.60382602897E+01  0.35930885757E+02  0.00000000000E+00 0. -1.
</event>
<event>
 8    1  0.2502398E-006  0.9118800E+02  0.7816164E-02  0.1184000E+00
        -11   -1    0    0    0    0  0.00000000000E+00  0.00000000000E+00  0.45593999997E+02  0.45594000000E+02  0.51100000000E-03 0.  1.
         11   -1    0    0    0    0 -0.00000000000E+00 -0.00000000000E+00 -0.45593999997E+02  0.45594000000E+02  0.51100000000E-03 0. -1.
         23    2    1    2    0    0  0.00000000000E+00 -0.17763568394E-14  0.00000000000E+00  0.91188000000E+02  0.91188000000E+02 0.  0.
    9900012    2    3    3    0    0  0.28162832681E+02  0.39565723666E+01  0.23387626521E+02  0.54367072746E+02  0.39999973940E+02 0.  0.
         12    1    3    3    0    0 -0.28162832681E+02 -0.39565723666E+01 -0.23387626521E+02  0.36820927254E+02  0.00000000000E+00 0. -1.
         11    1    4    4    0    0  0.13815572033E+01  0.16280372959E+02  0.50262393962E+01  0.17094511596E+02  0.51100000000E-03 0. -1.
        -11    1    4    4    0    0  0.65569463465E+01 -0.73116419386E+01  0.11959188238E+02  0.15475006844E+02  0.51100000000E-03 0.  1.
         12    1    4    4    0    0  0.20224329131E+02 -0.50121586534E+01  0.64021988869E+01  0.21797554307E+02  0.00000000000E+00 0. -1.
</event>
<event>
 8    1  0.2502398E-006  0.9118800E+02  0.7816164E-02  0.1184000E+00
        -11   -1    0    0    0    0  0.00000000000E+00  0.00000000000E+00  0.45593999997E+02  0.45594000000E+02  0.51100000000E-03 0. -1.
         11   -1    0    0    0    0 -0.00000000000E+00 -0.00000000000E+00 -0.45593999997E+02  0.45594000000E+02  0.51100000000E-03 0.  1.
         23    2    1    2    0    0  0.00000000000E+00 -0.35527136788E-14  0.00000000000E+00  0.91188000000E+02  0.91188000000E+02 0.  0.
    9900012    2    3    3    0    0 -0.10474001137E+02  0.24596527477E+02  0.25319671202E+02  0.54367087280E+02  0.40000007073E+02 0.  0.
        -12    1    3    3    0    0  0.10474001137E+02 -0.24596527477E+02 -0.25319671202E+02  0.36820912720E+02  0.00000000000E+00 0.  1.
         11    1    4    4    0    0 -0.14072947778E+01  0.17346206014E+00  0.96924161839E+01  0.97955857110E+01  0.51100000000E-03 0. -1.
        -11    1    4    4    0    0 -0.78018747480E+01  0.30854041486E+01  0.20929598618E+02  0.22548549109E+02  0.51100000000E-03 0.  1.
        -12    1    4    4    0    0 -0.12648316114E+01  0.21337661268E+02 -0.53023436003E+01  0.22022952460E+02  0.00000000000E+00 0.  1.
</event>
<event>
 8    1  0.2502398E-006  0.9118800E+02  0.7816164E-02  0.1184000E+00
        -11   -1    0    0    0    0  0.00000000000E+00  0.00000000000E+00  0.45593999997E+02  0.45594000000E+02  0.51100000000E-03 0. -1.
         11   -1    0    0    0    0 -0.00000000000E+00 -0.00000000000E+00 -0.45593999997E+02  0.45594000000E+02  0.51100000000E-03 0.  1.
         23    2    1    2    0    0 -0.35527136788E-14 -0.71054273576E-14  0.22204460493E-14  0.91188000000E+02  0.91188000000E+02 0.  0.
    9900012    2    3    3    0    0  0.16756285578E+02 -0.32622935866E+02  0.32788820739E+01  0.54367080422E+02  0.39999991438E+02 0.  0.
        -12    1    3    3    0    0 -0.16756285578E+02  0.32622935866E+02 -0.32788820739E+01  0.36820919578E+02  0.00000000000E+00 0.  1.
         11    1    4    4    0    0  0.81095896097E+01 -0.15307460053E+02  0.11311910382E+02  0.20689202345E+02  0.51100000000E-03 0. -1.
        -11    1    4    4    0    0 -0.63960898108E+01 -0.15632220205E+02 -0.76359043739E+01  0.18536000358E+02  0.51100000000E-03 0.  1.
        -12    1    4    4    0    0  0.15042785780E+02 -0.16832556083E+01 -0.39712393390E+00  0.15141877719E+02  0.00000000000E+00 0.  1.
</event>
<event>
 8    1  0.2502398E-006  0.9118800E+02  0.7816164E-02  0.1184000E+00
        -11   -1    0    0    0    0  0.00000000000E+00  0.00000000000E+00  0.45593999997E+02  0.45594000000E+02  0.51100000000E-03 0.  1.
         11   -1    0    0    0    0 -0.00000000000E+00 -0.00000000000E+00 -0.45593999997E+02  0.45594000000E+02  0.51100000000E-03 0. -1.
         23    2    1    2    0    0  0.00000000000E+00  0.00000000000E+00  0.71054273576E-14  0.91188000000E+02  0.91188000000E+02 0.  0.
    9900012    2    3    3    0    0  0.13745846352E+02 -0.11341799001E+02  0.32221034068E+02  0.54367085659E+02  0.40000003377E+02 0.  0.
         12    1    3    3    0    0 -0.13745846352E+02  0.11341799001E+02 -0.32221034068E+02  0.36820914341E+02  0.00000000000E+00 0. -1.
         11    1    4    4    0    0  0.22296738607E+01 -0.10523748530E+02 -0.69459333389E+01  0.12804948999E+02  0.51100000000E-03 0. -1.
        -11    1    4    4    0    0 -0.10561358394E+01  0.63931533018E+00  0.29761428369E+01  0.32220449173E+01  0.51100000000E-03 0.  1.
         12    1    4    4    0    0  0.12572308331E+02 -0.14573658011E+01  0.36190824570E+02  0.38340091743E+02  0.00000000000E+00 0. -1.
</event>
<event>
 8    1  0.2502398E-006  0.9118800E+02  0.7816164E-02  0.1184000E+00
        -11   -1    0    0    0    0  0.00000000000E+00  0.00000000000E+00  0.45593999997E+02  0.45594000000E+02  0.51100000000E-03 0. -1.
         11   -1    0    0    0    0 -0.00000000000E+00 -0.00000000000E+00 -0.45593999997E+02  0.45594000000E+02  0.51100000000E-03 0.  1.
         23    2    1    2    0    0  0.00000000000E+00  0.88817841970E-15  0.00000000000E+00  0.91188000000E+02  0.91188000000E+02 0.  0.
    9900012    2    3    3    0    0  0.36009638234E+02 -0.35430216834E+01  0.68214936424E+01  0.54367084424E+02  0.40000000560E+02 0.  0.
        -12    1    3    3    0    0 -0.36009638234E+02  0.35430216834E+01 -0.68214936424E+01  0.36820915576E+02  0.00000000000E+00 0.  1.
         11    1    4    4    0    0  0.83787104314E+01 -0.14242679744E+02 -0.56758327809E+01  0.17472028869E+02  0.51100000000E-03 0. -1.
        -11    1    4    4    0    0  0.30228427427E+02  0.10530994127E+02  0.10780526763E+02  0.33776906602E+02  0.51100000000E-03 0.  1.
        -12    1    4    4    0    0 -0.25974996247E+01  0.16866393357E+00  0.17167996599E+01  0.31181489533E+01  0.00000000000E+00 0.  1.
</event>
<event>
 8    1  0.2502398E-006  0.9118800E+02  0.7816164E-02  0.1184000E+00
        -11   -1    0    0    0    0  0.00000000000E+00  0.00000000000E+00  0.45593999997E+02  0.45594000000E+02  0.51100000000E-03 0.  1.
         11   -1    0    0    0    0 -0.00000000000E+00 -0.00000000000E+00 -0.45593999997E+02  0.45594000000E+02  0.51100000000E-03 0. -1.
         23    2    1    2    0    0  0.00000000000E+00  0.35527136788E-14  0.00000000000E+00  0.91188000000E+02  0.91188000000E+02 0.  0.
    9900012    2    3    3    0    0  0.96121314859E+01 -0.12242139609E+02  0.33369336503E+02  0.54367140795E+02  0.40000129071E+02 0.  0.
         12    1    3    3    0    0 -0.96121314859E+01  0.12242139609E+02 -0.33369336503E+02  0.36820859205E+02  0.00000000000E+00 0. -1.
         11    1    4    4    0    0 -0.29478994029E+01 -0.58606211129E+01  0.82046881521E+01  0.10504946390E+02  0.51100000000E-03 0. -1.
        -11    1    4    4    0    0  0.11703040688E+02 -0.17914005659E+02  0.73536799071E+01  0.22626298162E+02  0.51100000000E-03 0.  1.
        -12    1    4    4    0    0  0.85699020067E+00  0.11532487162E+02  0.17810968444E+02  0.21235896243E+02  0.00000000000E+00 0.  1.
</event>
<event>
 8    1  0.2502398E-006  0.9118800E+02  0.7816164E-02  0.1184000E+00
        -11   -1    0    0    0    0  0.00000000000E+00  0.00000000000E+00  0.45593999997E+02  0.45594000000E+02  0.51100000000E-03 0. -1.
         11   -1    0    0    0    0 -0.00000000000E+00 -0.00000000000E+00 -0.45593999997E+02  0.45594000000E+02  0.51100000000E-03 0.  1.
         23    2    1    2    0    0 -0.44408920985E-15  0.00000000000E+00  0.00000000000E+00  0.91188000000E+02  0.91188000000E+02 0.  0.
    9900012    2    3    3    0    0  0.33100936769E+01  0.23769867974E+02  0.27925191639E+02  0.54367086490E+02  0.40000005271E+02 0.  0.
        -12    1    3    3    0    0 -0.33100936769E+01 -0.23769867974E+02 -0.27925191639E+02  0.36820913510E+02  0.00000000000E+00 0.  1.
         11    1    4    4    0    0 -0.77077383016E+01 -0.51660089012E+01  0.94831082451E+01  0.13267487326E+02  0.51100000000E-03 0.  1.
        -11    1    4    4    0    0 -0.42848465153E+01  0.15932130635E+02  0.64798231253E+01  0.17725146099E+02  0.51100000000E-03 0. -1.
        -12    1    4    4    0    0  0.15302678494E+02  0.13003746239E+02  0.11962260268E+02  0.23374453065E+02  0.00000000000E+00 0.  1.
</event>
<event>
 8    1  0.2502398E-006  0.9118800E+02  0.7816164E-02  0.1184000E+00
        -11   -1    0    0    0    0  0.00000000000E+00  0.00000000000E+00  0.45593999997E+02  0.45594000000E+02  0.51100000000E-03 0. -1.
         11   -1    0    0    0    0 -0.00000000000E+00 -0.00000000000E+00 -0.45593999997E+02  0.45594000000E+02  0.51100000000E-03 0.  1.
         23    2    1    2    0    0  0.26645352591E-14  0.71054273576E-14  0.00000000000E+00  0.91188000000E+02  0.91188000000E+02 0.  0.
    9900012    2    3    3    0    0  0.71751463591E+01  0.31530819871E+02 -0.17609763478E+02  0.54367094297E+02  0.40000023069E+02 0.  0.
         12    1    3    3    0    0 -0.71751463591E+01 -0.31530819871E+02  0.17609763478E+02  0.36820905703E+02  0.00000000000E+00 0. -1.
         11    1    4    4    0    0  0.82821176375E+01  0.11753409698E+00  0.57767658387E+00  0.83030715595E+01  0.51100000000E-03 0. -1.
        -11    1    4    4    0    0 -0.96444811966E+01  0.25910322846E+01 -0.11570616824E+02  0.15284261180E+02  0.51100000000E-03 0.  1.
        -12    1    4    4    0    0  0.85375099182E+01  0.28822253489E+02 -0.66168232376E+01  0.30779761558E+02  0.00000000000E+00 0.  1.
</event>
<event>
 8    1  0.2502398E-006  0.9118800E+02  0.7816164E-02  0.1184000E+00
        -11   -1    0    0    0    0  0.00000000000E+00  0.00000000000E+00  0.45593999997E+02  0.45594000000E+02  0.51100000000E-03 0. -1.
         11   -1    0    0    0    0 -0.00000000000E+00 -0.00000000000E+00 -0.45593999997E+02  0.45594000000E+02  0.51100000000E-03 0.  1.
         23    2    1    2    0    0  0.00000000000E+00  0.88817841970E-15  0.00000000000E+00  0.91188000000E+02  0.91188000000E+02 0.  0.
    9900012    2    3    3    0    0  0.54599568436E+01  0.53747045414E+01  0.36015023712E+02  0.54367075098E+02  0.39999979301E+02 0.  0.
        -12    1    3    3    0    0 -0.54599568436E+01 -0.53747045414E+01 -0.36015023712E+02  0.36820924902E+02  0.00000000000E+00 0.  1.
         11    1    4    4    0    0  0.18518938361E+01 -0.78331691235E+01 -0.95963151214E+00  0.81061052422E+01  0.51100000000E-03 0. -1.
        -11    1    4    4    0    0  0.40920692063E+01 -0.66440516414E+01  0.84148935530E+01  0.11476013523E+02  0.51100000000E-03 0.  1.
         12    1    4    4    0    0 -0.48400619870E+00  0.19851925306E+02  0.28559761671E+02  0.34784956333E+02  0.00000000000E+00 0. -1.
</event>
<event>
 8    1  0.2502398E-006  0.9118800E+02  0.7816164E-02  0.1184000E+00
        -11   -1    0    0    0    0  0.00000000000E+00  0.00000000000E+00  0.45593999997E+02  0.45594000000E+02  0.51100000000E-03 0.  1.
         11   -1    0    0    0    0 -0.00000000000E+00 -0.00000000000E+00 -0.45593999997E+02  0.45594000000E+02  0.51100000000E-03 0. -1.
         23    2    1    2    0    0  0.71054273576E-14  0.17763568394E-14  0.12212453271E-14  0.91188000000E+02  0.91188000000E+02 0.  0.
    9900012    2    3    3    0    0 -0.34707204152E+02  0.12266202954E+02 -0.85369405861E+00  0.54367101742E+02  0.40000040042E+02 0.  0.
        -12    1    3    3    0    0  0.34707204152E+02 -0.12266202954E+02  0.85369405861E+00  0.36820898258E+02  0.00000000000E+00 0.  1.
         11    1    4    4    0    0 -0.11084128242E+02  0.27614106301E+01 -0.30774641020E+01  0.11830218642E+02  0.51100000000E-03 0. -1.
        -11    1    4    4    0    0 -0.13902995366E+02  0.21363181377E+02  0.70789204993E+01  0.26453542568E+02  0.51100000000E-03 0.  1.
        -12    1    4    4    0    0 -0.97200805436E+01 -0.11858389054E+02 -0.48551504559E+01  0.16083340532E+02  0.00000000000E+00 0.  1.
</event>
<event>
 8    1  0.2502398E-006  0.9118800E+02  0.7816164E-02  0.1184000E+00
        -11   -1    0    0    0    0  0.00000000000E+00  0.00000000000E+00  0.45593999997E+02  0.45594000000E+02  0.51100000000E-03 0. -1.
         11   -1    0    0    0    0 -0.00000000000E+00 -0.00000000000E+00 -0.45593999997E+02  0.45594000000E+02  0.51100000000E-03 0.  1.
         23    2    1    2    0    0 -0.35527136788E-14  0.00000000000E+00  0.10658141036E-13  0.91188000000E+02  0.91188000000E+02 0.  0.
    9900012    2    3    3    0    0  0.16628802616E+02  0.22422356912E+02 -0.24010405601E+02  0.54367099100E+02  0.40000034019E+02 0.  0.
         12    1    3    3    0    0 -0.16628802616E+02 -0.22422356912E+02  0.24010405601E+02  0.36820900900E+02  0.00000000000E+00 0. -1.
         11    1    4    4    0    0  0.12821309599E+01 -0.86770195206E+00  0.26085796773E+01  0.30333899634E+01  0.51100000000E-03 0. -1.
        -11    1    4    4    0    0  0.86772906533E+01  0.79295447340E+01  0.70665888949E+01  0.13715310118E+02  0.51100000000E-03 0.  1.
        -12    1    4    4    0    0  0.66693810023E+01  0.15360514130E+02 -0.33685574174E+02  0.37618399018E+02  0.00000000000E+00 0.  1.
</event>
<event>
 8    1  0.2502398E-006  0.9118800E+02  0.7816164E-02  0.1184000E+00
        -11   -1    0    0    0    0  0.00000000000E+00  0.00000000000E+00  0.45593999997E+02  0.45594000000E+02  0.51100000000E-03 0. -1.
         11   -1    0    0    0    0 -0.00000000000E+00 -0.00000000000E+00 -0.45593999997E+02  0.45594000000E+02  0.51100000000E-03 0.  1.
         23    2    1    2    0    0  0.00000000000E+00 -0.35527136788E-14  0.00000000000E+00  0.91188000000E+02  0.91188000000E+02 0.  0.
    9900012    2    3    3    0    0  0.22811979104E+02  0.22242807595E+02 -0.18456760941E+02  0.54367069746E+02  0.39999967100E+02 0.  0.
         12    1    3    3    0    0 -0.22811979104E+02 -0.22242807595E+02  0.18456760941E+02  0.36820930254E+02  0.00000000000E+00 0. -1.
         11    1    4    4    0    0  0.30287516615E+00  0.18948577531E+02 -0.54047060953E+01  0.19706627617E+02  0.51100000000E-03 0. -1.
        -11    1    4    4    0    0  0.25358248471E+02 -0.23647713845E+01 -0.12291430689E+02  0.28279182765E+02  0.51100000000E-03 0.  1.
        -12    1    4    4    0    0 -0.28491445333E+01  0.56590014482E+01 -0.76062415655E+00  0.63812593639E+01  0.00000000000E+00 0.  1.
</event>
<event>
 8    1  0.2502398E-006  0.9118800E+02  0.7816164E-02  0.1184000E+00
        -11   -1    0    0    0    0  0.00000000000E+00  0.00000000000E+00  0.45593999997E+02  0.45594000000E+02  0.51100000000E-03 0.  1.
         11   -1    0    0    0    0 -0.00000000000E+00 -0.00000000000E+00 -0.45593999997E+02  0.45594000000E+02  0.51100000000E-03 0. -1.
         23    2    1    2    0    0 -0.71054273576E-14 -0.44408920985E-15  0.71054273576E-14  0.91188000000E+02  0.91188000000E+02 0.  0.
    9900012    2    3    3    0    0 -0.32985413352E+02 -0.21965855044E+01  0.16214778839E+02  0.54367061192E+02  0.39999947600E+02 0.  0.
         12    1    3    3    0    0  0.32985413352E+02  0.21965855044E+01 -0.16214778839E+02  0.36820938808E+02  0.00000000000E+00 0. -1.
         11    1    4    4    0    0 -0.10983206053E+02  0.11421597665E+02  0.59973583448E+01  0.16942609474E+02  0.51100000000E-03 0. -1.
        -11    1    4    4    0    0  0.31574523237E+01  0.21018762306E+01 -0.31065051942E+01  0.49028322068E+01  0.51100000000E-03 0.  1.
        -12    1    4    4    0    0 -0.25159659623E+02 -0.15720059400E+02  0.13323925688E+02  0.32521619511E+02  0.00000000000E+00 0.  1.
</event>
<event>
 8    1  0.2502398E-006  0.9118800E+02  0.7816164E-02  0.1184000E+00
        -11   -1    0    0    0    0  0.00000000000E+00  0.00000000000E+00  0.45593999997E+02  0.45594000000E+02  0.51100000000E-03 0.  1.
         11   -1    0    0    0    0 -0.00000000000E+00 -0.00000000000E+00 -0.45593999997E+02  0.45594000000E+02  0.51100000000E-03 0. -1.
         23    2    1    2    0    0  0.00000000000E+00  0.00000000000E+00  0.00000000000E+00  0.91188000000E+02  0.91188000000E+02 0.  0.
    9900012    2    3    3    0    0  0.27892842559E+02  0.93318322094E+01  0.22151421997E+02  0.54367092150E+02  0.40000018174E+02 0.  0.
         12    1    3    3    0    0 -0.27892842559E+02 -0.93318322094E+01 -0.22151421997E+02  0.36820907850E+02  0.00000000000E+00 0. -1.
         11    1    4    4    0    0  0.20250844833E+02  0.16753417422E+02  0.34182942031E+01  0.26503932676E+02  0.51100000000E-03 0. -1.
        -11    1    4    4    0    0 -0.29972117678E+00 -0.10289353323E+01  0.17569351592E+02  0.17602007167E+02  0.51100000000E-03 0.  1.
         12    1    4    4    0    0  0.79417189031E+01 -0.63926498801E+01  0.11637762024E+01  0.10261152307E+02  0.00000000000E+00 0. -1.
</event>
<event>
 8    1  0.2502398E-006  0.9118800E+02  0.7816164E-02  0.1184000E+00
        -11   -1    0    0    0    0  0.00000000000E+00  0.00000000000E+00  0.45593999997E+02  0.45594000000E+02  0.51100000000E-03 0.  1.
         11   -1    0    0    0    0 -0.00000000000E+00 -0.00000000000E+00 -0.45593999997E+02  0.45594000000E+02  0.51100000000E-03 0. -1.
         23    2    1    2    0    0  0.17763568394E-14  0.00000000000E+00  0.00000000000E+00  0.91188000000E+02  0.91188000000E+02 0.  0.
    9900012    2    3    3    0    0 -0.13347379220E+02 -0.33748311663E+02 -0.62193584613E+01  0.54367061774E+02  0.39999948926E+02 0.  0.
        -12    1    3    3    0    0  0.13347379220E+02  0.33748311663E+02  0.62193584613E+01  0.36820938226E+02  0.00000000000E+00 0.  1.
         11    1    4    4    0    0 -0.75555616214E+01 -0.50595535243E+01 -0.14963007412E+02  0.17509345629E+02  0.51100000000E-03 0. -1.
        -11    1    4    4    0    0 -0.99091278138E+01 -0.20217105055E+02  0.13555441499E+02  0.26280642027E+02  0.51100000000E-03 0.  1.
         12    1    4    4    0    0  0.41173102148E+01 -0.84716530837E+01 -0.48117925483E+01  0.10577074118E+02  0.00000000000E+00 0. -1.
</event>
<event>
 8    1  0.2502398E-006  0.9118800E+02  0.7816164E-02  0.1184000E+00
        -11   -1    0    0    0    0  0.00000000000E+00  0.00000000000E+00  0.45593999997E+02  0.45594000000E+02  0.51100000000E-03 0. -1.
         11   -1    0    0    0    0 -0.00000000000E+00 -0.00000000000E+00 -0.45593999997E+02  0.45594000000E+02  0.51100000000E-03 0.  1.
         23    2    1    2    0    0  0.00000000000E+00  0.00000000000E+00  0.11518563880E-14  0.91188000000E+02  0.91188000000E+02 0.  0.
    9900012    2    3    3    0    0 -0.24252641963E+01  0.36740802782E+02  0.10871209262E+00  0.54367077771E+02  0.39999985394E+02 0.  0.
        -12    1    3    3    0    0  0.24252641963E+01 -0.36740802782E+02 -0.10871209262E+00  0.36820922229E+02  0.00000000000E+00 0.  1.
         11    1    4    4    0    0 -0.11360414300E+02  0.15127762899E+02  0.12552032560E+02  0.22703782616E+02  0.51100000000E-03 0. -1.
        -11    1    4    4    0    0 -0.38755960389E+01  0.60083976768E+01 -0.84737080099E+01  0.11087146387E+02  0.51100000000E-03 0.  1.
         12    1    4    4    0    0  0.12810746143E+02  0.15604642206E+02 -0.39696124572E+01  0.20576148769E+02  0.00000000000E+00 0. -1.
</event>
<event>
 8    1  0.2502398E-006  0.9118800E+02  0.7816164E-02  0.1184000E+00
        -11   -1    0    0    0    0  0.00000000000E+00  0.00000000000E+00  0.45593999997E+02  0.45594000000E+02  0.51100000000E-03 0.  1.
         11   -1    0    0    0    0 -0.00000000000E+00 -0.00000000000E+00 -0.45593999997E+02  0.45594000000E+02  0.51100000000E-03 0. -1.
         23    2    1    2    0    0  0.00000000000E+00  0.00000000000E+00  0.66613381478E-15  0.91188000000E+02  0.91188000000E+02 0.  0.
    9900012    2    3    3    0    0 -0.23641328808E+02  0.28178669726E+02  0.16819943836E+01  0.54367096149E+02  0.40000027290E+02 0.  0.
        -12    1    3    3    0    0  0.23641328808E+02 -0.28178669726E+02 -0.16819943836E+01  0.36820903851E+02  0.00000000000E+00 0.  1.
         11    1    4    4    0    0  0.41533680953E+01  0.13849433237E+01 -0.34275306098E+01  0.55602608650E+01  0.51100000000E-03 0. -1.
        -11    1    4    4    0    0 -0.67802045899E+01  0.63893646143E+01 -0.11761906418E+02  0.15004585876E+02  0.51100000000E-03 0.  1.
         12    1    4    4    0    0 -0.21014492314E+02  0.20404361788E+02  0.16871431411E+02  0.33802249408E+02  0.00000000000E+00 0. -1.
</event>
<event>
 8    1  0.2502398E-006  0.9118800E+02  0.7816164E-02  0.1184000E+00
        -11   -1    0    0    0    0  0.00000000000E+00  0.00000000000E+00  0.45593999997E+02  0.45594000000E+02  0.51100000000E-03 0.  1.
         11   -1    0    0    0    0 -0.00000000000E+00 -0.00000000000E+00 -0.45593999997E+02  0.45594000000E+02  0.51100000000E-03 0. -1.
         23    2    1    2    0    0  0.35527136788E-14  0.00000000000E+00  0.00000000000E+00  0.91188000000E+02  0.91188000000E+02 0.  0.
    9900012    2    3    3    0    0 -0.25805987689E+02 -0.24897392383E+02 -0.83637583462E+01  0.54367060282E+02  0.39999945525E+02 0.  0.
         12    1    3    3    0    0  0.25805987689E+02  0.24897392383E+02  0.83637583462E+01  0.36820939718E+02  0.00000000000E+00 0. -1.
         11    1    4    4    0    0 -0.32320333388E+01 -0.27476781884E+01 -0.60699429903E+01  0.74054022913E+01  0.51100000000E-03 0. -1.
        -11    1    4    4    0    0  0.23582960171E+01  0.41353214086E+01  0.79908516435E+01  0.93014059962E+01  0.51100000000E-03 0.  1.
         12    1    4    4    0    0 -0.24932250367E+02 -0.26285035603E+02 -0.10284666999E+02  0.37660251995E+02  0.00000000000E+00 0. -1.
</event>
<event>
 8    1  0.2502398E-006  0.9118800E+02  0.7816164E-02  0.1184000E+00
        -11   -1    0    0    0    0  0.00000000000E+00  0.00000000000E+00  0.45593999997E+02  0.45594000000E+02  0.51100000000E-03 0.  1.
         11   -1    0    0    0    0 -0.00000000000E+00 -0.00000000000E+00 -0.45593999997E+02  0.45594000000E+02  0.51100000000E-03 0. -1.
         23    2    1    2    0    0  0.00000000000E+00  0.35527136788E-14 -0.35527136788E-14  0.91188000000E+02  0.91188000000E+02 0.  0.
    9900012    2    3    3    0    0 -0.76869701966E+01  0.30494146830E+02 -0.19151668378E+02  0.54367232717E+02  0.40000338623E+02 0.  0.
        -12    1    3    3    0    0  0.76869701966E+01 -0.30494146830E+02  0.19151668378E+02  0.36820767283E+02  0.00000000000E+00 0.  1.
         11    1    4    4    0    0 -0.55801075795E+01  0.94127105050E+00  0.34557275300E+01  0.66306594553E+01  0.51100000000E-03 0.  1.
        -11    1    4    4    0    0 -0.30960364828E+01  0.49527447777E+01 -0.22365270291E+02  0.23115372335E+02  0.51100000000E-03 0. -1.
         12    1    4    4    0    0  0.98917386570E+00  0.24600131001E+02 -0.24212561659E+00  0.24621200926E+02  0.00000000000E+00 0. -1.
</event>
<event>
 8    1  0.2502398E-006  0.9118800E+02  0.7816164E-02  0.1184000E+00
        -11   -1    0    0    0    0  0.00000000000E+00  0.00000000000E+00  0.45593999997E+02  0.45594000000E+02  0.51100000000E-03 0. -1.
         11   -1    0    0    0    0 -0.00000000000E+00 -0.00000000000E+00 -0.45593999997E+02  0.45594000000E+02  0.51100000000E-03 0.  1.
         23    2    1    2    0    0  0.00000000000E+00  0.00000000000E+00 -0.17763568394E-14  0.91188000000E+02  0.91188000000E+02 0.  0.
    9900012    2    3    3    0    0  0.31571293870E+02  0.10333927821E+02  0.15882269197E+02  0.54367039452E+02  0.39999898039E+02 0.  0.
        -12    1    3    3    0    0 -0.31571293870E+02 -0.10333927821E+02 -0.15882269197E+02  0.36820960548E+02  0.00000000000E+00 0.  1.
         11    1    4    4    0    0  0.15705424294E+02 -0.11819118648E+02  0.19533604062E+01  0.19752658936E+02  0.51100000000E-03 0.  1.
        -11    1    4    4    0    0  0.12862201529E+01  0.82842353781E+00  0.79544414015E+01  0.81002337072E+01  0.51100000000E-03 0. -1.
         12    1    4    4    0    0  0.14579649423E+02  0.21324622931E+02  0.59744673893E+01  0.26514146809E+02  0.00000000000E+00 0. -1.
</event>
<event>
 8    1  0.2502398E-006  0.9118800E+02  0.7816164E-02  0.1184000E+00
        -11   -1    0    0    0    0  0.00000000000E+00  0.00000000000E+00  0.45593999997E+02  0.45594000000E+02  0.51100000000E-03 0.  1.
         11   -1    0    0    0    0 -0.00000000000E+00 -0.00000000000E+00 -0.45593999997E+02  0.45594000000E+02  0.51100000000E-03 0. -1.
         23    2    1    2    0    0  0.00000000000E+00  0.00000000000E+00  0.71054273576E-14  0.91188000000E+02  0.91188000000E+02 0.  0.
    9900012    2    3    3    0    0  0.10954145005E+02  0.28171007302E+02  0.21028038671E+02  0.54367117942E+02  0.40000076972E+02 0.  0.
         12    1    3    3    0    0 -0.10954145005E+02 -0.28171007302E+02 -0.21028038671E+02  0.36820882058E+02  0.00000000000E+00 0. -1.
         11    1    4    4    0    0 -0.82846883663E+01  0.81982530709E+01 -0.29447388475E+01  0.12021601469E+02  0.51100000000E-03 0. -1.
        -11    1    4    4    0    0  0.10167507185E+02  0.18430786467E+02  0.55750254996E+01  0.21775054575E+02  0.51100000000E-03 0.  1.
        -12    1    4    4    0    0  0.90713261862E+01  0.15419677638E+01  0.18397752019E+02  0.20570461898E+02  0.00000000000E+00 0.  1.
</event>
<event>
 8    1  0.2502398E-006  0.9118800E+02  0.7816164E-02  0.1184000E+00
        -11   -1    0    0    0    0  0.00000000000E+00  0.00000000000E+00  0.45593999997E+02  0.45594000000E+02  0.51100000000E-03 0. -1.
         11   -1    0    0    0    0 -0.00000000000E+00 -0.00000000000E+00 -0.45593999997E+02  0.45594000000E+02  0.51100000000E-03 0.  1.
         23    2    1    2    0    0 -0.44408920985E-15 -0.88817841970E-15  0.71054273576E-14  0.91188000000E+02  0.91188000000E+02 0.  0.
    9900012    2    3    3    0    0  0.38015360668E+01  0.21646632410E+01  0.36560119394E+02  0.54367085108E+02  0.40000002120E+02 0.  0.
        -12    1    3    3    0    0 -0.38015360668E+01 -0.21646632410E+01 -0.36560119394E+02  0.36820914892E+02  0.00000000000E+00 0.  1.
         11    1    4    4    0    0 -0.37495651365E+01  0.12201763115E+01  0.16399149770E+01  0.42705257683E+01  0.51100000000E-03 0.  1.
        -11    1    4    4    0    0  0.91384534283E+01  0.15689076707E+02  0.28817145853E+02  0.34060040433E+02  0.51100000000E-03 0. -1.
         12    1    4    4    0    0 -0.15873522249E+01 -0.14744589777E+02  0.61030585643E+01  0.16036518906E+02  0.00000000000E+00 0. -1.
</event>
<event>
 8    1  0.2502398E-006  0.9118800E+02  0.7816164E-02  0.1184000E+00
        -11   -1    0    0    0    0  0.00000000000E+00  0.00000000000E+00  0.45593999997E+02  0.45594000000E+02  0.51100000000E-03 0.  1.
         11   -1    0    0    0    0 -0.00000000000E+00 -0.00000000000E+00 -0.45593999997E+02  0.45594000000E+02  0.51100000000E-03 0. -1.
         23    2    1    2    0    0  0.00000000000E+00  0.00000000000E+00  0.44408920985E-15  0.91188000000E+02  0.91188000000E+02 0.  0.
    9900012    2    3    3    0    0  0.17643003836E+02  0.32302777505E+02 -0.10175322252E+01  0.54367076726E+02  0.39999983013E+02 0.  0.
        -12    1    3    3    0    0 -0.17643003836E+02 -0.32302777505E+02  0.10175322252E+01  0.36820923274E+02  0.00000000000E+00 0.  1.
         11    1    4    4    0    0 -0.58221759106E+01  0.73199247916E+01  0.11684724284E+01  0.94257285854E+01  0.51100000000E-03 0. -1.
        -11    1    4    4    0    0 -0.47475269383E+01 -0.22256316054E+01  0.18008686813E+01  0.55439675631E+01  0.51100000000E-03 0.  1.
         12    1    4    4    0    0  0.28212706685E+02  0.27208484319E+02 -0.39868733349E+01  0.39397380578E+02  0.00000000000E+00 0. -1.
</event>
<event>
 8    1  0.2502398E-006  0.9118800E+02  0.7816164E-02  0.1184000E+00
        -11   -1    0    0    0    0  0.00000000000E+00  0.00000000000E+00  0.45593999997E+02  0.45594000000E+02  0.51100000000E-03 0. -1.
         11   -1    0    0    0    0 -0.00000000000E+00 -0.00000000000E+00 -0.45593999997E+02  0.45594000000E+02  0.51100000000E-03 0.  1.
         23    2    1    2    0    0 -0.17763568394E-14 -0.71054273576E-14 -0.35527136788E-14  0.91188000000E+02  0.91188000000E+02 0.  0.
    9900012    2    3    3    0    0 -0.14941507026E+02 -0.21412615714E+02 -0.25962108742E+02  0.54367084282E+02  0.40000000239E+02 0.  0.
         12    1    3    3    0    0  0.14941507026E+02  0.21412615714E+02  0.25962108742E+02  0.36820915718E+02  0.00000000000E+00 0. -1.
         11    1    4    4    0    0 -0.21653816055E+01 -0.17706786638E+01 -0.81541931982E+01  0.86206175767E+01  0.51100000000E-03 0. -1.
        -11    1    4    4    0    0 -0.14546777210E+02 -0.28118128524E+02 -0.19126772187E+02  0.36987447782E+02  0.51100000000E-03 0.  1.
         12    1    4    4    0    0  0.17706517895E+01  0.84761914735E+01  0.13188566430E+01  0.87590189234E+01  0.00000000000E+00 0. -1.
</event>
<event>
 8    1  0.2502398E-006  0.9118800E+02  0.7816164E-02  0.1184000E+00
        -11   -1    0    0    0    0  0.00000000000E+00  0.00000000000E+00  0.45593999997E+02  0.45594000000E+02  0.51100000000E-03 0. -1.
         11   -1    0    0    0    0 -0.00000000000E+00 -0.00000000000E+00 -0.45593999997E+02  0.45594000000E+02  0.51100000000E-03 0.  1.
         23    2    1    2    0    0  0.00000000000E+00  0.00000000000E+00  0.35527136788E-14  0.91188000000E+02  0.91188000000E+02 0.  0.
    9900012    2    3    3    0    0 -0.10069523902E+02  0.25414305873E+02  0.24667747531E+02  0.54367081722E+02  0.39999994401E+02 0.  0.
        -12    1    3    3    0    0  0.10069523902E+02 -0.25414305873E+02 -0.24667747531E+02  0.36820918278E+02  0.00000000000E+00 0.  1.
         11    1    4    4    0    0 -0.11791227762E+02  0.28594999436E+02  0.25719803266E+02  0.40227047184E+02  0.51100000000E-03 0. -1.
        -11    1    4    4    0    0 -0.97446562083E+00  0.29337499937E+01 -0.53612277370E+01  0.61886376029E+01  0.51100000000E-03 0.  1.
        -12    1    4    4    0    0  0.26961694811E+01 -0.61144435561E+01  0.43091720012E+01  0.79513969343E+01  0.00000000000E+00 0.  1.
</event>
<event>
 8    1  0.2502398E-006  0.9118800E+02  0.7816164E-02  0.1184000E+00
        -11   -1    0    0    0    0  0.00000000000E+00  0.00000000000E+00  0.45593999997E+02  0.45594000000E+02  0.51100000000E-03 0.  1.
         11   -1    0    0    0    0 -0.00000000000E+00 -0.00000000000E+00 -0.45593999997E+02  0.45594000000E+02  0.51100000000E-03 0. -1.
         23    2    1    2    0    0 -0.99920072216E-15 -0.35527136788E-14 -0.71054273576E-14  0.91188000000E+02  0.91188000000E+02 0.  0.
    9900012    2    3    3    0    0 -0.70608119694E+00  0.17572155469E+02 -0.32349691300E+02  0.54367058599E+02  0.39999941688E+02 0.  0.
        -12    1    3    3    0    0  0.70608119694E+00 -0.17572155469E+02  0.32349691300E+02  0.36820941401E+02  0.00000000000E+00 0.  1.
         11    1    4    4    0    0 -0.66337271662E+01  0.19361295462E+01 -0.88035024179E+01  0.11191809006E+02  0.51100000000E-03 0. -1.
        -11    1    4    4    0    0 -0.97973988034E+01  0.15997279966E+02 -0.19230506598E+02  0.26864742208E+02  0.51100000000E-03 0.  1.
         12    1    4    4    0    0  0.15725044773E+02 -0.36125404325E+00 -0.43156822841E+01  0.16310507385E+02  0.00000000000E+00 0. -1.
</event>
<event>
 8    1  0.2502398E-006  0.9118800E+02  0.7816164E-02  0.1184000E+00
        -11   -1    0    0    0    0  0.00000000000E+00  0.00000000000E+00  0.45593999997E+02  0.45594000000E+02  0.51100000000E-03 0. -1.
         11   -1    0    0    0    0 -0.00000000000E+00 -0.00000000000E+00 -0.45593999997E+02  0.45594000000E+02  0.51100000000E-03 0.  1.
         23    2    1    2    0    0  0.00000000000E+00 -0.17763568394E-14  0.88817841970E-15  0.91188000000E+02  0.91188000000E+02 0.  0.
    9900012    2    3    3    0    0  0.35258912596E+02  0.96632428576E+01 -0.43829754285E+01  0.54367086736E+02  0.40000005832E+02 0.  0.
        -12    1    3    3    0    0 -0.35258912596E+02 -0.96632428576E+01  0.43829754285E+01  0.36820913264E+02  0.00000000000E+00 0.  1.
         11    1    4    4    0    0  0.12567004573E+01  0.36906902122E+01  0.74288367544E+01  0.83897619791E+01  0.51100000000E-03 0. -1.
        -11    1    4    4    0    0  0.30673947791E+02  0.13944561548E+02 -0.33106391229E+01  0.33857084953E+02  0.51100000000E-03 0.  1.
        -12    1    4    4    0    0  0.33282643478E+01 -0.79720089026E+01 -0.85011730601E+01  0.12120239804E+02  0.00000000000E+00 0.  1.
</event>
<event>
 8    1  0.2502398E-006  0.9118800E+02  0.7816164E-02  0.1184000E+00
        -11   -1    0    0    0    0  0.00000000000E+00  0.00000000000E+00  0.45593999997E+02  0.45594000000E+02  0.51100000000E-03 0.  1.
         11   -1    0    0    0    0 -0.00000000000E+00 -0.00000000000E+00 -0.45593999997E+02  0.45594000000E+02  0.51100000000E-03 0. -1.
         23    2    1    2    0    0  0.00000000000E+00 -0.44408920985E-15 -0.35527136788E-14  0.91188000000E+02  0.91188000000E+02 0.  0.
    9900012    2    3    3    0    0 -0.24543622860E+02 -0.21133620791E+01  0.27366463922E+02  0.54367094662E+02  0.40000023900E+02 0.  0.
         12    1    3    3    0    0  0.24543622860E+02  0.21133620791E+01 -0.27366463922E+02  0.36820905338E+02  0.00000000000E+00 0. -1.
         11    1    4    4    0    0 -0.24449535876E+02  0.11974294016E+02  0.18936036567E+02  0.33162282835E+02  0.51100000000E-03 0. -1.
        -11    1    4    4    0    0  0.11007419182E+01 -0.12591760088E+02  0.11824210378E+02  0.17308264101E+02  0.51100000000E-03 0.  1.
         12    1    4    4    0    0 -0.11948289019E+01 -0.14958960075E+01 -0.33937830225E+01  0.38965477251E+01  0.00000000000E+00 0. -1.
</event>
<event>
 8    1  0.2502398E-006  0.9118800E+02  0.7816164E-02  0.1184000E+00
        -11   -1    0    0    0    0  0.00000000000E+00  0.00000000000E+00  0.45593999997E+02  0.45594000000E+02  0.51100000000E-03 0.  1.
         11   -1    0    0    0    0 -0.00000000000E+00 -0.00000000000E+00 -0.45593999997E+02  0.45594000000E+02  0.51100000000E-03 0. -1.
         23    2    1    2    0    0 -0.35527136788E-14  0.00000000000E+00  0.35527136788E-14  0.91188000000E+02  0.91188000000E+02 0.  0.
    9900012    2    3    3    0    0  0.15629678843E+02 -0.11076613918E+02  0.31445205255E+02  0.54367093301E+02  0.40000020799E+02 0.  0.
         12    1    3    3    0    0 -0.15629678843E+02  0.11076613918E+02 -0.31445205255E+02  0.36820906699E+02  0.00000000000E+00 0. -1.
         11    1    4    4    0    0  0.57073212459E+01 -0.24993821764E+01 -0.59954734282E+01  0.86467409442E+01  0.51100000000E-03 0. -1.
        -11    1    4    4    0    0 -0.70631121340E+01 -0.55241503146E+01  0.12059558398E+02  0.15027865408E+02  0.51100000000E-03 0.  1.
        -12    1    4    4    0    0  0.16985469731E+02 -0.30530814267E+01  0.25381120285E+02  0.30692486949E+02  0.00000000000E+00 0.  1.
</event>
<event>
 8    1  0.2502398E-006  0.9118800E+02  0.7816164E-02  0.1184000E+00
        -11   -1    0    0    0    0  0.00000000000E+00  0.00000000000E+00  0.45593999997E+02  0.45594000000E+02  0.51100000000E-03 0.  1.
         11   -1    0    0    0    0 -0.00000000000E+00 -0.00000000000E+00 -0.45593999997E+02  0.45594000000E+02  0.51100000000E-03 0. -1.
         23    2    1    2    0    0  0.00000000000E+00  0.00000000000E+00 -0.35527136788E-14  0.91188000000E+02  0.91188000000E+02 0.  0.
    9900012    2    3    3    0    0 -0.62284760543E+01  0.17760564741E+02 -0.31647264981E+02  0.54367069068E+02  0.39999965555E+02 0.  0.
        -12    1    3    3    0    0  0.62284760543E+01 -0.17760564741E+02  0.31647264981E+02  0.36820930932E+02  0.00000000000E+00 0.  1.
         11    1    4    4    0    0 -0.37121402095E+01  0.72537148793E+01 -0.36460889744E+02  0.37360311103E+02  0.51100000000E-03 0. -1.
        -11    1    4    4    0    0 -0.66951022364E+01  0.71033739557E+01 -0.28977057054E-01  0.97613091049E+01  0.51100000000E-03 0.  1.
         12    1    4    4    0    0  0.41787663916E+01  0.34034759063E+01  0.48426018205E+01  0.72454488606E+01  0.00000000000E+00 0. -1.
</event>
<event>
 8    1  0.2502398E-006  0.9118800E+02  0.7816164E-02  0.1184000E+00
        -11   -1    0    0    0    0  0.00000000000E+00  0.00000000000E+00  0.45593999997E+02  0.45594000000E+02  0.51100000000E-03 0.  1.
         11   -1    0    0    0    0 -0.00000000000E+00 -0.00000000000E+00 -0.45593999997E+02  0.45594000000E+02  0.51100000000E-03 0. -1.
         23    2    1    2    0    0  0.00000000000E+00  0.35527136788E-14  0.00000000000E+00  0.91188000000E+02  0.91188000000E+02 0.  0.
    9900012    2    3    3    0    0 -0.21986161004E+02 -0.20704393870E+02 -0.21064602319E+02  0.54367072906E+02  0.39999974303E+02 0.  0.
        -12    1    3    3    0    0  0.21986161004E+02  0.20704393870E+02  0.21064602319E+02  0.36820927094E+02  0.00000000000E+00 0.  1.
         11    1    4    4    0    0 -0.20810144402E+02  0.28383256064E+00 -0.80995527790E+01  0.22332609038E+02  0.51100000000E-03 0.  1.
        -11    1    4    4    0    0  0.23243004700E+01 -0.18855833484E+02 -0.17564432241E+02  0.25873811263E+02  0.51100000000E-03 0. -1.
         12    1    4    4    0    0 -0.35003170722E+01 -0.21323929469E+01  0.45993827011E+01  0.61606526048E+01  0.00000000000E+00 0. -1.
</event>
<event>
 8    1  0.2502398E-006  0.9118800E+02  0.7816164E-02  0.1184000E+00
        -11   -1    0    0    0    0  0.00000000000E+00  0.00000000000E+00  0.45593999997E+02  0.45594000000E+02  0.51100000000E-03 0. -1.
         11   -1    0    0    0    0 -0.00000000000E+00 -0.00000000000E+00 -0.45593999997E+02  0.45594000000E+02  0.51100000000E-03 0.  1.
         23    2    1    2    0    0  0.13322676296E-14  0.00000000000E+00  0.35527136788E-14  0.91188000000E+02  0.91188000000E+02 0.  0.
    9900012    2    3    3    0    0  0.66756770499E+00 -0.24355724419E+02  0.27606716939E+02  0.54367112195E+02  0.40000063871E+02 0.  0.
        -12    1    3    3    0    0 -0.66756770499E+00  0.24355724419E+02 -0.27606716939E+02  0.36820887805E+02  0.00000000000E+00 0.  1.
         11    1    4    4    0    0  0.36542434549E+01 -0.47842449317E+01 -0.13715598968E+01  0.61744369465E+01  0.51100000000E-03 0.  1.
        -11    1    4    4    0    0  0.14079850819E+02 -0.14951401703E+02  0.12618473673E+02  0.24104200673E+02  0.51100000000E-03 0. -1.
        -12    1    4    4    0    0 -0.17066526569E+02 -0.46200777836E+01  0.16359803162E+02  0.24088474575E+02  0.00000000000E+00 0.  1.
</event>
<event>
 8    1  0.2502398E-006  0.9118800E+02  0.7816164E-02  0.1184000E+00
        -11   -1    0    0    0    0  0.00000000000E+00  0.00000000000E+00  0.45593999997E+02  0.45594000000E+02  0.51100000000E-03 0.  1.
         11   -1    0    0    0    0 -0.00000000000E+00 -0.00000000000E+00 -0.45593999997E+02  0.45594000000E+02  0.51100000000E-03 0. -1.
         23    2    1    2    0    0  0.00000000000E+00  0.00000000000E+00  0.00000000000E+00  0.91188000000E+02  0.91188000000E+02 0.  0.
    9900012    2    3    3    0    0 -0.21490716390E+02  0.16769770888E+02 -0.24752855158E+02  0.54367082778E+02  0.39999996810E+02 0.  0.
        -12    1    3    3    0    0  0.21490716390E+02 -0.16769770888E+02  0.24752855158E+02  0.36820917222E+02  0.00000000000E+00 0.  1.
         11    1    4    4    0    0 -0.10791980767E+02 -0.43685733651E+01  0.27898543564E+01  0.11972241633E+02  0.51100000000E-03 0. -1.
        -11    1    4    4    0    0 -0.57283140343E+01  0.20044048442E+02 -0.82125106096E+01  0.22405865089E+02  0.51100000000E-03 0.  1.
         12    1    4    4    0    0 -0.49704215889E+01  0.10942958108E+01 -0.19330198905E+02  0.19988976056E+02  0.00000000000E+00 0. -1.
</event>
<event>
 8    1  0.2502398E-006  0.9118800E+02  0.7816164E-02  0.1184000E+00
        -11   -1    0    0    0    0  0.00000000000E+00  0.00000000000E+00  0.45593999997E+02  0.45594000000E+02  0.51100000000E-03 0.  1.
         11   -1    0    0    0    0 -0.00000000000E+00 -0.00000000000E+00 -0.45593999997E+02  0.45594000000E+02  0.51100000000E-03 0. -1.
         23    2    1    2    0    0  0.00000000000E+00  0.00000000000E+00  0.17763568394E-14  0.91188000000E+02  0.91188000000E+02 0.  0.
    9900012    2    3    3    0    0 -0.10699192792E+02 -0.34372923309E+02 -0.77336529888E+01  0.54367082416E+02  0.39999995983E+02 0.  0.
        -12    1    3    3    0    0  0.10699192792E+02  0.34372923309E+02  0.77336529888E+01  0.36820917584E+02  0.00000000000E+00 0.  1.
         11    1    4    4    0    0 -0.44915500780E+01 -0.20780222836E+02 -0.14532407616E+02  0.25752331052E+02  0.51100000000E-03 0. -1.
        -11    1    4    4    0    0 -0.55432871464E+01 -0.77035197634E+01  0.15447643516E+02  0.18130138984E+02  0.51100000000E-03 0.  1.
        -12    1    4    4    0    0 -0.66435556754E+00 -0.58891807093E+01 -0.86488888883E+01  0.10484612380E+02  0.00000000000E+00 0.  1.
</event>
<event>
 8    1  0.2502398E-006  0.9118800E+02  0.7816164E-02  0.1184000E+00
        -11   -1    0    0    0    0  0.00000000000E+00  0.00000000000E+00  0.45593999997E+02  0.45594000000E+02  0.51100000000E-03 0.  1.
         11   -1    0    0    0    0 -0.00000000000E+00 -0.00000000000E+00 -0.45593999997E+02  0.45594000000E+02  0.51100000000E-03 0. -1.
         23    2    1    2    0    0  0.00000000000E+00  0.00000000000E+00 -0.35527136788E-14  0.91188000000E+02  0.91188000000E+02 0.  0.
    9900012    2    3    3    0    0 -0.17172370882E+02 -0.15884982549E+02 -0.28435132521E+02  0.54367085375E+02  0.40000002730E+02 0.  0.
        -12    1    3    3    0    0  0.17172370882E+02  0.15884982549E+02  0.28435132521E+02  0.36820914625E+02  0.00000000000E+00 0.  1.
         11    1    4    4    0    0 -0.11826728601E+02  0.42296990289E+01 -0.19282487207E+02  0.23012522165E+02  0.51100000000E-03 0. -1.
        -11    1    4    4    0    0  0.34628991044E+01  0.78146383417E+00 -0.78791899670E+01  0.86419899750E+01  0.51100000000E-03 0.  1.
        -12    1    4    4    0    0 -0.88085413855E+01 -0.20896145412E+02 -0.12734553474E+01  0.22712573235E+02  0.00000000000E+00 0.  1.
</event>
<event>
 8    1  0.2502398E-006  0.9118800E+02  0.7816164E-02  0.1184000E+00
        -11   -1    0    0    0    0  0.00000000000E+00  0.00000000000E+00  0.45593999997E+02  0.45594000000E+02  0.51100000000E-03 0.  1.
         11   -1    0    0    0    0 -0.00000000000E+00 -0.00000000000E+00 -0.45593999997E+02  0.45594000000E+02  0.51100000000E-03 0. -1.
         23    2    1    2    0    0  0.00000000000E+00  0.00000000000E+00  0.22204460493E-14  0.91188000000E+02  0.91188000000E+02 0.  0.
    9900012    2    3    3    0    0 -0.35111129310E+02 -0.10818691836E+02 -0.24380004141E+01  0.54367090988E+02  0.40000015525E+02 0.  0.
         12    1    3    3    0    0  0.35111129310E+02  0.10818691836E+02  0.24380004141E+01  0.36820909012E+02  0.00000000000E+00 0. -1.
         11    1    4    4    0    0  0.50632100090E+01  0.18052825601E+01 -0.67292141884E+00  0.54173761374E+01  0.51100000000E-03 0. -1.
        -11    1    4    4    0    0 -0.15167007990E+02 -0.14229924832E+02 -0.93008040089E+01  0.22782314359E+02  0.51100000000E-03 0.  1.
        -12    1    4    4    0    0 -0.25007331329E+02  0.16059504357E+01  0.75357250137E+01  0.26167400491E+02  0.00000000000E+00 0.  1.
</event>
<event>
 8    1  0.2502398E-006  0.9118800E+02  0.7816164E-02  0.1184000E+00
        -11   -1    0    0    0    0  0.00000000000E+00  0.00000000000E+00  0.45593999997E+02  0.45594000000E+02  0.51100000000E-03 0.  1.
         11   -1    0    0    0    0 -0.00000000000E+00 -0.00000000000E+00 -0.45593999997E+02  0.45594000000E+02  0.51100000000E-03 0. -1.
         23    2    1    2    0    0  0.00000000000E+00  0.00000000000E+00 -0.10824674490E-14  0.91188000000E+02  0.91188000000E+02 0.  0.
    9900012    2    3    3    0    0 -0.13123245318E+02 -0.34402596419E+02 -0.14912334214E+00  0.54367075978E+02  0.39999981308E+02 0.  0.
         12    1    3    3    0    0  0.13123245318E+02  0.34402596419E+02  0.14912334214E+00  0.36820924022E+02  0.00000000000E+00 0. -1.
         11    1    4    4    0    0 -0.16623540837E+02 -0.13230132158E+02 -0.30005173517E+01  0.21456505109E+02  0.51100000000E-03 0. -1.
        -11    1    4    4    0    0  0.71565269642E+01 -0.21628148115E+02 -0.57992435551E+01  0.23507953870E+02  0.51100000000E-03 0.  1.
        -12    1    4    4    0    0 -0.36562314450E+01  0.45568385435E+00  0.86506375646E+01  0.94026169989E+01  0.00000000000E+00 0.  1.
</event>
<event>
 8    1  0.2502398E-006  0.9118800E+02  0.7816164E-02  0.1184000E+00
        -11   -1    0    0    0    0  0.00000000000E+00  0.00000000000E+00  0.45593999997E+02  0.45594000000E+02  0.51100000000E-03 0.  1.
         11   -1    0    0    0    0 -0.00000000000E+00 -0.00000000000E+00 -0.45593999997E+02  0.45594000000E+02  0.51100000000E-03 0. -1.
         23    2    1    2    0    0  0.00000000000E+00  0.00000000000E+00  0.17763568394E-14  0.91188000000E+02  0.91188000000E+02 0.  0.
    9900012    2    3    3    0    0 -0.32366957018E+02 -0.10883025259E+02  0.13773902604E+02  0.54367074721E+02  0.39999978442E+02 0.  0.
        -12    1    3    3    0    0  0.32366957018E+02  0.10883025259E+02 -0.13773902604E+02  0.36820925279E+02  0.00000000000E+00 0.  1.
         11    1    4    4    0    0 -0.31994895873E+02  0.41525310546E+01  0.93186422057E+01  0.33582048313E+02  0.51100000000E-03 0. -1.
        -11    1    4    4    0    0  0.45774147197E+01 -0.94700645839E+01 -0.22581392996E+01  0.10757975743E+02  0.51100000000E-03 0.  1.
         12    1    4    4    0    0 -0.49494758655E+01 -0.55654917298E+01  0.67133996979E+01  0.10027050665E+02  0.00000000000E+00 0. -1.
</event>
<event>
 8    1  0.2502398E-006  0.9118800E+02  0.7816164E-02  0.1184000E+00
        -11   -1    0    0    0    0  0.00000000000E+00  0.00000000000E+00  0.45593999997E+02  0.45594000000E+02  0.51100000000E-03 0.  1.
         11   -1    0    0    0    0 -0.00000000000E+00 -0.00000000000E+00 -0.45593999997E+02  0.45594000000E+02  0.51100000000E-03 0. -1.
         23    2    1    2    0    0 -0.88817841970E-15  0.00000000000E+00  0.00000000000E+00  0.91188000000E+02  0.91188000000E+02 0.  0.
    9900012    2    3    3    0    0 -0.35453398889E+01  0.89472764630E+01  0.35540905991E+02  0.54367093035E+02  0.40000020193E+02 0.  0.
         12    1    3    3    0    0  0.35453398889E+01 -0.89472764630E+01 -0.35540905991E+02  0.36820906965E+02  0.00000000000E+00 0. -1.
         11    1    4    4    0    0 -0.66828867744E+01  0.80941606308E+01  0.32730025467E+01  0.10994951473E+02  0.51100000000E-03 0. -1.
        -11    1    4    4    0    0  0.11572672496E+02  0.93883691288E+01  0.96077498935E+01  0.17730681935E+02  0.51100000000E-03 0.  1.
        -12    1    4    4    0    0 -0.84351256103E+01 -0.85352532966E+01  0.22660153551E+02  0.25641459628E+02  0.00000000000E+00 0.  1.
</event>
<event>
 8    1  0.2502398E-006  0.9118800E+02  0.7816164E-02  0.1184000E+00
        -11   -1    0    0    0    0  0.00000000000E+00  0.00000000000E+00  0.45593999997E+02  0.45594000000E+02  0.51100000000E-03 0. -1.
         11   -1    0    0    0    0 -0.00000000000E+00 -0.00000000000E+00 -0.45593999997E+02  0.45594000000E+02  0.51100000000E-03 0.  1.
         23    2    1    2    0    0  0.00000000000E+00  0.00000000000E+00  0.00000000000E+00  0.91188000000E+02  0.91188000000E+02 0.  0.
    9900012    2    3    3    0    0 -0.13932802718E+02 -0.24867390471E+02 -0.23308162470E+02  0.54367074725E+02  0.39999978450E+02 0.  0.
         12    1    3    3    0    0  0.13932802718E+02  0.24867390471E+02  0.23308162470E+02  0.36820925275E+02  0.00000000000E+00 0. -1.
         11    1    4    4    0    0  0.87965269032E+00 -0.16316726991E+02 -0.73089235186E+01  0.17900551160E+02  0.51100000000E-03 0. -1.
        -11    1    4    4    0    0 -0.95520252137E+01  0.64000167154E+00  0.65192234111E+01  0.11582359948E+02  0.51100000000E-03 0.  1.
        -12    1    4    4    0    0 -0.52604301943E+01 -0.91906651511E+01 -0.22518462363E+02  0.24884163617E+02  0.00000000000E+00 0.  1.
</event>
<event>
 8    1  0.2502398E-006  0.9118800E+02  0.7816164E-02  0.1184000E+00
        -11   -1    0    0    0    0  0.00000000000E+00  0.00000000000E+00  0.45593999997E+02  0.45594000000E+02  0.51100000000E-03 0. -1.
         11   -1    0    0    0    0 -0.00000000000E+00 -0.00000000000E+00 -0.45593999997E+02  0.45594000000E+02  0.51100000000E-03 0.  1.
         23    2    1    2    0    0  0.00000000000E+00  0.00000000000E+00  0.00000000000E+00  0.91188000000E+02  0.91188000000E+02 0.  0.
    9900012    2    3    3    0    0 -0.16626914407E+01  0.30240545615E+02  0.20940978182E+02  0.54367085982E+02  0.40000004113E+02 0.  0.
        -12    1    3    3    0    0  0.16626914407E+01 -0.30240545615E+02 -0.20940978182E+02  0.36820914018E+02  0.00000000000E+00 0.  1.
         11    1    4    4    0    0  0.53596958076E+01  0.74665864330E+01  0.12356088329E+02  0.15399648410E+02  0.51100000000E-03 0. -1.
        -11    1    4    4    0    0 -0.29527178955E+01  0.27342489747E+02 -0.10868787201E+01  0.27522928517E+02  0.51100000000E-03 0.  1.
        -12    1    4    4    0    0 -0.40696693528E+01 -0.45685305650E+01  0.96717685736E+01  0.11444509055E+02  0.00000000000E+00 0.  1.
</event>
<event>
 8    1  0.2502398E-006  0.9118800E+02  0.7816164E-02  0.1184000E+00
        -11   -1    0    0    0    0  0.00000000000E+00  0.00000000000E+00  0.45593999997E+02  0.45594000000E+02  0.51100000000E-03 0. -1.
         11   -1    0    0    0    0 -0.00000000000E+00 -0.00000000000E+00 -0.45593999997E+02  0.45594000000E+02  0.51100000000E-03 0.  1.
         23    2    1    2    0    0  0.00000000000E+00  0.88817841970E-15 -0.35527136788E-14  0.91188000000E+02  0.91188000000E+02 0.  0.
    9900012    2    3    3    0    0 -0.28477768998E+02 -0.47286809960E+01  0.22856865414E+02  0.54367081386E+02  0.39999993635E+02 0.  0.
        -12    1    3    3    0    0  0.28477768998E+02  0.47286809960E+01 -0.22856865414E+02  0.36820918614E+02  0.00000000000E+00 0.  1.
         11    1    4    4    0    0 -0.19150433122E+02 -0.87312658344E+01  0.27293204697E+02  0.34465825316E+02  0.51100000000E-03 0. -1.
        -11    1    4    4    0    0 -0.64855523481E+01  0.79937522070E+01  0.32425586291E+01  0.10792434866E+02  0.51100000000E-03 0.  1.
        -12    1    4    4    0    0 -0.28417835272E+01 -0.39911673686E+01 -0.76788979120E+01  0.91088212038E+01  0.00000000000E+00 0.  1.
</event>
<event>
 8    1  0.2502398E-006  0.9118800E+02  0.7816164E-02  0.1184000E+00
        -11   -1    0    0    0    0  0.00000000000E+00  0.00000000000E+00  0.45593999997E+02  0.45594000000E+02  0.51100000000E-03 0.  1.
         11   -1    0    0    0    0 -0.00000000000E+00 -0.00000000000E+00 -0.45593999997E+02  0.45594000000E+02  0.51100000000E-03 0. -1.
         23    2    1    2    0    0  0.00000000000E+00  0.00000000000E+00  0.00000000000E+00  0.91188000000E+02  0.91188000000E+02 0.  0.
    9900012    2    3    3    0    0 -0.16226179591E+02 -0.25022664539E+02 -0.21595278611E+02  0.54367099644E+02  0.40000035258E+02 0.  0.
        -12    1    3    3    0    0  0.16226179591E+02  0.25022664539E+02  0.21595278611E+02  0.36820900356E+02  0.00000000000E+00 0.  1.
         11    1    4    4    0    0 -0.12490424346E+02 -0.14629225106E+02 -0.54113957149E+01  0.19982695799E+02  0.51100000000E-03 0. -1.
        -11    1    4    4    0    0  0.19850328118E+01  0.30628300920E+01  0.64659385152E+01  0.74249339782E+01  0.51100000000E-03 0.  1.
         12    1    4    4    0    0 -0.57207880559E+01 -0.13456269524E+02 -0.22649821412E+02  0.26959469866E+02  0.00000000000E+00 0. -1.
</event>
<event>
 8    1  0.2502398E-006  0.9118800E+02  0.7816164E-02  0.1184000E+00
        -11   -1    0    0    0    0  0.00000000000E+00  0.00000000000E+00  0.45593999997E+02  0.45594000000E+02  0.51100000000E-03 0.  1.
         11   -1    0    0    0    0 -0.00000000000E+00 -0.00000000000E+00 -0.45593999997E+02  0.45594000000E+02  0.51100000000E-03 0. -1.
         23    2    1    2    0    0  0.88817841970E-15  0.22204460493E-14  0.00000000000E+00  0.91188000000E+02  0.91188000000E+02 0.  0.
    9900012    2    3    3    0    0  0.16990999382E+01  0.32146604156E+01  0.36640942286E+02  0.54367087005E+02  0.40000006445E+02 0.  0.
         12    1    3    3    0    0 -0.16990999382E+01 -0.32146604156E+01 -0.36640942286E+02  0.36820912995E+02  0.00000000000E+00 0. -1.
         11    1    4    4    0    0 -0.32198325692E+01 -0.34986420081E+01  0.77329802260E+00  0.48172406798E+01  0.51100000000E-03 0. -1.
        -11    1    4    4    0    0 -0.77978689042E+01  0.16366145516E+02  0.17253794478E+02  0.25027003469E+02  0.51100000000E-03 0.  1.
         12    1    4    4    0    0  0.12716801412E+02 -0.96528430919E+01  0.18613849785E+02  0.24522842856E+02  0.00000000000E+00 0. -1.
</event>
<event>
 8    1  0.2502398E-006  0.9118800E+02  0.7816164E-02  0.1184000E+00
        -11   -1    0    0    0    0  0.00000000000E+00  0.00000000000E+00  0.45593999997E+02  0.45594000000E+02  0.51100000000E-03 0.  1.
         11   -1    0    0    0    0 -0.00000000000E+00 -0.00000000000E+00 -0.45593999997E+02  0.45594000000E+02  0.51100000000E-03 0. -1.
         23    2    1    2    0    0  0.00000000000E+00  0.35527136788E-14 -0.44408920985E-15  0.91188000000E+02  0.91188000000E+02 0.  0.
    9900012    2    3    3    0    0 -0.21763202955E+02 -0.29447096747E+02  0.38739148718E+01  0.54367140068E+02  0.40000127413E+02 0.  0.
        -12    1    3    3    0    0  0.21763202955E+02  0.29447096747E+02 -0.38739148718E+01  0.36820859932E+02  0.00000000000E+00 0.  1.
         11    1    4    4    0    0 -0.65749447877E+01 -0.24152511383E+02  0.25236060551E+01  0.25158344398E+02  0.51100000000E-03 0. -1.
        -11    1    4    4    0    0 -0.76718142133E+01  0.97203252767E+01  0.78873375918E+00  0.12408205270E+02  0.51100000000E-03 0.  1.
        -12    1    4    4    0    0 -0.75164439538E+01 -0.15014910641E+02  0.56157505755E+00  0.16800590400E+02  0.00000000000E+00 0.  1.
</event>
<event>
 8    1  0.2502398E-006  0.9118800E+02  0.7816164E-02  0.1184000E+00
        -11   -1    0    0    0    0  0.00000000000E+00  0.00000000000E+00  0.45593999997E+02  0.45594000000E+02  0.51100000000E-03 0.  1.
         11   -1    0    0    0    0 -0.00000000000E+00 -0.00000000000E+00 -0.45593999997E+02  0.45594000000E+02  0.51100000000E-03 0. -1.
         23    2    1    2    0    0  0.00000000000E+00  0.00000000000E+00 -0.35527136788E-14  0.91188000000E+02  0.91188000000E+02 0.  0.
    9900012    2    3    3    0    0  0.14715513541E+02  0.30765610213E+02 -0.13882043607E+02  0.54367078702E+02  0.39999987516E+02 0.  0.
         12    1    3    3    0    0 -0.14715513541E+02 -0.30765610213E+02  0.13882043607E+02  0.36820921298E+02  0.00000000000E+00 0. -1.
         11    1    4    4    0    0 -0.14410694686E+01  0.85145547899E+01  0.61339437504E+01  0.10592430820E+02  0.51100000000E-03 0. -1.
        -11    1    4    4    0    0  0.30234903536E+01  0.48813830587E+01  0.70138966393E+01  0.90644437674E+01  0.51100000000E-03 0.  1.
        -12    1    4    4    0    0  0.13133092656E+02  0.17369672364E+02 -0.27029883997E+02  0.34710204114E+02  0.00000000000E+00 0.  1.
</event>
<event>
 8    1  0.2502398E-006  0.9118800E+02  0.7816164E-02  0.1184000E+00
        -11   -1    0    0    0    0  0.00000000000E+00  0.00000000000E+00  0.45593999997E+02  0.45594000000E+02  0.51100000000E-03 0.  1.
         11   -1    0    0    0    0 -0.00000000000E+00 -0.00000000000E+00 -0.45593999997E+02  0.45594000000E+02  0.51100000000E-03 0. -1.
         23    2    1    2    0    0  0.17763568394E-14 -0.53290705182E-14 -0.71054273576E-14  0.91188000000E+02  0.91188000000E+02 0.  0.
    9900012    2    3    3    0    0 -0.82920857285E+01  0.10513539828E+02  0.34299899719E+02  0.54367131920E+02  0.40000108838E+02 0.  0.
         12    1    3    3    0    0  0.82920857285E+01 -0.10513539828E+02 -0.34299899719E+02  0.36820868080E+02  0.00000000000E+00 0. -1.
         11    1    4    4    0    0 -0.49938218861E+00 -0.93705634646E+01  0.11578016273E+02  0.14903264853E+02  0.51100000000E-03 0. -1.
        -11    1    4    4    0    0 -0.16498810658E+02  0.13508274156E+02  0.16859349966E+02  0.27183118020E+02  0.51100000000E-03 0.  1.
         12    1    4    4    0    0  0.87061071177E+01  0.63758291366E+01  0.58625334806E+01  0.12280749046E+02  0.00000000000E+00 0. -1.
</event>
<event>
 8    1  0.2502398E-006  0.9118800E+02  0.7816164E-02  0.1184000E+00
        -11   -1    0    0    0    0  0.00000000000E+00  0.00000000000E+00  0.45593999997E+02  0.45594000000E+02  0.51100000000E-03 0. -1.
         11   -1    0    0    0    0 -0.00000000000E+00 -0.00000000000E+00 -0.45593999997E+02  0.45594000000E+02  0.51100000000E-03 0.  1.
         23    2    1    2    0    0  0.00000000000E+00  0.35527136788E-14  0.88817841970E-15  0.91188000000E+02  0.91188000000E+02 0.  0.
    9900012    2    3    3    0    0  0.25026525268E+02  0.25949768272E+02 -0.74874745633E+01  0.54367085893E+02  0.40000003909E+02 0.  0.
        -12    1    3    3    0    0 -0.25026525268E+02 -0.25949768272E+02  0.74874745633E+01  0.36820914107E+02  0.00000000000E+00 0.  1.
         11    1    4    4    0    0  0.10936657124E+02 -0.23147744940E+01  0.25205901532E+01  0.11459582235E+02  0.51100000000E-03 0. -1.
        -11    1    4    4    0    0 -0.22329142718E+01 -0.38803444502E+01 -0.46585556886E+01  0.64610463984E+01  0.51100000000E-03 0.  1.
         12    1    4    4    0    0  0.16322782415E+02  0.32144887216E+02 -0.53495090279E+01  0.36446457260E+02  0.00000000000E+00 0. -1.
</event>
<event>
 8    1  0.2502398E-006  0.9118800E+02  0.7816164E-02  0.1184000E+00
        -11   -1    0    0    0    0  0.00000000000E+00  0.00000000000E+00  0.45593999997E+02  0.45594000000E+02  0.51100000000E-03 0. -1.
         11   -1    0    0    0    0 -0.00000000000E+00 -0.00000000000E+00 -0.45593999997E+02  0.45594000000E+02  0.51100000000E-03 0.  1.
         23    2    1    2    0    0  0.00000000000E+00  0.88817841970E-15  0.00000000000E+00  0.91188000000E+02  0.91188000000E+02 0.  0.
    9900012    2    3    3    0    0  0.27219086196E+02  0.76289961561E+01  0.23594672016E+02  0.54366962762E+02  0.39999723208E+02 0.  0.
        -12    1    3    3    0    0 -0.27219086196E+02 -0.76289961561E+01 -0.23594672016E+02  0.36821037238E+02  0.00000000000E+00 0.  1.
         11    1    4    4    0    0  0.12911536622E+02  0.12313716926E+02  0.29158815595E+02  0.34184381370E+02  0.51100000000E-03 0. -1.
        -11    1    4    4    0    0  0.66530210384E+01 -0.82567561896E+01 -0.11897976451E+01  0.10670160749E+02  0.51100000000E-03 0.  1.
         12    1    4    4    0    0  0.76545285358E+01  0.35720354201E+01 -0.43743459341E+01  0.95124206435E+01  0.00000000000E+00 0. -1.
</event>
<event>
 8    1  0.2502398E-006  0.9118800E+02  0.7816164E-02  0.1184000E+00
        -11   -1    0    0    0    0  0.00000000000E+00  0.00000000000E+00  0.45593999997E+02  0.45594000000E+02  0.51100000000E-03 0.  1.
         11   -1    0    0    0    0 -0.00000000000E+00 -0.00000000000E+00 -0.45593999997E+02  0.45594000000E+02  0.51100000000E-03 0. -1.
         23    2    1    2    0    0  0.44408920985E-15 -0.88817841970E-15  0.00000000000E+00  0.91188000000E+02  0.91188000000E+02 0.  0.
    9900012    2    3    3    0    0 -0.11929426740E+01  0.42060186753E+01 -0.36560449792E+02  0.54367079393E+02  0.39999989093E+02 0.  0.
        -12    1    3    3    0    0  0.11929426740E+01 -0.42060186753E+01  0.36560449792E+02  0.36820920607E+02  0.00000000000E+00 0.  1.
         11    1    4    4    0    0 -0.89369775631E+00 -0.13711276337E+02 -0.25630194520E+01  0.13977369690E+02  0.51100000000E-03 0. -1.
        -11    1    4    4    0    0  0.22980322882E+01 -0.11204588812E+01 -0.47757789579E+01  0.54170513582E+01  0.51100000000E-03 0.  1.
        -12    1    4    4    0    0 -0.25972772058E+01  0.19037753894E+02 -0.29221651382E+02  0.34972658345E+02  0.00000000000E+00 0.  1.
</event>
<event>
 8    1  0.2502398E-006  0.9118800E+02  0.7816164E-02  0.1184000E+00
        -11   -1    0    0    0    0  0.00000000000E+00  0.00000000000E+00  0.45593999997E+02  0.45594000000E+02  0.51100000000E-03 0. -1.
         11   -1    0    0    0    0 -0.00000000000E+00 -0.00000000000E+00 -0.45593999997E+02  0.45594000000E+02  0.51100000000E-03 0.  1.
         23    2    1    2    0    0  0.00000000000E+00 -0.22204460493E-15 -0.17763568394E-14  0.91188000000E+02  0.91188000000E+02 0.  0.
    9900012    2    3    3    0    0  0.35095235089E+02 -0.98834979269E+00 -0.11096273906E+02  0.54367086705E+02  0.40000005761E+02 0.  0.
         12    1    3    3    0    0 -0.35095235089E+02  0.98834979269E+00  0.11096273906E+02  0.36820913295E+02  0.00000000000E+00 0. -1.
         11    1    4    4    0    0  0.15083697706E+02  0.23782181570E+01  0.45750083657E+01  0.15940657449E+02  0.51100000000E-03 0. -1.
        -11    1    4    4    0    0  0.26792622863E+02 -0.20914818422E+01 -0.78512191326E+01  0.27997510216E+02  0.51100000000E-03 0.  1.
        -12    1    4    4    0    0 -0.67810854792E+01 -0.12750861075E+01 -0.78200631386E+01  0.10428919040E+02  0.00000000000E+00 0.  1.
</event>
<event>
 8    1  0.2502398E-006  0.9118800E+02  0.7816164E-02  0.1184000E+00
        -11   -1    0    0    0    0  0.00000000000E+00  0.00000000000E+00  0.45593999997E+02  0.45594000000E+02  0.51100000000E-03 0. -1.
         11   -1    0    0    0    0 -0.00000000000E+00 -0.00000000000E+00 -0.45593999997E+02  0.45594000000E+02  0.51100000000E-03 0.  1.
         23    2    1    2    0    0 -0.88817841970E-15  0.88817841970E-15  0.00000000000E+00  0.91188000000E+02  0.91188000000E+02 0.  0.
    9900012    2    3    3    0    0 -0.68078226476E+01  0.44904949816E+01  0.35906366109E+02  0.54367107540E+02  0.40000053259E+02 0.  0.
        -12    1    3    3    0    0  0.68078226476E+01 -0.44904949816E+01 -0.35906366109E+02  0.36820892460E+02  0.00000000000E+00 0.  1.
         11    1    4    4    0    0  0.89737153148E+01  0.11302437407E+00  0.71299767498E+01  0.11461976696E+02  0.51100000000E-03 0. -1.
        -11    1    4    4    0    0 -0.22982037437E+02  0.70738676060E+01  0.23139406719E+02  0.33371331877E+02  0.51100000000E-03 0.  1.
        -12    1    4    4    0    0  0.72004994746E+01 -0.26963969985E+01  0.56369826409E+01  0.95337989675E+01  0.00000000000E+00 0.  1.
</event>
<event>
 8    1  0.2502398E-006  0.9118800E+02  0.7816164E-02  0.1184000E+00
        -11   -1    0    0    0    0  0.00000000000E+00  0.00000000000E+00  0.45593999997E+02  0.45594000000E+02  0.51100000000E-03 0.  1.
         11   -1    0    0    0    0 -0.00000000000E+00 -0.00000000000E+00 -0.45593999997E+02  0.45594000000E+02  0.51100000000E-03 0. -1.
         23    2    1    2    0    0 -0.17763568394E-14  0.00000000000E+00  0.00000000000E+00  0.91188000000E+02  0.91188000000E+02 0.  0.
    9900012    2    3    3    0    0 -0.12516528582E+02  0.32057594704E+02  0.13093187126E+02  0.54367022079E+02  0.39999858434E+02 0.  0.
        -12    1    3    3    0    0  0.12516528582E+02 -0.32057594704E+02 -0.13093187126E+02  0.36820977921E+02  0.00000000000E+00 0.  1.
         11    1    4    4    0    0 -0.18146905011E+02  0.19849022709E+02 -0.89682183248E+01  0.28350005365E+02  0.51100000000E-03 0. -1.
        -11    1    4    4    0    0  0.39761162752E+01  0.54324533312E+01  0.94096871047E+01  0.11569929192E+02  0.51100000000E-03 0.  1.
         12    1    4    4    0    0  0.16542601541E+01  0.67761186635E+01  0.12651718346E+02  0.14447087523E+02  0.00000000000E+00 0. -1.
</event>
<event>
 8    1  0.2502398E-006  0.9118800E+02  0.7816164E-02  0.1184000E+00
        -11   -1    0    0    0    0  0.00000000000E+00  0.00000000000E+00  0.45593999997E+02  0.45594000000E+02  0.51100000000E-03 0. -1.
         11   -1    0    0    0    0 -0.00000000000E+00 -0.00000000000E+00 -0.45593999997E+02  0.45594000000E+02  0.51100000000E-03 0.  1.
         23    2    1    2    0    0  0.71054273576E-14 -0.17763568394E-14 -0.12490009027E-14  0.91188000000E+02  0.91188000000E+02 0.  0.
    9900012    2    3    3    0    0  0.34366403538E+02 -0.13218081123E+02 -0.11112483746E+00  0.54367085977E+02  0.40000004102E+02 0.  0.
        -12    1    3    3    0    0 -0.34366403538E+02  0.13218081123E+02  0.11112483746E+00  0.36820914023E+02  0.00000000000E+00 0.  1.
         11    1    4    4    0    0  0.32303954825E+01 -0.45214434758E+01  0.80066664338E+01  0.97460563164E+01  0.51100000000E-03 0. -1.
        -11    1    4    4    0    0  0.88704257473E+01 -0.10096638956E+02 -0.16058487558E+02  0.20940429653E+02  0.51100000000E-03 0.  1.
        -12    1    4    4    0    0  0.22265582309E+02  0.14000013089E+01  0.79406962867E+01  0.23680600008E+02  0.00000000000E+00 0.  1.
</event>
<event>
 8    1  0.2502398E-006  0.9118800E+02  0.7816164E-02  0.1184000E+00
        -11   -1    0    0    0    0  0.00000000000E+00  0.00000000000E+00  0.45593999997E+02  0.45594000000E+02  0.51100000000E-03 0. -1.
         11   -1    0    0    0    0 -0.00000000000E+00 -0.00000000000E+00 -0.45593999997E+02  0.45594000000E+02  0.51100000000E-03 0.  1.
         23    2    1    2    0    0  0.00000000000E+00  0.35527136788E-14 -0.17763568394E-14  0.91188000000E+02  0.91188000000E+02 0.  0.
    9900012    2    3    3    0    0 -0.21467335334E+02  0.27478434136E+02 -0.11826572813E+02  0.54367100318E+02  0.40000036794E+02 0.  0.
         12    1    3    3    0    0  0.21467335334E+02 -0.27478434136E+02  0.11826572813E+02  0.36820899682E+02  0.00000000000E+00 0. -1.
         11    1    4    4    0    0 -0.23082692619E+01  0.63166879790E+01  0.72804351247E+01  0.99112758954E+01  0.51100000000E-03 0. -1.
        -11    1    4    4    0    0 -0.11721050847E-02 -0.62178737565E+01 -0.57487033387E+01  0.84681488982E+01  0.51100000000E-03 0.  1.
        -12    1    4    4    0    0 -0.19157893967E+02  0.27379619914E+02 -0.13358304599E+02  0.35987675524E+02  0.00000000000E+00 0.  1.
</event>
<event>
 8    1  0.2502398E-006  0.9118800E+02  0.7816164E-02  0.1184000E+00
        -11   -1    0    0    0    0  0.00000000000E+00  0.00000000000E+00  0.45593999997E+02  0.45594000000E+02  0.51100000000E-03 0.  1.
         11   -1    0    0    0    0 -0.00000000000E+00 -0.00000000000E+00 -0.45593999997E+02  0.45594000000E+02  0.51100000000E-03 0. -1.
         23    2    1    2    0    0  0.88817841970E-15  0.44408920985E-15  0.71054273576E-14  0.91188000000E+02  0.91188000000E+02 0.  0.
    9900012    2    3    3    0    0  0.43037860264E+01 -0.31753785382E+01  0.36430402261E+02  0.54367084586E+02  0.40000000932E+02 0.  0.
         12    1    3    3    0    0 -0.43037860264E+01  0.31753785382E+01 -0.36430402261E+02  0.36820915414E+02  0.00000000000E+00 0. -1.
         11    1    4    4    0    0 -0.11683465882E+01  0.70934709118E+01 -0.92656522708E+00  0.72485092749E+01  0.51100000000E-03 0. -1.
        -11    1    4    4    0    0 -0.12875695797E+01  0.54233160172E+01 -0.48795317129E+00  0.55953811849E+01  0.51100000000E-03 0.  1.
        -12    1    4    4    0    0  0.67597021943E+01 -0.15692165467E+02  0.37844920659E+02  0.41523194127E+02  0.00000000000E+00 0.  1.
</event>
<event>
 8    1  0.2502398E-006  0.9118800E+02  0.7816164E-02  0.1184000E+00
        -11   -1    0    0    0    0  0.00000000000E+00  0.00000000000E+00  0.45593999997E+02  0.45594000000E+02  0.51100000000E-03 0.  1.
         11   -1    0    0    0    0 -0.00000000000E+00 -0.00000000000E+00 -0.45593999997E+02  0.45594000000E+02  0.51100000000E-03 0. -1.
         23    2    1    2    0    0  0.35527136788E-14  0.00000000000E+00  0.17763568394E-14  0.91188000000E+02  0.91188000000E+02 0.  0.
    9900012    2    3    3    0    0  0.27936703660E+02  0.21154260226E+02  0.11305667157E+02  0.54367078679E+02  0.39999987465E+02 0.  0.
         12    1    3    3    0    0 -0.27936703660E+02 -0.21154260226E+02 -0.11305667157E+02  0.36820921321E+02  0.00000000000E+00 0. -1.
         11    1    4    4    0    0  0.21208746637E+02  0.40287119456E+01  0.20738096812E+01  0.21687372840E+02  0.51100000000E-03 0. -1.
        -11    1    4    4    0    0  0.56028886069E+01  0.99200030762E+01  0.17982957426E+02  0.21288155858E+02  0.51100000000E-03 0.  1.
        -12    1    4    4    0    0  0.11250684163E+01  0.72055452038E+01 -0.87510999510E+01  0.11391549981E+02  0.00000000000E+00 0.  1.
</event>
<event>
 8    1  0.2502398E-006  0.9118800E+02  0.7816164E-02  0.1184000E+00
        -11   -1    0    0    0    0  0.00000000000E+00  0.00000000000E+00  0.45593999997E+02  0.45594000000E+02  0.51100000000E-03 0. -1.
         11   -1    0    0    0    0 -0.00000000000E+00 -0.00000000000E+00 -0.45593999997E+02  0.45594000000E+02  0.51100000000E-03 0.  1.
         23    2    1    2    0    0  0.00000000000E+00  0.35527136788E-14 -0.71054273576E-14  0.91188000000E+02  0.91188000000E+02 0.  0.
    9900012    2    3    3    0    0 -0.16066555369E+02 -0.20947612976E+02  0.25667936790E+02  0.54367086515E+02  0.40000005328E+02 0.  0.
        -12    1    3    3    0    0  0.16066555369E+02  0.20947612976E+02 -0.25667936790E+02  0.36820913485E+02  0.00000000000E+00 0.  1.
         11    1    4    4    0    0 -0.16727852172E+02 -0.11429379217E+02  0.30977361095E+02  0.37014168210E+02  0.51100000000E-03 0. -1.
        -11    1    4    4    0    0 -0.24878169009E+01 -0.72442857189E+01  0.29639943827E+01  0.82130488536E+01  0.51100000000E-03 0.  1.
        -12    1    4    4    0    0  0.31491137036E+01 -0.22739480396E+01 -0.82734186880E+01  0.91398694516E+01  0.00000000000E+00 0.  1.
</event>
<event>
 8    1  0.2502398E-006  0.9118800E+02  0.7816164E-02  0.1184000E+00
        -11   -1    0    0    0    0  0.00000000000E+00  0.00000000000E+00  0.45593999997E+02  0.45594000000E+02  0.51100000000E-03 0.  1.
         11   -1    0    0    0    0 -0.00000000000E+00 -0.00000000000E+00 -0.45593999997E+02  0.45594000000E+02  0.51100000000E-03 0. -1.
         23    2    1    2    0    0  0.00000000000E+00  0.00000000000E+00 -0.35527136788E-14  0.91188000000E+02  0.91188000000E+02 0.  0.
    9900012    2    3    3    0    0  0.17665340780E+02  0.22469612089E+02 -0.23212756128E+02  0.54367085028E+02  0.40000001939E+02 0.  0.
        -12    1    3    3    0    0 -0.17665340780E+02 -0.22469612089E+02  0.23212756128E+02  0.36820914972E+02  0.00000000000E+00 0.  1.
         11    1    4    4    0    0  0.15042866935E+01  0.76646929093E+01 -0.91396130144E+01  0.12022600474E+02  0.51100000000E-03 0. -1.
        -11    1    4    4    0    0  0.91597523370E+01  0.23890766684E+02 -0.16729680760E+02  0.30570443475E+02  0.51100000000E-03 0.  1.
        -12    1    4    4    0    0  0.70013017499E+01 -0.90858475050E+01  0.26565376466E+01  0.11774041080E+02  0.00000000000E+00 0.  1.
</event>
<event>
 8    1  0.2502398E-006  0.9118800E+02  0.7816164E-02  0.1184000E+00
        -11   -1    0    0    0    0  0.00000000000E+00  0.00000000000E+00  0.45593999997E+02  0.45594000000E+02  0.51100000000E-03 0.  1.
         11   -1    0    0    0    0 -0.00000000000E+00 -0.00000000000E+00 -0.45593999997E+02  0.45594000000E+02  0.51100000000E-03 0. -1.
         23    2    1    2    0    0 -0.17763568394E-14  0.35527136788E-14  0.00000000000E+00  0.91188000000E+02  0.91188000000E+02 0.  0.
    9900012    2    3    3    0    0  0.39330567718E+01  0.24800320378E+02  0.26930547123E+02  0.54367092967E+02  0.40000020036E+02 0.  0.
         12    1    3    3    0    0 -0.39330567718E+01 -0.24800320378E+02 -0.26930547123E+02  0.36820907033E+02  0.00000000000E+00 0. -1.
         11    1    4    4    0    0 -0.78190299389E+01 -0.75186829631E+00 -0.22881454781E+01  0.81815735107E+01  0.51100000000E-03 0. -1.
        -11    1    4    4    0    0  0.17510693245E+01  0.19940292260E+02  0.70427955526E+01  0.21219860241E+02  0.51100000000E-03 0.  1.
         12    1    4    4    0    0  0.10001017386E+02  0.56118964143E+01  0.22175897049E+02  0.24965659215E+02  0.00000000000E+00 0. -1.
</event>
<event>
 8    1  0.2502398E-006  0.9118800E+02  0.7816164E-02  0.1184000E+00
        -11   -1    0    0    0    0  0.00000000000E+00  0.00000000000E+00  0.45593999997E+02  0.45594000000E+02  0.51100000000E-03 0.  1.
         11   -1    0    0    0    0 -0.00000000000E+00 -0.00000000000E+00 -0.45593999997E+02  0.45594000000E+02  0.51100000000E-03 0. -1.
         23    2    1    2    0    0  0.00000000000E+00 -0.35527136788E-14  0.00000000000E+00  0.91188000000E+02  0.91188000000E+02 0.  0.
    9900012    2    3    3    0    0 -0.61122941108E+01  0.25846405030E+02  0.25502614689E+02  0.54367080019E+02  0.39999990519E+02 0.  0.
         12    1    3    3    0    0  0.61122941108E+01 -0.25846405030E+02 -0.25502614689E+02  0.36820919981E+02  0.00000000000E+00 0. -1.
         11    1    4    4    0    0 -0.82869154700E+00 -0.24099045345E+01  0.28410461904E+01  0.38165315749E+01  0.51100000000E-03 0. -1.
        -11    1    4    4    0    0 -0.17714854955E+01  0.30988768771E+01 -0.91617582133E+01  0.98325486310E+01  0.51100000000E-03 0.  1.
        -12    1    4    4    0    0 -0.35121170683E+01  0.25157432688E+02  0.31823326712E+02  0.40717999813E+02  0.00000000000E+00 0.  1.
</event>
<event>
 8    1  0.2502398E-006  0.9118800E+02  0.7816164E-02  0.1184000E+00
        -11   -1    0    0    0    0  0.00000000000E+00  0.00000000000E+00  0.45593999997E+02  0.45594000000E+02  0.51100000000E-03 0. -1.
         11   -1    0    0    0    0 -0.00000000000E+00 -0.00000000000E+00 -0.45593999997E+02  0.45594000000E+02  0.51100000000E-03 0.  1.
         23    2    1    2    0    0  0.44408920985E-15  0.00000000000E+00  0.00000000000E+00  0.91188000000E+02  0.91188000000E+02 0.  0.
    9900012    2    3    3    0    0 -0.38236686899E+01  0.30894060504E+02  0.19665109772E+02  0.54367082589E+02  0.39999996377E+02 0.  0.
         12    1    3    3    0    0  0.38236686899E+01 -0.30894060504E+02 -0.19665109772E+02  0.36820917411E+02  0.00000000000E+00 0. -1.
         11    1    4    4    0    0  0.16626862826E+01 -0.85977539680E+01  0.63896277984E+00  0.87803287333E+01  0.51100000000E-03 0. -1.
        -11    1    4    4    0    0 -0.26607509857E+01  0.17296074076E+01 -0.74659823840E-01  0.31743837107E+01  0.51100000000E-03 0.  1.
         12    1    4    4    0    0 -0.28256039867E+01  0.37762207064E+02  0.19100806816E+02  0.42412370145E+02  0.00000000000E+00 0. -1.
</event>
<event>
 8    1  0.2502398E-006  0.9118800E+02  0.7816164E-02  0.1184000E+00
        -11   -1    0    0    0    0  0.00000000000E+00  0.00000000000E+00  0.45593999997E+02  0.45594000000E+02  0.51100000000E-03 0. -1.
         11   -1    0    0    0    0 -0.00000000000E+00 -0.00000000000E+00 -0.45593999997E+02  0.45594000000E+02  0.51100000000E-03 0.  1.
         23    2    1    2    0    0 -0.17763568394E-14 -0.17763568394E-14 -0.35527136788E-14  0.91188000000E+02  0.91188000000E+02 0.  0.
    9900012    2    3    3    0    0 -0.12529251293E+02  0.15218582866E+02  0.31099685221E+02  0.54367111591E+02  0.40000062493E+02 0.  0.
        -12    1    3    3    0    0  0.12529251293E+02 -0.15218582866E+02 -0.31099685221E+02  0.36820888409E+02  0.00000000000E+00 0.  1.
         11    1    4    4    0    0  0.29713506121E+01 -0.91387686791E+01  0.37168978495E+01  0.10303462880E+02  0.51100000000E-03 0. -1.
        -11    1    4    4    0    0  0.38215992099E+01  0.90676026301E+01  0.88149823539E+01  0.13210978470E+02  0.51100000000E-03 0.  1.
        -12    1    4    4    0    0 -0.19322201115E+02  0.15289748915E+02  0.18567805017E+02  0.30852670241E+02  0.00000000000E+00 0.  1.
</event>
<event>
 8    1  0.2502398E-006  0.9118800E+02  0.7816164E-02  0.1184000E+00
        -11   -1    0    0    0    0  0.00000000000E+00  0.00000000000E+00  0.45593999997E+02  0.45594000000E+02  0.51100000000E-03 0.  1.
         11   -1    0    0    0    0 -0.00000000000E+00 -0.00000000000E+00 -0.45593999997E+02  0.45594000000E+02  0.51100000000E-03 0. -1.
         23    2    1    2    0    0 -0.35527136788E-14  0.00000000000E+00  0.00000000000E+00  0.91188000000E+02  0.91188000000E+02 0.  0.
    9900012    2    3    3    0    0  0.26649461285E+02 -0.23862366129E+02 -0.87280844194E+01  0.54367003792E+02  0.39999816745E+02 0.  0.
        -12    1    3    3    0    0 -0.26649461285E+02  0.23862366129E+02  0.87280844194E+01  0.36820996208E+02  0.00000000000E+00 0.  1.
         11    1    4    4    0    0  0.64839385686E+00 -0.10027689228E+02  0.86839575299E+00  0.10086083348E+02  0.51100000000E-03 0. -1.
        -11    1    4    4    0    0 -0.14007440138E+00 -0.16888807565E+02 -0.44127655457E+01  0.17456343885E+02  0.51100000000E-03 0.  1.
         12    1    4    4    0    0  0.26141141830E+02  0.30541306638E+01 -0.51837146267E+01  0.26824576560E+02  0.00000000000E+00 0. -1.
</event>
<event>
 8    1  0.2502398E-006  0.9118800E+02  0.7816164E-02  0.1184000E+00
        -11   -1    0    0    0    0  0.00000000000E+00  0.00000000000E+00  0.45593999997E+02  0.45594000000E+02  0.51100000000E-03 0.  1.
         11   -1    0    0    0    0 -0.00000000000E+00 -0.00000000000E+00 -0.45593999997E+02  0.45594000000E+02  0.51100000000E-03 0. -1.
         23    2    1    2    0    0 -0.88817841970E-15  0.00000000000E+00  0.44408920985E-15  0.91188000000E+02  0.91188000000E+02 0.  0.
    9900012    2    3    3    0    0  0.44984007502E+01 -0.36516295430E+02  0.14507045381E+01  0.54367082237E+02  0.39999995576E+02 0.  0.
        -12    1    3    3    0    0 -0.44984007502E+01  0.36516295430E+02 -0.14507045381E+01  0.36820917763E+02  0.00000000000E+00 0.  1.
         11    1    4    4    0    0 -0.86281211466E+01 -0.15011208371E+02 -0.11866555916E+02  0.20990378769E+02  0.51100000000E-03 0. -1.
        -11    1    4    4    0    0  0.17152684928E+02 -0.17397565262E+02  0.12853927228E+02  0.27606400032E+02  0.51100000000E-03 0.  1.
        -12    1    4    4    0    0 -0.40261630313E+01 -0.41075217973E+01  0.46333322592E+00  0.57703034364E+01  0.00000000000E+00 0.  1.
</event>
<event>
 8    1  0.2502398E-006  0.9118800E+02  0.7816164E-02  0.1184000E+00
        -11   -1    0    0    0    0  0.00000000000E+00  0.00000000000E+00  0.45593999997E+02  0.45594000000E+02  0.51100000000E-03 0. -1.
         11   -1    0    0    0    0 -0.00000000000E+00 -0.00000000000E+00 -0.45593999997E+02  0.45594000000E+02  0.51100000000E-03 0.  1.
         23    2    1    2    0    0  0.00000000000E+00 -0.88817841970E-15  0.88817841970E-15  0.91188000000E+02  0.91188000000E+02 0.  0.
    9900012    2    3    3    0    0  0.36302632352E+02  0.58449758253E+01  0.19327074840E+01  0.54367079095E+02  0.39999988413E+02 0.  0.
         12    1    3    3    0    0 -0.36302632352E+02 -0.58449758253E+01 -0.19327074840E+01  0.36820920905E+02  0.00000000000E+00 0. -1.
         11    1    4    4    0    0  0.81774777515E+01 -0.12056756364E+02  0.40160491056E+01  0.15111755923E+02  0.51100000000E-03 0. -1.
        -11    1    4    4    0    0 -0.23007665151E+01  0.52091868636E+01 -0.26549637520E+01  0.62831510504E+01  0.51100000000E-03 0.  1.
        -12    1    4    4    0    0  0.30425921115E+02  0.12692545326E+02  0.57162213045E+00  0.32972172122E+02  0.00000000000E+00 0.  1.
</event>
<event>
 8    1  0.2502398E-006  0.9118800E+02  0.7816164E-02  0.1184000E+00
        -11   -1    0    0    0    0  0.00000000000E+00  0.00000000000E+00  0.45593999997E+02  0.45594000000E+02  0.51100000000E-03 0.  1.
         11   -1    0    0    0    0 -0.00000000000E+00 -0.00000000000E+00 -0.45593999997E+02  0.45594000000E+02  0.51100000000E-03 0. -1.
         23    2    1    2    0    0  0.00000000000E+00  0.00000000000E+00  0.00000000000E+00  0.91188000000E+02  0.91188000000E+02 0.  0.
    9900012    2    3    3    0    0  0.20302423324E+02 -0.21163619861E+02 -0.22264097438E+02  0.54367119604E+02  0.40000080761E+02 0.  0.
         12    1    3    3    0    0 -0.20302423324E+02  0.21163619861E+02  0.22264097438E+02  0.36820880396E+02  0.00000000000E+00 0. -1.
         11    1    4    4    0    0  0.35703878329E+01 -0.11517707191E+02  0.94250603547E+01  0.15304803532E+02  0.51100000000E-03 0. -1.
        -11    1    4    4    0    0  0.81100277557E+01 -0.11426618504E+02 -0.20321779682E+02  0.24684304534E+02  0.51100000000E-03 0.  1.
         12    1    4    4    0    0  0.86220077356E+01  0.17807058342E+01 -0.11367378110E+02  0.14378011537E+02  0.00000000000E+00 0. -1.
</event>
<event>
 8    1  0.2502398E-006  0.9118800E+02  0.7816164E-02  0.1184000E+00
        -11   -1    0    0    0    0  0.00000000000E+00  0.00000000000E+00  0.45593999997E+02  0.45594000000E+02  0.51100000000E-03 0.  1.
         11   -1    0    0    0    0 -0.00000000000E+00 -0.00000000000E+00 -0.45593999997E+02  0.45594000000E+02  0.51100000000E-03 0. -1.
         23    2    1    2    0    0 -0.15543122345E-14  0.00000000000E+00  0.17763568394E-14  0.91188000000E+02  0.91188000000E+02 0.  0.
    9900012    2    3    3    0    0 -0.11202927843E+01  0.34760433388E+02  0.12092883837E+02  0.54367073549E+02  0.39999975769E+02 0.  0.
         12    1    3    3    0    0  0.11202927843E+01 -0.34760433388E+02 -0.12092883837E+02  0.36820926451E+02  0.00000000000E+00 0. -1.
         11    1    4    4    0    0  0.12457121794E+02  0.10717968249E+02 -0.58033579282E+01  0.17427957146E+02  0.51100000000E-03 0. -1.
        -11    1    4    4    0    0  0.22483557806E+01  0.20039901307E+01 -0.17109559066E+01  0.34638779620E+01  0.51100000000E-03 0.  1.
        -12    1    4    4    0    0 -0.15825770359E+02  0.22038475008E+02  0.19607197672E+02  0.33475238441E+02  0.00000000000E+00 0.  1.
</event>
<event>
 8    1  0.2502398E-006  0.9118800E+02  0.7816164E-02  0.1184000E+00
        -11   -1    0    0    0    0  0.00000000000E+00  0.00000000000E+00  0.45593999997E+02  0.45594000000E+02  0.51100000000E-03 0.  1.
         11   -1    0    0    0    0 -0.00000000000E+00 -0.00000000000E+00 -0.45593999997E+02  0.45594000000E+02  0.51100000000E-03 0. -1.
         23    2    1    2    0    0  0.00000000000E+00 -0.35527136788E-14 -0.17763568394E-14  0.91188000000E+02  0.91188000000E+02 0.  0.
    9900012    2    3    3    0    0  0.16844375396E+02 -0.31046822492E+02  0.10399181301E+02  0.54367066537E+02  0.39999959784E+02 0.  0.
        -12    1    3    3    0    0 -0.16844375396E+02  0.31046822492E+02 -0.10399181301E+02  0.36820933463E+02  0.00000000000E+00 0.  1.
         11    1    4    4    0    0 -0.15245826445E+01  0.29018840743E+01  0.17492475045E+01  0.37155282954E+01  0.51100000000E-03 0. -1.
        -11    1    4    4    0    0  0.16663573539E+02 -0.95182093753E+00  0.49198155268E+01  0.17400725021E+02  0.51100000000E-03 0.  1.
         12    1    4    4    0    0  0.17053845024E+01 -0.32996885629E+02  0.37301182696E+01  0.33250813221E+02  0.00000000000E+00 0. -1.
</event>
<event>
 8    1  0.2502398E-006  0.9118800E+02  0.7816164E-02  0.1184000E+00
        -11   -1    0    0    0    0  0.00000000000E+00  0.00000000000E+00  0.45593999997E+02  0.45594000000E+02  0.51100000000E-03 0.  1.
         11   -1    0    0    0    0 -0.00000000000E+00 -0.00000000000E+00 -0.45593999997E+02  0.45594000000E+02  0.51100000000E-03 0. -1.
         23    2    1    2    0    0 -0.35527136788E-14  0.00000000000E+00  0.00000000000E+00  0.91188000000E+02  0.91188000000E+02 0.  0.
    9900012    2    3    3    0    0 -0.12435875370E+02  0.23669764908E+02 -0.25315449362E+02  0.54367071937E+02  0.39999972094E+02 0.  0.
        -12    1    3    3    0    0  0.12435875370E+02 -0.23669764908E+02  0.25315449362E+02  0.36820928063E+02  0.00000000000E+00 0.  1.
         11    1    4    4    0    0 -0.69908078100E+00  0.33481671316E+01 -0.46968448000E+01  0.58102743839E+01  0.51100000000E-03 0. -1.
        -11    1    4    4    0    0  0.12352266231E+02  0.14737900443E+02 -0.86851249237E+01  0.21100132363E+02  0.51100000000E-03 0.  1.
        -12    1    4    4    0    0 -0.24089060820E+02  0.55836973331E+01 -0.11933479639E+02  0.27456665190E+02  0.00000000000E+00 0.  1.
</event>
<event>
 8    1  0.2502398E-006  0.9118800E+02  0.7816164E-02  0.1184000E+00
        -11   -1    0    0    0    0  0.00000000000E+00  0.00000000000E+00  0.45593999997E+02  0.45594000000E+02  0.51100000000E-03 0.  1.
         11   -1    0    0    0    0 -0.00000000000E+00 -0.00000000000E+00 -0.45593999997E+02  0.45594000000E+02  0.51100000000E-03 0. -1.
         23    2    1    2    0    0  0.17763568394E-14  0.00000000000E+00  0.35527136788E-14  0.91188000000E+02  0.91188000000E+02 0.  0.
    9900012    2    3    3    0    0  0.10435789246E+02 -0.17828939845E+02 -0.30479528950E+02  0.54367102697E+02  0.40000042219E+02 0.  0.
        -12    1    3    3    0    0 -0.10435789246E+02  0.17828939845E+02  0.30479528950E+02  0.36820897303E+02  0.00000000000E+00 0.  1.
         11    1    4    4    0    0 -0.40303873406E+01 -0.50784980069E+01 -0.50175126402E+01  0.81982069672E+01  0.51100000000E-03 0. -1.
        -11    1    4    4    0    0  0.24790281321E+02 -0.96534868514E+01 -0.22871124000E+02  0.35083274785E+02  0.51100000000E-03 0.  1.
        -12    1    4    4    0    0 -0.10324104735E+02 -0.30969549867E+01 -0.25908923097E+01  0.11085620945E+02  0.00000000000E+00 0.  1.
</event>
<event>
 8    1  0.2502398E-006  0.9118800E+02  0.7816164E-02  0.1184000E+00
        -11   -1    0    0    0    0  0.00000000000E+00  0.00000000000E+00  0.45593999997E+02  0.45594000000E+02  0.51100000000E-03 0.  1.
         11   -1    0    0    0    0 -0.00000000000E+00 -0.00000000000E+00 -0.45593999997E+02  0.45594000000E+02  0.51100000000E-03 0. -1.
         23    2    1    2    0    0  0.17763568394E-14  0.35527136788E-14  0.00000000000E+00  0.91188000000E+02  0.91188000000E+02 0.  0.
    9900012    2    3    3    0    0 -0.99482946546E+01 -0.21870893597E+02  0.27901281528E+02  0.54366999686E+02  0.39999807383E+02 0.  0.
         12    1    3    3    0    0  0.99482946546E+01  0.21870893597E+02 -0.27901281528E+02  0.36821000314E+02  0.00000000000E+00 0. -1.
         11    1    4    4    0    0 -0.27741464911E+01  0.43908988706E+01  0.17597606393E+02  0.18348068909E+02  0.51100000000E-03 0. -1.
        -11    1    4    4    0    0 -0.13653384068E+02 -0.12196160719E+02  0.92116164280E+01  0.20494270182E+02  0.51100000000E-03 0.  1.
         12    1    4    4    0    0  0.64792359045E+01 -0.14065631748E+02  0.10920587062E+01  0.15524660595E+02  0.00000000000E+00 0. -1.
</event>
<event>
 8    1  0.2502398E-006  0.9118800E+02  0.7816164E-02  0.1184000E+00
        -11   -1    0    0    0    0  0.00000000000E+00  0.00000000000E+00  0.45593999997E+02  0.45594000000E+02  0.51100000000E-03 0. -1.
         11   -1    0    0    0    0 -0.00000000000E+00 -0.00000000000E+00 -0.45593999997E+02  0.45594000000E+02  0.51100000000E-03 0.  1.
         23    2    1    2    0    0  0.35527136788E-14  0.17763568394E-14 -0.35527136788E-14  0.91188000000E+02  0.91188000000E+02 0.  0.
    9900012    2    3    3    0    0 -0.26181200389E+02  0.98697426487E+01 -0.23935588939E+02  0.54367088936E+02  0.40000010847E+02 0.  0.
         12    1    3    3    0    0  0.26181200389E+02 -0.98697426487E+01  0.23935588939E+02  0.36820911064E+02  0.00000000000E+00 0. -1.
         11    1    4    4    0    0  0.57081189552E+01  0.33990075151E+01 -0.62053289015E+01  0.90907635065E+01  0.51100000000E-03 0. -1.
        -11    1    4    4    0    0 -0.56471092631E+01  0.85290010632E+01 -0.15878971613E+02  0.18888500255E+02  0.51100000000E-03 0.  1.
        -12    1    4    4    0    0 -0.26242210081E+02 -0.20582659296E+01 -0.18512884250E+01  0.26387825174E+02  0.00000000000E+00 0.  1.
</event>
<event>
 8    1  0.2502398E-006  0.9118800E+02  0.7816164E-02  0.1184000E+00
        -11   -1    0    0    0    0  0.00000000000E+00  0.00000000000E+00  0.45593999997E+02  0.45594000000E+02  0.51100000000E-03 0.  1.
         11   -1    0    0    0    0 -0.00000000000E+00 -0.00000000000E+00 -0.45593999997E+02  0.45594000000E+02  0.51100000000E-03 0. -1.
         23    2    1    2    0    0  0.00000000000E+00  0.00000000000E+00  0.00000000000E+00  0.91188000000E+02  0.91188000000E+02 0.  0.
    9900012    2    3    3    0    0  0.15506643518E+02  0.42901090754E+01 -0.33119742704E+02  0.54367103951E+02  0.40000045077E+02 0.  0.
        -12    1    3    3    0    0 -0.15506643518E+02 -0.42901090754E+01  0.33119742704E+02  0.36820896049E+02  0.00000000000E+00 0.  1.
         11    1    4    4    0    0 -0.52054402583E+01 -0.11830106728E+01 -0.11849655630E+02  0.12996555749E+02  0.51100000000E-03 0. -1.
        -11    1    4    4    0    0  0.55694444827E+00  0.52604276292E+01  0.56505831557E+01  0.77402439381E+01  0.51100000000E-03 0.  1.
        -12    1    4    4    0    0  0.20155139328E+02  0.21269211900E+00 -0.26920670230E+02  0.33630304264E+02  0.00000000000E+00 0.  1.
</event>
<event>
 8    1  0.2502398E-006  0.9118800E+02  0.7816164E-02  0.1184000E+00
        -11   -1    0    0    0    0  0.00000000000E+00  0.00000000000E+00  0.45593999997E+02  0.45594000000E+02  0.51100000000E-03 0.  1.
         11   -1    0    0    0    0 -0.00000000000E+00 -0.00000000000E+00 -0.45593999997E+02  0.45594000000E+02  0.51100000000E-03 0. -1.
         23    2    1    2    0    0  0.00000000000E+00 -0.17763568394E-14  0.00000000000E+00  0.91188000000E+02  0.91188000000E+02 0.  0.
    9900012    2    3    3    0    0 -0.21283684507E+02  0.15911859646E+02 -0.25487236279E+02  0.54367058720E+02  0.39999941965E+02 0.  0.
        -12    1    3    3    0    0  0.21283684507E+02 -0.15911859646E+02  0.25487236279E+02  0.36820941280E+02  0.00000000000E+00 0.  1.
         11    1    4    4    0    0  0.51819075025E+00 -0.75110284187E+01 -0.79959464490E+01  0.10982678609E+02  0.51100000000E-03 0. -1.
        -11    1    4    4    0    0 -0.96366693196E+01  0.25320817670E+02 -0.14435742738E+02  0.30698532078E+02  0.51100000000E-03 0.  1.
        -12    1    4    4    0    0 -0.12165205938E+02 -0.18979296058E+01 -0.30555470914E+01  0.12685848033E+02  0.00000000000E+00 0.  1.
</event>
<event>
 8    1  0.2502398E-006  0.9118800E+02  0.7816164E-02  0.1184000E+00
        -11   -1    0    0    0    0  0.00000000000E+00  0.00000000000E+00  0.45593999997E+02  0.45594000000E+02  0.51100000000E-03 0.  1.
         11   -1    0    0    0    0 -0.00000000000E+00 -0.00000000000E+00 -0.45593999997E+02  0.45594000000E+02  0.51100000000E-03 0. -1.
         23    2    1    2    0    0  0.11102230246E-15 -0.71054273576E-14  0.00000000000E+00  0.91188000000E+02  0.91188000000E+02 0.  0.
    9900012    2    3    3    0    0  0.42172932357E+00 -0.35652747729E+02  0.91914805408E+01  0.54367087589E+02  0.40000007777E+02 0.  0.
         12    1    3    3    0    0 -0.42172932357E+00  0.35652747729E+02 -0.91914805408E+01  0.36820912411E+02  0.00000000000E+00 0. -1.
         11    1    4    4    0    0 -0.16589151278E+02 -0.14029891523E+02  0.91314073015E+01  0.23567358695E+02  0.51100000000E-03 0. -1.
        -11    1    4    4    0    0  0.10153696768E+02 -0.12931482538E+02  0.68514671191E+01  0.17811889306E+02  0.51100000000E-03 0.  1.
        -12    1    4    4    0    0  0.68571838333E+01 -0.86913736671E+01 -0.67913938798E+01  0.12987839588E+02  0.00000000000E+00 0.  1.
</event>
<event>
 8    1  0.2502398E-006  0.9118800E+02  0.7816164E-02  0.1184000E+00
        -11   -1    0    0    0    0  0.00000000000E+00  0.00000000000E+00  0.45593999997E+02  0.45594000000E+02  0.51100000000E-03 0. -1.
         11   -1    0    0    0    0 -0.00000000000E+00 -0.00000000000E+00 -0.45593999997E+02  0.45594000000E+02  0.51100000000E-03 0.  1.
         23    2    1    2    0    0 -0.44408920985E-15  0.00000000000E+00  0.00000000000E+00  0.91188000000E+02  0.91188000000E+02 0.  0.
    9900012    2    3    3    0    0  0.23419373466E+01  0.35733009655E+02  0.85701856475E+01  0.54367072098E+02  0.39999972461E+02 0.  0.
         12    1    3    3    0    0 -0.23419373466E+01 -0.35733009655E+02 -0.85701856475E+01  0.36820927902E+02  0.00000000000E+00 0. -1.
         11    1    4    4    0    0 -0.25775692546E+01 -0.23761035161E+01 -0.51346960968E+01  0.62173012995E+01  0.51100000000E-03 0. -1.
        -11    1    4    4    0    0  0.73218245384E+01 -0.55539548435E+00  0.32131128384E+01  0.80150903356E+01  0.51100000000E-03 0.  1.
         12    1    4    4    0    0 -0.24023179371E+01  0.38664508656E+02  0.10491768906E+02  0.40134680463E+02  0.00000000000E+00 0. -1.
</event>
<event>
 8    1  0.2502398E-006  0.9118800E+02  0.7816164E-02  0.1184000E+00
        -11   -1    0    0    0    0  0.00000000000E+00  0.00000000000E+00  0.45593999997E+02  0.45594000000E+02  0.51100000000E-03 0. -1.
         11   -1    0    0    0    0 -0.00000000000E+00 -0.00000000000E+00 -0.45593999997E+02  0.45594000000E+02  0.51100000000E-03 0.  1.
         23    2    1    2    0    0  0.35527136788E-14  0.00000000000E+00  0.00000000000E+00  0.91188000000E+02  0.91188000000E+02 0.  0.
    9900012    2    3    3    0    0 -0.28192365559E+02 -0.22365257432E+02  0.77952824930E+01  0.54367073275E+02  0.39999975144E+02 0.  0.
        -12    1    3    3    0    0  0.28192365559E+02  0.22365257432E+02 -0.77952824930E+01  0.36820926725E+02  0.00000000000E+00 0.  1.
         11    1    4    4    0    0 -0.87766436477E+01 -0.41442399762E+01  0.24940975700E+01  0.10021213582E+02  0.51100000000E-03 0. -1.
        -11    1    4    4    0    0 -0.14674116590E+02 -0.12298017757E+02 -0.13926575258E+02  0.23675312820E+02  0.51100000000E-03 0.  1.
         12    1    4    4    0    0 -0.47416053210E+01 -0.59229996988E+01  0.19227760181E+02  0.20670546873E+02  0.00000000000E+00 0. -1.
</event>
<event>
 8    1  0.2502398E-006  0.9118800E+02  0.7816164E-02  0.1184000E+00
        -11   -1    0    0    0    0  0.00000000000E+00  0.00000000000E+00  0.45593999997E+02  0.45594000000E+02  0.51100000000E-03 0.  1.
         11   -1    0    0    0    0 -0.00000000000E+00 -0.00000000000E+00 -0.45593999997E+02  0.45594000000E+02  0.51100000000E-03 0. -1.
         23    2    1    2    0    0  0.00000000000E+00  0.00000000000E+00  0.35527136788E-14  0.91188000000E+02  0.91188000000E+02 0.  0.
    9900012    2    3    3    0    0 -0.13141856411E+02 -0.16962214593E+02  0.29922470143E+02  0.54367091085E+02  0.40000015746E+02 0.  0.
         12    1    3    3    0    0  0.13141856411E+02  0.16962214593E+02 -0.29922470143E+02  0.36820908915E+02  0.00000000000E+00 0. -1.
         11    1    4    4    0    0 -0.48473969082E+01  0.75568676705E+01  0.75823199733E+01  0.11751386395E+02  0.51100000000E-03 0. -1.
        -11    1    4    4    0    0 -0.14496084859E+02 -0.43389087616E+01  0.10407996769E+02  0.18365429548E+02  0.51100000000E-03 0.  1.
        -12    1    4    4    0    0  0.62016253564E+01 -0.20180173502E+02  0.11932153401E+02  0.24250275141E+02  0.00000000000E+00 0.  1.
</event>
<event>
 8    1  0.2502398E-006  0.9118800E+02  0.7816164E-02  0.1184000E+00
        -11   -1    0    0    0    0  0.00000000000E+00  0.00000000000E+00  0.45593999997E+02  0.45594000000E+02  0.51100000000E-03 0.  1.
         11   -1    0    0    0    0 -0.00000000000E+00 -0.00000000000E+00 -0.45593999997E+02  0.45594000000E+02  0.51100000000E-03 0. -1.
         23    2    1    2    0    0  0.00000000000E+00  0.35527136788E-14  0.00000000000E+00  0.91188000000E+02  0.91188000000E+02 0.  0.
    9900012    2    3    3    0    0 -0.17217354492E+02  0.31836034789E+02 -0.67683471085E+01  0.54367069412E+02  0.39999966339E+02 0.  0.
         12    1    3    3    0    0  0.17217354492E+02 -0.31836034789E+02  0.67683471085E+01  0.36820930588E+02  0.00000000000E+00 0. -1.
         11    1    4    4    0    0  0.37485773153E+01  0.32268111223E+01 -0.12260080872E+02  0.13220201403E+02  0.51100000000E-03 0. -1.
        -11    1    4    4    0    0 -0.84463359064E+01  0.26813587523E+02  0.32119321390E+01  0.28295327784E+02  0.51100000000E-03 0.  1.
         12    1    4    4    0    0 -0.12519595901E+02  0.17956361434E+01  0.22798016241E+01  0.12851540224E+02  0.00000000000E+00 0. -1.
</event>
<event>
 8    1  0.2502398E-006  0.9118800E+02  0.7816164E-02  0.1184000E+00
        -11   -1    0    0    0    0  0.00000000000E+00  0.00000000000E+00  0.45593999997E+02  0.45594000000E+02  0.51100000000E-03 0. -1.
         11   -1    0    0    0    0 -0.00000000000E+00 -0.00000000000E+00 -0.45593999997E+02  0.45594000000E+02  0.51100000000E-03 0.  1.
         23    2    1    2    0    0  0.17763568394E-14 -0.35527136788E-14  0.00000000000E+00  0.91188000000E+02  0.91188000000E+02 0.  0.
    9900012    2    3    3    0    0 -0.12706746357E+02  0.26230333271E+02 -0.22500841292E+02  0.54367086848E+02  0.40000006087E+02 0.  0.
         12    1    3    3    0    0  0.12706746357E+02 -0.26230333271E+02  0.22500841292E+02  0.36820913152E+02  0.00000000000E+00 0. -1.
         11    1    4    4    0    0 -0.20556286560E+01  0.44778377669E+01  0.23854032618E+01  0.54741930200E+01  0.51100000000E-03 0. -1.
        -11    1    4    4    0    0 -0.66753473824E+01 -0.53569344316E+01 -0.19041989776E+02  0.20877125858E+02  0.51100000000E-03 0.  1.
        -12    1    4    4    0    0 -0.39757703189E+01  0.27109429935E+02 -0.58442547778E+01  0.28015767970E+02  0.00000000000E+00 0.  1.
</event>
<event>
 8    1  0.2502398E-006  0.9118800E+02  0.7816164E-02  0.1184000E+00
        -11   -1    0    0    0    0  0.00000000000E+00  0.00000000000E+00  0.45593999997E+02  0.45594000000E+02  0.51100000000E-03 0.  1.
         11   -1    0    0    0    0 -0.00000000000E+00 -0.00000000000E+00 -0.45593999997E+02  0.45594000000E+02  0.51100000000E-03 0. -1.
         23    2    1    2    0    0 -0.35527136788E-14  0.00000000000E+00  0.00000000000E+00  0.91188000000E+02  0.91188000000E+02 0.  0.
    9900012    2    3    3    0    0 -0.24670438009E+02 -0.26961609761E+02  0.44967688335E+01  0.54367084172E+02  0.39999999986E+02 0.  0.
        -12    1    3    3    0    0  0.24670438009E+02  0.26961609761E+02 -0.44967688335E+01  0.36820915828E+02  0.00000000000E+00 0.  1.
         11    1    4    4    0    0  0.41193514431E+01 -0.10808077563E+02 -0.63646679059E+01  0.13201992075E+02  0.51100000000E-03 0.  1.
        -11    1    4    4    0    0 -0.31321426527E+02 -0.18394889895E+02  0.10035914223E+02  0.37684523461E+02  0.51100000000E-03 0. -1.
        -12    1    4    4    0    0  0.25316370743E+01  0.22413576974E+01  0.82552251661E+00  0.34805686358E+01  0.00000000000E+00 0.  1.
</event>
<event>
 8    1  0.2502398E-006  0.9118800E+02  0.7816164E-02  0.1184000E+00
        -11   -1    0    0    0    0  0.00000000000E+00  0.00000000000E+00  0.45593999997E+02  0.45594000000E+02  0.51100000000E-03 0. -1.
         11   -1    0    0    0    0 -0.00000000000E+00 -0.00000000000E+00 -0.45593999997E+02  0.45594000000E+02  0.51100000000E-03 0.  1.
         23    2    1    2    0    0  0.88817841970E-15  0.35527136788E-14  0.00000000000E+00  0.91188000000E+02  0.91188000000E+02 0.  0.
    9900012    2    3    3    0    0  0.45504997770E+01 -0.28989280054E+02 -0.22241736436E+02  0.54367078692E+02  0.39999987495E+02 0.  0.
         12    1    3    3    0    0 -0.45504997770E+01  0.28989280054E+02  0.22241736436E+02  0.36820921308E+02  0.00000000000E+00 0. -1.
         11    1    4    4    0    0  0.24446947691E+01  0.38849511447E+01 -0.49619598301E+01  0.67594691750E+01  0.51100000000E-03 0. -1.
        -11    1    4    4    0    0  0.14209219531E+02 -0.26861906538E+02 -0.87373974325E+01  0.31619709940E+02  0.51100000000E-03 0.  1.
        -12    1    4    4    0    0 -0.12103414523E+02 -0.60123246606E+01 -0.85423791737E+01  0.15987899577E+02  0.00000000000E+00 0.  1.
</event>
<event>
 8    1  0.2502398E-006  0.9118800E+02  0.7816164E-02  0.1184000E+00
        -11   -1    0    0    0    0  0.00000000000E+00  0.00000000000E+00  0.45593999997E+02  0.45594000000E+02  0.51100000000E-03 0. -1.
         11   -1    0    0    0    0 -0.00000000000E+00 -0.00000000000E+00 -0.45593999997E+02  0.45594000000E+02  0.51100000000E-03 0.  1.
         23    2    1    2    0    0  0.00000000000E+00  0.17763568394E-14  0.00000000000E+00  0.91188000000E+02  0.91188000000E+02 0.  0.
    9900012    2    3    3    0    0 -0.48477410525E+01 -0.14497209528E+02  0.33497922594E+02  0.54367075303E+02  0.39999979768E+02 0.  0.
        -12    1    3    3    0    0  0.48477410525E+01  0.14497209528E+02 -0.33497922594E+02  0.36820924697E+02  0.00000000000E+00 0.  1.
         11    1    4    4    0    0 -0.38930652059E+01 -0.12683781417E+02  0.20285307982E+01  0.13421967262E+02  0.51100000000E-03 0. -1.
        -11    1    4    4    0    0 -0.77363485040E+01 -0.42992039050E+00  0.32965544426E+02  0.33863889902E+02  0.51100000000E-03 0.  1.
        -12    1    4    4    0    0  0.67816726575E+01 -0.13835077209E+01 -0.14961526295E+01  0.70812181394E+01  0.00000000000E+00 0.  1.
</event>
<event>
 8    1  0.2502398E-006  0.9118800E+02  0.7816164E-02  0.1184000E+00
        -11   -1    0    0    0    0  0.00000000000E+00  0.00000000000E+00  0.45593999997E+02  0.45594000000E+02  0.51100000000E-03 0. -1.
         11   -1    0    0    0    0 -0.00000000000E+00 -0.00000000000E+00 -0.45593999997E+02  0.45594000000E+02  0.51100000000E-03 0.  1.
         23    2    1    2    0    0  0.00000000000E+00  0.00000000000E+00 -0.11102230246E-15  0.91188000000E+02  0.91188000000E+02 0.  0.
    9900012    2    3    3    0    0  0.31866033991E+02  0.18439888329E+02 -0.55362741141E+00  0.54367080577E+02  0.39999991790E+02 0.  0.
         12    1    3    3    0    0 -0.31866033991E+02 -0.18439888329E+02  0.55362741141E+00  0.36820919423E+02  0.00000000000E+00 0. -1.
         11    1    4    4    0    0  0.33720253076E+02  0.11250635199E+02  0.49541495527E+01  0.35891166851E+02  0.51100000000E-03 0. -1.
        -11    1    4    4    0    0  0.53952145183E+01  0.86153819727E+01 -0.23057342149E+01  0.10423509810E+02  0.51100000000E-03 0.  1.
         12    1    4    4    0    0 -0.72494336034E+01 -0.14261288430E+01 -0.32020427493E+01  0.80524039153E+01  0.00000000000E+00 0. -1.
</event>
<event>
 8    1  0.2502398E-006  0.9118800E+02  0.7816164E-02  0.1184000E+00
        -11   -1    0    0    0    0  0.00000000000E+00  0.00000000000E+00  0.45593999997E+02  0.45594000000E+02  0.51100000000E-03 0. -1.
         11   -1    0    0    0    0 -0.00000000000E+00 -0.00000000000E+00 -0.45593999997E+02  0.45594000000E+02  0.51100000000E-03 0.  1.
         23    2    1    2    0    0 -0.22204460493E-15  0.00000000000E+00 -0.17763568394E-14  0.91188000000E+02  0.91188000000E+02 0.  0.
    9900012    2    3    3    0    0  0.18725354709E+01 -0.34466673093E+02  0.12818843758E+02  0.54367072548E+02  0.39999973487E+02 0.  0.
        -12    1    3    3    0    0 -0.18725354709E+01  0.34466673093E+02 -0.12818843758E+02  0.36820927452E+02  0.00000000000E+00 0.  1.
         11    1    4    4    0    0  0.38599607750E+01  0.40896253480E+01  0.11008611031E+02  0.12361789910E+02  0.51100000000E-03 0. -1.
        -11    1    4    4    0    0 -0.50776998559E+01 -0.10529045034E+02 -0.54365277934E+01  0.12891844704E+02  0.51100000000E-03 0.  1.
         12    1    4    4    0    0  0.30902745517E+01 -0.28027253407E+02  0.72467605196E+01  0.29113437934E+02  0.00000000000E+00 0. -1.
</event>
<event>
 8    1  0.2502398E-006  0.9118800E+02  0.7816164E-02  0.1184000E+00
        -11   -1    0    0    0    0  0.00000000000E+00  0.00000000000E+00  0.45593999997E+02  0.45594000000E+02  0.51100000000E-03 0. -1.
         11   -1    0    0    0    0 -0.00000000000E+00 -0.00000000000E+00 -0.45593999997E+02  0.45594000000E+02  0.51100000000E-03 0.  1.
         23    2    1    2    0    0  0.00000000000E+00  0.35527136788E-14  0.35527136788E-14  0.91188000000E+02  0.91188000000E+02 0.  0.
    9900012    2    3    3    0    0 -0.70377578629E+01  0.23383262350E+02  0.27558357496E+02  0.54367216987E+02  0.40000302763E+02 0.  0.
        -12    1    3    3    0    0  0.70377578629E+01 -0.23383262350E+02 -0.27558357496E+02  0.36820783013E+02  0.00000000000E+00 0.  1.
         11    1    4    4    0    0 -0.93723367776E+01  0.11693290209E+01 -0.50504858997E+01  0.10710529171E+02  0.51100000000E-03 0. -1.
        -11    1    4    4    0    0  0.10371248134E+02  0.12694502443E+02  0.16120573052E+02  0.22990999455E+02  0.51100000000E-03 0.  1.
         12    1    4    4    0    0 -0.80366692191E+01  0.95194308856E+01  0.16488270344E+02  0.20665688361E+02  0.00000000000E+00 0. -1.
</event>
<event>
 8    1  0.2502398E-006  0.9118800E+02  0.7816164E-02  0.1184000E+00
        -11   -1    0    0    0    0  0.00000000000E+00  0.00000000000E+00  0.45593999997E+02  0.45594000000E+02  0.51100000000E-03 0. -1.
         11   -1    0    0    0    0 -0.00000000000E+00 -0.00000000000E+00 -0.45593999997E+02  0.45594000000E+02  0.51100000000E-03 0.  1.
         23    2    1    2    0    0  0.00000000000E+00 -0.17763568394E-14  0.00000000000E+00  0.91188000000E+02  0.91188000000E+02 0.  0.
    9900012    2    3    3    0    0  0.24549022088E+02  0.14982420492E+02 -0.22992437922E+02  0.54367087316E+02  0.40000007155E+02 0.  0.
         12    1    3    3    0    0 -0.24549022088E+02 -0.14982420492E+02  0.22992437922E+02  0.36820912684E+02  0.00000000000E+00 0. -1.
         11    1    4    4    0    0 -0.81687319883E+01 -0.16264654038E+01 -0.12789563182E+02  0.15262584927E+02  0.51100000000E-03 0. -1.
        -11    1    4    4    0    0  0.18271354767E+02  0.14110672183E+02 -0.59836356482E+01  0.23848634558E+02  0.51100000000E-03 0.  1.
         12    1    4    4    0    0  0.14446399310E+02  0.24982137135E+01 -0.42192390920E+01  0.15255867831E+02  0.00000000000E+00 0. -1.
</event>
<event>
 8    1  0.2502398E-006  0.9118800E+02  0.7816164E-02  0.1184000E+00
        -11   -1    0    0    0    0  0.00000000000E+00  0.00000000000E+00  0.45593999997E+02  0.45594000000E+02  0.51100000000E-03 0. -1.
         11   -1    0    0    0    0 -0.00000000000E+00 -0.00000000000E+00 -0.45593999997E+02  0.45594000000E+02  0.51100000000E-03 0.  1.
         23    2    1    2    0    0  0.00000000000E+00  0.00000000000E+00  0.00000000000E+00  0.91188000000E+02  0.91188000000E+02 0.  0.
    9900012    2    3    3    0    0 -0.22552804580E+02  0.16465714596E+02 -0.24000660192E+02  0.54367076040E+02  0.39999981449E+02 0.  0.
         12    1    3    3    0    0  0.22552804580E+02 -0.16465714596E+02  0.24000660192E+02  0.36820923960E+02  0.00000000000E+00 0. -1.
         11    1    4    4    0    0 -0.27900378264E+02  0.12438537365E+02 -0.61979523559E+01  0.31169904278E+02  0.51100000000E-03 0. -1.
        -11    1    4    4    0    0  0.91449849335E-01  0.46494173978E+00 -0.16755116642E+02  0.16761815769E+02  0.51100000000E-03 0.  1.
         12    1    4    4    0    0  0.52561238342E+01  0.35622354919E+01 -0.10475911932E+01  0.64353559939E+01  0.00000000000E+00 0. -1.
</event>
<event>
 8    1  0.2502398E-006  0.9118800E+02  0.7816164E-02  0.1184000E+00
        -11   -1    0    0    0    0  0.00000000000E+00  0.00000000000E+00  0.45593999997E+02  0.45594000000E+02  0.51100000000E-03 0.  1.
         11   -1    0    0    0    0 -0.00000000000E+00 -0.00000000000E+00 -0.45593999997E+02  0.45594000000E+02  0.51100000000E-03 0. -1.
         23    2    1    2    0    0  0.17763568394E-14  0.00000000000E+00  0.00000000000E+00  0.91188000000E+02  0.91188000000E+02 0.  0.
    9900012    2    3    3    0    0  0.15206071608E+02 -0.32212463279E+02  0.93226716577E+01  0.54367087313E+02  0.40000007147E+02 0.  0.
         12    1    3    3    0    0 -0.15206071608E+02  0.32212463279E+02 -0.93226716577E+01  0.36820912687E+02  0.00000000000E+00 0. -1.
         11    1    4    4    0    0  0.54967163689E+01 -0.30107752847E+00  0.14094668499E+02  0.15131563662E+02  0.51100000000E-03 0. -1.
        -11    1    4    4    0    0 -0.14733156482E+00 -0.16636298581E+02  0.64816757664E+01  0.17854978523E+02  0.51100000000E-03 0.  1.
         12    1    4    4    0    0  0.98566868042E+01 -0.15275087170E+02 -0.11253672607E+02  0.21380545128E+02  0.00000000000E+00 0. -1.
</event>
<event>
 8    1  0.2502398E-006  0.9118800E+02  0.7816164E-02  0.1184000E+00
        -11   -1    0    0    0    0  0.00000000000E+00  0.00000000000E+00  0.45593999997E+02  0.45594000000E+02  0.51100000000E-03 0. -1.
         11   -1    0    0    0    0 -0.00000000000E+00 -0.00000000000E+00 -0.45593999997E+02  0.45594000000E+02  0.51100000000E-03 0.  1.
         23    2    1    2    0    0  0.35527136788E-14  0.88817841970E-15  0.35527136788E-14  0.91188000000E+02  0.91188000000E+02 0.  0.
    9900012    2    3    3    0    0  0.24841562643E+02  0.38443161204E+01 -0.26905346996E+02  0.54367086134E+02  0.40000004459E+02 0.  0.
         12    1    3    3    0    0 -0.24841562643E+02 -0.38443161204E+01  0.26905346996E+02  0.36820913866E+02  0.00000000000E+00 0. -1.
         11    1    4    4    0    0 -0.62436793575E+00  0.60714992193E+01  0.36964265965E+01  0.71355804202E+01  0.51100000000E-03 0. -1.
        -11    1    4    4    0    0  0.27384961432E+02 -0.90430756643E+01 -0.25595538612E+02  0.38559628203E+02  0.51100000000E-03 0.  1.
         12    1    4    4    0    0 -0.19190308526E+01  0.68158925653E+01 -0.50062349804E+01  0.86718775103E+01  0.00000000000E+00 0. -1.
</event>
<event>
 8    1  0.2502398E-006  0.9118800E+02  0.7816164E-02  0.1184000E+00
        -11   -1    0    0    0    0  0.00000000000E+00  0.00000000000E+00  0.45593999997E+02  0.45594000000E+02  0.51100000000E-03 0. -1.
         11   -1    0    0    0    0 -0.00000000000E+00 -0.00000000000E+00 -0.45593999997E+02  0.45594000000E+02  0.51100000000E-03 0.  1.
         23    2    1    2    0    0  0.00000000000E+00  0.88817841970E-15  0.00000000000E+00  0.91188000000E+02  0.91188000000E+02 0.  0.
    9900012    2    3    3    0    0 -0.22392889878E+02 -0.63321792130E+01  0.28534913888E+02  0.54367091249E+02  0.40000016120E+02 0.  0.
        -12    1    3    3    0    0  0.22392889878E+02  0.63321792130E+01 -0.28534913888E+02  0.36820908751E+02  0.00000000000E+00 0.  1.
         11    1    4    4    0    0 -0.49393240148E+01  0.53894776759E+01  0.11053432426E+02  0.13252236038E+02  0.51100000000E-03 0. -1.
        -11    1    4    4    0    0 -0.24596546912E+02 -0.13430546387E+02  0.80436474689E+01  0.29155959273E+02  0.51100000000E-03 0.  1.
        -12    1    4    4    0    0  0.71429810488E+01  0.17088894985E+01  0.94378339928E+01  0.11958895938E+02  0.00000000000E+00 0.  1.
</event>
<event>
 8    1  0.2502398E-006  0.9118800E+02  0.7816164E-02  0.1184000E+00
        -11   -1    0    0    0    0  0.00000000000E+00  0.00000000000E+00  0.45593999997E+02  0.45594000000E+02  0.51100000000E-03 0.  1.
         11   -1    0    0    0    0 -0.00000000000E+00 -0.00000000000E+00 -0.45593999997E+02  0.45594000000E+02  0.51100000000E-03 0. -1.
         23    2    1    2    0    0  0.00000000000E+00  0.00000000000E+00 -0.17763568394E-14  0.91188000000E+02  0.91188000000E+02 0.  0.
    9900012    2    3    3    0    0 -0.21095198504E+02  0.28129649174E+02  0.10931401870E+02  0.54367080547E+02  0.39999991722E+02 0.  0.
         12    1    3    3    0    0  0.21095198504E+02 -0.28129649174E+02 -0.10931401870E+02  0.36820919453E+02  0.00000000000E+00 0. -1.
         11    1    4    4    0    0 -0.17465581874E+02  0.99764002773E+01  0.22873261268E+01  0.20243689727E+02  0.51100000000E-03 0. -1.
        -11    1    4    4    0    0 -0.10094942595E+02  0.11434061695E+02 -0.63050549928E+01  0.16504525184E+02  0.51100000000E-03 0.  1.
         12    1    4    4    0    0  0.64653259658E+01  0.67191872018E+01  0.14949130736E+02  0.17618865635E+02  0.00000000000E+00 0. -1.
</event>
<event>
 8    1  0.2502398E-006  0.9118800E+02  0.7816164E-02  0.1184000E+00
        -11   -1    0    0    0    0  0.00000000000E+00  0.00000000000E+00  0.45593999997E+02  0.45594000000E+02  0.51100000000E-03 0.  1.
         11   -1    0    0    0    0 -0.00000000000E+00 -0.00000000000E+00 -0.45593999997E+02  0.45594000000E+02  0.51100000000E-03 0. -1.
         23    2    1    2    0    0  0.00000000000E+00  0.00000000000E+00  0.35527136788E-14  0.91188000000E+02  0.91188000000E+02 0.  0.
    9900012    2    3    3    0    0  0.10935828821E+02 -0.25495893742E+02 -0.24210541478E+02  0.54367037650E+02  0.39999893930E+02 0.  0.
        -12    1    3    3    0    0 -0.10935828821E+02  0.25495893742E+02  0.24210541478E+02  0.36820962350E+02  0.00000000000E+00 0.  1.
         11    1    4    4    0    0  0.16954395949E+02  0.10058510285E+00 -0.14974105115E+02  0.22620466034E+02  0.51100000000E-03 0. -1.
        -11    1    4    4    0    0 -0.28760888862E+01 -0.21383862880E+02 -0.53730618195E+00  0.21583099341E+02  0.51100000000E-03 0.  1.
        -12    1    4    4    0    0 -0.31424782420E+01 -0.42126159650E+01 -0.86991301810E+01  0.10163472275E+02  0.00000000000E+00 0.  1.
</event>
<event>
 8    1  0.2502398E-006  0.9118800E+02  0.7816164E-02  0.1184000E+00
        -11   -1    0    0    0    0  0.00000000000E+00  0.00000000000E+00  0.45593999997E+02  0.45594000000E+02  0.51100000000E-03 0. -1.
         11   -1    0    0    0    0 -0.00000000000E+00 -0.00000000000E+00 -0.45593999997E+02  0.45594000000E+02  0.51100000000E-03 0.  1.
         23    2    1    2    0    0  0.00000000000E+00  0.00000000000E+00  0.00000000000E+00  0.91188000000E+02  0.91188000000E+02 0.  0.
    9900012    2    3    3    0    0  0.18989812763E+02 -0.24038222175E+02  0.20428712676E+02  0.54367062808E+02  0.39999951284E+02 0.  0.
         12    1    3    3    0    0 -0.18989812763E+02  0.24038222175E+02 -0.20428712676E+02  0.36820937192E+02  0.00000000000E+00 0. -1.
         11    1    4    4    0    0  0.27268806254E+02 -0.10355705846E+02  0.24157104897E+02  0.37873396406E+02  0.51100000000E-03 0. -1.
        -11    1    4    4    0    0 -0.36549113426E+01 -0.56297567552E+01 -0.23185948978E+01  0.71012971074E+01  0.51100000000E-03 0.  1.
         12    1    4    4    0    0 -0.46240821488E+01 -0.80527595738E+01 -0.14097973231E+01  0.93923692945E+01  0.00000000000E+00 0. -1.
</event>
<event>
 8    1  0.2502398E-006  0.9118800E+02  0.7816164E-02  0.1184000E+00
        -11   -1    0    0    0    0  0.00000000000E+00  0.00000000000E+00  0.45593999997E+02  0.45594000000E+02  0.51100000000E-03 0.  1.
         11   -1    0    0    0    0 -0.00000000000E+00 -0.00000000000E+00 -0.45593999997E+02  0.45594000000E+02  0.51100000000E-03 0. -1.
         23    2    1    2    0    0  0.35527136788E-14 -0.17763568394E-14 -0.35527136788E-14  0.91188000000E+02  0.91188000000E+02 0.  0.
    9900012    2    3    3    0    0  0.26071610158E+02 -0.13250165629E+02 -0.22371485534E+02  0.54367094112E+02  0.40000022647E+02 0.  0.
        -12    1    3    3    0    0 -0.26071610158E+02  0.13250165629E+02  0.22371485534E+02  0.36820905888E+02  0.00000000000E+00 0.  1.
         11    1    4    4    0    0  0.97258017048E+01  0.22183976438E+01 -0.66473119536E-01  0.99758170514E+01  0.51100000000E-03 0. -1.
        -11    1    4    4    0    0  0.15510792730E+02 -0.13374863934E+02  0.14474584300E+01  0.20532092259E+02  0.51100000000E-03 0.  1.
         12    1    4    4    0    0  0.83501572321E+00 -0.20936993388E+01 -0.23752470844E+02  0.23859184801E+02  0.00000000000E+00 0. -1.
</event>
<event>
 8    1  0.2502398E-006  0.9118800E+02  0.7816164E-02  0.1184000E+00
        -11   -1    0    0    0    0  0.00000000000E+00  0.00000000000E+00  0.45593999997E+02  0.45594000000E+02  0.51100000000E-03 0. -1.
         11   -1    0    0    0    0 -0.00000000000E+00 -0.00000000000E+00 -0.45593999997E+02  0.45594000000E+02  0.51100000000E-03 0.  1.
         23    2    1    2    0    0  0.00000000000E+00  0.00000000000E+00 -0.44408920985E-15  0.91188000000E+02  0.91188000000E+02 0.  0.
    9900012    2    3    3    0    0 -0.26103986776E+02 -0.25855671131E+02  0.24177417467E+01  0.54367091125E+02  0.40000015837E+02 0.  0.
        -12    1    3    3    0    0  0.26103986776E+02  0.25855671131E+02 -0.24177417467E+01  0.36820908875E+02  0.00000000000E+00 0.  1.
         11    1    4    4    0    0 -0.12478547847E+02 -0.21066558142E+02  0.87134255275E+01  0.25989186463E+02  0.51100000000E-03 0. -1.
        -11    1    4    4    0    0 -0.81212084392E+01 -0.65107424063E+01 -0.14805316285E+02  0.18098098899E+02  0.51100000000E-03 0.  1.
        -12    1    4    4    0    0 -0.55042304906E+01  0.17216294175E+01  0.85096325047E+01  0.10279805762E+02  0.00000000000E+00 0.  1.
</event>
<event>
 8    1  0.2502398E-006  0.9118800E+02  0.7816164E-02  0.1184000E+00
        -11   -1    0    0    0    0  0.00000000000E+00  0.00000000000E+00  0.45593999997E+02  0.45594000000E+02  0.51100000000E-03 0.  1.
         11   -1    0    0    0    0 -0.00000000000E+00 -0.00000000000E+00 -0.45593999997E+02  0.45594000000E+02  0.51100000000E-03 0. -1.
         23    2    1    2    0    0  0.00000000000E+00 -0.88817841970E-15  0.00000000000E+00  0.91188000000E+02  0.91188000000E+02 0.  0.
    9900012    2    3    3    0    0 -0.32264944527E+02  0.50971545562E+01  0.16993259976E+02  0.54367102204E+02  0.40000041094E+02 0.  0.
         12    1    3    3    0    0  0.32264944527E+02 -0.50971545562E+01 -0.16993259976E+02  0.36820897796E+02  0.00000000000E+00 0. -1.
         11    1    4    4    0    0 -0.16945016626E+02 -0.15912356657E+02  0.14597386161E+02  0.27448503891E+02  0.51100000000E-03 0. -1.
        -11    1    4    4    0    0 -0.12249919331E+02  0.12081166340E+02  0.29708278002E+01  0.17459694208E+02  0.51100000000E-03 0.  1.
         12    1    4    4    0    0 -0.30700085702E+01  0.89283448730E+01 -0.57495398542E+00  0.94589041055E+01  0.00000000000E+00 0. -1.
</event>
<event>
 8    1  0.2502398E-006  0.9118800E+02  0.7816164E-02  0.1184000E+00
        -11   -1    0    0    0    0  0.00000000000E+00  0.00000000000E+00  0.45593999997E+02  0.45594000000E+02  0.51100000000E-03 0.  1.
         11   -1    0    0    0    0 -0.00000000000E+00 -0.00000000000E+00 -0.45593999997E+02  0.45594000000E+02  0.51100000000E-03 0. -1.
         23    2    1    2    0    0  0.35527136788E-14 -0.17763568394E-14  0.17763568394E-14  0.91188000000E+02  0.91188000000E+02 0.  0.
    9900012    2    3    3    0    0 -0.31736392732E+02 -0.13444371231E+02  0.12954930436E+02  0.54367082521E+02  0.39999996222E+02 0.  0.
         12    1    3    3    0    0  0.31736392732E+02  0.13444371231E+02 -0.12954930436E+02  0.36820917479E+02  0.00000000000E+00 0. -1.
         11    1    4    4    0    0  0.77283391531E+01 -0.75406245216E+01 -0.98923928162E+00  0.10842824303E+02  0.51100000000E-03 0. -1.
        -11    1    4    4    0    0 -0.26536141078E+02  0.87450807604E+00  0.76776718890E+01  0.27638346434E+02  0.51100000000E-03 0.  1.
         12    1    4    4    0    0 -0.12928590807E+02 -0.67782547852E+01  0.62664978290E+01  0.15885911784E+02  0.00000000000E+00 0. -1.
</event>
<event>
 8    1  0.2502398E-006  0.9118800E+02  0.7816164E-02  0.1184000E+00
        -11   -1    0    0    0    0  0.00000000000E+00  0.00000000000E+00  0.45593999997E+02  0.45594000000E+02  0.51100000000E-03 0. -1.
         11   -1    0    0    0    0 -0.00000000000E+00 -0.00000000000E+00 -0.45593999997E+02  0.45594000000E+02  0.51100000000E-03 0.  1.
         23    2    1    2    0    0 -0.44408920985E-15  0.17763568394E-14  0.00000000000E+00  0.91188000000E+02  0.91188000000E+02 0.  0.
    9900012    2    3    3    0    0  0.24774769425E+01 -0.59327711455E+01 -0.36255495703E+02  0.54366856154E+02  0.39999480172E+02 0.  0.
         12    1    3    3    0    0 -0.24774769425E+01  0.59327711455E+01  0.36255495703E+02  0.36821143846E+02  0.00000000000E+00 0. -1.
         11    1    4    4    0    0  0.12666590268E+01  0.97719052115E+01 -0.54324568974E+01  0.11251939600E+02  0.51100000000E-03 0. -1.
        -11    1    4    4    0    0  0.18220637864E+01  0.18777056925E+01  0.36037183025E+01  0.44533673747E+01  0.51100000000E-03 0.  1.
        -12    1    4    4    0    0 -0.61124587066E+00 -0.17582382049E+02 -0.34426757108E+02  0.38661549180E+02  0.00000000000E+00 0.  1.
</event>
<event>
 8    1  0.2502398E-006  0.9118800E+02  0.7816164E-02  0.1184000E+00
        -11   -1    0    0    0    0  0.00000000000E+00  0.00000000000E+00  0.45593999997E+02  0.45594000000E+02  0.51100000000E-03 0.  1.
         11   -1    0    0    0    0 -0.00000000000E+00 -0.00000000000E+00 -0.45593999997E+02  0.45594000000E+02  0.51100000000E-03 0. -1.
         23    2    1    2    0    0  0.00000000000E+00  0.00000000000E+00  0.00000000000E+00  0.91188000000E+02  0.91188000000E+02 0.  0.
    9900012    2    3    3    0    0  0.19229482639E+02  0.19478664694E+02 -0.24629018875E+02  0.54367082689E+02  0.39999996607E+02 0.  0.
        -12    1    3    3    0    0 -0.19229482639E+02 -0.19478664694E+02  0.24629018875E+02  0.36820917311E+02  0.00000000000E+00 0.  1.
         11    1    4    4    0    0  0.22461112579E+02  0.17849014792E+01 -0.19039760036E+02  0.29499151074E+02  0.51100000000E-03 0. -1.
        -11    1    4    4    0    0  0.12755196972E+01  0.18888273089E+02 -0.66871944291E+01  0.20077658737E+02  0.51100000000E-03 0.  1.
         12    1    4    4    0    0 -0.45071496370E+01 -0.11945098736E+01  0.10979355905E+01  0.47902728784E+01  0.00000000000E+00 0. -1.
</event>
<event>
 8    1  0.2502398E-006  0.9118800E+02  0.7816164E-02  0.1184000E+00
        -11   -1    0    0    0    0  0.00000000000E+00  0.00000000000E+00  0.45593999997E+02  0.45594000000E+02  0.51100000000E-03 0. -1.
         11   -1    0    0    0    0 -0.00000000000E+00 -0.00000000000E+00 -0.45593999997E+02  0.45594000000E+02  0.51100000000E-03 0.  1.
         23    2    1    2    0    0  0.00000000000E+00  0.35527136788E-14 -0.44408920985E-15  0.91188000000E+02  0.91188000000E+02 0.  0.
    9900012    2    3    3    0    0 -0.33036314590E+02 -0.16000520071E+02  0.28923648813E+01  0.54367075258E+02  0.39999979665E+02 0.  0.
        -12    1    3    3    0    0  0.33036314590E+02  0.16000520071E+02 -0.28923648813E+01  0.36820924742E+02  0.00000000000E+00 0.  1.
         11    1    4    4    0    0 -0.17184835889E+02  0.55827097557E+00  0.13178299289E+02  0.21663282841E+02  0.51100000000E-03 0. -1.
        -11    1    4    4    0    0 -0.13596341460E+02  0.61297627971E+00 -0.31361508970E+01  0.13966806497E+02  0.51100000000E-03 0.  1.
        -12    1    4    4    0    0 -0.22551372406E+01 -0.17171767326E+02 -0.71497835112E+01  0.18736985919E+02  0.00000000000E+00 0.  1.
</event>
<event>
 8    1  0.2502398E-006  0.9118800E+02  0.7816164E-02  0.1184000E+00
        -11   -1    0    0    0    0  0.00000000000E+00  0.00000000000E+00  0.45593999997E+02  0.45594000000E+02  0.51100000000E-03 0.  1.
         11   -1    0    0    0    0 -0.00000000000E+00 -0.00000000000E+00 -0.45593999997E+02  0.45594000000E+02  0.51100000000E-03 0. -1.
         23    2    1    2    0    0  0.00000000000E+00  0.00000000000E+00 -0.35527136788E-14  0.91188000000E+02  0.91188000000E+02 0.  0.
    9900012    2    3    3    0    0 -0.21900270571E+02  0.18169811500E+02  0.23366959433E+02  0.54367099764E+02  0.40000035533E+02 0.  0.
         12    1    3    3    0    0  0.21900270571E+02 -0.18169811500E+02 -0.23366959433E+02  0.36820900236E+02  0.00000000000E+00 0. -1.
         11    1    4    4    0    0 -0.12100222032E+02  0.40918076651E+01 -0.12849472916E+01  0.12837809509E+02  0.51100000000E-03 0. -1.
        -11    1    4    4    0    0 -0.86512152466E+01  0.37612468525E+01 -0.45962849164E+01  0.10493633233E+02  0.51100000000E-03 0.  1.
        -12    1    4    4    0    0 -0.11488332926E+01  0.10316756983E+02  0.29248191641E+02  0.31035657022E+02  0.00000000000E+00 0.  1.
</event>
<event>
 8    1  0.2502398E-006  0.9118800E+02  0.7816164E-02  0.1184000E+00
        -11   -1    0    0    0    0  0.00000000000E+00  0.00000000000E+00  0.45593999997E+02  0.45594000000E+02  0.51100000000E-03 0.  1.
         11   -1    0    0    0    0 -0.00000000000E+00 -0.00000000000E+00 -0.45593999997E+02  0.45594000000E+02  0.51100000000E-03 0. -1.
         23    2    1    2    0    0 -0.35527136788E-14  0.00000000000E+00  0.00000000000E+00  0.91188000000E+02  0.91188000000E+02 0.  0.
    9900012    2    3    3    0    0 -0.17452620593E+02 -0.16672465285E+02 -0.27806820776E+02  0.54367023018E+02  0.39999860574E+02 0.  0.
        -12    1    3    3    0    0  0.17452620593E+02  0.16672465285E+02  0.27806820776E+02  0.36820976982E+02  0.00000000000E+00 0.  1.
         11    1    4    4    0    0 -0.30598790333E+01 -0.16564016490E+02 -0.35469483375E+01  0.17213667382E+02  0.51100000000E-03 0. -1.
        -11    1    4    4    0    0 -0.69808168573E+01 -0.73755916463E+01  0.64099950316E+00  0.10175560759E+02  0.51100000000E-03 0.  1.
        -12    1    4    4    0    0 -0.74119247025E+01  0.72671428510E+01 -0.24900871941E+02  0.26977794878E+02  0.00000000000E+00 0.  1.
</event>
<event>
 8    1  0.2502398E-006  0.9118800E+02  0.7816164E-02  0.1184000E+00
        -11   -1    0    0    0    0  0.00000000000E+00  0.00000000000E+00  0.45593999997E+02  0.45594000000E+02  0.51100000000E-03 0.  1.
         11   -1    0    0    0    0 -0.00000000000E+00 -0.00000000000E+00 -0.45593999997E+02  0.45594000000E+02  0.51100000000E-03 0. -1.
         23    2    1    2    0    0 -0.35527136788E-14  0.00000000000E+00  0.44408920985E-15  0.91188000000E+02  0.91188000000E+02 0.  0.
    9900012    2    3    3    0    0  0.12192322026E+02 -0.34580014458E+02 -0.33682293259E+01  0.54367148773E+02  0.40000147257E+02 0.  0.
        -12    1    3    3    0    0 -0.12192322026E+02  0.34580014458E+02  0.33682293259E+01  0.36820851227E+02  0.00000000000E+00 0.  1.
         11    1    4    4    0    0 -0.67607461641E+01 -0.27745399696E+01 -0.74474744346E+01  0.10434109279E+02  0.51100000000E-03 0. -1.
        -11    1    4    4    0    0 -0.11398961970E+01 -0.19855406129E+01 -0.61386894230E+01  0.65517358737E+01  0.51100000000E-03 0.  1.
         12    1    4    4    0    0  0.20092964387E+02 -0.29819933876E+02  0.10217934532E+02  0.37381303620E+02  0.00000000000E+00 0. -1.
</event>
<event>
 8    1  0.2502398E-006  0.9118800E+02  0.7816164E-02  0.1184000E+00
        -11   -1    0    0    0    0  0.00000000000E+00  0.00000000000E+00  0.45593999997E+02  0.45594000000E+02  0.51100000000E-03 0. -1.
         11   -1    0    0    0    0 -0.00000000000E+00 -0.00000000000E+00 -0.45593999997E+02  0.45594000000E+02  0.51100000000E-03 0.  1.
         23    2    1    2    0    0  0.00000000000E+00  0.17763568394E-14  0.00000000000E+00  0.91188000000E+02  0.91188000000E+02 0.  0.
    9900012    2    3    3    0    0  0.10015005287E+02  0.72207165326E+01 -0.34689189428E+02  0.54367096408E+02  0.40000027881E+02 0.  0.
         12    1    3    3    0    0 -0.10015005287E+02 -0.72207165326E+01  0.34689189428E+02  0.36820903592E+02  0.00000000000E+00 0. -1.
         11    1    4    4    0    0 -0.88234257914E+01 -0.16416956425E+01  0.15568348525E+01  0.91088826042E+01  0.51100000000E-03 0. -1.
        -11    1    4    4    0    0  0.54393740828E+01 -0.26723340460E+01 -0.21178629804E+02  0.22028674955E+02  0.51100000000E-03 0.  1.
         12    1    4    4    0    0  0.13399056996E+02  0.11534746221E+02 -0.15067394477E+02  0.23229538848E+02  0.00000000000E+00 0. -1.
</event>
<event>
 8    1  0.2502398E-006  0.9118800E+02  0.7816164E-02  0.1184000E+00
        -11   -1    0    0    0    0  0.00000000000E+00  0.00000000000E+00  0.45593999997E+02  0.45594000000E+02  0.51100000000E-03 0. -1.
         11   -1    0    0    0    0 -0.00000000000E+00 -0.00000000000E+00 -0.45593999997E+02  0.45594000000E+02  0.51100000000E-03 0.  1.
         23    2    1    2    0    0 -0.22204460493E-15  0.00000000000E+00 -0.17763568394E-14  0.91188000000E+02  0.91188000000E+02 0.  0.
    9900012    2    3    3    0    0 -0.70309073030E+00 -0.33821813534E+02 -0.14538598073E+02  0.54367078757E+02  0.39999987642E+02 0.  0.
         12    1    3    3    0    0  0.70309073030E+00  0.33821813534E+02  0.14538598073E+02  0.36820921243E+02  0.00000000000E+00 0. -1.
         11    1    4    4    0    0 -0.47275045257E+01  0.34382992808E+01 -0.10473515307E+01  0.59386990558E+01  0.51100000000E-03 0. -1.
        -11    1    4    4    0    0 -0.11201738210E+00 -0.31515792008E+02  0.18112156078E+01  0.31567993221E+02  0.51100000000E-03 0.  1.
        -12    1    4    4    0    0  0.41364311775E+01 -0.57443208066E+01 -0.15302462150E+02  0.16860386480E+02  0.00000000000E+00 0.  1.
</event>
<event>
 8    1  0.2502398E-006  0.9118800E+02  0.7816164E-02  0.1184000E+00
        -11   -1    0    0    0    0  0.00000000000E+00  0.00000000000E+00  0.45593999997E+02  0.45594000000E+02  0.51100000000E-03 0. -1.
         11   -1    0    0    0    0 -0.00000000000E+00 -0.00000000000E+00 -0.45593999997E+02  0.45594000000E+02  0.51100000000E-03 0.  1.
         23    2    1    2    0    0 -0.55511151231E-16 -0.35527136788E-14  0.71054273576E-14  0.91188000000E+02  0.91188000000E+02 0.  0.
    9900012    2    3    3    0    0 -0.35995269035E+00  0.16247499458E+02 -0.33040439925E+02  0.54367062002E+02  0.39999949447E+02 0.  0.
         12    1    3    3    0    0  0.35995269035E+00 -0.16247499458E+02  0.33040439925E+02  0.36820937998E+02  0.00000000000E+00 0. -1.
         11    1    4    4    0    0 -0.91727690812E+01  0.19359917518E+02 -0.75947029446E+01  0.22729399728E+02  0.51100000000E-03 0. -1.
        -11    1    4    4    0    0  0.47295660072E+01  0.65929905395E+01 -0.90781890896E+01  0.12175788939E+02  0.51100000000E-03 0.  1.
        -12    1    4    4    0    0  0.40832503837E+01 -0.97054085993E+01 -0.16367547891E+02  0.19461873336E+02  0.00000000000E+00 0.  1.
</event>
<event>
 8    1  0.2502398E-006  0.9118800E+02  0.7816164E-02  0.1184000E+00
        -11   -1    0    0    0    0  0.00000000000E+00  0.00000000000E+00  0.45593999997E+02  0.45594000000E+02  0.51100000000E-03 0.  1.
         11   -1    0    0    0    0 -0.00000000000E+00 -0.00000000000E+00 -0.45593999997E+02  0.45594000000E+02  0.51100000000E-03 0. -1.
         23    2    1    2    0    0  0.00000000000E+00  0.00000000000E+00 -0.88817841970E-15  0.91188000000E+02  0.91188000000E+02 0.  0.
    9900012    2    3    3    0    0  0.27707523898E+02  0.24212126569E+02  0.13580287663E+01  0.54367106533E+02  0.40000050963E+02 0.  0.
        -12    1    3    3    0    0 -0.27707523898E+02 -0.24212126569E+02 -0.13580287663E+01  0.36820893467E+02  0.00000000000E+00 0.  1.
         11    1    4    4    0    0 -0.30030932431E+01  0.16146652551E+02 -0.65781061277E+01  0.17691931441E+02  0.51100000000E-03 0. -1.
        -11    1    4    4    0    0  0.26123833697E+02  0.20449459462E+01  0.11118015523E+02  0.28464833749E+02  0.51100000000E-03 0.  1.
         12    1    4    4    0    0  0.45867834444E+01  0.60205280723E+01 -0.31818806287E+01  0.82103413431E+01  0.00000000000E+00 0. -1.
</event>
<event>
 8    1  0.2502398E-006  0.9118800E+02  0.7816164E-02  0.1184000E+00
        -11   -1    0    0    0    0  0.00000000000E+00  0.00000000000E+00  0.45593999997E+02  0.45594000000E+02  0.51100000000E-03 0.  1.
         11   -1    0    0    0    0 -0.00000000000E+00 -0.00000000000E+00 -0.45593999997E+02  0.45594000000E+02  0.51100000000E-03 0. -1.
         23    2    1    2    0    0  0.71054273576E-14  0.00000000000E+00 -0.22204460493E-15  0.91188000000E+02  0.91188000000E+02 0.  0.
    9900012    2    3    3    0    0  0.35047640998E+02  0.11118182992E+02  0.19563431517E+01  0.54367103609E+02  0.40000044296E+02 0.  0.
        -12    1    3    3    0    0 -0.35047640998E+02 -0.11118182992E+02 -0.19563431517E+01  0.36820896391E+02  0.00000000000E+00 0.  1.
         11    1    4    4    0    0  0.70045157372E+01  0.99749105313E-01  0.11238078943E+02  0.13242643587E+02  0.51100000000E-03 0.  1.
        -11    1    4    4    0    0  0.32398621495E+02  0.13444768024E+02 -0.81550007032E+01  0.36013004578E+02  0.51100000000E-03 0. -1.
         12    1    4    4    0    0 -0.43554962341E+01 -0.24263341380E+01 -0.11267350876E+01  0.51114554436E+01  0.00000000000E+00 0. -1.
</event>
<event>
 8    1  0.2502398E-006  0.9118800E+02  0.7816164E-02  0.1184000E+00
        -11   -1    0    0    0    0  0.00000000000E+00  0.00000000000E+00  0.45593999997E+02  0.45594000000E+02  0.51100000000E-03 0.  1.
         11   -1    0    0    0    0 -0.00000000000E+00 -0.00000000000E+00 -0.45593999997E+02  0.45594000000E+02  0.51100000000E-03 0. -1.
         23    2    1    2    0    0 -0.17763568394E-14 -0.17763568394E-14 -0.35527136788E-14  0.91188000000E+02  0.91188000000E+02 0.  0.
    9900012    2    3    3    0    0 -0.11728018934E+02 -0.14639035001E+02 -0.31684879553E+02  0.54367090639E+02  0.40000014731E+02 0.  0.
        -12    1    3    3    0    0  0.11728018934E+02  0.14639035001E+02  0.31684879553E+02  0.36820909361E+02  0.00000000000E+00 0.  1.
         11    1    4    4    0    0 -0.80880220102E+01  0.11665431346E+02 -0.91970319861E+01  0.16914011533E+02  0.51100000000E-03 0. -1.
        -11    1    4    4    0    0  0.12254175763E+01 -0.35869466171E+01 -0.10800444433E+02  0.11446284746E+02  0.51100000000E-03 0.  1.
        -12    1    4    4    0    0 -0.48654144999E+01 -0.22717519729E+02 -0.11687403133E+02  0.26006794361E+02  0.00000000000E+00 0.  1.
</event>
<event>
 8    1  0.2502398E-006  0.9118800E+02  0.7816164E-02  0.1184000E+00
        -11   -1    0    0    0    0  0.00000000000E+00  0.00000000000E+00  0.45593999997E+02  0.45594000000E+02  0.51100000000E-03 0.  1.
         11   -1    0    0    0    0 -0.00000000000E+00 -0.00000000000E+00 -0.45593999997E+02  0.45594000000E+02  0.51100000000E-03 0. -1.
         23    2    1    2    0    0 -0.35527136788E-14  0.00000000000E+00  0.35527136788E-14  0.91188000000E+02  0.91188000000E+02 0.  0.
    9900012    2    3    3    0    0  0.19606023085E+02 -0.98204449399E+01 -0.29579420778E+02  0.54367089995E+02  0.40000013261E+02 0.  0.
        -12    1    3    3    0    0 -0.19606023085E+02  0.98204449399E+01  0.29579420778E+02  0.36820910005E+02  0.00000000000E+00 0.  1.
         11    1    4    4    0    0  0.89979038359E+01 -0.15929051779E+02 -0.28442504668E+02  0.33818235260E+02  0.51100000000E-03 0. -1.
        -11    1    4    4    0    0  0.38479259089E-01  0.40156096791E+01 -0.71567158022E+01  0.82064110964E+01  0.51100000000E-03 0.  1.
         12    1    4    4    0    0  0.10569639990E+02  0.20929971599E+01  0.60197996923E+01  0.12342443639E+02  0.00000000000E+00 0. -1.
</event>
<event>
 8    1  0.2502398E-006  0.9118800E+02  0.7816164E-02  0.1184000E+00
        -11   -1    0    0    0    0  0.00000000000E+00  0.00000000000E+00  0.45593999997E+02  0.45594000000E+02  0.51100000000E-03 0. -1.
         11   -1    0    0    0    0 -0.00000000000E+00 -0.00000000000E+00 -0.45593999997E+02  0.45594000000E+02  0.51100000000E-03 0.  1.
         23    2    1    2    0    0  0.88817841970E-15  0.00000000000E+00  0.17763568394E-14  0.91188000000E+02  0.91188000000E+02 0.  0.
    9900012    2    3    3    0    0  0.20011004027E+01 -0.34901472329E+02 -0.11561215463E+02  0.54367097288E+02  0.40000029887E+02 0.  0.
         12    1    3    3    0    0 -0.20011004027E+01  0.34901472329E+02  0.11561215463E+02  0.36820902712E+02  0.00000000000E+00 0. -1.
         11    1    4    4    0    0  0.99908856897E+01 -0.18136496984E+02 -0.21420464517E+02  0.29792391984E+02  0.51100000000E-03 0.  1.
        -11    1    4    4    0    0 -0.59059977991E+01 -0.43441398837E+01  0.94672522481E+01  0.11974190024E+02  0.51100000000E-03 0. -1.
         12    1    4    4    0    0 -0.20837874880E+01 -0.12420835461E+02  0.39199680619E+00  0.12600515281E+02  0.00000000000E+00 0. -1.
</event>
<event>
 8    1  0.2807658E-006  0.9118800E+02  0.7816164E-02  0.1184000E+00
        -11   -1    0    0    0    0  0.00000000000E+00  0.00000000000E+00  0.45593999997E+02  0.45594000000E+02  0.51100000000E-03 0.  1.
         11   -1    0    0    0    0 -0.00000000000E+00 -0.00000000000E+00 -0.45593999997E+02  0.45594000000E+02  0.51100000000E-03 0. -1.
         23    2    1    2    0    0  0.00000000000E+00 -0.15543122345E-14  0.35527136788E-14  0.91188000000E+02  0.91188000000E+02 0.  0.
    9900012    2    3    3    0    0  0.23793495838E+02 -0.19603405321E+01  0.28032295004E+02  0.54367042077E+02  0.39999904023E+02 0.  0.
         12    1    3    3    0    0 -0.23793495838E+02  0.19603405321E+01 -0.28032295004E+02  0.36820957923E+02  0.00000000000E+00 0. -1.
         11    1    4    4    0    0  0.51456366184E+01 -0.90098962375E+01 -0.34353177677E+01  0.10929648432E+02  0.51100000000E-03 0. -1.
        -11    1    4    4    0    0  0.14911146317E+02 -0.44655269665E+01  0.91713006715E+01  0.18066432183E+02  0.51100000000E-03 0.  1.
        -12    1    4    4    0    0  0.37367129029E+01  0.11515082672E+02  0.22296312100E+02  0.25370961462E+02  0.00000000000E+00 0.  1.
</event>
<event>
 8    1  0.2502398E-006  0.9118800E+02  0.7816164E-02  0.1184000E+00
        -11   -1    0    0    0    0  0.00000000000E+00  0.00000000000E+00  0.45593999997E+02  0.45594000000E+02  0.51100000000E-03 0.  1.
         11   -1    0    0    0    0 -0.00000000000E+00 -0.00000000000E+00 -0.45593999997E+02  0.45594000000E+02  0.51100000000E-03 0. -1.
         23    2    1    2    0    0  0.00000000000E+00 -0.17763568394E-14  0.00000000000E+00  0.91188000000E+02  0.91188000000E+02 0.  0.
    9900012    2    3    3    0    0  0.22365423737E+02 -0.89426513497E+01 -0.27849555097E+02  0.54367069659E+02  0.39999966901E+02 0.  0.
        -12    1    3    3    0    0 -0.22365423737E+02  0.89426513497E+01  0.27849555097E+02  0.36820930341E+02  0.00000000000E+00 0.  1.
         11    1    4    4    0    0  0.25349543585E+01 -0.20598198765E+01 -0.10949784072E+02  0.11426575297E+02  0.51100000000E-03 0. -1.
        -11    1    4    4    0    0  0.17985730675E+02  0.10248862915E+02 -0.15085714532E+02  0.25614536540E+02  0.51100000000E-03 0.  1.
        -12    1    4    4    0    0  0.18447387037E+01 -0.17131694388E+02 -0.18140564924E+01  0.17325957822E+02  0.00000000000E+00 0.  1.
</event>
<event>
 8    1  0.2502398E-006  0.9118800E+02  0.7816164E-02  0.1184000E+00
        -11   -1    0    0    0    0  0.00000000000E+00  0.00000000000E+00  0.45593999997E+02  0.45594000000E+02  0.51100000000E-03 0. -1.
         11   -1    0    0    0    0 -0.00000000000E+00 -0.00000000000E+00 -0.45593999997E+02  0.45594000000E+02  0.51100000000E-03 0.  1.
         23    2    1    2    0    0  0.00000000000E+00  0.00000000000E+00  0.00000000000E+00  0.91188000000E+02  0.91188000000E+02 0.  0.
    9900012    2    3    3    0    0  0.21351776986E+02  0.37017408402E+01  0.29768754815E+02  0.54367081639E+02  0.39999994213E+02 0.  0.
        -12    1    3    3    0    0 -0.21351776986E+02 -0.37017408402E+01 -0.29768754815E+02  0.36820918361E+02  0.00000000000E+00 0.  1.
         11    1    4    4    0    0  0.38996509068E+01  0.92439952000E+01  0.23451100455E+02  0.25507113464E+02  0.51100000000E-03 0. -1.
        -11    1    4    4    0    0  0.15930887574E+01  0.74401156814E+01  0.90683498427E+00  0.76626107230E+01  0.51100000000E-03 0.  1.
         12    1    4    4    0    0  0.15859037321E+02 -0.12982370041E+02  0.54108193758E+01  0.21197357453E+02  0.00000000000E+00 0. -1.
</event>
<event>
 8    1  0.2502398E-006  0.9118800E+02  0.7816164E-02  0.1184000E+00
        -11   -1    0    0    0    0  0.00000000000E+00  0.00000000000E+00  0.45593999997E+02  0.45594000000E+02  0.51100000000E-03 0.  1.
         11   -1    0    0    0    0 -0.00000000000E+00 -0.00000000000E+00 -0.45593999997E+02  0.45594000000E+02  0.51100000000E-03 0. -1.
         23    2    1    2    0    0  0.00000000000E+00  0.00000000000E+00  0.88817841970E-15  0.91188000000E+02  0.91188000000E+02 0.  0.
    9900012    2    3    3    0    0 -0.35990564602E+02 -0.41370173762E+01 -0.65836846297E+01  0.54367074476E+02  0.39999977882E+02 0.  0.
         12    1    3    3    0    0  0.35990564602E+02  0.41370173762E+01  0.65836846297E+01  0.36820925524E+02  0.00000000000E+00 0. -1.
         11    1    4    4    0    0  0.21410167070E+01  0.28687654668E+01  0.66101160681E+01  0.75171405826E+01  0.51100000000E-03 0. -1.
        -11    1    4    4    0    0 -0.34683167603E+02 -0.73129990956E+01 -0.18904387306E+02  0.40171854953E+02  0.51100000000E-03 0.  1.
        -12    1    4    4    0    0 -0.34484137068E+01  0.30721625257E+00  0.57105866079E+01  0.66780789397E+01  0.00000000000E+00 0.  1.
</event>
<event>
 8    1  0.2502398E-006  0.9118800E+02  0.7816164E-02  0.1184000E+00
        -11   -1    0    0    0    0  0.00000000000E+00  0.00000000000E+00  0.45593999997E+02  0.45594000000E+02  0.51100000000E-03 0. -1.
         11   -1    0    0    0    0 -0.00000000000E+00 -0.00000000000E+00 -0.45593999997E+02  0.45594000000E+02  0.51100000000E-03 0.  1.
         23    2    1    2    0    0  0.00000000000E+00  0.00000000000E+00  0.17763568394E-14  0.91188000000E+02  0.91188000000E+02 0.  0.
    9900012    2    3    3    0    0 -0.22748629379E+02 -0.25698436978E+02  0.13336838948E+02  0.54367067436E+02  0.39999961833E+02 0.  0.
        -12    1    3    3    0    0  0.22748629379E+02  0.25698436978E+02 -0.13336838948E+02  0.36820932564E+02  0.00000000000E+00 0.  1.
         11    1    4    4    0    0 -0.23883030476E+01  0.35205624168E+01  0.42237441406E+01  0.59948616334E+01  0.51100000000E-03 0.  1.
        -11    1    4    4    0    0 -0.10271808328E+02  0.99770447218E+00  0.12643697542E+02  0.16320801094E+02  0.51100000000E-03 0. -1.
        -12    1    4    4    0    0 -0.10088518004E+02 -0.30216703867E+02 -0.35306027347E+01  0.32051404709E+02  0.00000000000E+00 0.  1.
</event>
<event>
 8    1  0.2502398E-006  0.9118800E+02  0.7816164E-02  0.1184000E+00
        -11   -1    0    0    0    0  0.00000000000E+00  0.00000000000E+00  0.45593999997E+02  0.45594000000E+02  0.51100000000E-03 0.  1.
         11   -1    0    0    0    0 -0.00000000000E+00 -0.00000000000E+00 -0.45593999997E+02  0.45594000000E+02  0.51100000000E-03 0. -1.
         23    2    1    2    0    0  0.00000000000E+00  0.00000000000E+00  0.00000000000E+00  0.91188000000E+02  0.91188000000E+02 0.  0.
    9900012    2    3    3    0    0 -0.12194912292E+02  0.27774099933E+02  0.20872601166E+02  0.54367054978E+02  0.39999933433E+02 0.  0.
         12    1    3    3    0    0  0.12194912292E+02 -0.27774099933E+02 -0.20872601166E+02  0.36820945022E+02  0.00000000000E+00 0. -1.
         11    1    4    4    0    0 -0.12463549671E+02  0.46874997387E+00  0.16578827845E+02  0.20746501631E+02  0.51100000000E-03 0. -1.
        -11    1    4    4    0    0  0.31786133942E+01  0.11725842201E+02  0.11020901694E+02  0.16403025112E+02  0.51100000000E-03 0.  1.
        -12    1    4    4    0    0 -0.29099760150E+01  0.15579507758E+02 -0.67271283726E+01  0.17217528235E+02  0.00000000000E+00 0.  1.
</event>
<event>
 8    1  0.2502398E-006  0.9118800E+02  0.7816164E-02  0.1184000E+00
        -11   -1    0    0    0    0  0.00000000000E+00  0.00000000000E+00  0.45593999997E+02  0.45594000000E+02  0.51100000000E-03 0. -1.
         11   -1    0    0    0    0 -0.00000000000E+00 -0.00000000000E+00 -0.45593999997E+02  0.45594000000E+02  0.51100000000E-03 0.  1.
         23    2    1    2    0    0 -0.44408920985E-15  0.00000000000E+00  0.88817841970E-15  0.91188000000E+02  0.91188000000E+02 0.  0.
    9900012    2    3    3    0    0  0.26431658483E+01 -0.36025234081E+02 -0.71397478949E+01  0.54367084526E+02  0.40000000795E+02 0.  0.
        -12    1    3    3    0    0 -0.26431658483E+01  0.36025234081E+02  0.71397478949E+01  0.36820915474E+02  0.00000000000E+00 0.  1.
         11    1    4    4    0    0  0.81267823010E+01 -0.24000563962E+02 -0.16348160653E+02  0.30155165695E+02  0.51100000000E-03 0. -1.
        -11    1    4    4    0    0  0.17555210241E+01  0.22860082690E+01  0.75589599297E+01  0.80898432217E+01  0.51100000000E-03 0.  1.
         12    1    4    4    0    0 -0.72391374768E+01 -0.14310678388E+02  0.16494528287E+01  0.16122075610E+02  0.00000000000E+00 0. -1.
</event>
<event>
 8    1  0.2502398E-006  0.9118800E+02  0.7816164E-02  0.1184000E+00
        -11   -1    0    0    0    0  0.00000000000E+00  0.00000000000E+00  0.45593999997E+02  0.45594000000E+02  0.51100000000E-03 0. -1.
         11   -1    0    0    0    0 -0.00000000000E+00 -0.00000000000E+00 -0.45593999997E+02  0.45594000000E+02  0.51100000000E-03 0.  1.
         23    2    1    2    0    0  0.00000000000E+00 -0.17763568394E-14 -0.88817841970E-15  0.91188000000E+02  0.91188000000E+02 0.  0.
    9900012    2    3    3    0    0  0.33284154154E+02 -0.15005429875E+02 -0.47728460085E+01  0.54367110515E+02  0.40000060041E+02 0.  0.
         12    1    3    3    0    0 -0.33284154154E+02  0.15005429875E+02  0.47728460085E+01  0.36820889485E+02  0.00000000000E+00 0. -1.
         11    1    4    4    0    0  0.82083331232E+01  0.60714386842E+01  0.73693438411E+01  0.12591518148E+02  0.51100000000E-03 0. -1.
        -11    1    4    4    0    0 -0.26571100634E+01  0.16345610031E+01  0.14489111178E+01  0.34396754571E+01  0.51100000000E-03 0.  1.
         12    1    4    4    0    0  0.27732931094E+02 -0.22711429562E+02 -0.13591100967E+02  0.38335916910E+02  0.00000000000E+00 0. -1.
</event>
<event>
 8    1  0.2502398E-006  0.9118800E+02  0.7816164E-02  0.1184000E+00
        -11   -1    0    0    0    0  0.00000000000E+00  0.00000000000E+00  0.45593999997E+02  0.45594000000E+02  0.51100000000E-03 0.  1.
         11   -1    0    0    0    0 -0.00000000000E+00 -0.00000000000E+00 -0.45593999997E+02  0.45594000000E+02  0.51100000000E-03 0. -1.
         23    2    1    2    0    0  0.35527136788E-14  0.00000000000E+00  0.00000000000E+00  0.91188000000E+02  0.91188000000E+02 0.  0.
    9900012    2    3    3    0    0 -0.27709075424E+02  0.13295174699E+02  0.20278690403E+02  0.54367084536E+02  0.40000000817E+02 0.  0.
         12    1    3    3    0    0  0.27709075424E+02 -0.13295174699E+02 -0.20278690403E+02  0.36820915464E+02  0.00000000000E+00 0. -1.
         11    1    4    4    0    0 -0.50338948545E+01  0.15965906470E+01  0.17263761283E+02  0.18053438814E+02  0.51100000000E-03 0. -1.
        -11    1    4    4    0    0 -0.16167382768E+01  0.14479171337E+02  0.38046587818E+01  0.15057744651E+02  0.51100000000E-03 0.  1.
         12    1    4    4    0    0 -0.21058442292E+02 -0.27805872847E+01 -0.78972966181E+00  0.21255901072E+02  0.00000000000E+00 0. -1.
</event>
<event>
 8    1  0.2502398E-006  0.9118800E+02  0.7816164E-02  0.1184000E+00
        -11   -1    0    0    0    0  0.00000000000E+00  0.00000000000E+00  0.45593999997E+02  0.45594000000E+02  0.51100000000E-03 0.  1.
         11   -1    0    0    0    0 -0.00000000000E+00 -0.00000000000E+00 -0.45593999997E+02  0.45594000000E+02  0.51100000000E-03 0. -1.
         23    2    1    2    0    0  0.00000000000E+00  0.00000000000E+00  0.17763568394E-14  0.91188000000E+02  0.91188000000E+02 0.  0.
    9900012    2    3    3    0    0 -0.25725926828E+02  0.22242943247E+02  0.14114119683E+02  0.54367079182E+02  0.39999988612E+02 0.  0.
         12    1    3    3    0    0  0.25725926828E+02 -0.22242943247E+02 -0.14114119683E+02  0.36820920818E+02  0.00000000000E+00 0. -1.
         11    1    4    4    0    0 -0.65836463412E+01 -0.10654488490E+01 -0.19349251457E+01  0.69443153713E+01  0.51100000000E-03 0. -1.
        -11    1    4    4    0    0 -0.27006678426E+02  0.17255043845E+02  0.18759346152E+02  0.37135027750E+02  0.51100000000E-03 0.  1.
         12    1    4    4    0    0  0.78643979393E+01  0.60533482507E+01 -0.27103013232E+01  0.10287736061E+02  0.00000000000E+00 0. -1.
</event>
<event>
 8    1  0.2502398E-006  0.9118800E+02  0.7816164E-02  0.1184000E+00
        -11   -1    0    0    0    0  0.00000000000E+00  0.00000000000E+00  0.45593999997E+02  0.45594000000E+02  0.51100000000E-03 0. -1.
         11   -1    0    0    0    0 -0.00000000000E+00 -0.00000000000E+00 -0.45593999997E+02  0.45594000000E+02  0.51100000000E-03 0.  1.
         23    2    1    2    0    0  0.00000000000E+00  0.00000000000E+00  0.26645352591E-14  0.91188000000E+02  0.91188000000E+02 0.  0.
    9900012    2    3    3    0    0  0.50176978473E+00 -0.36376517404E+02 -0.56810944047E+01  0.54367114283E+02  0.40000068631E+02 0.  0.
         12    1    3    3    0    0 -0.50176978473E+00  0.36376517404E+02  0.56810944047E+01  0.36820885717E+02  0.00000000000E+00 0. -1.
         11    1    4    4    0    0 -0.29019565530E+01  0.23517008492E+01 -0.54918520353E+00  0.37753745997E+01  0.51100000000E-03 0. -1.
        -11    1    4    4    0    0  0.27228420176E+00 -0.30999578015E+02  0.10619442371E+02  0.32769200972E+02  0.51100000000E-03 0.  1.
        -12    1    4    4    0    0  0.31314421359E+01 -0.77286402378E+01 -0.15751351572E+02  0.17822538711E+02  0.00000000000E+00 0.  1.
</event>
<event>
 8    1  0.2502398E-006  0.9118800E+02  0.7816164E-02  0.1184000E+00
        -11   -1    0    0    0    0  0.00000000000E+00  0.00000000000E+00  0.45593999997E+02  0.45594000000E+02  0.51100000000E-03 0.  1.
         11   -1    0    0    0    0 -0.00000000000E+00 -0.00000000000E+00 -0.45593999997E+02  0.45594000000E+02  0.51100000000E-03 0. -1.
         23    2    1    2    0    0  0.66613381478E-15 -0.17763568394E-14  0.00000000000E+00  0.91188000000E+02  0.91188000000E+02 0.  0.
    9900012    2    3    3    0    0 -0.16449698514E+01 -0.11291922288E+02  0.35008099531E+02  0.54367075683E+02  0.39999980634E+02 0.  0.
         12    1    3    3    0    0  0.16449698514E+01  0.11291922288E+02 -0.35008099531E+02  0.36820924317E+02  0.00000000000E+00 0. -1.
         11    1    4    4    0    0  0.55864251611E-01 -0.12855933533E+02  0.37064486025E+01  0.13379682706E+02  0.51100000000E-03 0. -1.
        -11    1    4    4    0    0 -0.86560800876E+01 -0.22867560973E+01  0.31785751009E+02  0.33022582325E+02  0.51100000000E-03 0.  1.
        -12    1    4    4    0    0  0.69552459846E+01  0.38507673424E+01 -0.48410008036E+00  0.79648106518E+01  0.00000000000E+00 0.  1.
</event>
<event>
 8    1  0.2502398E-006  0.9118800E+02  0.7816164E-02  0.1184000E+00
        -11   -1    0    0    0    0  0.00000000000E+00  0.00000000000E+00  0.45593999997E+02  0.45594000000E+02  0.51100000000E-03 0. -1.
         11   -1    0    0    0    0 -0.00000000000E+00 -0.00000000000E+00 -0.45593999997E+02  0.45594000000E+02  0.51100000000E-03 0.  1.
         23    2    1    2    0    0  0.35527136788E-14  0.35527136788E-14  0.00000000000E+00  0.91188000000E+02  0.91188000000E+02 0.  0.
    9900012    2    3    3    0    0  0.26861893835E+02  0.15757116560E+02  0.19645160425E+02  0.54367076725E+02  0.39999983010E+02 0.  0.
        -12    1    3    3    0    0 -0.26861893835E+02 -0.15757116560E+02 -0.19645160425E+02  0.36820923275E+02  0.00000000000E+00 0.  1.
         11    1    4    4    0    0  0.92090407248E+01  0.11951304625E+02  0.15181443908E+02  0.21403652789E+02  0.51100000000E-03 0.  1.
        -11    1    4    4    0    0  0.21139481570E+02 -0.45497937349E+01  0.82578233853E+01  0.23146704980E+02  0.51100000000E-03 0. -1.
         12    1    4    4    0    0 -0.34866284601E+01  0.83556056701E+01 -0.37941068687E+01  0.98167189562E+01  0.00000000000E+00 0. -1.
</event>
<event>
 8    1  0.2502398E-006  0.9118800E+02  0.7816164E-02  0.1184000E+00
        -11   -1    0    0    0    0  0.00000000000E+00  0.00000000000E+00  0.45593999997E+02  0.45594000000E+02  0.51100000000E-03 0. -1.
         11   -1    0    0    0    0 -0.00000000000E+00 -0.00000000000E+00 -0.45593999997E+02  0.45594000000E+02  0.51100000000E-03 0.  1.
         23    2    1    2    0    0  0.35527136788E-14 -0.35527136788E-14  0.71054273576E-14  0.91188000000E+02  0.91188000000E+02 0.  0.
    9900012    2    3    3    0    0 -0.19235825820E+02  0.16002650554E+02 -0.27012538074E+02  0.54367095165E+02  0.40000025047E+02 0.  0.
         12    1    3    3    0    0  0.19235825820E+02 -0.16002650554E+02  0.27012538074E+02  0.36820904835E+02  0.00000000000E+00 0. -1.
         11    1    4    4    0    0  0.93416385582E+00 -0.71691327420E+01 -0.28194638573E+01  0.77600581883E+01  0.51100000000E-03 0. -1.
        -11    1    4    4    0    0 -0.26885207804E+01 -0.54839987712E+01 -0.53097029418E+01  0.80929186392E+01  0.51100000000E-03 0.  1.
        -12    1    4    4    0    0 -0.17481468895E+02  0.28655782067E+02 -0.18883371275E+02  0.38514118337E+02  0.00000000000E+00 0.  1.
</event>
<event>
 8    1  0.2502398E-006  0.9118800E+02  0.7816164E-02  0.1184000E+00
        -11   -1    0    0    0    0  0.00000000000E+00  0.00000000000E+00  0.45593999997E+02  0.45594000000E+02  0.51100000000E-03 0. -1.
         11   -1    0    0    0    0 -0.00000000000E+00 -0.00000000000E+00 -0.45593999997E+02  0.45594000000E+02  0.51100000000E-03 0.  1.
         23    2    1    2    0    0  0.00000000000E+00  0.00000000000E+00 -0.35527136788E-14  0.91188000000E+02  0.91188000000E+02 0.  0.
    9900012    2    3    3    0    0  0.28943144875E+01  0.36003155853E+02  0.71540106583E+01  0.54367025594E+02  0.39999866446E+02 0.  0.
         12    1    3    3    0    0 -0.28943144875E+01 -0.36003155853E+02 -0.71540106583E+01  0.36820974406E+02  0.00000000000E+00 0. -1.
         11    1    4    4    0    0 -0.69803334031E+01  0.97506787242E+01  0.10715453820E+02  0.16081720705E+02  0.51100000000E-03 0. -1.
        -11    1    4    4    0    0  0.14310833616E+02  0.18766350474E+02 -0.11726023751E+02  0.26352903107E+02  0.51100000000E-03 0.  1.
        -12    1    4    4    0    0 -0.44361857258E+01  0.74861266551E+01  0.81645805892E+01  0.11932401782E+02  0.00000000000E+00 0.  1.
</event>
<event>
 8    1  0.2502398E-006  0.9118800E+02  0.7816164E-02  0.1184000E+00
        -11   -1    0    0    0    0  0.00000000000E+00  0.00000000000E+00  0.45593999997E+02  0.45594000000E+02  0.51100000000E-03 0. -1.
         11   -1    0    0    0    0 -0.00000000000E+00 -0.00000000000E+00 -0.45593999997E+02  0.45594000000E+02  0.51100000000E-03 0.  1.
         23    2    1    2    0    0  0.35527136788E-14  0.00000000000E+00  0.00000000000E+00  0.91188000000E+02  0.91188000000E+02 0.  0.
    9900012    2    3    3    0    0 -0.30584882975E+02 -0.26458947175E+01  0.20330870496E+02  0.54367080395E+02  0.39999991376E+02 0.  0.
        -12    1    3    3    0    0  0.30584882975E+02  0.26458947175E+01 -0.20330870496E+02  0.36820919605E+02  0.00000000000E+00 0.  1.
         11    1    4    4    0    0 -0.78066998307E+01  0.46815939059E+01  0.24746904807E+02  0.26367995403E+02  0.51100000000E-03 0. -1.
        -11    1    4    4    0    0 -0.56613131922E+01 -0.56736697201E+01 -0.69601842762E+01  0.10615326682E+02  0.51100000000E-03 0.  1.
         12    1    4    4    0    0 -0.17116869952E+02 -0.16538189033E+01  0.25441499645E+01  0.17383758310E+02  0.00000000000E+00 0. -1.
</event>
<event>
 8    1  0.2502398E-006  0.9118800E+02  0.7816164E-02  0.1184000E+00
        -11   -1    0    0    0    0  0.00000000000E+00  0.00000000000E+00  0.45593999997E+02  0.45594000000E+02  0.51100000000E-03 0. -1.
         11   -1    0    0    0    0 -0.00000000000E+00 -0.00000000000E+00 -0.45593999997E+02  0.45594000000E+02  0.51100000000E-03 0.  1.
         23    2    1    2    0    0  0.35527136788E-14  0.00000000000E+00  0.00000000000E+00  0.91188000000E+02  0.91188000000E+02 0.  0.
    9900012    2    3    3    0    0  0.27121559567E+02  0.60289307636E+01 -0.24163053689E+02  0.54367079818E+02  0.39999990061E+02 0.  0.
         12    1    3    3    0    0 -0.27121559567E+02 -0.60289307636E+01  0.24163053689E+02  0.36820920182E+02  0.00000000000E+00 0. -1.
         11    1    4    4    0    0  0.85944134330E+01  0.23751407777E+01  0.56848371035E+01  0.10574620992E+02  0.51100000000E-03 0. -1.
        -11    1    4    4    0    0 -0.46660889489E+01  0.12233697403E+01 -0.15908437453E+02  0.16623700011E+02  0.51100000000E-03 0.  1.
        -12    1    4    4    0    0  0.23193235082E+02  0.24304202456E+01 -0.13939453339E+02  0.27168758815E+02  0.00000000000E+00 0.  1.
</event>
<event>
 8    1  0.2502398E-006  0.9118800E+02  0.7816164E-02  0.1184000E+00
        -11   -1    0    0    0    0  0.00000000000E+00  0.00000000000E+00  0.45593999997E+02  0.45594000000E+02  0.51100000000E-03 0. -1.
         11   -1    0    0    0    0 -0.00000000000E+00 -0.00000000000E+00 -0.45593999997E+02  0.45594000000E+02  0.51100000000E-03 0.  1.
         23    2    1    2    0    0  0.35527136788E-14  0.00000000000E+00 -0.17763568394E-14  0.91188000000E+02  0.91188000000E+02 0.  0.
    9900012    2    3    3    0    0  0.24877550403E+02  0.26969580198E+02  0.30871364285E+01  0.54367065989E+02  0.39999958535E+02 0.  0.
        -12    1    3    3    0    0 -0.24877550403E+02 -0.26969580198E+02 -0.30871364285E+01  0.36820934011E+02  0.00000000000E+00 0.  1.
         11    1    4    4    0    0  0.26494004566E+02  0.19465558708E+02  0.85668193630E+01  0.33973970153E+02  0.51100000000E-03 0. -1.
        -11    1    4    4    0    0 -0.69013550831E+01  0.42651271333E+01  0.40166836894E+01  0.90528315774E+01  0.51100000000E-03 0.  1.
         12    1    4    4    0    0  0.52849009204E+01  0.32388943571E+01 -0.94963666239E+01  0.11340264258E+02  0.00000000000E+00 0. -1.
</event>
<event>
 8    1  0.2502398E-006  0.9118800E+02  0.7816164E-02  0.1184000E+00
        -11   -1    0    0    0    0  0.00000000000E+00  0.00000000000E+00  0.45593999997E+02  0.45594000000E+02  0.51100000000E-03 0.  1.
         11   -1    0    0    0    0 -0.00000000000E+00 -0.00000000000E+00 -0.45593999997E+02  0.45594000000E+02  0.51100000000E-03 0. -1.
         23    2    1    2    0    0  0.00000000000E+00  0.00000000000E+00  0.88817841970E-15  0.91188000000E+02  0.91188000000E+02 0.  0.
    9900012    2    3    3    0    0 -0.30309484072E+02 -0.19572755434E+02  0.73499604083E+01  0.54367088849E+02  0.40000010649E+02 0.  0.
         12    1    3    3    0    0  0.30309484072E+02  0.19572755434E+02 -0.73499604083E+01  0.36820911151E+02  0.00000000000E+00 0. -1.
         11    1    4    4    0    0 -0.10189054266E+02 -0.11463310421E+02  0.87809639039E+00  0.15362140677E+02  0.51100000000E-03 0.  1.
        -11    1    4    4    0    0 -0.10655611626E+02 -0.19393239961E+02 -0.16444807459E+01  0.22188829003E+02  0.51100000000E-03 0. -1.
         12    1    4    4    0    0 -0.94648181799E+01  0.11283794948E+02  0.81163447639E+01  0.16816119170E+02  0.00000000000E+00 0. -1.
</event>
<event>
 8    1  0.2502398E-006  0.9118800E+02  0.7816164E-02  0.1184000E+00
        -11   -1    0    0    0    0  0.00000000000E+00  0.00000000000E+00  0.45593999997E+02  0.45594000000E+02  0.51100000000E-03 0. -1.
         11   -1    0    0    0    0 -0.00000000000E+00 -0.00000000000E+00 -0.45593999997E+02  0.45594000000E+02  0.51100000000E-03 0.  1.
         23    2    1    2    0    0 -0.35527136788E-14  0.00000000000E+00  0.17763568394E-14  0.91188000000E+02  0.91188000000E+02 0.  0.
    9900012    2    3    3    0    0 -0.28595882428E+02  0.22619089068E+02  0.51413154196E+01  0.54367071082E+02  0.39999970145E+02 0.  0.
         12    1    3    3    0    0  0.28595882428E+02 -0.22619089068E+02 -0.51413154196E+01  0.36820928918E+02  0.00000000000E+00 0. -1.
         11    1    4    4    0    0 -0.59610384611E+01  0.10774625323E+02  0.11537473932E+02  0.16874235845E+02  0.51100000000E-03 0. -1.
        -11    1    4    4    0    0 -0.16966018054E+02  0.15675531275E+02  0.55223801248E+01  0.23750046986E+02  0.51100000000E-03 0.  1.
        -12    1    4    4    0    0 -0.56688259132E+01 -0.38310675288E+01 -0.11918538637E+02  0.13742788250E+02  0.00000000000E+00 0.  1.
</event>
<event>
 8    1  0.2502398E-006  0.9118800E+02  0.7816164E-02  0.1184000E+00
        -11   -1    0    0    0    0  0.00000000000E+00  0.00000000000E+00  0.45593999997E+02  0.45594000000E+02  0.51100000000E-03 0.  1.
         11   -1    0    0    0    0 -0.00000000000E+00 -0.00000000000E+00 -0.45593999997E+02  0.45594000000E+02  0.51100000000E-03 0. -1.
         23    2    1    2    0    0  0.17763568394E-14 -0.71054273576E-14 -0.35527136788E-14  0.91188000000E+02  0.91188000000E+02 0.  0.
    9900012    2    3    3    0    0  0.84764753606E+01 -0.21816369135E+02 -0.28424898612E+02  0.54367089394E+02  0.40000011892E+02 0.  0.
         12    1    3    3    0    0 -0.84764753606E+01  0.21816369135E+02  0.28424898612E+02  0.36820910606E+02  0.00000000000E+00 0. -1.
         11    1    4    4    0    0  0.27434378451E+01  0.51463436727E+01 -0.99080954341E+01  0.11497028303E+02  0.51100000000E-03 0. -1.
        -11    1    4    4    0    0  0.13125790554E+02 -0.33868798080E+01 -0.36660825501E+01  0.14042702519E+02  0.51100000000E-03 0.  1.
         12    1    4    4    0    0 -0.73927530387E+01 -0.23575832999E+02 -0.14850720628E+02  0.28827358572E+02  0.00000000000E+00 0. -1.
</event>
<event>
 8    1  0.2502398E-006  0.9118800E+02  0.7816164E-02  0.1184000E+00
        -11   -1    0    0    0    0  0.00000000000E+00  0.00000000000E+00  0.45593999997E+02  0.45594000000E+02  0.51100000000E-03 0.  1.
         11   -1    0    0    0    0 -0.00000000000E+00 -0.00000000000E+00 -0.45593999997E+02  0.45594000000E+02  0.51100000000E-03 0. -1.
         23    2    1    2    0    0  0.00000000000E+00 -0.35527136788E-14 -0.17763568394E-14  0.91188000000E+02  0.91188000000E+02 0.  0.
    9900012    2    3    3    0    0  0.23774748693E+02 -0.26242926881E+02  0.10092020886E+02  0.54367098704E+02  0.40000033115E+02 0.  0.
         12    1    3    3    0    0 -0.23774748693E+02  0.26242926881E+02 -0.10092020886E+02  0.36820901296E+02  0.00000000000E+00 0. -1.
         11    1    4    4    0    0 -0.13989882804E+01  0.19896488169E+01  0.13145404710E+01  0.27647581330E+01  0.51100000000E-03 0. -1.
        -11    1    4    4    0    0  0.11243450921E+02 -0.14368887549E+02  0.21494168461E+02  0.28193605589E+02  0.51100000000E-03 0.  1.
        -12    1    4    4    0    0  0.13930286052E+02 -0.13863688149E+02 -0.12716688046E+02  0.23408734982E+02  0.00000000000E+00 0.  1.
</event>
<event>
 8    1  0.2502398E-006  0.9118800E+02  0.7816164E-02  0.1184000E+00
        -11   -1    0    0    0    0  0.00000000000E+00  0.00000000000E+00  0.45593999997E+02  0.45594000000E+02  0.51100000000E-03 0.  1.
         11   -1    0    0    0    0 -0.00000000000E+00 -0.00000000000E+00 -0.45593999997E+02  0.45594000000E+02  0.51100000000E-03 0. -1.
         23    2    1    2    0    0  0.00000000000E+00 -0.17763568394E-14  0.00000000000E+00  0.91188000000E+02  0.91188000000E+02 0.  0.
    9900012    2    3    3    0    0 -0.27646780198E+01 -0.11714349136E+02  0.34798242227E+02  0.54366985859E+02  0.39999775863E+02 0.  0.
         12    1    3    3    0    0  0.27646780198E+01  0.11714349136E+02 -0.34798242227E+02  0.36821014141E+02  0.00000000000E+00 0. -1.
         11    1    4    4    0    0  0.45142789096E+01 -0.55014541295E+01 -0.41529517572E+01  0.82396432065E+01  0.51100000000E-03 0. -1.
        -11    1    4    4    0    0 -0.72933062768E+01 -0.11260128979E+02  0.99824835274E+01  0.16722224694E+02  0.51100000000E-03 0.  1.
         12    1    4    4    0    0  0.14349347394E-01  0.50472339717E+01  0.28968710457E+02  0.29405117959E+02  0.00000000000E+00 0. -1.
</event>
<event>
 8    1  0.2502398E-006  0.9118800E+02  0.7816164E-02  0.1184000E+00
        -11   -1    0    0    0    0  0.00000000000E+00  0.00000000000E+00  0.45593999997E+02  0.45594000000E+02  0.51100000000E-03 0.  1.
         11   -1    0    0    0    0 -0.00000000000E+00 -0.00000000000E+00 -0.45593999997E+02  0.45594000000E+02  0.51100000000E-03 0. -1.
         23    2    1    2    0    0  0.00000000000E+00  0.00000000000E+00  0.00000000000E+00  0.91188000000E+02  0.91188000000E+02 0.  0.
    9900012    2    3    3    0    0  0.26136735615E+02 -0.18278534182E+02  0.18399572950E+02  0.54367108577E+02  0.40000055622E+02 0.  0.
         12    1    3    3    0    0 -0.26136735615E+02  0.18278534182E+02 -0.18399572950E+02  0.36820891423E+02  0.00000000000E+00 0. -1.
         11    1    4    4    0    0  0.12356477964E+02 -0.22917187235E+02  0.25637031023E+02  0.36539531721E+02  0.51100000000E-03 0.  1.
        -11    1    4    4    0    0 -0.80242532400E+00 -0.23415181749E+00 -0.43302874482E-02  0.83590219927E+00  0.51100000000E-03 0. -1.
         12    1    4    4    0    0  0.14582682975E+02  0.48728048708E+01 -0.72331277859E+01  0.16991674656E+02  0.00000000000E+00 0. -1.
</event>
<event>
 8    1  0.2502398E-006  0.9118800E+02  0.7816164E-02  0.1184000E+00
        -11   -1    0    0    0    0  0.00000000000E+00  0.00000000000E+00  0.45593999997E+02  0.45594000000E+02  0.51100000000E-03 0.  1.
         11   -1    0    0    0    0 -0.00000000000E+00 -0.00000000000E+00 -0.45593999997E+02  0.45594000000E+02  0.51100000000E-03 0. -1.
         23    2    1    2    0    0 -0.88817841970E-15  0.00000000000E+00  0.00000000000E+00  0.91188000000E+02  0.91188000000E+02 0.  0.
    9900012    2    3    3    0    0  0.36020623559E+01 -0.74522316550E+01 -0.35878610097E+02  0.54367010437E+02  0.39999831894E+02 0.  0.
        -12    1    3    3    0    0 -0.36020623559E+01  0.74522316550E+01  0.35878610097E+02  0.36820989563E+02  0.00000000000E+00 0.  1.
         11    1    4    4    0    0  0.73120239896E+01 -0.11392238508E+02 -0.21669584624E+02  0.25550336418E+02  0.51100000000E-03 0. -1.
        -11    1    4    4    0    0  0.59916598192E+01  0.35970076535E+01  0.40934462626E+01  0.80990588351E+01  0.51100000000E-03 0.  1.
         12    1    4    4    0    0 -0.97016214528E+01  0.34299919971E+00 -0.18302471736E+02  0.20717615184E+02  0.00000000000E+00 0. -1.
</event>
<event>
 8    1  0.2502398E-006  0.9118800E+02  0.7816164E-02  0.1184000E+00
        -11   -1    0    0    0    0  0.00000000000E+00  0.00000000000E+00  0.45593999997E+02  0.45594000000E+02  0.51100000000E-03 0.  1.
         11   -1    0    0    0    0 -0.00000000000E+00 -0.00000000000E+00 -0.45593999997E+02  0.45594000000E+02  0.51100000000E-03 0. -1.
         23    2    1    2    0    0  0.35527136788E-14 -0.35527136788E-14 -0.88817841970E-15  0.91188000000E+02  0.91188000000E+02 0.  0.
    9900012    2    3    3    0    0 -0.31954174956E+02  0.17050883278E+02  0.66315731445E+01  0.54367086377E+02  0.40000005014E+02 0.  0.
         12    1    3    3    0    0  0.31954174956E+02 -0.17050883278E+02 -0.66315731445E+01  0.36820913623E+02  0.00000000000E+00 0. -1.
         11    1    4    4    0    0 -0.13387754749E+02 -0.45347978615E+01  0.50664418192E+01  0.15015498720E+02  0.51100000000E-03 0. -1.
        -11    1    4    4    0    0 -0.23113158155E+02  0.75212782373E+01 -0.11051940903E+01  0.24331238367E+02  0.51100000000E-03 0.  1.
         12    1    4    4    0    0  0.45467379479E+01  0.14064402902E+02  0.26703254155E+01  0.15020349290E+02  0.00000000000E+00 0. -1.
</event>
<event>
 8    1  0.2502398E-006  0.9118800E+02  0.7816164E-02  0.1184000E+00
        -11   -1    0    0    0    0  0.00000000000E+00  0.00000000000E+00  0.45593999997E+02  0.45594000000E+02  0.51100000000E-03 0. -1.
         11   -1    0    0    0    0 -0.00000000000E+00 -0.00000000000E+00 -0.45593999997E+02  0.45594000000E+02  0.51100000000E-03 0.  1.
         23    2    1    2    0    0  0.00000000000E+00  0.17763568394E-14 -0.35527136788E-14  0.91188000000E+02  0.91188000000E+02 0.  0.
    9900012    2    3    3    0    0  0.23483268005E+02  0.70516975624E+01 -0.27469791764E+02  0.54367085097E+02  0.40000002096E+02 0.  0.
        -12    1    3    3    0    0 -0.23483268005E+02 -0.70516975624E+01  0.27469791764E+02  0.36820914903E+02  0.00000000000E+00 0.  1.
         11    1    4    4    0    0  0.63790597216E+00 -0.16743285619E+01 -0.11516578027E+01  0.21299333601E+01  0.51100000000E-03 0. -1.
        -11    1    4    4    0    0  0.16492882012E+02  0.22151480707E+02 -0.81988181882E+01  0.28808399375E+02  0.51100000000E-03 0.  1.
        -12    1    4    4    0    0  0.63524800208E+01 -0.13425454583E+02 -0.18119315773E+02  0.23428752362E+02  0.00000000000E+00 0.  1.
</event>
<event>
 8    1  0.2502398E-006  0.9118800E+02  0.7816164E-02  0.1184000E+00
        -11   -1    0    0    0    0  0.00000000000E+00  0.00000000000E+00  0.45593999997E+02  0.45594000000E+02  0.51100000000E-03 0. -1.
         11   -1    0    0    0    0 -0.00000000000E+00 -0.00000000000E+00 -0.45593999997E+02  0.45594000000E+02  0.51100000000E-03 0.  1.
         23    2    1    2    0    0 -0.88817841970E-15 -0.71054273576E-14  0.00000000000E+00  0.91188000000E+02  0.91188000000E+02 0.  0.
    9900012    2    3    3    0    0  0.72472538252E+01 -0.36040266447E+02  0.20869345037E+01  0.54367098473E+02  0.40000032590E+02 0.  0.
        -12    1    3    3    0    0 -0.72472538252E+01  0.36040266447E+02 -0.20869345037E+01  0.36820901527E+02  0.00000000000E+00 0.  1.
         11    1    4    4    0    0 -0.29339844525E+00  0.50797501293E+01 -0.26015749499E+00  0.50948627270E+01  0.51100000000E-03 0. -1.
        -11    1    4    4    0    0 -0.38681765204E+01  0.92038927094E+00  0.40531974628E+01  0.56778795282E+01  0.51100000000E-03 0.  1.
         12    1    4    4    0    0  0.11408828791E+02 -0.42040405848E+02 -0.17061054640E+01  0.43594356218E+02  0.00000000000E+00 0. -1.
</event>
<event>
 8    1  0.2502398E-006  0.9118800E+02  0.7816164E-02  0.1184000E+00
        -11   -1    0    0    0    0  0.00000000000E+00  0.00000000000E+00  0.45593999997E+02  0.45594000000E+02  0.51100000000E-03 0. -1.
         11   -1    0    0    0    0 -0.00000000000E+00 -0.00000000000E+00 -0.45593999997E+02  0.45594000000E+02  0.51100000000E-03 0.  1.
         23    2    1    2    0    0 -0.35527136788E-14  0.00000000000E+00  0.88817841970E-15  0.91188000000E+02  0.91188000000E+02 0.  0.
    9900012    2    3    3    0    0  0.28583918262E+02  0.22965037485E+02 -0.33684413175E+01  0.54367085742E+02  0.40000003566E+02 0.  0.
         12    1    3    3    0    0 -0.28583918262E+02 -0.22965037485E+02  0.33684413175E+01  0.36820914258E+02  0.00000000000E+00 0. -1.
         11    1    4    4    0    0  0.35266570511E+01  0.22255088362E+02 -0.70679300518E+01  0.23615289611E+02  0.51100000000E-03 0. -1.
        -11    1    4    4    0    0 -0.10828445100E+01 -0.28602729207E+01 -0.21371484754E+01  0.37311013496E+01  0.51100000000E-03 0.  1.
        -12    1    4    4    0    0  0.26140105721E+02  0.35702220437E+01  0.58366372097E+01  0.27020694781E+02  0.00000000000E+00 0.  1.
</event>
<event>
 8    1  0.2502398E-006  0.9118800E+02  0.7816164E-02  0.1184000E+00
        -11   -1    0    0    0    0  0.00000000000E+00  0.00000000000E+00  0.45593999997E+02  0.45594000000E+02  0.51100000000E-03 0.  1.
         11   -1    0    0    0    0 -0.00000000000E+00 -0.00000000000E+00 -0.45593999997E+02  0.45594000000E+02  0.51100000000E-03 0. -1.
         23    2    1    2    0    0 -0.35527136788E-14  0.00000000000E+00  0.00000000000E+00  0.91188000000E+02  0.91188000000E+02 0.  0.
    9900012    2    3    3    0    0 -0.21576879736E+02  0.29322354944E+02  0.55151919722E+01  0.54367087720E+02  0.40000008075E+02 0.  0.
         12    1    3    3    0    0  0.21576879736E+02 -0.29322354944E+02 -0.55151919722E+01  0.36820912280E+02  0.00000000000E+00 0. -1.
         11    1    4    4    0    0  0.89751794768E+01  0.62864433553E+01  0.67761176379E+01  0.12883671340E+02  0.51100000000E-03 0. -1.
        -11    1    4    4    0    0 -0.14189262413E+02  0.20298369563E+02  0.71188890705E+00  0.24776314513E+02  0.51100000000E-03 0.  1.
        -12    1    4    4    0    0 -0.16362796800E+02  0.27375420256E+01 -0.19728145728E+01  0.16707101867E+02  0.00000000000E+00 0.  1.
</event>
<event>
 8    1  0.2502398E-006  0.9118800E+02  0.7816164E-02  0.1184000E+00
        -11   -1    0    0    0    0  0.00000000000E+00  0.00000000000E+00  0.45593999997E+02  0.45594000000E+02  0.51100000000E-03 0. -1.
         11   -1    0    0    0    0 -0.00000000000E+00 -0.00000000000E+00 -0.45593999997E+02  0.45594000000E+02  0.51100000000E-03 0.  1.
         23    2    1    2    0    0 -0.35527136788E-14  0.35527136788E-14 -0.17763568394E-14  0.91188000000E+02  0.91188000000E+02 0.  0.
    9900012    2    3    3    0    0  0.20929268614E+02 -0.27567139499E+02 -0.12561765874E+02  0.54367089816E+02  0.40000012854E+02 0.  0.
        -12    1    3    3    0    0 -0.20929268614E+02  0.27567139499E+02  0.12561765874E+02  0.36820910184E+02  0.00000000000E+00 0.  1.
         11    1    4    4    0    0  0.28590629808E+01 -0.10443210651E+01  0.53397012365E+01  0.61463206206E+01  0.51100000000E-03 0. -1.
        -11    1    4    4    0    0  0.33000665889E+01 -0.12986464538E+02 -0.23820075425E+02  0.27330106004E+02  0.51100000000E-03 0.  1.
        -12    1    4    4    0    0  0.14770139045E+02 -0.13536353896E+02  0.59186083147E+01  0.20890663192E+02  0.00000000000E+00 0.  1.
</event>
<event>
 8    1  0.2502398E-006  0.9118800E+02  0.7816164E-02  0.1184000E+00
        -11   -1    0    0    0    0  0.00000000000E+00  0.00000000000E+00  0.45593999997E+02  0.45594000000E+02  0.51100000000E-03 0. -1.
         11   -1    0    0    0    0 -0.00000000000E+00 -0.00000000000E+00 -0.45593999997E+02  0.45594000000E+02  0.51100000000E-03 0.  1.
         23    2    1    2    0    0  0.00000000000E+00  0.00000000000E+00  0.00000000000E+00  0.91188000000E+02  0.91188000000E+02 0.  0.
    9900012    2    3    3    0    0  0.31707005700E+02 -0.15231664597E+02  0.10883137497E+02  0.54367075261E+02  0.39999979672E+02 0.  0.
        -12    1    3    3    0    0 -0.31707005700E+02  0.15231664597E+02 -0.10883137497E+02  0.36820924739E+02  0.00000000000E+00 0.  1.
         11    1    4    4    0    0  0.31534166311E+02 -0.17345438644E+02  0.11727638388E+02  0.37852415895E+02  0.51100000000E-03 0. -1.
        -11    1    4    4    0    0 -0.45491476813E+01 -0.31341254605E+01 -0.57068211701E+01  0.79426252056E+01  0.51100000000E-03 0.  1.
         12    1    4    4    0    0  0.47219870709E+01  0.52478995080E+01  0.48623202792E+01  0.85720341601E+01  0.00000000000E+00 0. -1.
</event>
<event>
 8    1  0.2502398E-006  0.9118800E+02  0.7816164E-02  0.1184000E+00
        -11   -1    0    0    0    0  0.00000000000E+00  0.00000000000E+00  0.45593999997E+02  0.45594000000E+02  0.51100000000E-03 0.  1.
         11   -1    0    0    0    0 -0.00000000000E+00 -0.00000000000E+00 -0.45593999997E+02  0.45594000000E+02  0.51100000000E-03 0. -1.
         23    2    1    2    0    0  0.17763568394E-14  0.00000000000E+00  0.00000000000E+00  0.91188000000E+02  0.91188000000E+02 0.  0.
    9900012    2    3    3    0    0 -0.88556261714E+01 -0.22668079400E+02 -0.27631802685E+02  0.54367075810E+02  0.39999980925E+02 0.  0.
        -12    1    3    3    0    0  0.88556261714E+01  0.22668079400E+02  0.27631802685E+02  0.36820924190E+02  0.00000000000E+00 0.  1.
         11    1    4    4    0    0  0.64883454664E+01 -0.17147433335E+02 -0.25723662027E+02  0.31588603723E+02  0.51100000000E-03 0. -1.
        -11    1    4    4    0    0 -0.15287444934E+01 -0.81495502332E+01  0.11941028900E+01  0.83772376534E+01  0.51100000000E-03 0.  1.
         12    1    4    4    0    0 -0.13815227144E+02  0.26289041680E+01 -0.31022435480E+01  0.14401234433E+02  0.00000000000E+00 0. -1.
</event>
<event>
 8    1  0.2502398E-006  0.9118800E+02  0.7816164E-02  0.1184000E+00
        -11   -1    0    0    0    0  0.00000000000E+00  0.00000000000E+00  0.45593999997E+02  0.45594000000E+02  0.51100000000E-03 0. -1.
         11   -1    0    0    0    0 -0.00000000000E+00 -0.00000000000E+00 -0.45593999997E+02  0.45594000000E+02  0.51100000000E-03 0.  1.
         23    2    1    2    0    0  0.00000000000E+00  0.35527136788E-14  0.00000000000E+00  0.91188000000E+02  0.91188000000E+02 0.  0.
    9900012    2    3    3    0    0  0.45931930969E+01 -0.28014362980E+02  0.23449461687E+02  0.54367092768E+02  0.40000019582E+02 0.  0.
        -12    1    3    3    0    0 -0.45931930969E+01  0.28014362980E+02 -0.23449461687E+02  0.36820907232E+02  0.00000000000E+00 0.  1.
         11    1    4    4    0    0  0.35406492071E+01 -0.11923170105E+02  0.10644832980E+02  0.16371030866E+02  0.51100000000E-03 0. -1.
        -11    1    4    4    0    0 -0.12462664657E+02 -0.21484380032E+01  0.13587573406E+02  0.18562218282E+02  0.51100000000E-03 0.  1.
         12    1    4    4    0    0  0.13515208546E+02 -0.13942754872E+02 -0.78294469942E+00  0.19433843620E+02  0.00000000000E+00 0. -1.
</event>
<event>
 8    1  0.2502398E-006  0.9118800E+02  0.7816164E-02  0.1184000E+00
        -11   -1    0    0    0    0  0.00000000000E+00  0.00000000000E+00  0.45593999997E+02  0.45594000000E+02  0.51100000000E-03 0. -1.
         11   -1    0    0    0    0 -0.00000000000E+00 -0.00000000000E+00 -0.45593999997E+02  0.45594000000E+02  0.51100000000E-03 0.  1.
         23    2    1    2    0    0 -0.35527136788E-14  0.35527136788E-14 -0.35527136788E-14  0.91188000000E+02  0.91188000000E+02 0.  0.
    9900012    2    3    3    0    0 -0.27204374174E+02  0.16835940774E+02  0.18227809540E+02  0.54367083165E+02  0.39999997690E+02 0.  0.
        -12    1    3    3    0    0  0.27204374174E+02 -0.16835940774E+02 -0.18227809540E+02  0.36820916835E+02  0.00000000000E+00 0.  1.
         11    1    4    4    0    0 -0.10752745659E+02  0.58117261817E+01 -0.49102269654E+01  0.13172244666E+02  0.51100000000E-03 0. -1.
        -11    1    4    4    0    0 -0.76123451105E+01  0.10867558181E+02  0.28086912062E+02  0.31063262037E+02  0.51100000000E-03 0.  1.
        -12    1    4    4    0    0 -0.88392834042E+01  0.15665641151E+00 -0.49488755566E+01  0.10131576462E+02  0.00000000000E+00 0.  1.
</event>
<event>
 8    1  0.2502398E-006  0.9118800E+02  0.7816164E-02  0.1184000E+00
        -11   -1    0    0    0    0  0.00000000000E+00  0.00000000000E+00  0.45593999997E+02  0.45594000000E+02  0.51100000000E-03 0.  1.
         11   -1    0    0    0    0 -0.00000000000E+00 -0.00000000000E+00 -0.45593999997E+02  0.45594000000E+02  0.51100000000E-03 0. -1.
         23    2    1    2    0    0 -0.35527136788E-14 -0.88817841970E-15 -0.35527136788E-14  0.91188000000E+02  0.91188000000E+02 0.  0.
    9900012    2    3    3    0    0  0.26939393530E+02  0.74315471244E+01  0.23975428034E+02  0.54367082496E+02  0.39999996166E+02 0.  0.
         12    1    3    3    0    0 -0.26939393530E+02 -0.74315471244E+01 -0.23975428034E+02  0.36820917504E+02  0.00000000000E+00 0. -1.
         11    1    4    4    0    0  0.14176713603E+02 -0.12699198754E+01 -0.21697466483E+01  0.14397906301E+02  0.51100000000E-03 0. -1.
        -11    1    4    4    0    0  0.10753209831E+02 -0.79900978389E+01  0.10822413177E+02  0.17222015340E+02  0.51100000000E-03 0.  1.
         12    1    4    4    0    0  0.20094700963E+01  0.16691564839E+02  0.15322761505E+02  0.22747160855E+02  0.00000000000E+00 0. -1.
</event>
<event>
 8    1  0.2502398E-006  0.9118800E+02  0.7816164E-02  0.1184000E+00
        -11   -1    0    0    0    0  0.00000000000E+00  0.00000000000E+00  0.45593999997E+02  0.45594000000E+02  0.51100000000E-03 0.  1.
         11   -1    0    0    0    0 -0.00000000000E+00 -0.00000000000E+00 -0.45593999997E+02  0.45594000000E+02  0.51100000000E-03 0. -1.
         23    2    1    2    0    0  0.71054273576E-14  0.44408920985E-15  0.17763568394E-14  0.91188000000E+02  0.91188000000E+02 0.  0.
    9900012    2    3    3    0    0  0.34786302492E+02 -0.28556982047E+01 -0.11727651608E+02  0.54367086574E+02  0.40000005463E+02 0.  0.
         12    1    3    3    0    0 -0.34786302492E+02  0.28556982047E+01  0.11727651608E+02  0.36820913426E+02  0.00000000000E+00 0. -1.
         11    1    4    4    0    0  0.30703881318E+01 -0.10297522027E+02 -0.54823536344E+00  0.10759498383E+02  0.51100000000E-03 0. -1.
        -11    1    4    4    0    0  0.24518659666E+01  0.83650245022E+01 -0.11371733366E+02  0.14328349578E+02  0.51100000000E-03 0.  1.
        -12    1    4    4    0    0  0.29264048394E+02 -0.92320068025E+00  0.19231712143E+00  0.29279238613E+02  0.00000000000E+00 0.  1.
</event>
<event>
 8    1  0.2502398E-006  0.9118800E+02  0.7816164E-02  0.1184000E+00
        -11   -1    0    0    0    0  0.00000000000E+00  0.00000000000E+00  0.45593999997E+02  0.45594000000E+02  0.51100000000E-03 0.  1.
         11   -1    0    0    0    0 -0.00000000000E+00 -0.00000000000E+00 -0.45593999997E+02  0.45594000000E+02  0.51100000000E-03 0. -1.
         23    2    1    2    0    0 -0.17763568394E-14  0.17763568394E-14  0.00000000000E+00  0.91188000000E+02  0.91188000000E+02 0.  0.
    9900012    2    3    3    0    0  0.47873742180E+01 -0.60060741248E+01 -0.36010951100E+02  0.54367075549E+02  0.39999980329E+02 0.  0.
        -12    1    3    3    0    0 -0.47873742180E+01  0.60060741248E+01  0.36010951100E+02  0.36820924451E+02  0.00000000000E+00 0.  1.
         11    1    4    4    0    0 -0.94821105067E+01  0.27826768917E+01 -0.70182943308E+01  0.12120650392E+02  0.51100000000E-03 0. -1.
        -11    1    4    4    0    0  0.94066769870E+01  0.69930444063E+01 -0.41872114107E+01  0.12446725741E+02  0.51100000000E-03 0.  1.
         12    1    4    4    0    0  0.48628077376E+01 -0.15781795423E+02 -0.24805445359E+02  0.29799699416E+02  0.00000000000E+00 0. -1.
</event>
<event>
 8    1  0.2502398E-006  0.9118800E+02  0.7816164E-02  0.1184000E+00
        -11   -1    0    0    0    0  0.00000000000E+00  0.00000000000E+00  0.45593999997E+02  0.45594000000E+02  0.51100000000E-03 0. -1.
         11   -1    0    0    0    0 -0.00000000000E+00 -0.00000000000E+00 -0.45593999997E+02  0.45594000000E+02  0.51100000000E-03 0.  1.
         23    2    1    2    0    0 -0.31086244690E-14  0.00000000000E+00  0.35527136788E-14  0.91188000000E+02  0.91188000000E+02 0.  0.
    9900012    2    3    3    0    0  0.16205447443E+01  0.24412009038E+02  0.27517415109E+02  0.54367075449E+02  0.39999980102E+02 0.  0.
        -12    1    3    3    0    0 -0.16205447443E+01 -0.24412009038E+02 -0.27517415109E+02  0.36820924551E+02  0.00000000000E+00 0.  1.
         11    1    4    4    0    0 -0.10572595294E+02  0.22893266023E+02  0.17712449983E+02  0.30815779807E+02  0.51100000000E-03 0. -1.
        -11    1    4    4    0    0  0.97883686106E+01  0.89018655618E+01  0.83667977796E+01  0.15654350063E+02  0.51100000000E-03 0.  1.
        -12    1    4    4    0    0  0.24047714274E+01 -0.73831225476E+01  0.14381673464E+01  0.78969455796E+01  0.00000000000E+00 0.  1.
</event>
<event>
 8    1  0.2502398E-006  0.9118800E+02  0.7816164E-02  0.1184000E+00
        -11   -1    0    0    0    0  0.00000000000E+00  0.00000000000E+00  0.45593999997E+02  0.45594000000E+02  0.51100000000E-03 0.  1.
         11   -1    0    0    0    0 -0.00000000000E+00 -0.00000000000E+00 -0.45593999997E+02  0.45594000000E+02  0.51100000000E-03 0. -1.
         23    2    1    2    0    0  0.35527136788E-14  0.35527136788E-14  0.00000000000E+00  0.91188000000E+02  0.91188000000E+02 0.  0.
    9900012    2    3    3    0    0  0.26300979782E+02  0.25563239965E+02  0.32486953218E+01  0.54367152695E+02  0.40000156197E+02 0.  0.
        -12    1    3    3    0    0 -0.26300979782E+02 -0.25563239965E+02 -0.32486953218E+01  0.36820847305E+02  0.00000000000E+00 0.  1.
         11    1    4    4    0    0  0.10366144625E+02  0.19530743966E+02  0.15462391700E+01  0.22165237876E+02  0.51100000000E-03 0. -1.
        -11    1    4    4    0    0  0.14896519307E+02 -0.87499447649E+01  0.19109515124E+01  0.17381586717E+02  0.51100000000E-03 0.  1.
        -12    1    4    4    0    0  0.10383158501E+01  0.14782440764E+02 -0.20849536061E+00  0.14820328102E+02  0.00000000000E+00 0.  1.
</event>
<event>
 8    1  0.2502398E-006  0.9118800E+02  0.7816164E-02  0.1184000E+00
        -11   -1    0    0    0    0  0.00000000000E+00  0.00000000000E+00  0.45593999997E+02  0.45594000000E+02  0.51100000000E-03 0.  1.
         11   -1    0    0    0    0 -0.00000000000E+00 -0.00000000000E+00 -0.45593999997E+02  0.45594000000E+02  0.51100000000E-03 0. -1.
         23    2    1    2    0    0  0.00000000000E+00 -0.77715611724E-15  0.00000000000E+00  0.91188000000E+02  0.91188000000E+02 0.  0.
    9900012    2    3    3    0    0  0.34782231327E+02 -0.58341585534E+00  0.12067966719E+02  0.54367084601E+02  0.40000000964E+02 0.  0.
         12    1    3    3    0    0 -0.34782231327E+02  0.58341585534E+00 -0.12067966719E+02  0.36820915399E+02  0.00000000000E+00 0. -1.
         11    1    4    4    0    0  0.11803632330E+02  0.10281303330E+02  0.18456690561E+02  0.24200833892E+02  0.51100000000E-03 0.  1.
        -11    1    4    4    0    0  0.55640658039E+01  0.20148283941E+01 -0.61081696857E+01  0.85045928120E+01  0.51100000000E-03 0. -1.
        -12    1    4    4    0    0  0.17414533193E+02 -0.12879547580E+02 -0.28055415653E+00  0.21661657896E+02  0.00000000000E+00 0.  1.
</event>
<event>
 8    1  0.2502398E-006  0.9118800E+02  0.7816164E-02  0.1184000E+00
        -11   -1    0    0    0    0  0.00000000000E+00  0.00000000000E+00  0.45593999997E+02  0.45594000000E+02  0.51100000000E-03 0.  1.
         11   -1    0    0    0    0 -0.00000000000E+00 -0.00000000000E+00 -0.45593999997E+02  0.45594000000E+02  0.51100000000E-03 0. -1.
         23    2    1    2    0    0  0.00000000000E+00  0.00000000000E+00 -0.88817841970E-15  0.91188000000E+02  0.91188000000E+02 0.  0.
    9900012    2    3    3    0    0 -0.28181525160E+02  0.23025647134E+02  0.56041914924E+01  0.54367003971E+02  0.39999817152E+02 0.  0.
         12    1    3    3    0    0  0.28181525160E+02 -0.23025647134E+02 -0.56041914924E+01  0.36820996029E+02  0.00000000000E+00 0. -1.
         11    1    4    4    0    0 -0.80642105955E+01  0.13248895730E+02  0.70553704279E+01  0.17039453710E+02  0.51100000000E-03 0.  1.
        -11    1    4    4    0    0 -0.10838250295E+02  0.27935642077E+01 -0.15488367452E+02  0.19109191428E+02  0.51100000000E-03 0. -1.
        -12    1    4    4    0    0 -0.92790642696E+01  0.69831871955E+01  0.14037188516E+02  0.18218358833E+02  0.00000000000E+00 0.  1.
</event>
<event>
 8    1  0.2502398E-006  0.9118800E+02  0.7816164E-02  0.1184000E+00
        -11   -1    0    0    0    0  0.00000000000E+00  0.00000000000E+00  0.45593999997E+02  0.45594000000E+02  0.51100000000E-03 0.  1.
         11   -1    0    0    0    0 -0.00000000000E+00 -0.00000000000E+00 -0.45593999997E+02  0.45594000000E+02  0.51100000000E-03 0. -1.
         23    2    1    2    0    0  0.00000000000E+00 -0.71054273576E-14 -0.35527136788E-14  0.91188000000E+02  0.91188000000E+02 0.  0.
    9900012    2    3    3    0    0  0.73514875591E+01 -0.28651942120E+02 -0.21927215767E+02  0.54367069160E+02  0.39999965765E+02 0.  0.
        -12    1    3    3    0    0 -0.73514875591E+01  0.28651942120E+02  0.21927215767E+02  0.36820930840E+02  0.00000000000E+00 0.  1.
         11    1    4    4    0    0  0.79809818888E+01 -0.20960077297E+02 -0.99180249390E+01  0.24523216167E+02  0.51100000000E-03 0. -1.
        -11    1    4    4    0    0 -0.10788656237E+02 -0.43815259802E+01  0.24160134286E+01  0.11892434337E+02  0.51100000000E-03 0.  1.
         12    1    4    4    0    0  0.10159161908E+02 -0.33103388430E+01 -0.14425204257E+02  0.17951418656E+02  0.00000000000E+00 0. -1.
</event>
<event>
 8    1  0.2502398E-006  0.9118800E+02  0.7816164E-02  0.1184000E+00
        -11   -1    0    0    0    0  0.00000000000E+00  0.00000000000E+00  0.45593999997E+02  0.45594000000E+02  0.51100000000E-03 0.  1.
         11   -1    0    0    0    0 -0.00000000000E+00 -0.00000000000E+00 -0.45593999997E+02  0.45594000000E+02  0.51100000000E-03 0. -1.
         23    2    1    2    0    0  0.00000000000E+00  0.00000000000E+00 -0.44408920985E-15  0.91188000000E+02  0.91188000000E+02 0.  0.
    9900012    2    3    3    0    0  0.32759824405E+02  0.16452548540E+02 -0.34476107940E+01  0.54367102826E+02  0.40000042513E+02 0.  0.
        -12    1    3    3    0    0 -0.32759824405E+02 -0.16452548540E+02  0.34476107940E+01  0.36820897174E+02  0.00000000000E+00 0.  1.
         11    1    4    4    0    0  0.33176340770E+01 -0.65026986709E+01 -0.72833824233E+01  0.10312101903E+02  0.51100000000E-03 0. -1.
        -11    1    4    4    0    0 -0.39339177599E+01  0.25743441027E+01  0.12396819613E+01  0.48620744675E+01  0.51100000000E-03 0.  1.
         12    1    4    4    0    0  0.33376108088E+02  0.20380903108E+02  0.25960896680E+01  0.39192926456E+02  0.00000000000E+00 0. -1.
</event>
<event>
 8    1  0.2502398E-006  0.9118800E+02  0.7816164E-02  0.1184000E+00
        -11   -1    0    0    0    0  0.00000000000E+00  0.00000000000E+00  0.45593999997E+02  0.45594000000E+02  0.51100000000E-03 0.  1.
         11   -1    0    0    0    0 -0.00000000000E+00 -0.00000000000E+00 -0.45593999997E+02  0.45594000000E+02  0.51100000000E-03 0. -1.
         23    2    1    2    0    0 -0.88817841970E-15 -0.35527136788E-14  0.00000000000E+00  0.91188000000E+02  0.91188000000E+02 0.  0.
    9900012    2    3    3    0    0  0.55718959318E+01  0.30279980951E+02  0.20195568175E+02  0.54367024394E+02  0.39999863712E+02 0.  0.
         12    1    3    3    0    0 -0.55718959318E+01 -0.30279980951E+02 -0.20195568175E+02  0.36820975606E+02  0.00000000000E+00 0. -1.
         11    1    4    4    0    0  0.27947464552E+01 -0.52583772246E+01  0.40345535810E+01  0.71929661228E+01  0.51100000000E-03 0. -1.
        -11    1    4    4    0    0  0.33663552873E+01  0.71915614228E+01  0.17048797204E+02  0.18807243019E+02  0.51100000000E-03 0.  1.
        -12    1    4    4    0    0 -0.58920581068E+00  0.28346796752E+02 -0.88778261036E+00  0.28366815253E+02  0.00000000000E+00 0.  1.
</event>
<event>
 8    1  0.2502398E-006  0.9118800E+02  0.7816164E-02  0.1184000E+00
        -11   -1    0    0    0    0  0.00000000000E+00  0.00000000000E+00  0.45593999997E+02  0.45594000000E+02  0.51100000000E-03 0.  1.
         11   -1    0    0    0    0 -0.00000000000E+00 -0.00000000000E+00 -0.45593999997E+02  0.45594000000E+02  0.51100000000E-03 0. -1.
         23    2    1    2    0    0  0.35527136788E-14  0.00000000000E+00  0.00000000000E+00  0.91188000000E+02  0.91188000000E+02 0.  0.
    9900012    2    3    3    0    0  0.20775473586E+02 -0.23371374112E+02  0.19440657300E+02  0.54367074063E+02  0.39999976941E+02 0.  0.
         12    1    3    3    0    0 -0.20775473586E+02  0.23371374112E+02 -0.19440657300E+02  0.36820925937E+02  0.00000000000E+00 0. -1.
         11    1    4    4    0    0  0.43505199061E+01 -0.77240390209E+01  0.13918089826E+02  0.16501546198E+02  0.51100000000E-03 0. -1.
        -11    1    4    4    0    0  0.76225085201E+01 -0.16288519073E+02  0.16066455864E+02  0.24115337319E+02  0.51100000000E-03 0.  1.
         12    1    4    4    0    0  0.88024451596E+01  0.64118398168E+00 -0.10543888390E+02  0.13750190546E+02  0.00000000000E+00 0. -1.
</event>
<event>
 8    1  0.2502398E-006  0.9118800E+02  0.7816164E-02  0.1184000E+00
        -11   -1    0    0    0    0  0.00000000000E+00  0.00000000000E+00  0.45593999997E+02  0.45594000000E+02  0.51100000000E-03 0. -1.
         11   -1    0    0    0    0 -0.00000000000E+00 -0.00000000000E+00 -0.45593999997E+02  0.45594000000E+02  0.51100000000E-03 0.  1.
         23    2    1    2    0    0  0.35527136788E-14  0.17763568394E-14  0.35527136788E-14  0.91188000000E+02  0.91188000000E+02 0.  0.
    9900012    2    3    3    0    0  0.29425664044E+02  0.13457391784E+02  0.17573278332E+02  0.54366929818E+02  0.39999648104E+02 0.  0.
        -12    1    3    3    0    0 -0.29425664044E+02 -0.13457391784E+02 -0.17573278332E+02  0.36821070182E+02  0.00000000000E+00 0.  1.
         11    1    4    4    0    0  0.10976853136E+02  0.23086461676E+02  0.16642523853E+02  0.30503272250E+02  0.51100000000E-03 0. -1.
        -11    1    4    4    0    0 -0.54777466630E+00  0.14284656159E+01 -0.95335247953E+00  0.18026237301E+01  0.51100000000E-03 0.  1.
        -12    1    4    4    0    0  0.18996585574E+02 -0.11057535508E+02  0.18841069587E+01  0.22061033838E+02  0.00000000000E+00 0.  1.
</event>
<event>
 8    1  0.2502398E-006  0.9118800E+02  0.7816164E-02  0.1184000E+00
        -11   -1    0    0    0    0  0.00000000000E+00  0.00000000000E+00  0.45593999997E+02  0.45594000000E+02  0.51100000000E-03 0.  1.
         11   -1    0    0    0    0 -0.00000000000E+00 -0.00000000000E+00 -0.45593999997E+02  0.45594000000E+02  0.51100000000E-03 0. -1.
         23    2    1    2    0    0 -0.35527136788E-14 -0.17763568394E-14  0.71054273576E-14  0.91188000000E+02  0.91188000000E+02 0.  0.
    9900012    2    3    3    0    0 -0.18923907159E+02 -0.13980570687E+02  0.28323327362E+02  0.54367061775E+02  0.39999948929E+02 0.  0.
         12    1    3    3    0    0  0.18923907159E+02  0.13980570687E+02 -0.28323327362E+02  0.36820938225E+02  0.00000000000E+00 0. -1.
         11    1    4    4    0    0 -0.10562322500E+01  0.27541286540E+01 -0.51820928207E+01  0.59627961119E+01  0.51100000000E-03 0. -1.
        -11    1    4    4    0    0 -0.12354831532E+02 -0.36846993891E+01  0.98264707424E+00  0.12929983267E+02  0.51100000000E-03 0.  1.
         12    1    4    4    0    0 -0.55128433776E+01 -0.13049999952E+02  0.32522773109E+02  0.35474282396E+02  0.00000000000E+00 0. -1.
</event>
<event>
 8    1  0.2502398E-006  0.9118800E+02  0.7816164E-02  0.1184000E+00
        -11   -1    0    0    0    0  0.00000000000E+00  0.00000000000E+00  0.45593999997E+02  0.45594000000E+02  0.51100000000E-03 0.  1.
         11   -1    0    0    0    0 -0.00000000000E+00 -0.00000000000E+00 -0.45593999997E+02  0.45594000000E+02  0.51100000000E-03 0. -1.
         23    2    1    2    0    0  0.88817841970E-15  0.17763568394E-14  0.00000000000E+00  0.91188000000E+02  0.91188000000E+02 0.  0.
    9900012    2    3    3    0    0  0.54100627596E+01  0.81517499544E+01 -0.35497331290E+02  0.54367077482E+02  0.39999984735E+02 0.  0.
        -12    1    3    3    0    0 -0.54100627596E+01 -0.81517499544E+01  0.35497331290E+02  0.36820922518E+02  0.00000000000E+00 0.  1.
         11    1    4    4    0    0  0.69712910060E+01 -0.95038300862E+00 -0.19223112845E+02  0.20470227010E+02  0.51100000000E-03 0. -1.
        -11    1    4    4    0    0 -0.79453344037E+01 -0.80386987973E+01 -0.78353653741E+01  0.13752889440E+02  0.51100000000E-03 0.  1.
        -12    1    4    4    0    0  0.63841061574E+01  0.17140831760E+02 -0.84388530713E+01  0.20143961031E+02  0.00000000000E+00 0.  1.
</event>
<event>
 8    1  0.2502398E-006  0.9118800E+02  0.7816164E-02  0.1184000E+00
        -11   -1    0    0    0    0  0.00000000000E+00  0.00000000000E+00  0.45593999997E+02  0.45594000000E+02  0.51100000000E-03 0.  1.
         11   -1    0    0    0    0 -0.00000000000E+00 -0.00000000000E+00 -0.45593999997E+02  0.45594000000E+02  0.51100000000E-03 0. -1.
         23    2    1    2    0    0  0.71054273576E-14  0.11102230246E-15 -0.17763568394E-14  0.91188000000E+02  0.91188000000E+02 0.  0.
    9900012    2    3    3    0    0 -0.33999888864E+02 -0.79196181844E+00  0.14112411202E+02  0.54367084800E+02  0.40000001418E+02 0.  0.
         12    1    3    3    0    0  0.33999888864E+02  0.79196181844E+00 -0.14112411202E+02  0.36820915200E+02  0.00000000000E+00 0. -1.
         11    1    4    4    0    0  0.47304055864E+01 -0.47911410686E+01  0.59118339463E+01  0.89599972445E+01  0.51100000000E-03 0. -1.
        -11    1    4    4    0    0 -0.23863282066E+02 -0.83937852050E+01  0.50977482065E+01  0.25805016917E+02  0.51100000000E-03 0.  1.
        -12    1    4    4    0    0 -0.14867012384E+02  0.12392964455E+02  0.31028290492E+01  0.19602070638E+02  0.00000000000E+00 0.  1.
</event>
<event>
 8    1  0.2502398E-006  0.9118800E+02  0.7816164E-02  0.1184000E+00
        -11   -1    0    0    0    0  0.00000000000E+00  0.00000000000E+00  0.45593999997E+02  0.45594000000E+02  0.51100000000E-03 0. -1.
         11   -1    0    0    0    0 -0.00000000000E+00 -0.00000000000E+00 -0.45593999997E+02  0.45594000000E+02  0.51100000000E-03 0.  1.
         23    2    1    2    0    0  0.00000000000E+00 -0.22204460493E-15  0.35527136788E-14  0.91188000000E+02  0.91188000000E+02 0.  0.
    9900012    2    3    3    0    0 -0.33867917393E+02 -0.15638939895E+01 -0.14363081366E+02  0.54367086116E+02  0.40000004418E+02 0.  0.
         12    1    3    3    0    0  0.33867917393E+02  0.15638939895E+01  0.14363081366E+02  0.36820913884E+02  0.00000000000E+00 0. -1.
         11    1    4    4    0    0 -0.33403529750E+01 -0.26994867471E+01  0.28543690121E+01  0.51568022469E+01  0.51100000000E-03 0. -1.
        -11    1    4    4    0    0 -0.19482271070E+02 -0.11710035291E+02  0.28941421421E+01  0.22914184942E+02  0.51100000000E-03 0.  1.
         12    1    4    4    0    0 -0.11045293348E+02  0.12845628048E+02 -0.20111592520E+02  0.26296098927E+02  0.00000000000E+00 0. -1.
</event>
<event>
 8    1  0.2502398E-006  0.9118800E+02  0.7816164E-02  0.1184000E+00
        -11   -1    0    0    0    0  0.00000000000E+00  0.00000000000E+00  0.45593999997E+02  0.45594000000E+02  0.51100000000E-03 0.  1.
         11   -1    0    0    0    0 -0.00000000000E+00 -0.00000000000E+00 -0.45593999997E+02  0.45594000000E+02  0.51100000000E-03 0. -1.
         23    2    1    2    0    0  0.00000000000E+00  0.00000000000E+00  0.88817841970E-15  0.91188000000E+02  0.91188000000E+02 0.  0.
    9900012    2    3    3    0    0 -0.25143094440E+02 -0.26420581354E+02  0.50553821205E+01  0.54367092821E+02  0.40000019704E+02 0.  0.
        -12    1    3    3    0    0  0.25143094440E+02  0.26420581354E+02 -0.50553821205E+01  0.36820907179E+02  0.00000000000E+00 0.  1.
         11    1    4    4    0    0 -0.19845669134E+02 -0.17996517714E+02 -0.79753211662E+01  0.27952298317E+02  0.51100000000E-03 0. -1.
        -11    1    4    4    0    0 -0.89734783923E+01 -0.68873021768E+01  0.17239385178E+02  0.20619278535E+02  0.51100000000E-03 0.  1.
        -12    1    4    4    0    0  0.36760530862E+01 -0.15367614627E+01 -0.42086818912E+01  0.57955159690E+01  0.00000000000E+00 0.  1.
</event>
<event>
 8    1  0.2502398E-006  0.9118800E+02  0.7816164E-02  0.1184000E+00
        -11   -1    0    0    0    0  0.00000000000E+00  0.00000000000E+00  0.45593999997E+02  0.45594000000E+02  0.51100000000E-03 0.  1.
         11   -1    0    0    0    0 -0.00000000000E+00 -0.00000000000E+00 -0.45593999997E+02  0.45594000000E+02  0.51100000000E-03 0. -1.
         23    2    1    2    0    0  0.22204460493E-15  0.00000000000E+00  0.00000000000E+00  0.91188000000E+02  0.91188000000E+02 0.  0.
    9900012    2    3    3    0    0 -0.12052195680E+01  0.17855698483E+02  0.32179160367E+02  0.54367124339E+02  0.40000091556E+02 0.  0.
         12    1    3    3    0    0  0.12052195680E+01 -0.17855698483E+02 -0.32179160367E+02  0.36820875661E+02  0.00000000000E+00 0. -1.
         11    1    4    4    0    0  0.41557223366E+01 -0.65023227753E+01  0.45540326633E+01  0.89604376775E+01  0.51100000000E-03 0. -1.
        -11    1    4    4    0    0  0.96712467103E+01  0.15191313465E+02  0.10504398021E+02  0.20848294793E+02  0.51100000000E-03 0.  1.
        -12    1    4    4    0    0 -0.15032188615E+02  0.91667077935E+01  0.17120729683E+02  0.24558391869E+02  0.00000000000E+00 0.  1.
</event>
<event>
 8    1  0.2502398E-006  0.9118800E+02  0.7816164E-02  0.1184000E+00
        -11   -1    0    0    0    0  0.00000000000E+00  0.00000000000E+00  0.45593999997E+02  0.45594000000E+02  0.51100000000E-03 0. -1.
         11   -1    0    0    0    0 -0.00000000000E+00 -0.00000000000E+00 -0.45593999997E+02  0.45594000000E+02  0.51100000000E-03 0.  1.
         23    2    1    2    0    0 -0.71054273576E-14  0.00000000000E+00  0.35527136788E-14  0.91188000000E+02  0.91188000000E+02 0.  0.
    9900012    2    3    3    0    0 -0.26471684259E+02  0.11997597119E+02 -0.22607247059E+02  0.54367081710E+02  0.39999994374E+02 0.  0.
         12    1    3    3    0    0  0.26471684259E+02 -0.11997597119E+02  0.22607247059E+02  0.36820918290E+02  0.00000000000E+00 0. -1.
         11    1    4    4    0    0  0.20775765615E+01  0.93657464793E+01 -0.91723664018E+01  0.13272747913E+02  0.51100000000E-03 0. -1.
        -11    1    4    4    0    0 -0.18636155741E+02  0.14141803376E+02 -0.10408665029E+02  0.25605413715E+02  0.51100000000E-03 0.  1.
         12    1    4    4    0    0 -0.99131050795E+01 -0.11509952736E+02 -0.30262156275E+01  0.15488920083E+02  0.00000000000E+00 0. -1.
</event>
<event>
 8    1  0.2502398E-006  0.9118800E+02  0.7816164E-02  0.1184000E+00
        -11   -1    0    0    0    0  0.00000000000E+00  0.00000000000E+00  0.45593999997E+02  0.45594000000E+02  0.51100000000E-03 0. -1.
         11   -1    0    0    0    0 -0.00000000000E+00 -0.00000000000E+00 -0.45593999997E+02  0.45594000000E+02  0.51100000000E-03 0.  1.
         23    2    1    2    0    0  0.17763568394E-14  0.00000000000E+00 -0.88817841970E-15  0.91188000000E+02  0.91188000000E+02 0.  0.
    9900012    2    3    3    0    0 -0.13938437064E+02  0.33434652149E+02 -0.66048163193E+01  0.54367087590E+02  0.40000007778E+02 0.  0.
        -12    1    3    3    0    0  0.13938437064E+02 -0.33434652149E+02  0.66048163193E+01  0.36820912410E+02  0.00000000000E+00 0.  1.
         11    1    4    4    0    0  0.33082064170E+01  0.78739802409E+01  0.54353215364E+01  0.10123562367E+02  0.51100000000E-03 0. -1.
        -11    1    4    4    0    0 -0.19219040284E+02  0.10339229003E+02  0.38392211333E+01  0.22158763165E+02  0.51100000000E-03 0.  1.
         12    1    4    4    0    0  0.19723968030E+01  0.15221442905E+02 -0.15879358989E+02  0.22084762058E+02  0.00000000000E+00 0. -1.
</event>
<event>
 8    1  0.2502398E-006  0.9118800E+02  0.7816164E-02  0.1184000E+00
        -11   -1    0    0    0    0  0.00000000000E+00  0.00000000000E+00  0.45593999997E+02  0.45594000000E+02  0.51100000000E-03 0.  1.
         11   -1    0    0    0    0 -0.00000000000E+00 -0.00000000000E+00 -0.45593999997E+02  0.45594000000E+02  0.51100000000E-03 0. -1.
         23    2    1    2    0    0  0.88817841970E-15  0.00000000000E+00  0.00000000000E+00  0.91188000000E+02  0.91188000000E+02 0.  0.
    9900012    2    3    3    0    0  0.64702190219E+01  0.23968095135E+02  0.27192740826E+02  0.54367102778E+02  0.40000042403E+02 0.  0.
         12    1    3    3    0    0 -0.64702190219E+01 -0.23968095135E+02 -0.27192740826E+02  0.36820897222E+02  0.00000000000E+00 0. -1.
         11    1    4    4    0    0  0.75307734807E+01 -0.43132795766E+01 -0.55136563749E-01  0.86787078661E+01  0.51100000000E-03 0. -1.
        -11    1    4    4    0    0 -0.61829097225E+01  0.72105360962E+00  0.12613839378E+02  0.14066173433E+02  0.51100000000E-03 0.  1.
        -12    1    4    4    0    0  0.51223552637E+01  0.27560321102E+02  0.14634038012E+02  0.31622221478E+02  0.00000000000E+00 0.  1.
</event>
<event>
 8    1  0.2502398E-006  0.9118800E+02  0.7816164E-02  0.1184000E+00
        -11   -1    0    0    0    0  0.00000000000E+00  0.00000000000E+00  0.45593999997E+02  0.45594000000E+02  0.51100000000E-03 0.  1.
         11   -1    0    0    0    0 -0.00000000000E+00 -0.00000000000E+00 -0.45593999997E+02  0.45594000000E+02  0.51100000000E-03 0. -1.
         23    2    1    2    0    0  0.00000000000E+00  0.00000000000E+00  0.00000000000E+00  0.91188000000E+02  0.91188000000E+02 0.  0.
    9900012    2    3    3    0    0  0.21315223453E+02 -0.35785699885E+01 -0.29809985247E+02  0.54367080207E+02  0.39999990947E+02 0.  0.
        -12    1    3    3    0    0 -0.21315223453E+02  0.35785699885E+01  0.29809985247E+02  0.36820919793E+02  0.00000000000E+00 0.  1.
         11    1    4    4    0    0  0.12984868003E+02 -0.53045769409E+01 -0.28725975045E+02  0.31967592592E+02  0.51100000000E-03 0. -1.
        -11    1    4    4    0    0 -0.52417256096E+01  0.15129354122E+01  0.51138268299E+01  0.74776925609E+01  0.51100000000E-03 0.  1.
         12    1    4    4    0    0  0.13572081059E+02  0.21307154022E+00 -0.61978370318E+01  0.14921795054E+02  0.00000000000E+00 0. -1.
</event>
<event>
 8    1  0.2502398E-006  0.9118800E+02  0.7816164E-02  0.1184000E+00
        -11   -1    0    0    0    0  0.00000000000E+00  0.00000000000E+00  0.45593999997E+02  0.45594000000E+02  0.51100000000E-03 0.  1.
         11   -1    0    0    0    0 -0.00000000000E+00 -0.00000000000E+00 -0.45593999997E+02  0.45594000000E+02  0.51100000000E-03 0. -1.
         23    2    1    2    0    0  0.00000000000E+00  0.00000000000E+00 -0.35527136788E-14  0.91188000000E+02  0.91188000000E+02 0.  0.
    9900012    2    3    3    0    0  0.15217115817E+02  0.25953315119E+02  0.21228423344E+02  0.54367066591E+02  0.39999959908E+02 0.  0.
         12    1    3    3    0    0 -0.15217115817E+02 -0.25953315119E+02 -0.21228423344E+02  0.36820933409E+02  0.00000000000E+00 0. -1.
         11    1    4    4    0    0  0.12406394591E+02  0.10198348713E+02  0.14162859243E+02  0.21412882230E+02  0.51100000000E-03 0. -1.
        -11    1    4    4    0    0  0.59596963626E+01  0.20831979286E+02  0.12382750231E+02  0.24956398884E+02  0.51100000000E-03 0.  1.
         12    1    4    4    0    0 -0.31489751363E+01 -0.50770128805E+01 -0.53171861296E+01  0.79977854769E+01  0.00000000000E+00 0. -1.
</event>
<event>
 8    1  0.2502398E-006  0.9118800E+02  0.7816164E-02  0.1184000E+00
        -11   -1    0    0    0    0  0.00000000000E+00  0.00000000000E+00  0.45593999997E+02  0.45594000000E+02  0.51100000000E-03 0.  1.
         11   -1    0    0    0    0 -0.00000000000E+00 -0.00000000000E+00 -0.45593999997E+02  0.45594000000E+02  0.51100000000E-03 0. -1.
         23    2    1    2    0    0  0.35527136788E-14 -0.35527136788E-14 -0.44408920985E-15  0.91188000000E+02  0.91188000000E+02 0.  0.
    9900012    2    3    3    0    0  0.28198963158E+02 -0.23436802177E+02  0.33636533289E+01  0.54367090408E+02  0.40000014202E+02 0.  0.
         12    1    3    3    0    0 -0.28198963158E+02  0.23436802177E+02 -0.33636533289E+01  0.36820909592E+02  0.00000000000E+00 0. -1.
         11    1    4    4    0    0  0.36671493556E+01 -0.10674733001E+02 -0.80858462327E+00  0.11315993920E+02  0.51100000000E-03 0. -1.
        -11    1    4    4    0    0  0.18597396181E+02 -0.18507497316E+02  0.14380418060E+02  0.29919676225E+02  0.51100000000E-03 0.  1.
         12    1    4    4    0    0  0.59344176219E+01  0.57454281392E+01 -0.10208180107E+02  0.13131420263E+02  0.00000000000E+00 0. -1.
</event>
<event>
 8    1  0.2502398E-006  0.9118800E+02  0.7816164E-02  0.1184000E+00
        -11   -1    0    0    0    0  0.00000000000E+00  0.00000000000E+00  0.45593999997E+02  0.45594000000E+02  0.51100000000E-03 0.  1.
         11   -1    0    0    0    0 -0.00000000000E+00 -0.00000000000E+00 -0.45593999997E+02  0.45594000000E+02  0.51100000000E-03 0. -1.
         23    2    1    2    0    0  0.00000000000E+00  0.00000000000E+00  0.00000000000E+00  0.91188000000E+02  0.91188000000E+02 0.  0.
    9900012    2    3    3    0    0 -0.95553547081E+01  0.19202472639E+02  0.29928925421E+02  0.54367077471E+02  0.39999984711E+02 0.  0.
         12    1    3    3    0    0  0.95553547081E+01 -0.19202472639E+02 -0.29928925421E+02  0.36820922529E+02  0.00000000000E+00 0. -1.
         11    1    4    4    0    0  0.10250393006E+02  0.20831673632E+02  0.16579069026E+02  0.28528840024E+02  0.51100000000E-03 0. -1.
        -11    1    4    4    0    0 -0.15608712681E+02  0.28861721668E+01  0.85808431806E+01  0.18044189405E+02  0.51100000000E-03 0.  1.
         12    1    4    4    0    0 -0.41970350335E+01 -0.45153731602E+01  0.47690132143E+01  0.77940480423E+01  0.00000000000E+00 0. -1.
</event>
<event>
 8    1  0.2502398E-006  0.9118800E+02  0.7816164E-02  0.1184000E+00
        -11   -1    0    0    0    0  0.00000000000E+00  0.00000000000E+00  0.45593999997E+02  0.45594000000E+02  0.51100000000E-03 0. -1.
         11   -1    0    0    0    0 -0.00000000000E+00 -0.00000000000E+00 -0.45593999997E+02  0.45594000000E+02  0.51100000000E-03 0.  1.
         23    2    1    2    0    0 -0.35527136788E-14  0.00000000000E+00 -0.35527136788E-14  0.91188000000E+02  0.91188000000E+02 0.  0.
    9900012    2    3    3    0    0  0.23299010379E+02 -0.22161773294E+02  0.17938549764E+02  0.54367086814E+02  0.40000006011E+02 0.  0.
         12    1    3    3    0    0 -0.23299010379E+02  0.22161773294E+02 -0.17938549764E+02  0.36820913186E+02  0.00000000000E+00 0. -1.
         11    1    4    4    0    0  0.46777758157E+01  0.86179003810E+01  0.18850978280E+01  0.99851583684E+01  0.51100000000E-03 0. -1.
        -11    1    4    4    0    0 -0.14252069188E+01 -0.93972112318E+01  0.11172425088E+02  0.14668397196E+02  0.51100000000E-03 0.  1.
        -12    1    4    4    0    0  0.20046441482E+02 -0.21382462444E+02  0.48810268478E+01  0.29713531250E+02  0.00000000000E+00 0.  1.
</event>
<event>
 8    1  0.2502398E-006  0.9118800E+02  0.7816164E-02  0.1184000E+00
        -11   -1    0    0    0    0  0.00000000000E+00  0.00000000000E+00  0.45593999997E+02  0.45594000000E+02  0.51100000000E-03 0. -1.
         11   -1    0    0    0    0 -0.00000000000E+00 -0.00000000000E+00 -0.45593999997E+02  0.45594000000E+02  0.51100000000E-03 0.  1.
         23    2    1    2    0    0  0.17763568394E-14  0.88817841970E-15 -0.71054273576E-14  0.91188000000E+02  0.91188000000E+02 0.  0.
    9900012    2    3    3    0    0 -0.67468356822E+01 -0.76346988561E+01  0.35383217453E+02  0.54367075301E+02  0.39999979764E+02 0.  0.
        -12    1    3    3    0    0  0.67468356822E+01  0.76346988561E+01 -0.35383217453E+02  0.36820924699E+02  0.00000000000E+00 0.  1.
         11    1    4    4    0    0  0.33844882888E+01  0.19086089601E+01 -0.27704363480E+01  0.47720925137E+01  0.51100000000E-03 0. -1.
        -11    1    4    4    0    0  0.40015214900E+01 -0.87818871965E+01  0.83976821387E+00  0.96870494931E+01  0.51100000000E-03 0.  1.
         12    1    4    4    0    0 -0.14132845461E+02 -0.76142061974E+00  0.37313885587E+02  0.39907933294E+02  0.00000000000E+00 0. -1.
</event>
<event>
 8    1  0.2502398E-006  0.9118800E+02  0.7816164E-02  0.1184000E+00
        -11   -1    0    0    0    0  0.00000000000E+00  0.00000000000E+00  0.45593999997E+02  0.45594000000E+02  0.51100000000E-03 0.  1.
         11   -1    0    0    0    0 -0.00000000000E+00 -0.00000000000E+00 -0.45593999997E+02  0.45594000000E+02  0.51100000000E-03 0. -1.
         23    2    1    2    0    0  0.35527136788E-14  0.00000000000E+00  0.00000000000E+00  0.91188000000E+02  0.91188000000E+02 0.  0.
    9900012    2    3    3    0    0  0.27402809059E+02  0.20167088449E+02  0.14076740160E+02  0.54367081837E+02  0.39999994664E+02 0.  0.
        -12    1    3    3    0    0 -0.27402809059E+02 -0.20167088449E+02 -0.14076740160E+02  0.36820918163E+02  0.00000000000E+00 0.  1.
         11    1    4    4    0    0  0.86790230880E+01  0.22450991078E+02  0.66007211893E+01  0.24958805312E+02  0.51100000000E-03 0. -1.
        -11    1    4    4    0    0  0.14176801595E+01 -0.93110234837E+01  0.37552381617E+00  0.94258152828E+01  0.51100000000E-03 0.  1.
         12    1    4    4    0    0  0.17306105811E+02  0.70271208550E+01  0.71004951547E+01  0.19982461242E+02  0.00000000000E+00 0. -1.
</event>
<event>
 8    1  0.2502398E-006  0.9118800E+02  0.7816164E-02  0.1184000E+00
        -11   -1    0    0    0    0  0.00000000000E+00  0.00000000000E+00  0.45593999997E+02  0.45594000000E+02  0.51100000000E-03 0.  1.
         11   -1    0    0    0    0 -0.00000000000E+00 -0.00000000000E+00 -0.45593999997E+02  0.45594000000E+02  0.51100000000E-03 0. -1.
         23    2    1    2    0    0 -0.88817841970E-15  0.88817841970E-15  0.00000000000E+00  0.91188000000E+02  0.91188000000E+02 0.  0.
    9900012    2    3    3    0    0 -0.65291817578E+01  0.25809372151E+01 -0.36145365732E+02  0.54367096762E+02  0.40000028688E+02 0.  0.
        -12    1    3    3    0    0  0.65291817578E+01 -0.25809372151E+01  0.36145365732E+02  0.36820903238E+02  0.00000000000E+00 0.  1.
         11    1    4    4    0    0 -0.37581520180E+01  0.11555952419E+02 -0.23589952889E+02  0.26535817689E+02  0.51100000000E-03 0. -1.
        -11    1    4    4    0    0  0.89171579149E+01 -0.85396530421E+01 -0.99287973514E+01  0.15843686328E+02  0.51100000000E-03 0.  1.
        -12    1    4    4    0    0 -0.11688187655E+02 -0.43536216130E+00 -0.26266154922E+01  0.11987592744E+02  0.00000000000E+00 0.  1.
</event>
<event>
 8    1  0.2502398E-006  0.9118800E+02  0.7816164E-02  0.1184000E+00
        -11   -1    0    0    0    0  0.00000000000E+00  0.00000000000E+00  0.45593999997E+02  0.45594000000E+02  0.51100000000E-03 0.  1.
         11   -1    0    0    0    0 -0.00000000000E+00 -0.00000000000E+00 -0.45593999997E+02  0.45594000000E+02  0.51100000000E-03 0. -1.
         23    2    1    2    0    0  0.00000000000E+00  0.88817841970E-15  0.00000000000E+00  0.91188000000E+02  0.91188000000E+02 0.  0.
    9900012    2    3    3    0    0 -0.16011465664E+02 -0.76671216404E+01  0.32258747043E+02  0.54367101753E+02  0.40000040065E+02 0.  0.
         12    1    3    3    0    0  0.16011465664E+02  0.76671216404E+01 -0.32258747043E+02  0.36820898247E+02  0.00000000000E+00 0. -1.
         11    1    4    4    0    0 -0.22797740581E+02 -0.83849596090E+01  0.13151807227E+02  0.27622718129E+02  0.51100000000E-03 0. -1.
        -11    1    4    4    0    0  0.78173182538E+00  0.32495415398E+01  0.19901029938E+02  0.20179732846E+02  0.51100000000E-03 0.  1.
         12    1    4    4    0    0  0.60045430914E+01 -0.25317035713E+01 -0.79409012216E+00  0.65646507775E+01  0.00000000000E+00 0. -1.
</event>
<event>
 8    1  0.2502398E-006  0.9118800E+02  0.7816164E-02  0.1184000E+00
        -11   -1    0    0    0    0  0.00000000000E+00  0.00000000000E+00  0.45593999997E+02  0.45594000000E+02  0.51100000000E-03 0. -1.
         11   -1    0    0    0    0 -0.00000000000E+00 -0.00000000000E+00 -0.45593999997E+02  0.45594000000E+02  0.51100000000E-03 0.  1.
         23    2    1    2    0    0  0.00000000000E+00  0.00000000000E+00  0.00000000000E+00  0.91188000000E+02  0.91188000000E+02 0.  0.
    9900012    2    3    3    0    0  0.23890882097E+02 -0.16836589710E+02  0.22394980986E+02  0.54367079672E+02  0.39999989728E+02 0.  0.
        -12    1    3    3    0    0 -0.23890882097E+02  0.16836589710E+02 -0.22394980986E+02  0.36820920328E+02  0.00000000000E+00 0.  1.
         11    1    4    4    0    0  0.20548311420E+02 -0.79786043341E-01  0.19146688168E+01  0.20637476225E+02  0.51100000000E-03 0. -1.
        -11    1    4    4    0    0  0.89033478669E+01 -0.24733584292E+01  0.15461939365E+01  0.93689818609E+01  0.51100000000E-03 0.  1.
         12    1    4    4    0    0 -0.55607771893E+01 -0.14283445237E+02  0.18934118233E+02  0.24360621586E+02  0.00000000000E+00 0. -1.
</event>
<event>
 8    1  0.2502398E-006  0.9118800E+02  0.7816164E-02  0.1184000E+00
        -11   -1    0    0    0    0  0.00000000000E+00  0.00000000000E+00  0.45593999997E+02  0.45594000000E+02  0.51100000000E-03 0. -1.
         11   -1    0    0    0    0 -0.00000000000E+00 -0.00000000000E+00 -0.45593999997E+02  0.45594000000E+02  0.51100000000E-03 0.  1.
         23    2    1    2    0    0 -0.35527136788E-14  0.00000000000E+00  0.00000000000E+00  0.91188000000E+02  0.91188000000E+02 0.  0.
    9900012    2    3    3    0    0  0.31332625621E+02 -0.45259710961E+01 -0.18803255712E+02  0.54367078393E+02  0.39999986811E+02 0.  0.
         12    1    3    3    0    0 -0.31332625621E+02  0.45259710961E+01  0.18803255712E+02  0.36820921607E+02  0.00000000000E+00 0. -1.
         11    1    4    4    0    0  0.19588405012E+02 -0.61109918122E+01 -0.20861398884E+02  0.29261712108E+02  0.51100000000E-03 0. -1.
        -11    1    4    4    0    0  0.16291288412E+02  0.70195473991E+01  0.28817312102E+01  0.17971769496E+02  0.51100000000E-03 0.  1.
         12    1    4    4    0    0 -0.45470678034E+01 -0.54345266829E+01 -0.82358803870E+00  0.71335967880E+01  0.00000000000E+00 0. -1.
</event>
<event>
 8    1  0.2502398E-006  0.9118800E+02  0.7816164E-02  0.1184000E+00
        -11   -1    0    0    0    0  0.00000000000E+00  0.00000000000E+00  0.45593999997E+02  0.45594000000E+02  0.51100000000E-03 0.  1.
         11   -1    0    0    0    0 -0.00000000000E+00 -0.00000000000E+00 -0.45593999997E+02  0.45594000000E+02  0.51100000000E-03 0. -1.
         23    2    1    2    0    0  0.00000000000E+00  0.35527136788E-14  0.71054273576E-14  0.91188000000E+02  0.91188000000E+02 0.  0.
    9900012    2    3    3    0    0  0.97839609656E+01 -0.21488081352E+02 -0.28254509340E+02  0.54367070755E+02  0.39999969401E+02 0.  0.
        -12    1    3    3    0    0 -0.97839609656E+01  0.21488081352E+02  0.28254509340E+02  0.36820929245E+02  0.00000000000E+00 0.  1.
         11    1    4    4    0    0  0.15968836796E+01  0.60080077762E+00  0.52272758170E+00  0.17844448566E+01  0.51100000000E-03 0.  1.
        -11    1    4    4    0    0 -0.11305309290E+02 -0.78549762825E+01 -0.24453551800E+02  0.28062196393E+02  0.51100000000E-03 0. -1.
         12    1    4    4    0    0  0.19492386576E+02 -0.14233905847E+02 -0.43236851223E+01  0.24520429505E+02  0.00000000000E+00 0. -1.
</event>
<event>
 8    1  0.2502398E-006  0.9118800E+02  0.7816164E-02  0.1184000E+00
        -11   -1    0    0    0    0  0.00000000000E+00  0.00000000000E+00  0.45593999997E+02  0.45594000000E+02  0.51100000000E-03 0.  1.
         11   -1    0    0    0    0 -0.00000000000E+00 -0.00000000000E+00 -0.45593999997E+02  0.45594000000E+02  0.51100000000E-03 0. -1.
         23    2    1    2    0    0 -0.35527136788E-14 -0.71054273576E-14  0.35527136788E-14  0.91188000000E+02  0.91188000000E+02 0.  0.
    9900012    2    3    3    0    0  0.27962840085E+02  0.16960806857E+02 -0.16917155819E+02  0.54367088063E+02  0.40000008857E+02 0.  0.
        -12    1    3    3    0    0 -0.27962840085E+02 -0.16960806857E+02  0.16917155819E+02  0.36820911937E+02  0.00000000000E+00 0.  1.
         11    1    4    4    0    0  0.58952596310E+01 -0.81191195459E+01 -0.94303521870E+01  0.13769739683E+02  0.51100000000E-03 0. -1.
        -11    1    4    4    0    0  0.10068340559E+02  0.30681083284E+01  0.60148720987E+01  0.12122848550E+02  0.51100000000E-03 0.  1.
         12    1    4    4    0    0  0.11999239895E+02  0.22011818075E+02 -0.13501675731E+02  0.28474499830E+02  0.00000000000E+00 0. -1.
</event>
<event>
 8    1  0.2502398E-006  0.9118800E+02  0.7816164E-02  0.1184000E+00
        -11   -1    0    0    0    0  0.00000000000E+00  0.00000000000E+00  0.45593999997E+02  0.45594000000E+02  0.51100000000E-03 0. -1.
         11   -1    0    0    0    0 -0.00000000000E+00 -0.00000000000E+00 -0.45593999997E+02  0.45594000000E+02  0.51100000000E-03 0.  1.
         23    2    1    2    0    0  0.00000000000E+00  0.00000000000E+00 -0.88817841970E-15  0.91188000000E+02  0.91188000000E+02 0.  0.
    9900012    2    3    3    0    0 -0.14036399546E+02 -0.33264384558E+02  0.72277763897E+01  0.54367074648E+02  0.39999978275E+02 0.  0.
         12    1    3    3    0    0  0.14036399546E+02  0.33264384558E+02 -0.72277763897E+01  0.36820925352E+02  0.00000000000E+00 0. -1.
         11    1    4    4    0    0  0.74054684167E+00  0.23163276262E+01  0.11860105087E+02  0.12106852449E+02  0.51100000000E-03 0. -1.
        -11    1    4    4    0    0 -0.17709530885E+00 -0.14205048084E+02 -0.77578994876E+01  0.16186406598E+02  0.51100000000E-03 0.  1.
         12    1    4    4    0    0 -0.14599851079E+02 -0.21375664100E+02  0.31255707902E+01  0.26073815601E+02  0.00000000000E+00 0. -1.
</event>
<event>
 8    1  0.2502398E-006  0.9118800E+02  0.7816164E-02  0.1184000E+00
        -11   -1    0    0    0    0  0.00000000000E+00  0.00000000000E+00  0.45593999997E+02  0.45594000000E+02  0.51100000000E-03 0. -1.
         11   -1    0    0    0    0 -0.00000000000E+00 -0.00000000000E+00 -0.45593999997E+02  0.45594000000E+02  0.51100000000E-03 0.  1.
         23    2    1    2    0    0  0.00000000000E+00  0.00000000000E+00  0.44408920985E-15  0.91188000000E+02  0.91188000000E+02 0.  0.
    9900012    2    3    3    0    0  0.21271116461E+02 -0.29934202198E+02  0.26945944370E+01  0.54367113320E+02  0.40000066437E+02 0.  0.
        -12    1    3    3    0    0 -0.21271116461E+02  0.29934202198E+02 -0.26945944370E+01  0.36820886680E+02  0.00000000000E+00 0.  1.
         11    1    4    4    0    0  0.38240081105E+01  0.45227733752E+01 -0.28882603293E+01  0.65894282775E+01  0.51100000000E-03 0. -1.
        -11    1    4    4    0    0  0.13695076226E+02 -0.15352819580E+02 -0.99673509939E+01  0.22860714512E+02  0.51100000000E-03 0.  1.
         12    1    4    4    0    0  0.37520321237E+01 -0.19104155993E+02  0.15550205760E+02  0.24916970531E+02  0.00000000000E+00 0. -1.
</event>
<event>
 8    1  0.2502398E-006  0.9118800E+02  0.7816164E-02  0.1184000E+00
        -11   -1    0    0    0    0  0.00000000000E+00  0.00000000000E+00  0.45593999997E+02  0.45594000000E+02  0.51100000000E-03 0. -1.
         11   -1    0    0    0    0 -0.00000000000E+00 -0.00000000000E+00 -0.45593999997E+02  0.45594000000E+02  0.51100000000E-03 0.  1.
         23    2    1    2    0    0  0.00000000000E+00  0.00000000000E+00  0.00000000000E+00  0.91188000000E+02  0.91188000000E+02 0.  0.
    9900012    2    3    3    0    0  0.28222291575E+02 -0.14310246587E+02 -0.18828139973E+02  0.54367085373E+02  0.40000002726E+02 0.  0.
         12    1    3    3    0    0 -0.28222291575E+02  0.14310246587E+02  0.18828139973E+02  0.36820914627E+02  0.00000000000E+00 0. -1.
         11    1    4    4    0    0  0.25139869354E+02 -0.23202512252E+02 -0.94871860298E+01  0.35501778899E+02  0.51100000000E-03 0. -1.
        -11    1    4    4    0    0 -0.14010638452E+01  0.55917446139E+01 -0.11523912110E+02  0.12885307071E+02  0.51100000000E-03 0.  1.
        -12    1    4    4    0    0  0.44834860659E+01  0.33005210510E+01  0.21829581673E+01  0.59799994040E+01  0.00000000000E+00 0.  1.
</event>
<event>
 8    1  0.2502398E-006  0.9118800E+02  0.7816164E-02  0.1184000E+00
        -11   -1    0    0    0    0  0.00000000000E+00  0.00000000000E+00  0.45593999997E+02  0.45594000000E+02  0.51100000000E-03 0.  1.
         11   -1    0    0    0    0 -0.00000000000E+00 -0.00000000000E+00 -0.45593999997E+02  0.45594000000E+02  0.51100000000E-03 0. -1.
         23    2    1    2    0    0  0.00000000000E+00 -0.35527136788E-14 -0.17763568394E-14  0.91188000000E+02  0.91188000000E+02 0.  0.
    9900012    2    3    3    0    0  0.18351663722E+02 -0.30005040317E+02  0.10894660011E+02  0.54367087158E+02  0.40000006794E+02 0.  0.
         12    1    3    3    0    0 -0.18351663722E+02  0.30005040317E+02 -0.10894660011E+02  0.36820912842E+02  0.00000000000E+00 0. -1.
         11    1    4    4    0    0 -0.50908632960E+01 -0.84084629361E+01  0.69407323478E+01  0.12032992306E+02  0.51100000000E-03 0. -1.
        -11    1    4    4    0    0  0.44001364697E+01 -0.21456282511E+02 -0.29028506543E+01  0.22094338695E+02  0.51100000000E-03 0.  1.
        -12    1    4    4    0    0  0.19042390548E+02 -0.14029486899E+00  0.68567783180E+01  0.20239756158E+02  0.00000000000E+00 0.  1.
</event>
<event>
 8    1  0.2502398E-006  0.9118800E+02  0.7816164E-02  0.1184000E+00
        -11   -1    0    0    0    0  0.00000000000E+00  0.00000000000E+00  0.45593999997E+02  0.45594000000E+02  0.51100000000E-03 0. -1.
         11   -1    0    0    0    0 -0.00000000000E+00 -0.00000000000E+00 -0.45593999997E+02  0.45594000000E+02  0.51100000000E-03 0.  1.
         23    2    1    2    0    0 -0.35527136788E-14  0.00000000000E+00 -0.35527136788E-14  0.91188000000E+02  0.91188000000E+02 0.  0.
    9900012    2    3    3    0    0  0.23575154789E+02  0.16268356617E+02  0.23137276470E+02  0.54367069637E+02  0.39999966851E+02 0.  0.
        -12    1    3    3    0    0 -0.23575154789E+02 -0.16268356617E+02 -0.23137276470E+02  0.36820930363E+02  0.00000000000E+00 0.  1.
         11    1    4    4    0    0  0.16416278553E+02 -0.18964863581E+00  0.96313322033E+01  0.19033988768E+02  0.51100000000E-03 0.  1.
        -11    1    4    4    0    0  0.10404087298E+02 -0.11720351825E+01  0.13900665658E+02  0.17402505709E+02  0.51100000000E-03 0. -1.
        -12    1    4    4    0    0 -0.32452110618E+01  0.17630040436E+02 -0.39472139137E+00  0.17930575160E+02  0.00000000000E+00 0.  1.
</event>
<event>
 8    1  0.2502398E-006  0.9118800E+02  0.7816164E-02  0.1184000E+00
        -11   -1    0    0    0    0  0.00000000000E+00  0.00000000000E+00  0.45593999997E+02  0.45594000000E+02  0.51100000000E-03 0.  1.
         11   -1    0    0    0    0 -0.00000000000E+00 -0.00000000000E+00 -0.45593999997E+02  0.45594000000E+02  0.51100000000E-03 0. -1.
         23    2    1    2    0    0  0.00000000000E+00 -0.71054273576E-14 -0.53290705182E-14  0.91188000000E+02  0.91188000000E+02 0.  0.
    9900012    2    3    3    0    0  0.22380585152E+01 -0.34243656898E+02 -0.13347064113E+02  0.54367067582E+02  0.39999962167E+02 0.  0.
        -12    1    3    3    0    0 -0.22380585152E+01  0.34243656898E+02  0.13347064113E+02  0.36820932418E+02  0.00000000000E+00 0.  1.
         11    1    4    4    0    0 -0.37612567472E+01 -0.11502298810E+02  0.46022341225E+01  0.12947219370E+02  0.51100000000E-03 0. -1.
        -11    1    4    4    0    0  0.11355198014E+01 -0.24951690459E+02 -0.25348306506E+01  0.25105808664E+02  0.51100000000E-03 0.  1.
         12    1    4    4    0    0  0.48637954611E+01  0.22103323706E+01 -0.15414467585E+02  0.16314039549E+02  0.00000000000E+00 0. -1.
</event>
<event>
 8    1  0.2502398E-006  0.9118800E+02  0.7816164E-02  0.1184000E+00
        -11   -1    0    0    0    0  0.00000000000E+00  0.00000000000E+00  0.45593999997E+02  0.45594000000E+02  0.51100000000E-03 0. -1.
         11   -1    0    0    0    0 -0.00000000000E+00 -0.00000000000E+00 -0.45593999997E+02  0.45594000000E+02  0.51100000000E-03 0.  1.
         23    2    1    2    0    0  0.00000000000E+00  0.00000000000E+00  0.00000000000E+00  0.91188000000E+02  0.91188000000E+02 0.  0.
    9900012    2    3    3    0    0  0.74407851764E+01  0.41891674021E+01 -0.35817108252E+02  0.54367086770E+02  0.40000005909E+02 0.  0.
         12    1    3    3    0    0 -0.74407851764E+01 -0.41891674021E+01  0.35817108252E+02  0.36820913230E+02  0.00000000000E+00 0. -1.
         11    1    4    4    0    0  0.10629277843E+01 -0.33144515430E+01  0.30606287981E+01  0.46349599142E+01  0.51100000000E-03 0. -1.
        -11    1    4    4    0    0  0.74935881805E+01  0.59422067168E+01  0.11730956277E+01  0.96353431748E+01  0.51100000000E-03 0.  1.
        -12    1    4    4    0    0 -0.11157307884E+01  0.15614122283E+01 -0.40050832678E+02  0.40096783681E+02  0.00000000000E+00 0.  1.
</event>
<event>
 8    1  0.2502398E-006  0.9118800E+02  0.7816164E-02  0.1184000E+00
        -11   -1    0    0    0    0  0.00000000000E+00  0.00000000000E+00  0.45593999997E+02  0.45594000000E+02  0.51100000000E-03 0.  1.
         11   -1    0    0    0    0 -0.00000000000E+00 -0.00000000000E+00 -0.45593999997E+02  0.45594000000E+02  0.51100000000E-03 0. -1.
         23    2    1    2    0    0  0.35527136788E-14 -0.44408920985E-15  0.71054273576E-14  0.91188000000E+02  0.91188000000E+02 0.  0.
    9900012    2    3    3    0    0  0.12994605826E+02  0.33279448183E+01  0.34290533554E+02  0.54367140576E+02  0.40000128571E+02 0.  0.
         12    1    3    3    0    0 -0.12994605826E+02 -0.33279448183E+01 -0.34290533554E+02  0.36820859424E+02  0.00000000000E+00 0. -1.
         11    1    4    4    0    0  0.11680666211E+02  0.78208595720E+01  0.37277157701E+01  0.14543028320E+02  0.51100000000E-03 0. -1.
        -11    1    4    4    0    0 -0.50356519794E+01 -0.34972466398E+01  0.32529928304E+02  0.33102639783E+02  0.51100000000E-03 0.  1.
        -12    1    4    4    0    0  0.63495915946E+01 -0.99566811385E+00 -0.19671105195E+01  0.67214724732E+01  0.00000000000E+00 0.  1.
</event>
<event>
 8    1  0.2502398E-006  0.9118800E+02  0.7816164E-02  0.1184000E+00
        -11   -1    0    0    0    0  0.00000000000E+00  0.00000000000E+00  0.45593999997E+02  0.45594000000E+02  0.51100000000E-03 0. -1.
         11   -1    0    0    0    0 -0.00000000000E+00 -0.00000000000E+00 -0.45593999997E+02  0.45594000000E+02  0.51100000000E-03 0.  1.
         23    2    1    2    0    0  0.00000000000E+00  0.35527136788E-14  0.00000000000E+00  0.91188000000E+02  0.91188000000E+02 0.  0.
    9900012    2    3    3    0    0  0.36650332544E+01 -0.11307744475E+02  0.34849435474E+02  0.54367072435E+02  0.39999973230E+02 0.  0.
        -12    1    3    3    0    0 -0.36650332544E+01  0.11307744475E+02 -0.34849435474E+02  0.36820927565E+02  0.00000000000E+00 0.  1.
         11    1    4    4    0    0  0.67423153105E+01 -0.31505869795E+01  0.14359780066E+02  0.16173691535E+02  0.51100000000E-03 0. -1.
        -11    1    4    4    0    0 -0.36398970014E+01  0.95646914101E+01 -0.10581036215E+01  0.10288428232E+02  0.51100000000E-03 0.  1.
         12    1    4    4    0    0  0.56261494529E+00 -0.17721848906E+02  0.21547759029E+02  0.27904952668E+02  0.00000000000E+00 0. -1.
</event>
<event>
 8    1  0.2502398E-006  0.9118800E+02  0.7816164E-02  0.1184000E+00
        -11   -1    0    0    0    0  0.00000000000E+00  0.00000000000E+00  0.45593999997E+02  0.45594000000E+02  0.51100000000E-03 0.  1.
         11   -1    0    0    0    0 -0.00000000000E+00 -0.00000000000E+00 -0.45593999997E+02  0.45594000000E+02  0.51100000000E-03 0. -1.
         23    2    1    2    0    0  0.00000000000E+00  0.00000000000E+00  0.00000000000E+00  0.91188000000E+02  0.91188000000E+02 0.  0.
    9900012    2    3    3    0    0  0.12032257708E+02  0.95204758685E+01 -0.33471839484E+02  0.54367099349E+02  0.40000034586E+02 0.  0.
        -12    1    3    3    0    0 -0.12032257708E+02 -0.95204758685E+01  0.33471839484E+02  0.36820900651E+02  0.00000000000E+00 0.  1.
         11    1    4    4    0    0  0.34264773623E+01  0.13234898259E+02 -0.71880676944E+00  0.13690141068E+02  0.51100000000E-03 0.  1.
        -11    1    4    4    0    0 -0.23460570964E+00  0.77550156850E+01 -0.46047002845E+01  0.90221157765E+01  0.51100000000E-03 0. -1.
         12    1    4    4    0    0  0.88403860558E+01 -0.11469438076E+02 -0.28148332430E+02  0.31654842504E+02  0.00000000000E+00 0. -1.
</event>
<event>
 8    1  0.2502398E-006  0.9118800E+02  0.7816164E-02  0.1184000E+00
        -11   -1    0    0    0    0  0.00000000000E+00  0.00000000000E+00  0.45593999997E+02  0.45594000000E+02  0.51100000000E-03 0.  1.
         11   -1    0    0    0    0 -0.00000000000E+00 -0.00000000000E+00 -0.45593999997E+02  0.45594000000E+02  0.51100000000E-03 0. -1.
         23    2    1    2    0    0  0.00000000000E+00  0.00000000000E+00  0.00000000000E+00  0.91188000000E+02  0.91188000000E+02 0.  0.
    9900012    2    3    3    0    0 -0.22100998213E+02  0.25993089534E+02 -0.13844996483E+02  0.54367098964E+02  0.40000033707E+02 0.  0.
        -12    1    3    3    0    0  0.22100998213E+02 -0.25993089534E+02  0.13844996483E+02  0.36820901036E+02  0.00000000000E+00 0.  1.
         11    1    4    4    0    0 -0.19249443082E+02  0.22079564107E+01 -0.25253204530E+01  0.19539533621E+02  0.51100000000E-03 0. -1.
        -11    1    4    4    0    0 -0.79754881057E+01  0.12009478837E+02  0.38795475529E+01  0.14929396570E+02  0.51100000000E-03 0.  1.
         12    1    4    4    0    0  0.51239329745E+01  0.11775654286E+02 -0.15199223583E+02  0.19898168773E+02  0.00000000000E+00 0. -1.
</event>
<event>
 8    1  0.2502398E-006  0.9118800E+02  0.7816164E-02  0.1184000E+00
        -11   -1    0    0    0    0  0.00000000000E+00  0.00000000000E+00  0.45593999997E+02  0.45594000000E+02  0.51100000000E-03 0.  1.
         11   -1    0    0    0    0 -0.00000000000E+00 -0.00000000000E+00 -0.45593999997E+02  0.45594000000E+02  0.51100000000E-03 0. -1.
         23    2    1    2    0    0  0.35527136788E-14  0.17763568394E-14 -0.35527136788E-14  0.91188000000E+02  0.91188000000E+02 0.  0.
    9900012    2    3    3    0    0 -0.25650059950E+02 -0.94051045529E+01  0.24686008422E+02  0.54367074171E+02  0.39999977189E+02 0.  0.
        -12    1    3    3    0    0  0.25650059950E+02  0.94051045529E+01 -0.24686008422E+02  0.36820925829E+02  0.00000000000E+00 0.  1.
         11    1    4    4    0    0  0.20449016385E+01 -0.49960111916E+01 -0.73157147397E+01  0.90918333108E+01  0.51100000000E-03 0. -1.
        -11    1    4    4    0    0 -0.12848243066E+02 -0.68042077770E+01  0.24452307909E+02  0.28448022000E+02  0.51100000000E-03 0.  1.
        -12    1    4    4    0    0 -0.14846718522E+02  0.23951144157E+01  0.75494152522E+01  0.16827218861E+02  0.00000000000E+00 0.  1.
</event>
<event>
 8    1  0.2502398E-006  0.9118800E+02  0.7816164E-02  0.1184000E+00
        -11   -1    0    0    0    0  0.00000000000E+00  0.00000000000E+00  0.45593999997E+02  0.45594000000E+02  0.51100000000E-03 0. -1.
         11   -1    0    0    0    0 -0.00000000000E+00 -0.00000000000E+00 -0.45593999997E+02  0.45594000000E+02  0.51100000000E-03 0.  1.
         23    2    1    2    0    0  0.00000000000E+00  0.00000000000E+00 -0.35527136788E-14  0.91188000000E+02  0.91188000000E+02 0.  0.
    9900012    2    3    3    0    0  0.19366158664E+02 -0.84331494685E+01  0.30159774746E+02  0.54367107506E+02  0.40000053180E+02 0.  0.
        -12    1    3    3    0    0 -0.19366158664E+02  0.84331494685E+01 -0.30159774746E+02  0.36820892494E+02  0.00000000000E+00 0.  1.
         11    1    4    4    0    0  0.52236363345E+00  0.58805752029E+01  0.16462609004E+02  0.17489183056E+02  0.51100000000E-03 0. -1.
        -11    1    4    4    0    0 -0.48481643609E+01 -0.82233682081E+01  0.19584826895E+01  0.97449544413E+01  0.51100000000E-03 0.  1.
        -12    1    4    4    0    0  0.23691959392E+02 -0.60903564634E+01  0.11738683052E+02  0.27132970008E+02  0.00000000000E+00 0.  1.
</event>
<event>
 8    1  0.2502398E-006  0.9118800E+02  0.7816164E-02  0.1184000E+00
        -11   -1    0    0    0    0  0.00000000000E+00  0.00000000000E+00  0.45593999997E+02  0.45594000000E+02  0.51100000000E-03 0.  1.
         11   -1    0    0    0    0 -0.00000000000E+00 -0.00000000000E+00 -0.45593999997E+02  0.45594000000E+02  0.51100000000E-03 0. -1.
         23    2    1    2    0    0  0.00000000000E+00 -0.17763568394E-14  0.88817841970E-15  0.91188000000E+02  0.91188000000E+02 0.  0.
    9900012    2    3    3    0    0  0.35316339570E+02 -0.10099955795E+02 -0.25547720594E+01  0.54367084640E+02  0.40000001053E+02 0.  0.
         12    1    3    3    0    0 -0.35316339570E+02  0.10099955795E+02  0.25547720594E+01  0.36820915360E+02  0.00000000000E+00 0. -1.
         11    1    4    4    0    0  0.20809155086E+00 -0.15842262898E+02  0.56122724204E+01  0.16808277657E+02  0.51100000000E-03 0. -1.
        -11    1    4    4    0    0  0.13693502200E+02 -0.13454345341E+01 -0.62307471617E+00  0.13773540538E+02  0.51100000000E-03 0.  1.
         12    1    4    4    0    0  0.21414745819E+02  0.70877416376E+01 -0.75439697636E+01  0.23785266444E+02  0.00000000000E+00 0. -1.
</event>
<event>
 8    1  0.2502398E-006  0.9118800E+02  0.7816164E-02  0.1184000E+00
        -11   -1    0    0    0    0  0.00000000000E+00  0.00000000000E+00  0.45593999997E+02  0.45594000000E+02  0.51100000000E-03 0. -1.
         11   -1    0    0    0    0 -0.00000000000E+00 -0.00000000000E+00 -0.45593999997E+02  0.45594000000E+02  0.51100000000E-03 0.  1.
         23    2    1    2    0    0  0.00000000000E+00  0.00000000000E+00  0.00000000000E+00  0.91188000000E+02  0.91188000000E+02 0.  0.
    9900012    2    3    3    0    0  0.90130478376E+01  0.18197100941E+02  0.30714990915E+02  0.54367079576E+02  0.39999989509E+02 0.  0.
        -12    1    3    3    0    0 -0.90130478376E+01 -0.18197100941E+02 -0.30714990915E+02  0.36820920424E+02  0.00000000000E+00 0.  1.
         11    1    4    4    0    0  0.41953246743E+01 -0.50342969874E+01  0.12363670024E+02  0.13993042271E+02  0.51100000000E-03 0. -1.
        -11    1    4    4    0    0  0.14859966453E+02  0.12843094726E+02  0.40691897917E+01  0.20057965773E+02  0.51100000000E-03 0.  1.
         12    1    4    4    0    0 -0.10042243290E+02  0.10388303202E+02  0.14282131099E+02  0.20316071531E+02  0.00000000000E+00 0. -1.
</event>
<event>
 8    1  0.2502398E-006  0.9118800E+02  0.7816164E-02  0.1184000E+00
        -11   -1    0    0    0    0  0.00000000000E+00  0.00000000000E+00  0.45593999997E+02  0.45594000000E+02  0.51100000000E-03 0. -1.
         11   -1    0    0    0    0 -0.00000000000E+00 -0.00000000000E+00 -0.45593999997E+02  0.45594000000E+02  0.51100000000E-03 0.  1.
         23    2    1    2    0    0  0.00000000000E+00 -0.17763568394E-14  0.00000000000E+00  0.91188000000E+02  0.91188000000E+02 0.  0.
    9900012    2    3    3    0    0  0.20928092270E+02 -0.99052629288E+01 -0.28630086505E+02  0.54367066647E+02  0.39999960034E+02 0.  0.
         12    1    3    3    0    0 -0.20928092270E+02  0.99052629288E+01  0.28630086505E+02  0.36820933353E+02  0.00000000000E+00 0. -1.
         11    1    4    4    0    0  0.18689955754E+02 -0.77591325130E+01 -0.16193696457E+02  0.25918225029E+02  0.51100000000E-03 0. -1.
        -11    1    4    4    0    0  0.60212544811E+01  0.26416973153E+01 -0.18628762520E+02  0.19755122462E+02  0.51100000000E-03 0.  1.
        -12    1    4    4    0    0 -0.37831179653E+01 -0.47878277312E+01  0.61923724719E+01  0.86937191554E+01  0.00000000000E+00 0.  1.
</event>
<event>
 8    1  0.2502398E-006  0.9118800E+02  0.7816164E-02  0.1184000E+00
        -11   -1    0    0    0    0  0.00000000000E+00  0.00000000000E+00  0.45593999997E+02  0.45594000000E+02  0.51100000000E-03 0.  1.
         11   -1    0    0    0    0 -0.00000000000E+00 -0.00000000000E+00 -0.45593999997E+02  0.45594000000E+02  0.51100000000E-03 0. -1.
         23    2    1    2    0    0  0.00000000000E+00 -0.11102230246E-14  0.00000000000E+00  0.91188000000E+02  0.91188000000E+02 0.  0.
    9900012    2    3    3    0    0 -0.31219991980E+02 -0.16429368604E+01 -0.19452250870E+02  0.54367119990E+02  0.40000081642E+02 0.  0.
        -12    1    3    3    0    0  0.31219991980E+02  0.16429368604E+01  0.19452250870E+02  0.36820880010E+02  0.00000000000E+00 0.  1.
         11    1    4    4    0    0 -0.33346535408E+01 -0.50540566255E+01  0.63326345264E+01  0.87616016182E+01  0.51100000000E-03 0.  1.
        -11    1    4    4    0    0 -0.13287450373E+01  0.57696678424E+01 -0.16242845610E+02  0.17288281123E+02  0.51100000000E-03 0. -1.
        -12    1    4    4    0    0 -0.26556593402E+02 -0.23585480772E+01 -0.95420397864E+01  0.28317237249E+02  0.00000000000E+00 0.  1.
</event>
<event>
 8    1  0.2502398E-006  0.9118800E+02  0.7816164E-02  0.1184000E+00
        -11   -1    0    0    0    0  0.00000000000E+00  0.00000000000E+00  0.45593999997E+02  0.45594000000E+02  0.51100000000E-03 0. -1.
         11   -1    0    0    0    0 -0.00000000000E+00 -0.00000000000E+00 -0.45593999997E+02  0.45594000000E+02  0.51100000000E-03 0.  1.
         23    2    1    2    0    0  0.00000000000E+00  0.44408920985E-15  0.13322676296E-14  0.91188000000E+02  0.91188000000E+02 0.  0.
    9900012    2    3    3    0    0 -0.36675336449E+02 -0.25673287598E+01 -0.20265683683E+01  0.54367102944E+02  0.40000042782E+02 0.  0.
         12    1    3    3    0    0  0.36675336449E+02  0.25673287598E+01  0.20265683683E+01  0.36820897056E+02  0.00000000000E+00 0. -1.
         11    1    4    4    0    0  0.46645261771E+00 -0.33994159046E+01 -0.34825682975E+01  0.48889557929E+01  0.51100000000E-03 0. -1.
        -11    1    4    4    0    0 -0.14255277531E+02 -0.36069123080E+01  0.16212297777E+02  0.21887470237E+02  0.51100000000E-03 0.  1.
        -12    1    4    4    0    0 -0.22886511536E+02  0.44389994528E+01 -0.14756297848E+02  0.27590676915E+02  0.00000000000E+00 0.  1.
</event>
<event>
 8    1  0.2502398E-006  0.9118800E+02  0.7816164E-02  0.1184000E+00
        -11   -1    0    0    0    0  0.00000000000E+00  0.00000000000E+00  0.45593999997E+02  0.45594000000E+02  0.51100000000E-03 0.  1.
         11   -1    0    0    0    0 -0.00000000000E+00 -0.00000000000E+00 -0.45593999997E+02  0.45594000000E+02  0.51100000000E-03 0. -1.
         23    2    1    2    0    0 -0.17763568394E-14 -0.35527136788E-14  0.00000000000E+00  0.91188000000E+02  0.91188000000E+02 0.  0.
    9900012    2    3    3    0    0 -0.13245249716E+02  0.25914248531E+02 -0.22556478666E+02  0.54367086829E+02  0.40000006043E+02 0.  0.
        -12    1    3    3    0    0  0.13245249716E+02 -0.25914248531E+02  0.22556478666E+02  0.36820913171E+02  0.00000000000E+00 0.  1.
         11    1    4    4    0    0 -0.18443208260E+01  0.42326727981E+01  0.23154398403E+01  0.51651040880E+01  0.51100000000E-03 0. -1.
        -11    1    4    4    0    0 -0.77111190392E+01  0.68788583709E+01  0.79303036759E+01  0.13025734758E+02  0.51100000000E-03 0.  1.
         12    1    4    4    0    0 -0.36898098508E+01  0.14802717362E+02 -0.32802222182E+02  0.36176247983E+02  0.00000000000E+00 0. -1.
</event>
<event>
 8    1  0.2502398E-006  0.9118800E+02  0.7816164E-02  0.1184000E+00
        -11   -1    0    0    0    0  0.00000000000E+00  0.00000000000E+00  0.45593999997E+02  0.45594000000E+02  0.51100000000E-03 0. -1.
         11   -1    0    0    0    0 -0.00000000000E+00 -0.00000000000E+00 -0.45593999997E+02  0.45594000000E+02  0.51100000000E-03 0.  1.
         23    2    1    2    0    0  0.33306690739E-15  0.13322676296E-14  0.00000000000E+00  0.91188000000E+02  0.91188000000E+02 0.  0.
    9900012    2    3    3    0    0 -0.72814559996E+00  0.36935827960E+01 -0.36627913905E+02  0.54367125120E+02  0.40000093336E+02 0.  0.
         12    1    3    3    0    0  0.72814559996E+00 -0.36935827960E+01  0.36627913905E+02  0.36820874880E+02  0.00000000000E+00 0. -1.
         11    1    4    4    0    0 -0.69293893803E+00 -0.50455947602E+01 -0.98479936454E+00  0.51872941796E+01  0.51100000000E-03 0. -1.
        -11    1    4    4    0    0 -0.49235000954E+01 -0.77847827682E+01  0.41012720136E+00  0.92201898310E+01  0.51100000000E-03 0.  1.
        -12    1    4    4    0    0  0.48882934335E+01  0.16523960324E+02 -0.36053241742E+02  0.39959641109E+02  0.00000000000E+00 0.  1.
</event>
<event>
 8    1  0.2502398E-006  0.9118800E+02  0.7816164E-02  0.1184000E+00
        -11   -1    0    0    0    0  0.00000000000E+00  0.00000000000E+00  0.45593999997E+02  0.45594000000E+02  0.51100000000E-03 0.  1.
         11   -1    0    0    0    0 -0.00000000000E+00 -0.00000000000E+00 -0.45593999997E+02  0.45594000000E+02  0.51100000000E-03 0. -1.
         23    2    1    2    0    0  0.00000000000E+00  0.00000000000E+00 -0.88817841970E-15  0.91188000000E+02  0.91188000000E+02 0.  0.
    9900012    2    3    3    0    0  0.24839284720E+02 -0.26909207617E+02 -0.38310694439E+01  0.54367182341E+02  0.40000223781E+02 0.  0.
        -12    1    3    3    0    0 -0.24839284720E+02  0.26909207617E+02  0.38310694439E+01  0.36820817659E+02  0.00000000000E+00 0.  1.
         11    1    4    4    0    0  0.13293493751E+01 -0.18304126181E+02  0.68529332998E+01  0.19590071467E+02  0.51100000000E-03 0. -1.
        -11    1    4    4    0    0  0.23912376862E+02 -0.43978012241E+01 -0.11411389627E+01  0.24340185316E+02  0.51100000000E-03 0.  1.
         12    1    4    4    0    0 -0.40244151695E+00 -0.42072802122E+01 -0.95428637810E+01  0.10436925558E+02  0.00000000000E+00 0. -1.
</event>
<event>
 8    1  0.2502398E-006  0.9118800E+02  0.7816164E-02  0.1184000E+00
        -11   -1    0    0    0    0  0.00000000000E+00  0.00000000000E+00  0.45593999997E+02  0.45594000000E+02  0.51100000000E-03 0.  1.
         11   -1    0    0    0    0 -0.00000000000E+00 -0.00000000000E+00 -0.45593999997E+02  0.45594000000E+02  0.51100000000E-03 0. -1.
         23    2    1    2    0    0 -0.71054273576E-14 -0.35527136788E-14  0.35527136788E-14  0.91188000000E+02  0.91188000000E+02 0.  0.
    9900012    2    3    3    0    0  0.26960343476E+02  0.18469670223E+02 -0.16964381166E+02  0.54367094704E+02  0.40000023996E+02 0.  0.
        -12    1    3    3    0    0 -0.26960343476E+02 -0.18469670223E+02  0.16964381166E+02  0.36820905296E+02  0.00000000000E+00 0.  1.
         11    1    4    4    0    0 -0.17408901250E+01  0.30473831007E+01 -0.15523086038E+02  0.15914881168E+02  0.51100000000E-03 0. -1.
        -11    1    4    4    0    0  0.64370642978E+01  0.10523311134E+02 -0.80338023971E+01  0.14721340130E+02  0.51100000000E-03 0.  1.
        -12    1    4    4    0    0  0.22264169304E+02  0.48989759885E+01  0.65925072695E+01  0.23730873406E+02  0.00000000000E+00 0.  1.
</event>
<event>
 8    1  0.2502398E-006  0.9118800E+02  0.7816164E-02  0.1184000E+00
        -11   -1    0    0    0    0  0.00000000000E+00  0.00000000000E+00  0.45593999997E+02  0.45594000000E+02  0.51100000000E-03 0.  1.
         11   -1    0    0    0    0 -0.00000000000E+00 -0.00000000000E+00 -0.45593999997E+02  0.45594000000E+02  0.51100000000E-03 0. -1.
         23    2    1    2    0    0 -0.71054273576E-14  0.17763568394E-14  0.00000000000E+00  0.91188000000E+02  0.91188000000E+02 0.  0.
    9900012    2    3    3    0    0 -0.32280343631E+02  0.14289277853E+02  0.10467888503E+02  0.54367072035E+02  0.39999972318E+02 0.  0.
         12    1    3    3    0    0  0.32280343631E+02 -0.14289277853E+02 -0.10467888503E+02  0.36820927965E+02  0.00000000000E+00 0. -1.
         11    1    4    4    0    0  0.27607027307E+01  0.10442497846E+02 -0.92213901693E+00  0.10840552636E+02  0.51100000000E-03 0. -1.
        -11    1    4    4    0    0 -0.95604118790E+01  0.10929578410E+02 -0.50093244409E+00  0.14529559288E+02  0.51100000000E-03 0.  1.
         12    1    4    4    0    0 -0.25480634482E+02 -0.70827984025E+01  0.11890959964E+02  0.28996960111E+02  0.00000000000E+00 0. -1.
</event>
<event>
 8    1  0.2502398E-006  0.9118800E+02  0.7816164E-02  0.1184000E+00
        -11   -1    0    0    0    0  0.00000000000E+00  0.00000000000E+00  0.45593999997E+02  0.45594000000E+02  0.51100000000E-03 0. -1.
         11   -1    0    0    0    0 -0.00000000000E+00 -0.00000000000E+00 -0.45593999997E+02  0.45594000000E+02  0.51100000000E-03 0.  1.
         23    2    1    2    0    0  0.00000000000E+00 -0.35527136788E-14  0.00000000000E+00  0.91188000000E+02  0.91188000000E+02 0.  0.
    9900012    2    3    3    0    0  0.20542044818E+02 -0.26706936529E+02  0.14850704491E+02  0.54367088985E+02  0.40000010960E+02 0.  0.
         12    1    3    3    0    0 -0.20542044818E+02  0.26706936529E+02 -0.14850704491E+02  0.36820911015E+02  0.00000000000E+00 0. -1.
         11    1    4    4    0    0 -0.64165989996E+01 -0.42863127784E+01  0.80954874161E+01  0.11184012550E+02  0.51100000000E-03 0. -1.
        -11    1    4    4    0    0  0.18668764371E+02 -0.26359468579E+02  0.93343542496E+00  0.32314325753E+02  0.51100000000E-03 0.  1.
         12    1    4    4    0    0  0.82898794466E+01  0.39388448284E+01  0.58217816496E+01  0.10868750682E+02  0.00000000000E+00 0. -1.
</event>
<event>
 8    1  0.2502398E-006  0.9118800E+02  0.7816164E-02  0.1184000E+00
        -11   -1    0    0    0    0  0.00000000000E+00  0.00000000000E+00  0.45593999997E+02  0.45594000000E+02  0.51100000000E-03 0.  1.
         11   -1    0    0    0    0 -0.00000000000E+00 -0.00000000000E+00 -0.45593999997E+02  0.45594000000E+02  0.51100000000E-03 0. -1.
         23    2    1    2    0    0  0.44408920985E-15 -0.71054273576E-14 -0.35527136788E-14  0.91188000000E+02  0.91188000000E+02 0.  0.
    9900012    2    3    3    0    0 -0.30144749959E+01 -0.32387788773E+02 -0.17254664586E+02  0.54367090572E+02  0.40000014578E+02 0.  0.
        -12    1    3    3    0    0  0.30144749959E+01  0.32387788773E+02  0.17254664586E+02  0.36820909428E+02  0.00000000000E+00 0.  1.
         11    1    4    4    0    0  0.47174882637E+01 -0.11114330648E+02 -0.17718842474E+02  0.21441558249E+02  0.51100000000E-03 0. -1.
        -11    1    4    4    0    0  0.61941251113E+01 -0.38998452883E+01 -0.62970843978E+01  0.96555295733E+01  0.51100000000E-03 0.  1.
        -12    1    4    4    0    0 -0.13926088371E+02 -0.17373612836E+02  0.67612622852E+01  0.23270002750E+02  0.00000000000E+00 0.  1.
</event>
<event>
 8    1  0.2502398E-006  0.9118800E+02  0.7816164E-02  0.1184000E+00
        -11   -1    0    0    0    0  0.00000000000E+00  0.00000000000E+00  0.45593999997E+02  0.45594000000E+02  0.51100000000E-03 0. -1.
         11   -1    0    0    0    0 -0.00000000000E+00 -0.00000000000E+00 -0.45593999997E+02  0.45594000000E+02  0.51100000000E-03 0.  1.
         23    2    1    2    0    0  0.00000000000E+00  0.00000000000E+00  0.00000000000E+00  0.91188000000E+02  0.91188000000E+02 0.  0.
    9900012    2    3    3    0    0  0.40133249098E+01 -0.17385417115E+02 -0.32209017695E+02  0.54367077606E+02  0.39999985018E+02 0.  0.
         12    1    3    3    0    0 -0.40133249098E+01  0.17385417115E+02  0.32209017695E+02  0.36820922394E+02  0.00000000000E+00 0. -1.
         11    1    4    4    0    0  0.61069142550E+01 -0.66765645725E+01  0.29079510312E+01  0.95040568007E+01  0.51100000000E-03 0. -1.
        -11    1    4    4    0    0 -0.12611423718E+02 -0.61946914554E+01 -0.99541219818E+01  0.17219371508E+02  0.51100000000E-03 0.  1.
         12    1    4    4    0    0  0.10517834373E+02 -0.45141610875E+01 -0.25162846744E+02  0.27643649298E+02  0.00000000000E+00 0. -1.
</event>
<event>
 8    1  0.2502398E-006  0.9118800E+02  0.7816164E-02  0.1184000E+00
        -11   -1    0    0    0    0  0.00000000000E+00  0.00000000000E+00  0.45593999997E+02  0.45594000000E+02  0.51100000000E-03 0.  1.
         11   -1    0    0    0    0 -0.00000000000E+00 -0.00000000000E+00 -0.45593999997E+02  0.45594000000E+02  0.51100000000E-03 0. -1.
         23    2    1    2    0    0  0.00000000000E+00 -0.17763568394E-14  0.00000000000E+00  0.91188000000E+02  0.91188000000E+02 0.  0.
    9900012    2    3    3    0    0 -0.23612903087E+02  0.11179266469E+02  0.25946791523E+02  0.54367065991E+02  0.39999958539E+02 0.  0.
         12    1    3    3    0    0  0.23612903087E+02 -0.11179266469E+02 -0.25946791523E+02  0.36820934009E+02  0.00000000000E+00 0. -1.
         11    1    4    4    0    0  0.12586691681E+01 -0.65044504519E+01  0.26373869367E+01  0.71307737218E+01  0.51100000000E-03 0. -1.
        -11    1    4    4    0    0  0.48374732918E+01  0.17630469783E+01  0.95111288123E+01  0.10815315716E+02  0.51100000000E-03 0.  1.
        -12    1    4    4    0    0 -0.29709045547E+02  0.15920669943E+02  0.13798275774E+02  0.36420976553E+02  0.00000000000E+00 0.  1.
</event>
<event>
 8    1  0.2502398E-006  0.9118800E+02  0.7816164E-02  0.1184000E+00
        -11   -1    0    0    0    0  0.00000000000E+00  0.00000000000E+00  0.45593999997E+02  0.45594000000E+02  0.51100000000E-03 0.  1.
         11   -1    0    0    0    0 -0.00000000000E+00 -0.00000000000E+00 -0.45593999997E+02  0.45594000000E+02  0.51100000000E-03 0. -1.
         23    2    1    2    0    0 -0.66613381478E-15  0.00000000000E+00 -0.71054273576E-14  0.91188000000E+02  0.91188000000E+02 0.  0.
    9900012    2    3    3    0    0 -0.18911800193E+01  0.48663190998E+01  0.36448900732E+02  0.54367082195E+02  0.39999995480E+02 0.  0.
         12    1    3    3    0    0  0.18911800193E+01 -0.48663190998E+01 -0.36448900732E+02  0.36820917805E+02  0.00000000000E+00 0. -1.
         11    1    4    4    0    0 -0.18037111748E+01 -0.67657417753E+01  0.14169801786E+01  0.71439813031E+01  0.51100000000E-03 0. -1.
        -11    1    4    4    0    0 -0.86449043291E+01  0.31979559525E+01 -0.97076906479E+00  0.92684241364E+01  0.51100000000E-03 0.  1.
        -12    1    4    4    0    0  0.85574354846E+01  0.84341049226E+01  0.36002689618E+02  0.37954676756E+02  0.00000000000E+00 0.  1.
</event>
<event>
 8    1  0.2502398E-006  0.9118800E+02  0.7816164E-02  0.1184000E+00
        -11   -1    0    0    0    0  0.00000000000E+00  0.00000000000E+00  0.45593999997E+02  0.45594000000E+02  0.51100000000E-03 0. -1.
         11   -1    0    0    0    0 -0.00000000000E+00 -0.00000000000E+00 -0.45593999997E+02  0.45594000000E+02  0.51100000000E-03 0.  1.
         23    2    1    2    0    0 -0.17763568394E-14  0.00000000000E+00  0.00000000000E+00  0.91188000000E+02  0.91188000000E+02 0.  0.
    9900012    2    3    3    0    0  0.10866557831E+02  0.87648708407E+01 -0.34071609464E+02  0.54367087309E+02  0.40000007139E+02 0.  0.
         12    1    3    3    0    0 -0.10866557831E+02 -0.87648708407E+01  0.34071609464E+02  0.36820912691E+02  0.00000000000E+00 0. -1.
         11    1    4    4    0    0  0.34719184730E+01  0.10513673339E+01  0.59203571584E+01  0.69433579987E+01  0.51100000000E-03 0. -1.
        -11    1    4    4    0    0  0.15809736123E+02  0.48272273171E+01 -0.24397290145E+02  0.29469944801E+02  0.51100000000E-03 0.  1.
        -12    1    4    4    0    0 -0.84150967651E+01  0.28862761896E+01 -0.15594676477E+02  0.17953784510E+02  0.00000000000E+00 0.  1.
</event>
<event>
 8    1  0.2502398E-006  0.9118800E+02  0.7816164E-02  0.1184000E+00
        -11   -1    0    0    0    0  0.00000000000E+00  0.00000000000E+00  0.45593999997E+02  0.45594000000E+02  0.51100000000E-03 0. -1.
         11   -1    0    0    0    0 -0.00000000000E+00 -0.00000000000E+00 -0.45593999997E+02  0.45594000000E+02  0.51100000000E-03 0.  1.
         23    2    1    2    0    0 -0.53290705182E-14 -0.17763568394E-14  0.71054273576E-14  0.91188000000E+02  0.91188000000E+02 0.  0.
    9900012    2    3    3    0    0 -0.13723189300E+02 -0.11657175142E+02  0.32117980844E+02  0.54367077274E+02  0.39999984262E+02 0.  0.
        -12    1    3    3    0    0  0.13723189300E+02  0.11657175142E+02 -0.32117980844E+02  0.36820922726E+02  0.00000000000E+00 0.  1.
         11    1    4    4    0    0 -0.10956671952E+02 -0.83955678784E+01  0.31885954883E+02  0.34745479408E+02  0.51100000000E-03 0. -1.
        -11    1    4    4    0    0  0.46352868321E+01  0.23577712916E+01 -0.63690741551E+01  0.82225346052E+01  0.51100000000E-03 0.  1.
        -12    1    4    4    0    0 -0.74018041803E+01 -0.56193785548E+01  0.66011001170E+01  0.11399063261E+02  0.00000000000E+00 0.  1.
</event>
<event>
 8    1  0.2502398E-006  0.9118800E+02  0.7816164E-02  0.1184000E+00
        -11   -1    0    0    0    0  0.00000000000E+00  0.00000000000E+00  0.45593999997E+02  0.45594000000E+02  0.51100000000E-03 0.  1.
         11   -1    0    0    0    0 -0.00000000000E+00 -0.00000000000E+00 -0.45593999997E+02  0.45594000000E+02  0.51100000000E-03 0. -1.
         23    2    1    2    0    0 -0.71054273576E-14  0.00000000000E+00 -0.35527136788E-14  0.91188000000E+02  0.91188000000E+02 0.  0.
    9900012    2    3    3    0    0 -0.22633361957E+02 -0.11133241654E+02 -0.26824642507E+02  0.54367087616E+02  0.40000007837E+02 0.  0.
        -12    1    3    3    0    0  0.22633361957E+02  0.11133241654E+02  0.26824642507E+02  0.36820912384E+02  0.00000000000E+00 0.  1.
         11    1    4    4    0    0 -0.43713890565E+01 -0.19310272670E+02 -0.25177820929E+02  0.32029960035E+02  0.51100000000E-03 0. -1.
        -11    1    4    4    0    0 -0.65137343174E+00  0.31477988714E+00 -0.29208733635E+01  0.30091319665E+01  0.51100000000E-03 0.  1.
         12    1    4    4    0    0 -0.17610599469E+02  0.78622511293E+01  0.12740517860E+01  0.19327995614E+02  0.00000000000E+00 0. -1.
</event>
<event>
 8    1  0.2502398E-006  0.9118800E+02  0.7816164E-02  0.1184000E+00
        -11   -1    0    0    0    0  0.00000000000E+00  0.00000000000E+00  0.45593999997E+02  0.45594000000E+02  0.51100000000E-03 0. -1.
         11   -1    0    0    0    0 -0.00000000000E+00 -0.00000000000E+00 -0.45593999997E+02  0.45594000000E+02  0.51100000000E-03 0.  1.
         23    2    1    2    0    0  0.00000000000E+00 -0.35527136788E-14  0.00000000000E+00  0.91188000000E+02  0.91188000000E+02 0.  0.
    9900012    2    3    3    0    0 -0.14384365229E+02 -0.22069102595E+02  0.25725915730E+02  0.54367109292E+02  0.40000057253E+02 0.  0.
        -12    1    3    3    0    0  0.14384365229E+02  0.22069102595E+02 -0.25725915730E+02  0.36820890708E+02  0.00000000000E+00 0.  1.
         11    1    4    4    0    0  0.54087553360E+01 -0.49058277242E+01  0.26509019200E+02  0.27496361199E+02  0.51100000000E-03 0. -1.
        -11    1    4    4    0    0 -0.33199667614E+01 -0.61062378905E+01  0.64012910171E+00  0.69798342388E+01  0.51100000000E-03 0.  1.
         12    1    4    4    0    0 -0.16473153804E+02 -0.11057036980E+02 -0.14232325717E+01  0.19890913855E+02  0.00000000000E+00 0. -1.
</event>
<event>
 8    1  0.2502398E-006  0.9118800E+02  0.7816164E-02  0.1184000E+00
        -11   -1    0    0    0    0  0.00000000000E+00  0.00000000000E+00  0.45593999997E+02  0.45594000000E+02  0.51100000000E-03 0. -1.
         11   -1    0    0    0    0 -0.00000000000E+00 -0.00000000000E+00 -0.45593999997E+02  0.45594000000E+02  0.51100000000E-03 0.  1.
         23    2    1    2    0    0  0.00000000000E+00 -0.16653345369E-15  0.00000000000E+00  0.91188000000E+02  0.91188000000E+02 0.  0.
    9900012    2    3    3    0    0 -0.35867804666E+02  0.39144189322E+00 -0.83142699390E+01  0.54367085795E+02  0.40000003686E+02 0.  0.
        -12    1    3    3    0    0  0.35867804666E+02 -0.39144189322E+00  0.83142699390E+01  0.36820914205E+02  0.00000000000E+00 0.  1.
         11    1    4    4    0    0  0.47527477083E+01 -0.45864406215E+01 -0.79714551133E-01  0.66053314091E+01  0.51100000000E-03 0. -1.
        -11    1    4    4    0    0  0.16841718085E+01 -0.13820928579E+01  0.28323479655E+01  0.35733472553E+01  0.51100000000E-03 0.  1.
         12    1    4    4    0    0 -0.42304724182E+02  0.63599753726E+01 -0.11066903353E+02  0.44188407130E+02  0.00000000000E+00 0. -1.
</event>
<event>
 8    1  0.2502398E-006  0.9118800E+02  0.7816164E-02  0.1184000E+00
        -11   -1    0    0    0    0  0.00000000000E+00  0.00000000000E+00  0.45593999997E+02  0.45594000000E+02  0.51100000000E-03 0.  1.
         11   -1    0    0    0    0 -0.00000000000E+00 -0.00000000000E+00 -0.45593999997E+02  0.45594000000E+02  0.51100000000E-03 0. -1.
         23    2    1    2    0    0 -0.17763568394E-14 -0.17763568394E-14  0.00000000000E+00  0.91188000000E+02  0.91188000000E+02 0.  0.
    9900012    2    3    3    0    0  0.94089242511E+01 -0.13145441949E+02 -0.33082468783E+02  0.54367078768E+02  0.39999987667E+02 0.  0.
        -12    1    3    3    0    0 -0.94089242511E+01  0.13145441949E+02  0.33082468783E+02  0.36820921232E+02  0.00000000000E+00 0.  1.
         11    1    4    4    0    0 -0.65057472755E+01 -0.52786747237E+01  0.49662202129E+01  0.97392247081E+01  0.51100000000E-03 0. -1.
        -11    1    4    4    0    0  0.14930487991E+02 -0.11502391024E+02 -0.26787987080E+02  0.32753942098E+02  0.51100000000E-03 0.  1.
         12    1    4    4    0    0  0.98418353609E+00  0.36356237981E+01 -0.11260701916E+02  0.11873911962E+02  0.00000000000E+00 0. -1.
</event>
<event>
 8    1  0.2502398E-006  0.9118800E+02  0.7816164E-02  0.1184000E+00
        -11   -1    0    0    0    0  0.00000000000E+00  0.00000000000E+00  0.45593999997E+02  0.45594000000E+02  0.51100000000E-03 0. -1.
         11   -1    0    0    0    0 -0.00000000000E+00 -0.00000000000E+00 -0.45593999997E+02  0.45594000000E+02  0.51100000000E-03 0.  1.
         23    2    1    2    0    0  0.44408920985E-15  0.22204460493E-15  0.71054273576E-14  0.91188000000E+02  0.91188000000E+02 0.  0.
    9900012    2    3    3    0    0 -0.28770483797E+01  0.18821204324E+01 -0.36660024954E+02  0.54367119859E+02  0.40000081343E+02 0.  0.
         12    1    3    3    0    0  0.28770483797E+01 -0.18821204324E+01  0.36660024954E+02  0.36820880141E+02  0.00000000000E+00 0. -1.
         11    1    4    4    0    0 -0.18032001886E+02 -0.26050165574E+01 -0.11452272285E+02  0.21519613009E+02  0.51100000000E-03 0. -1.
        -11    1    4    4    0    0  0.76422971053E+01  0.21471816705E+01 -0.23487949991E+02  0.24793121812E+02  0.51100000000E-03 0.  1.
         12    1    4    4    0    0  0.75126564008E+01  0.23399553194E+01 -0.17198026779E+01  0.80543850383E+01  0.00000000000E+00 0. -1.
</event>
<event>
 8    1  0.2502398E-006  0.9118800E+02  0.7816164E-02  0.1184000E+00
        -11   -1    0    0    0    0  0.00000000000E+00  0.00000000000E+00  0.45593999997E+02  0.45594000000E+02  0.51100000000E-03 0.  1.
         11   -1    0    0    0    0 -0.00000000000E+00 -0.00000000000E+00 -0.45593999997E+02  0.45594000000E+02  0.51100000000E-03 0. -1.
         23    2    1    2    0    0  0.00000000000E+00  0.00000000000E+00 -0.35527136788E-14  0.91188000000E+02  0.91188000000E+02 0.  0.
    9900012    2    3    3    0    0 -0.18778305436E+02 -0.88327110147E+01  0.30416066802E+02  0.54367100247E+02  0.40000036634E+02 0.  0.
         12    1    3    3    0    0  0.18778305436E+02  0.88327110147E+01 -0.30416066802E+02  0.36820899753E+02  0.00000000000E+00 0. -1.
         11    1    4    4    0    0  0.15874103890E+01 -0.81156824625E+01 -0.67161252917E+01  0.10653192609E+02  0.51100000000E-03 0. -1.
        -11    1    4    4    0    0 -0.14840374844E+02 -0.48050079658E+01  0.20840733699E+02  0.26031922872E+02  0.51100000000E-03 0.  1.
         12    1    4    4    0    0 -0.55253409806E+01  0.40879794136E+01  0.16291458395E+02  0.17681984766E+02  0.00000000000E+00 0. -1.
</event>
<event>
 8    1  0.2502398E-006  0.9118800E+02  0.7816164E-02  0.1184000E+00
        -11   -1    0    0    0    0  0.00000000000E+00  0.00000000000E+00  0.45593999997E+02  0.45594000000E+02  0.51100000000E-03 0.  1.
         11   -1    0    0    0    0 -0.00000000000E+00 -0.00000000000E+00 -0.45593999997E+02  0.45594000000E+02  0.51100000000E-03 0. -1.
         23    2    1    2    0    0  0.00000000000E+00  0.35527136788E-14  0.35527136788E-14  0.91188000000E+02  0.91188000000E+02 0.  0.
    9900012    2    3    3    0    0 -0.50458232552E+01  0.25646591298E+02 -0.25933985018E+02  0.54367088056E+02  0.40000008840E+02 0.  0.
        -12    1    3    3    0    0  0.50458232552E+01 -0.25646591298E+02  0.25933985018E+02  0.36820911944E+02  0.00000000000E+00 0.  1.
         11    1    4    4    0    0 -0.14747389407E+02  0.10238738985E+01 -0.62475435976E+01  0.16048850842E+02  0.51100000000E-03 0. -1.
        -11    1    4    4    0    0  0.13676271913E+02  0.14457036042E+02 -0.18784221983E+02  0.27365914937E+02  0.51100000000E-03 0.  1.
         12    1    4    4    0    0 -0.39747057618E+01  0.10165681357E+02 -0.90221943738E+00  0.10952322277E+02  0.00000000000E+00 0. -1.
</event>
<event>
 8    1  0.2502398E-006  0.9118800E+02  0.7816164E-02  0.1184000E+00
        -11   -1    0    0    0    0  0.00000000000E+00  0.00000000000E+00  0.45593999997E+02  0.45594000000E+02  0.51100000000E-03 0.  1.
         11   -1    0    0    0    0 -0.00000000000E+00 -0.00000000000E+00 -0.45593999997E+02  0.45594000000E+02  0.51100000000E-03 0. -1.
         23    2    1    2    0    0  0.44408920985E-15  0.35527136788E-14  0.35527136788E-14  0.91188000000E+02  0.91188000000E+02 0.  0.
    9900012    2    3    3    0    0 -0.22352396601E+01  0.25024587422E+02  0.26917497237E+02  0.54367110148E+02  0.40000059204E+02 0.  0.
         12    1    3    3    0    0  0.22352396601E+01 -0.25024587422E+02 -0.26917497237E+02  0.36820889852E+02  0.00000000000E+00 0. -1.
         11    1    4    4    0    0 -0.68749149794E+01  0.66070097089E+01  0.86973124706E+00  0.95746261531E+01  0.51100000000E-03 0. -1.
        -11    1    4    4    0    0 -0.12267814169E+02  0.65304280118E+01  0.17695540117E+02  0.22500619876E+02  0.51100000000E-03 0.  1.
        -12    1    4    4    0    0  0.16907489489E+02  0.11887149702E+02  0.83522258727E+01  0.22291864118E+02  0.00000000000E+00 0.  1.
</event>
<event>
 8    1  0.2502398E-006  0.9118800E+02  0.7816164E-02  0.1184000E+00
        -11   -1    0    0    0    0  0.00000000000E+00  0.00000000000E+00  0.45593999997E+02  0.45594000000E+02  0.51100000000E-03 0.  1.
         11   -1    0    0    0    0 -0.00000000000E+00 -0.00000000000E+00 -0.45593999997E+02  0.45594000000E+02  0.51100000000E-03 0. -1.
         23    2    1    2    0    0  0.00000000000E+00  0.00000000000E+00  0.00000000000E+00  0.91188000000E+02  0.91188000000E+02 0.  0.
    9900012    2    3    3    0    0  0.13794160918E+02  0.11733822036E+02  0.32059599498E+02  0.54367090520E+02  0.40000014458E+02 0.  0.
         12    1    3    3    0    0 -0.13794160918E+02 -0.11733822036E+02 -0.32059599498E+02  0.36820909480E+02  0.00000000000E+00 0. -1.
         11    1    4    4    0    0 -0.10456652423E+02  0.29640252583E+01  0.18519188922E+02  0.21472945401E+02  0.51100000000E-03 0. -1.
        -11    1    4    4    0    0  0.54943977032E+01  0.58431782860E+01 -0.21073729520E+01  0.82928981438E+01  0.51100000000E-03 0.  1.
         12    1    4    4    0    0  0.18756415638E+02  0.29266184919E+01  0.15647783528E+02  0.24601246975E+02  0.00000000000E+00 0. -1.
</event>
<event>
 8    1  0.2502398E-006  0.9118800E+02  0.7816164E-02  0.1184000E+00
        -11   -1    0    0    0    0  0.00000000000E+00  0.00000000000E+00  0.45593999997E+02  0.45594000000E+02  0.51100000000E-03 0.  1.
         11   -1    0    0    0    0 -0.00000000000E+00 -0.00000000000E+00 -0.45593999997E+02  0.45594000000E+02  0.51100000000E-03 0. -1.
         23    2    1    2    0    0 -0.17763568394E-14 -0.35527136788E-14 -0.35527136788E-14  0.91188000000E+02  0.91188000000E+02 0.  0.
    9900012    2    3    3    0    0 -0.12501066199E+02  0.26020189675E+02  0.22857167069E+02  0.54367122590E+02  0.40000087569E+02 0.  0.
         12    1    3    3    0    0  0.12501066199E+02 -0.26020189675E+02 -0.22857167069E+02  0.36820877410E+02  0.00000000000E+00 0. -1.
         11    1    4    4    0    0 -0.34146148873E+01  0.93054553354E+01  0.25577134087E+02  0.27430655883E+02  0.51100000000E-03 0. -1.
        -11    1    4    4    0    0 -0.13709220708E+02  0.57565345124E+01 -0.81100148192E+00  0.14890874577E+02  0.51100000000E-03 0.  1.
         12    1    4    4    0    0  0.46227693962E+01  0.10958199827E+02 -0.19089655362E+01  0.12045592130E+02  0.00000000000E+00 0. -1.
</event>
<event>
 8    1  0.2502398E-006  0.9118800E+02  0.7816164E-02  0.1184000E+00
        -11   -1    0    0    0    0  0.00000000000E+00  0.00000000000E+00  0.45593999997E+02  0.45594000000E+02  0.51100000000E-03 0. -1.
         11   -1    0    0    0    0 -0.00000000000E+00 -0.00000000000E+00 -0.45593999997E+02  0.45594000000E+02  0.51100000000E-03 0.  1.
         23    2    1    2    0    0  0.00000000000E+00  0.00000000000E+00  0.35527136788E-14  0.91188000000E+02  0.91188000000E+02 0.  0.
    9900012    2    3    3    0    0 -0.16975622787E+02 -0.16646503853E+02  0.28115843650E+02  0.54367102079E+02  0.40000040810E+02 0.  0.
        -12    1    3    3    0    0  0.16975622787E+02  0.16646503853E+02 -0.28115843650E+02  0.36820897921E+02  0.00000000000E+00 0.  1.
         11    1    4    4    0    0 -0.24220742976E+02 -0.14469218966E+02  0.15734690750E+02  0.32304538087E+02  0.51100000000E-03 0. -1.
        -11    1    4    4    0    0  0.85837154059E+01 -0.80855782186E+01  0.58819797854E+01  0.13177800718E+02  0.51100000000E-03 0.  1.
        -12    1    4    4    0    0 -0.13385952170E+01  0.59082933324E+01  0.64991731153E+01  0.88847632743E+01  0.00000000000E+00 0.  1.
</event>
<event>
 8    1  0.2502398E-006  0.9118800E+02  0.7816164E-02  0.1184000E+00
        -11   -1    0    0    0    0  0.00000000000E+00  0.00000000000E+00  0.45593999997E+02  0.45594000000E+02  0.51100000000E-03 0.  1.
         11   -1    0    0    0    0 -0.00000000000E+00 -0.00000000000E+00 -0.45593999997E+02  0.45594000000E+02  0.51100000000E-03 0. -1.
         23    2    1    2    0    0  0.00000000000E+00 -0.35527136788E-14  0.00000000000E+00  0.91188000000E+02  0.91188000000E+02 0.  0.
    9900012    2    3    3    0    0  0.77420442384E+01 -0.18020165694E+02  0.31162718803E+02  0.54367073018E+02  0.39999974559E+02 0.  0.
         12    1    3    3    0    0 -0.77420442384E+01  0.18020165694E+02 -0.31162718803E+02  0.36820926982E+02  0.00000000000E+00 0. -1.
         11    1    4    4    0    0  0.11509893162E+01  0.10248676750E+02 -0.79209310497E+00  0.10343479263E+02  0.51100000000E-03 0. -1.
        -11    1    4    4    0    0 -0.15365216485E+00 -0.12756961727E+02  0.18178258463E+02  0.22208393965E+02  0.51100000000E-03 0.  1.
         12    1    4    4    0    0  0.67447070871E+01 -0.15511880716E+02  0.13776553445E+02  0.21815199790E+02  0.00000000000E+00 0. -1.
</event>
<event>
 8    1  0.2502398E-006  0.9118800E+02  0.7816164E-02  0.1184000E+00
        -11   -1    0    0    0    0  0.00000000000E+00  0.00000000000E+00  0.45593999997E+02  0.45594000000E+02  0.51100000000E-03 0.  1.
         11   -1    0    0    0    0 -0.00000000000E+00 -0.00000000000E+00 -0.45593999997E+02  0.45594000000E+02  0.51100000000E-03 0. -1.
         23    2    1    2    0    0 -0.88817841970E-15  0.53290705182E-14  0.71054273576E-14  0.91188000000E+02  0.91188000000E+02 0.  0.
    9900012    2    3    3    0    0 -0.47721820037E+01 -0.13113487083E+02 -0.34074063724E+02  0.54367094481E+02  0.40000023488E+02 0.  0.
        -12    1    3    3    0    0  0.47721820037E+01  0.13113487083E+02  0.34074063724E+02  0.36820905519E+02  0.00000000000E+00 0.  1.
         11    1    4    4    0    0 -0.97143283760E+01 -0.17411550139E+02 -0.86190757908E+01  0.21721388579E+02  0.51100000000E-03 0.  1.
        -11    1    4    4    0    0  0.45024815274E+01 -0.59400131140E+01 -0.19306086673E+02  0.20694952974E+02  0.51100000000E-03 0. -1.
        -12    1    4    4    0    0  0.43966484489E+00  0.10238076170E+02 -0.61489012605E+01  0.11950752929E+02  0.00000000000E+00 0.  1.
</event>
<event>
 8    1  0.2502398E-006  0.9118800E+02  0.7816164E-02  0.1184000E+00
        -11   -1    0    0    0    0  0.00000000000E+00  0.00000000000E+00  0.45593999997E+02  0.45594000000E+02  0.51100000000E-03 0.  1.
         11   -1    0    0    0    0 -0.00000000000E+00 -0.00000000000E+00 -0.45593999997E+02  0.45594000000E+02  0.51100000000E-03 0. -1.
         23    2    1    2    0    0 -0.35527136788E-14  0.35527136788E-14  0.35527136788E-14  0.91188000000E+02  0.91188000000E+02 0.  0.
    9900012    2    3    3    0    0  0.24645704774E+02 -0.21256965351E+02 -0.17219496831E+02  0.54367076453E+02  0.39999982390E+02 0.  0.
        -12    1    3    3    0    0 -0.24645704774E+02  0.21256965351E+02  0.17219496831E+02  0.36820923547E+02  0.00000000000E+00 0.  1.
         11    1    4    4    0    0  0.15456761864E+02 -0.10612848385E+02  0.10807456087E+01  0.18780629635E+02  0.51100000000E-03 0. -1.
        -11    1    4    4    0    0 -0.45049002966E+01 -0.18228332259E+01  0.51195912201E+01  0.70588286686E+01  0.51100000000E-03 0.  1.
         12    1    4    4    0    0  0.13693843207E+02 -0.88212837398E+01 -0.23419833660E+02  0.28527618149E+02  0.00000000000E+00 0. -1.
</event>
<event>
 8    1  0.2502398E-006  0.9118800E+02  0.7816164E-02  0.1184000E+00
        -11   -1    0    0    0    0  0.00000000000E+00  0.00000000000E+00  0.45593999997E+02  0.45594000000E+02  0.51100000000E-03 0.  1.
         11   -1    0    0    0    0 -0.00000000000E+00 -0.00000000000E+00 -0.45593999997E+02  0.45594000000E+02  0.51100000000E-03 0. -1.
         23    2    1    2    0    0  0.00000000000E+00  0.17763568394E-14  0.71054273576E-14  0.91188000000E+02  0.91188000000E+02 0.  0.
    9900012    2    3    3    0    0 -0.14797707015E+02 -0.12593061403E+02 -0.31276582116E+02  0.54367055997E+02  0.39999935757E+02 0.  0.
        -12    1    3    3    0    0  0.14797707015E+02  0.12593061403E+02  0.31276582116E+02  0.36820944003E+02  0.00000000000E+00 0.  1.
         11    1    4    4    0    0 -0.39162151528E+01  0.55896409078E+01 -0.61215458799E+01  0.91681050835E+01  0.51100000000E-03 0. -1.
        -11    1    4    4    0    0  0.22929857562E+01  0.74850014357E+01 -0.97131592044E+01  0.12475114916E+02  0.51100000000E-03 0.  1.
         12    1    4    4    0    0 -0.13174477619E+02 -0.25667703747E+02 -0.15441877031E+02  0.32723835998E+02  0.00000000000E+00 0. -1.
</event>
<event>
 8    1  0.2502398E-006  0.9118800E+02  0.7816164E-02  0.1184000E+00
        -11   -1    0    0    0    0  0.00000000000E+00  0.00000000000E+00  0.45593999997E+02  0.45594000000E+02  0.51100000000E-03 0.  1.
         11   -1    0    0    0    0 -0.00000000000E+00 -0.00000000000E+00 -0.45593999997E+02  0.45594000000E+02  0.51100000000E-03 0. -1.
         23    2    1    2    0    0  0.17763568394E-14 -0.35527136788E-14  0.00000000000E+00  0.91188000000E+02  0.91188000000E+02 0.  0.
    9900012    2    3    3    0    0 -0.77512192835E+01  0.24924480526E+02  0.25970548741E+02  0.54367074811E+02  0.39999978647E+02 0.  0.
         12    1    3    3    0    0  0.77512192835E+01 -0.24924480526E+02 -0.25970548741E+02  0.36820925189E+02  0.00000000000E+00 0. -1.
         11    1    4    4    0    0  0.11930740811E+02  0.43942225249E+01  0.38142178805E+00  0.12719954825E+02  0.51100000000E-03 0.  1.
        -11    1    4    4    0    0 -0.13998992802E+02  0.14571108106E+02  0.71173411271E+01  0.21423014164E+02  0.51100000000E-03 0. -1.
         12    1    4    4    0    0 -0.56829672928E+01  0.59591498943E+01  0.18471785826E+02  0.20224105822E+02  0.00000000000E+00 0. -1.
</event>
<event>
 8    1  0.2502398E-006  0.9118800E+02  0.7816164E-02  0.1184000E+00
        -11   -1    0    0    0    0  0.00000000000E+00  0.00000000000E+00  0.45593999997E+02  0.45594000000E+02  0.51100000000E-03 0. -1.
         11   -1    0    0    0    0 -0.00000000000E+00 -0.00000000000E+00 -0.45593999997E+02  0.45594000000E+02  0.51100000000E-03 0.  1.
         23    2    1    2    0    0  0.00000000000E+00  0.00000000000E+00  0.00000000000E+00  0.91188000000E+02  0.91188000000E+02 0.  0.
    9900012    2    3    3    0    0  0.18325295670E+02 -0.29608156139E+02  0.11971680429E+02  0.54367075193E+02  0.39999979517E+02 0.  0.
         12    1    3    3    0    0 -0.18325295670E+02  0.29608156139E+02 -0.11971680429E+02  0.36820924807E+02  0.00000000000E+00 0. -1.
         11    1    4    4    0    0  0.13519217020E+00 -0.27819778569E+02  0.49518239231E+01  0.28257369251E+02  0.51100000000E-03 0. -1.
        -11    1    4    4    0    0  0.29116985378E+01 -0.70605212881E+01 -0.15839395096E+01  0.77998598619E+01  0.51100000000E-03 0.  1.
         12    1    4    4    0    0  0.15278404962E+02  0.52721437183E+01  0.86037960155E+01  0.18309846080E+02  0.00000000000E+00 0. -1.
</event>
<event>
 8    1  0.2502398E-006  0.9118800E+02  0.7816164E-02  0.1184000E+00
        -11   -1    0    0    0    0  0.00000000000E+00  0.00000000000E+00  0.45593999997E+02  0.45594000000E+02  0.51100000000E-03 0. -1.
         11   -1    0    0    0    0 -0.00000000000E+00 -0.00000000000E+00 -0.45593999997E+02  0.45594000000E+02  0.51100000000E-03 0.  1.
         23    2    1    2    0    0 -0.35527136788E-14  0.00000000000E+00  0.00000000000E+00  0.91188000000E+02  0.91188000000E+02 0.  0.
    9900012    2    3    3    0    0  0.12836959534E+02  0.26020083173E+02  0.22670761643E+02  0.54366868949E+02  0.39999509340E+02 0.  0.
         12    1    3    3    0    0 -0.12836959534E+02 -0.26020083173E+02 -0.22670761643E+02  0.36821131051E+02  0.00000000000E+00 0. -1.
         11    1    4    4    0    0 -0.58599294700E+01  0.10179907937E+01  0.18325634980E+02  0.19266654518E+02  0.51100000000E-03 0. -1.
        -11    1    4    4    0    0 -0.28355019492E+00  0.91394252373E+01 -0.24140689997E+01  0.94571255557E+01  0.51100000000E-03 0.  1.
         12    1    4    4    0    0  0.18980439199E+02  0.15862667142E+02  0.67591956632E+01  0.25643088875E+02  0.00000000000E+00 0. -1.
</event>
<event>
 8    1  0.2502398E-006  0.9118800E+02  0.7816164E-02  0.1184000E+00
        -11   -1    0    0    0    0  0.00000000000E+00  0.00000000000E+00  0.45593999997E+02  0.45594000000E+02  0.51100000000E-03 0. -1.
         11   -1    0    0    0    0 -0.00000000000E+00 -0.00000000000E+00 -0.45593999997E+02  0.45594000000E+02  0.51100000000E-03 0.  1.
         23    2    1    2    0    0 -0.35527136788E-14 -0.35527136788E-14  0.00000000000E+00  0.91188000000E+02  0.91188000000E+02 0.  0.
    9900012    2    3    3    0    0 -0.22641414646E+02 -0.28932706173E+02  0.24586958679E+01  0.54367077564E+02  0.39999984922E+02 0.  0.
        -12    1    3    3    0    0  0.22641414646E+02  0.28932706173E+02 -0.24586958679E+01  0.36820922436E+02  0.00000000000E+00 0.  1.
         11    1    4    4    0    0  0.24280845725E+01 -0.52621445619E+01  0.17785454600E+01  0.60620940520E+01  0.51100000000E-03 0. -1.
        -11    1    4    4    0    0 -0.49126425792E+01  0.85534434232E+01  0.27488614501E+01  0.10239711472E+02  0.51100000000E-03 0.  1.
        -12    1    4    4    0    0 -0.20156856639E+02 -0.32224005035E+02 -0.20687110421E+01  0.38065272039E+02  0.00000000000E+00 0.  1.
</event>
<event>
 8    1  0.2502398E-006  0.9118800E+02  0.7816164E-02  0.1184000E+00
        -11   -1    0    0    0    0  0.00000000000E+00  0.00000000000E+00  0.45593999997E+02  0.45594000000E+02  0.51100000000E-03 0. -1.
         11   -1    0    0    0    0 -0.00000000000E+00 -0.00000000000E+00 -0.45593999997E+02  0.45594000000E+02  0.51100000000E-03 0.  1.
         23    2    1    2    0    0  0.00000000000E+00 -0.17763568394E-14  0.00000000000E+00  0.91188000000E+02  0.91188000000E+02 0.  0.
    9900012    2    3    3    0    0 -0.10033061793E+02 -0.99648378097E+01  0.33997344965E+02  0.54367084935E+02  0.40000001727E+02 0.  0.
        -12    1    3    3    0    0  0.10033061793E+02  0.99648378097E+01 -0.33997344965E+02  0.36820915065E+02  0.00000000000E+00 0.  1.
         11    1    4    4    0    0  0.11193784982E+01 -0.78496729055E+01  0.15218281150E+02  0.17160024894E+02  0.51100000000E-03 0. -1.
        -11    1    4    4    0    0  0.97785666067E+01 -0.48227860791E+01  0.78872341365E+01  0.13456897601E+02  0.51100000000E-03 0.  1.
         12    1    4    4    0    0 -0.20931006898E+02  0.27076211749E+01  0.10891829678E+02  0.23750162440E+02  0.00000000000E+00 0. -1.
</event>
<event>
 8    1  0.2502398E-006  0.9118800E+02  0.7816164E-02  0.1184000E+00
        -11   -1    0    0    0    0  0.00000000000E+00  0.00000000000E+00  0.45593999997E+02  0.45594000000E+02  0.51100000000E-03 0. -1.
         11   -1    0    0    0    0 -0.00000000000E+00 -0.00000000000E+00 -0.45593999997E+02  0.45594000000E+02  0.51100000000E-03 0.  1.
         23    2    1    2    0    0  0.00000000000E+00  0.71054273576E-14  0.00000000000E+00  0.91188000000E+02  0.91188000000E+02 0.  0.
    9900012    2    3    3    0    0  0.86516539132E+01 -0.29234186915E+02  0.20646803326E+02  0.54367091706E+02  0.40000017162E+02 0.  0.
        -12    1    3    3    0    0 -0.86516539132E+01  0.29234186915E+02 -0.20646803326E+02  0.36820908294E+02  0.00000000000E+00 0.  1.
         11    1    4    4    0    0 -0.96217292622E+01 -0.24027324817E+01  0.12850617533E+02  0.16232349448E+02  0.51100000000E-03 0.  1.
        -11    1    4    4    0    0  0.10644523763E+02 -0.30106987426E+01  0.70370052517E+01  0.13110668795E+02  0.51100000000E-03 0. -1.
        -12    1    4    4    0    0  0.76288594120E+01 -0.23820755691E+02  0.75918054144E+00  0.25024073463E+02  0.00000000000E+00 0.  1.
</event>
<event>
 8    1  0.2502398E-006  0.9118800E+02  0.7816164E-02  0.1184000E+00
        -11   -1    0    0    0    0  0.00000000000E+00  0.00000000000E+00  0.45593999997E+02  0.45594000000E+02  0.51100000000E-03 0.  1.
         11   -1    0    0    0    0 -0.00000000000E+00 -0.00000000000E+00 -0.45593999997E+02  0.45594000000E+02  0.51100000000E-03 0. -1.
         23    2    1    2    0    0  0.88817841970E-15  0.88817841970E-15  0.00000000000E+00  0.91188000000E+02  0.91188000000E+02 0.  0.
    9900012    2    3    3    0    0  0.40315081226E+01  0.27008222733E+01 -0.36499717260E+02  0.54367124688E+02  0.40000092351E+02 0.  0.
        -12    1    3    3    0    0 -0.40315081226E+01 -0.27008222733E+01  0.36499717260E+02  0.36820875312E+02  0.00000000000E+00 0.  1.
         11    1    4    4    0    0  0.13632817352E+02  0.66929565065E+01 -0.25422368516E+02  0.29613277377E+02  0.51100000000E-03 0. -1.
        -11    1    4    4    0    0 -0.22145936174E+01  0.67428659975E+01  0.77449668719E+00  0.71393635662E+01  0.51100000000E-03 0.  1.
         12    1    4    4    0    0 -0.73867156121E+01 -0.10735000231E+02 -0.11851845431E+02  0.17614483745E+02  0.00000000000E+00 0. -1.
</event>
<event>
 8    1  0.2502398E-006  0.9118800E+02  0.7816164E-02  0.1184000E+00
        -11   -1    0    0    0    0  0.00000000000E+00  0.00000000000E+00  0.45593999997E+02  0.45594000000E+02  0.51100000000E-03 0.  1.
         11   -1    0    0    0    0 -0.00000000000E+00 -0.00000000000E+00 -0.45593999997E+02  0.45594000000E+02  0.51100000000E-03 0. -1.
         23    2    1    2    0    0  0.00000000000E+00 -0.35527136788E-14  0.00000000000E+00  0.91188000000E+02  0.91188000000E+02 0.  0.
    9900012    2    3    3    0    0 -0.70669932174E+01  0.27912403640E+02  0.22950688833E+02  0.54367098490E+02  0.40000032629E+02 0.  0.
         12    1    3    3    0    0  0.70669932174E+01 -0.27912403640E+02 -0.22950688833E+02  0.36820901510E+02  0.00000000000E+00 0. -1.
         11    1    4    4    0    0  0.44983472031E+01  0.34856104232E+01  0.85492099533E+01  0.10270034015E+02  0.51100000000E-03 0.  1.
        -11    1    4    4    0    0 -0.44041316283E+01  0.90088603180E+00  0.18612298802E+02  0.19147470799E+02  0.51100000000E-03 0. -1.
        -12    1    4    4    0    0 -0.71612087922E+01  0.23525907185E+02 -0.42108199219E+01  0.24949593677E+02  0.00000000000E+00 0.  1.
</event>
<event>
 8    1  0.2502398E-006  0.9118800E+02  0.7816164E-02  0.1184000E+00
        -11   -1    0    0    0    0  0.00000000000E+00  0.00000000000E+00  0.45593999997E+02  0.45594000000E+02  0.51100000000E-03 0.  1.
         11   -1    0    0    0    0 -0.00000000000E+00 -0.00000000000E+00 -0.45593999997E+02  0.45594000000E+02  0.51100000000E-03 0. -1.
         23    2    1    2    0    0  0.00000000000E+00 -0.71054273576E-14  0.44408920985E-15  0.91188000000E+02  0.91188000000E+02 0.  0.
    9900012    2    3    3    0    0  0.13775907389E+02  0.34054114105E+02  0.25143019768E+01  0.54367081675E+02  0.39999994294E+02 0.  0.
        -12    1    3    3    0    0 -0.13775907389E+02 -0.34054114105E+02 -0.25143019768E+01  0.36820918325E+02  0.00000000000E+00 0.  1.
         11    1    4    4    0    0  0.24202353314E+02  0.23937856543E+02 -0.41383222656E+01  0.34291406988E+02  0.51100000000E-03 0. -1.
        -11    1    4    4    0    0 -0.45275701906E+01 -0.12223710378E+01 -0.14903934662E+01  0.49208084427E+01  0.51100000000E-03 0.  1.
         12    1    4    4    0    0 -0.58988757346E+01  0.11338628601E+02  0.81430177086E+01  0.15154866244E+02  0.00000000000E+00 0. -1.
</event>
<event>
 8    1  0.2502398E-006  0.9118800E+02  0.7816164E-02  0.1184000E+00
        -11   -1    0    0    0    0  0.00000000000E+00  0.00000000000E+00  0.45593999997E+02  0.45594000000E+02  0.51100000000E-03 0. -1.
         11   -1    0    0    0    0 -0.00000000000E+00 -0.00000000000E+00 -0.45593999997E+02  0.45594000000E+02  0.51100000000E-03 0.  1.
         23    2    1    2    0    0  0.17763568394E-14  0.88817841970E-15 -0.71054273576E-14  0.91188000000E+02  0.91188000000E+02 0.  0.
    9900012    2    3    3    0    0 -0.10689672175E+02 -0.49114222610E+01  0.34891103768E+02  0.54367078203E+02  0.39999986380E+02 0.  0.
        -12    1    3    3    0    0  0.10689672175E+02  0.49114222610E+01 -0.34891103768E+02  0.36820921797E+02  0.00000000000E+00 0.  1.
         11    1    4    4    0    0 -0.13062432089E+02 -0.31247325350E+01  0.75501914164E+01  0.15407675885E+02  0.51100000000E-03 0. -1.
        -11    1    4    4    0    0 -0.37338714487E+01 -0.95782911889E+01  0.43436278158E+00  0.10289515508E+02  0.51100000000E-03 0.  1.
         12    1    4    4    0    0  0.61066313631E+01  0.77916014629E+01  0.26906549570E+02  0.28669886810E+02  0.00000000000E+00 0. -1.
</event>
<event>
 8    1  0.2502398E-006  0.9118800E+02  0.7816164E-02  0.1184000E+00
        -11   -1    0    0    0    0  0.00000000000E+00  0.00000000000E+00  0.45593999997E+02  0.45594000000E+02  0.51100000000E-03 0.  1.
         11   -1    0    0    0    0 -0.00000000000E+00 -0.00000000000E+00 -0.45593999997E+02  0.45594000000E+02  0.51100000000E-03 0. -1.
         23    2    1    2    0    0  0.17763568394E-14  0.00000000000E+00  0.00000000000E+00  0.91188000000E+02  0.91188000000E+02 0.  0.
    9900012    2    3    3    0    0  0.82618903313E+01  0.11542931483E+02  0.33974732218E+02  0.54367074857E+02  0.39999978752E+02 0.  0.
         12    1    3    3    0    0 -0.82618903313E+01 -0.11542931483E+02 -0.33974732218E+02  0.36820925143E+02  0.00000000000E+00 0. -1.
         11    1    4    4    0    0  0.90331137554E+01 -0.56229166119E-01  0.25153163108E+01  0.93769463175E+01  0.51100000000E-03 0. -1.
        -11    1    4    4    0    0  0.14183900835E+02  0.18977759060E+01  0.13114798698E+02  0.19410887189E+02  0.51100000000E-03 0.  1.
        -12    1    4    4    0    0 -0.14955124260E+02  0.97013847430E+01  0.18344617209E+02  0.25579241351E+02  0.00000000000E+00 0.  1.
</event>
<event>
 8    1  0.2502398E-006  0.9118800E+02  0.7816164E-02  0.1184000E+00
        -11   -1    0    0    0    0  0.00000000000E+00  0.00000000000E+00  0.45593999997E+02  0.45594000000E+02  0.51100000000E-03 0.  1.
         11   -1    0    0    0    0 -0.00000000000E+00 -0.00000000000E+00 -0.45593999997E+02  0.45594000000E+02  0.51100000000E-03 0. -1.
         23    2    1    2    0    0 -0.71054273576E-14 -0.35527136788E-14  0.13322676296E-14  0.91188000000E+02  0.91188000000E+02 0.  0.
    9900012    2    3    3    0    0 -0.32276317692E+02 -0.17421351833E+02  0.32428793113E+01  0.54367075926E+02  0.39999981188E+02 0.  0.
        -12    1    3    3    0    0  0.32276317692E+02  0.17421351833E+02 -0.32428793113E+01  0.36820924074E+02  0.00000000000E+00 0.  1.
         11    1    4    4    0    0 -0.22567794096E+02 -0.61165975644E+01 -0.12504464088E+02  0.26515650445E+02  0.51100000000E-03 0. -1.
        -11    1    4    4    0    0  0.48220943575E+01 -0.46711433305E+00  0.32528967786E+01  0.58354200796E+01  0.51100000000E-03 0.  1.
         12    1    4    4    0    0 -0.14530617953E+02 -0.10837639935E+02  0.12494446621E+02  0.22016005401E+02  0.00000000000E+00 0. -1.
</event>
<event>
 8    1  0.2502398E-006  0.9118800E+02  0.7816164E-02  0.1184000E+00
        -11   -1    0    0    0    0  0.00000000000E+00  0.00000000000E+00  0.45593999997E+02  0.45594000000E+02  0.51100000000E-03 0. -1.
         11   -1    0    0    0    0 -0.00000000000E+00 -0.00000000000E+00 -0.45593999997E+02  0.45594000000E+02  0.51100000000E-03 0.  1.
         23    2    1    2    0    0 -0.17763568394E-14 -0.71054273576E-14  0.00000000000E+00  0.91188000000E+02  0.91188000000E+02 0.  0.
    9900012    2    3    3    0    0  0.14588305509E+02  0.32645360573E+02 -0.87887156646E+01  0.54367085459E+02  0.40000002921E+02 0.  0.
         12    1    3    3    0    0 -0.14588305509E+02 -0.32645360573E+02  0.87887156646E+01  0.36820914541E+02  0.00000000000E+00 0. -1.
         11    1    4    4    0    0 -0.19261946518E+01 -0.60516885500E+01 -0.36541276583E+01  0.73270600753E+01  0.51100000000E-03 0. -1.
        -11    1    4    4    0    0 -0.46686634363E+01  0.52616173001E+01 -0.21087028664E+01  0.73435456650E+01  0.51100000000E-03 0.  1.
        -12    1    4    4    0    0  0.21183163597E+02  0.33435431823E+02 -0.30258851400E+01  0.39696479719E+02  0.00000000000E+00 0.  1.
</event>
<event>
 8    1  0.2502398E-006  0.9118800E+02  0.7816164E-02  0.1184000E+00
        -11   -1    0    0    0    0  0.00000000000E+00  0.00000000000E+00  0.45593999997E+02  0.45594000000E+02  0.51100000000E-03 0.  1.
         11   -1    0    0    0    0 -0.00000000000E+00 -0.00000000000E+00 -0.45593999997E+02  0.45594000000E+02  0.51100000000E-03 0. -1.
         23    2    1    2    0    0 -0.17763568394E-14  0.00000000000E+00 -0.44408920985E-15  0.91188000000E+02  0.91188000000E+02 0.  0.
    9900012    2    3    3    0    0  0.13898708460E+02 -0.33928893311E+02  0.33790980083E+01  0.54367323723E+02  0.40000546087E+02 0.  0.
         12    1    3    3    0    0 -0.13898708460E+02  0.33928893311E+02 -0.33790980083E+01  0.36820676277E+02  0.00000000000E+00 0. -1.
         11    1    4    4    0    0  0.47606322226E+01 -0.13571114391E+02 -0.67693224444E+01  0.15895360694E+02  0.51100000000E-03 0. -1.
        -11    1    4    4    0    0  0.52180235230E+01 -0.23569813170E+02  0.17305256973E+02  0.29702454133E+02  0.51100000000E-03 0.  1.
        -12    1    4    4    0    0  0.39200527139E+01  0.32120342499E+01 -0.71568365198E+01  0.87695088958E+01  0.00000000000E+00 0.  1.
</event>
<event>
 8    1  0.2502398E-006  0.9118800E+02  0.7816164E-02  0.1184000E+00
        -11   -1    0    0    0    0  0.00000000000E+00  0.00000000000E+00  0.45593999997E+02  0.45594000000E+02  0.51100000000E-03 0.  1.
         11   -1    0    0    0    0 -0.00000000000E+00 -0.00000000000E+00 -0.45593999997E+02  0.45594000000E+02  0.51100000000E-03 0. -1.
         23    2    1    2    0    0  0.00000000000E+00 -0.35527136788E-14  0.00000000000E+00  0.91188000000E+02  0.91188000000E+02 0.  0.
    9900012    2    3    3    0    0  0.27926377152E+02  0.17205958627E+02 -0.16728806505E+02  0.54367074968E+02  0.39999979006E+02 0.  0.
        -12    1    3    3    0    0 -0.27926377152E+02 -0.17205958627E+02  0.16728806505E+02  0.36820925032E+02  0.00000000000E+00 0.  1.
         11    1    4    4    0    0  0.19310016124E+02  0.26600704614E+02 -0.14565381679E+02  0.35953088217E+02  0.51100000000E-03 0. -1.
        -11    1    4    4    0    0  0.10416979900E+02 -0.22319234181E+01 -0.27573957620E+01  0.11004462006E+02  0.51100000000E-03 0.  1.
        -12    1    4    4    0    0 -0.18006188728E+01 -0.71628225688E+01  0.59397093544E+00  0.74095247452E+01  0.00000000000E+00 0.  1.
</event>
<event>
 8    1  0.2502398E-006  0.9118800E+02  0.7816164E-02  0.1184000E+00
        -11   -1    0    0    0    0  0.00000000000E+00  0.00000000000E+00  0.45593999997E+02  0.45594000000E+02  0.51100000000E-03 0. -1.
         11   -1    0    0    0    0 -0.00000000000E+00 -0.00000000000E+00 -0.45593999997E+02  0.45594000000E+02  0.51100000000E-03 0.  1.
         23    2    1    2    0    0 -0.71054273576E-14 -0.88817841970E-15 -0.88817841970E-15  0.91188000000E+02  0.91188000000E+02 0.  0.
    9900012    2    3    3    0    0  0.36101590795E+02  0.69999566092E+01 -0.18588796159E+01  0.54367086324E+02  0.40000004894E+02 0.  0.
        -12    1    3    3    0    0 -0.36101590795E+02 -0.69999566092E+01  0.18588796159E+01  0.36820913676E+02  0.00000000000E+00 0.  1.
         11    1    4    4    0    0  0.19263659039E+02 -0.14963394276E+02  0.27210244721E+01  0.24543750778E+02  0.51100000000E-03 0. -1.
        -11    1    4    4    0    0  0.70261619776E+01  0.98070459441E+01 -0.71014808294E+01  0.13999147564E+02  0.51100000000E-03 0.  1.
         12    1    4    4    0    0  0.98117697791E+01  0.12156304942E+02  0.25215767414E+01  0.15824187982E+02  0.00000000000E+00 0. -1.
</event>
<event>
 8    1  0.2502398E-006  0.9118800E+02  0.7816164E-02  0.1184000E+00
        -11   -1    0    0    0    0  0.00000000000E+00  0.00000000000E+00  0.45593999997E+02  0.45594000000E+02  0.51100000000E-03 0.  1.
         11   -1    0    0    0    0 -0.00000000000E+00 -0.00000000000E+00 -0.45593999997E+02  0.45594000000E+02  0.51100000000E-03 0. -1.
         23    2    1    2    0    0 -0.35527136788E-14  0.00000000000E+00  0.00000000000E+00  0.91188000000E+02  0.91188000000E+02 0.  0.
    9900012    2    3    3    0    0  0.18255555669E+02 -0.25640293306E+02 -0.19107334819E+02  0.54367079350E+02  0.39999988994E+02 0.  0.
         12    1    3    3    0    0 -0.18255555669E+02  0.25640293306E+02  0.19107334819E+02  0.36820920650E+02  0.00000000000E+00 0. -1.
         11    1    4    4    0    0  0.25463539960E+01 -0.16063545555E+02 -0.48532765707E+01  0.16972793177E+02  0.51100000000E-03 0. -1.
        -11    1    4    4    0    0  0.15513355594E+02 -0.19328055459E+02 -0.94770739498E+01  0.26533994432E+02  0.51100000000E-03 0.  1.
         12    1    4    4    0    0  0.19584607913E+00  0.97513077082E+01 -0.47769842987E+01  0.10860291741E+02  0.00000000000E+00 0. -1.
</event>
<event>
 8    1  0.2502398E-006  0.9118800E+02  0.7816164E-02  0.1184000E+00
        -11   -1    0    0    0    0  0.00000000000E+00  0.00000000000E+00  0.45593999997E+02  0.45594000000E+02  0.51100000000E-03 0.  1.
         11   -1    0    0    0    0 -0.00000000000E+00 -0.00000000000E+00 -0.45593999997E+02  0.45594000000E+02  0.51100000000E-03 0. -1.
         23    2    1    2    0    0 -0.71054273576E-14  0.00000000000E+00  0.00000000000E+00  0.91188000000E+02  0.91188000000E+02 0.  0.
    9900012    2    3    3    0    0 -0.32780920958E+02 -0.15273321910E+02 -0.69221991039E+01  0.54367082284E+02  0.39999995683E+02 0.  0.
        -12    1    3    3    0    0  0.32780920958E+02  0.15273321910E+02  0.69221991039E+01  0.36820917716E+02  0.00000000000E+00 0.  1.
         11    1    4    4    0    0 -0.25746020689E+02 -0.52767871299E+01  0.31364199411E+01  0.26467700959E+02  0.51100000000E-03 0. -1.
        -11    1    4    4    0    0 -0.13919379562E+02 -0.63495259442E+01 -0.12476987971E+02  0.19741854932E+02  0.51100000000E-03 0.  1.
        -12    1    4    4    0    0  0.68844792930E+01 -0.36470088358E+01  0.24183689255E+01  0.81575263925E+01  0.00000000000E+00 0.  1.
</event>
<event>
 8    1  0.2502398E-006  0.9118800E+02  0.7816164E-02  0.1184000E+00
        -11   -1    0    0    0    0  0.00000000000E+00  0.00000000000E+00  0.45593999997E+02  0.45594000000E+02  0.51100000000E-03 0. -1.
         11   -1    0    0    0    0 -0.00000000000E+00 -0.00000000000E+00 -0.45593999997E+02  0.45594000000E+02  0.51100000000E-03 0.  1.
         23    2    1    2    0    0  0.13322676296E-14  0.14210854715E-13  0.35527136788E-14  0.91188000000E+02  0.91188000000E+02 0.  0.
    9900012    2    3    3    0    0  0.69876446459E+00 -0.32354184160E+02 -0.17564120703E+02  0.54367084198E+02  0.40000000045E+02 0.  0.
         12    1    3    3    0    0 -0.69876446459E+00  0.32354184160E+02  0.17564120703E+02  0.36820915802E+02  0.00000000000E+00 0. -1.
         11    1    4    4    0    0 -0.12027133031E+02 -0.16832768640E+01 -0.14457246399E+02  0.18881136715E+02  0.51100000000E-03 0. -1.
        -11    1    4    4    0    0  0.25485557574E+01 -0.72998206991E+01 -0.60610996021E+01  0.98244311456E+01  0.51100000000E-03 0.  1.
         12    1    4    4    0    0  0.10177341738E+02 -0.23371086597E+02  0.29542252979E+01  0.25661516337E+02  0.00000000000E+00 0. -1.
</event>
<event>
 8    1  0.2502398E-006  0.9118800E+02  0.7816164E-02  0.1184000E+00
        -11   -1    0    0    0    0  0.00000000000E+00  0.00000000000E+00  0.45593999997E+02  0.45594000000E+02  0.51100000000E-03 0. -1.
         11   -1    0    0    0    0 -0.00000000000E+00 -0.00000000000E+00 -0.45593999997E+02  0.45594000000E+02  0.51100000000E-03 0.  1.
         23    2    1    2    0    0 -0.35527136788E-14  0.15543122345E-14  0.35527136788E-14  0.91188000000E+02  0.91188000000E+02 0.  0.
    9900012    2    3    3    0    0  0.19301477332E+02 -0.16609008356E+01 -0.31312532657E+02  0.54367077685E+02  0.39999985198E+02 0.  0.
         12    1    3    3    0    0 -0.19301477332E+02  0.16609008356E+01  0.31312532657E+02  0.36820922315E+02  0.00000000000E+00 0. -1.
         11    1    4    4    0    0  0.15975044873E+02  0.82383806006E+01 -0.16917300307E+02  0.24683355192E+02  0.51100000000E-03 0. -1.
        -11    1    4    4    0    0 -0.73314628127E+01 -0.15642117993E+01 -0.14308487681E+02  0.16153325525E+02  0.51100000000E-03 0.  1.
        -12    1    4    4    0    0  0.10657895271E+02 -0.83350696369E+01 -0.86744668763E-01  0.13530396968E+02  0.00000000000E+00 0.  1.
</event>
<event>
 8    1  0.2502398E-006  0.9118800E+02  0.7816164E-02  0.1184000E+00
        -11   -1    0    0    0    0  0.00000000000E+00  0.00000000000E+00  0.45593999997E+02  0.45594000000E+02  0.51100000000E-03 0. -1.
         11   -1    0    0    0    0 -0.00000000000E+00 -0.00000000000E+00 -0.45593999997E+02  0.45594000000E+02  0.51100000000E-03 0.  1.
         23    2    1    2    0    0  0.00000000000E+00 -0.99920072216E-15  0.00000000000E+00  0.91188000000E+02  0.91188000000E+02 0.  0.
    9900012    2    3    3    0    0 -0.23345979876E+02 -0.42872578012E+00  0.28470364074E+02  0.54367079144E+02  0.39999988524E+02 0.  0.
        -12    1    3    3    0    0  0.23345979876E+02  0.42872578012E+00 -0.28470364074E+02  0.36820920856E+02  0.00000000000E+00 0.  1.
         11    1    4    4    0    0 -0.18511289500E+02  0.47055552773E+00  0.13553093137E+02  0.22947235025E+02  0.51100000000E-03 0. -1.
        -11    1    4    4    0    0 -0.20834737939E+01 -0.13593805835E+02  0.11655617931E+02  0.18027363916E+02  0.51100000000E-03 0.  1.
        -12    1    4    4    0    0 -0.27512165821E+01  0.12694524527E+02  0.32616530063E+01  0.13392480203E+02  0.00000000000E+00 0.  1.
</event>
<event>
 8    1  0.2502398E-006  0.9118800E+02  0.7816164E-02  0.1184000E+00
        -11   -1    0    0    0    0  0.00000000000E+00  0.00000000000E+00  0.45593999997E+02  0.45594000000E+02  0.51100000000E-03 0. -1.
         11   -1    0    0    0    0 -0.00000000000E+00 -0.00000000000E+00 -0.45593999997E+02  0.45594000000E+02  0.51100000000E-03 0.  1.
         23    2    1    2    0    0 -0.35527136788E-14  0.35527136788E-14 -0.71054273576E-14  0.91188000000E+02  0.91188000000E+02 0.  0.
    9900012    2    3    3    0    0  0.83638071843E+01 -0.28752771325E+02  0.21426718709E+02  0.54367090124E+02  0.40000013555E+02 0.  0.
        -12    1    3    3    0    0 -0.83638071843E+01  0.28752771325E+02 -0.21426718709E+02  0.36820909876E+02  0.00000000000E+00 0.  1.
         11    1    4    4    0    0 -0.53940973169E+00 -0.41472251013E+01 -0.47895684623E+01  0.63584907970E+01  0.51100000000E-03 0. -1.
        -11    1    4    4    0    0 -0.76279690144E+01  0.22311663995E+01  0.93107335189E+01  0.12241477595E+02  0.51100000000E-03 0.  1.
         12    1    4    4    0    0  0.16531185930E+02 -0.26836712623E+02  0.16905553652E+02  0.35767121732E+02  0.00000000000E+00 0. -1.
</event>
<event>
 8    1  0.2502398E-006  0.9118800E+02  0.7816164E-02  0.1184000E+00
        -11   -1    0    0    0    0  0.00000000000E+00  0.00000000000E+00  0.45593999997E+02  0.45594000000E+02  0.51100000000E-03 0.  1.
         11   -1    0    0    0    0 -0.00000000000E+00 -0.00000000000E+00 -0.45593999997E+02  0.45594000000E+02  0.51100000000E-03 0. -1.
         23    2    1    2    0    0  0.16653345369E-15  0.35527136788E-14  0.00000000000E+00  0.91188000000E+02  0.91188000000E+02 0.  0.
    9900012    2    3    3    0    0  0.32529864192E-01  0.29223007693E+02 -0.22400764695E+02  0.54367088880E+02  0.40000010719E+02 0.  0.
        -12    1    3    3    0    0 -0.32529864192E-01 -0.29223007693E+02  0.22400764695E+02  0.36820911120E+02  0.00000000000E+00 0.  1.
         11    1    4    4    0    0  0.18600367435E+01  0.24740449387E+02 -0.35848036807E+01  0.25067915554E+02  0.51100000000E-03 0. -1.
        -11    1    4    4    0    0 -0.44179496976E+01 -0.65142883467E+01 -0.15726920453E+02  0.17586650033E+02  0.51100000000E-03 0.  1.
        -12    1    4    4    0    0  0.25904428182E+01  0.10996846652E+02 -0.30890405619E+01  0.11712523293E+02  0.00000000000E+00 0.  1.
</event>
<event>
 8    1  0.2502398E-006  0.9118800E+02  0.7816164E-02  0.1184000E+00
        -11   -1    0    0    0    0  0.00000000000E+00  0.00000000000E+00  0.45593999997E+02  0.45594000000E+02  0.51100000000E-03 0. -1.
         11   -1    0    0    0    0 -0.00000000000E+00 -0.00000000000E+00 -0.45593999997E+02  0.45594000000E+02  0.51100000000E-03 0.  1.
         23    2    1    2    0    0 -0.35527136788E-14 -0.22204460493E-15 -0.71054273576E-14  0.91188000000E+02  0.91188000000E+02 0.  0.
    9900012    2    3    3    0    0 -0.15566883505E+02 -0.14210668148E+01 -0.33338185830E+02  0.54367055859E+02  0.39999935443E+02 0.  0.
         12    1    3    3    0    0  0.15566883505E+02  0.14210668148E+01  0.33338185830E+02  0.36820944141E+02  0.00000000000E+00 0. -1.
         11    1    4    4    0    0  0.11201355016E+02 -0.66462033350E+01 -0.11347413897E+02  0.17274437049E+02  0.51100000000E-03 0. -1.
        -11    1    4    4    0    0 -0.93287237205E+01  0.78253594170E+01 -0.10168321600E+02  0.15863672358E+02  0.51100000000E-03 0.  1.
         12    1    4    4    0    0 -0.17439514800E+02 -0.26002228968E+01 -0.11822450333E+02  0.21228946452E+02  0.00000000000E+00 0. -1.
</event>
<event>
 8    1  0.2502398E-006  0.9118800E+02  0.7816164E-02  0.1184000E+00
        -11   -1    0    0    0    0  0.00000000000E+00  0.00000000000E+00  0.45593999997E+02  0.45594000000E+02  0.51100000000E-03 0.  1.
         11   -1    0    0    0    0 -0.00000000000E+00 -0.00000000000E+00 -0.45593999997E+02  0.45594000000E+02  0.51100000000E-03 0. -1.
         23    2    1    2    0    0  0.35527136788E-14 -0.35527136788E-14  0.00000000000E+00  0.91188000000E+02  0.91188000000E+02 0.  0.
    9900012    2    3    3    0    0 -0.26843628811E+02  0.23520244431E+02  0.90552290452E+01  0.54367089108E+02  0.40000011239E+02 0.  0.
        -12    1    3    3    0    0  0.26843628811E+02 -0.23520244431E+02 -0.90552290452E+01  0.36820910892E+02  0.00000000000E+00 0.  1.
         11    1    4    4    0    0 -0.20155018050E+01  0.11553729795E+01 -0.10549241021E+02  0.10802019285E+02  0.51100000000E-03 0. -1.
        -11    1    4    4    0    0 -0.36434505230E+01 -0.33877545741E+01  0.53320524278E+01  0.72926261471E+01  0.51100000000E-03 0.  1.
        -12    1    4    4    0    0 -0.21184676483E+02  0.25752626026E+02  0.14272417639E+02  0.36272443676E+02  0.00000000000E+00 0.  1.
</event>
<event>
 8    1  0.2502398E-006  0.9118800E+02  0.7816164E-02  0.1184000E+00
        -11   -1    0    0    0    0  0.00000000000E+00  0.00000000000E+00  0.45593999997E+02  0.45594000000E+02  0.51100000000E-03 0.  1.
         11   -1    0    0    0    0 -0.00000000000E+00 -0.00000000000E+00 -0.45593999997E+02  0.45594000000E+02  0.51100000000E-03 0. -1.
         23    2    1    2    0    0  0.00000000000E+00 -0.35527136788E-14  0.00000000000E+00  0.91188000000E+02  0.91188000000E+02 0.  0.
    9900012    2    3    3    0    0  0.14808100090E+02  0.31836393260E+02  0.11088069156E+02  0.54367067887E+02  0.39999962861E+02 0.  0.
         12    1    3    3    0    0 -0.14808100090E+02 -0.31836393260E+02 -0.11088069156E+02  0.36820932113E+02  0.00000000000E+00 0. -1.
         11    1    4    4    0    0 -0.43056423899E+01 -0.23725559241E+01 -0.53914154846E+01  0.72962277371E+01  0.51100000000E-03 0. -1.
        -11    1    4    4    0    0  0.85388363964E+01  0.21585704313E+02 -0.76602308302E+00  0.23225872412E+02  0.51100000000E-03 0.  1.
        -12    1    4    4    0    0  0.10574906084E+02  0.12623244872E+02  0.17245507723E+02  0.23844967738E+02  0.00000000000E+00 0.  1.
</event>
<event>
 8    1  0.2502398E-006  0.9118800E+02  0.7816164E-02  0.1184000E+00
        -11   -1    0    0    0    0  0.00000000000E+00  0.00000000000E+00  0.45593999997E+02  0.45594000000E+02  0.51100000000E-03 0. -1.
         11   -1    0    0    0    0 -0.00000000000E+00 -0.00000000000E+00 -0.45593999997E+02  0.45594000000E+02  0.51100000000E-03 0.  1.
         23    2    1    2    0    0  0.35527136788E-14 -0.13322676296E-14  0.00000000000E+00  0.91188000000E+02  0.91188000000E+02 0.  0.
    9900012    2    3    3    0    0 -0.21545595004E+02 -0.21032375572E+01 -0.29784890860E+02  0.54367136405E+02  0.40000119063E+02 0.  0.
         12    1    3    3    0    0  0.21545595004E+02  0.21032375572E+01  0.29784890860E+02  0.36820863595E+02  0.00000000000E+00 0. -1.
         11    1    4    4    0    0 -0.10908612319E+02  0.29160868244E+01  0.41925536934E+01  0.12044869938E+02  0.51100000000E-03 0. -1.
        -11    1    4    4    0    0 -0.13467042579E+02 -0.10451385545E+02 -0.31292747762E+02  0.35634656704E+02  0.51100000000E-03 0.  1.
        -12    1    4    4    0    0  0.28300598938E+01  0.54320611636E+01 -0.26846967915E+01  0.66876097636E+01  0.00000000000E+00 0.  1.
</event>
<event>
 8    1  0.2502398E-006  0.9118800E+02  0.7816164E-02  0.1184000E+00
        -11   -1    0    0    0    0  0.00000000000E+00  0.00000000000E+00  0.45593999997E+02  0.45594000000E+02  0.51100000000E-03 0. -1.
         11   -1    0    0    0    0 -0.00000000000E+00 -0.00000000000E+00 -0.45593999997E+02  0.45594000000E+02  0.51100000000E-03 0.  1.
         23    2    1    2    0    0  0.00000000000E+00 -0.88817841970E-15  0.71054273576E-14  0.91188000000E+02  0.91188000000E+02 0.  0.
    9900012    2    3    3    0    0 -0.91681206916E+01  0.55214076154E+01  0.35231239151E+02  0.54367074005E+02  0.39999976808E+02 0.  0.
        -12    1    3    3    0    0  0.91681206916E+01 -0.55214076154E+01 -0.35231239151E+02  0.36820925995E+02  0.00000000000E+00 0.  1.
         11    1    4    4    0    0  0.49349974689E+00  0.75452016655E+01  0.31990459314E+02  0.32871919590E+02  0.51100000000E-03 0. -1.
        -11    1    4    4    0    0  0.28316487906E+01 -0.10137133829E+01  0.76406499202E+01  0.82112959489E+01  0.51100000000E-03 0.  1.
        -12    1    4    4    0    0 -0.12493269229E+02 -0.10100806673E+01 -0.43998700832E+01  0.13283858466E+02  0.00000000000E+00 0.  1.
</event>
<event>
 8    1  0.2502398E-006  0.9118800E+02  0.7816164E-02  0.1184000E+00
        -11   -1    0    0    0    0  0.00000000000E+00  0.00000000000E+00  0.45593999997E+02  0.45594000000E+02  0.51100000000E-03 0.  1.
         11   -1    0    0    0    0 -0.00000000000E+00 -0.00000000000E+00 -0.45593999997E+02  0.45594000000E+02  0.51100000000E-03 0. -1.
         23    2    1    2    0    0  0.35527136788E-14  0.00000000000E+00 -0.17763568394E-14  0.91188000000E+02  0.91188000000E+02 0.  0.
    9900012    2    3    3    0    0  0.29509334876E+02 -0.18356835314E+02  0.12165674132E+02  0.54367110892E+02  0.40000060902E+02 0.  0.
        -12    1    3    3    0    0 -0.29509334876E+02  0.18356835314E+02 -0.12165674132E+02  0.36820889108E+02  0.00000000000E+00 0.  1.
         11    1    4    4    0    0  0.76873437697E+01 -0.29877587864E-01 -0.11949793339E+02  0.14208930573E+02  0.51100000000E-03 0. -1.
        -11    1    4    4    0    0  0.16389288344E+02 -0.48582878010E+01  0.16505032622E+02  0.23761898807E+02  0.51100000000E-03 0.  1.
         12    1    4    4    0    0  0.54327027619E+01 -0.13468669926E+02  0.76104348490E+01  0.16396281513E+02  0.00000000000E+00 0. -1.
</event>
<event>
 8    1  0.2502398E-006  0.9118800E+02  0.7816164E-02  0.1184000E+00
        -11   -1    0    0    0    0  0.00000000000E+00  0.00000000000E+00  0.45593999997E+02  0.45594000000E+02  0.51100000000E-03 0. -1.
         11   -1    0    0    0    0 -0.00000000000E+00 -0.00000000000E+00 -0.45593999997E+02  0.45594000000E+02  0.51100000000E-03 0.  1.
         23    2    1    2    0    0 -0.17763568394E-14 -0.35527136788E-14  0.00000000000E+00  0.91188000000E+02  0.91188000000E+02 0.  0.
    9900012    2    3    3    0    0  0.10227854719E+02  0.23653690650E+02  0.26299683259E+02  0.54367089731E+02  0.40000012659E+02 0.  0.
        -12    1    3    3    0    0 -0.10227854719E+02 -0.23653690650E+02 -0.26299683259E+02  0.36820910269E+02  0.00000000000E+00 0.  1.
         11    1    4    4    0    0  0.10694569921E+01 -0.50916439621E+01  0.97438506068E+01  0.11045868069E+02  0.51100000000E-03 0. -1.
        -11    1    4    4    0    0 -0.58160763476E+00 -0.11321033521E+01 -0.50353379898E+01  0.51937033390E+01  0.51100000000E-03 0.  1.
         12    1    4    4    0    0  0.97400053612E+01  0.29877437964E+02  0.21591170642E+02  0.38127518323E+02  0.00000000000E+00 0. -1.
</event>
<event>
 8    1  0.2502398E-006  0.9118800E+02  0.7816164E-02  0.1184000E+00
        -11   -1    0    0    0    0  0.00000000000E+00  0.00000000000E+00  0.45593999997E+02  0.45594000000E+02  0.51100000000E-03 0.  1.
         11   -1    0    0    0    0 -0.00000000000E+00 -0.00000000000E+00 -0.45593999997E+02  0.45594000000E+02  0.51100000000E-03 0. -1.
         23    2    1    2    0    0  0.00000000000E+00  0.26645352591E-14  0.00000000000E+00  0.91188000000E+02  0.91188000000E+02 0.  0.
    9900012    2    3    3    0    0  0.94977211927E+01 -0.68642153269E+01  0.34906384733E+02  0.54367084001E+02  0.39999999597E+02 0.  0.
         12    1    3    3    0    0 -0.94977211927E+01  0.68642153269E+01 -0.34906384733E+02  0.36820915999E+02  0.00000000000E+00 0. -1.
         11    1    4    4    0    0  0.51119509345E+01  0.10400742027E+02  0.22435409277E+01  0.11804276904E+02  0.51100000000E-03 0. -1.
        -11    1    4    4    0    0 -0.15844828043E+01  0.20792379725E+01  0.16366903279E+02  0.16574357891E+02  0.51100000000E-03 0.  1.
        -12    1    4    4    0    0  0.59702530625E+01 -0.19344195327E+02  0.16295940526E+02  0.25988449206E+02  0.00000000000E+00 0.  1.
</event>
<event>
 8    1  0.2502398E-006  0.9118800E+02  0.7816164E-02  0.1184000E+00
        -11   -1    0    0    0    0  0.00000000000E+00  0.00000000000E+00  0.45593999997E+02  0.45594000000E+02  0.51100000000E-03 0. -1.
         11   -1    0    0    0    0 -0.00000000000E+00 -0.00000000000E+00 -0.45593999997E+02  0.45594000000E+02  0.51100000000E-03 0.  1.
         23    2    1    2    0    0  0.00000000000E+00  0.00000000000E+00  0.35527136788E-14  0.91188000000E+02  0.91188000000E+02 0.  0.
    9900012    2    3    3    0    0 -0.17929551011E+02  0.66689963981E+01  0.31461630535E+02  0.54367102287E+02  0.40000041284E+02 0.  0.
        -12    1    3    3    0    0  0.17929551011E+02 -0.66689963981E+01 -0.31461630535E+02  0.36820897713E+02  0.00000000000E+00 0.  1.
         11    1    4    4    0    0 -0.13679987876E+02  0.53423595520E+01  0.23499711539E+02  0.27711357176E+02  0.51100000000E-03 0. -1.
        -11    1    4    4    0    0 -0.13486588966E+02  0.46465220107E+01  0.88713578206E+01  0.16798191527E+02  0.51100000000E-03 0.  1.
        -12    1    4    4    0    0  0.92370258299E+01 -0.33198851646E+01 -0.90943882465E+00  0.98575535841E+01  0.00000000000E+00 0.  1.
</event>
<event>
 8    1  0.2502398E-006  0.9118800E+02  0.7816164E-02  0.1184000E+00
        -11   -1    0    0    0    0  0.00000000000E+00  0.00000000000E+00  0.45593999997E+02  0.45594000000E+02  0.51100000000E-03 0.  1.
         11   -1    0    0    0    0 -0.00000000000E+00 -0.00000000000E+00 -0.45593999997E+02  0.45594000000E+02  0.51100000000E-03 0. -1.
         23    2    1    2    0    0 -0.17763568394E-14 -0.17763568394E-14  0.71054273576E-14  0.91188000000E+02  0.91188000000E+02 0.  0.
    9900012    2    3    3    0    0  0.12536436021E+02  0.12244139039E+02 -0.32383613922E+02  0.54367087198E+02  0.40000006885E+02 0.  0.
        -12    1    3    3    0    0 -0.12536436021E+02 -0.12244139039E+02  0.32383613922E+02  0.36820912802E+02  0.00000000000E+00 0.  1.
         11    1    4    4    0    0 -0.12817766351E+01 -0.47467044858E+01 -0.17899349738E+02  0.18562351039E+02  0.51100000000E-03 0. -1.
        -11    1    4    4    0    0  0.81795375195E+01 -0.37448272454E+01 -0.10710437143E+02  0.13987209485E+02  0.51100000000E-03 0.  1.
        -12    1    4    4    0    0  0.56386751369E+01  0.20735670770E+02 -0.37738270419E+01  0.21817526673E+02  0.00000000000E+00 0.  1.
</event>
<event>
 8    1  0.2502398E-006  0.9118800E+02  0.7816164E-02  0.1184000E+00
        -11   -1    0    0    0    0  0.00000000000E+00  0.00000000000E+00  0.45593999997E+02  0.45594000000E+02  0.51100000000E-03 0. -1.
         11   -1    0    0    0    0 -0.00000000000E+00 -0.00000000000E+00 -0.45593999997E+02  0.45594000000E+02  0.51100000000E-03 0.  1.
         23    2    1    2    0    0  0.00000000000E+00  0.11102230246E-14  0.35527136788E-14  0.91188000000E+02  0.91188000000E+02 0.  0.
    9900012    2    3    3    0    0 -0.21990487633E+02  0.13657418336E+01 -0.29501411789E+02  0.54367080747E+02  0.39999992179E+02 0.  0.
         12    1    3    3    0    0  0.21990487633E+02 -0.13657418336E+01  0.29501411789E+02  0.36820919253E+02  0.00000000000E+00 0. -1.
         11    1    4    4    0    0 -0.79275471270E+01 -0.81316480036E+01 -0.71696554752E+00  0.11379092343E+02  0.51100000000E-03 0. -1.
        -11    1    4    4    0    0 -0.11646565405E+02 -0.79069363937E+01 -0.10007048808E+02  0.17271454918E+02  0.51100000000E-03 0.  1.
         12    1    4    4    0    0 -0.24163751011E+01  0.17404326231E+02 -0.18777397433E+02  0.25716533486E+02  0.00000000000E+00 0. -1.
</event>
<event>
 8    1  0.2502398E-006  0.9118800E+02  0.7816164E-02  0.1184000E+00
        -11   -1    0    0    0    0  0.00000000000E+00  0.00000000000E+00  0.45593999997E+02  0.45594000000E+02  0.51100000000E-03 0. -1.
         11   -1    0    0    0    0 -0.00000000000E+00 -0.00000000000E+00 -0.45593999997E+02  0.45594000000E+02  0.51100000000E-03 0.  1.
         23    2    1    2    0    0  0.00000000000E+00 -0.35527136788E-14 -0.88817841970E-15  0.91188000000E+02  0.91188000000E+02 0.  0.
    9900012    2    3    3    0    0 -0.24682956667E+02  0.27298325948E+02 -0.11548843174E+01  0.54367072429E+02  0.39999973217E+02 0.  0.
        -12    1    3    3    0    0  0.24682956667E+02 -0.27298325948E+02  0.11548843174E+01  0.36820927571E+02  0.00000000000E+00 0.  1.
         11    1    4    4    0    0 -0.11185024607E+02 -0.97846882299E+00  0.26737034965E+01  0.11541701232E+02  0.51100000000E-03 0. -1.
        -11    1    4    4    0    0 -0.78429012610E+01  0.56861538519E+00 -0.11121603132E+02  0.13620737136E+02  0.51100000000E-03 0.  1.
        -12    1    4    4    0    0 -0.56550307989E+01  0.27708179386E+02  0.72930153176E+01  0.29204634061E+02  0.00000000000E+00 0.  1.
</event>
<event>
 8    1  0.2502398E-006  0.9118800E+02  0.7816164E-02  0.1184000E+00
        -11   -1    0    0    0    0  0.00000000000E+00  0.00000000000E+00  0.45593999997E+02  0.45594000000E+02  0.51100000000E-03 0. -1.
         11   -1    0    0    0    0 -0.00000000000E+00 -0.00000000000E+00 -0.45593999997E+02  0.45594000000E+02  0.51100000000E-03 0.  1.
         23    2    1    2    0    0  0.00000000000E+00 -0.88817841970E-15  0.00000000000E+00  0.91188000000E+02  0.91188000000E+02 0.  0.
    9900012    2    3    3    0    0 -0.33828940714E+02  0.60242492743E+01  0.13232258947E+02  0.54367061854E+02  0.39999949108E+02 0.  0.
         12    1    3    3    0    0  0.33828940714E+02 -0.60242492743E+01 -0.13232258947E+02  0.36820938146E+02  0.00000000000E+00 0. -1.
         11    1    4    4    0    0 -0.22849296206E+02  0.18095248427E+02  0.16628148670E+02  0.33556276331E+02  0.51100000000E-03 0. -1.
        -11    1    4    4    0    0 -0.10825722658E+02 -0.12563712904E+02 -0.63897205946E+01  0.17772779258E+02  0.51100000000E-03 0.  1.
         12    1    4    4    0    0 -0.15392184900E+00  0.49271375053E+00  0.29938308721E+01  0.30380062650E+01  0.00000000000E+00 0. -1.
</event>
<event>
 8    1  0.2502398E-006  0.9118800E+02  0.7816164E-02  0.1184000E+00
        -11   -1    0    0    0    0  0.00000000000E+00  0.00000000000E+00  0.45593999997E+02  0.45594000000E+02  0.51100000000E-03 0.  1.
         11   -1    0    0    0    0 -0.00000000000E+00 -0.00000000000E+00 -0.45593999997E+02  0.45594000000E+02  0.51100000000E-03 0. -1.
         23    2    1    2    0    0  0.00000000000E+00  0.88817841970E-15  0.00000000000E+00  0.91188000000E+02  0.91188000000E+02 0.  0.
    9900012    2    3    3    0    0  0.14021698779E+02 -0.64576381009E+00 -0.34040495402E+02  0.54367076943E+02  0.39999983507E+02 0.  0.
        -12    1    3    3    0    0 -0.14021698779E+02  0.64576381009E+00  0.34040495402E+02  0.36820923057E+02  0.00000000000E+00 0.  1.
         11    1    4    4    0    0  0.38248919791E+01 -0.91376672607E+01 -0.11526653074E+02  0.15198371392E+02  0.51100000000E-03 0. -1.
        -11    1    4    4    0    0 -0.24757554393E+01  0.37633609817E+01  0.60624950191E+01  0.75528866661E+01  0.51100000000E-03 0.  1.
         12    1    4    4    0    0  0.12672562239E+02  0.47285424689E+01 -0.28576337347E+02  0.31615818885E+02  0.00000000000E+00 0. -1.
</event>
<event>
 8    1  0.2502398E-006  0.9118800E+02  0.7816164E-02  0.1184000E+00
        -11   -1    0    0    0    0  0.00000000000E+00  0.00000000000E+00  0.45593999997E+02  0.45594000000E+02  0.51100000000E-03 0. -1.
         11   -1    0    0    0    0 -0.00000000000E+00 -0.00000000000E+00 -0.45593999997E+02  0.45594000000E+02  0.51100000000E-03 0.  1.
         23    2    1    2    0    0  0.00000000000E+00 -0.35527136788E-14  0.00000000000E+00  0.91188000000E+02  0.91188000000E+02 0.  0.
    9900012    2    3    3    0    0 -0.28651170361E+02  0.20822595264E+02  0.10065288504E+02  0.54367081091E+02  0.39999992964E+02 0.  0.
         12    1    3    3    0    0  0.28651170361E+02 -0.20822595264E+02 -0.10065288504E+02  0.36820918909E+02  0.00000000000E+00 0. -1.
         11    1    4    4    0    0 -0.11499678332E+02  0.21274593299E+02  0.13728547567E+02  0.27808702601E+02  0.51100000000E-03 0. -1.
        -11    1    4    4    0    0 -0.87133056762E+00 -0.48130981560E+01  0.55113773130E+01  0.73688812560E+01  0.51100000000E-03 0.  1.
        -12    1    4    4    0    0 -0.16280161462E+02  0.43611001209E+01 -0.91746363758E+01  0.19189497235E+02  0.00000000000E+00 0.  1.
</event>
<event>
 8    1  0.2502398E-006  0.9118800E+02  0.7816164E-02  0.1184000E+00
        -11   -1    0    0    0    0  0.00000000000E+00  0.00000000000E+00  0.45593999997E+02  0.45594000000E+02  0.51100000000E-03 0.  1.
         11   -1    0    0    0    0 -0.00000000000E+00 -0.00000000000E+00 -0.45593999997E+02  0.45594000000E+02  0.51100000000E-03 0. -1.
         23    2    1    2    0    0  0.17763568394E-14  0.00000000000E+00  0.00000000000E+00  0.91188000000E+02  0.91188000000E+02 0.  0.
    9900012    2    3    3    0    0  0.56368623391E+01  0.36344818018E+02 -0.17496821439E+01  0.54367063002E+02  0.39999951726E+02 0.  0.
        -12    1    3    3    0    0 -0.56368623391E+01 -0.36344818018E+02  0.17496821439E+01  0.36820936998E+02  0.00000000000E+00 0.  1.
         11    1    4    4    0    0 -0.15417542241E+02  0.21377086688E+02 -0.24785202930E+01  0.26473071358E+02  0.51100000000E-03 0. -1.
        -11    1    4    4    0    0 -0.51909161266E+00 -0.19125679418E+00 -0.13364105936E+01  0.14463847342E+01  0.51100000000E-03 0.  1.
        -12    1    4    4    0    0  0.21573496192E+02  0.15158988124E+02  0.20652487427E+01  0.26447606910E+02  0.00000000000E+00 0.  1.
</event>
<event>
 8    1  0.2502398E-006  0.9118800E+02  0.7816164E-02  0.1184000E+00
        -11   -1    0    0    0    0  0.00000000000E+00  0.00000000000E+00  0.45593999997E+02  0.45594000000E+02  0.51100000000E-03 0. -1.
         11   -1    0    0    0    0 -0.00000000000E+00 -0.00000000000E+00 -0.45593999997E+02  0.45594000000E+02  0.51100000000E-03 0.  1.
         23    2    1    2    0    0  0.17763568394E-14  0.00000000000E+00  0.00000000000E+00  0.91188000000E+02  0.91188000000E+02 0.  0.
    9900012    2    3    3    0    0 -0.60086208716E+01  0.34311148389E+02  0.11933976537E+02  0.54367106142E+02  0.40000050071E+02 0.  0.
        -12    1    3    3    0    0  0.60086208716E+01 -0.34311148389E+02 -0.11933976537E+02  0.36820893858E+02  0.00000000000E+00 0.  1.
         11    1    4    4    0    0  0.66049066427E+01  0.29347035233E+02  0.19193720113E+02  0.35682939351E+02  0.51100000000E-03 0. -1.
        -11    1    4    4    0    0  0.10002837922E+01  0.19972329636E+01 -0.36691666589E+01  0.42956130421E+01  0.51100000000E-03 0.  1.
         12    1    4    4    0    0 -0.13613811307E+02  0.29668801924E+01 -0.35905769174E+01  0.14388553748E+02  0.00000000000E+00 0. -1.
</event>
<event>
 8    1  0.2502398E-006  0.9118800E+02  0.7816164E-02  0.1184000E+00
        -11   -1    0    0    0    0  0.00000000000E+00  0.00000000000E+00  0.45593999997E+02  0.45594000000E+02  0.51100000000E-03 0.  1.
         11   -1    0    0    0    0 -0.00000000000E+00 -0.00000000000E+00 -0.45593999997E+02  0.45594000000E+02  0.51100000000E-03 0. -1.
         23    2    1    2    0    0  0.00000000000E+00  0.35527136788E-14  0.00000000000E+00  0.91188000000E+02  0.91188000000E+02 0.  0.
    9900012    2    3    3    0    0  0.30638523559E+02  0.19612263122E+02 -0.56938943310E+01  0.54367076284E+02  0.39999982004E+02 0.  0.
         12    1    3    3    0    0 -0.30638523559E+02 -0.19612263122E+02  0.56938943310E+01  0.36820923716E+02  0.00000000000E+00 0. -1.
         11    1    4    4    0    0  0.13548663506E+02  0.16945804953E+02  0.44979315546E+00  0.21700896351E+02  0.51100000000E-03 0. -1.
        -11    1    4    4    0    0 -0.10317163656E+01 -0.98521316843E+01 -0.33878208967E+01  0.10469301222E+02  0.51100000000E-03 0.  1.
        -12    1    4    4    0    0  0.18121576419E+02  0.12518589854E+02 -0.27558665898E+01  0.22196878711E+02  0.00000000000E+00 0.  1.
</event>
<event>
 8    1  0.2502398E-006  0.9118800E+02  0.7816164E-02  0.1184000E+00
        -11   -1    0    0    0    0  0.00000000000E+00  0.00000000000E+00  0.45593999997E+02  0.45594000000E+02  0.51100000000E-03 0.  1.
         11   -1    0    0    0    0 -0.00000000000E+00 -0.00000000000E+00 -0.45593999997E+02  0.45594000000E+02  0.51100000000E-03 0. -1.
         23    2    1    2    0    0 -0.35527136788E-14  0.17763568394E-14  0.35527136788E-14  0.91188000000E+02  0.91188000000E+02 0.  0.
    9900012    2    3    3    0    0 -0.29860235616E+02  0.86640848351E+01  0.19725098067E+02  0.54367088403E+02  0.40000009632E+02 0.  0.
         12    1    3    3    0    0  0.29860235616E+02 -0.86640848351E+01 -0.19725098067E+02  0.36820911597E+02  0.00000000000E+00 0. -1.
         11    1    4    4    0    0 -0.42395334397E+00 -0.65286343800E+01  0.56090074481E+01  0.86176428401E+01  0.51100000000E-03 0. -1.
        -11    1    4    4    0    0  0.47500642201E+01  0.58138030708E+00  0.60372775132E+01  0.77038842923E+01  0.51100000000E-03 0.  1.
        -12    1    4    4    0    0 -0.34186346492E+02  0.14611338908E+02  0.80788131061E+01  0.38045561270E+02  0.00000000000E+00 0.  1.
</event>
<event>
 8    1  0.2502398E-006  0.9118800E+02  0.7816164E-02  0.1184000E+00
        -11   -1    0    0    0    0  0.00000000000E+00  0.00000000000E+00  0.45593999997E+02  0.45594000000E+02  0.51100000000E-03 0.  1.
         11   -1    0    0    0    0 -0.00000000000E+00 -0.00000000000E+00 -0.45593999997E+02  0.45594000000E+02  0.51100000000E-03 0. -1.
         23    2    1    2    0    0 -0.44408920985E-15  0.00000000000E+00 -0.71054273576E-14  0.91188000000E+02  0.91188000000E+02 0.  0.
    9900012    2    3    3    0    0  0.23444240878E+01  0.10416083642E+02 -0.35239112046E+02  0.54366998648E+02  0.39999805018E+02 0.  0.
        -12    1    3    3    0    0 -0.23444240878E+01 -0.10416083642E+02  0.35239112046E+02  0.36821001352E+02  0.00000000000E+00 0.  1.
         11    1    4    4    0    0  0.41441158460E+01  0.45531034621E+01 -0.57867055686E+01  0.84492845188E+01  0.51100000000E-03 0. -1.
        -11    1    4    4    0    0  0.58561718107E+01 -0.13005359917E+02 -0.80565982459E+01  0.16381175489E+02  0.51100000000E-03 0.  1.
        -12    1    4    4    0    0 -0.76558635689E+01  0.18868340096E+02 -0.21395808232E+02  0.29536538641E+02  0.00000000000E+00 0.  1.
</event>
<event>
 8    1  0.2502398E-006  0.9118800E+02  0.7816164E-02  0.1184000E+00
        -11   -1    0    0    0    0  0.00000000000E+00  0.00000000000E+00  0.45593999997E+02  0.45594000000E+02  0.51100000000E-03 0. -1.
         11   -1    0    0    0    0 -0.00000000000E+00 -0.00000000000E+00 -0.45593999997E+02  0.45594000000E+02  0.51100000000E-03 0.  1.
         23    2    1    2    0    0  0.00000000000E+00  0.00000000000E+00  0.00000000000E+00  0.91188000000E+02  0.91188000000E+02 0.  0.
    9900012    2    3    3    0    0 -0.12200968156E+02  0.24873566602E+02 -0.24253284490E+02  0.54367085454E+02  0.40000002910E+02 0.  0.
         12    1    3    3    0    0  0.12200968156E+02 -0.24873566602E+02  0.24253284490E+02  0.36820914546E+02  0.00000000000E+00 0. -1.
         11    1    4    4    0    0  0.31446119418E+00  0.91617021227E+01  0.61016118343E+01  0.11012054253E+02  0.51100000000E-03 0. -1.
        -11    1    4    4    0    0 -0.79627785193E+00  0.18500653210E+02 -0.14950542894E+02  0.23799726064E+02  0.51100000000E-03 0.  1.
        -12    1    4    4    0    0 -0.11719151498E+02 -0.27887887314E+01 -0.15404353430E+02  0.19555305138E+02  0.00000000000E+00 0.  1.
</event>
<event>
 8    1  0.2502398E-006  0.9118800E+02  0.7816164E-02  0.1184000E+00
        -11   -1    0    0    0    0  0.00000000000E+00  0.00000000000E+00  0.45593999997E+02  0.45594000000E+02  0.51100000000E-03 0. -1.
         11   -1    0    0    0    0 -0.00000000000E+00 -0.00000000000E+00 -0.45593999997E+02  0.45594000000E+02  0.51100000000E-03 0.  1.
         23    2    1    2    0    0 -0.35527136788E-14  0.00000000000E+00  0.35527136788E-14  0.91188000000E+02  0.91188000000E+02 0.  0.
    9900012    2    3    3    0    0 -0.25573047489E+02  0.18973796159E+02  0.18487670009E+02  0.54367086908E+02  0.40000006225E+02 0.  0.
        -12    1    3    3    0    0  0.25573047489E+02 -0.18973796159E+02 -0.18487670009E+02  0.36820913092E+02  0.00000000000E+00 0.  1.
         11    1    4    4    0    0 -0.11288231534E+02  0.21841765441E+02  0.19768349155E+02  0.31547971683E+02  0.51100000000E-03 0. -1.
        -11    1    4    4    0    0  0.13377789982E+01  0.46121997009E+01  0.19788954144E+01  0.51940413987E+01  0.51100000000E-03 0.  1.
        -12    1    4    4    0    0 -0.15622594953E+02 -0.74801689828E+01 -0.32595745603E+01  0.17625073826E+02  0.00000000000E+00 0.  1.
</event>
<event>
 8    1  0.2502398E-006  0.9118800E+02  0.7816164E-02  0.1184000E+00
        -11   -1    0    0    0    0  0.00000000000E+00  0.00000000000E+00  0.45593999997E+02  0.45594000000E+02  0.51100000000E-03 0.  1.
         11   -1    0    0    0    0 -0.00000000000E+00 -0.00000000000E+00 -0.45593999997E+02  0.45594000000E+02  0.51100000000E-03 0. -1.
         23    2    1    2    0    0  0.88817841970E-15  0.00000000000E+00  0.00000000000E+00  0.91188000000E+02  0.91188000000E+02 0.  0.
    9900012    2    3    3    0    0 -0.21460976588E+01 -0.33244340679E+02  0.15684090242E+02  0.54367046603E+02  0.39999914340E+02 0.  0.
         12    1    3    3    0    0  0.21460976588E+01  0.33244340679E+02 -0.15684090242E+02  0.36820953397E+02  0.00000000000E+00 0. -1.
         11    1    4    4    0    0 -0.47041815884E+01 -0.78328958392E+01 -0.86025838328E+01  0.12549423513E+02  0.51100000000E-03 0. -1.
        -11    1    4    4    0    0 -0.69247373383E+01 -0.13179678510E+02  0.21406584482E+02  0.26074849420E+02  0.51100000000E-03 0.  1.
        -12    1    4    4    0    0  0.94828212679E+01 -0.12231766330E+02  0.28800895929E+01  0.15742773670E+02  0.00000000000E+00 0.  1.
</event>
<event>
 8    1  0.2502398E-006  0.9118800E+02  0.7816164E-02  0.1184000E+00
        -11   -1    0    0    0    0  0.00000000000E+00  0.00000000000E+00  0.45593999997E+02  0.45594000000E+02  0.51100000000E-03 0.  1.
         11   -1    0    0    0    0 -0.00000000000E+00 -0.00000000000E+00 -0.45593999997E+02  0.45594000000E+02  0.51100000000E-03 0. -1.
         23    2    1    2    0    0  0.00000000000E+00  0.88817841970E-15  0.00000000000E+00  0.91188000000E+02  0.91188000000E+02 0.  0.
    9900012    2    3    3    0    0  0.27997892796E+02  0.67885305542E+01  0.22930659029E+02  0.54367064764E+02  0.39999955743E+02 0.  0.
         12    1    3    3    0    0 -0.27997892796E+02 -0.67885305542E+01 -0.22930659029E+02  0.36820935236E+02  0.00000000000E+00 0. -1.
         11    1    4    4    0    0  0.15014269689E+02  0.17766758786E+02  0.85893738850E+01  0.24796438374E+02  0.51100000000E-03 0. -1.
        -11    1    4    4    0    0  0.14645247575E+02 -0.11565393062E+02  0.17736433925E+02  0.25745342916E+02  0.51100000000E-03 0.  1.
        -12    1    4    4    0    0 -0.16616244686E+01  0.58716483051E+00 -0.33951487807E+01  0.38252834740E+01  0.00000000000E+00 0.  1.
</event>
<event>
 8    1  0.2502398E-006  0.9118800E+02  0.7816164E-02  0.1184000E+00
        -11   -1    0    0    0    0  0.00000000000E+00  0.00000000000E+00  0.45593999997E+02  0.45594000000E+02  0.51100000000E-03 0. -1.
         11   -1    0    0    0    0 -0.00000000000E+00 -0.00000000000E+00 -0.45593999997E+02  0.45594000000E+02  0.51100000000E-03 0.  1.
         23    2    1    2    0    0  0.17763568394E-14  0.00000000000E+00  0.00000000000E+00  0.91188000000E+02  0.91188000000E+02 0.  0.
    9900012    2    3    3    0    0 -0.10262506365E+02 -0.11422022269E+02 -0.33466373461E+02  0.54367084989E+02  0.40000001849E+02 0.  0.
         12    1    3    3    0    0  0.10262506365E+02  0.11422022269E+02  0.33466373461E+02  0.36820915011E+02  0.00000000000E+00 0. -1.
         11    1    4    4    0    0 -0.61953160930E+01 -0.22545958835E+01  0.28897314730E+01  0.71983117699E+01  0.51100000000E-03 0. -1.
        -11    1    4    4    0    0 -0.15067797691E+02 -0.42693754249E+01 -0.11121185500E+02  0.19207989509E+02  0.51100000000E-03 0.  1.
         12    1    4    4    0    0  0.11000607419E+02 -0.48980509608E+01 -0.25234919435E+02  0.27960783710E+02  0.00000000000E+00 0. -1.
</event>
<event>
 8    1  0.2502398E-006  0.9118800E+02  0.7816164E-02  0.1184000E+00
        -11   -1    0    0    0    0  0.00000000000E+00  0.00000000000E+00  0.45593999997E+02  0.45594000000E+02  0.51100000000E-03 0.  1.
         11   -1    0    0    0    0 -0.00000000000E+00 -0.00000000000E+00 -0.45593999997E+02  0.45594000000E+02  0.51100000000E-03 0. -1.
         23    2    1    2    0    0  0.00000000000E+00  0.00000000000E+00  0.00000000000E+00  0.91188000000E+02  0.91188000000E+02 0.  0.
    9900012    2    3    3    0    0 -0.65116850530E+01 -0.26157705157E+02 -0.25082893092E+02  0.54367094156E+02  0.40000022748E+02 0.  0.
        -12    1    3    3    0    0  0.65116850530E+01  0.26157705157E+02  0.25082893092E+02  0.36820905844E+02  0.00000000000E+00 0.  1.
         11    1    4    4    0    0 -0.61625989396E+01 -0.35601836385E+01 -0.61125321281E+01  0.93816620334E+01  0.51100000000E-03 0. -1.
        -11    1    4    4    0    0 -0.13254998787E+02 -0.20461223655E+02 -0.33462413758E+01  0.24608006784E+02  0.51100000000E-03 0.  1.
         12    1    4    4    0    0  0.12905912674E+02 -0.21362978636E+01 -0.15624119588E+02  0.20377425338E+02  0.00000000000E+00 0. -1.
</event>
<event>
 8    1  0.2502398E-006  0.9118800E+02  0.7816164E-02  0.1184000E+00
        -11   -1    0    0    0    0  0.00000000000E+00  0.00000000000E+00  0.45593999997E+02  0.45594000000E+02  0.51100000000E-03 0. -1.
         11   -1    0    0    0    0 -0.00000000000E+00 -0.00000000000E+00 -0.45593999997E+02  0.45594000000E+02  0.51100000000E-03 0.  1.
         23    2    1    2    0    0  0.00000000000E+00  0.17763568394E-14  0.71054273576E-14  0.91188000000E+02  0.91188000000E+02 0.  0.
    9900012    2    3    3    0    0  0.24064056279E+01 -0.10207228994E+02  0.35295882904E+02  0.54367113784E+02  0.40000067493E+02 0.  0.
        -12    1    3    3    0    0 -0.24064056279E+01  0.10207228994E+02 -0.35295882904E+02  0.36820886216E+02  0.00000000000E+00 0.  1.
         11    1    4    4    0    0  0.36492994514E+01 -0.14095763417E+02  0.22205605670E+02  0.26553659940E+02  0.51100000000E-03 0. -1.
        -11    1    4    4    0    0  0.50936437954E-01  0.42068064702E+01  0.20172726553E+02  0.20606763745E+02  0.51100000000E-03 0.  1.
        -12    1    4    4    0    0 -0.12938302614E+01 -0.31827204678E+00 -0.70824493181E+01  0.72066900991E+01  0.00000000000E+00 0.  1.
</event>
<event>
 8    1  0.2502398E-006  0.9118800E+02  0.7816164E-02  0.1184000E+00
        -11   -1    0    0    0    0  0.00000000000E+00  0.00000000000E+00  0.45593999997E+02  0.45594000000E+02  0.51100000000E-03 0. -1.
         11   -1    0    0    0    0 -0.00000000000E+00 -0.00000000000E+00 -0.45593999997E+02  0.45594000000E+02  0.51100000000E-03 0.  1.
         23    2    1    2    0    0  0.35527136788E-14  0.00000000000E+00 -0.88817841970E-15  0.91188000000E+02  0.91188000000E+02 0.  0.
    9900012    2    3    3    0    0 -0.31469497409E+02  0.18019711459E+02  0.63828713733E+01  0.54367077752E+02  0.39999985350E+02 0.  0.
        -12    1    3    3    0    0  0.31469497409E+02 -0.18019711459E+02 -0.63828713733E+01  0.36820922248E+02  0.00000000000E+00 0.  1.
         11    1    4    4    0    0 -0.15166079532E+02  0.12847103095E+02 -0.76259615247E+00  0.19890690774E+02  0.51100000000E-03 0. -1.
        -11    1    4    4    0    0  0.40704156047E+01  0.72396918267E+01  0.10851666966E+02  0.13665288038E+02  0.51100000000E-03 0.  1.
        -12    1    4    4    0    0 -0.20373833483E+02 -0.20670834632E+01 -0.37061994405E+01  0.20811098940E+02  0.00000000000E+00 0.  1.
</event>
<event>
 8    1  0.2502398E-006  0.9118800E+02  0.7816164E-02  0.1184000E+00
        -11   -1    0    0    0    0  0.00000000000E+00  0.00000000000E+00  0.45593999997E+02  0.45594000000E+02  0.51100000000E-03 0.  1.
         11   -1    0    0    0    0 -0.00000000000E+00 -0.00000000000E+00 -0.45593999997E+02  0.45594000000E+02  0.51100000000E-03 0. -1.
         23    2    1    2    0    0 -0.17763568394E-14  0.00000000000E+00 -0.35527136788E-14  0.91188000000E+02  0.91188000000E+02 0.  0.
    9900012    2    3    3    0    0 -0.91954634525E+01  0.25271400040E+02  0.25151059857E+02  0.54367136078E+02  0.40000118316E+02 0.  0.
         12    1    3    3    0    0  0.91954634525E+01 -0.25271400040E+02 -0.25151059857E+02  0.36820863922E+02  0.00000000000E+00 0. -1.
         11    1    4    4    0    0  0.15021749304E+02  0.10505829076E+02  0.88023119770E+01  0.20334849228E+02  0.51100000000E-03 0. -1.
        -11    1    4    4    0    0 -0.18151703655E+02  0.11965276960E+02  0.16589704355E+02  0.27347220867E+02  0.51100000000E-03 0.  1.
        -12    1    4    4    0    0 -0.60655091016E+01  0.28002940036E+01 -0.24095647563E+00  0.66850659825E+01  0.00000000000E+00 0.  1.
</event>
<event>
 8    1  0.2502398E-006  0.9118800E+02  0.7816164E-02  0.1184000E+00
        -11   -1    0    0    0    0  0.00000000000E+00  0.00000000000E+00  0.45593999997E+02  0.45594000000E+02  0.51100000000E-03 0. -1.
         11   -1    0    0    0    0 -0.00000000000E+00 -0.00000000000E+00 -0.45593999997E+02  0.45594000000E+02  0.51100000000E-03 0.  1.
         23    2    1    2    0    0  0.00000000000E+00  0.00000000000E+00  0.00000000000E+00  0.91188000000E+02  0.91188000000E+02 0.  0.
    9900012    2    3    3    0    0 -0.32406250243E+02 -0.10038257852E+02 -0.14312530061E+02  0.54367079422E+02  0.39999989158E+02 0.  0.
         12    1    3    3    0    0  0.32406250243E+02  0.10038257852E+02  0.14312530061E+02  0.36820920578E+02  0.00000000000E+00 0. -1.
         11    1    4    4    0    0 -0.33193422379E+02 -0.14846043038E+02  0.16737155746E+01  0.36400681411E+02  0.51100000000E-03 0. -1.
        -11    1    4    4    0    0  0.10678292884E+01  0.34608516341E+01 -0.16176898944E+02  0.16577388610E+02  0.51100000000E-03 0.  1.
         12    1    4    4    0    0 -0.28065715196E+00  0.13469335521E+01  0.19065330862E+00  0.13890094006E+01  0.00000000000E+00 0. -1.
</event>
<event>
 8    1  0.2502398E-006  0.9118800E+02  0.7816164E-02  0.1184000E+00
        -11   -1    0    0    0    0  0.00000000000E+00  0.00000000000E+00  0.45593999997E+02  0.45594000000E+02  0.51100000000E-03 0.  1.
         11   -1    0    0    0    0 -0.00000000000E+00 -0.00000000000E+00 -0.45593999997E+02  0.45594000000E+02  0.51100000000E-03 0. -1.
         23    2    1    2    0    0 -0.17763568394E-14  0.00000000000E+00  0.00000000000E+00  0.91188000000E+02  0.91188000000E+02 0.  0.
    9900012    2    3    3    0    0 -0.98622932960E+01 -0.35385812596E+02  0.25216314230E+01  0.54367093070E+02  0.40000020272E+02 0.  0.
        -12    1    3    3    0    0  0.98622932960E+01  0.35385812596E+02 -0.25216314230E+01  0.36820906930E+02  0.00000000000E+00 0.  1.
         11    1    4    4    0    0  0.52907941343E+01 -0.74096426507E+01 -0.10699572353E+02  0.14049062445E+02  0.51100000000E-03 0. -1.
        -11    1    4    4    0    0 -0.93340102674E+01 -0.28349899348E+02  0.50369506993E+01  0.30268984345E+02  0.51100000000E-03 0.  1.
        -12    1    4    4    0    0 -0.58190771630E+01  0.37372940269E+00  0.81842530770E+01  0.10049046279E+02  0.00000000000E+00 0.  1.
</event>
<event>
 8    1  0.2502398E-006  0.9118800E+02  0.7816164E-02  0.1184000E+00
        -11   -1    0    0    0    0  0.00000000000E+00  0.00000000000E+00  0.45593999997E+02  0.45594000000E+02  0.51100000000E-03 0. -1.
         11   -1    0    0    0    0 -0.00000000000E+00 -0.00000000000E+00 -0.45593999997E+02  0.45594000000E+02  0.51100000000E-03 0.  1.
         23    2    1    2    0    0  0.35527136788E-14  0.17763568394E-14  0.00000000000E+00  0.91188000000E+02  0.91188000000E+02 0.  0.
    9900012    2    3    3    0    0 -0.31755999016E+02 -0.15532055509E+02  0.10300101693E+02  0.54367077731E+02  0.39999985304E+02 0.  0.
         12    1    3    3    0    0  0.31755999016E+02  0.15532055509E+02 -0.10300101693E+02  0.36820922269E+02  0.00000000000E+00 0. -1.
         11    1    4    4    0    0 -0.11655167474E+02 -0.95176933585E+01  0.17050027973E+02  0.22740555619E+02  0.51100000000E-03 0. -1.
        -11    1    4    4    0    0  0.10496583052E+01 -0.88991263763E+01  0.77126775785E+00  0.89939472443E+01  0.51100000000E-03 0.  1.
         12    1    4    4    0    0 -0.21150489847E+02  0.28847642262E+01 -0.75211940376E+01  0.22632574868E+02  0.00000000000E+00 0. -1.
</event>
<event>
 8    1  0.2502398E-006  0.9118800E+02  0.7816164E-02  0.1184000E+00
        -11   -1    0    0    0    0  0.00000000000E+00  0.00000000000E+00  0.45593999997E+02  0.45594000000E+02  0.51100000000E-03 0.  1.
         11   -1    0    0    0    0 -0.00000000000E+00 -0.00000000000E+00 -0.45593999997E+02  0.45594000000E+02  0.51100000000E-03 0. -1.
         23    2    1    2    0    0  0.17763568394E-14 -0.44408920985E-15 -0.71054273576E-14  0.91188000000E+02  0.91188000000E+02 0.  0.
    9900012    2    3    3    0    0  0.13810093007E+02 -0.16862949587E+01  0.34091297697E+02  0.54367097808E+02  0.40000031073E+02 0.  0.
         12    1    3    3    0    0 -0.13810093007E+02  0.16862949587E+01 -0.34091297697E+02  0.36820902192E+02  0.00000000000E+00 0. -1.
         11    1    4    4    0    0 -0.26325136258E+01 -0.14155801571E+01  0.19233994589E+02  0.19464854053E+02  0.51100000000E-03 0. -1.
        -11    1    4    4    0    0  0.13712999585E+02  0.68122587195E+01  0.20397226272E+02  0.25504902790E+02  0.51100000000E-03 0.  1.
         12    1    4    4    0    0  0.27296070478E+01 -0.70829735211E+01 -0.55399231647E+01  0.93973409647E+01  0.00000000000E+00 0. -1.
</event>
<event>
 8    1  0.2502398E-006  0.9118800E+02  0.7816164E-02  0.1184000E+00
        -11   -1    0    0    0    0  0.00000000000E+00  0.00000000000E+00  0.45593999997E+02  0.45594000000E+02  0.51100000000E-03 0. -1.
         11   -1    0    0    0    0 -0.00000000000E+00 -0.00000000000E+00 -0.45593999997E+02  0.45594000000E+02  0.51100000000E-03 0.  1.
         23    2    1    2    0    0 -0.30531133177E-15  0.00000000000E+00  0.00000000000E+00  0.91188000000E+02  0.91188000000E+02 0.  0.
    9900012    2    3    3    0    0  0.11255573538E+00 -0.33013406783E+02  0.16305906969E+02  0.54367077981E+02  0.39999985874E+02 0.  0.
         12    1    3    3    0    0 -0.11255573538E+00  0.33013406783E+02 -0.16305906969E+02  0.36820922019E+02  0.00000000000E+00 0. -1.
         11    1    4    4    0    0 -0.26408516842E+01 -0.85930850466E-01  0.49098218819E+01  0.55756464111E+01  0.51100000000E-03 0. -1.
        -11    1    4    4    0    0 -0.65339497885E+00 -0.33979459315E+02  0.20030811167E+02  0.39449511741E+02  0.51100000000E-03 0.  1.
        -12    1    4    4    0    0  0.34068023984E+01  0.10519833824E+01 -0.86347260797E+01  0.93419198290E+01  0.00000000000E+00 0.  1.
</event>
<event>
 8    1  0.2502398E-006  0.9118800E+02  0.7816164E-02  0.1184000E+00
        -11   -1    0    0    0    0  0.00000000000E+00  0.00000000000E+00  0.45593999997E+02  0.45594000000E+02  0.51100000000E-03 0.  1.
         11   -1    0    0    0    0 -0.00000000000E+00 -0.00000000000E+00 -0.45593999997E+02  0.45594000000E+02  0.51100000000E-03 0. -1.
         23    2    1    2    0    0  0.22204460493E-14  0.00000000000E+00  0.00000000000E+00  0.91188000000E+02  0.91188000000E+02 0.  0.
    9900012    2    3    3    0    0  0.34666330658E+01  0.22255479402E+02 -0.29128279751E+02  0.54367074027E+02  0.39999976859E+02 0.  0.
        -12    1    3    3    0    0 -0.34666330658E+01 -0.22255479402E+02  0.29128279751E+02  0.36820925973E+02  0.00000000000E+00 0.  1.
         11    1    4    4    0    0  0.19785564282E+02  0.20114341235E+02 -0.22919495971E+02  0.36350496188E+02  0.51100000000E-03 0. -1.
        -11    1    4    4    0    0 -0.12486278578E+02 -0.72834684300E-01 -0.46313228601E+01  0.13317717872E+02  0.51100000000E-03 0.  1.
         12    1    4    4    0    0 -0.38326526387E+01  0.22139728512E+01 -0.15774609200E+01  0.46988599670E+01  0.00000000000E+00 0. -1.
</event>
<event>
 8    1  0.2502398E-006  0.9118800E+02  0.7816164E-02  0.1184000E+00
        -11   -1    0    0    0    0  0.00000000000E+00  0.00000000000E+00  0.45593999997E+02  0.45594000000E+02  0.51100000000E-03 0.  1.
         11   -1    0    0    0    0 -0.00000000000E+00 -0.00000000000E+00 -0.45593999997E+02  0.45594000000E+02  0.51100000000E-03 0. -1.
         23    2    1    2    0    0  0.17763568394E-14  0.35527136788E-14  0.00000000000E+00  0.91188000000E+02  0.91188000000E+02 0.  0.
    9900012    2    3    3    0    0  0.15280229681E+02 -0.22206363882E+02  0.25083362052E+02  0.54367040374E+02  0.39999900140E+02 0.  0.
         12    1    3    3    0    0 -0.15280229681E+02  0.22206363882E+02 -0.25083362052E+02  0.36820959626E+02  0.00000000000E+00 0. -1.
         11    1    4    4    0    0 -0.35540184752E+01  0.44958634098E+01  0.93707918101E+01  0.10984333140E+02  0.51100000000E-03 0. -1.
        -11    1    4    4    0    0  0.14506600102E+01  0.24427377916E+00 -0.49973448952E+01  0.52093704424E+01  0.51100000000E-03 0.  1.
        -12    1    4    4    0    0  0.17383588146E+02 -0.26946501071E+02  0.20709915137E+02  0.38173336791E+02  0.00000000000E+00 0.  1.
</event>
<event>
 8    1  0.2502398E-006  0.9118800E+02  0.7816164E-02  0.1184000E+00
        -11   -1    0    0    0    0  0.00000000000E+00  0.00000000000E+00  0.45593999997E+02  0.45594000000E+02  0.51100000000E-03 0.  1.
         11   -1    0    0    0    0 -0.00000000000E+00 -0.00000000000E+00 -0.45593999997E+02  0.45594000000E+02  0.51100000000E-03 0. -1.
         23    2    1    2    0    0  0.00000000000E+00  0.00000000000E+00  0.00000000000E+00  0.91188000000E+02  0.91188000000E+02 0.  0.
    9900012    2    3    3    0    0 -0.11128132210E+02  0.12004374037E+02  0.32982410968E+02  0.54367085349E+02  0.40000002670E+02 0.  0.
         12    1    3    3    0    0  0.11128132210E+02 -0.12004374037E+02 -0.32982410968E+02  0.36820914651E+02  0.00000000000E+00 0. -1.
         11    1    4    4    0    0  0.19681127709E+01 -0.44276124944E+01 -0.68939218634E+00  0.48941273101E+01  0.51100000000E-03 0. -1.
        -11    1    4    4    0    0 -0.12641276134E+02 -0.30284457366E+01  0.24969634983E+02  0.28150595328E+02  0.51100000000E-03 0.  1.
        -12    1    4    4    0    0 -0.45496884715E+00  0.19460432268E+02  0.87021681714E+01  0.21322362711E+02  0.00000000000E+00 0.  1.
</event>
<event>
 8    1  0.2502398E-006  0.9118800E+02  0.7816164E-02  0.1184000E+00
        -11   -1    0    0    0    0  0.00000000000E+00  0.00000000000E+00  0.45593999997E+02  0.45594000000E+02  0.51100000000E-03 0.  1.
         11   -1    0    0    0    0 -0.00000000000E+00 -0.00000000000E+00 -0.45593999997E+02  0.45594000000E+02  0.51100000000E-03 0. -1.
         23    2    1    2    0    0  0.00000000000E+00  0.35527136788E-14 -0.17763568394E-14  0.91188000000E+02  0.91188000000E+02 0.  0.
    9900012    2    3    3    0    0 -0.17144121294E+02 -0.31367146493E+02  0.88291593779E+01  0.54367179404E+02  0.40000217086E+02 0.  0.
         12    1    3    3    0    0  0.17144121294E+02  0.31367146493E+02 -0.88291593779E+01  0.36820820596E+02  0.00000000000E+00 0. -1.
         11    1    4    4    0    0 -0.36837723915E+01  0.33437319374E+01  0.43228435756E+01  0.65907282710E+01  0.51100000000E-03 0. -1.
        -11    1    4    4    0    0 -0.85584731281E+01 -0.20992615270E+02  0.17198120476E+02  0.28455451258E+02  0.51100000000E-03 0.  1.
         12    1    4    4    0    0 -0.49018757747E+01 -0.13718263161E+02 -0.12691804674E+02  0.19320999874E+02  0.00000000000E+00 0. -1.
</event>
<event>
 8    1  0.2502398E-006  0.9118800E+02  0.7816164E-02  0.1184000E+00
        -11   -1    0    0    0    0  0.00000000000E+00  0.00000000000E+00  0.45593999997E+02  0.45594000000E+02  0.51100000000E-03 0. -1.
         11   -1    0    0    0    0 -0.00000000000E+00 -0.00000000000E+00 -0.45593999997E+02  0.45594000000E+02  0.51100000000E-03 0.  1.
         23    2    1    2    0    0 -0.35527136788E-14  0.00000000000E+00 -0.17763568394E-14  0.91188000000E+02  0.91188000000E+02 0.  0.
    9900012    2    3    3    0    0  0.30004187098E+02  0.21153949462E+02 -0.28352521222E+01  0.54367089149E+02  0.40000011334E+02 0.  0.
        -12    1    3    3    0    0 -0.30004187098E+02 -0.21153949462E+02  0.28352521222E+01  0.36820910851E+02  0.00000000000E+00 0.  1.
         11    1    4    4    0    0 -0.26173424661E+01  0.73247059455E+00  0.15844696288E+01  0.31460354452E+01  0.51100000000E-03 0. -1.
        -11    1    4    4    0    0  0.87709871790E+01  0.71833167928E+01 -0.17592297960E+02  0.20928908333E+02  0.51100000000E-03 0.  1.
         12    1    4    4    0    0  0.23850542386E+02  0.13238162075E+02  0.13172576209E+02  0.30292145371E+02  0.00000000000E+00 0. -1.
</event>
<event>
 8    1  0.2584069E-006  0.9118800E+02  0.7816164E-02  0.1184000E+00
        -11   -1    0    0    0    0  0.00000000000E+00  0.00000000000E+00  0.45593999997E+02  0.45594000000E+02  0.51100000000E-03 0.  1.
         11   -1    0    0    0    0 -0.00000000000E+00 -0.00000000000E+00 -0.45593999997E+02  0.45594000000E+02  0.51100000000E-03 0. -1.
         23    2    1    2    0    0 -0.44408920985E-15 -0.88817841970E-15  0.00000000000E+00  0.91188000000E+02  0.91188000000E+02 0.  0.
    9900012    2    3    3    0    0 -0.27102637835E+01  0.65777882305E+01 -0.36127087619E+02  0.54367091706E+02  0.40000017162E+02 0.  0.
        -12    1    3    3    0    0  0.27102637835E+01 -0.65777882305E+01  0.36127087619E+02  0.36820908294E+02  0.00000000000E+00 0.  1.
         11    1    4    4    0    0 -0.83854811044E+01  0.16609563668E+01  0.13139559915E+01  0.86487889334E+01  0.51100000000E-03 0. -1.
        -11    1    4    4    0    0  0.28998033432E+01  0.46076704554E+00  0.34279412017E+01  0.45135293112E+01  0.51100000000E-03 0.  1.
         12    1    4    4    0    0  0.27754139777E+01  0.44560648181E+01 -0.40868984812E+02  0.41204773461E+02  0.00000000000E+00 0. -1.
</event>
<event>
 8    1  0.2502398E-006  0.9118800E+02  0.7816164E-02  0.1184000E+00
        -11   -1    0    0    0    0  0.00000000000E+00  0.00000000000E+00  0.45593999997E+02  0.45594000000E+02  0.51100000000E-03 0. -1.
         11   -1    0    0    0    0 -0.00000000000E+00 -0.00000000000E+00 -0.45593999997E+02  0.45594000000E+02  0.51100000000E-03 0.  1.
         23    2    1    2    0    0  0.21163626407E-15  0.00000000000E+00  0.00000000000E+00  0.91188000000E+02  0.91188000000E+02 0.  0.
    9900012    2    3    3    0    0 -0.22304564884E-01  0.34704829774E+02 -0.12302611019E+02  0.54367082779E+02  0.39999996811E+02 0.  0.
         12    1    3    3    0    0  0.22304564884E-01 -0.34704829774E+02  0.12302611019E+02  0.36820917221E+02  0.00000000000E+00 0. -1.
         11    1    4    4    0    0 -0.52515572189E+01  0.15406149856E+02 -0.92667345267E+01  0.18729673667E+02  0.51100000000E-03 0. -1.
        -11    1    4    4    0    0 -0.17564917594E+01  0.17585825214E+02 -0.13984918503E+02  0.22537179450E+02  0.51100000000E-03 0.  1.
         12    1    4    4    0    0  0.69857444134E+01  0.17128547033E+01  0.10949042011E+02  0.13100229662E+02  0.00000000000E+00 0. -1.
</event>
<event>
 8    1  0.2502398E-006  0.9118800E+02  0.7816164E-02  0.1184000E+00
        -11   -1    0    0    0    0  0.00000000000E+00  0.00000000000E+00  0.45593999997E+02  0.45594000000E+02  0.51100000000E-03 0. -1.
         11   -1    0    0    0    0 -0.00000000000E+00 -0.00000000000E+00 -0.45593999997E+02  0.45594000000E+02  0.51100000000E-03 0.  1.
         23    2    1    2    0    0  0.00000000000E+00  0.00000000000E+00  0.00000000000E+00  0.91188000000E+02  0.91188000000E+02 0.  0.
    9900012    2    3    3    0    0  0.72154377431E+01  0.34370422460E+02  0.11063036707E+02  0.54367092039E+02  0.40000017921E+02 0.  0.
         12    1    3    3    0    0 -0.72154377431E+01 -0.34370422460E+02 -0.11063036707E+02  0.36820907961E+02  0.00000000000E+00 0. -1.
         11    1    4    4    0    0  0.36481090579E+01 -0.23419771626E+01 -0.33074182364E+01  0.54527582360E+01  0.51100000000E-03 0. -1.
        -11    1    4    4    0    0  0.16094745868E+02  0.23018201673E+02  0.70121825043E+01  0.28949078682E+02  0.51100000000E-03 0.  1.
        -12    1    4    4    0    0 -0.12527417183E+02  0.13694197950E+02  0.73582724389E+01  0.19965255121E+02  0.00000000000E+00 0.  1.
</event>
<event>
 8    1  0.2502398E-006  0.9118800E+02  0.7816164E-02  0.1184000E+00
        -11   -1    0    0    0    0  0.00000000000E+00  0.00000000000E+00  0.45593999997E+02  0.45594000000E+02  0.51100000000E-03 0. -1.
         11   -1    0    0    0    0 -0.00000000000E+00 -0.00000000000E+00 -0.45593999997E+02  0.45594000000E+02  0.51100000000E-03 0.  1.
         23    2    1    2    0    0  0.35527136788E-14  0.00000000000E+00  0.00000000000E+00  0.91188000000E+02  0.91188000000E+02 0.  0.
    9900012    2    3    3    0    0  0.16935930940E+02 -0.72980341764E+01 -0.31869928010E+02  0.54367090573E+02  0.40000014579E+02 0.  0.
         12    1    3    3    0    0 -0.16935930940E+02  0.72980341764E+01  0.31869928010E+02  0.36820909427E+02  0.00000000000E+00 0. -1.
         11    1    4    4    0    0  0.22524435959E+01  0.49948439512E+01 -0.20039539025E+02  0.20775107529E+02  0.51100000000E-03 0. -1.
        -11    1    4    4    0    0  0.30153560275E+01 -0.17583784122E+02 -0.10525677736E+02  0.20714046637E+02  0.51100000000E-03 0.  1.
         12    1    4    4    0    0  0.11668131317E+02  0.52909059941E+01 -0.13047112494E+01  0.12877936407E+02  0.00000000000E+00 0. -1.
</event>
<event>
 8    1  0.2502398E-006  0.9118800E+02  0.7816164E-02  0.1184000E+00
        -11   -1    0    0    0    0  0.00000000000E+00  0.00000000000E+00  0.45593999997E+02  0.45594000000E+02  0.51100000000E-03 0.  1.
         11   -1    0    0    0    0 -0.00000000000E+00 -0.00000000000E+00 -0.45593999997E+02  0.45594000000E+02  0.51100000000E-03 0. -1.
         23    2    1    2    0    0  0.00000000000E+00  0.00000000000E+00 -0.35527136788E-14  0.91188000000E+02  0.91188000000E+02 0.  0.
    9900012    2    3    3    0    0 -0.23772982170E+02  0.41717204078E+01  0.27806860470E+02  0.54367089886E+02  0.40000013014E+02 0.  0.
         12    1    3    3    0    0  0.23772982170E+02 -0.41717204078E+01 -0.27806860470E+02  0.36820910114E+02  0.00000000000E+00 0. -1.
         11    1    4    4    0    0 -0.23976267153E+01 -0.82715324166E+01 -0.32876399705E+00  0.86182915019E+01  0.51100000000E-03 0. -1.
        -11    1    4    4    0    0 -0.14351370094E+02  0.20683862304E+02  0.20968641622E+02  0.32763820215E+02  0.51100000000E-03 0.  1.
         12    1    4    4    0    0 -0.70239853615E+01 -0.82406094796E+01  0.71669828451E+01  0.12984978169E+02  0.00000000000E+00 0. -1.
</event>
<event>
 8    1  0.2502398E-006  0.9118800E+02  0.7816164E-02  0.1184000E+00
        -11   -1    0    0    0    0  0.00000000000E+00  0.00000000000E+00  0.45593999997E+02  0.45594000000E+02  0.51100000000E-03 0.  1.
         11   -1    0    0    0    0 -0.00000000000E+00 -0.00000000000E+00 -0.45593999997E+02  0.45594000000E+02  0.51100000000E-03 0. -1.
         23    2    1    2    0    0  0.00000000000E+00  0.00000000000E+00  0.15126788711E-14  0.91188000000E+02  0.91188000000E+02 0.  0.
    9900012    2    3    3    0    0 -0.34137480719E+02 -0.13798982615E+02 -0.16585095003E-01  0.54367084936E+02  0.40000001729E+02 0.  0.
        -12    1    3    3    0    0  0.34137480719E+02  0.13798982615E+02  0.16585095003E-01  0.36820915064E+02  0.00000000000E+00 0.  1.
         11    1    4    4    0    0 -0.58189367695E+01  0.73587405417E+01 -0.59568783930E+01  0.11112852376E+02  0.51100000000E-03 0. -1.
        -11    1    4    4    0    0 -0.31784196997E+02 -0.16937003980E+02  0.88210726100E+01  0.37079760043E+02  0.51100000000E-03 0.  1.
         12    1    4    4    0    0  0.34656530476E+01 -0.42207191773E+01 -0.28807793121E+01  0.61744725171E+01  0.00000000000E+00 0. -1.
</event>
<event>
 8    1  0.2502398E-006  0.9118800E+02  0.7816164E-02  0.1184000E+00
        -11   -1    0    0    0    0  0.00000000000E+00  0.00000000000E+00  0.45593999997E+02  0.45594000000E+02  0.51100000000E-03 0. -1.
         11   -1    0    0    0    0 -0.00000000000E+00 -0.00000000000E+00 -0.45593999997E+02  0.45594000000E+02  0.51100000000E-03 0.  1.
         23    2    1    2    0    0  0.17763568394E-14  0.71054273576E-14  0.00000000000E+00  0.91188000000E+02  0.91188000000E+02 0.  0.
    9900012    2    3    3    0    0 -0.10080872925E+02 -0.35239908865E+02  0.35079202440E+01  0.54367072796E+02  0.39999974052E+02 0.  0.
         12    1    3    3    0    0  0.10080872925E+02  0.35239908865E+02 -0.35079202440E+01  0.36820927204E+02  0.00000000000E+00 0. -1.
         11    1    4    4    0    0  0.28585367032E+00 -0.13645533638E+02  0.11033857546E+02  0.17550735404E+02  0.51100000000E-03 0. -1.
        -11    1    4    4    0    0 -0.92451110020E+01 -0.26807688039E+02 -0.98104791414E+00  0.28374049247E+02  0.51100000000E-03 0.  1.
         12    1    4    4    0    0 -0.11216155929E+01  0.52133128118E+01 -0.65448893883E+01  0.84422881446E+01  0.00000000000E+00 0. -1.
</event>
<event>
 8    1  0.2502398E-006  0.9118800E+02  0.7816164E-02  0.1184000E+00
        -11   -1    0    0    0    0  0.00000000000E+00  0.00000000000E+00  0.45593999997E+02  0.45594000000E+02  0.51100000000E-03 0. -1.
         11   -1    0    0    0    0 -0.00000000000E+00 -0.00000000000E+00 -0.45593999997E+02  0.45594000000E+02  0.51100000000E-03 0.  1.
         23    2    1    2    0    0  0.35527136788E-14  0.17763568394E-14  0.35527136788E-14  0.91188000000E+02  0.91188000000E+02 0.  0.
    9900012    2    3    3    0    0  0.18691400760E+02  0.13833077803E+02  0.28549208272E+02  0.54367084791E+02  0.40000001398E+02 0.  0.
         12    1    3    3    0    0 -0.18691400760E+02 -0.13833077803E+02 -0.28549208272E+02  0.36820915209E+02  0.00000000000E+00 0. -1.
         11    1    4    4    0    0 -0.54483525733E+01 -0.35161125878E+01 -0.50486481037E+01  0.82180558181E+01  0.51100000000E-03 0. -1.
        -11    1    4    4    0    0  0.11130014029E+01  0.57406398383E+01  0.59942229019E+01  0.83740328596E+01  0.51100000000E-03 0.  1.
        -12    1    4    4    0    0  0.23026751930E+02  0.11608550552E+02  0.27603633474E+02  0.37774996113E+02  0.00000000000E+00 0.  1.
</event>
<event>
 8    1  0.2502398E-006  0.9118800E+02  0.7816164E-02  0.1184000E+00
        -11   -1    0    0    0    0  0.00000000000E+00  0.00000000000E+00  0.45593999997E+02  0.45594000000E+02  0.51100000000E-03 0. -1.
         11   -1    0    0    0    0 -0.00000000000E+00 -0.00000000000E+00 -0.45593999997E+02  0.45594000000E+02  0.51100000000E-03 0.  1.
         23    2    1    2    0    0 -0.33306690739E-15  0.88817841970E-15 -0.71054273576E-14  0.91188000000E+02  0.91188000000E+02 0.  0.
    9900012    2    3    3    0    0  0.78508309147E+00  0.52937540312E+01 -0.36429939467E+02  0.54367072842E+02  0.39999974157E+02 0.  0.
         12    1    3    3    0    0 -0.78508309147E+00 -0.52937540312E+01  0.36429939467E+02  0.36820927158E+02  0.00000000000E+00 0. -1.
         11    1    4    4    0    0 -0.21535999358E+01 -0.86553576186E+01  0.25892562635E+01  0.92874892435E+01  0.51100000000E-03 0. -1.
        -11    1    4    4    0    0 -0.43955436895E+01 -0.16291121418E+01 -0.44690094758E+01  0.64766393024E+01  0.51100000000E-03 0.  1.
        -12    1    4    4    0    0  0.73342267168E+01  0.15578223792E+02 -0.34550186255E+02  0.38602944296E+02  0.00000000000E+00 0.  1.
</event>
<event>
 8    1  0.2502398E-006  0.9118800E+02  0.7816164E-02  0.1184000E+00
        -11   -1    0    0    0    0  0.00000000000E+00  0.00000000000E+00  0.45593999997E+02  0.45594000000E+02  0.51100000000E-03 0. -1.
         11   -1    0    0    0    0 -0.00000000000E+00 -0.00000000000E+00 -0.45593999997E+02  0.45594000000E+02  0.51100000000E-03 0.  1.
         23    2    1    2    0    0  0.00000000000E+00  0.00000000000E+00 -0.17763568394E-14  0.91188000000E+02  0.91188000000E+02 0.  0.
    9900012    2    3    3    0    0  0.21209994521E+02 -0.29300458588E+02  0.68842460828E+01  0.54367169140E+02  0.40000193689E+02 0.  0.
        -12    1    3    3    0    0 -0.21209994521E+02  0.29300458588E+02 -0.68842460828E+01  0.36820830860E+02  0.00000000000E+00 0.  1.
         11    1    4    4    0    0  0.87482866943E+01 -0.34690223425E+02  0.11789846016E+02  0.37668880933E+02  0.51100000000E-03 0. -1.
        -11    1    4    4    0    0  0.43952832095E+01 -0.71230166627E+00 -0.48496171913E+01  0.65836673153E+01  0.51100000000E-03 0.  1.
         12    1    4    4    0    0  0.80664246176E+01  0.61020665035E+01 -0.55982741763E-01  0.10114620892E+02  0.00000000000E+00 0. -1.
</event>
<event>
 8    1  0.2502398E-006  0.9118800E+02  0.7816164E-02  0.1184000E+00
        -11   -1    0    0    0    0  0.00000000000E+00  0.00000000000E+00  0.45593999997E+02  0.45594000000E+02  0.51100000000E-03 0.  1.
         11   -1    0    0    0    0 -0.00000000000E+00 -0.00000000000E+00 -0.45593999997E+02  0.45594000000E+02  0.51100000000E-03 0. -1.
         23    2    1    2    0    0 -0.35527136788E-14  0.00000000000E+00  0.00000000000E+00  0.91188000000E+02  0.91188000000E+02 0.  0.
    9900012    2    3    3    0    0 -0.30517860759E+02  0.17175394185E+02  0.11377761581E+02  0.54366980877E+02  0.39999764504E+02 0.  0.
         12    1    3    3    0    0  0.30517860759E+02 -0.17175394185E+02 -0.11377761581E+02  0.36821019123E+02  0.00000000000E+00 0. -1.
         11    1    4    4    0    0  0.26717599096E+01  0.49424827352E+01 -0.22366211047E+01  0.60472233984E+01  0.51100000000E-03 0. -1.
        -11    1    4    4    0    0 -0.30325556043E+01 -0.57343245115E+01  0.11437072280E+02  0.13148592841E+02  0.51100000000E-03 0.  1.
         12    1    4    4    0    0 -0.30157065064E+02  0.17967235961E+02  0.21773104062E+01  0.35171164638E+02  0.00000000000E+00 0. -1.
</event>
<event>
 8    1  0.2502398E-006  0.9118800E+02  0.7816164E-02  0.1184000E+00
        -11   -1    0    0    0    0  0.00000000000E+00  0.00000000000E+00  0.45593999997E+02  0.45594000000E+02  0.51100000000E-03 0.  1.
         11   -1    0    0    0    0 -0.00000000000E+00 -0.00000000000E+00 -0.45593999997E+02  0.45594000000E+02  0.51100000000E-03 0. -1.
         23    2    1    2    0    0  0.35527136788E-14  0.88817841970E-15 -0.35527136788E-14  0.91188000000E+02  0.91188000000E+02 0.  0.
    9900012    2    3    3    0    0  0.28763779868E+02 -0.13267358764E+01 -0.22949184243E+02  0.54367077717E+02  0.39999985271E+02 0.  0.
        -12    1    3    3    0    0 -0.28763779868E+02  0.13267358764E+01  0.22949184243E+02  0.36820922283E+02  0.00000000000E+00 0.  1.
         11    1    4    4    0    0  0.50736149909E+01  0.12747313460E+02 -0.81948399036E+01  0.15980956505E+02  0.51100000000E-03 0. -1.
        -11    1    4    4    0    0  0.10813718646E+02  0.38438677338E+01  0.61994297699E+00  0.11493309343E+02  0.51100000000E-03 0.  1.
         12    1    4    4    0    0  0.12876446232E+02 -0.17917917070E+02 -0.15374287316E+02  0.26892811868E+02  0.00000000000E+00 0. -1.
</event>
<event>
 8    1  0.2502398E-006  0.9118800E+02  0.7816164E-02  0.1184000E+00
        -11   -1    0    0    0    0  0.00000000000E+00  0.00000000000E+00  0.45593999997E+02  0.45594000000E+02  0.51100000000E-03 0. -1.
         11   -1    0    0    0    0 -0.00000000000E+00 -0.00000000000E+00 -0.45593999997E+02  0.45594000000E+02  0.51100000000E-03 0.  1.
         23    2    1    2    0    0  0.88817841970E-15  0.00000000000E+00  0.35527136788E-14  0.91188000000E+02  0.91188000000E+02 0.  0.
    9900012    2    3    3    0    0 -0.74305291645E+01  0.17602430476E+02 -0.31475682668E+02  0.54367123833E+02  0.40000090402E+02 0.  0.
         12    1    3    3    0    0  0.74305291645E+01 -0.17602430476E+02  0.31475682668E+02  0.36820876167E+02  0.00000000000E+00 0. -1.
         11    1    4    4    0    0  0.54527330898E+01  0.96342816005E+01  0.21783864078E+01  0.11282599333E+02  0.51100000000E-03 0. -1.
        -11    1    4    4    0    0 -0.60987131112E+01  0.15510861092E+02 -0.19189888431E+02  0.25417177886E+02  0.51100000000E-03 0.  1.
         12    1    4    4    0    0 -0.67845491432E+01 -0.75427122170E+01 -0.14464180644E+02  0.17667346614E+02  0.00000000000E+00 0. -1.
</event>
<event>
 8    1  0.2502398E-006  0.9118800E+02  0.7816164E-02  0.1184000E+00
        -11   -1    0    0    0    0  0.00000000000E+00  0.00000000000E+00  0.45593999997E+02  0.45594000000E+02  0.51100000000E-03 0.  1.
         11   -1    0    0    0    0 -0.00000000000E+00 -0.00000000000E+00 -0.45593999997E+02  0.45594000000E+02  0.51100000000E-03 0. -1.
         23    2    1    2    0    0 -0.88817841970E-15  0.88817841970E-15  0.00000000000E+00  0.91188000000E+02  0.91188000000E+02 0.  0.
    9900012    2    3    3    0    0 -0.50875291027E+01 -0.46239517216E+01 -0.36173350348E+02  0.54367147793E+02  0.40000145023E+02 0.  0.
        -12    1    3    3    0    0  0.50875291027E+01  0.46239517216E+01  0.36173350348E+02  0.36820852207E+02  0.00000000000E+00 0.  1.
         11    1    4    4    0    0  0.97973172920E+01  0.38423524326E+01 -0.20566217685E+02  0.23102389670E+02  0.51100000000E-03 0. -1.
        -11    1    4    4    0    0  0.26652393204E+01 -0.87251923042E+01 -0.80047143250E+01  0.12137047955E+02  0.51100000000E-03 0.  1.
        -12    1    4    4    0    0 -0.17550085715E+02  0.25888815002E+00 -0.76024183378E+01  0.19127710168E+02  0.00000000000E+00 0.  1.
</event>
<event>
 8    1  0.2502398E-006  0.9118800E+02  0.7816164E-02  0.1184000E+00
        -11   -1    0    0    0    0  0.00000000000E+00  0.00000000000E+00  0.45593999997E+02  0.45594000000E+02  0.51100000000E-03 0. -1.
         11   -1    0    0    0    0 -0.00000000000E+00 -0.00000000000E+00 -0.45593999997E+02  0.45594000000E+02  0.51100000000E-03 0.  1.
         23    2    1    2    0    0 -0.66613381478E-15 -0.71054273576E-14  0.13322676296E-14  0.91188000000E+02  0.91188000000E+02 0.  0.
    9900012    2    3    3    0    0 -0.39140632234E+00  0.36681899348E+02 -0.31725742183E+01  0.54367079780E+02  0.39999989974E+02 0.  0.
         12    1    3    3    0    0  0.39140632234E+00 -0.36681899348E+02  0.31725742183E+01  0.36820920220E+02  0.00000000000E+00 0. -1.
         11    1    4    4    0    0 -0.11824021348E+02  0.33690298784E+01  0.25718721519E+01  0.12560747183E+02  0.51100000000E-03 0.  1.
        -11    1    4    4    0    0  0.53592987619E+01  0.48901354516E+01  0.69900850846E+01  0.10074561911E+02  0.51100000000E-03 0. -1.
        -12    1    4    4    0    0  0.60733162639E+01  0.28422734018E+02 -0.12734531455E+02  0.31731770686E+02  0.00000000000E+00 0.  1.
</event>
<event>
 8    1  0.2502398E-006  0.9118800E+02  0.7816164E-02  0.1184000E+00
        -11   -1    0    0    0    0  0.00000000000E+00  0.00000000000E+00  0.45593999997E+02  0.45594000000E+02  0.51100000000E-03 0. -1.
         11   -1    0    0    0    0 -0.00000000000E+00 -0.00000000000E+00 -0.45593999997E+02  0.45594000000E+02  0.51100000000E-03 0.  1.
         23    2    1    2    0    0  0.88817841970E-15 -0.35527136788E-14  0.00000000000E+00  0.91188000000E+02  0.91188000000E+02 0.  0.
    9900012    2    3    3    0    0 -0.51594042474E+01 -0.27595761298E+02  0.23825090598E+02  0.54367076114E+02  0.39999981617E+02 0.  0.
        -12    1    3    3    0    0  0.51594042474E+01  0.27595761298E+02 -0.23825090598E+02  0.36820923886E+02  0.00000000000E+00 0.  1.
         11    1    4    4    0    0  0.18857342942E+00 -0.19383071643E+02  0.21647214009E+02  0.29057544646E+02  0.51100000000E-03 0. -1.
        -11    1    4    4    0    0  0.92726800747E+00 -0.93707537082E+01 -0.86205658482E+01  0.12766558143E+02  0.51100000000E-03 0.  1.
         12    1    4    4    0    0 -0.62752456843E+01  0.11580640531E+01  0.10798442438E+02  0.12542973325E+02  0.00000000000E+00 0. -1.
</event>
<event>
 8    1  0.2502398E-006  0.9118800E+02  0.7816164E-02  0.1184000E+00
        -11   -1    0    0    0    0  0.00000000000E+00  0.00000000000E+00  0.45593999997E+02  0.45594000000E+02  0.51100000000E-03 0. -1.
         11   -1    0    0    0    0 -0.00000000000E+00 -0.00000000000E+00 -0.45593999997E+02  0.45594000000E+02  0.51100000000E-03 0.  1.
         23    2    1    2    0    0  0.17763568394E-14  0.00000000000E+00  0.00000000000E+00  0.91188000000E+02  0.91188000000E+02 0.  0.
    9900012    2    3    3    0    0  0.13172594849E+02  0.19078089051E+02 -0.28605418366E+02  0.54367344156E+02  0.40000592668E+02 0.  0.
         12    1    3    3    0    0 -0.13172594849E+02 -0.19078089051E+02  0.28605418366E+02  0.36820655844E+02  0.00000000000E+00 0. -1.
         11    1    4    4    0    0  0.16944148466E+01 -0.49527830047E+01 -0.60417506942E+01  0.79939885462E+01  0.51100000000E-03 0. -1.
        -11    1    4    4    0    0  0.19211417657E+02  0.54483277950E+01 -0.14557612613E+02  0.24712080637E+02  0.51100000000E-03 0.  1.
         12    1    4    4    0    0 -0.77332376549E+01  0.18582544261E+02 -0.80060550586E+01  0.21661274972E+02  0.00000000000E+00 0. -1.
</event>
<event>
 8    1  0.2502398E-006  0.9118800E+02  0.7816164E-02  0.1184000E+00
        -11   -1    0    0    0    0  0.00000000000E+00  0.00000000000E+00  0.45593999997E+02  0.45594000000E+02  0.51100000000E-03 0. -1.
         11   -1    0    0    0    0 -0.00000000000E+00 -0.00000000000E+00 -0.45593999997E+02  0.45594000000E+02  0.51100000000E-03 0.  1.
         23    2    1    2    0    0  0.00000000000E+00  0.71054273576E-14 -0.88817841970E-15  0.91188000000E+02  0.91188000000E+02 0.  0.
    9900012    2    3    3    0    0 -0.47041180593E+01  0.35642434683E+02 -0.79541311231E+01  0.54367080962E+02  0.39999992669E+02 0.  0.
        -12    1    3    3    0    0  0.47041180593E+01 -0.35642434683E+02  0.79541311231E+01  0.36820919038E+02  0.00000000000E+00 0.  1.
         11    1    4    4    0    0 -0.19928592718E+01  0.32218844330E+02  0.71122478816E+01  0.33054643974E+02  0.51100000000E-03 0. -1.
        -11    1    4    4    0    0  0.54040114992E+01 -0.27116382899E-01 -0.24843270099E+01  0.59477690385E+01  0.51100000000E-03 0.  1.
         12    1    4    4    0    0 -0.81152702866E+01  0.34507067361E+01 -0.12582051995E+02  0.15364667950E+02  0.00000000000E+00 0. -1.
</event>
<event>
 8    1  0.2502398E-006  0.9118800E+02  0.7816164E-02  0.1184000E+00
        -11   -1    0    0    0    0  0.00000000000E+00  0.00000000000E+00  0.45593999997E+02  0.45594000000E+02  0.51100000000E-03 0. -1.
         11   -1    0    0    0    0 -0.00000000000E+00 -0.00000000000E+00 -0.45593999997E+02  0.45594000000E+02  0.51100000000E-03 0.  1.
         23    2    1    2    0    0 -0.35527136788E-14  0.88817841970E-15  0.71054273576E-14  0.91188000000E+02  0.91188000000E+02 0.  0.
    9900012    2    3    3    0    0  0.14048603464E+02 -0.38539546235E+01 -0.33816624676E+02  0.54367077551E+02  0.39999984893E+02 0.  0.
         12    1    3    3    0    0 -0.14048603464E+02  0.38539546235E+01  0.33816624676E+02  0.36820922449E+02  0.00000000000E+00 0. -1.
         11    1    4    4    0    0  0.51498517966E+01  0.18432134128E+01 -0.17384635982E+01  0.57393958877E+01  0.51100000000E-03 0. -1.
        -11    1    4    4    0    0  0.22374190018E+02 -0.54272239007E+01 -0.21390970551E+02  0.31426625012E+02  0.51100000000E-03 0.  1.
         12    1    4    4    0    0 -0.13475438351E+02 -0.26994413560E+00 -0.10687190527E+02  0.17201056652E+02  0.00000000000E+00 0. -1.
</event>
<event>
 8    1  0.2502398E-006  0.9118800E+02  0.7816164E-02  0.1184000E+00
        -11   -1    0    0    0    0  0.00000000000E+00  0.00000000000E+00  0.45593999997E+02  0.45594000000E+02  0.51100000000E-03 0. -1.
         11   -1    0    0    0    0 -0.00000000000E+00 -0.00000000000E+00 -0.45593999997E+02  0.45594000000E+02  0.51100000000E-03 0.  1.
         23    2    1    2    0    0  0.35527136788E-14  0.17763568394E-14 -0.71054273576E-14  0.91188000000E+02  0.91188000000E+02 0.  0.
    9900012    2    3    3    0    0 -0.80628538099E+01  0.14675506747E+02  0.32793277557E+02  0.54367093401E+02  0.40000021027E+02 0.  0.
         12    1    3    3    0    0  0.80628538099E+01 -0.14675506747E+02 -0.32793277557E+02  0.36820906599E+02  0.00000000000E+00 0. -1.
         11    1    4    4    0    0 -0.18678905055E+02  0.53240553173E+01  0.12183218639E+02  0.22927666164E+02  0.51100000000E-03 0. -1.
        -11    1    4    4    0    0  0.96340745667E+01 -0.13398662619E+01  0.19637138043E+01  0.99230442165E+01  0.51100000000E-03 0.  1.
        -12    1    4    4    0    0  0.98197667867E+00  0.10691317691E+02  0.18646345114E+02  0.21516383020E+02  0.00000000000E+00 0.  1.
</event>
<event>
 8    1  0.2502398E-006  0.9118800E+02  0.7816164E-02  0.1184000E+00
        -11   -1    0    0    0    0  0.00000000000E+00  0.00000000000E+00  0.45593999997E+02  0.45594000000E+02  0.51100000000E-03 0. -1.
         11   -1    0    0    0    0 -0.00000000000E+00 -0.00000000000E+00 -0.45593999997E+02  0.45594000000E+02  0.51100000000E-03 0.  1.
         23    2    1    2    0    0  0.00000000000E+00 -0.39968028887E-14  0.00000000000E+00  0.91188000000E+02  0.91188000000E+02 0.  0.
    9900012    2    3    3    0    0 -0.19339568534E+02  0.39642097355E+01 -0.31081303303E+02  0.54367064584E+02  0.39999955331E+02 0.  0.
         12    1    3    3    0    0  0.19339568534E+02 -0.39642097355E+01  0.31081303303E+02  0.36820935416E+02  0.00000000000E+00 0. -1.
         11    1    4    4    0    0 -0.91823507983E+01 -0.17079400877E+02 -0.13305493826E+02  0.23517178120E+02  0.51100000000E-03 0. -1.
        -11    1    4    4    0    0 -0.10571642782E+02  0.12833387442E+02 -0.14277531275E+02  0.21915824509E+02  0.51100000000E-03 0.  1.
         12    1    4    4    0    0  0.41442504631E+00  0.82102231706E+01 -0.34982782017E+01  0.89340619545E+01  0.00000000000E+00 0. -1.
</event>
<event>
 8    1  0.2502398E-006  0.9118800E+02  0.7816164E-02  0.1184000E+00
        -11   -1    0    0    0    0  0.00000000000E+00  0.00000000000E+00  0.45593999997E+02  0.45594000000E+02  0.51100000000E-03 0.  1.
         11   -1    0    0    0    0 -0.00000000000E+00 -0.00000000000E+00 -0.45593999997E+02  0.45594000000E+02  0.51100000000E-03 0. -1.
         23    2    1    2    0    0  0.88817841970E-15  0.00000000000E+00  0.35527136788E-14  0.91188000000E+02  0.91188000000E+02 0.  0.
    9900012    2    3    3    0    0 -0.58553596884E+01 -0.19385999779E+02 -0.30751864849E+02  0.54367089959E+02  0.40000013180E+02 0.  0.
        -12    1    3    3    0    0  0.58553596884E+01  0.19385999779E+02  0.30751864849E+02  0.36820910041E+02  0.00000000000E+00 0.  1.
         11    1    4    4    0    0 -0.74991683064E+01 -0.66644270866E+01 -0.22535934701E+02  0.24668207612E+02  0.51100000000E-03 0. -1.
        -11    1    4    4    0    0 -0.30005894716E+01  0.17482820192E+01  0.72359474994E+01  0.80261425150E+01  0.51100000000E-03 0.  1.
        -12    1    4    4    0    0  0.46443980896E+01 -0.14469854712E+02 -0.15451877648E+02  0.21672739832E+02  0.00000000000E+00 0.  1.
</event>
<event>
 8    1  0.2502398E-006  0.9118800E+02  0.7816164E-02  0.1184000E+00
        -11   -1    0    0    0    0  0.00000000000E+00  0.00000000000E+00  0.45593999997E+02  0.45594000000E+02  0.51100000000E-03 0. -1.
         11   -1    0    0    0    0 -0.00000000000E+00 -0.00000000000E+00 -0.45593999997E+02  0.45594000000E+02  0.51100000000E-03 0.  1.
         23    2    1    2    0    0  0.00000000000E+00  0.00000000000E+00 -0.17763568394E-14  0.91188000000E+02  0.91188000000E+02 0.  0.
    9900012    2    3    3    0    0 -0.17613736343E+02  0.30829056687E+02  0.97521783563E+01  0.54367089815E+02  0.40000012851E+02 0.  0.
         12    1    3    3    0    0  0.17613736343E+02 -0.30829056687E+02 -0.97521783563E+01  0.36820910185E+02  0.00000000000E+00 0. -1.
         11    1    4    4    0    0 -0.12228620429E+02 -0.24030597832E+01  0.13975826530E+02  0.18725319260E+02  0.51100000000E-03 0. -1.
        -11    1    4    4    0    0  0.20516973243E+01  0.19891633730E+02 -0.38467288651E+01  0.20363788389E+02  0.51100000000E-03 0.  1.
         12    1    4    4    0    0 -0.74368132377E+01  0.13340482741E+02 -0.37691930851E+00  0.15277982166E+02  0.00000000000E+00 0. -1.
</event>
<event>
 8    1  0.2502398E-006  0.9118800E+02  0.7816164E-02  0.1184000E+00
        -11   -1    0    0    0    0  0.00000000000E+00  0.00000000000E+00  0.45593999997E+02  0.45594000000E+02  0.51100000000E-03 0.  1.
         11   -1    0    0    0    0 -0.00000000000E+00 -0.00000000000E+00 -0.45593999997E+02  0.45594000000E+02  0.51100000000E-03 0. -1.
         23    2    1    2    0    0  0.00000000000E+00 -0.17763568394E-14  0.00000000000E+00  0.91188000000E+02  0.91188000000E+02 0.  0.
    9900012    2    3    3    0    0  0.27680876542E+02  0.14433568703E+02  0.19524837325E+02  0.54367107775E+02  0.40000053795E+02 0.  0.
         12    1    3    3    0    0 -0.27680876542E+02 -0.14433568703E+02 -0.19524837325E+02  0.36820892225E+02  0.00000000000E+00 0. -1.
         11    1    4    4    0    0  0.19775605492E+00 -0.16665643682E+01  0.11506561180E+02  0.11628305753E+02  0.51100000000E-03 0. -1.
        -11    1    4    4    0    0  0.18174444780E+01  0.11025217146E+02  0.11861052026E+02  0.16295492412E+02  0.51100000000E-03 0.  1.
         12    1    4    4    0    0  0.25665676009E+02  0.50749159253E+01 -0.38427758798E+01  0.26443309610E+02  0.00000000000E+00 0. -1.
</event>
<event>
 8    1  0.2502398E-006  0.9118800E+02  0.7816164E-02  0.1184000E+00
        -11   -1    0    0    0    0  0.00000000000E+00  0.00000000000E+00  0.45593999997E+02  0.45594000000E+02  0.51100000000E-03 0.  1.
         11   -1    0    0    0    0 -0.00000000000E+00 -0.00000000000E+00 -0.45593999997E+02  0.45594000000E+02  0.51100000000E-03 0. -1.
         23    2    1    2    0    0  0.00000000000E+00 -0.17763568394E-14  0.00000000000E+00  0.91188000000E+02  0.91188000000E+02 0.  0.
    9900012    2    3    3    0    0  0.30026540791E+02  0.12241213562E+02  0.17445330897E+02  0.54367081604E+02  0.39999994134E+02 0.  0.
         12    1    3    3    0    0 -0.30026540791E+02 -0.12241213562E+02 -0.17445330897E+02  0.36820918396E+02  0.00000000000E+00 0. -1.
         11    1    4    4    0    0 -0.79460304160E+01 -0.46191293503E+01  0.38308544490E+01  0.99574696283E+01  0.51100000000E-03 0. -1.
        -11    1    4    4    0    0  0.12828546238E+02  0.27752704259E+01  0.68534060828E+01  0.14806853133E+02  0.51100000000E-03 0.  1.
         12    1    4    4    0    0  0.25144024970E+02  0.14085072487E+02  0.67610703654E+01  0.29602758843E+02  0.00000000000E+00 0. -1.
</event>
<event>
 8    1  0.2502398E-006  0.9118800E+02  0.7816164E-02  0.1184000E+00
        -11   -1    0    0    0    0  0.00000000000E+00  0.00000000000E+00  0.45593999997E+02  0.45594000000E+02  0.51100000000E-03 0.  1.
         11   -1    0    0    0    0 -0.00000000000E+00 -0.00000000000E+00 -0.45593999997E+02  0.45594000000E+02  0.51100000000E-03 0. -1.
         23    2    1    2    0    0  0.00000000000E+00 -0.21163626407E-15  0.00000000000E+00  0.91188000000E+02  0.91188000000E+02 0.  0.
    9900012    2    3    3    0    0 -0.32868514767E+02  0.17959436856E-01 -0.16596384099E+02  0.54367088134E+02  0.40000009019E+02 0.  0.
        -12    1    3    3    0    0  0.32868514767E+02 -0.17959436856E-01  0.16596384099E+02  0.36820911866E+02  0.00000000000E+00 0.  1.
         11    1    4    4    0    0 -0.16502323328E+02  0.92259321359E+00 -0.62414883947E+01  0.17667315333E+02  0.51100000000E-03 0. -1.
        -11    1    4    4    0    0 -0.20120874894E+02  0.10260562698E+02 -0.10527242025E+02  0.24918900022E+02  0.51100000000E-03 0.  1.
         12    1    4    4    0    0  0.37546834548E+01 -0.11165196475E+02  0.17234632151E+00  0.11780872779E+02  0.00000000000E+00 0. -1.
</event>
<event>
 8    1  0.2502398E-006  0.9118800E+02  0.7816164E-02  0.1184000E+00
        -11   -1    0    0    0    0  0.00000000000E+00  0.00000000000E+00  0.45593999997E+02  0.45594000000E+02  0.51100000000E-03 0.  1.
         11   -1    0    0    0    0 -0.00000000000E+00 -0.00000000000E+00 -0.45593999997E+02  0.45594000000E+02  0.51100000000E-03 0. -1.
         23    2    1    2    0    0  0.00000000000E+00  0.17763568394E-14  0.00000000000E+00  0.91188000000E+02  0.91188000000E+02 0.  0.
    9900012    2    3    3    0    0  0.58122477775E+01 -0.13731799644E+02 -0.33666525198E+02  0.54367089302E+02  0.40000011683E+02 0.  0.
        -12    1    3    3    0    0 -0.58122477775E+01  0.13731799644E+02  0.33666525198E+02  0.36820910698E+02  0.00000000000E+00 0.  1.
         11    1    4    4    0    0  0.68611212594E+00  0.64596439492E+01 -0.83742899170E+01  0.10598418829E+02  0.51100000000E-03 0. -1.
        -11    1    4    4    0    0  0.39894575516E+01  0.44963637760E+01  0.25591850859E+01  0.65331835522E+01  0.51100000000E-03 0.  1.
         12    1    4    4    0    0  0.11366780999E+01 -0.24687807369E+02 -0.27851420367E+02  0.37235486921E+02  0.00000000000E+00 0. -1.
</event>
<event>
 8    1  0.2502398E-006  0.9118800E+02  0.7816164E-02  0.1184000E+00
        -11   -1    0    0    0    0  0.00000000000E+00  0.00000000000E+00  0.45593999997E+02  0.45594000000E+02  0.51100000000E-03 0.  1.
         11   -1    0    0    0    0 -0.00000000000E+00 -0.00000000000E+00 -0.45593999997E+02  0.45594000000E+02  0.51100000000E-03 0. -1.
         23    2    1    2    0    0  0.00000000000E+00  0.00000000000E+00  0.00000000000E+00  0.91188000000E+02  0.91188000000E+02 0.  0.
    9900012    2    3    3    0    0  0.19112608450E+02 -0.27084630054E+02 -0.16028475904E+02  0.54367068090E+02  0.39999963324E+02 0.  0.
        -12    1    3    3    0    0 -0.19112608450E+02  0.27084630054E+02  0.16028475904E+02  0.36820931910E+02  0.00000000000E+00 0.  1.
         11    1    4    4    0    0  0.75900099154E+01 -0.14560412233E+02  0.45438355424E+01  0.17037027224E+02  0.51100000000E-03 0. -1.
        -11    1    4    4    0    0  0.35881956020E+01  0.48939362906E+01 -0.16745336867E+02  0.17811009718E+02  0.51100000000E-03 0.  1.
         12    1    4    4    0    0  0.79344029326E+01 -0.17418154111E+02 -0.38269745788E+01  0.19519031148E+02  0.00000000000E+00 0. -1.
</event>
<event>
 8    1  0.2502398E-006  0.9118800E+02  0.7816164E-02  0.1184000E+00
        -11   -1    0    0    0    0  0.00000000000E+00  0.00000000000E+00  0.45593999997E+02  0.45594000000E+02  0.51100000000E-03 0.  1.
         11   -1    0    0    0    0 -0.00000000000E+00 -0.00000000000E+00 -0.45593999997E+02  0.45594000000E+02  0.51100000000E-03 0. -1.
         23    2    1    2    0    0 -0.66613381478E-15  0.00000000000E+00 -0.17763568394E-14  0.91188000000E+02  0.91188000000E+02 0.  0.
    9900012    2    3    3    0    0  0.13651670370E+01 -0.33868026672E+02 -0.14383115230E+02  0.54367069602E+02  0.39999966771E+02 0.  0.
         12    1    3    3    0    0 -0.13651670370E+01  0.33868026672E+02  0.14383115230E+02  0.36820930398E+02  0.00000000000E+00 0. -1.
         11    1    4    4    0    0  0.13849685460E+02 -0.15844648601E+02 -0.18495574729E+02  0.28017012000E+02  0.51100000000E-03 0. -1.
        -11    1    4    4    0    0 -0.81097493050E+01 -0.18446571059E+02 -0.25743866726E+00  0.20152178357E+02  0.51100000000E-03 0.  1.
         12    1    4    4    0    0 -0.43747691183E+01  0.42319298788E+00  0.43698981656E+01  0.61978792439E+01  0.00000000000E+00 0. -1.
</event>
<event>
 8    1  0.2502398E-006  0.9118800E+02  0.7816164E-02  0.1184000E+00
        -11   -1    0    0    0    0  0.00000000000E+00  0.00000000000E+00  0.45593999997E+02  0.45594000000E+02  0.51100000000E-03 0.  1.
         11   -1    0    0    0    0 -0.00000000000E+00 -0.00000000000E+00 -0.45593999997E+02  0.45594000000E+02  0.51100000000E-03 0. -1.
         23    2    1    2    0    0  0.00000000000E+00  0.00000000000E+00  0.35527136788E-14  0.91188000000E+02  0.91188000000E+02 0.  0.
    9900012    2    3    3    0    0 -0.15051832317E+01  0.26327701971E+02 -0.25697599139E+02  0.54367081093E+02  0.39999992968E+02 0.  0.
        -12    1    3    3    0    0  0.15051832317E+01 -0.26327701971E+02  0.25697599139E+02  0.36820918907E+02  0.00000000000E+00 0.  1.
         11    1    4    4    0    0  0.17061093772E+01  0.10045123931E+02  0.44025530300E+01  0.11099450321E+02  0.51100000000E-03 0. -1.
        -11    1    4    4    0    0  0.21124719162E+01  0.40820986667E+01  0.43541778709E+01  0.63312662489E+01  0.51100000000E-03 0.  1.
         12    1    4    4    0    0 -0.53237645251E+01  0.12200479374E+02 -0.34454330040E+02  0.36936364523E+02  0.00000000000E+00 0. -1.
</event>
<event>
 8    1  0.2502398E-006  0.9118800E+02  0.7816164E-02  0.1184000E+00
        -11   -1    0    0    0    0  0.00000000000E+00  0.00000000000E+00  0.45593999997E+02  0.45594000000E+02  0.51100000000E-03 0.  1.
         11   -1    0    0    0    0 -0.00000000000E+00 -0.00000000000E+00 -0.45593999997E+02  0.45594000000E+02  0.51100000000E-03 0. -1.
         23    2    1    2    0    0  0.00000000000E+00  0.88817841970E-15  0.00000000000E+00  0.91188000000E+02  0.91188000000E+02 0.  0.
    9900012    2    3    3    0    0 -0.84261564181E+01  0.45840051463E+01 -0.35549507029E+02  0.54367073000E+02  0.39999974517E+02 0.  0.
        -12    1    3    3    0    0  0.84261564181E+01 -0.45840051463E+01  0.35549507029E+02  0.36820927000E+02  0.00000000000E+00 0.  1.
         11    1    4    4    0    0 -0.66552111157E+01  0.26412330219E+01 -0.14230381679E+02  0.15930213742E+02  0.51100000000E-03 0. -1.
        -11    1    4    4    0    0 -0.96925310982E+01 -0.28832095409E+01 -0.26107851719E+02  0.27997820951E+02  0.51100000000E-03 0.  1.
        -12    1    4    4    0    0  0.79215857957E+01  0.48259816652E+01  0.47887263685E+01  0.10439038307E+02  0.00000000000E+00 0.  1.
</event>
<event>
 8    1  0.2502398E-006  0.9118800E+02  0.7816164E-02  0.1184000E+00
        -11   -1    0    0    0    0  0.00000000000E+00  0.00000000000E+00  0.45593999997E+02  0.45594000000E+02  0.51100000000E-03 0.  1.
         11   -1    0    0    0    0 -0.00000000000E+00 -0.00000000000E+00 -0.45593999997E+02  0.45594000000E+02  0.51100000000E-03 0. -1.
         23    2    1    2    0    0 -0.88817841970E-15 -0.22204460493E-15  0.00000000000E+00  0.91188000000E+02  0.91188000000E+02 0.  0.
    9900012    2    3    3    0    0 -0.23719984038E+01 -0.17920959719E+01  0.36700699369E+02  0.54367091285E+02  0.40000016203E+02 0.  0.
         12    1    3    3    0    0  0.23719984038E+01  0.17920959719E+01 -0.36700699369E+02  0.36820908715E+02  0.00000000000E+00 0. -1.
         11    1    4    4    0    0  0.12339044178E+02 -0.77637678335E+01  0.20374085435E+02  0.25052573915E+02  0.51100000000E-03 0. -1.
        -11    1    4    4    0    0 -0.64846828360E+00  0.47162172853E+01 -0.28140652379E+01  0.55301157331E+01  0.51100000000E-03 0.  1.
        -12    1    4    4    0    0 -0.14062574298E+02  0.12554545763E+01  0.19140679172E+02  0.23784401638E+02  0.00000000000E+00 0.  1.
</event>
<event>
 8    1  0.2502398E-006  0.9118800E+02  0.7816164E-02  0.1184000E+00
        -11   -1    0    0    0    0  0.00000000000E+00  0.00000000000E+00  0.45593999997E+02  0.45594000000E+02  0.51100000000E-03 0. -1.
         11   -1    0    0    0    0 -0.00000000000E+00 -0.00000000000E+00 -0.45593999997E+02  0.45594000000E+02  0.51100000000E-03 0.  1.
         23    2    1    2    0    0  0.00000000000E+00  0.00000000000E+00 -0.17763568394E-14  0.91188000000E+02  0.91188000000E+02 0.  0.
    9900012    2    3    3    0    0 -0.13659365299E+02 -0.30426328639E+02 -0.15602573672E+02  0.54367081488E+02  0.39999993869E+02 0.  0.
         12    1    3    3    0    0  0.13659365299E+02  0.30426328639E+02  0.15602573672E+02  0.36820918512E+02  0.00000000000E+00 0. -1.
         11    1    4    4    0    0 -0.16800225697E+02  0.32674317214E+01 -0.63097711995E+01  0.18241077446E+02  0.51100000000E-03 0. -1.
        -11    1    4    4    0    0  0.91914183883E+00 -0.16263425229E+02 -0.88738836753E+01  0.18549653194E+02  0.51100000000E-03 0.  1.
        -12    1    4    4    0    0  0.22217185592E+01 -0.17430335132E+02 -0.41891879732E+00  0.17576350848E+02  0.00000000000E+00 0.  1.
</event>
<event>
 8    1  0.2502398E-006  0.9118800E+02  0.7816164E-02  0.1184000E+00
        -11   -1    0    0    0    0  0.00000000000E+00  0.00000000000E+00  0.45593999997E+02  0.45594000000E+02  0.51100000000E-03 0. -1.
         11   -1    0    0    0    0 -0.00000000000E+00 -0.00000000000E+00 -0.45593999997E+02  0.45594000000E+02  0.51100000000E-03 0.  1.
         23    2    1    2    0    0  0.00000000000E+00 -0.15543122345E-14 -0.35527136788E-14  0.91188000000E+02  0.91188000000E+02 0.  0.
    9900012    2    3    3    0    0 -0.33788197893E+02 -0.17835076512E+01  0.14524356513E+02  0.54367080015E+02  0.39999990510E+02 0.  0.
        -12    1    3    3    0    0  0.33788197893E+02  0.17835076512E+01 -0.14524356513E+02  0.36820919985E+02  0.00000000000E+00 0.  1.
         11    1    4    4    0    0 -0.13440338274E+02  0.31990847853E+01 -0.58443731399E+01  0.15001117760E+02  0.51100000000E-03 0. -1.
        -11    1    4    4    0    0 -0.16783387694E+02 -0.14952344663E+02  0.17232681427E+02  0.28323488889E+02  0.51100000000E-03 0.  1.
         12    1    4    4    0    0 -0.35644719254E+01  0.99697522265E+01  0.31360482260E+01  0.11042473366E+02  0.00000000000E+00 0. -1.
</event>
<event>
 8    1  0.2502398E-006  0.9118800E+02  0.7816164E-02  0.1184000E+00
        -11   -1    0    0    0    0  0.00000000000E+00  0.00000000000E+00  0.45593999997E+02  0.45594000000E+02  0.51100000000E-03 0. -1.
         11   -1    0    0    0    0 -0.00000000000E+00 -0.00000000000E+00 -0.45593999997E+02  0.45594000000E+02  0.51100000000E-03 0.  1.
         23    2    1    2    0    0 -0.35527136788E-14  0.00000000000E+00 -0.71054273576E-14  0.91188000000E+02  0.91188000000E+02 0.  0.
    9900012    2    3    3    0    0  0.20208801467E+02  0.16842441779E+02  0.25762718894E+02  0.54367065918E+02  0.39999958374E+02 0.  0.
        -12    1    3    3    0    0 -0.20208801467E+02 -0.16842441779E+02 -0.25762718894E+02  0.36820934082E+02  0.00000000000E+00 0.  1.
         11    1    4    4    0    0  0.67660794353E+01  0.80297278195E+01  0.93462671206E+01  0.14057349292E+02  0.51100000000E-03 0. -1.
        -11    1    4    4    0    0  0.74945614197E+01 -0.12559950050E+02  0.62171822501E+01  0.15892581651E+02  0.51100000000E-03 0.  1.
        -12    1    4    4    0    0  0.59481606122E+01  0.21372664010E+02  0.10199269524E+02  0.24417134975E+02  0.00000000000E+00 0.  1.
</event>
<event>
 8    1  0.2502398E-006  0.9118800E+02  0.7816164E-02  0.1184000E+00
        -11   -1    0    0    0    0  0.00000000000E+00  0.00000000000E+00  0.45593999997E+02  0.45594000000E+02  0.51100000000E-03 0. -1.
         11   -1    0    0    0    0 -0.00000000000E+00 -0.00000000000E+00 -0.45593999997E+02  0.45594000000E+02  0.51100000000E-03 0.  1.
         23    2    1    2    0    0  0.00000000000E+00  0.71054273576E-14 -0.44408920985E-15  0.91188000000E+02  0.91188000000E+02 0.  0.
    9900012    2    3    3    0    0  0.17104820421E+02  0.32515558470E+02  0.24377779416E+01  0.54367093091E+02  0.40000020321E+02 0.  0.
         12    1    3    3    0    0 -0.17104820421E+02 -0.32515558470E+02 -0.24377779416E+01  0.36820906909E+02  0.00000000000E+00 0. -1.
         11    1    4    4    0    0 -0.12257318786E+01 -0.42540470977E+01 -0.32039764821E+01  0.54648697063E+01  0.51100000000E-03 0. -1.
        -11    1    4    4    0    0 -0.64901397037E+01  0.11148021282E+02  0.17577396525E+01  0.13018830240E+02  0.51100000000E-03 0.  1.
        -12    1    4    4    0    0  0.24820692004E+02  0.25621584286E+02  0.38840147711E+01  0.35883393145E+02  0.00000000000E+00 0.  1.
</event>
<event>
 8    1  0.2502398E-006  0.9118800E+02  0.7816164E-02  0.1184000E+00
        -11   -1    0    0    0    0  0.00000000000E+00  0.00000000000E+00  0.45593999997E+02  0.45594000000E+02  0.51100000000E-03 0.  1.
         11   -1    0    0    0    0 -0.00000000000E+00 -0.00000000000E+00 -0.45593999997E+02  0.45594000000E+02  0.51100000000E-03 0. -1.
         23    2    1    2    0    0  0.00000000000E+00  0.00000000000E+00  0.35527136788E-14  0.91188000000E+02  0.91188000000E+02 0.  0.
    9900012    2    3    3    0    0  0.71608240802E+01  0.33516893335E+02  0.13458086010E+02  0.54367087200E+02  0.40000006890E+02 0.  0.
        -12    1    3    3    0    0 -0.71608240802E+01 -0.33516893335E+02 -0.13458086010E+02  0.36820912800E+02  0.00000000000E+00 0.  1.
         11    1    4    4    0    0 -0.86169326491E+01  0.21038347860E+02  0.92256570773E+00  0.22753345616E+02  0.51100000000E-03 0. -1.
        -11    1    4    4    0    0  0.23704392125E+01  0.11942432240E+02 -0.14152742552E+01  0.12257392518E+02  0.51100000000E-03 0.  1.
        -12    1    4    4    0    0  0.13407317517E+02  0.53611323553E+00  0.13950794557E+02  0.19356349066E+02  0.00000000000E+00 0.  1.
</event>
<event>
 8    1  0.2502398E-006  0.9118800E+02  0.7816164E-02  0.1184000E+00
        -11   -1    0    0    0    0  0.00000000000E+00  0.00000000000E+00  0.45593999997E+02  0.45594000000E+02  0.51100000000E-03 0.  1.
         11   -1    0    0    0    0 -0.00000000000E+00 -0.00000000000E+00 -0.45593999997E+02  0.45594000000E+02  0.51100000000E-03 0. -1.
         23    2    1    2    0    0 -0.27755575616E-16  0.00000000000E+00  0.00000000000E+00  0.91188000000E+02  0.91188000000E+02 0.  0.
    9900012    2    3    3    0    0  0.17017160598E+00 -0.44604259046E+01  0.36549355119E+02  0.54367085872E+02  0.40000003862E+02 0.  0.
         12    1    3    3    0    0 -0.17017160598E+00  0.44604259046E+01 -0.36549355119E+02  0.36820914128E+02  0.00000000000E+00 0. -1.
         11    1    4    4    0    0  0.47926636662E+01  0.46629245039E+01  0.16195502812E+02  0.17521609559E+02  0.51100000000E-03 0.  1.
        -11    1    4    4    0    0  0.38346063163E+01 -0.32077446285E+01  0.25023143004E+02  0.25517670687E+02  0.51100000000E-03 0. -1.
         12    1    4    4    0    0 -0.84570983765E+01 -0.59156057800E+01 -0.46692906973E+01  0.11327805626E+02  0.00000000000E+00 0. -1.
</event>
<event>
 8    1  0.2502398E-006  0.9118800E+02  0.7816164E-02  0.1184000E+00
        -11   -1    0    0    0    0  0.00000000000E+00  0.00000000000E+00  0.45593999997E+02  0.45594000000E+02  0.51100000000E-03 0. -1.
         11   -1    0    0    0    0 -0.00000000000E+00 -0.00000000000E+00 -0.45593999997E+02  0.45594000000E+02  0.51100000000E-03 0.  1.
         23    2    1    2    0    0 -0.17763568394E-14  0.00000000000E+00  0.00000000000E+00  0.91188000000E+02  0.91188000000E+02 0.  0.
    9900012    2    3    3    0    0 -0.95845914056E+01 -0.11825895967E+02  0.33527054359E+02  0.54367087711E+02  0.40000008055E+02 0.  0.
        -12    1    3    3    0    0  0.95845914056E+01  0.11825895967E+02 -0.33527054359E+02  0.36820912289E+02  0.00000000000E+00 0.  1.
         11    1    4    4    0    0 -0.26470325577E+01  0.83061610655E+01  0.80339905253E+01  0.11855129566E+02  0.51100000000E-03 0. -1.
        -11    1    4    4    0    0 -0.89729575617E+01  0.23178785673E+01  0.11562741532E+01  0.93393521529E+01  0.51100000000E-03 0.  1.
         12    1    4    4    0    0  0.20353987138E+01 -0.22449935600E+02  0.24336789680E+02  0.33172605992E+02  0.00000000000E+00 0. -1.
</event>
<event>
 8    1  0.2502398E-006  0.9118800E+02  0.7816164E-02  0.1184000E+00
        -11   -1    0    0    0    0  0.00000000000E+00  0.00000000000E+00  0.45593999997E+02  0.45594000000E+02  0.51100000000E-03 0.  1.
         11   -1    0    0    0    0 -0.00000000000E+00 -0.00000000000E+00 -0.45593999997E+02  0.45594000000E+02  0.51100000000E-03 0. -1.
         23    2    1    2    0    0  0.00000000000E+00  0.11102230246E-15  0.00000000000E+00  0.91188000000E+02  0.91188000000E+02 0.  0.
    9900012    2    3    3    0    0 -0.19693370437E+02 -0.91749858359E-01 -0.31111770043E+02  0.54367088925E+02  0.40000010821E+02 0.  0.
        -12    1    3    3    0    0  0.19693370437E+02  0.91749858359E-01  0.31111770043E+02  0.36820911075E+02  0.00000000000E+00 0.  1.
         11    1    4    4    0    0 -0.11562850693E+01  0.98031453547E+01 -0.14833458268E+02  0.17817691726E+02  0.51100000000E-03 0. -1.
        -11    1    4    4    0    0 -0.50226258256E+01 -0.11474092589E+02 -0.18918684358E+02  0.22689164573E+02  0.51100000000E-03 0.  1.
        -12    1    4    4    0    0 -0.13514459542E+02  0.15791973763E+01  0.26403725820E+01  0.13860232626E+02  0.00000000000E+00 0.  1.
</event>
<event>
 8    1  0.2502398E-006  0.9118800E+02  0.7816164E-02  0.1184000E+00
        -11   -1    0    0    0    0  0.00000000000E+00  0.00000000000E+00  0.45593999997E+02  0.45594000000E+02  0.51100000000E-03 0.  1.
         11   -1    0    0    0    0 -0.00000000000E+00 -0.00000000000E+00 -0.45593999997E+02  0.45594000000E+02  0.51100000000E-03 0. -1.
         23    2    1    2    0    0  0.00000000000E+00 -0.17763568394E-14  0.00000000000E+00  0.91188000000E+02  0.91188000000E+02 0.  0.
    9900012    2    3    3    0    0  0.10885397189E+02 -0.15595851909E+02  0.31528677613E+02  0.54367082293E+02  0.39999995704E+02 0.  0.
         12    1    3    3    0    0 -0.10885397189E+02  0.15595851909E+02 -0.31528677613E+02  0.36820917707E+02  0.00000000000E+00 0. -1.
         11    1    4    4    0    0  0.79701591725E+00  0.24338153080E+01  0.11529007391E+02  0.11810025529E+02  0.51100000000E-03 0. -1.
        -11    1    4    4    0    0  0.32938006608E+01  0.55367473769E+01  0.16587278039E+02  0.17794451026E+02  0.51100000000E-03 0.  1.
         12    1    4    4    0    0  0.67945806114E+01 -0.23566414594E+02  0.34123921830E+01  0.24762605738E+02  0.00000000000E+00 0. -1.
</event>
<event>
 8    1  0.2502398E-006  0.9118800E+02  0.7816164E-02  0.1184000E+00
        -11   -1    0    0    0    0  0.00000000000E+00  0.00000000000E+00  0.45593999997E+02  0.45594000000E+02  0.51100000000E-03 0. -1.
         11   -1    0    0    0    0 -0.00000000000E+00 -0.00000000000E+00 -0.45593999997E+02  0.45594000000E+02  0.51100000000E-03 0.  1.
         23    2    1    2    0    0  0.00000000000E+00 -0.35527136788E-14  0.35527136788E-14  0.91188000000E+02  0.91188000000E+02 0.  0.
    9900012    2    3    3    0    0 -0.13595960123E+02  0.27672370629E+02 -0.20128811056E+02  0.54367092048E+02  0.40000017941E+02 0.  0.
         12    1    3    3    0    0  0.13595960123E+02 -0.27672370629E+02  0.20128811056E+02  0.36820907952E+02  0.00000000000E+00 0. -1.
         11    1    4    4    0    0  0.34338087915E+01  0.12902125464E+01  0.25167830065E+00  0.36768238277E+01  0.51100000000E-03 0. -1.
        -11    1    4    4    0    0 -0.20994632397E+02  0.77536896111E+01  0.55521403310E+00  0.22387553572E+02  0.51100000000E-03 0.  1.
        -12    1    4    4    0    0  0.39648634822E+01  0.18628468471E+02 -0.20935703390E+02  0.28302714648E+02  0.00000000000E+00 0.  1.
</event>
<event>
 8    1  0.2502398E-006  0.9118800E+02  0.7816164E-02  0.1184000E+00
        -11   -1    0    0    0    0  0.00000000000E+00  0.00000000000E+00  0.45593999997E+02  0.45594000000E+02  0.51100000000E-03 0. -1.
         11   -1    0    0    0    0 -0.00000000000E+00 -0.00000000000E+00 -0.45593999997E+02  0.45594000000E+02  0.51100000000E-03 0.  1.
         23    2    1    2    0    0 -0.17763568394E-14  0.00000000000E+00 -0.17763568394E-14  0.91188000000E+02  0.91188000000E+02 0.  0.
    9900012    2    3    3    0    0  0.13447286020E+02  0.32719370645E+02  0.10217299094E+02  0.54367083153E+02  0.39999997663E+02 0.  0.
        -12    1    3    3    0    0 -0.13447286020E+02 -0.32719370645E+02 -0.10217299094E+02  0.36820916847E+02  0.00000000000E+00 0.  1.
         11    1    4    4    0    0  0.16168732831E+02  0.36154360921E+02  0.30031965658E+01  0.39718823306E+02  0.51100000000E-03 0. -1.
        -11    1    4    4    0    0  0.26985684445E+01 -0.34659022782E+01  0.80438065378E+01  0.91650190469E+01  0.51100000000E-03 0.  1.
         12    1    4    4    0    0 -0.54200152553E+01  0.30912002133E-01 -0.82970400996E+00  0.54832407993E+01  0.00000000000E+00 0. -1.
</event>
<event>
 8    1  0.2502398E-006  0.9118800E+02  0.7816164E-02  0.1184000E+00
        -11   -1    0    0    0    0  0.00000000000E+00  0.00000000000E+00  0.45593999997E+02  0.45594000000E+02  0.51100000000E-03 0. -1.
         11   -1    0    0    0    0 -0.00000000000E+00 -0.00000000000E+00 -0.45593999997E+02  0.45594000000E+02  0.51100000000E-03 0.  1.
         23    2    1    2    0    0  0.17763568394E-14 -0.17763568394E-14  0.00000000000E+00  0.91188000000E+02  0.91188000000E+02 0.  0.
    9900012    2    3    3    0    0  0.10802576418E+02 -0.13830559540E+02  0.32369724259E+02  0.54367094483E+02  0.40000023494E+02 0.  0.
        -12    1    3    3    0    0 -0.10802576418E+02  0.13830559540E+02 -0.32369724259E+02  0.36820905517E+02  0.00000000000E+00 0.  1.
         11    1    4    4    0    0  0.23118145005E+01 -0.10678686722E+02  0.73834711640E+01  0.13186905743E+02  0.51100000000E-03 0. -1.
        -11    1    4    4    0    0  0.12734024522E+02 -0.14705640874E+02  0.20000580330E+02  0.27900438488E+02  0.51100000000E-03 0.  1.
         12    1    4    4    0    0 -0.42432626050E+01  0.11553768056E+02  0.49856727651E+01  0.13279750252E+02  0.00000000000E+00 0. -1.
</event>
<event>
 8    1  0.2502398E-006  0.9118800E+02  0.7816164E-02  0.1184000E+00
        -11   -1    0    0    0    0  0.00000000000E+00  0.00000000000E+00  0.45593999997E+02  0.45594000000E+02  0.51100000000E-03 0.  1.
         11   -1    0    0    0    0 -0.00000000000E+00 -0.00000000000E+00 -0.45593999997E+02  0.45594000000E+02  0.51100000000E-03 0. -1.
         23    2    1    2    0    0  0.00000000000E+00  0.00000000000E+00  0.00000000000E+00  0.91188000000E+02  0.91188000000E+02 0.  0.
    9900012    2    3    3    0    0 -0.29974699540E+02  0.21318036356E+02 -0.16838834549E+01  0.54367126163E+02  0.40000095715E+02 0.  0.
         12    1    3    3    0    0  0.29974699540E+02 -0.21318036356E+02  0.16838834549E+01  0.36820873837E+02  0.00000000000E+00 0. -1.
         11    1    4    4    0    0 -0.15656250259E+01  0.10601322635E+01 -0.96083806563E+01  0.97926524106E+01  0.51100000000E-03 0. -1.
        -11    1    4    4    0    0 -0.12287799840E+02 -0.30551324995E+01 -0.47526270813E+01  0.13524471300E+02  0.51100000000E-03 0.  1.
        -12    1    4    4    0    0 -0.16121274674E+02  0.23313036592E+02  0.12677124283E+02  0.31050002453E+02  0.00000000000E+00 0.  1.
</event>
<event>
 8    1  0.2502398E-006  0.9118800E+02  0.7816164E-02  0.1184000E+00
        -11   -1    0    0    0    0  0.00000000000E+00  0.00000000000E+00  0.45593999997E+02  0.45594000000E+02  0.51100000000E-03 0.  1.
         11   -1    0    0    0    0 -0.00000000000E+00 -0.00000000000E+00 -0.45593999997E+02  0.45594000000E+02  0.51100000000E-03 0. -1.
         23    2    1    2    0    0  0.35527136788E-14  0.35527136788E-14 -0.71054273576E-14  0.91188000000E+02  0.91188000000E+02 0.  0.
    9900012    2    3    3    0    0 -0.16941642510E+02 -0.21932765258E+02  0.24242828431E+02  0.54367079681E+02  0.39999989749E+02 0.  0.
         12    1    3    3    0    0  0.16941642510E+02  0.21932765258E+02 -0.24242828431E+02  0.36820920319E+02  0.00000000000E+00 0. -1.
         11    1    4    4    0    0 -0.87081811407E+00 -0.41770006954E+01 -0.29296154654E+01  0.51757420756E+01  0.51100000000E-03 0. -1.
        -11    1    4    4    0    0  0.27538959631E+01 -0.16619854094E+02  0.92579737119E+00  0.16871887687E+02  0.51100000000E-03 0.  1.
        -12    1    4    4    0    0 -0.18824720359E+02 -0.11359104682E+01  0.26246646525E+02  0.32319449918E+02  0.00000000000E+00 0.  1.
</event>
<event>
 8    1  0.2502398E-006  0.9118800E+02  0.7816164E-02  0.1184000E+00
        -11   -1    0    0    0    0  0.00000000000E+00  0.00000000000E+00  0.45593999997E+02  0.45594000000E+02  0.51100000000E-03 0.  1.
         11   -1    0    0    0    0 -0.00000000000E+00 -0.00000000000E+00 -0.45593999997E+02  0.45594000000E+02  0.51100000000E-03 0. -1.
         23    2    1    2    0    0  0.17763568394E-14  0.35527136788E-14  0.00000000000E+00  0.91188000000E+02  0.91188000000E+02 0.  0.
    9900012    2    3    3    0    0  0.13204330098E+02  0.11974463760E+02  0.32218598348E+02  0.54367079381E+02  0.39999989066E+02 0.  0.
         12    1    3    3    0    0 -0.13204330098E+02 -0.11974463760E+02 -0.32218598348E+02  0.36820920619E+02  0.00000000000E+00 0. -1.
         11    1    4    4    0    0  0.12713178431E+01 -0.38404197861E+01  0.33453270695E+01  0.52494082195E+01  0.51100000000E-03 0. -1.
        -11    1    4    4    0    0  0.20154056779E+01  0.25551842103E+02  0.16294355877E+02  0.30372101156E+02  0.51100000000E-03 0.  1.
        -12    1    4    4    0    0  0.99176065773E+01 -0.97369585573E+01  0.12578915402E+02  0.18745570006E+02  0.00000000000E+00 0.  1.
</event>
<event>
 8    1  0.2502398E-006  0.9118800E+02  0.7816164E-02  0.1184000E+00
        -11   -1    0    0    0    0  0.00000000000E+00  0.00000000000E+00  0.45593999997E+02  0.45594000000E+02  0.51100000000E-03 0.  1.
         11   -1    0    0    0    0 -0.00000000000E+00 -0.00000000000E+00 -0.45593999997E+02  0.45594000000E+02  0.51100000000E-03 0. -1.
         23    2    1    2    0    0  0.00000000000E+00  0.00000000000E+00  0.00000000000E+00  0.91188000000E+02  0.91188000000E+02 0.  0.
    9900012    2    3    3    0    0  0.21019634453E+02  0.23727280034E+02 -0.18734232512E+02  0.54367077712E+02  0.39999985259E+02 0.  0.
         12    1    3    3    0    0 -0.21019634453E+02 -0.23727280034E+02  0.18734232512E+02  0.36820922288E+02  0.00000000000E+00 0. -1.
         11    1    4    4    0    0  0.26620973533E+02  0.52155603146E+01 -0.19879755602E+02  0.33631577190E+02  0.51100000000E-03 0. -1.
        -11    1    4    4    0    0  0.81591462314E+00  0.25200040494E+01  0.22407822863E+01  0.34694729567E+01  0.51100000000E-03 0.  1.
         12    1    4    4    0    0 -0.64172537027E+01  0.15991715670E+02 -0.10952591956E+01  0.17266027565E+02  0.00000000000E+00 0. -1.
</event>
<event>
 8    1  0.2502398E-006  0.9118800E+02  0.7816164E-02  0.1184000E+00
        -11   -1    0    0    0    0  0.00000000000E+00  0.00000000000E+00  0.45593999997E+02  0.45594000000E+02  0.51100000000E-03 0.  1.
         11   -1    0    0    0    0 -0.00000000000E+00 -0.00000000000E+00 -0.45593999997E+02  0.45594000000E+02  0.51100000000E-03 0. -1.
         23    2    1    2    0    0  0.00000000000E+00  0.62172489379E-14  0.17763568394E-14  0.91188000000E+02  0.91188000000E+02 0.  0.
    9900012    2    3    3    0    0 -0.34904158518E+02  0.77098183419E+01  0.88341137977E+01  0.54367039294E+02  0.39999897679E+02 0.  0.
        -12    1    3    3    0    0  0.34904158518E+02 -0.77098183419E+01 -0.88341137977E+01  0.36820960706E+02  0.00000000000E+00 0.  1.
         11    1    4    4    0    0 -0.22426685365E+02 -0.91997078987E+01  0.59099792897E+01  0.24950324594E+02  0.51100000000E-03 0. -1.
        -11    1    4    4    0    0 -0.15324198090E+02  0.17832789334E+02  0.68408917430E+01  0.24487491146E+02  0.51100000000E-03 0.  1.
         12    1    4    4    0    0  0.28467249371E+01 -0.92326309330E+00 -0.39167572351E+01  0.49292235540E+01  0.00000000000E+00 0. -1.
</event>
<event>
 8    1  0.2502398E-006  0.9118800E+02  0.7816164E-02  0.1184000E+00
        -11   -1    0    0    0    0  0.00000000000E+00  0.00000000000E+00  0.45593999997E+02  0.45594000000E+02  0.51100000000E-03 0.  1.
         11   -1    0    0    0    0 -0.00000000000E+00 -0.00000000000E+00 -0.45593999997E+02  0.45594000000E+02  0.51100000000E-03 0. -1.
         23    2    1    2    0    0  0.00000000000E+00  0.00000000000E+00 -0.35527136788E-14  0.91188000000E+02  0.91188000000E+02 0.  0.
    9900012    2    3    3    0    0  0.22809064662E+02  0.23806881375E+02 -0.16393816219E+02  0.54367105908E+02  0.40000049538E+02 0.  0.
        -12    1    3    3    0    0 -0.22809064662E+02 -0.23806881375E+02  0.16393816219E+02  0.36820894092E+02  0.00000000000E+00 0.  1.
         11    1    4    4    0    0  0.78565361699E+01  0.11940885176E+02 -0.10687568184E+02  0.17847521209E+02  0.51100000000E-03 0. -1.
        -11    1    4    4    0    0  0.50667249997E+01  0.21504499841E+02 -0.52329232097E+01  0.22704596478E+02  0.51100000000E-03 0.  1.
        -12    1    4    4    0    0  0.98858034922E+01 -0.96385036421E+01 -0.47332482497E+00  0.13814988221E+02  0.00000000000E+00 0.  1.
</event>
<event>
 8    1  0.2502398E-006  0.9118800E+02  0.7816164E-02  0.1184000E+00
        -11   -1    0    0    0    0  0.00000000000E+00  0.00000000000E+00  0.45593999997E+02  0.45594000000E+02  0.51100000000E-03 0. -1.
         11   -1    0    0    0    0 -0.00000000000E+00 -0.00000000000E+00 -0.45593999997E+02  0.45594000000E+02  0.51100000000E-03 0.  1.
         23    2    1    2    0    0  0.00000000000E+00  0.00000000000E+00  0.00000000000E+00  0.91188000000E+02  0.91188000000E+02 0.  0.
    9900012    2    3    3    0    0  0.11714424317E+02 -0.15807548684E+02 -0.31123523179E+02  0.54367081658E+02  0.39999994256E+02 0.  0.
         12    1    3    3    0    0 -0.11714424317E+02  0.15807548684E+02  0.31123523179E+02  0.36820918342E+02  0.00000000000E+00 0. -1.
         11    1    4    4    0    0  0.98041523656E+01 -0.25125490988E+01  0.44050811426E+01  0.11038072600E+02  0.51100000000E-03 0. -1.
        -11    1    4    4    0    0  0.29698587552E+01 -0.93904101806E+01 -0.37540240525E+02  0.38810688261E+02  0.51100000000E-03 0.  1.
        -12    1    4    4    0    0 -0.10595868035E+01 -0.39045894044E+01  0.20116362037E+01  0.45183207973E+01  0.00000000000E+00 0.  1.
</event>
<event>
 8    1  0.2502398E-006  0.9118800E+02  0.7816164E-02  0.1184000E+00
        -11   -1    0    0    0    0  0.00000000000E+00  0.00000000000E+00  0.45593999997E+02  0.45594000000E+02  0.51100000000E-03 0.  1.
         11   -1    0    0    0    0 -0.00000000000E+00 -0.00000000000E+00 -0.45593999997E+02  0.45594000000E+02  0.51100000000E-03 0. -1.
         23    2    1    2    0    0 -0.66613381478E-15  0.17763568394E-14  0.00000000000E+00  0.91188000000E+02  0.91188000000E+02 0.  0.
    9900012    2    3    3    0    0 -0.10022407600E+01  0.14899400932E+02  0.33656832595E+02  0.54367095408E+02  0.40000025601E+02 0.  0.
         12    1    3    3    0    0  0.10022407600E+01 -0.14899400932E+02 -0.33656832595E+02  0.36820904592E+02  0.00000000000E+00 0. -1.
         11    1    4    4    0    0 -0.59038834573E+01 -0.80151232470E+01  0.17037347591E+01  0.10099542214E+02  0.51100000000E-03 0. -1.
        -11    1    4    4    0    0  0.11427314974E+02  0.14999439379E+02  0.26850392881E+02  0.32810216509E+02  0.51100000000E-03 0.  1.
        -12    1    4    4    0    0 -0.65256722771E+01  0.79150847996E+01  0.51027049548E+01  0.11457336685E+02  0.00000000000E+00 0.  1.
</event>
<event>
 8    1  0.2502398E-006  0.9118800E+02  0.7816164E-02  0.1184000E+00
        -11   -1    0    0    0    0  0.00000000000E+00  0.00000000000E+00  0.45593999997E+02  0.45594000000E+02  0.51100000000E-03 0. -1.
         11   -1    0    0    0    0 -0.00000000000E+00 -0.00000000000E+00 -0.45593999997E+02  0.45594000000E+02  0.51100000000E-03 0.  1.
         23    2    1    2    0    0  0.71054273576E-14  0.00000000000E+00  0.00000000000E+00  0.91188000000E+02  0.91188000000E+02 0.  0.
    9900012    2    3    3    0    0 -0.31818427506E+02 -0.16870372288E+02 -0.76653941881E+01  0.54367081243E+02  0.39999993309E+02 0.  0.
         12    1    3    3    0    0  0.31818427506E+02  0.16870372288E+02  0.76653941881E+01  0.36820918757E+02  0.00000000000E+00 0. -1.
         11    1    4    4    0    0  0.75860094278E+00 -0.67803775197E+01  0.39710567522E+00  0.68342291357E+01  0.51100000000E-03 0. -1.
        -11    1    4    4    0    0 -0.37075412734E+01  0.17657887679E+01 -0.15008479867E+02  0.15560152327E+02  0.51100000000E-03 0.  1.
        -12    1    4    4    0    0 -0.28869487175E+02 -0.11855783536E+02  0.69459800036E+01  0.31972699780E+02  0.00000000000E+00 0.  1.
</event>
<event>
 8    1  0.2502398E-006  0.9118800E+02  0.7816164E-02  0.1184000E+00
        -11   -1    0    0    0    0  0.00000000000E+00  0.00000000000E+00  0.45593999997E+02  0.45594000000E+02  0.51100000000E-03 0.  1.
         11   -1    0    0    0    0 -0.00000000000E+00 -0.00000000000E+00 -0.45593999997E+02  0.45594000000E+02  0.51100000000E-03 0. -1.
         23    2    1    2    0    0  0.00000000000E+00  0.35527136788E-14 -0.88817841970E-15  0.91188000000E+02  0.91188000000E+02 0.  0.
    9900012    2    3    3    0    0 -0.23192105065E+02  0.27748880278E+02  0.69213751205E+01  0.54367088447E+02  0.40000009734E+02 0.  0.
        -12    1    3    3    0    0  0.23192105065E+02 -0.27748880278E+02 -0.69213751205E+01  0.36820911553E+02  0.00000000000E+00 0.  1.
         11    1    4    4    0    0 -0.22460222875E+02  0.31767038213E+02 -0.45068444857E+01  0.39165264916E+02  0.51100000000E-03 0. -1.
        -11    1    4    4    0    0 -0.18289920082E+01 -0.39321177951E+01  0.12758479846E+02  0.13475369025E+02  0.51100000000E-03 0.  1.
         12    1    4    4    0    0  0.10971098187E+01 -0.86040140157E-01 -0.13302602394E+01  0.17264545070E+01  0.00000000000E+00 0. -1.
</event>
<event>
 8    1  0.2502398E-006  0.9118800E+02  0.7816164E-02  0.1184000E+00
        -11   -1    0    0    0    0  0.00000000000E+00  0.00000000000E+00  0.45593999997E+02  0.45594000000E+02  0.51100000000E-03 0. -1.
         11   -1    0    0    0    0 -0.00000000000E+00 -0.00000000000E+00 -0.45593999997E+02  0.45594000000E+02  0.51100000000E-03 0.  1.
         23    2    1    2    0    0  0.35527136788E-14  0.00000000000E+00 -0.88817841970E-15  0.91188000000E+02  0.91188000000E+02 0.  0.
    9900012    2    3    3    0    0  0.24304318191E+02  0.26961516205E+02  0.61771376247E+01  0.54367078393E+02  0.39999986812E+02 0.  0.
        -12    1    3    3    0    0 -0.24304318191E+02 -0.26961516205E+02 -0.61771376247E+01  0.36820921607E+02  0.00000000000E+00 0.  1.
         11    1    4    4    0    0 -0.51014904589E+01 -0.67977982775E+00  0.21778073823E+01  0.55883942928E+01  0.51100000000E-03 0. -1.
        -11    1    4    4    0    0 -0.63050391532E+00 -0.10826829748E+01  0.69991459471E+01  0.71103995571E+01  0.51100000000E-03 0.  1.
         12    1    4    4    0    0  0.30036312565E+02  0.28723979007E+02 -0.29998157048E+01  0.41668284543E+02  0.00000000000E+00 0. -1.
</event>
<event>
 8    1  0.2502398E-006  0.9118800E+02  0.7816164E-02  0.1184000E+00
        -11   -1    0    0    0    0  0.00000000000E+00  0.00000000000E+00  0.45593999997E+02  0.45594000000E+02  0.51100000000E-03 0.  1.
         11   -1    0    0    0    0 -0.00000000000E+00 -0.00000000000E+00 -0.45593999997E+02  0.45594000000E+02  0.51100000000E-03 0. -1.
         23    2    1    2    0    0  0.00000000000E+00  0.00000000000E+00  0.00000000000E+00  0.91188000000E+02  0.91188000000E+02 0.  0.
    9900012    2    3    3    0    0 -0.14760357129E+02  0.16244464371E+02 -0.29564077000E+02  0.54367008513E+02  0.39999827506E+02 0.  0.
        -12    1    3    3    0    0  0.14760357129E+02 -0.16244464371E+02  0.29564077000E+02  0.36820991487E+02  0.00000000000E+00 0.  1.
         11    1    4    4    0    0 -0.13773690013E+02 -0.70741063767E+01 -0.12232897135E+02  0.19733253411E+02  0.51100000000E-03 0. -1.
        -11    1    4    4    0    0  0.22784988999E+01  0.81135781925E+01  0.30804092101E+01  0.89727715610E+01  0.51100000000E-03 0.  1.
         12    1    4    4    0    0 -0.32651660161E+01  0.15204992555E+02 -0.20411589075E+02  0.25660983541E+02  0.00000000000E+00 0. -1.
</event>
<event>
 8    1  0.2502398E-006  0.9118800E+02  0.7816164E-02  0.1184000E+00
        -11   -1    0    0    0    0  0.00000000000E+00  0.00000000000E+00  0.45593999997E+02  0.45594000000E+02  0.51100000000E-03 0.  1.
         11   -1    0    0    0    0 -0.00000000000E+00 -0.00000000000E+00 -0.45593999997E+02  0.45594000000E+02  0.51100000000E-03 0. -1.
         23    2    1    2    0    0  0.00000000000E+00  0.00000000000E+00  0.53290705182E-14  0.91188000000E+02  0.91188000000E+02 0.  0.
    9900012    2    3    3    0    0 -0.34579282609E+02 -0.65590358555E+01 -0.10818120183E+02  0.54367089346E+02  0.40000011782E+02 0.  0.
        -12    1    3    3    0    0  0.34579282609E+02  0.65590358555E+01  0.10818120183E+02  0.36820910654E+02  0.00000000000E+00 0.  1.
         11    1    4    4    0    0 -0.14279972305E+02  0.21517472879E+01 -0.14369764455E+02  0.20372475455E+02  0.51100000000E-03 0. -1.
        -11    1    4    4    0    0 -0.81905851319E+01 -0.55652623713E+01  0.14372503685E+02  0.17453558162E+02  0.51100000000E-03 0.  1.
        -12    1    4    4    0    0 -0.12108725172E+02 -0.31455207721E+01 -0.10820859412E+02  0.16541055730E+02  0.00000000000E+00 0.  1.
</event>
<event>
 8    1  0.2502398E-006  0.9118800E+02  0.7816164E-02  0.1184000E+00
        -11   -1    0    0    0    0  0.00000000000E+00  0.00000000000E+00  0.45593999997E+02  0.45594000000E+02  0.51100000000E-03 0. -1.
         11   -1    0    0    0    0 -0.00000000000E+00 -0.00000000000E+00 -0.45593999997E+02  0.45594000000E+02  0.51100000000E-03 0.  1.
         23    2    1    2    0    0  0.00000000000E+00  0.17763568394E-14 -0.17763568394E-14  0.91188000000E+02  0.91188000000E+02 0.  0.
    9900012    2    3    3    0    0  0.33155556121E+02 -0.77170826629E+01  0.14033382867E+02  0.54367080658E+02  0.39999991976E+02 0.  0.
        -12    1    3    3    0    0 -0.33155556121E+02  0.77170826629E+01 -0.14033382867E+02  0.36820919342E+02  0.00000000000E+00 0.  1.
         11    1    4    4    0    0  0.22649689401E+02 -0.12720318622E+02 -0.78110703379E+01  0.27126145246E+02  0.51100000000E-03 0.  1.
        -11    1    4    4    0    0  0.40477683799E+01  0.61221630796E+01  0.42861732869E+01  0.84992112185E+01  0.51100000000E-03 0. -1.
        -12    1    4    4    0    0  0.64580983397E+01 -0.11189271200E+01  0.17558279918E+02  0.18741724194E+02  0.00000000000E+00 0.  1.
</event>
<event>
 8    1  0.2502398E-006  0.9118800E+02  0.7816164E-02  0.1184000E+00
        -11   -1    0    0    0    0  0.00000000000E+00  0.00000000000E+00  0.45593999997E+02  0.45594000000E+02  0.51100000000E-03 0.  1.
         11   -1    0    0    0    0 -0.00000000000E+00 -0.00000000000E+00 -0.45593999997E+02  0.45594000000E+02  0.51100000000E-03 0. -1.
         23    2    1    2    0    0  0.17763568394E-14  0.00000000000E+00 -0.71054273576E-14  0.91188000000E+02  0.91188000000E+02 0.  0.
    9900012    2    3    3    0    0  0.95663141877E+01 -0.25958890023E+01 -0.35461633817E+02  0.54367075516E+02  0.39999980255E+02 0.  0.
        -12    1    3    3    0    0 -0.95663141877E+01  0.25958890023E+01  0.35461633817E+02  0.36820924484E+02  0.00000000000E+00 0.  1.
         11    1    4    4    0    0 -0.38994097223E+01 -0.37385287523E+01 -0.34640133117E+02  0.35058819376E+02  0.51100000000E-03 0. -1.
        -11    1    4    4    0    0 -0.14738650941E+01  0.31705795359E+01 -0.22599373409E+01  0.41631922794E+01  0.51100000000E-03 0.  1.
         12    1    4    4    0    0  0.14939589004E+02 -0.20279397858E+01  0.14384366406E+01  0.15145063861E+02  0.00000000000E+00 0. -1.
</event>
<event>
 8    1  0.2502398E-006  0.9118800E+02  0.7816164E-02  0.1184000E+00
        -11   -1    0    0    0    0  0.00000000000E+00  0.00000000000E+00  0.45593999997E+02  0.45594000000E+02  0.51100000000E-03 0.  1.
         11   -1    0    0    0    0 -0.00000000000E+00 -0.00000000000E+00 -0.45593999997E+02  0.45594000000E+02  0.51100000000E-03 0. -1.
         23    2    1    2    0    0  0.00000000000E+00  0.35527136788E-14 -0.26645352591E-14  0.91188000000E+02  0.91188000000E+02 0.  0.
    9900012    2    3    3    0    0  0.25456681117E+02 -0.25527464059E+02  0.74900869759E+01  0.54366872401E+02  0.39999517209E+02 0.  0.
         12    1    3    3    0    0 -0.25456681117E+02  0.25527464059E+02 -0.74900869759E+01  0.36821127599E+02  0.00000000000E+00 0. -1.
         11    1    4    4    0    0  0.22498383402E+02 -0.18896012570E+02 -0.78792430593E+01  0.30419056826E+02  0.51100000000E-03 0. -1.
        -11    1    4    4    0    0 -0.49447812307E+01  0.12550898140E+01  0.19072303285E+00  0.51051432298E+01  0.51100000000E-03 0.  1.
        -12    1    4    4    0    0  0.79030789457E+01 -0.78865413036E+01  0.15178607002E+02  0.18842672345E+02  0.00000000000E+00 0.  1.
</event>
<event>
 8    1  0.2502398E-006  0.9118800E+02  0.7816164E-02  0.1184000E+00
        -11   -1    0    0    0    0  0.00000000000E+00  0.00000000000E+00  0.45593999997E+02  0.45594000000E+02  0.51100000000E-03 0. -1.
         11   -1    0    0    0    0 -0.00000000000E+00 -0.00000000000E+00 -0.45593999997E+02  0.45594000000E+02  0.51100000000E-03 0.  1.
         23    2    1    2    0    0  0.00000000000E+00 -0.88817841970E-15  0.35527136788E-14  0.91188000000E+02  0.91188000000E+02 0.  0.
    9900012    2    3    3    0    0 -0.20183813215E+02 -0.58523939443E+01 -0.30234804379E+02  0.54367078955E+02  0.39999988093E+02 0.  0.
         12    1    3    3    0    0  0.20183813215E+02  0.58523939443E+01  0.30234804379E+02  0.36820921045E+02  0.00000000000E+00 0. -1.
         11    1    4    4    0    0  0.38995055324E+01 -0.11137912406E+02 -0.60006297833E+01  0.13238836589E+02  0.51100000000E-03 0. -1.
        -11    1    4    4    0    0 -0.92634202876E+01 -0.84083829784E+01 -0.57689792022E+01  0.13776537338E+02  0.51100000000E-03 0.  1.
        -12    1    4    4    0    0 -0.14819898460E+02  0.13693901440E+02 -0.18465195394E+02  0.27351705028E+02  0.00000000000E+00 0.  1.
</event>
<event>
 8    1  0.2502398E-006  0.9118800E+02  0.7816164E-02  0.1184000E+00
        -11   -1    0    0    0    0  0.00000000000E+00  0.00000000000E+00  0.45593999997E+02  0.45594000000E+02  0.51100000000E-03 0.  1.
         11   -1    0    0    0    0 -0.00000000000E+00 -0.00000000000E+00 -0.45593999997E+02  0.45594000000E+02  0.51100000000E-03 0. -1.
         23    2    1    2    0    0  0.00000000000E+00  0.00000000000E+00  0.00000000000E+00  0.91188000000E+02  0.91188000000E+02 0.  0.
    9900012    2    3    3    0    0  0.86167755669E+01 -0.18326893394E+02  0.30751516622E+02  0.54367087230E+02  0.40000006958E+02 0.  0.
         12    1    3    3    0    0 -0.86167755669E+01  0.18326893394E+02 -0.30751516622E+02  0.36820912770E+02  0.00000000000E+00 0. -1.
         11    1    4    4    0    0  0.14754638383E+02 -0.25268651600E+02  0.17422280105E+02  0.34054954879E+02  0.51100000000E-03 0. -1.
        -11    1    4    4    0    0  0.31639215521E+01  0.35038925306E+01  0.73398129787E+01  0.87269993284E+01  0.51100000000E-03 0.  1.
         12    1    4    4    0    0 -0.93017843681E+01  0.34378656755E+01  0.59894235385E+01  0.11585133023E+02  0.00000000000E+00 0. -1.
</event>
<event>
 8    1  0.2502398E-006  0.9118800E+02  0.7816164E-02  0.1184000E+00
        -11   -1    0    0    0    0  0.00000000000E+00  0.00000000000E+00  0.45593999997E+02  0.45594000000E+02  0.51100000000E-03 0.  1.
         11   -1    0    0    0    0 -0.00000000000E+00 -0.00000000000E+00 -0.45593999997E+02  0.45594000000E+02  0.51100000000E-03 0. -1.
         23    2    1    2    0    0 -0.71054273576E-14  0.53290705182E-14 -0.17763568394E-14  0.91188000000E+02  0.91188000000E+02 0.  0.
    9900012    2    3    3    0    0 -0.33076799502E+02  0.15307227266E+02 -0.52339404676E+01  0.54367081968E+02  0.39999994962E+02 0.  0.
         12    1    3    3    0    0  0.33076799502E+02 -0.15307227266E+02  0.52339404676E+01  0.36820918032E+02  0.00000000000E+00 0. -1.
         11    1    4    4    0    0 -0.83590564280E+01 -0.22986857959E+01  0.56030861742E+01  0.10322420050E+02  0.51100000000E-03 0. -1.
        -11    1    4    4    0    0 -0.86768683462E+01  0.23924637626E+02 -0.63433540536E+01  0.26228123660E+02  0.51100000000E-03 0.  1.
         12    1    4    4    0    0 -0.16040874728E+02 -0.63187245636E+01 -0.44936725881E+01  0.17816538258E+02  0.00000000000E+00 0. -1.
</event>
<event>
 8    1  0.2502398E-006  0.9118800E+02  0.7816164E-02  0.1184000E+00
        -11   -1    0    0    0    0  0.00000000000E+00  0.00000000000E+00  0.45593999997E+02  0.45594000000E+02  0.51100000000E-03 0.  1.
         11   -1    0    0    0    0 -0.00000000000E+00 -0.00000000000E+00 -0.45593999997E+02  0.45594000000E+02  0.51100000000E-03 0. -1.
         23    2    1    2    0    0 -0.88817841970E-15  0.00000000000E+00  0.71054273576E-14  0.91188000000E+02  0.91188000000E+02 0.  0.
    9900012    2    3    3    0    0  0.63893344274E+01 -0.80017612395E+01  0.35368465461E+02  0.54367080315E+02  0.39999991194E+02 0.  0.
         12    1    3    3    0    0 -0.63893344274E+01  0.80017612395E+01 -0.35368465461E+02  0.36820919685E+02  0.00000000000E+00 0. -1.
         11    1    4    4    0    0  0.88751662361E+01 -0.16037983881E+02  0.36483452947E+01  0.18689460301E+02  0.51100000000E-03 0. -1.
        -11    1    4    4    0    0 -0.11309712435E+01 -0.37461369070E+01  0.43655222836E+01  0.58626293375E+01  0.51100000000E-03 0.  1.
         12    1    4    4    0    0 -0.13548605651E+01  0.11782359549E+02  0.27354597883E+02  0.29814990676E+02  0.00000000000E+00 0. -1.
</event>
<event>
 8    1  0.2502398E-006  0.9118800E+02  0.7816164E-02  0.1184000E+00
        -11   -1    0    0    0    0  0.00000000000E+00  0.00000000000E+00  0.45593999997E+02  0.45594000000E+02  0.51100000000E-03 0.  1.
         11   -1    0    0    0    0 -0.00000000000E+00 -0.00000000000E+00 -0.45593999997E+02  0.45594000000E+02  0.51100000000E-03 0. -1.
         23    2    1    2    0    0 -0.88817841970E-15  0.00000000000E+00  0.88817841970E-15  0.91188000000E+02  0.91188000000E+02 0.  0.
    9900012    2    3    3    0    0 -0.56148321785E+01 -0.36381492601E+02 -0.79913361525E+00  0.54367109750E+02  0.40000058297E+02 0.  0.
         12    1    3    3    0    0  0.56148321785E+01  0.36381492601E+02  0.79913361525E+00  0.36820890250E+02  0.00000000000E+00 0. -1.
         11    1    4    4    0    0  0.10970540388E+02 -0.34030225004E+01 -0.60445934375E+00  0.11502116757E+02  0.51100000000E-03 0. -1.
        -11    1    4    4    0    0 -0.15760957445E+02 -0.16617501150E+02 -0.85855226520E+01  0.24459360652E+02  0.51100000000E-03 0.  1.
        -12    1    4    4    0    0 -0.82441512112E+00 -0.16360968951E+02  0.83908483805E+01  0.18405632340E+02  0.00000000000E+00 0.  1.
</event>
<event>
 8    1  0.2502398E-006  0.9118800E+02  0.7816164E-02  0.1184000E+00
        -11   -1    0    0    0    0  0.00000000000E+00  0.00000000000E+00  0.45593999997E+02  0.45594000000E+02  0.51100000000E-03 0.  1.
         11   -1    0    0    0    0 -0.00000000000E+00 -0.00000000000E+00 -0.45593999997E+02  0.45594000000E+02  0.51100000000E-03 0. -1.
         23    2    1    2    0    0 -0.71054273576E-14  0.00000000000E+00  0.00000000000E+00  0.91188000000E+02  0.91188000000E+02 0.  0.
    9900012    2    3    3    0    0  0.34741509490E+02 -0.12034821867E+02 -0.19925569174E+01  0.54367086078E+02  0.40000004332E+02 0.  0.
        -12    1    3    3    0    0 -0.34741509490E+02  0.12034821867E+02  0.19925569174E+01  0.36820913922E+02  0.00000000000E+00 0.  1.
         11    1    4    4    0    0  0.21959611180E+02 -0.11012407746E+02  0.25786219994E+01  0.24701152589E+02  0.51100000000E-03 0. -1.
        -11    1    4    4    0    0  0.78533281160E+01 -0.10565014770E+02  0.61150566471E+01  0.14515103088E+02  0.51100000000E-03 0.  1.
        -12    1    4    4    0    0  0.49285701939E+01  0.95426006497E+01 -0.10686235564E+02  0.15150830401E+02  0.00000000000E+00 0.  1.
</event>
<event>
 8    1  0.2502398E-006  0.9118800E+02  0.7816164E-02  0.1184000E+00
        -11   -1    0    0    0    0  0.00000000000E+00  0.00000000000E+00  0.45593999997E+02  0.45594000000E+02  0.51100000000E-03 0.  1.
         11   -1    0    0    0    0 -0.00000000000E+00 -0.00000000000E+00 -0.45593999997E+02  0.45594000000E+02  0.51100000000E-03 0. -1.
         23    2    1    2    0    0  0.00000000000E+00  0.71054273576E-14 -0.66613381478E-15  0.91188000000E+02  0.91188000000E+02 0.  0.
    9900012    2    3    3    0    0 -0.77432056131E+01 -0.35945663615E+02 -0.19321556812E+01  0.54367065853E+02  0.39999958226E+02 0.  0.
         12    1    3    3    0    0  0.77432056131E+01  0.35945663615E+02  0.19321556812E+01  0.36820934147E+02  0.00000000000E+00 0. -1.
         11    1    4    4    0    0  0.55670481073E+01 -0.80565844457E+00 -0.53314407910E+01  0.77501852447E+01  0.51100000000E-03 0. -1.
        -11    1    4    4    0    0 -0.12133185774E+02 -0.20339123531E+02  0.14773519529E+02  0.27913276815E+02  0.51100000000E-03 0.  1.
         12    1    4    4    0    0 -0.11770679468E+01 -0.14800881639E+02 -0.11374234419E+02  0.18703603793E+02  0.00000000000E+00 0. -1.
</event>
<event>
 8    1  0.2502398E-006  0.9118800E+02  0.7816164E-02  0.1184000E+00
        -11   -1    0    0    0    0  0.00000000000E+00  0.00000000000E+00  0.45593999997E+02  0.45594000000E+02  0.51100000000E-03 0.  1.
         11   -1    0    0    0    0 -0.00000000000E+00 -0.00000000000E+00 -0.45593999997E+02  0.45594000000E+02  0.51100000000E-03 0. -1.
         23    2    1    2    0    0  0.00000000000E+00  0.35527136788E-14  0.00000000000E+00  0.91188000000E+02  0.91188000000E+02 0.  0.
    9900012    2    3    3    0    0  0.31132025265E+02 -0.18950661980E+02 -0.52391928382E+01  0.54367085723E+02  0.40000003522E+02 0.  0.
         12    1    3    3    0    0 -0.31132025265E+02  0.18950661980E+02  0.52391928382E+01  0.36820914277E+02  0.00000000000E+00 0. -1.
         11    1    4    4    0    0  0.18386219827E+00 -0.12265790013E+02 -0.13425547381E+02  0.18185948771E+02  0.51100000000E-03 0. -1.
        -11    1    4    4    0    0  0.18725413323E+02 -0.45013238213E+01  0.12587902659E+02  0.23007788113E+02  0.51100000000E-03 0.  1.
        -12    1    4    4    0    0  0.12222749744E+02 -0.21835481457E+01 -0.44015481163E+01  0.13173348839E+02  0.00000000000E+00 0.  1.
</event>
<event>
 8    1  0.2502398E-006  0.9118800E+02  0.7816164E-02  0.1184000E+00
        -11   -1    0    0    0    0  0.00000000000E+00  0.00000000000E+00  0.45593999997E+02  0.45594000000E+02  0.51100000000E-03 0.  1.
         11   -1    0    0    0    0 -0.00000000000E+00 -0.00000000000E+00 -0.45593999997E+02  0.45594000000E+02  0.51100000000E-03 0. -1.
         23    2    1    2    0    0 -0.46629367034E-14  0.00000000000E+00  0.00000000000E+00  0.91188000000E+02  0.91188000000E+02 0.  0.
    9900012    2    3    3    0    0 -0.16988158626E+01  0.25174487183E+01 -0.36695461612E+02  0.54367076243E+02  0.39999981911E+02 0.  0.
        -12    1    3    3    0    0  0.16988158626E+01 -0.25174487183E+01  0.36695461612E+02  0.36820923757E+02  0.00000000000E+00 0.  1.
         11    1    4    4    0    0 -0.19419631897E+02 -0.19206917255E+01 -0.25223848231E+02  0.31891279052E+02  0.51100000000E-03 0. -1.
        -11    1    4    4    0    0  0.46080852701E+01  0.33813138717E+01 -0.13380991413E+01  0.58701143880E+01  0.51100000000E-03 0.  1.
         12    1    4    4    0    0  0.13112730764E+02  0.10568265720E+01 -0.10133514240E+02  0.16605682803E+02  0.00000000000E+00 0. -1.
</event>
<event>
 8    1  0.2502398E-006  0.9118800E+02  0.7816164E-02  0.1184000E+00
        -11   -1    0    0    0    0  0.00000000000E+00  0.00000000000E+00  0.45593999997E+02  0.45594000000E+02  0.51100000000E-03 0.  1.
         11   -1    0    0    0    0 -0.00000000000E+00 -0.00000000000E+00 -0.45593999997E+02  0.45594000000E+02  0.51100000000E-03 0. -1.
         23    2    1    2    0    0  0.00000000000E+00  0.00000000000E+00 -0.35527136788E-14  0.91188000000E+02  0.91188000000E+02 0.  0.
    9900012    2    3    3    0    0  0.29607992570E+02 -0.88652782700E+01 -0.20013856748E+02  0.54367070561E+02  0.39999968958E+02 0.  0.
         12    1    3    3    0    0 -0.29607992570E+02  0.88652782700E+01  0.20013856748E+02  0.36820929439E+02  0.00000000000E+00 0. -1.
         11    1    4    4    0    0  0.53741659738E+01  0.80817718428E+01 -0.69145029528E+00  0.97300976257E+01  0.51100000000E-03 0.  1.
        -11    1    4    4    0    0  0.22913226073E+02 -0.19292049546E+02 -0.53743011970E+01  0.30431599012E+02  0.51100000000E-03 0. -1.
         12    1    4    4    0    0  0.13206005229E+01  0.23449994336E+01 -0.13948105256E+02  0.14205373924E+02  0.00000000000E+00 0. -1.
</event>
<event>
 8    1  0.2502398E-006  0.9118800E+02  0.7816164E-02  0.1184000E+00
        -11   -1    0    0    0    0  0.00000000000E+00  0.00000000000E+00  0.45593999997E+02  0.45594000000E+02  0.51100000000E-03 0. -1.
         11   -1    0    0    0    0 -0.00000000000E+00 -0.00000000000E+00 -0.45593999997E+02  0.45594000000E+02  0.51100000000E-03 0.  1.
         23    2    1    2    0    0 -0.35527136788E-14 -0.35527136788E-14  0.00000000000E+00  0.91188000000E+02  0.91188000000E+02 0.  0.
    9900012    2    3    3    0    0 -0.31177962562E+02  0.19221390694E+02 -0.37756482094E+01  0.54367044973E+02  0.39999910624E+02 0.  0.
         12    1    3    3    0    0  0.31177962562E+02 -0.19221390694E+02  0.37756482094E+01  0.36820955027E+02  0.00000000000E+00 0. -1.
         11    1    4    4    0    0 -0.10640050479E+02  0.47019978040E+00  0.20433811223E+01  0.10844683892E+02  0.51100000000E-03 0. -1.
        -11    1    4    4    0    0 -0.15989195934E+02  0.27628221578E+02  0.10438609689E+00  0.31921527389E+02  0.51100000000E-03 0.  1.
        -12    1    4    4    0    0 -0.45487161488E+01 -0.88770306636E+01 -0.59234154286E+01  0.11600833692E+02  0.00000000000E+00 0.  1.
</event>
<event>
 8    1  0.2502398E-006  0.9118800E+02  0.7816164E-02  0.1184000E+00
        -11   -1    0    0    0    0  0.00000000000E+00  0.00000000000E+00  0.45593999997E+02  0.45594000000E+02  0.51100000000E-03 0. -1.
         11   -1    0    0    0    0 -0.00000000000E+00 -0.00000000000E+00 -0.45593999997E+02  0.45594000000E+02  0.51100000000E-03 0.  1.
         23    2    1    2    0    0  0.00000000000E+00  0.35527136788E-14  0.00000000000E+00  0.91188000000E+02  0.91188000000E+02 0.  0.
    9900012    2    3    3    0    0 -0.25904951791E+02 -0.19585627690E+02  0.17352706290E+02  0.54367085360E+02  0.40000002696E+02 0.  0.
        -12    1    3    3    0    0  0.25904951791E+02  0.19585627690E+02 -0.17352706290E+02  0.36820914640E+02  0.00000000000E+00 0.  1.
         11    1    4    4    0    0 -0.64776859346E+01  0.90414868625E+00  0.40479077416E+00  0.65529959367E+01  0.51100000000E-03 0. -1.
        -11    1    4    4    0    0 -0.26374409639E+02 -0.14762217495E+02  0.19077512612E+01  0.30284848758E+02  0.51100000000E-03 0.  1.
        -12    1    4    4    0    0  0.69471437830E+01 -0.57275588813E+01  0.15040164255E+02  0.17529240665E+02  0.00000000000E+00 0.  1.
</event>
<event>
 8    1  0.2502398E-006  0.9118800E+02  0.7816164E-02  0.1184000E+00
        -11   -1    0    0    0    0  0.00000000000E+00  0.00000000000E+00  0.45593999997E+02  0.45594000000E+02  0.51100000000E-03 0. -1.
         11   -1    0    0    0    0 -0.00000000000E+00 -0.00000000000E+00 -0.45593999997E+02  0.45594000000E+02  0.51100000000E-03 0.  1.
         23    2    1    2    0    0  0.17763568394E-14  0.00000000000E+00 -0.35527136788E-14  0.91188000000E+02  0.91188000000E+02 0.  0.
    9900012    2    3    3    0    0  0.69095238181E+01 -0.17580539442E+02  0.31606235929E+02  0.54367203756E+02  0.40000272602E+02 0.  0.
        -12    1    3    3    0    0 -0.69095238181E+01  0.17580539442E+02 -0.31606235929E+02  0.36820796244E+02  0.00000000000E+00 0.  1.
         11    1    4    4    0    0 -0.29989098729E+01  0.85352281628E+00  0.18668541098E+02  0.18927133661E+02  0.51100000000E-03 0. -1.
        -11    1    4    4    0    0 -0.29981955278E+01 -0.45354566181E+01 -0.63699014479E+01  0.83746753892E+01  0.51100000000E-03 0.  1.
         12    1    4    4    0    0  0.12906629219E+02 -0.13898605640E+02  0.19307596278E+02  0.27065394706E+02  0.00000000000E+00 0. -1.
</event>
<event>
 8    1  0.2502398E-006  0.9118800E+02  0.7816164E-02  0.1184000E+00
        -11   -1    0    0    0    0  0.00000000000E+00  0.00000000000E+00  0.45593999997E+02  0.45594000000E+02  0.51100000000E-03 0. -1.
         11   -1    0    0    0    0 -0.00000000000E+00 -0.00000000000E+00 -0.45593999997E+02  0.45594000000E+02  0.51100000000E-03 0.  1.
         23    2    1    2    0    0  0.17763568394E-14  0.00000000000E+00  0.00000000000E+00  0.91188000000E+02  0.91188000000E+02 0.  0.
    9900012    2    3    3    0    0 -0.11357410426E+02 -0.12099690774E+02  0.32869222666E+02  0.54367094429E+02  0.40000023370E+02 0.  0.
        -12    1    3    3    0    0  0.11357410426E+02  0.12099690774E+02 -0.32869222666E+02  0.36820905571E+02  0.00000000000E+00 0.  1.
         11    1    4    4    0    0 -0.57364554609E+01 -0.21096793045E+01  0.36618250083E+01  0.71250705734E+01  0.51100000000E-03 0. -1.
        -11    1    4    4    0    0 -0.14232005727E+02  0.56226470467E+01  0.24355482084E+02  0.28763755920E+02  0.51100000000E-03 0.  1.
        -12    1    4    4    0    0  0.86110507615E+01 -0.15612658517E+02  0.48519155732E+01  0.18478267936E+02  0.00000000000E+00 0.  1.
</event>
<event>
 8    1  0.2502398E-006  0.9118800E+02  0.7816164E-02  0.1184000E+00
        -11   -1    0    0    0    0  0.00000000000E+00  0.00000000000E+00  0.45593999997E+02  0.45594000000E+02  0.51100000000E-03 0.  1.
         11   -1    0    0    0    0 -0.00000000000E+00 -0.00000000000E+00 -0.45593999997E+02  0.45594000000E+02  0.51100000000E-03 0. -1.
         23    2    1    2    0    0 -0.17763568394E-14  0.00000000000E+00  0.00000000000E+00  0.91188000000E+02  0.91188000000E+02 0.  0.
    9900012    2    3    3    0    0 -0.12379218292E+02  0.33509157866E+02  0.89258863729E+01  0.54367079941E+02  0.39999990342E+02 0.  0.
        -12    1    3    3    0    0  0.12379218292E+02 -0.33509157866E+02 -0.89258863729E+01  0.36820920059E+02  0.00000000000E+00 0.  1.
         11    1    4    4    0    0 -0.25911975225E+01  0.28649590142E+02 -0.23620520176E+01  0.28863343706E+02  0.51100000000E-03 0. -1.
        -11    1    4    4    0    0  0.12248728995E+01  0.82184554238E+01 -0.13380422391E+01  0.84162747381E+01  0.51100000000E-03 0.  1.
        -12    1    4    4    0    0 -0.11012893669E+02 -0.33588876997E+01  0.12625980630E+02  0.17087461497E+02  0.00000000000E+00 0.  1.
</event>
<event>
 8    1  0.2502398E-006  0.9118800E+02  0.7816164E-02  0.1184000E+00
        -11   -1    0    0    0    0  0.00000000000E+00  0.00000000000E+00  0.45593999997E+02  0.45594000000E+02  0.51100000000E-03 0. -1.
         11   -1    0    0    0    0 -0.00000000000E+00 -0.00000000000E+00 -0.45593999997E+02  0.45594000000E+02  0.51100000000E-03 0.  1.
         23    2    1    2    0    0 -0.88817841970E-15 -0.22204460493E-15  0.00000000000E+00  0.91188000000E+02  0.91188000000E+02 0.  0.
    9900012    2    3    3    0    0  0.50291564961E+01  0.17261270221E+01  0.36434975932E+02  0.54367090170E+02  0.40000013660E+02 0.  0.
        -12    1    3    3    0    0 -0.50291564961E+01 -0.17261270221E+01 -0.36434975932E+02  0.36820909830E+02  0.00000000000E+00 0.  1.
         11    1    4    4    0    0 -0.69852106264E+01 -0.52534050656E+01  0.35964812477E+02  0.37011608571E+02  0.51100000000E-03 0. -1.
        -11    1    4    4    0    0  0.11307078668E+02  0.46852205533E+01  0.41826741652E+01  0.12934298708E+02  0.51100000000E-03 0.  1.
         12    1    4    4    0    0  0.70728845433E+00  0.22943115344E+01 -0.37125107102E+01  0.44211828901E+01  0.00000000000E+00 0. -1.
</event>
<event>
 8    1  0.2502398E-006  0.9118800E+02  0.7816164E-02  0.1184000E+00
        -11   -1    0    0    0    0  0.00000000000E+00  0.00000000000E+00  0.45593999997E+02  0.45594000000E+02  0.51100000000E-03 0. -1.
         11   -1    0    0    0    0 -0.00000000000E+00 -0.00000000000E+00 -0.45593999997E+02  0.45594000000E+02  0.51100000000E-03 0.  1.
         23    2    1    2    0    0  0.35527136788E-14  0.35527136788E-14 -0.17763568394E-14  0.91188000000E+02  0.91188000000E+02 0.  0.
    9900012    2    3    3    0    0 -0.25438057058E+02 -0.22982554498E+02  0.13434546547E+02  0.54367087477E+02  0.40000007520E+02 0.  0.
        -12    1    3    3    0    0  0.25438057058E+02  0.22982554498E+02 -0.13434546547E+02  0.36820912523E+02  0.00000000000E+00 0.  1.
         11    1    4    4    0    0 -0.17148273257E+02  0.65107962115E+01  0.75707600600E+01  0.19843642588E+02  0.51100000000E-03 0. -1.
        -11    1    4    4    0    0 -0.56303567553E+01 -0.37798902670E+01 -0.26883356676E+01  0.72949048345E+01  0.51100000000E-03 0.  1.
         12    1    4    4    0    0 -0.26594270457E+01 -0.25713460443E+02  0.85521221548E+01  0.27228540054E+02  0.00000000000E+00 0. -1.
</event>
<event>
 8    1  0.2502398E-006  0.9118800E+02  0.7816164E-02  0.1184000E+00
        -11   -1    0    0    0    0  0.00000000000E+00  0.00000000000E+00  0.45593999997E+02  0.45594000000E+02  0.51100000000E-03 0. -1.
         11   -1    0    0    0    0 -0.00000000000E+00 -0.00000000000E+00 -0.45593999997E+02  0.45594000000E+02  0.51100000000E-03 0.  1.
         23    2    1    2    0    0  0.00000000000E+00  0.00000000000E+00 -0.17763568394E-14  0.91188000000E+02  0.91188000000E+02 0.  0.
    9900012    2    3    3    0    0 -0.13525485689E+02 -0.33071291700E+02  0.88955550479E+01  0.54367082067E+02  0.39999995187E+02 0.  0.
         12    1    3    3    0    0  0.13525485689E+02  0.33071291700E+02 -0.88955550479E+01  0.36820917933E+02  0.00000000000E+00 0. -1.
         11    1    4    4    0    0 -0.10984084468E+02 -0.19553678211E+02  0.19501560023E+02  0.29720485978E+02  0.51100000000E-03 0. -1.
        -11    1    4    4    0    0  0.17772447212E+01 -0.16687839535E+02 -0.69708035951E+01  0.18172360611E+02  0.51100000000E-03 0.  1.
         12    1    4    4    0    0 -0.43186459422E+01  0.31702260458E+01 -0.36352013796E+01  0.64742354781E+01  0.00000000000E+00 0. -1.
</event>
<event>
 8    1  0.2502398E-006  0.9118800E+02  0.7816164E-02  0.1184000E+00
        -11   -1    0    0    0    0  0.00000000000E+00  0.00000000000E+00  0.45593999997E+02  0.45594000000E+02  0.51100000000E-03 0.  1.
         11   -1    0    0    0    0 -0.00000000000E+00 -0.00000000000E+00 -0.45593999997E+02  0.45594000000E+02  0.51100000000E-03 0. -1.
         23    2    1    2    0    0  0.00000000000E+00 -0.44408920985E-15  0.00000000000E+00  0.91188000000E+02  0.91188000000E+02 0.  0.
    9900012    2    3    3    0    0 -0.16651057907E+02  0.24673882649E+01 -0.32748041910E+02  0.54367082260E+02  0.39999995629E+02 0.  0.
        -12    1    3    3    0    0  0.16651057907E+02 -0.24673882649E+01  0.32748041910E+02  0.36820917740E+02  0.00000000000E+00 0.  1.
         11    1    4    4    0    0 -0.37636194787E+01  0.74317392847E+01 -0.17386556283E+02  0.19279209528E+02  0.51100000000E-03 0. -1.
        -11    1    4    4    0    0  0.55309805785E+01  0.67882827245E+01 -0.84589610614E+01  0.12174832689E+02  0.51100000000E-03 0.  1.
        -12    1    4    4    0    0 -0.18418419007E+02 -0.11752633744E+02 -0.69025245653E+01  0.22913040043E+02  0.00000000000E+00 0.  1.
</event>
<event>
 8    1  0.2502398E-006  0.9118800E+02  0.7816164E-02  0.1184000E+00
        -11   -1    0    0    0    0  0.00000000000E+00  0.00000000000E+00  0.45593999997E+02  0.45594000000E+02  0.51100000000E-03 0. -1.
         11   -1    0    0    0    0 -0.00000000000E+00 -0.00000000000E+00 -0.45593999997E+02  0.45594000000E+02  0.51100000000E-03 0.  1.
         23    2    1    2    0    0  0.35527136788E-14  0.00000000000E+00 -0.35527136788E-14  0.91188000000E+02  0.91188000000E+02 0.  0.
    9900012    2    3    3    0    0  0.24566108917E+02 -0.19076884066E+02 -0.19706817268E+02  0.54367083935E+02  0.39999999448E+02 0.  0.
        -12    1    3    3    0    0 -0.24566108917E+02  0.19076884066E+02  0.19706817268E+02  0.36820916065E+02  0.00000000000E+00 0.  1.
         11    1    4    4    0    0  0.11382275103E+02 -0.11892572687E+01  0.12903441138E+01  0.11516749002E+02  0.51100000000E-03 0. -1.
        -11    1    4    4    0    0  0.13585216942E+02 -0.94555812881E+01 -0.27566354582E+02  0.32153849568E+02  0.51100000000E-03 0.  1.
         12    1    4    4    0    0 -0.40138312836E+00 -0.84320455088E+01  0.65691931997E+01  0.10696485365E+02  0.00000000000E+00 0. -1.
</event>
<event>
 8    1  0.2502398E-006  0.9118800E+02  0.7816164E-02  0.1184000E+00
        -11   -1    0    0    0    0  0.00000000000E+00  0.00000000000E+00  0.45593999997E+02  0.45594000000E+02  0.51100000000E-03 0.  1.
         11   -1    0    0    0    0 -0.00000000000E+00 -0.00000000000E+00 -0.45593999997E+02  0.45594000000E+02  0.51100000000E-03 0. -1.
         23    2    1    2    0    0  0.22204460493E-14  0.00000000000E+00  0.35527136788E-14  0.91188000000E+02  0.91188000000E+02 0.  0.
    9900012    2    3    3    0    0  0.26656594022E+01 -0.18631237388E+02 -0.31647291253E+02  0.54367084880E+02  0.40000001601E+02 0.  0.
        -12    1    3    3    0    0 -0.26656594022E+01  0.18631237388E+02  0.31647291253E+02  0.36820915120E+02  0.00000000000E+00 0.  1.
         11    1    4    4    0    0 -0.10187013431E+02  0.39315455564E+01 -0.86658640387E+01  0.13940211365E+02  0.51100000000E-03 0. -1.
        -11    1    4    4    0    0  0.16143785252E+02 -0.15245444927E+02 -0.23569970305E+02  0.32381922329E+02  0.51100000000E-03 0.  1.
        -12    1    4    4    0    0 -0.32911124185E+01 -0.73173380173E+01  0.58854309110E+00  0.80449511857E+01  0.00000000000E+00 0.  1.
</event>
<event>
 8    1  0.2502398E-006  0.9118800E+02  0.7816164E-02  0.1184000E+00
        -11   -1    0    0    0    0  0.00000000000E+00  0.00000000000E+00  0.45593999997E+02  0.45594000000E+02  0.51100000000E-03 0.  1.
         11   -1    0    0    0    0 -0.00000000000E+00 -0.00000000000E+00 -0.45593999997E+02  0.45594000000E+02  0.51100000000E-03 0. -1.
         23    2    1    2    0    0  0.00000000000E+00  0.17763568394E-14 -0.35527136788E-14  0.91188000000E+02  0.91188000000E+02 0.  0.
    9900012    2    3    3    0    0  0.12590434493E+02 -0.14193373313E+02 -0.31556557261E+02  0.54366984358E+02  0.39999772441E+02 0.  0.
        -12    1    3    3    0    0 -0.12590434493E+02  0.14193373313E+02  0.31556557261E+02  0.36821015642E+02  0.00000000000E+00 0.  1.
         11    1    4    4    0    0 -0.87970326468E+01 -0.33226025007E+00 -0.74770717262E+01  0.11550098793E+02  0.51100000000E-03 0.  1.
        -11    1    4    4    0    0  0.19187441628E+02 -0.11661192896E+01 -0.22870555474E+02  0.29876078363E+02  0.51100000000E-03 0. -1.
         12    1    4    4    0    0  0.22000255113E+01 -0.12694993773E+02 -0.12089300613E+01  0.12940807202E+02  0.00000000000E+00 0. -1.
</event>
<event>
 8    1  0.2502398E-006  0.9118800E+02  0.7816164E-02  0.1184000E+00
        -11   -1    0    0    0    0  0.00000000000E+00  0.00000000000E+00  0.45593999997E+02  0.45594000000E+02  0.51100000000E-03 0.  1.
         11   -1    0    0    0    0 -0.00000000000E+00 -0.00000000000E+00 -0.45593999997E+02  0.45594000000E+02  0.51100000000E-03 0. -1.
         23    2    1    2    0    0 -0.17763568394E-14  0.00000000000E+00  0.35527136788E-14  0.91188000000E+02  0.91188000000E+02 0.  0.
    9900012    2    3    3    0    0  0.87238396591E+01  0.30231220481E+02  0.19124560977E+02  0.54367069773E+02  0.39999967163E+02 0.  0.
         12    1    3    3    0    0 -0.87238396591E+01 -0.30231220481E+02 -0.19124560977E+02  0.36820930227E+02  0.00000000000E+00 0. -1.
         11    1    4    4    0    0 -0.81489314127E+01  0.17272426568E+02 -0.49574709206E+01  0.19731151029E+02  0.51100000000E-03 0. -1.
        -11    1    4    4    0    0  0.65492730811E+01 -0.15256649020E+01  0.40639880031E+01  0.78572660661E+01  0.51100000000E-03 0.  1.
         12    1    4    4    0    0  0.10323497991E+02  0.14484458815E+02  0.20018043895E+02  0.26778652679E+02  0.00000000000E+00 0. -1.
</event>
<event>
 8    1  0.2502398E-006  0.9118800E+02  0.7816164E-02  0.1184000E+00
        -11   -1    0    0    0    0  0.00000000000E+00  0.00000000000E+00  0.45593999997E+02  0.45594000000E+02  0.51100000000E-03 0. -1.
         11   -1    0    0    0    0 -0.00000000000E+00 -0.00000000000E+00 -0.45593999997E+02  0.45594000000E+02  0.51100000000E-03 0.  1.
         23    2    1    2    0    0 -0.17763568394E-14 -0.35527136788E-14  0.00000000000E+00  0.91188000000E+02  0.91188000000E+02 0.  0.
    9900012    2    3    3    0    0 -0.90782779194E+01 -0.28803213797E+02 -0.21065118365E+02  0.54367089273E+02  0.40000011617E+02 0.  0.
         12    1    3    3    0    0  0.90782779194E+01  0.28803213797E+02  0.21065118365E+02  0.36820910727E+02  0.00000000000E+00 0. -1.
         11    1    4    4    0    0  0.11542437622E+02 -0.25327735947E+02 -0.88828176969E+01  0.29216887667E+02  0.51100000000E-03 0. -1.
        -11    1    4    4    0    0 -0.10163654274E+01  0.14667022983E+01 -0.10422485312E+01  0.20665179833E+01  0.51100000000E-03 0.  1.
        -12    1    4    4    0    0 -0.19604350114E+02 -0.49421801479E+01 -0.11140052137E+02  0.23083683623E+02  0.00000000000E+00 0.  1.
</event>
<event>
 8    1  0.2502398E-006  0.9118800E+02  0.7816164E-02  0.1184000E+00
        -11   -1    0    0    0    0  0.00000000000E+00  0.00000000000E+00  0.45593999997E+02  0.45594000000E+02  0.51100000000E-03 0. -1.
         11   -1    0    0    0    0 -0.00000000000E+00 -0.00000000000E+00 -0.45593999997E+02  0.45594000000E+02  0.51100000000E-03 0.  1.
         23    2    1    2    0    0  0.00000000000E+00  0.00000000000E+00 -0.44408920985E-15  0.91188000000E+02  0.91188000000E+02 0.  0.
    9900012    2    3    3    0    0  0.21336380339E+02 -0.29886203319E+02 -0.27115869015E+01  0.54367095906E+02  0.40000026737E+02 0.  0.
         12    1    3    3    0    0 -0.21336380339E+02  0.29886203319E+02  0.27115869015E+01  0.36820904094E+02  0.00000000000E+00 0. -1.
         11    1    4    4    0    0  0.10433393490E+02 -0.21541290310E+02  0.36858975070E+01  0.24217116439E+02  0.51100000000E-03 0.  1.
        -11    1    4    4    0    0  0.18950494150E+02 -0.90893964754E+01 -0.24633780287E+01  0.21161441076E+02  0.51100000000E-03 0. -1.
        -12    1    4    4    0    0 -0.80475073020E+01  0.74448346640E+00 -0.39341063799E+01  0.89885383915E+01  0.00000000000E+00 0.  1.
</event>
<event>
 8    1  0.2502398E-006  0.9118800E+02  0.7816164E-02  0.1184000E+00
        -11   -1    0    0    0    0  0.00000000000E+00  0.00000000000E+00  0.45593999997E+02  0.45594000000E+02  0.51100000000E-03 0.  1.
         11   -1    0    0    0    0 -0.00000000000E+00 -0.00000000000E+00 -0.45593999997E+02  0.45594000000E+02  0.51100000000E-03 0. -1.
         23    2    1    2    0    0  0.35527136788E-14  0.35527136788E-14  0.00000000000E+00  0.91188000000E+02  0.91188000000E+02 0.  0.
    9900012    2    3    3    0    0  0.29801784082E+02  0.21076420213E+02  0.48391724914E+01  0.54367089991E+02  0.40000013253E+02 0.  0.
         12    1    3    3    0    0 -0.29801784082E+02 -0.21076420213E+02 -0.48391724914E+01  0.36820910009E+02  0.00000000000E+00 0. -1.
         11    1    4    4    0    0  0.24511481152E+01 -0.22658921448E+01 -0.86918355844E+00  0.34493295890E+01  0.51100000000E-03 0. -1.
        -11    1    4    4    0    0  0.11614152439E+02  0.25051685625E+02  0.16117717513E+02  0.31972743198E+02  0.51100000000E-03 0.  1.
        -12    1    4    4    0    0  0.15736483528E+02 -0.17093732675E+01 -0.10409361463E+02  0.18945017204E+02  0.00000000000E+00 0.  1.
</event>
<event>
 8    1  0.2502398E-006  0.9118800E+02  0.7816164E-02  0.1184000E+00
        -11   -1    0    0    0    0  0.00000000000E+00  0.00000000000E+00  0.45593999997E+02  0.45594000000E+02  0.51100000000E-03 0.  1.
         11   -1    0    0    0    0 -0.00000000000E+00 -0.00000000000E+00 -0.45593999997E+02  0.45594000000E+02  0.51100000000E-03 0. -1.
         23    2    1    2    0    0  0.00000000000E+00 -0.35527136788E-14  0.00000000000E+00  0.91188000000E+02  0.91188000000E+02 0.  0.
    9900012    2    3    3    0    0  0.12302918344E+02  0.16502603455E+02  0.30530015103E+02  0.54367088241E+02  0.40000009263E+02 0.  0.
         12    1    3    3    0    0 -0.12302918344E+02 -0.16502603455E+02 -0.30530015103E+02  0.36820911759E+02  0.00000000000E+00 0. -1.
         11    1    4    4    0    0  0.20295258870E+01 -0.11726549157E+02  0.17365546467E+02  0.21052152736E+02  0.51100000000E-03 0. -1.
        -11    1    4    4    0    0  0.10702308386E+02  0.24149499630E+02  0.10509776960E+02  0.28428738086E+02  0.51100000000E-03 0.  1.
         12    1    4    4    0    0 -0.42891592847E+00  0.40796529817E+01  0.26546916762E+01  0.48861974193E+01  0.00000000000E+00 0. -1.
</event>
<event>
 8    1  0.2502398E-006  0.9118800E+02  0.7816164E-02  0.1184000E+00
        -11   -1    0    0    0    0  0.00000000000E+00  0.00000000000E+00  0.45593999997E+02  0.45594000000E+02  0.51100000000E-03 0.  1.
         11   -1    0    0    0    0 -0.00000000000E+00 -0.00000000000E+00 -0.45593999997E+02  0.45594000000E+02  0.51100000000E-03 0. -1.
         23    2    1    2    0    0  0.35527136788E-14  0.00000000000E+00  0.17763568394E-14  0.91188000000E+02  0.91188000000E+02 0.  0.
    9900012    2    3    3    0    0  0.26990915730E+02 -0.19536714647E+02 -0.15671172943E+02  0.54367103588E+02  0.40000044250E+02 0.  0.
        -12    1    3    3    0    0 -0.26990915730E+02  0.19536714647E+02  0.15671172943E+02  0.36820896412E+02  0.00000000000E+00 0.  1.
         11    1    4    4    0    0  0.49052162024E+01 -0.18969099980E+02  0.52216726505E+01  0.20276926926E+02  0.51100000000E-03 0. -1.
        -11    1    4    4    0    0  0.23136551081E+02  0.20119220935E+01 -0.15209738891E+02  0.27761195648E+02  0.51100000000E-03 0.  1.
         12    1    4    4    0    0 -0.10508515529E+01 -0.25795367612E+01 -0.56831067019E+01  0.63289810138E+01  0.00000000000E+00 0. -1.
</event>
<event>
 8    1  0.2502398E-006  0.9118800E+02  0.7816164E-02  0.1184000E+00
        -11   -1    0    0    0    0  0.00000000000E+00  0.00000000000E+00  0.45593999997E+02  0.45594000000E+02  0.51100000000E-03 0.  1.
         11   -1    0    0    0    0 -0.00000000000E+00 -0.00000000000E+00 -0.45593999997E+02  0.45594000000E+02  0.51100000000E-03 0. -1.
         23    2    1    2    0    0  0.35527136788E-14  0.00000000000E+00  0.00000000000E+00  0.91188000000E+02  0.91188000000E+02 0.  0.
    9900012    2    3    3    0    0 -0.19069180267E+02 -0.30870138745E+02 -0.62596411730E+01  0.54367052025E+02  0.39999926701E+02 0.  0.
        -12    1    3    3    0    0  0.19069180267E+02  0.30870138745E+02  0.62596411730E+01  0.36820947975E+02  0.00000000000E+00 0.  1.
         11    1    4    4    0    0 -0.12940391683E+02 -0.33230830557E+01  0.41274217344E+01  0.13983283890E+02  0.51100000000E-03 0. -1.
        -11    1    4    4    0    0 -0.16238578863E+02 -0.16350711229E+02 -0.20179045907E+01  0.23132426167E+02  0.51100000000E-03 0.  1.
        -12    1    4    4    0    0  0.10109790279E+02 -0.11196344460E+02 -0.83691583168E+01  0.17251341968E+02  0.00000000000E+00 0.  1.
</event>
<event>
 8    1  0.2502398E-006  0.9118800E+02  0.7816164E-02  0.1184000E+00
        -11   -1    0    0    0    0  0.00000000000E+00  0.00000000000E+00  0.45593999997E+02  0.45594000000E+02  0.51100000000E-03 0. -1.
         11   -1    0    0    0    0 -0.00000000000E+00 -0.00000000000E+00 -0.45593999997E+02  0.45594000000E+02  0.51100000000E-03 0.  1.
         23    2    1    2    0    0 -0.35527136788E-14  0.17763568394E-14  0.35527136788E-14  0.91188000000E+02  0.91188000000E+02 0.  0.
    9900012    2    3    3    0    0 -0.27116700938E+02  0.12466880661E+02  0.21564834395E+02  0.54367072993E+02  0.39999974501E+02 0.  0.
        -12    1    3    3    0    0  0.27116700938E+02 -0.12466880661E+02 -0.21564834395E+02  0.36820927007E+02  0.00000000000E+00 0.  1.
         11    1    4    4    0    0 -0.71098215629E+01  0.89302117687E+01  0.16355535311E+01  0.11531404099E+02  0.51100000000E-03 0.  1.
        -11    1    4    4    0    0 -0.23647418239E+02 -0.14194976968E+01  0.18764580394E+01  0.23764184356E+02  0.51100000000E-03 0. -1.
        -12    1    4    4    0    0  0.36405388642E+01  0.49561665896E+01  0.18052822825E+02  0.19071484537E+02  0.00000000000E+00 0.  1.
</event>
<event>
 8    1  0.2502398E-006  0.9118800E+02  0.7816164E-02  0.1184000E+00
        -11   -1    0    0    0    0  0.00000000000E+00  0.00000000000E+00  0.45593999997E+02  0.45594000000E+02  0.51100000000E-03 0.  1.
         11   -1    0    0    0    0 -0.00000000000E+00 -0.00000000000E+00 -0.45593999997E+02  0.45594000000E+02  0.51100000000E-03 0. -1.
         23    2    1    2    0    0  0.00000000000E+00  0.00000000000E+00 -0.88817841970E-15  0.91188000000E+02  0.91188000000E+02 0.  0.
    9900012    2    3    3    0    0  0.14681062435E+02 -0.32814673368E+02  0.79651127599E+01  0.54367090129E+02  0.40000013567E+02 0.  0.
         12    1    3    3    0    0 -0.14681062435E+02  0.32814673368E+02 -0.79651127599E+01  0.36820909871E+02  0.00000000000E+00 0. -1.
         11    1    4    4    0    0 -0.32471836420E+01 -0.98326781555E+01 -0.46220972268E+01  0.11339732993E+02  0.51100000000E-03 0.  1.
        -11    1    4    4    0    0  0.91304728720E+01 -0.20676591496E+01 -0.80572873552E+01  0.12351543588E+02  0.51100000000E-03 0. -1.
         12    1    4    4    0    0  0.87977732054E+01 -0.20914336063E+02  0.20644497342E+02  0.30675813548E+02  0.00000000000E+00 0. -1.
</event>
<event>
 8    1  0.2502398E-006  0.9118800E+02  0.7816164E-02  0.1184000E+00
        -11   -1    0    0    0    0  0.00000000000E+00  0.00000000000E+00  0.45593999997E+02  0.45594000000E+02  0.51100000000E-03 0. -1.
         11   -1    0    0    0    0 -0.00000000000E+00 -0.00000000000E+00 -0.45593999997E+02  0.45594000000E+02  0.51100000000E-03 0.  1.
         23    2    1    2    0    0 -0.35527136788E-14  0.00000000000E+00 -0.35527136788E-14  0.91188000000E+02  0.91188000000E+02 0.  0.
    9900012    2    3    3    0    0 -0.24096643233E+02 -0.17003469576E+02 -0.22045806596E+02  0.54367030686E+02  0.39999878056E+02 0.  0.
         12    1    3    3    0    0  0.24096643233E+02  0.17003469576E+02  0.22045806596E+02  0.36820969314E+02  0.00000000000E+00 0. -1.
         11    1    4    4    0    0  0.10095559685E+02 -0.24856452947E+01  0.57846573402E+00  0.10413135011E+02  0.51100000000E-03 0. -1.
        -11    1    4    4    0    0 -0.23156427708E+02 -0.12657433720E+02 -0.14379210172E+02  0.30053160533E+02  0.51100000000E-03 0.  1.
         12    1    4    4    0    0 -0.11035775211E+02 -0.18603905613E+01 -0.82450621577E+01  0.13900735143E+02  0.00000000000E+00 0. -1.
</event>
<event>
 8    1  0.2502398E-006  0.9118800E+02  0.7816164E-02  0.1184000E+00
        -11   -1    0    0    0    0  0.00000000000E+00  0.00000000000E+00  0.45593999997E+02  0.45594000000E+02  0.51100000000E-03 0. -1.
         11   -1    0    0    0    0 -0.00000000000E+00 -0.00000000000E+00 -0.45593999997E+02  0.45594000000E+02  0.51100000000E-03 0.  1.
         23    2    1    2    0    0  0.35527136788E-14  0.00000000000E+00 -0.35527136788E-14  0.91188000000E+02  0.91188000000E+02 0.  0.
    9900012    2    3    3    0    0 -0.19308908329E+02 -0.54354431161E+01  0.30877204390E+02  0.54367085649E+02  0.40000003354E+02 0.  0.
        -12    1    3    3    0    0  0.19308908329E+02  0.54354431161E+01 -0.30877204390E+02  0.36820914351E+02  0.00000000000E+00 0.  1.
         11    1    4    4    0    0 -0.83530217442E+00 -0.83724382588E+01  0.12881922452E+02  0.15386337396E+02  0.51100000000E-03 0. -1.
        -11    1    4    4    0    0 -0.23135152610E+02 -0.63899822386E+01  0.10846446387E+02  0.26338423620E+02  0.51100000000E-03 0.  1.
        -12    1    4    4    0    0  0.46615464552E+01  0.93269773812E+01  0.71488355502E+01  0.12642324634E+02  0.00000000000E+00 0.  1.
</event>
<event>
 8    1  0.2502398E-006  0.9118800E+02  0.7816164E-02  0.1184000E+00
        -11   -1    0    0    0    0  0.00000000000E+00  0.00000000000E+00  0.45593999997E+02  0.45594000000E+02  0.51100000000E-03 0.  1.
         11   -1    0    0    0    0 -0.00000000000E+00 -0.00000000000E+00 -0.45593999997E+02  0.45594000000E+02  0.51100000000E-03 0. -1.
         23    2    1    2    0    0  0.00000000000E+00  0.00000000000E+00  0.17763568394E-14  0.91188000000E+02  0.91188000000E+02 0.  0.
    9900012    2    3    3    0    0  0.46768265506E+01  0.34965073288E+02 -0.10552270789E+02  0.54367089155E+02  0.40000011347E+02 0.  0.
        -12    1    3    3    0    0 -0.46768265506E+01 -0.34965073288E+02  0.10552270789E+02  0.36820910845E+02  0.00000000000E+00 0.  1.
         11    1    4    4    0    0 -0.39421156013E+01  0.12465250582E+02  0.32125306815E+01  0.13462655798E+02  0.51100000000E-03 0. -1.
        -11    1    4    4    0    0 -0.89810124932E+01  0.17999508331E+02 -0.94908050050E+01  0.22242218088E+02  0.51100000000E-03 0.  1.
         12    1    4    4    0    0  0.17599954645E+02  0.45003143747E+01 -0.42739964659E+01  0.18662215270E+02  0.00000000000E+00 0. -1.
</event>
<event>
 8    1  0.2502398E-006  0.9118800E+02  0.7816164E-02  0.1184000E+00
        -11   -1    0    0    0    0  0.00000000000E+00  0.00000000000E+00  0.45593999997E+02  0.45594000000E+02  0.51100000000E-03 0. -1.
         11   -1    0    0    0    0 -0.00000000000E+00 -0.00000000000E+00 -0.45593999997E+02  0.45594000000E+02  0.51100000000E-03 0.  1.
         23    2    1    2    0    0  0.00000000000E+00  0.00000000000E+00  0.00000000000E+00  0.91188000000E+02  0.91188000000E+02 0.  0.
    9900012    2    3    3    0    0 -0.10989205869E+02 -0.33774230160E+02  0.97116701080E+01  0.54367111841E+02  0.40000063065E+02 0.  0.
        -12    1    3    3    0    0  0.10989205869E+02  0.33774230160E+02 -0.97116701080E+01  0.36820888159E+02  0.00000000000E+00 0.  1.
         11    1    4    4    0    0 -0.84673417065E+01 -0.15076105139E+02  0.13418904252E+02  0.21887252302E+02  0.51100000000E-03 0. -1.
        -11    1    4    4    0    0  0.19332296358E+01 -0.16246543236E+02  0.90847804539E+01  0.18714186600E+02  0.51100000000E-03 0.  1.
         12    1    4    4    0    0 -0.44550937984E+01 -0.24515817844E+01 -0.12792014598E+02  0.13765672939E+02  0.00000000000E+00 0. -1.
</event>
<event>
 8    1  0.2502398E-006  0.9118800E+02  0.7816164E-02  0.1184000E+00
        -11   -1    0    0    0    0  0.00000000000E+00  0.00000000000E+00  0.45593999997E+02  0.45594000000E+02  0.51100000000E-03 0.  1.
         11   -1    0    0    0    0 -0.00000000000E+00 -0.00000000000E+00 -0.45593999997E+02  0.45594000000E+02  0.51100000000E-03 0. -1.
         23    2    1    2    0    0  0.00000000000E+00  0.35527136788E-14  0.00000000000E+00  0.91188000000E+02  0.91188000000E+02 0.  0.
    9900012    2    3    3    0    0  0.26663530849E+02 -0.24858549493E+02  0.51854295919E+01  0.54367081485E+02  0.39999993861E+02 0.  0.
         12    1    3    3    0    0 -0.26663530849E+02  0.24858549493E+02 -0.51854295919E+01  0.36820918515E+02  0.00000000000E+00 0. -1.
         11    1    4    4    0    0 -0.81768949323E+01 -0.57075863135E+01 -0.39037383194E+00  0.99795062127E+01  0.51100000000E-03 0. -1.
        -11    1    4    4    0    0  0.50322001381E+01  0.37013691083E+01 -0.77371854643E+00  0.62945859400E+01  0.51100000000E-03 0.  1.
        -12    1    4    4    0    0  0.29808225643E+02 -0.22852332288E+02  0.63495219702E+01  0.38092989332E+02  0.00000000000E+00 0.  1.
</event>
<event>
 8    1  0.2502398E-006  0.9118800E+02  0.7816164E-02  0.1184000E+00
        -11   -1    0    0    0    0  0.00000000000E+00  0.00000000000E+00  0.45593999997E+02  0.45594000000E+02  0.51100000000E-03 0. -1.
         11   -1    0    0    0    0 -0.00000000000E+00 -0.00000000000E+00 -0.45593999997E+02  0.45594000000E+02  0.51100000000E-03 0.  1.
         23    2    1    2    0    0  0.00000000000E+00  0.00000000000E+00  0.00000000000E+00  0.91188000000E+02  0.91188000000E+02 0.  0.
    9900012    2    3    3    0    0 -0.21539644077E+01 -0.21400254774E+02 -0.29886020372E+02  0.54367018471E+02  0.39999850208E+02 0.  0.
         12    1    3    3    0    0  0.21539644077E+01  0.21400254774E+02  0.29886020372E+02  0.36820981529E+02  0.00000000000E+00 0. -1.
         11    1    4    4    0    0 -0.44548443768E+01  0.41781853952E+01  0.13727647968E+01  0.62599804366E+01  0.51100000000E-03 0. -1.
        -11    1    4    4    0    0 -0.83542943459E+00 -0.12041153204E+01 -0.21682341059E+02  0.21731814238E+02  0.51100000000E-03 0.  1.
        -12    1    4    4    0    0  0.31363094037E+01 -0.24374324849E+02 -0.95764441106E+01  0.26375223796E+02  0.00000000000E+00 0.  1.
</event>
<event>
 8    1  0.2502398E-006  0.9118800E+02  0.7816164E-02  0.1184000E+00
        -11   -1    0    0    0    0  0.00000000000E+00  0.00000000000E+00  0.45593999997E+02  0.45594000000E+02  0.51100000000E-03 0. -1.
         11   -1    0    0    0    0 -0.00000000000E+00 -0.00000000000E+00 -0.45593999997E+02  0.45594000000E+02  0.51100000000E-03 0.  1.
         23    2    1    2    0    0  0.00000000000E+00  0.88817841970E-15  0.00000000000E+00  0.91188000000E+02  0.91188000000E+02 0.  0.
    9900012    2    3    3    0    0 -0.35255347590E+02  0.64900473320E+01 -0.84094519011E+01  0.54367093855E+02  0.40000022061E+02 0.  0.
         12    1    3    3    0    0  0.35255347590E+02 -0.64900473320E+01  0.84094519011E+01  0.36820906145E+02  0.00000000000E+00 0. -1.
         11    1    4    4    0    0 -0.73843178939E+01 -0.11389452934E+02  0.47623836170E+01  0.14384995199E+02  0.51100000000E-03 0. -1.
        -11    1    4    4    0    0 -0.70880708819E+00  0.10582092109E+01 -0.74087352397E+01  0.75174179301E+01  0.51100000000E-03 0.  1.
         12    1    4    4    0    0 -0.27162222608E+02  0.16821291056E+02 -0.57631002784E+01  0.32464680725E+02  0.00000000000E+00 0. -1.
</event>
<event>
 8    1  0.2502398E-006  0.9118800E+02  0.7816164E-02  0.1184000E+00
        -11   -1    0    0    0    0  0.00000000000E+00  0.00000000000E+00  0.45593999997E+02  0.45594000000E+02  0.51100000000E-03 0.  1.
         11   -1    0    0    0    0 -0.00000000000E+00 -0.00000000000E+00 -0.45593999997E+02  0.45594000000E+02  0.51100000000E-03 0. -1.
         23    2    1    2    0    0  0.00000000000E+00 -0.17763568394E-14  0.71054273576E-14  0.91188000000E+02  0.91188000000E+02 0.  0.
    9900012    2    3    3    0    0 -0.28255509867E+02  0.11417753212E+02 -0.20664958513E+02  0.54367089683E+02  0.40000012550E+02 0.  0.
        -12    1    3    3    0    0  0.28255509867E+02 -0.11417753212E+02  0.20664958513E+02  0.36820910317E+02  0.00000000000E+00 0.  1.
         11    1    4    4    0    0 -0.73160078572E+01 -0.12292320033E+02 -0.45292986465E+01  0.15004654253E+02  0.51100000000E-03 0. -1.
        -11    1    4    4    0    0  0.24516244652E+00  0.33886586395E+01  0.28227890836E+01  0.44171541145E+01  0.51100000000E-03 0.  1.
         12    1    4    4    0    0 -0.21184664456E+02  0.20321414605E+02 -0.18958448950E+02  0.34945281316E+02  0.00000000000E+00 0. -1.
</event>
<event>
 8    1  0.2502398E-006  0.9118800E+02  0.7816164E-02  0.1184000E+00
        -11   -1    0    0    0    0  0.00000000000E+00  0.00000000000E+00  0.45593999997E+02  0.45594000000E+02  0.51100000000E-03 0.  1.
         11   -1    0    0    0    0 -0.00000000000E+00 -0.00000000000E+00 -0.45593999997E+02  0.45594000000E+02  0.51100000000E-03 0. -1.
         23    2    1    2    0    0  0.00000000000E+00  0.00000000000E+00  0.00000000000E+00  0.91188000000E+02  0.91188000000E+02 0.  0.
    9900012    2    3    3    0    0 -0.12289700940E+02 -0.31299570282E+02  0.15002657499E+02  0.54367087721E+02  0.40000008077E+02 0.  0.
         12    1    3    3    0    0  0.12289700940E+02  0.31299570282E+02 -0.15002657499E+02  0.36820912279E+02  0.00000000000E+00 0. -1.
         11    1    4    4    0    0 -0.11345280400E+02  0.33011587908E+01 -0.87604575081E-02  0.11815799326E+02  0.51100000000E-03 0. -1.
        -11    1    4    4    0    0  0.85774919950E+01 -0.97503756061E+01  0.28666794469E+01  0.13298911410E+02  0.51100000000E-03 0.  1.
        -12    1    4    4    0    0 -0.95219125355E+01 -0.24850353467E+02  0.12144738510E+02  0.29252376984E+02  0.00000000000E+00 0.  1.
</event>
<event>
 8    1  0.2502398E-006  0.9118800E+02  0.7816164E-02  0.1184000E+00
        -11   -1    0    0    0    0  0.00000000000E+00  0.00000000000E+00  0.45593999997E+02  0.45594000000E+02  0.51100000000E-03 0.  1.
         11   -1    0    0    0    0 -0.00000000000E+00 -0.00000000000E+00 -0.45593999997E+02  0.45594000000E+02  0.51100000000E-03 0. -1.
         23    2    1    2    0    0  0.00000000000E+00 -0.35527136788E-14  0.35527136788E-14  0.91188000000E+02  0.91188000000E+02 0.  0.
    9900012    2    3    3    0    0  0.98837815000E+01 -0.24676443917E+02 -0.25478718040E+02  0.54367067175E+02  0.39999961239E+02 0.  0.
        -12    1    3    3    0    0 -0.98837815000E+01  0.24676443917E+02  0.25478718040E+02  0.36820932825E+02  0.00000000000E+00 0.  1.
         11    1    4    4    0    0 -0.32818791849E+01 -0.93685333518E+01 -0.18462665823E+02  0.20962112911E+02  0.51100000000E-03 0. -1.
        -11    1    4    4    0    0  0.75995987464E+01 -0.66176300681E+01  0.95525684015E+01  0.13885189669E+02  0.51100000000E-03 0.  1.
         12    1    4    4    0    0  0.55660619385E+01 -0.86902804975E+01 -0.16568620619E+02  0.19519764595E+02  0.00000000000E+00 0. -1.
</event>
<event>
 8    1  0.2502398E-006  0.9118800E+02  0.7816164E-02  0.1184000E+00
        -11   -1    0    0    0    0  0.00000000000E+00  0.00000000000E+00  0.45593999997E+02  0.45594000000E+02  0.51100000000E-03 0.  1.
         11   -1    0    0    0    0 -0.00000000000E+00 -0.00000000000E+00 -0.45593999997E+02  0.45594000000E+02  0.51100000000E-03 0. -1.
         23    2    1    2    0    0 -0.17763568394E-14  0.35527136788E-14  0.00000000000E+00  0.91188000000E+02  0.91188000000E+02 0.  0.
    9900012    2    3    3    0    0  0.15249651742E+02  0.25592421851E+02 -0.21639237744E+02  0.54367074637E+02  0.39999978250E+02 0.  0.
        -12    1    3    3    0    0 -0.15249651742E+02 -0.25592421851E+02  0.21639237744E+02  0.36820925363E+02  0.00000000000E+00 0.  1.
         11    1    4    4    0    0  0.17463852488E+02  0.10796243330E+02 -0.76913635677E+01  0.21924919328E+02  0.51100000000E-03 0. -1.
        -11    1    4    4    0    0 -0.31783189728E+00  0.11281249098E+02  0.55238548319E+01  0.12565053553E+02  0.51100000000E-03 0.  1.
         12    1    4    4    0    0 -0.18963688480E+01  0.35149294236E+01 -0.19471729008E+02  0.19877101756E+02  0.00000000000E+00 0. -1.
</event>
<event>
 8    1  0.2502398E-006  0.9118800E+02  0.7816164E-02  0.1184000E+00
        -11   -1    0    0    0    0  0.00000000000E+00  0.00000000000E+00  0.45593999997E+02  0.45594000000E+02  0.51100000000E-03 0.  1.
         11   -1    0    0    0    0 -0.00000000000E+00 -0.00000000000E+00 -0.45593999997E+02  0.45594000000E+02  0.51100000000E-03 0. -1.
         23    2    1    2    0    0  0.00000000000E+00  0.17763568394E-14  0.00000000000E+00  0.91188000000E+02  0.91188000000E+02 0.  0.
    9900012    2    3    3    0    0 -0.89840745257E+01 -0.20171491473E+01 -0.35650858947E+02  0.54367269026E+02  0.40000421396E+02 0.  0.
        -12    1    3    3    0    0  0.89840745257E+01  0.20171491473E+01  0.35650858947E+02  0.36820730974E+02  0.00000000000E+00 0.  1.
         11    1    4    4    0    0  0.33417977696E+01  0.14408160346E+02 -0.70934959924E+01  0.16403669789E+02  0.51100000000E-03 0. -1.
        -11    1    4    4    0    0  0.16448864674E+01 -0.68240452402E+01 -0.38675927382E+01  0.80144568612E+01  0.51100000000E-03 0.  1.
        -12    1    4    4    0    0 -0.13970758763E+02 -0.96012642535E+01 -0.24689770217E+02  0.29949142376E+02  0.00000000000E+00 0.  1.
</event>
<event>
 8    1  0.2502398E-006  0.9118800E+02  0.7816164E-02  0.1184000E+00
        -11   -1    0    0    0    0  0.00000000000E+00  0.00000000000E+00  0.45593999997E+02  0.45594000000E+02  0.51100000000E-03 0.  1.
         11   -1    0    0    0    0 -0.00000000000E+00 -0.00000000000E+00 -0.45593999997E+02  0.45594000000E+02  0.51100000000E-03 0. -1.
         23    2    1    2    0    0  0.35527136788E-14  0.00000000000E+00  0.17763568394E-14  0.91188000000E+02  0.91188000000E+02 0.  0.
    9900012    2    3    3    0    0  0.27001990858E+02 -0.24483444539E+02  0.52185552619E+01  0.54367083583E+02  0.39999998643E+02 0.  0.
         12    1    3    3    0    0 -0.27001990858E+02  0.24483444539E+02 -0.52185552619E+01  0.36820916417E+02  0.00000000000E+00 0. -1.
         11    1    4    4    0    0 -0.34149552492E+01 -0.76536132239E+00  0.24199396400E+01  0.42548566874E+01  0.51100000000E-03 0. -1.
        -11    1    4    4    0    0  0.62301380701E+01 -0.19459202024E+02  0.12220637578E+02  0.23807963937E+02  0.51100000000E-03 0.  1.
        -12    1    4    4    0    0  0.24186808037E+02 -0.42588811934E+01 -0.94220219560E+01  0.26304262958E+02  0.00000000000E+00 0.  1.
</event>
<event>
 8    1  0.2502398E-006  0.9118800E+02  0.7816164E-02  0.1184000E+00
        -11   -1    0    0    0    0  0.00000000000E+00  0.00000000000E+00  0.45593999997E+02  0.45594000000E+02  0.51100000000E-03 0. -1.
         11   -1    0    0    0    0 -0.00000000000E+00 -0.00000000000E+00 -0.45593999997E+02  0.45594000000E+02  0.51100000000E-03 0.  1.
         23    2    1    2    0    0 -0.17763568394E-14  0.00000000000E+00  0.00000000000E+00  0.91188000000E+02  0.91188000000E+02 0.  0.
    9900012    2    3    3    0    0 -0.15346630614E+02  0.28339932279E+02  0.17807561463E+02  0.54367080972E+02  0.39999992692E+02 0.  0.
        -12    1    3    3    0    0  0.15346630614E+02 -0.28339932279E+02 -0.17807561463E+02  0.36820919028E+02  0.00000000000E+00 0.  1.
         11    1    4    4    0    0  0.79727986521E+01 -0.38951913016E+01  0.61866364482E+01  0.10817231828E+02  0.51100000000E-03 0. -1.
        -11    1    4    4    0    0 -0.16683362337E+02  0.24518605650E+02  0.22938139190E+01  0.29744885013E+02  0.51100000000E-03 0.  1.
         12    1    4    4    0    0 -0.66360669286E+01  0.77165179311E+01  0.93271110954E+01  0.13804964131E+02  0.00000000000E+00 0. -1.
</event>
<event>
 8    1  0.2502398E-006  0.9118800E+02  0.7816164E-02  0.1184000E+00
        -11   -1    0    0    0    0  0.00000000000E+00  0.00000000000E+00  0.45593999997E+02  0.45594000000E+02  0.51100000000E-03 0.  1.
         11   -1    0    0    0    0 -0.00000000000E+00 -0.00000000000E+00 -0.45593999997E+02  0.45594000000E+02  0.51100000000E-03 0. -1.
         23    2    1    2    0    0  0.00000000000E+00 -0.17763568394E-14  0.00000000000E+00  0.91188000000E+02  0.91188000000E+02 0.  0.
    9900012    2    3    3    0    0 -0.19510052572E+02  0.87097884847E+01  0.29987988558E+02  0.54367054540E+02  0.39999932435E+02 0.  0.
         12    1    3    3    0    0  0.19510052572E+02 -0.87097884847E+01 -0.29987988558E+02  0.36820945460E+02  0.00000000000E+00 0. -1.
         11    1    4    4    0    0 -0.10150072748E+02  0.16903542841E+02  0.36412093713E+01  0.20050240480E+02  0.51100000000E-03 0. -1.
        -11    1    4    4    0    0 -0.11723947682E+02 -0.11190674676E+02  0.25789227247E+02  0.30459257890E+02  0.51100000000E-03 0.  1.
        -12    1    4    4    0    0  0.23639678588E+01  0.29969203199E+01  0.55755194009E+00  0.38575561703E+01  0.00000000000E+00 0.  1.
</event>
<event>
 8    1  0.2502398E-006  0.9118800E+02  0.7816164E-02  0.1184000E+00
        -11   -1    0    0    0    0  0.00000000000E+00  0.00000000000E+00  0.45593999997E+02  0.45594000000E+02  0.51100000000E-03 0.  1.
         11   -1    0    0    0    0 -0.00000000000E+00 -0.00000000000E+00 -0.45593999997E+02  0.45594000000E+02  0.51100000000E-03 0. -1.
         23    2    1    2    0    0  0.00000000000E+00  0.00000000000E+00  0.00000000000E+00  0.91188000000E+02  0.91188000000E+02 0.  0.
    9900012    2    3    3    0    0  0.35719868931E+02 -0.86148774447E+01 -0.23780851898E+01  0.54367076071E+02  0.39999981518E+02 0.  0.
        -12    1    3    3    0    0 -0.35719868931E+02  0.86148774447E+01  0.23780851898E+01  0.36820923929E+02  0.00000000000E+00 0.  1.
         11    1    4    4    0    0  0.79728709663E+01  0.47409437318E+01 -0.39479193507E+01  0.10081135173E+02  0.51100000000E-03 0. -1.
        -11    1    4    4    0    0  0.17912992425E+02  0.68659863774E+01  0.81700986979E+01  0.20851081017E+02  0.51100000000E-03 0.  1.
         12    1    4    4    0    0  0.98340055394E+01 -0.20221807554E+02 -0.66002645370E+01  0.23434859881E+02  0.00000000000E+00 0. -1.
</event>
<event>
 8    1  0.2502398E-006  0.9118800E+02  0.7816164E-02  0.1184000E+00
        -11   -1    0    0    0    0  0.00000000000E+00  0.00000000000E+00  0.45593999997E+02  0.45594000000E+02  0.51100000000E-03 0.  1.
         11   -1    0    0    0    0 -0.00000000000E+00 -0.00000000000E+00 -0.45593999997E+02  0.45594000000E+02  0.51100000000E-03 0. -1.
         23    2    1    2    0    0  0.00000000000E+00  0.44408920985E-15  0.35527136788E-14  0.91188000000E+02  0.91188000000E+02 0.  0.
    9900012    2    3    3    0    0  0.28268245166E+02 -0.89244517874E+00 -0.23577306611E+02  0.54367088412E+02  0.40000009652E+02 0.  0.
        -12    1    3    3    0    0 -0.28268245166E+02  0.89244517874E+00  0.23577306611E+02  0.36820911588E+02  0.00000000000E+00 0.  1.
         11    1    4    4    0    0  0.30090042283E+02  0.56338453151E+01 -0.13125655718E+02  0.33308162602E+02  0.51100000000E-03 0. -1.
        -11    1    4    4    0    0 -0.13977246368E+01 -0.86019019178E+01  0.15674406156E+01  0.88545593402E+01  0.51100000000E-03 0.  1.
        -12    1    4    4    0    0 -0.42407247979E+00  0.20756114240E+01 -0.12019091508E+02  0.12204366470E+02  0.00000000000E+00 0.  1.
</event>
<event>
 8    1  0.2502398E-006  0.9118800E+02  0.7816164E-02  0.1184000E+00
        -11   -1    0    0    0    0  0.00000000000E+00  0.00000000000E+00  0.45593999997E+02  0.45594000000E+02  0.51100000000E-03 0. -1.
         11   -1    0    0    0    0 -0.00000000000E+00 -0.00000000000E+00 -0.45593999997E+02  0.45594000000E+02  0.51100000000E-03 0.  1.
         23    2    1    2    0    0  0.17763568394E-14  0.35527136788E-14  0.00000000000E+00  0.91188000000E+02  0.91188000000E+02 0.  0.
    9900012    2    3    3    0    0  0.10577891791E+02 -0.28937557456E+02  0.20161983526E+02  0.54367087383E+02  0.40000007306E+02 0.  0.
        -12    1    3    3    0    0 -0.10577891791E+02  0.28937557456E+02 -0.20161983526E+02  0.36820912617E+02  0.00000000000E+00 0.  1.
         11    1    4    4    0    0  0.53761839160E+01 -0.31756901962E+02  0.16461408137E+02  0.36171565266E+02  0.51100000000E-03 0.  1.
        -11    1    4    4    0    0  0.10693915195E+02  0.15107575089E+01  0.56925287300E+01  0.12208484511E+02  0.51100000000E-03 0. -1.
        -12    1    4    4    0    0 -0.54922073199E+01  0.13085869971E+01 -0.19919533404E+01  0.59870376050E+01  0.00000000000E+00 0.  1.
</event>
<event>
 8    1  0.2502398E-006  0.9118800E+02  0.7816164E-02  0.1184000E+00
        -11   -1    0    0    0    0  0.00000000000E+00  0.00000000000E+00  0.45593999997E+02  0.45594000000E+02  0.51100000000E-03 0.  1.
         11   -1    0    0    0    0 -0.00000000000E+00 -0.00000000000E+00 -0.45593999997E+02  0.45594000000E+02  0.51100000000E-03 0. -1.
         23    2    1    2    0    0  0.00000000000E+00 -0.35527136788E-14 -0.17763568394E-14  0.91188000000E+02  0.91188000000E+02 0.  0.
    9900012    2    3    3    0    0  0.28358921396E+02  0.19694569406E+02 -0.12793587651E+02  0.54367076983E+02  0.39999983599E+02 0.  0.
        -12    1    3    3    0    0 -0.28358921396E+02 -0.19694569406E+02  0.12793587651E+02  0.36820923017E+02  0.00000000000E+00 0.  1.
         11    1    4    4    0    0  0.50501511296E+01 -0.11278608417E+02 -0.42083764238E+01  0.13054557313E+02  0.51100000000E-03 0. -1.
        -11    1    4    4    0    0  0.40174430763E+01  0.13103769145E+02 -0.57542840010E+01  0.14864736772E+02  0.51100000000E-03 0.  1.
        -12    1    4    4    0    0  0.19291327190E+02  0.17869408679E+02 -0.28309272261E+01  0.26447782898E+02  0.00000000000E+00 0.  1.
</event>
<event>
 8    1  0.2502398E-006  0.9118800E+02  0.7816164E-02  0.1184000E+00
        -11   -1    0    0    0    0  0.00000000000E+00  0.00000000000E+00  0.45593999997E+02  0.45594000000E+02  0.51100000000E-03 0.  1.
         11   -1    0    0    0    0 -0.00000000000E+00 -0.00000000000E+00 -0.45593999997E+02  0.45594000000E+02  0.51100000000E-03 0. -1.
         23    2    1    2    0    0  0.00000000000E+00 -0.17763568394E-14 -0.17763568394E-14  0.91188000000E+02  0.91188000000E+02 0.  0.
    9900012    2    3    3    0    0 -0.32884197464E+02  0.15549057244E+02 -0.57127247173E+01  0.54367097679E+02  0.40000030778E+02 0.  0.
        -12    1    3    3    0    0  0.32884197464E+02 -0.15549057244E+02  0.57127247173E+01  0.36820902321E+02  0.00000000000E+00 0.  1.
         11    1    4    4    0    0 -0.10891475282E+02  0.73557447697E+01 -0.26675400003E+01  0.13410704115E+02  0.51100000000E-03 0.  1.
        -11    1    4    4    0    0 -0.10698337982E+02 -0.59090524469E+01 -0.14957054401E+02  0.19315403517E+02  0.51100000000E-03 0. -1.
        -12    1    4    4    0    0 -0.11294384201E+02  0.14102364922E+02  0.11911869684E+02  0.21640990047E+02  0.00000000000E+00 0.  1.
</event>
<event>
 8    1  0.2502398E-006  0.9118800E+02  0.7816164E-02  0.1184000E+00
        -11   -1    0    0    0    0  0.00000000000E+00  0.00000000000E+00  0.45593999997E+02  0.45594000000E+02  0.51100000000E-03 0.  1.
         11   -1    0    0    0    0 -0.00000000000E+00 -0.00000000000E+00 -0.45593999997E+02  0.45594000000E+02  0.51100000000E-03 0. -1.
         23    2    1    2    0    0  0.35527136788E-14 -0.88817841970E-15  0.00000000000E+00  0.91188000000E+02  0.91188000000E+02 0.  0.
    9900012    2    3    3    0    0 -0.31639975739E+02 -0.51431274729E+01  0.18117411789E+02  0.54367076127E+02  0.39999981646E+02 0.  0.
         12    1    3    3    0    0  0.31639975739E+02  0.51431274729E+01 -0.18117411789E+02  0.36820923873E+02  0.00000000000E+00 0. -1.
         11    1    4    4    0    0  0.75203688159E+01 -0.25159083975E+01  0.63410665049E-01  0.79303066375E+01  0.51100000000E-03 0. -1.
        -11    1    4    4    0    0 -0.12108019493E+02 -0.35231920855E+01 -0.19763642917E+01  0.12764130781E+02  0.51100000000E-03 0.  1.
        -12    1    4    4    0    0 -0.27052325062E+02  0.89597301007E+00  0.20030365416E+02  0.33672638708E+02  0.00000000000E+00 0.  1.
</event>
<event>
 8    1  0.2502398E-006  0.9118800E+02  0.7816164E-02  0.1184000E+00
        -11   -1    0    0    0    0  0.00000000000E+00  0.00000000000E+00  0.45593999997E+02  0.45594000000E+02  0.51100000000E-03 0.  1.
         11   -1    0    0    0    0 -0.00000000000E+00 -0.00000000000E+00 -0.45593999997E+02  0.45594000000E+02  0.51100000000E-03 0. -1.
         23    2    1    2    0    0  0.00000000000E+00  0.88817841970E-15  0.00000000000E+00  0.91188000000E+02  0.91188000000E+02 0.  0.
    9900012    2    3    3    0    0  0.28644882368E+01 -0.43896319773E+01 -0.36445948217E+02  0.54367064336E+02  0.39999954767E+02 0.  0.
        -12    1    3    3    0    0 -0.28644882368E+01  0.43896319773E+01  0.36445948217E+02  0.36820935664E+02  0.00000000000E+00 0.  1.
         11    1    4    4    0    0  0.73085003694E+00 -0.21186733925E+02 -0.22202411344E+02  0.30697864843E+02  0.51100000000E-03 0. -1.
        -11    1    4    4    0    0  0.27824412337E+01  0.37132818232E+01 -0.47479772036E+00  0.46643192701E+01  0.51100000000E-03 0.  1.
         12    1    4    4    0    0 -0.64880303383E+00  0.13083820125E+02 -0.13768739152E+02  0.19004880223E+02  0.00000000000E+00 0. -1.
</event>
<event>
 8    1  0.2502398E-006  0.9118800E+02  0.7816164E-02  0.1184000E+00
        -11   -1    0    0    0    0  0.00000000000E+00  0.00000000000E+00  0.45593999997E+02  0.45594000000E+02  0.51100000000E-03 0.  1.
         11   -1    0    0    0    0 -0.00000000000E+00 -0.00000000000E+00 -0.45593999997E+02  0.45594000000E+02  0.51100000000E-03 0. -1.
         23    2    1    2    0    0  0.88817841970E-15  0.00000000000E+00 -0.71054273576E-14  0.91188000000E+02  0.91188000000E+02 0.  0.
    9900012    2    3    3    0    0 -0.51296666142E+01  0.10236262007E+02  0.34995505144E+02  0.54367083122E+02  0.39999997593E+02 0.  0.
         12    1    3    3    0    0  0.51296666142E+01 -0.10236262007E+02 -0.34995505144E+02  0.36820916878E+02  0.00000000000E+00 0. -1.
         11    1    4    4    0    0  0.91720049921E+01 -0.91174726561E+01  0.21048482154E+01  0.13102838222E+02  0.51100000000E-03 0. -1.
        -11    1    4    4    0    0 -0.72853894189E+01  0.14283979974E+02  0.18611311570E+02  0.24566031456E+02  0.51100000000E-03 0.  1.
         12    1    4    4    0    0 -0.70162821874E+01  0.50697546894E+01  0.14279345358E+02  0.16698213444E+02  0.00000000000E+00 0. -1.
</event>
<event>
 8    1  0.2502398E-006  0.9118800E+02  0.7816164E-02  0.1184000E+00
        -11   -1    0    0    0    0  0.00000000000E+00  0.00000000000E+00  0.45593999997E+02  0.45594000000E+02  0.51100000000E-03 0.  1.
         11   -1    0    0    0    0 -0.00000000000E+00 -0.00000000000E+00 -0.45593999997E+02  0.45594000000E+02  0.51100000000E-03 0. -1.
         23    2    1    2    0    0  0.17763568394E-14  0.00000000000E+00  0.17763568394E-14  0.91188000000E+02  0.91188000000E+02 0.  0.
    9900012    2    3    3    0    0 -0.14809574906E+02 -0.31604314177E+02  0.11731311153E+02  0.54367084139E+02  0.39999999912E+02 0.  0.
         12    1    3    3    0    0  0.14809574906E+02  0.31604314177E+02 -0.11731311153E+02  0.36820915861E+02  0.00000000000E+00 0. -1.
         11    1    4    4    0    0 -0.84819078227E+01 -0.96332000459E+01 -0.80992435825E+01  0.15176924929E+02  0.51100000000E-03 0. -1.
        -11    1    4    4    0    0  0.25698059241E+01 -0.23846245430E+02  0.10564851036E+02  0.26208078931E+02  0.51100000000E-03 0.  1.
        -12    1    4    4    0    0 -0.88974730078E+01  0.18751312994E+01  0.92657036990E+01  0.12982080278E+02  0.00000000000E+00 0.  1.
</event>
<event>
 8    1  0.2502398E-006  0.9118800E+02  0.7816164E-02  0.1184000E+00
        -11   -1    0    0    0    0  0.00000000000E+00  0.00000000000E+00  0.45593999997E+02  0.45594000000E+02  0.51100000000E-03 0. -1.
         11   -1    0    0    0    0 -0.00000000000E+00 -0.00000000000E+00 -0.45593999997E+02  0.45594000000E+02  0.51100000000E-03 0.  1.
         23    2    1    2    0    0 -0.71054273576E-14  0.00000000000E+00  0.00000000000E+00  0.91188000000E+02  0.91188000000E+02 0.  0.
    9900012    2    3    3    0    0  0.26885844982E+02 -0.13835582732E+02 -0.21012107324E+02  0.54367073014E+02  0.39999974550E+02 0.  0.
         12    1    3    3    0    0 -0.26885844982E+02  0.13835582732E+02  0.21012107324E+02  0.36820926986E+02  0.00000000000E+00 0. -1.
         11    1    4    4    0    0 -0.62560962788E+01  0.29644400896E+01 -0.33413788456E+01  0.76870968867E+01  0.51100000000E-03 0. -1.
        -11    1    4    4    0    0  0.83126164674E+01 -0.66059756824E+01 -0.16739929242E+02  0.19823313006E+02  0.51100000000E-03 0.  1.
         12    1    4    4    0    0  0.24829324794E+02 -0.10194047139E+02 -0.93079923604E+00  0.26856663121E+02  0.00000000000E+00 0. -1.
</event>
<event>
 8    1  0.2502398E-006  0.9118800E+02  0.7816164E-02  0.1184000E+00
        -11   -1    0    0    0    0  0.00000000000E+00  0.00000000000E+00  0.45593999997E+02  0.45594000000E+02  0.51100000000E-03 0.  1.
         11   -1    0    0    0    0 -0.00000000000E+00 -0.00000000000E+00 -0.45593999997E+02  0.45594000000E+02  0.51100000000E-03 0. -1.
         23    2    1    2    0    0  0.17763568394E-14 -0.35527136788E-14  0.00000000000E+00  0.91188000000E+02  0.91188000000E+02 0.  0.
    9900012    2    3    3    0    0 -0.11920415509E+02  0.21201350877E+02 -0.27643918862E+02  0.54367084273E+02  0.40000000217E+02 0.  0.
        -12    1    3    3    0    0  0.11920415509E+02 -0.21201350877E+02  0.27643918862E+02  0.36820915727E+02  0.00000000000E+00 0.  1.
         11    1    4    4    0    0 -0.39065315336E+01 -0.57194709541E+00 -0.27852882301E+02  0.28131319998E+02  0.51100000000E-03 0. -1.
        -11    1    4    4    0    0  0.43859400448E+00  0.49892053191E+01 -0.46405513547E+01  0.68278291978E+01  0.51100000000E-03 0.  1.
        -12    1    4    4    0    0 -0.84524779801E+01  0.16784092654E+02  0.48495147942E+01  0.19407935077E+02  0.00000000000E+00 0.  1.
</event>
<event>
 8    1  0.2502398E-006  0.9118800E+02  0.7816164E-02  0.1184000E+00
        -11   -1    0    0    0    0  0.00000000000E+00  0.00000000000E+00  0.45593999997E+02  0.45594000000E+02  0.51100000000E-03 0.  1.
         11   -1    0    0    0    0 -0.00000000000E+00 -0.00000000000E+00 -0.45593999997E+02  0.45594000000E+02  0.51100000000E-03 0. -1.
         23    2    1    2    0    0  0.00000000000E+00  0.00000000000E+00 -0.35527136788E-14  0.91188000000E+02  0.91188000000E+02 0.  0.
    9900012    2    3    3    0    0  0.17221346919E+02 -0.24288363737E+02  0.21662885481E+02  0.54367081895E+02  0.39999994797E+02 0.  0.
         12    1    3    3    0    0 -0.17221346919E+02  0.24288363737E+02 -0.21662885481E+02  0.36820918105E+02  0.00000000000E+00 0. -1.
         11    1    4    4    0    0 -0.61029189161E+01 -0.29446718902E+01  0.97243467259E+01  0.11852410360E+02  0.51100000000E-03 0. -1.
        -11    1    4    4    0    0  0.12992637160E+02 -0.15796498814E+02 -0.57915213498E+01  0.21257462571E+02  0.51100000000E-03 0.  1.
        -12    1    4    4    0    0  0.10331628675E+02 -0.55471930322E+01  0.17730060105E+02  0.21257208964E+02  0.00000000000E+00 0.  1.
</event>
<event>
 8    1  0.2502398E-006  0.9118800E+02  0.7816164E-02  0.1184000E+00
        -11   -1    0    0    0    0  0.00000000000E+00  0.00000000000E+00  0.45593999997E+02  0.45594000000E+02  0.51100000000E-03 0.  1.
         11   -1    0    0    0    0 -0.00000000000E+00 -0.00000000000E+00 -0.45593999997E+02  0.45594000000E+02  0.51100000000E-03 0. -1.
         23    2    1    2    0    0 -0.20261570199E-14  0.27755575616E-15  0.00000000000E+00  0.91188000000E+02  0.91188000000E+02 0.  0.
    9900012    2    3    3    0    0 -0.19066351952E+00  0.37735586284E+00  0.36818500561E+02  0.54367072070E+02  0.39999972399E+02 0.  0.
         12    1    3    3    0    0  0.19066351952E+00 -0.37735586284E+00 -0.36818500561E+02  0.36820927930E+02  0.00000000000E+00 0. -1.
         11    1    4    4    0    0 -0.14732136993E+02  0.32661187453E+01  0.45000741455E+01  0.15746557072E+02  0.51100000000E-03 0. -1.
        -11    1    4    4    0    0  0.90040776007E+01  0.27277076474E+01  0.60307849710E+01  0.11175158615E+02  0.51100000000E-03 0.  1.
         12    1    4    4    0    0  0.55373958729E+01 -0.56164705298E+01  0.26287641445E+02  0.27445356383E+02  0.00000000000E+00 0. -1.
</event>
<event>
 8    1  0.2502398E-006  0.9118800E+02  0.7816164E-02  0.1184000E+00
        -11   -1    0    0    0    0  0.00000000000E+00  0.00000000000E+00  0.45593999997E+02  0.45594000000E+02  0.51100000000E-03 0.  1.
         11   -1    0    0    0    0 -0.00000000000E+00 -0.00000000000E+00 -0.45593999997E+02  0.45594000000E+02  0.51100000000E-03 0. -1.
         23    2    1    2    0    0  0.00000000000E+00  0.35527136788E-14  0.00000000000E+00  0.91188000000E+02  0.91188000000E+02 0.  0.
    9900012    2    3    3    0    0  0.29408837913E+02  0.20097114970E+02 -0.93277991669E+01  0.54367060104E+02  0.39999945119E+02 0.  0.
        -12    1    3    3    0    0 -0.29408837913E+02 -0.20097114970E+02  0.93277991669E+01  0.36820939896E+02  0.00000000000E+00 0.  1.
         11    1    4    4    0    0  0.11704764709E+02  0.17419640145E+02 -0.58390617651E+00  0.20994911916E+02  0.51100000000E-03 0. -1.
        -11    1    4    4    0    0  0.50060513681E+01  0.84994065680E+01 -0.15090921061E+02  0.18028764823E+02  0.51100000000E-03 0.  1.
        -12    1    4    4    0    0  0.12698021836E+02 -0.58219317427E+01  0.63470280708E+01  0.15343383365E+02  0.00000000000E+00 0.  1.
</event>
<event>
 8    1  0.2502398E-006  0.9118800E+02  0.7816164E-02  0.1184000E+00
        -11   -1    0    0    0    0  0.00000000000E+00  0.00000000000E+00  0.45593999997E+02  0.45594000000E+02  0.51100000000E-03 0. -1.
         11   -1    0    0    0    0 -0.00000000000E+00 -0.00000000000E+00 -0.45593999997E+02  0.45594000000E+02  0.51100000000E-03 0.  1.
         23    2    1    2    0    0 -0.35527136788E-14 -0.88817841970E-15  0.71054273576E-14  0.91188000000E+02  0.91188000000E+02 0.  0.
    9900012    2    3    3    0    0  0.27513831277E+02  0.24112720390E+01 -0.24350655016E+02  0.54367088223E+02  0.40000009222E+02 0.  0.
         12    1    3    3    0    0 -0.27513831277E+02 -0.24112720390E+01  0.24350655016E+02  0.36820911777E+02  0.00000000000E+00 0. -1.
         11    1    4    4    0    0  0.82608416787E+00 -0.30202625293E+01  0.80408524202E+01  0.86290039230E+01  0.51100000000E-03 0. -1.
        -11    1    4    4    0    0  0.18484853459E+01  0.62952570845E+01 -0.11631009613E+02  0.13353933680E+02  0.51100000000E-03 0.  1.
         12    1    4    4    0    0  0.24839261764E+02 -0.86372251623E+00 -0.20760497823E+02  0.32384150620E+02  0.00000000000E+00 0. -1.
</event>
<event>
 8    1  0.2502398E-006  0.9118800E+02  0.7816164E-02  0.1184000E+00
        -11   -1    0    0    0    0  0.00000000000E+00  0.00000000000E+00  0.45593999997E+02  0.45594000000E+02  0.51100000000E-03 0.  1.
         11   -1    0    0    0    0 -0.00000000000E+00 -0.00000000000E+00 -0.45593999997E+02  0.45594000000E+02  0.51100000000E-03 0. -1.
         23    2    1    2    0    0  0.00000000000E+00  0.00000000000E+00  0.00000000000E+00  0.91188000000E+02  0.91188000000E+02 0.  0.
    9900012    2    3    3    0    0 -0.17423769115E+02 -0.29165992352E+02 -0.14196347041E+02  0.54367094126E+02  0.40000022679E+02 0.  0.
        -12    1    3    3    0    0  0.17423769115E+02  0.29165992352E+02  0.14196347041E+02  0.36820905874E+02  0.00000000000E+00 0.  1.
         11    1    4    4    0    0 -0.44519981987E+01 -0.10816555122E+02  0.57863979957E+01  0.13049925467E+02  0.51100000000E-03 0. -1.
        -11    1    4    4    0    0 -0.14897019407E+02 -0.18098500549E+02 -0.23282838079E+01  0.23556269125E+02  0.51100000000E-03 0.  1.
        -12    1    4    4    0    0  0.19252484904E+01 -0.25093668127E+00 -0.17654461229E+02  0.17760899534E+02  0.00000000000E+00 0.  1.
</event>
<event>
 8    1  0.2502398E-006  0.9118800E+02  0.7816164E-02  0.1184000E+00
        -11   -1    0    0    0    0  0.00000000000E+00  0.00000000000E+00  0.45593999997E+02  0.45594000000E+02  0.51100000000E-03 0. -1.
         11   -1    0    0    0    0 -0.00000000000E+00 -0.00000000000E+00 -0.45593999997E+02  0.45594000000E+02  0.51100000000E-03 0.  1.
         23    2    1    2    0    0 -0.17763568394E-14  0.71054273576E-14  0.88817841970E-15  0.91188000000E+02  0.91188000000E+02 0.  0.
    9900012    2    3    3    0    0 -0.10798019118E+02  0.34903711735E+02  0.45731380091E+01  0.54367083377E+02  0.39999998174E+02 0.  0.
        -12    1    3    3    0    0  0.10798019118E+02 -0.34903711735E+02 -0.45731380091E+01  0.36820916623E+02  0.00000000000E+00 0.  1.
         11    1    4    4    0    0 -0.86035140222E+01  0.39048578933E+00  0.10540119630E+01  0.86766280409E+01  0.51100000000E-03 0. -1.
        -11    1    4    4    0    0 -0.32238328678E+01  0.24818270488E+01  0.11890433750E+02  0.12567218423E+02  0.51100000000E-03 0.  1.
         12    1    4    4    0    0  0.10293277718E+01  0.32031398896E+02 -0.83713077040E+01  0.33123236913E+02  0.00000000000E+00 0. -1.
</event>
<event>
 8    1  0.2502398E-006  0.9118800E+02  0.7816164E-02  0.1184000E+00
        -11   -1    0    0    0    0  0.00000000000E+00  0.00000000000E+00  0.45593999997E+02  0.45594000000E+02  0.51100000000E-03 0.  1.
         11   -1    0    0    0    0 -0.00000000000E+00 -0.00000000000E+00 -0.45593999997E+02  0.45594000000E+02  0.51100000000E-03 0. -1.
         23    2    1    2    0    0  0.35527136788E-14  0.00000000000E+00  0.00000000000E+00  0.91188000000E+02  0.91188000000E+02 0.  0.
    9900012    2    3    3    0    0  0.25108961735E+02  0.10494057046E+02 -0.24803142599E+02  0.54367067428E+02  0.39999961815E+02 0.  0.
        -12    1    3    3    0    0 -0.25108961735E+02 -0.10494057046E+02  0.24803142599E+02  0.36820932572E+02  0.00000000000E+00 0.  1.
         11    1    4    4    0    0  0.35215584552E+01  0.30312306747E+01 -0.53098472685E+01  0.70557927714E+01  0.51100000000E-03 0. -1.
        -11    1    4    4    0    0  0.29441307025E+02 -0.31991514721E+01 -0.11065074224E+02  0.31614253073E+02  0.51100000000E-03 0.  1.
        -12    1    4    4    0    0 -0.78539037454E+01  0.10661977843E+02 -0.84282211070E+01  0.15697021584E+02  0.00000000000E+00 0.  1.
</event>
<event>
 8    1  0.2502398E-006  0.9118800E+02  0.7816164E-02  0.1184000E+00
        -11   -1    0    0    0    0  0.00000000000E+00  0.00000000000E+00  0.45593999997E+02  0.45594000000E+02  0.51100000000E-03 0.  1.
         11   -1    0    0    0    0 -0.00000000000E+00 -0.00000000000E+00 -0.45593999997E+02  0.45594000000E+02  0.51100000000E-03 0. -1.
         23    2    1    2    0    0  0.00000000000E+00 -0.35527136788E-14  0.88817841970E-15  0.91188000000E+02  0.91188000000E+02 0.  0.
    9900012    2    3    3    0    0  0.32590227934E+02 -0.16037505982E+02  0.60377760967E+01  0.54367091604E+02  0.40000016929E+02 0.  0.
        -12    1    3    3    0    0 -0.32590227934E+02  0.16037505982E+02 -0.60377760967E+01  0.36820908396E+02  0.00000000000E+00 0.  1.
         11    1    4    4    0    0  0.34505688462E+02 -0.16703945820E+02  0.16279351594E+02  0.41649509370E+02  0.51100000000E-03 0. -1.
        -11    1    4    4    0    0 -0.38134817864E+00  0.19021498316E+01  0.32667126209E+00  0.19673115640E+01  0.51100000000E-03 0.  1.
         12    1    4    4    0    0 -0.15341123488E+01 -0.12357099927E+01 -0.10568246760E+02  0.10750270669E+02  0.00000000000E+00 0. -1.
</event>
<event>
 8    1  0.2502398E-006  0.9118800E+02  0.7816164E-02  0.1184000E+00
        -11   -1    0    0    0    0  0.00000000000E+00  0.00000000000E+00  0.45593999997E+02  0.45594000000E+02  0.51100000000E-03 0.  1.
         11   -1    0    0    0    0 -0.00000000000E+00 -0.00000000000E+00 -0.45593999997E+02  0.45594000000E+02  0.51100000000E-03 0. -1.
         23    2    1    2    0    0  0.88817841970E-15  0.00000000000E+00  0.71054273576E-14  0.91188000000E+02  0.91188000000E+02 0.  0.
    9900012    2    3    3    0    0  0.48111587405E+01 -0.31205936206E+01  0.36371620712E+02  0.54367080047E+02  0.39999990582E+02 0.  0.
         12    1    3    3    0    0 -0.48111587405E+01  0.31205936206E+01 -0.36371620712E+02  0.36820919953E+02  0.00000000000E+00 0. -1.
         11    1    4    4    0    0 -0.46906486472E+01 -0.20561860291E+01  0.28786714659E+02  0.29238758982E+02  0.51100000000E-03 0. -1.
        -11    1    4    4    0    0  0.43082910596E+01 -0.63915392158E+01  0.13552319451E+02  0.15590975215E+02  0.51100000000E-03 0.  1.
         12    1    4    4    0    0  0.51935163280E+01  0.53271316243E+01 -0.59674133974E+01  0.95373458492E+01  0.00000000000E+00 0. -1.
</event>
<event>
 8    1  0.2502398E-006  0.9118800E+02  0.7816164E-02  0.1184000E+00
        -11   -1    0    0    0    0  0.00000000000E+00  0.00000000000E+00  0.45593999997E+02  0.45594000000E+02  0.51100000000E-03 0.  1.
         11   -1    0    0    0    0 -0.00000000000E+00 -0.00000000000E+00 -0.45593999997E+02  0.45594000000E+02  0.51100000000E-03 0. -1.
         23    2    1    2    0    0 -0.66613381478E-15  0.71054273576E-14  0.71054273576E-14  0.91188000000E+02  0.91188000000E+02 0.  0.
    9900012    2    3    3    0    0  0.16903888186E+01  0.27854626787E+02  0.24021750861E+02  0.54367052671E+02  0.39999928173E+02 0.  0.
         12    1    3    3    0    0 -0.16903888186E+01 -0.27854626787E+02 -0.24021750861E+02  0.36820947329E+02  0.00000000000E+00 0. -1.
         11    1    4    4    0    0 -0.48680702295E+01  0.26229903812E+01  0.18458373073E+01  0.58296914091E+01  0.51100000000E-03 0. -1.
        -11    1    4    4    0    0  0.95461444730E+01 -0.56633211643E+01  0.10778600091E+02  0.15471919761E+02  0.51100000000E-03 0.  1.
         12    1    4    4    0    0 -0.29876854248E+01  0.30894957570E+02  0.11397313463E+02  0.33065441501E+02  0.00000000000E+00 0. -1.
</event>
<event>
 8    1  0.2502398E-006  0.9118800E+02  0.7816164E-02  0.1184000E+00
        -11   -1    0    0    0    0  0.00000000000E+00  0.00000000000E+00  0.45593999997E+02  0.45594000000E+02  0.51100000000E-03 0.  1.
         11   -1    0    0    0    0 -0.00000000000E+00 -0.00000000000E+00 -0.45593999997E+02  0.45594000000E+02  0.51100000000E-03 0. -1.
         23    2    1    2    0    0 -0.44408920985E-15  0.22204460493E-14  0.71054273576E-14  0.91188000000E+02  0.91188000000E+02 0.  0.
    9900012    2    3    3    0    0 -0.97196183344E+00 -0.21008634077E+01  0.36748086629E+02  0.54367079211E+02  0.39999988676E+02 0.  0.
         12    1    3    3    0    0  0.97196183344E+00  0.21008634077E+01 -0.36748086629E+02  0.36820920789E+02  0.00000000000E+00 0. -1.
         11    1    4    4    0    0 -0.32103595270E+01  0.17500479231E+02  0.13981163347E+02  0.22628435881E+02  0.51100000000E-03 0.  1.
        -11    1    4    4    0    0  0.54261571253E+01 -0.15047044772E+02  0.19745765955E+02  0.25411651086E+02  0.51100000000E-03 0. -1.
        -12    1    4    4    0    0 -0.31877594317E+01 -0.45542978668E+01  0.30211573271E+01  0.63269922435E+01  0.00000000000E+00 0.  1.
</event>
<event>
 8    1  0.2502398E-006  0.9118800E+02  0.7816164E-02  0.1184000E+00
        -11   -1    0    0    0    0  0.00000000000E+00  0.00000000000E+00  0.45593999997E+02  0.45594000000E+02  0.51100000000E-03 0.  1.
         11   -1    0    0    0    0 -0.00000000000E+00 -0.00000000000E+00 -0.45593999997E+02  0.45594000000E+02  0.51100000000E-03 0. -1.
         23    2    1    2    0    0 -0.88817841970E-15  0.00000000000E+00  0.00000000000E+00  0.91188000000E+02  0.91188000000E+02 0.  0.
    9900012    2    3    3    0    0 -0.59727540030E+01 -0.57108055095E+01  0.35881650303E+02  0.54367083140E+02  0.39999997635E+02 0.  0.
         12    1    3    3    0    0  0.59727540030E+01  0.57108055095E+01 -0.35881650303E+02  0.36820916860E+02  0.00000000000E+00 0. -1.
         11    1    4    4    0    0 -0.21089397178E+02 -0.44078387622E+00  0.23790349968E+02  0.31795246745E+02  0.51100000000E-03 0. -1.
        -11    1    4    4    0    0  0.15517469277E+01 -0.48203712363E+01  0.55246887629E+01  0.74944034834E+01  0.51100000000E-03 0.  1.
        -12    1    4    4    0    0  0.13564896247E+02 -0.44965039690E+00  0.65666115718E+01  0.15077432912E+02  0.00000000000E+00 0.  1.
</event>
<event>
 8    1  0.2502398E-006  0.9118800E+02  0.7816164E-02  0.1184000E+00
        -11   -1    0    0    0    0  0.00000000000E+00  0.00000000000E+00  0.45593999997E+02  0.45594000000E+02  0.51100000000E-03 0. -1.
         11   -1    0    0    0    0 -0.00000000000E+00 -0.00000000000E+00 -0.45593999997E+02  0.45594000000E+02  0.51100000000E-03 0.  1.
         23    2    1    2    0    0 -0.17763568394E-14  0.44408920985E-15 -0.71054273576E-14  0.91188000000E+02  0.91188000000E+02 0.  0.
    9900012    2    3    3    0    0 -0.14541876842E+02 -0.32357521764E+01  0.33672589665E+02  0.54367087884E+02  0.40000008450E+02 0.  0.
        -12    1    3    3    0    0  0.14541876842E+02  0.32357521764E+01 -0.33672589665E+02  0.36820912116E+02  0.00000000000E+00 0.  1.
         11    1    4    4    0    0 -0.20259391208E+02  0.17077469140E+00  0.15427522243E+02  0.25465281050E+02  0.51100000000E-03 0. -1.
        -11    1    4    4    0    0  0.29004606267E+01 -0.11491409470E+02  0.16246468547E+02  0.20110019990E+02  0.51100000000E-03 0.  1.
        -12    1    4    4    0    0  0.28170537395E+01  0.80848826022E+01  0.19985988748E+01  0.87917868449E+01  0.00000000000E+00 0.  1.
</event>
<event>
 8    1  0.2502398E-006  0.9118800E+02  0.7816164E-02  0.1184000E+00
        -11   -1    0    0    0    0  0.00000000000E+00  0.00000000000E+00  0.45593999997E+02  0.45594000000E+02  0.51100000000E-03 0.  1.
         11   -1    0    0    0    0 -0.00000000000E+00 -0.00000000000E+00 -0.45593999997E+02  0.45594000000E+02  0.51100000000E-03 0. -1.
         23    2    1    2    0    0  0.00000000000E+00 -0.35527136788E-14  0.00000000000E+00  0.91188000000E+02  0.91188000000E+02 0.  0.
    9900012    2    3    3    0    0  0.65228890750E+01  0.24284296412E+02  0.26898047585E+02  0.54367080701E+02  0.39999992074E+02 0.  0.
         12    1    3    3    0    0 -0.65228890750E+01 -0.24284296412E+02 -0.26898047585E+02  0.36820919299E+02  0.00000000000E+00 0. -1.
         11    1    4    4    0    0  0.17355634462E+01  0.50720238220E+01 -0.31712591942E+00  0.53701187358E+01  0.51100000000E-03 0. -1.
        -11    1    4    4    0    0  0.43276848546E+00 -0.85832475958E+01  0.17029824194E+02  0.19075490562E+02  0.51100000000E-03 0.  1.
        -12    1    4    4    0    0  0.43545571433E+01  0.27795520186E+02  0.10185349311E+02  0.29921471403E+02  0.00000000000E+00 0.  1.
</event>
<event>
 8    1  0.2502398E-006  0.9118800E+02  0.7816164E-02  0.1184000E+00
        -11   -1    0    0    0    0  0.00000000000E+00  0.00000000000E+00  0.45593999997E+02  0.45594000000E+02  0.51100000000E-03 0. -1.
         11   -1    0    0    0    0 -0.00000000000E+00 -0.00000000000E+00 -0.45593999997E+02  0.45594000000E+02  0.51100000000E-03 0.  1.
         23    2    1    2    0    0  0.88817841970E-15  0.00000000000E+00  0.00000000000E+00  0.91188000000E+02  0.91188000000E+02 0.  0.
    9900012    2    3    3    0    0 -0.57037719372E+01  0.13473358725E+02 -0.33789282423E+02  0.54367081810E+02  0.39999994603E+02 0.  0.
         12    1    3    3    0    0  0.57037719372E+01 -0.13473358725E+02  0.33789282423E+02  0.36820918190E+02  0.00000000000E+00 0. -1.
         11    1    4    4    0    0 -0.11167390193E+02  0.31676861329E+00 -0.84810037108E+01  0.14026345578E+02  0.51100000000E-03 0. -1.
        -11    1    4    4    0    0  0.10517261322E+02 -0.45423950709E+01 -0.16098838904E+02  0.19759017006E+02  0.51100000000E-03 0.  1.
         12    1    4    4    0    0 -0.50536430667E+01  0.17698985183E+02 -0.92094398080E+01  0.20581719227E+02  0.00000000000E+00 0. -1.
</event>
<event>
 8    1  0.2502398E-006  0.9118800E+02  0.7816164E-02  0.1184000E+00
        -11   -1    0    0    0    0  0.00000000000E+00  0.00000000000E+00  0.45593999997E+02  0.45594000000E+02  0.51100000000E-03 0. -1.
         11   -1    0    0    0    0 -0.00000000000E+00 -0.00000000000E+00 -0.45593999997E+02  0.45594000000E+02  0.51100000000E-03 0.  1.
         23    2    1    2    0    0  0.00000000000E+00  0.00000000000E+00 -0.35527136788E-14  0.91188000000E+02  0.91188000000E+02 0.  0.
    9900012    2    3    3    0    0  0.27942775830E+02  0.87695601025E+01 -0.22317631613E+02  0.54367074071E+02  0.39999976959E+02 0.  0.
         12    1    3    3    0    0 -0.27942775830E+02 -0.87695601025E+01  0.22317631613E+02  0.36820925929E+02  0.00000000000E+00 0. -1.
         11    1    4    4    0    0  0.13664081977E+02 -0.40835711050E+01 -0.17655613911E+02  0.22695889321E+02  0.51100000000E-03 0. -1.
        -11    1    4    4    0    0  0.95259990526E+01  0.76569611320E+01 -0.14883655549E+02  0.19258684132E+02  0.51100000000E-03 0.  1.
        -12    1    4    4    0    0  0.47526948001E+01  0.51961700756E+01  0.10221637847E+02  0.12412500618E+02  0.00000000000E+00 0.  1.
</event>
<event>
 8    1  0.2502398E-006  0.9118800E+02  0.7816164E-02  0.1184000E+00
        -11   -1    0    0    0    0  0.00000000000E+00  0.00000000000E+00  0.45593999997E+02  0.45594000000E+02  0.51100000000E-03 0. -1.
         11   -1    0    0    0    0 -0.00000000000E+00 -0.00000000000E+00 -0.45593999997E+02  0.45594000000E+02  0.51100000000E-03 0.  1.
         23    2    1    2    0    0  0.00000000000E+00  0.00000000000E+00  0.35527136788E-14  0.91188000000E+02  0.91188000000E+02 0.  0.
    9900012    2    3    3    0    0  0.16060233689E+02  0.20344635682E+02  0.26152337114E+02  0.54367081439E+02  0.39999993756E+02 0.  0.
        -12    1    3    3    0    0 -0.16060233689E+02 -0.20344635682E+02 -0.26152337114E+02  0.36820918561E+02  0.00000000000E+00 0.  1.
         11    1    4    4    0    0  0.16103697540E+02  0.12639669855E+02  0.31279470570E+01  0.20709282497E+02  0.51100000000E-03 0. -1.
        -11    1    4    4    0    0  0.95684421557E+01  0.12479020377E+01  0.23029558553E+01  0.99204813751E+01  0.51100000000E-03 0.  1.
         12    1    4    4    0    0 -0.96119060070E+01  0.64570637900E+01  0.20721434202E+02  0.23737317566E+02  0.00000000000E+00 0. -1.
</event>
<event>
 8    1  0.2502398E-006  0.9118800E+02  0.7816164E-02  0.1184000E+00
        -11   -1    0    0    0    0  0.00000000000E+00  0.00000000000E+00  0.45593999997E+02  0.45594000000E+02  0.51100000000E-03 0. -1.
         11   -1    0    0    0    0 -0.00000000000E+00 -0.00000000000E+00 -0.45593999997E+02  0.45594000000E+02  0.51100000000E-03 0.  1.
         23    2    1    2    0    0 -0.17763568394E-14  0.19984014443E-14 -0.71054273576E-14  0.91188000000E+02  0.91188000000E+02 0.  0.
    9900012    2    3    3    0    0  0.92521587463E+01 -0.10683160307E+01  0.35623587519E+02  0.54367031404E+02  0.39999879692E+02 0.  0.
        -12    1    3    3    0    0 -0.92521587463E+01  0.10683160307E+01 -0.35623587519E+02  0.36820968596E+02  0.00000000000E+00 0.  1.
         11    1    4    4    0    0  0.34743482676E+01 -0.18761040222E+02  0.27918503633E+02  0.33815537427E+02  0.51100000000E-03 0.  1.
        -11    1    4    4    0    0  0.24200892666E+01  0.83230151489E+01  0.57682087790E+01  0.10411611115E+02  0.51100000000E-03 0. -1.
        -12    1    4    4    0    0  0.33577212122E+01  0.93697090426E+01  0.19368751071E+01  0.10139882862E+02  0.00000000000E+00 0.  1.
</event>
<event>
 8    1  0.2502398E-006  0.9118800E+02  0.7816164E-02  0.1184000E+00
        -11   -1    0    0    0    0  0.00000000000E+00  0.00000000000E+00  0.45593999997E+02  0.45594000000E+02  0.51100000000E-03 0. -1.
         11   -1    0    0    0    0 -0.00000000000E+00 -0.00000000000E+00 -0.45593999997E+02  0.45594000000E+02  0.51100000000E-03 0.  1.
         23    2    1    2    0    0  0.00000000000E+00  0.00000000000E+00  0.00000000000E+00  0.91188000000E+02  0.91188000000E+02 0.  0.
    9900012    2    3    3    0    0 -0.16997694834E+02  0.28371126822E+02 -0.16184488345E+02  0.54367080269E+02  0.39999991090E+02 0.  0.
         12    1    3    3    0    0  0.16997694834E+02 -0.28371126822E+02  0.16184488345E+02  0.36820919731E+02  0.00000000000E+00 0. -1.
         11    1    4    4    0    0  0.25423737489E+01  0.80884721963E+01 -0.43600023133E+01  0.95339743645E+01  0.51100000000E-03 0. -1.
        -11    1    4    4    0    0 -0.46066956521E+01  0.25298335910E+01 -0.19657476850E+02  0.20347926164E+02  0.51100000000E-03 0.  1.
        -12    1    4    4    0    0 -0.14933372931E+02  0.17752821034E+02  0.78329908176E+01  0.24485179740E+02  0.00000000000E+00 0.  1.
</event>
<event>
 8    1  0.2502398E-006  0.9118800E+02  0.7816164E-02  0.1184000E+00
        -11   -1    0    0    0    0  0.00000000000E+00  0.00000000000E+00  0.45593999997E+02  0.45594000000E+02  0.51100000000E-03 0.  1.
         11   -1    0    0    0    0 -0.00000000000E+00 -0.00000000000E+00 -0.45593999997E+02  0.45594000000E+02  0.51100000000E-03 0. -1.
         23    2    1    2    0    0  0.00000000000E+00  0.00000000000E+00  0.00000000000E+00  0.91188000000E+02  0.91188000000E+02 0.  0.
    9900012    2    3    3    0    0  0.26214236443E+02 -0.49818914427E+01  0.25372670158E+02  0.54367111559E+02  0.40000062421E+02 0.  0.
         12    1    3    3    0    0 -0.26214236443E+02  0.49818914427E+01 -0.25372670158E+02  0.36820888441E+02  0.00000000000E+00 0. -1.
         11    1    4    4    0    0  0.17756954446E+01 -0.11489980056E+02  0.23974091042E+02  0.26644507455E+02  0.51100000000E-03 0. -1.
        -11    1    4    4    0    0  0.15256996591E+02 -0.13145232184E+01 -0.12791989110E+01  0.15366856099E+02  0.51100000000E-03 0.  1.
         12    1    4    4    0    0  0.91815444079E+01  0.78226118318E+01  0.26777780274E+01  0.12355748004E+02  0.00000000000E+00 0. -1.
</event>
<event>
 8    1  0.2502398E-006  0.9118800E+02  0.7816164E-02  0.1184000E+00
        -11   -1    0    0    0    0  0.00000000000E+00  0.00000000000E+00  0.45593999997E+02  0.45594000000E+02  0.51100000000E-03 0. -1.
         11   -1    0    0    0    0 -0.00000000000E+00 -0.00000000000E+00 -0.45593999997E+02  0.45594000000E+02  0.51100000000E-03 0.  1.
         23    2    1    2    0    0 -0.35527136788E-14  0.00000000000E+00  0.35527136788E-14  0.91188000000E+02  0.91188000000E+02 0.  0.
    9900012    2    3    3    0    0 -0.18544123712E+02 -0.53031690928E+01  0.31365076413E+02  0.54367134379E+02  0.40000114444E+02 0.  0.
        -12    1    3    3    0    0  0.18544123712E+02  0.53031690928E+01 -0.31365076413E+02  0.36820865621E+02  0.00000000000E+00 0.  1.
         11    1    4    4    0    0  0.33130775862E+01  0.46438617432E+01  0.12699843957E+02  0.13922211454E+02  0.51100000000E-03 0. -1.
        -11    1    4    4    0    0 -0.19030993312E+02  0.50150132872E+01  0.58182565317E+01  0.20522698995E+02  0.51100000000E-03 0.  1.
        -12    1    4    4    0    0 -0.28262079861E+01 -0.14962044123E+02  0.12846975924E+02  0.19922223930E+02  0.00000000000E+00 0.  1.
</event>
<event>
 8    1  0.2502398E-006  0.9118800E+02  0.7816164E-02  0.1184000E+00
        -11   -1    0    0    0    0  0.00000000000E+00  0.00000000000E+00  0.45593999997E+02  0.45594000000E+02  0.51100000000E-03 0. -1.
         11   -1    0    0    0    0 -0.00000000000E+00 -0.00000000000E+00 -0.45593999997E+02  0.45594000000E+02  0.51100000000E-03 0.  1.
         23    2    1    2    0    0  0.00000000000E+00 -0.17763568394E-14  0.00000000000E+00  0.91188000000E+02  0.91188000000E+02 0.  0.
    9900012    2    3    3    0    0 -0.12512861888E+02  0.57412282404E+01 -0.34150363327E+02  0.54367072124E+02  0.39999972520E+02 0.  0.
         12    1    3    3    0    0  0.12512861888E+02 -0.57412282404E+01  0.34150363327E+02  0.36820927876E+02  0.00000000000E+00 0. -1.
         11    1    4    4    0    0 -0.56635409884E+01  0.67460857524E+01  0.58442442168E-01  0.88084496528E+01  0.51100000000E-03 0. -1.
        -11    1    4    4    0    0 -0.70526309760E+01  0.11876434834E+02 -0.28077438273E+02  0.31291082568E+02  0.51100000000E-03 0.  1.
        -12    1    4    4    0    0  0.20331007672E+00 -0.12881292346E+02 -0.61313674958E+01  0.14267539903E+02  0.00000000000E+00 0.  1.
</event>
<event>
 8    1  0.2502398E-006  0.9118800E+02  0.7816164E-02  0.1184000E+00
        -11   -1    0    0    0    0  0.00000000000E+00  0.00000000000E+00  0.45593999997E+02  0.45594000000E+02  0.51100000000E-03 0. -1.
         11   -1    0    0    0    0 -0.00000000000E+00 -0.00000000000E+00 -0.45593999997E+02  0.45594000000E+02  0.51100000000E-03 0.  1.
         23    2    1    2    0    0 -0.35527136788E-14  0.00000000000E+00  0.88817841970E-15  0.91188000000E+02  0.91188000000E+02 0.  0.
    9900012    2    3    3    0    0  0.30371935027E+02  0.19398288834E+02 -0.75519912186E+01  0.54367073636E+02  0.39999975967E+02 0.  0.
        -12    1    3    3    0    0 -0.30371935027E+02 -0.19398288834E+02  0.75519912186E+01  0.36820926364E+02  0.00000000000E+00 0.  1.
         11    1    4    4    0    0  0.83621524689E+01  0.12632986545E+02  0.10221565524E+02  0.18275621603E+02  0.51100000000E-03 0. -1.
        -11    1    4    4    0    0  0.26039424804E-01  0.60817840729E+01 -0.11840140337E+02  0.13310811358E+02  0.51100000000E-03 0.  1.
        -12    1    4    4    0    0  0.21983743133E+02  0.68351821641E+00 -0.59334164056E+01  0.22780640674E+02  0.00000000000E+00 0.  1.
</event>
<event>
 8    1  0.2502398E-006  0.9118800E+02  0.7816164E-02  0.1184000E+00
        -11   -1    0    0    0    0  0.00000000000E+00  0.00000000000E+00  0.45593999997E+02  0.45594000000E+02  0.51100000000E-03 0.  1.
         11   -1    0    0    0    0 -0.00000000000E+00 -0.00000000000E+00 -0.45593999997E+02  0.45594000000E+02  0.51100000000E-03 0. -1.
         23    2    1    2    0    0  0.00000000000E+00  0.00000000000E+00 -0.71054273576E-14  0.91188000000E+02  0.91188000000E+02 0.  0.
    9900012    2    3    3    0    0 -0.11444617741E+02  0.18971636078E+02  0.29408800050E+02  0.54367085141E+02  0.40000002196E+02 0.  0.
         12    1    3    3    0    0  0.11444617741E+02 -0.18971636078E+02 -0.29408800050E+02  0.36820914859E+02  0.00000000000E+00 0. -1.
         11    1    4    4    0    0  0.10590400429E+01  0.58251608796E+01  0.70708715982E+01  0.92223256560E+01  0.51100000000E-03 0. -1.
        -11    1    4    4    0    0 -0.63680125859E+01 -0.40423618885E+01  0.25526210982E+02  0.26617282380E+02  0.51100000000E-03 0.  1.
         12    1    4    4    0    0 -0.61356451981E+01  0.17188837087E+02 -0.31882825306E+01  0.18527477105E+02  0.00000000000E+00 0. -1.
</event>
<event>
 8    1  0.2502398E-006  0.9118800E+02  0.7816164E-02  0.1184000E+00
        -11   -1    0    0    0    0  0.00000000000E+00  0.00000000000E+00  0.45593999997E+02  0.45594000000E+02  0.51100000000E-03 0.  1.
         11   -1    0    0    0    0 -0.00000000000E+00 -0.00000000000E+00 -0.45593999997E+02  0.45594000000E+02  0.51100000000E-03 0. -1.
         23    2    1    2    0    0  0.35527136788E-14  0.00000000000E+00  0.00000000000E+00  0.91188000000E+02  0.91188000000E+02 0.  0.
    9900012    2    3    3    0    0 -0.22796082476E+02  0.19837589056E+02  0.21037782273E+02  0.54367087480E+02  0.40000007528E+02 0.  0.
         12    1    3    3    0    0  0.22796082476E+02 -0.19837589056E+02 -0.21037782273E+02  0.36820912520E+02  0.00000000000E+00 0. -1.
         11    1    4    4    0    0 -0.40699561639E+01  0.19142400282E+02  0.10513642233E+02  0.22215595986E+02  0.51100000000E-03 0. -1.
        -11    1    4    4    0    0  0.13160798228E+01  0.68680686812E+01  0.86113803623E+01  0.11093164811E+02  0.51100000000E-03 0.  1.
         12    1    4    4    0    0 -0.20042206135E+02 -0.61728799075E+01  0.19127596777E+01  0.21058326683E+02  0.00000000000E+00 0. -1.
</event>
<event>
 8    1  0.2502398E-006  0.9118800E+02  0.7816164E-02  0.1184000E+00
        -11   -1    0    0    0    0  0.00000000000E+00  0.00000000000E+00  0.45593999997E+02  0.45594000000E+02  0.51100000000E-03 0.  1.
         11   -1    0    0    0    0 -0.00000000000E+00 -0.00000000000E+00 -0.45593999997E+02  0.45594000000E+02  0.51100000000E-03 0. -1.
         23    2    1    2    0    0 -0.17763568394E-14  0.00000000000E+00  0.00000000000E+00  0.91188000000E+02  0.91188000000E+02 0.  0.
    9900012    2    3    3    0    0 -0.81340938776E+01  0.17484003745E+02  0.31367608646E+02  0.54367071951E+02  0.39999972128E+02 0.  0.
         12    1    3    3    0    0  0.81340938776E+01 -0.17484003745E+02 -0.31367608646E+02  0.36820928049E+02  0.00000000000E+00 0. -1.
         11    1    4    4    0    0  0.68353140252E+01 -0.62038260791E+01 -0.17871902796E+01  0.94022882959E+01  0.51100000000E-03 0. -1.
        -11    1    4    4    0    0 -0.56962929823E+01  0.10298114528E+02  0.22818400593E+02  0.25674468299E+02  0.51100000000E-03 0.  1.
         12    1    4    4    0    0 -0.92731149206E+01  0.13389715296E+02  0.10336398333E+02  0.19290315356E+02  0.00000000000E+00 0. -1.
</event>
<event>
 8    1  0.2502398E-006  0.9118800E+02  0.7816164E-02  0.1184000E+00
        -11   -1    0    0    0    0  0.00000000000E+00  0.00000000000E+00  0.45593999997E+02  0.45594000000E+02  0.51100000000E-03 0. -1.
         11   -1    0    0    0    0 -0.00000000000E+00 -0.00000000000E+00 -0.45593999997E+02  0.45594000000E+02  0.51100000000E-03 0.  1.
         23    2    1    2    0    0  0.00000000000E+00  0.00000000000E+00 -0.88817841970E-15  0.91188000000E+02  0.91188000000E+02 0.  0.
    9900012    2    3    3    0    0 -0.28762564472E+02 -0.22025051104E+02 -0.65872320171E+01  0.54367087236E+02  0.40000006971E+02 0.  0.
        -12    1    3    3    0    0  0.28762564472E+02  0.22025051104E+02  0.65872320171E+01  0.36820912764E+02  0.00000000000E+00 0.  1.
         11    1    4    4    0    0  0.24314868112E+00  0.38033531793E+01 -0.13472971165E+01  0.40422551217E+01  0.51100000000E-03 0.  1.
        -11    1    4    4    0    0 -0.13614473835E+02  0.40575857928E+01 -0.84929857680E+01  0.16551395947E+02  0.51100000000E-03 0. -1.
         12    1    4    4    0    0 -0.15391239318E+02 -0.29885990076E+02  0.32530508673E+01  0.33773436167E+02  0.00000000000E+00 0. -1.
</event>
<event>
 8    1  0.2502398E-006  0.9118800E+02  0.7816164E-02  0.1184000E+00
        -11   -1    0    0    0    0  0.00000000000E+00  0.00000000000E+00  0.45593999997E+02  0.45594000000E+02  0.51100000000E-03 0.  1.
         11   -1    0    0    0    0 -0.00000000000E+00 -0.00000000000E+00 -0.45593999997E+02  0.45594000000E+02  0.51100000000E-03 0. -1.
         23    2    1    2    0    0 -0.35527136788E-14 -0.88817841970E-15  0.35527136788E-14  0.91188000000E+02  0.91188000000E+02 0.  0.
    9900012    2    3    3    0    0  0.25446599307E+02 -0.40394429954E+01 -0.26304631610E+02  0.54367079857E+02  0.39999990150E+02 0.  0.
        -12    1    3    3    0    0 -0.25446599307E+02  0.40394429954E+01  0.26304631610E+02  0.36820920143E+02  0.00000000000E+00 0.  1.
         11    1    4    4    0    0  0.74735373091E+01 -0.26309958991E+00 -0.10394521722E+01  0.75500624093E+01  0.51100000000E-03 0. -1.
        -11    1    4    4    0    0  0.15845618153E+02 -0.14689709555E+02 -0.28482749757E+01  0.21794124255E+02  0.51100000000E-03 0.  1.
        -12    1    4    4    0    0  0.21274438455E+01  0.10913366150E+02 -0.22416904463E+02  0.25022893192E+02  0.00000000000E+00 0.  1.
</event>
<event>
 8    1  0.2502398E-006  0.9118800E+02  0.7816164E-02  0.1184000E+00
        -11   -1    0    0    0    0  0.00000000000E+00  0.00000000000E+00  0.45593999997E+02  0.45594000000E+02  0.51100000000E-03 0. -1.
         11   -1    0    0    0    0 -0.00000000000E+00 -0.00000000000E+00 -0.45593999997E+02  0.45594000000E+02  0.51100000000E-03 0.  1.
         23    2    1    2    0    0 -0.17763568394E-14 -0.71054273576E-14  0.35527136788E-14  0.91188000000E+02  0.91188000000E+02 0.  0.
    9900012    2    3    3    0    0 -0.10824601484E+02 -0.32819540973E+02  0.12707698620E+02  0.54367083781E+02  0.39999999097E+02 0.  0.
        -12    1    3    3    0    0  0.10824601484E+02  0.32819540973E+02 -0.12707698620E+02  0.36820916219E+02  0.00000000000E+00 0.  1.
         11    1    4    4    0    0 -0.49036620024E+01 -0.25247687124E+02  0.17675001106E+02  0.31207327192E+02  0.51100000000E-03 0. -1.
        -11    1    4    4    0    0  0.36152212013E+01 -0.69752683079E+01  0.50316363363E+01  0.93296064646E+01  0.51100000000E-03 0.  1.
        -12    1    4    4    0    0 -0.95361606834E+01 -0.59658554101E+00 -0.99989388226E+01  0.13830150124E+02  0.00000000000E+00 0.  1.
</event>
<event>
 8    1  0.2502398E-006  0.9118800E+02  0.7816164E-02  0.1184000E+00
        -11   -1    0    0    0    0  0.00000000000E+00  0.00000000000E+00  0.45593999997E+02  0.45594000000E+02  0.51100000000E-03 0. -1.
         11   -1    0    0    0    0 -0.00000000000E+00 -0.00000000000E+00 -0.45593999997E+02  0.45594000000E+02  0.51100000000E-03 0.  1.
         23    2    1    2    0    0 -0.35527136788E-14  0.66613381478E-15  0.00000000000E+00  0.91188000000E+02  0.91188000000E+02 0.  0.
    9900012    2    3    3    0    0 -0.26019974196E+02  0.12125067165E+01  0.26024397167E+02  0.54367102705E+02  0.40000042237E+02 0.  0.
        -12    1    3    3    0    0  0.26019974196E+02 -0.12125067165E+01 -0.26024397167E+02  0.36820897295E+02  0.00000000000E+00 0.  1.
         11    1    4    4    0    0  0.34240163002E+01 -0.53773147073E+01  0.16214374837E+02  0.17422552991E+02  0.51100000000E-03 0. -1.
        -11    1    4    4    0    0 -0.12328292497E+02 -0.36558959048E+01 -0.30433442475E+01  0.13214171000E+02  0.51100000000E-03 0.  1.
         12    1    4    4    0    0 -0.17115697999E+02  0.10245717329E+02  0.12853366577E+02  0.23730378715E+02  0.00000000000E+00 0. -1.
</event>
<event>
 8    1  0.2502398E-006  0.9118800E+02  0.7816164E-02  0.1184000E+00
        -11   -1    0    0    0    0  0.00000000000E+00  0.00000000000E+00  0.45593999997E+02  0.45594000000E+02  0.51100000000E-03 0.  1.
         11   -1    0    0    0    0 -0.00000000000E+00 -0.00000000000E+00 -0.45593999997E+02  0.45594000000E+02  0.51100000000E-03 0. -1.
         23    2    1    2    0    0  0.00000000000E+00  0.00000000000E+00  0.00000000000E+00  0.91188000000E+02  0.91188000000E+02 0.  0.
    9900012    2    3    3    0    0 -0.24263201019E+02 -0.18980207106E+02 -0.20169983810E+02  0.54367089740E+02  0.40000012680E+02 0.  0.
        -12    1    3    3    0    0  0.24263201019E+02  0.18980207106E+02  0.20169983810E+02  0.36820910260E+02  0.00000000000E+00 0.  1.
         11    1    4    4    0    0 -0.11558171980E+02 -0.20666284147E+02 -0.34093916702E+01  0.23923013852E+02  0.51100000000E-03 0. -1.
        -11    1    4    4    0    0 -0.94597546280E+01  0.57402283600E+01  0.17644404253E+01  0.11204928805E+02  0.51100000000E-03 0.  1.
        -12    1    4    4    0    0 -0.32452744115E+01 -0.40541513191E+01 -0.18525032565E+02  0.19239147083E+02  0.00000000000E+00 0.  1.
</event>
<event>
 8    1  0.2502398E-006  0.9118800E+02  0.7816164E-02  0.1184000E+00
        -11   -1    0    0    0    0  0.00000000000E+00  0.00000000000E+00  0.45593999997E+02  0.45594000000E+02  0.51100000000E-03 0.  1.
         11   -1    0    0    0    0 -0.00000000000E+00 -0.00000000000E+00 -0.45593999997E+02  0.45594000000E+02  0.51100000000E-03 0. -1.
         23    2    1    2    0    0 -0.35527136788E-14  0.71054273576E-14  0.17763568394E-14  0.91188000000E+02  0.91188000000E+02 0.  0.
    9900012    2    3    3    0    0  0.23183904448E+02 -0.27062485431E+02 -0.92686190602E+01  0.54367097751E+02  0.40000030943E+02 0.  0.
        -12    1    3    3    0    0 -0.23183904448E+02  0.27062485431E+02  0.92686190602E+01  0.36820902249E+02  0.00000000000E+00 0.  1.
         11    1    4    4    0    0  0.25000370361E+01 -0.16051499928E+02  0.90180786363E+01  0.18580273886E+02  0.51100000000E-03 0. -1.
        -11    1    4    4    0    0 -0.68853362128E+00 -0.37534192543E+01 -0.11651837237E+02  0.12260813428E+02  0.51100000000E-03 0.  1.
        -12    1    4    4    0    0  0.21372401033E+02 -0.72575662490E+01 -0.66348604590E+01  0.23526010437E+02  0.00000000000E+00 0.  1.
</event>
<event>
 8    1  0.2502398E-006  0.9118800E+02  0.7816164E-02  0.1184000E+00
        -11   -1    0    0    0    0  0.00000000000E+00  0.00000000000E+00  0.45593999997E+02  0.45594000000E+02  0.51100000000E-03 0.  1.
         11   -1    0    0    0    0 -0.00000000000E+00 -0.00000000000E+00 -0.45593999997E+02  0.45594000000E+02  0.51100000000E-03 0. -1.
         23    2    1    2    0    0  0.00000000000E+00  0.00000000000E+00 -0.35527136788E-14  0.91188000000E+02  0.91188000000E+02 0.  0.
    9900012    2    3    3    0    0  0.19399114128E+02  0.17460409303E+02  0.25972789873E+02  0.54367118210E+02  0.40000077583E+02 0.  0.
         12    1    3    3    0    0 -0.19399114128E+02 -0.17460409303E+02 -0.25972789873E+02  0.36820881790E+02  0.00000000000E+00 0. -1.
         11    1    4    4    0    0 -0.33405024371E+01  0.76883514108E+01  0.14748961438E+02  0.16964715374E+02  0.51100000000E-03 0. -1.
        -11    1    4    4    0    0  0.13287121341E+02  0.16506801773E+01  0.18602223578E+02  0.22919752635E+02  0.51100000000E-03 0.  1.
        -12    1    4    4    0    0  0.94524952247E+01  0.81213777153E+01 -0.73783951421E+01  0.14482650201E+02  0.00000000000E+00 0.  1.
</event>
<event>
 8    1  0.2502398E-006  0.9118800E+02  0.7816164E-02  0.1184000E+00
        -11   -1    0    0    0    0  0.00000000000E+00  0.00000000000E+00  0.45593999997E+02  0.45594000000E+02  0.51100000000E-03 0.  1.
         11   -1    0    0    0    0 -0.00000000000E+00 -0.00000000000E+00 -0.45593999997E+02  0.45594000000E+02  0.51100000000E-03 0. -1.
         23    2    1    2    0    0  0.00000000000E+00  0.35527136788E-14  0.00000000000E+00  0.91188000000E+02  0.91188000000E+02 0.  0.
    9900012    2    3    3    0    0  0.86298043610E+01 -0.26795986121E+02  0.23733595122E+02  0.54367055785E+02  0.39999935273E+02 0.  0.
         12    1    3    3    0    0 -0.86298043610E+01  0.26795986121E+02 -0.23733595122E+02  0.36820944215E+02  0.00000000000E+00 0. -1.
         11    1    4    4    0    0  0.55959973977E-01  0.36804059953E+01  0.11910671953E+02  0.12466460061E+02  0.51100000000E-03 0. -1.
        -11    1    4    4    0    0  0.27387639591E+00 -0.11222392495E+02  0.16936721613E+02  0.20319193902E+02  0.51100000000E-03 0.  1.
        -12    1    4    4    0    0  0.82999679912E+01 -0.19253999621E+02 -0.51137984445E+01  0.21581401822E+02  0.00000000000E+00 0.  1.
</event>
<event>
 8    1  0.2502398E-006  0.9118800E+02  0.7816164E-02  0.1184000E+00
        -11   -1    0    0    0    0  0.00000000000E+00  0.00000000000E+00  0.45593999997E+02  0.45594000000E+02  0.51100000000E-03 0. -1.
         11   -1    0    0    0    0 -0.00000000000E+00 -0.00000000000E+00 -0.45593999997E+02  0.45594000000E+02  0.51100000000E-03 0.  1.
         23    2    1    2    0    0  0.35527136788E-14  0.00000000000E+00 -0.35527136788E-14  0.91188000000E+02  0.91188000000E+02 0.  0.
    9900012    2    3    3    0    0 -0.26842519749E+02 -0.12725912923E+02  0.21755707423E+02  0.54367074812E+02  0.39999978650E+02 0.  0.
        -12    1    3    3    0    0  0.26842519749E+02  0.12725912923E+02 -0.21755707423E+02  0.36820925188E+02  0.00000000000E+00 0.  1.
         11    1    4    4    0    0 -0.99483733170E+01 -0.38081526574E+01 -0.10628238292E+01  0.10705220832E+02  0.51100000000E-03 0. -1.
        -11    1    4    4    0    0 -0.74321723158E+01 -0.17683086293E+02  0.21534935953E+01  0.19301975575E+02  0.51100000000E-03 0.  1.
         12    1    4    4    0    0 -0.94619741161E+01  0.87653260273E+01  0.20665037657E+02  0.24359878405E+02  0.00000000000E+00 0. -1.
</event>
<event>
 8    1  0.2502398E-006  0.9118800E+02  0.7816164E-02  0.1184000E+00
        -11   -1    0    0    0    0  0.00000000000E+00  0.00000000000E+00  0.45593999997E+02  0.45594000000E+02  0.51100000000E-03 0. -1.
         11   -1    0    0    0    0 -0.00000000000E+00 -0.00000000000E+00 -0.45593999997E+02  0.45594000000E+02  0.51100000000E-03 0.  1.
         23    2    1    2    0    0 -0.88817841970E-15  0.00000000000E+00 -0.17763568394E-14  0.91188000000E+02  0.91188000000E+02 0.  0.
    9900012    2    3    3    0    0  0.43559077694E+01 -0.33026598429E+02  0.15686045497E+02  0.54367052706E+02  0.39999928255E+02 0.  0.
         12    1    3    3    0    0 -0.43559077694E+01  0.33026598429E+02 -0.15686045497E+02  0.36820947294E+02  0.00000000000E+00 0. -1.
         11    1    4    4    0    0  0.91141529904E+01 -0.10245579535E+02  0.15645852636E+02  0.20804624239E+02  0.51100000000E-03 0. -1.
        -11    1    4    4    0    0  0.50129857425E+01  0.27453883095E+01 -0.22311162259E+01  0.61355572607E+01  0.51100000000E-03 0.  1.
        -12    1    4    4    0    0 -0.97712309635E+01 -0.25526407203E+02  0.22713090871E+01  0.27426871207E+02  0.00000000000E+00 0.  1.
</event>
<event>
 8    1  0.2502398E-006  0.9118800E+02  0.7816164E-02  0.1184000E+00
        -11   -1    0    0    0    0  0.00000000000E+00  0.00000000000E+00  0.45593999997E+02  0.45594000000E+02  0.51100000000E-03 0.  1.
         11   -1    0    0    0    0 -0.00000000000E+00 -0.00000000000E+00 -0.45593999997E+02  0.45594000000E+02  0.51100000000E-03 0. -1.
         23    2    1    2    0    0  0.00000000000E+00  0.00000000000E+00  0.00000000000E+00  0.91188000000E+02  0.91188000000E+02 0.  0.
    9900012    2    3    3    0    0  0.29068474631E+01  0.11412174609E+02  0.34886859914E+02  0.54367075431E+02  0.39999980059E+02 0.  0.
         12    1    3    3    0    0 -0.29068474631E+01 -0.11412174609E+02 -0.34886859914E+02  0.36820924569E+02  0.00000000000E+00 0. -1.
         11    1    4    4    0    0 -0.55417042637E+01  0.39341880775E+01 -0.17575908977E+01  0.70197897405E+01  0.51100000000E-03 0. -1.
        -11    1    4    4    0    0 -0.58357544696E+00  0.12679457691E+02  0.43580325504E+01  0.13420195811E+02  0.51100000000E-03 0.  1.
        -12    1    4    4    0    0  0.90321271738E+01 -0.52014711594E+01  0.32286418261E+02  0.33927089879E+02  0.00000000000E+00 0.  1.
</event>
<event>
 8    1  0.2502398E-006  0.9118800E+02  0.7816164E-02  0.1184000E+00
        -11   -1    0    0    0    0  0.00000000000E+00  0.00000000000E+00  0.45593999997E+02  0.45594000000E+02  0.51100000000E-03 0. -1.
         11   -1    0    0    0    0 -0.00000000000E+00 -0.00000000000E+00 -0.45593999997E+02  0.45594000000E+02  0.51100000000E-03 0.  1.
         23    2    1    2    0    0  0.71054273576E-14  0.35527136788E-14  0.00000000000E+00  0.91188000000E+02  0.91188000000E+02 0.  0.
    9900012    2    3    3    0    0  0.31102765934E+02  0.19616933420E+02 -0.18900713482E+01  0.54367102466E+02  0.40000041691E+02 0.  0.
        -12    1    3    3    0    0 -0.31102765934E+02 -0.19616933420E+02  0.18900713482E+01  0.36820897534E+02  0.00000000000E+00 0.  1.
         11    1    4    4    0    0  0.37234481262E+02  0.20385918494E+02 -0.36036083074E+01  0.42602561670E+02  0.51100000000E-03 0. -1.
        -11    1    4    4    0    0 -0.10237225272E+01  0.40401650190E+01  0.22354342663E+01  0.47294933993E+01  0.51100000000E-03 0.  1.
         12    1    4    4    0    0 -0.51079928017E+01 -0.48091500926E+01 -0.52189730709E+00  0.70350473967E+01  0.00000000000E+00 0. -1.
</event>
<event>
 8    1  0.2502398E-006  0.9118800E+02  0.7816164E-02  0.1184000E+00
        -11   -1    0    0    0    0  0.00000000000E+00  0.00000000000E+00  0.45593999997E+02  0.45594000000E+02  0.51100000000E-03 0.  1.
         11   -1    0    0    0    0 -0.00000000000E+00 -0.00000000000E+00 -0.45593999997E+02  0.45594000000E+02  0.51100000000E-03 0. -1.
         23    2    1    2    0    0  0.00000000000E+00  0.17763568394E-14  0.00000000000E+00  0.91188000000E+02  0.91188000000E+02 0.  0.
    9900012    2    3    3    0    0  0.19581345321E+02  0.10552538767E+02  0.29342717917E+02  0.54367078586E+02  0.39999987253E+02 0.  0.
         12    1    3    3    0    0 -0.19581345321E+02 -0.10552538767E+02 -0.29342717917E+02  0.36820921414E+02  0.00000000000E+00 0. -1.
         11    1    4    4    0    0  0.13609504314E+02 -0.77896872727E+00  0.21361263688E+02  0.25340264138E+02  0.51100000000E-03 0. -1.
        -11    1    4    4    0    0  0.97609186402E+01  0.88167132807E+01 -0.59025406799E+01  0.14417002203E+02  0.51100000000E-03 0.  1.
         12    1    4    4    0    0 -0.37890776328E+01  0.25147942135E+01  0.13883994908E+02  0.14609812246E+02  0.00000000000E+00 0. -1.
</event>
<event>
 8    1  0.2502398E-006  0.9118800E+02  0.7816164E-02  0.1184000E+00
        -11   -1    0    0    0    0  0.00000000000E+00  0.00000000000E+00  0.45593999997E+02  0.45594000000E+02  0.51100000000E-03 0.  1.
         11   -1    0    0    0    0 -0.00000000000E+00 -0.00000000000E+00 -0.45593999997E+02  0.45594000000E+02  0.51100000000E-03 0. -1.
         23    2    1    2    0    0 -0.35527136788E-14  0.00000000000E+00  0.88817841970E-15  0.91188000000E+02  0.91188000000E+02 0.  0.
    9900012    2    3    3    0    0 -0.21578613914E+02 -0.29491489055E+02  0.45162021585E+01  0.54367074060E+02  0.39999976934E+02 0.  0.
         12    1    3    3    0    0  0.21578613914E+02  0.29491489055E+02 -0.45162021585E+01  0.36820925940E+02  0.00000000000E+00 0. -1.
         11    1    4    4    0    0 -0.20844972616E+02 -0.21279835309E+02 -0.88208185769E+01  0.31066881317E+02  0.51100000000E-03 0. -1.
        -11    1    4    4    0    0 -0.84845460010E+01 -0.74414454701E+01  0.72348503270E+01  0.13405435131E+02  0.51100000000E-03 0.  1.
        -12    1    4    4    0    0  0.77509047031E+01 -0.77020827636E+00  0.61021704085E+01  0.98947576120E+01  0.00000000000E+00 0.  1.
</event>
<event>
 8    1  0.2502398E-006  0.9118800E+02  0.7816164E-02  0.1184000E+00
        -11   -1    0    0    0    0  0.00000000000E+00  0.00000000000E+00  0.45593999997E+02  0.45594000000E+02  0.51100000000E-03 0.  1.
         11   -1    0    0    0    0 -0.00000000000E+00 -0.00000000000E+00 -0.45593999997E+02  0.45594000000E+02  0.51100000000E-03 0. -1.
         23    2    1    2    0    0  0.00000000000E+00 -0.35527136788E-14  0.17763568394E-14  0.91188000000E+02  0.91188000000E+02 0.  0.
    9900012    2    3    3    0    0  0.14605490768E+02  0.30574125197E+02 -0.14411387584E+02  0.54367006202E+02  0.39999822239E+02 0.  0.
        -12    1    3    3    0    0 -0.14605490768E+02 -0.30574125197E+02  0.14411387584E+02  0.36820993798E+02  0.00000000000E+00 0.  1.
         11    1    4    4    0    0 -0.79912554610E+01  0.18570868545E+02 -0.71271531026E+01  0.21436735618E+02  0.51100000000E-03 0.  1.
        -11    1    4    4    0    0  0.19339642337E+02  0.13080278722E+02  0.16042311364E+01  0.23402756568E+02  0.51100000000E-03 0. -1.
        -12    1    4    4    0    0  0.32571038924E+01 -0.10770220690E+01 -0.88884656176E+01  0.95275140167E+01  0.00000000000E+00 0.  1.
</event>
<event>
 8    1  0.2502398E-006  0.9118800E+02  0.7816164E-02  0.1184000E+00
        -11   -1    0    0    0    0  0.00000000000E+00  0.00000000000E+00  0.45593999997E+02  0.45594000000E+02  0.51100000000E-03 0.  1.
         11   -1    0    0    0    0 -0.00000000000E+00 -0.00000000000E+00 -0.45593999997E+02  0.45594000000E+02  0.51100000000E-03 0. -1.
         23    2    1    2    0    0  0.00000000000E+00  0.00000000000E+00  0.00000000000E+00  0.91188000000E+02  0.91188000000E+02 0.  0.
    9900012    2    3    3    0    0 -0.27809718335E+02  0.50121818049E+01 -0.23606731921E+02  0.54367079421E+02  0.39999989156E+02 0.  0.
        -12    1    3    3    0    0  0.27809718335E+02 -0.50121818049E+01  0.23606731921E+02  0.36820920579E+02  0.00000000000E+00 0.  1.
         11    1    4    4    0    0 -0.18136094268E+02 -0.62414342535E+01 -0.18081806259E+02  0.26359535935E+02  0.51100000000E-03 0. -1.
        -11    1    4    4    0    0 -0.67267083846E+01  0.13446477718E+02 -0.12872542937E+02  0.19792895964E+02  0.51100000000E-03 0.  1.
         12    1    4    4    0    0 -0.29469156827E+01 -0.21928616598E+01  0.73476172750E+01  0.82146475226E+01  0.00000000000E+00 0. -1.
</event>
<event>
 8    1  0.2502398E-006  0.9118800E+02  0.7816164E-02  0.1184000E+00
        -11   -1    0    0    0    0  0.00000000000E+00  0.00000000000E+00  0.45593999997E+02  0.45594000000E+02  0.51100000000E-03 0. -1.
         11   -1    0    0    0    0 -0.00000000000E+00 -0.00000000000E+00 -0.45593999997E+02  0.45594000000E+02  0.51100000000E-03 0.  1.
         23    2    1    2    0    0  0.00000000000E+00  0.88817841970E-15  0.00000000000E+00  0.91188000000E+02  0.91188000000E+02 0.  0.
    9900012    2    3    3    0    0  0.80379240694E+01 -0.43854938675E+01 -0.35664259524E+02  0.54367079490E+02  0.39999989312E+02 0.  0.
         12    1    3    3    0    0 -0.80379240694E+01  0.43854938675E+01  0.35664259524E+02  0.36820920510E+02  0.00000000000E+00 0. -1.
         11    1    4    4    0    0 -0.55867365912E+01  0.21882443621E+00 -0.92186165545E+01  0.10781576940E+02  0.51100000000E-03 0. -1.
        -11    1    4    4    0    0  0.12138002485E+02  0.81116119575E+01 -0.44721607713E+00  0.14605798689E+02  0.51100000000E-03 0.  1.
         12    1    4    4    0    0  0.14866581758E+01 -0.12715930261E+02 -0.25998426893E+02  0.28979703860E+02  0.00000000000E+00 0. -1.
</event>
<event>
 8    1  0.2502398E-006  0.9118800E+02  0.7816164E-02  0.1184000E+00
        -11   -1    0    0    0    0  0.00000000000E+00  0.00000000000E+00  0.45593999997E+02  0.45594000000E+02  0.51100000000E-03 0. -1.
         11   -1    0    0    0    0 -0.00000000000E+00 -0.00000000000E+00 -0.45593999997E+02  0.45594000000E+02  0.51100000000E-03 0.  1.
         23    2    1    2    0    0  0.00000000000E+00  0.00000000000E+00 -0.17763568394E-14  0.91188000000E+02  0.91188000000E+02 0.  0.
    9900012    2    3    3    0    0 -0.21831002818E+02 -0.26765373284E+02  0.12759725478E+02  0.54366966807E+02  0.39999732430E+02 0.  0.
        -12    1    3    3    0    0  0.21831002818E+02  0.26765373284E+02 -0.12759725478E+02  0.36821033193E+02  0.00000000000E+00 0.  1.
         11    1    4    4    0    0 -0.69673911526E+01 -0.27930512625E+02  0.15477012371E+02  0.32683267694E+02  0.51100000000E-03 0. -1.
        -11    1    4    4    0    0  0.32959409337E+01 -0.18221446287E+00 -0.53212578463E+00  0.33435889192E+01  0.51100000000E-03 0.  1.
         12    1    4    4    0    0 -0.18159552599E+02  0.13473538035E+01 -0.21851611077E+01  0.18340110194E+02  0.00000000000E+00 0. -1.
</event>
<event>
 8    1  0.2502398E-006  0.9118800E+02  0.7816164E-02  0.1184000E+00
        -11   -1    0    0    0    0  0.00000000000E+00  0.00000000000E+00  0.45593999997E+02  0.45594000000E+02  0.51100000000E-03 0. -1.
         11   -1    0    0    0    0 -0.00000000000E+00 -0.00000000000E+00 -0.45593999997E+02  0.45594000000E+02  0.51100000000E-03 0.  1.
         23    2    1    2    0    0  0.00000000000E+00 -0.14432899320E-14  0.00000000000E+00  0.91188000000E+02  0.91188000000E+02 0.  0.
    9900012    2    3    3    0    0  0.35767437363E+02  0.93190795908E+00 -0.86949153931E+01  0.54367087713E+02  0.40000008059E+02 0.  0.
         12    1    3    3    0    0 -0.35767437363E+02 -0.93190795908E+00  0.86949153931E+01  0.36820912287E+02  0.00000000000E+00 0. -1.
         11    1    4    4    0    0  0.14456584071E+02 -0.15010201185E+02  0.33208423058E+01  0.21102771299E+02  0.51100000000E-03 0. -1.
        -11    1    4    4    0    0  0.61850411050E+01  0.11890911225E+02 -0.11396020465E+02  0.17593117573E+02  0.51100000000E-03 0.  1.
        -12    1    4    4    0    0  0.15125812187E+02  0.40511979188E+01 -0.61973723438E+00  0.15671198842E+02  0.00000000000E+00 0.  1.
</event>
<event>
 8    1  0.2502398E-006  0.9118800E+02  0.7816164E-02  0.1184000E+00
        -11   -1    0    0    0    0  0.00000000000E+00  0.00000000000E+00  0.45593999997E+02  0.45594000000E+02  0.51100000000E-03 0.  1.
         11   -1    0    0    0    0 -0.00000000000E+00 -0.00000000000E+00 -0.45593999997E+02  0.45594000000E+02  0.51100000000E-03 0. -1.
         23    2    1    2    0    0  0.00000000000E+00  0.00000000000E+00  0.00000000000E+00  0.91188000000E+02  0.91188000000E+02 0.  0.
    9900012    2    3    3    0    0 -0.11754734205E+02  0.10207788140E+02 -0.33367753204E+02  0.54367086529E+02  0.40000005360E+02 0.  0.
        -12    1    3    3    0    0  0.11754734205E+02 -0.10207788140E+02  0.33367753204E+02  0.36820913471E+02  0.00000000000E+00 0.  1.
         11    1    4    4    0    0  0.21430916568E+01 -0.34593087553E+01 -0.26076181434E+02  0.26391796024E+02  0.51100000000E-03 0. -1.
        -11    1    4    4    0    0 -0.18201226736E+02  0.13444409562E+02 -0.53676667130E+01  0.23256152936E+02  0.51100000000E-03 0.  1.
        -12    1    4    4    0    0  0.43034008743E+01  0.22268733324E+00 -0.19239050572E+01  0.47191375698E+01  0.00000000000E+00 0.  1.
</event>
<event>
 8    1  0.2502398E-006  0.9118800E+02  0.7816164E-02  0.1184000E+00
        -11   -1    0    0    0    0  0.00000000000E+00  0.00000000000E+00  0.45593999997E+02  0.45594000000E+02  0.51100000000E-03 0. -1.
         11   -1    0    0    0    0 -0.00000000000E+00 -0.00000000000E+00 -0.45593999997E+02  0.45594000000E+02  0.51100000000E-03 0.  1.
         23    2    1    2    0    0 -0.35527136788E-14  0.35527136788E-14  0.00000000000E+00  0.91188000000E+02  0.91188000000E+02 0.  0.
    9900012    2    3    3    0    0  0.22862470707E+02 -0.27328321212E+02 -0.92870843959E+01  0.54367086871E+02  0.40000006140E+02 0.  0.
         12    1    3    3    0    0 -0.22862470707E+02  0.27328321212E+02  0.92870843959E+01  0.36820913129E+02  0.00000000000E+00 0. -1.
         11    1    4    4    0    0  0.12423451574E+02 -0.29102181991E+02  0.30654663169E-02  0.31642995359E+02  0.51100000000E-03 0. -1.
        -11    1    4    4    0    0  0.14894161543E+02  0.27996998670E+01 -0.99144198827E+01  0.18109944486E+02  0.51100000000E-03 0.  1.
        -12    1    4    4    0    0 -0.44551424094E+01 -0.10258390881E+01  0.62427002053E+00  0.46141470264E+01  0.00000000000E+00 0.  1.
</event>
<event>
 8    1  0.2502398E-006  0.9118800E+02  0.7816164E-02  0.1184000E+00
        -11   -1    0    0    0    0  0.00000000000E+00  0.00000000000E+00  0.45593999997E+02  0.45594000000E+02  0.51100000000E-03 0. -1.
         11   -1    0    0    0    0 -0.00000000000E+00 -0.00000000000E+00 -0.45593999997E+02  0.45594000000E+02  0.51100000000E-03 0.  1.
         23    2    1    2    0    0  0.00000000000E+00  0.35527136788E-14  0.00000000000E+00  0.91188000000E+02  0.91188000000E+02 0.  0.
    9900012    2    3    3    0    0 -0.15432315180E+02  0.16023923405E+02  0.29340369784E+02  0.54367085126E+02  0.40000002162E+02 0.  0.
        -12    1    3    3    0    0  0.15432315180E+02 -0.16023923405E+02 -0.29340369784E+02  0.36820914874E+02  0.00000000000E+00 0.  1.
         11    1    4    4    0    0 -0.13513348303E+02  0.37044457768E+01  0.18791556512E+02  0.23440479885E+02  0.51100000000E-03 0. -1.
        -11    1    4    4    0    0 -0.46587111965E+01  0.19518480347E+02  0.32749805696E+01  0.20332244417E+02  0.51100000000E-03 0.  1.
        -12    1    4    4    0    0  0.27397443193E+01 -0.71990027185E+01  0.72738327025E+01  0.10594360824E+02  0.00000000000E+00 0.  1.
</event>
<event>
 8    1  0.2502398E-006  0.9118800E+02  0.7816164E-02  0.1184000E+00
        -11   -1    0    0    0    0  0.00000000000E+00  0.00000000000E+00  0.45593999997E+02  0.45594000000E+02  0.51100000000E-03 0.  1.
         11   -1    0    0    0    0 -0.00000000000E+00 -0.00000000000E+00 -0.45593999997E+02  0.45594000000E+02  0.51100000000E-03 0. -1.
         23    2    1    2    0    0  0.71054273576E-14  0.00000000000E+00 -0.13600232052E-14  0.91188000000E+02  0.91188000000E+02 0.  0.
    9900012    2    3    3    0    0 -0.31439234712E+02 -0.19165639328E+02  0.18157287686E+00  0.54367079604E+02  0.39999989573E+02 0.  0.
         12    1    3    3    0    0  0.31439234712E+02  0.19165639328E+02 -0.18157287686E+00  0.36820920396E+02  0.00000000000E+00 0. -1.
         11    1    4    4    0    0 -0.11014479818E+02 -0.11071536920E+02 -0.63994515843E+01  0.16877519850E+02  0.51100000000E-03 0. -1.
        -11    1    4    4    0    0 -0.22814640362E+02  0.30372007636E+01 -0.21870176707E+01  0.23119590176E+02  0.51100000000E-03 0.  1.
         12    1    4    4    0    0  0.23898854689E+01 -0.11131303171E+02  0.87680421318E+01  0.14369969578E+02  0.00000000000E+00 0. -1.
</event>
<event>
 8    1  0.2502398E-006  0.9118800E+02  0.7816164E-02  0.1184000E+00
        -11   -1    0    0    0    0  0.00000000000E+00  0.00000000000E+00  0.45593999997E+02  0.45594000000E+02  0.51100000000E-03 0.  1.
         11   -1    0    0    0    0 -0.00000000000E+00 -0.00000000000E+00 -0.45593999997E+02  0.45594000000E+02  0.51100000000E-03 0. -1.
         23    2    1    2    0    0  0.44408920985E-15  0.35527136788E-14  0.00000000000E+00  0.91188000000E+02  0.91188000000E+02 0.  0.
    9900012    2    3    3    0    0 -0.37157245327E+01 -0.13732098797E+02 -0.33961735323E+02  0.54367128034E+02  0.40000099979E+02 0.  0.
        -12    1    3    3    0    0  0.37157245327E+01  0.13732098797E+02  0.33961735323E+02  0.36820871966E+02  0.00000000000E+00 0.  1.
         11    1    4    4    0    0  0.87169216060E+01 -0.17146017122E+02 -0.12962204033E+02  0.23194597627E+02  0.51100000000E-03 0. -1.
        -11    1    4    4    0    0 -0.53284770626E+01 -0.58714729562E+01 -0.98006920999E+00  0.79892051169E+01  0.51100000000E-03 0.  1.
        -12    1    4    4    0    0 -0.71041690762E+01  0.92853912815E+01 -0.20019462080E+02  0.23183325290E+02  0.00000000000E+00 0.  1.
</event>
<event>
 8    1  0.2502398E-006  0.9118800E+02  0.7816164E-02  0.1184000E+00
        -11   -1    0    0    0    0  0.00000000000E+00  0.00000000000E+00  0.45593999997E+02  0.45594000000E+02  0.51100000000E-03 0.  1.
         11   -1    0    0    0    0 -0.00000000000E+00 -0.00000000000E+00 -0.45593999997E+02  0.45594000000E+02  0.51100000000E-03 0. -1.
         23    2    1    2    0    0  0.00000000000E+00  0.17763568394E-14 -0.71054273576E-14  0.91188000000E+02  0.91188000000E+02 0.  0.
    9900012    2    3    3    0    0  0.11913268187E+02 -0.13716664896E+02  0.32026475656E+02  0.54367245014E+02  0.40000366658E+02 0.  0.
         12    1    3    3    0    0 -0.11913268187E+02  0.13716664896E+02 -0.32026475656E+02  0.36820754986E+02  0.00000000000E+00 0. -1.
         11    1    4    4    0    0 -0.78806528329E+01  0.51188628868E+01  0.90843768796E-01  0.93976432779E+01  0.51100000000E-03 0. -1.
        -11    1    4    4    0    0  0.51588538684E+01 -0.41299055633E+01 -0.32187014456E+00  0.66161540073E+01  0.51100000000E-03 0.  1.
        -12    1    4    4    0    0  0.14635067152E+02 -0.14705622220E+02  0.32257502031E+02  0.38353447729E+02  0.00000000000E+00 0.  1.
</event>
<event>
 8    1  0.2502398E-006  0.9118800E+02  0.7816164E-02  0.1184000E+00
        -11   -1    0    0    0    0  0.00000000000E+00  0.00000000000E+00  0.45593999997E+02  0.45594000000E+02  0.51100000000E-03 0.  1.
         11   -1    0    0    0    0 -0.00000000000E+00 -0.00000000000E+00 -0.45593999997E+02  0.45594000000E+02  0.51100000000E-03 0. -1.
         23    2    1    2    0    0 -0.88817841970E-15  0.88817841970E-15  0.00000000000E+00  0.91188000000E+02  0.91188000000E+02 0.  0.
    9900012    2    3    3    0    0 -0.66792919610E+01 -0.77300342206E+01 -0.35375318828E+02  0.54367088111E+02  0.40000008967E+02 0.  0.
        -12    1    3    3    0    0  0.66792919610E+01  0.77300342206E+01  0.35375318828E+02  0.36820911889E+02  0.00000000000E+00 0.  1.
         11    1    4    4    0    0  0.77437409088E+00  0.65362138147E+01 -0.29179715651E+02  0.29912832564E+02  0.51100000000E-03 0. -1.
        -11    1    4    4    0    0 -0.11936639710E+02 -0.45188166681E+01 -0.19298263143E+01  0.12908419791E+02  0.51100000000E-03 0.  1.
        -12    1    4    4    0    0  0.44829736578E+01 -0.97474313672E+01 -0.42657768629E+01  0.11545835757E+02  0.00000000000E+00 0.  1.
</event>
<event>
 8    1  0.2502398E-006  0.9118800E+02  0.7816164E-02  0.1184000E+00
        -11   -1    0    0    0    0  0.00000000000E+00  0.00000000000E+00  0.45593999997E+02  0.45594000000E+02  0.51100000000E-03 0.  1.
         11   -1    0    0    0    0 -0.00000000000E+00 -0.00000000000E+00 -0.45593999997E+02  0.45594000000E+02  0.51100000000E-03 0. -1.
         23    2    1    2    0    0  0.00000000000E+00  0.00000000000E+00  0.35527136788E-14  0.91188000000E+02  0.91188000000E+02 0.  0.
    9900012    2    3    3    0    0 -0.86607507850E+01  0.17509180257E+02 -0.31212159924E+02  0.54367096635E+02  0.40000028400E+02 0.  0.
        -12    1    3    3    0    0  0.86607507850E+01 -0.17509180257E+02  0.31212159924E+02  0.36820903365E+02  0.00000000000E+00 0.  1.
         11    1    4    4    0    0  0.10403128609E+02  0.57550250247E+01 -0.18108837236E+02  0.21662764925E+02  0.51100000000E-03 0. -1.
        -11    1    4    4    0    0 -0.13699037184E+01  0.10508241841E+02  0.90647893976E-01  0.10597546890E+02  0.51100000000E-03 0.  1.
         12    1    4    4    0    0 -0.17693975676E+02  0.12459133919E+01 -0.13193970583E+02  0.22106784821E+02  0.00000000000E+00 0. -1.
</event>
<event>
 8    1  0.2502398E-006  0.9118800E+02  0.7816164E-02  0.1184000E+00
        -11   -1    0    0    0    0  0.00000000000E+00  0.00000000000E+00  0.45593999997E+02  0.45594000000E+02  0.51100000000E-03 0.  1.
         11   -1    0    0    0    0 -0.00000000000E+00 -0.00000000000E+00 -0.45593999997E+02  0.45594000000E+02  0.51100000000E-03 0. -1.
         23    2    1    2    0    0 -0.14210854715E-13  0.00000000000E+00 -0.22204460493E-14  0.91188000000E+02  0.91188000000E+02 0.  0.
    9900012    2    3    3    0    0 -0.36710791785E+02  0.76370303856E+00  0.27413504660E+01  0.54367075539E+02  0.39999980306E+02 0.  0.
         12    1    3    3    0    0  0.36710791785E+02 -0.76370303856E+00 -0.27413504660E+01  0.36820924461E+02  0.00000000000E+00 0. -1.
         11    1    4    4    0    0 -0.11707454297E+01 -0.35551408105E+01  0.39157772587E+01  0.54169163594E+01  0.51100000000E-03 0. -1.
        -11    1    4    4    0    0 -0.30162107618E+00  0.62295376327E+01  0.10127931027E+02  0.11894246573E+02  0.51100000000E-03 0.  1.
        -12    1    4    4    0    0 -0.35238425279E+02 -0.19106937836E+01 -0.11302357819E+02  0.37055912607E+02  0.00000000000E+00 0.  1.
</event>
<event>
 8    1  0.2502398E-006  0.9118800E+02  0.7816164E-02  0.1184000E+00
        -11   -1    0    0    0    0  0.00000000000E+00  0.00000000000E+00  0.45593999997E+02  0.45594000000E+02  0.51100000000E-03 0.  1.
         11   -1    0    0    0    0 -0.00000000000E+00 -0.00000000000E+00 -0.45593999997E+02  0.45594000000E+02  0.51100000000E-03 0. -1.
         23    2    1    2    0    0  0.00000000000E+00  0.00000000000E+00  0.00000000000E+00  0.91188000000E+02  0.91188000000E+02 0.  0.
    9900012    2    3    3    0    0  0.25461390696E+02  0.10325176912E+02  0.24513018447E+02  0.54367085185E+02  0.40000002295E+02 0.  0.
         12    1    3    3    0    0 -0.25461390696E+02 -0.10325176912E+02 -0.24513018447E+02  0.36820914815E+02  0.00000000000E+00 0. -1.
         11    1    4    4    0    0  0.10293964627E+02 -0.14099178166E+01 -0.16951396308E+01  0.10527443879E+02  0.51100000000E-03 0. -1.
        -11    1    4    4    0    0  0.17250372424E+02  0.12798200537E+01  0.20312308705E+01  0.17416635360E+02  0.51100000000E-03 0.  1.
         12    1    4    4    0    0 -0.20829463547E+01  0.10455274675E+02  0.24176927207E+02  0.26423005946E+02  0.00000000000E+00 0. -1.
</event>
<event>
 8    1  0.2502398E-006  0.9118800E+02  0.7816164E-02  0.1184000E+00
        -11   -1    0    0    0    0  0.00000000000E+00  0.00000000000E+00  0.45593999997E+02  0.45594000000E+02  0.51100000000E-03 0. -1.
         11   -1    0    0    0    0 -0.00000000000E+00 -0.00000000000E+00 -0.45593999997E+02  0.45594000000E+02  0.51100000000E-03 0.  1.
         23    2    1    2    0    0 -0.35527136788E-14  0.88817841970E-15  0.00000000000E+00  0.91188000000E+02  0.91188000000E+02 0.  0.
    9900012    2    3    3    0    0  0.29846930569E+02 -0.64974508426E+01 -0.20560262794E+02  0.54367074727E+02  0.39999978455E+02 0.  0.
         12    1    3    3    0    0 -0.29846930569E+02  0.64974508426E+01  0.20560262794E+02  0.36820925273E+02  0.00000000000E+00 0. -1.
         11    1    4    4    0    0  0.86714646179E+01 -0.68027673033E+01 -0.28269156006E+01  0.11378198174E+02  0.51100000000E-03 0. -1.
        -11    1    4    4    0    0  0.28120784099E+02 -0.41966346876E+01 -0.67260216205E+01  0.29216940431E+02  0.51100000000E-03 0.  1.
         12    1    4    4    0    0 -0.69453181480E+01  0.45019511484E+01 -0.11007325572E+02  0.13771936123E+02  0.00000000000E+00 0. -1.
</event>
<event>
 8    1  0.2502398E-006  0.9118800E+02  0.7816164E-02  0.1184000E+00
        -11   -1    0    0    0    0  0.00000000000E+00  0.00000000000E+00  0.45593999997E+02  0.45594000000E+02  0.51100000000E-03 0. -1.
         11   -1    0    0    0    0 -0.00000000000E+00 -0.00000000000E+00 -0.45593999997E+02  0.45594000000E+02  0.51100000000E-03 0.  1.
         23    2    1    2    0    0  0.00000000000E+00 -0.88817841970E-15  0.35527136788E-14  0.91188000000E+02  0.91188000000E+02 0.  0.
    9900012    2    3    3    0    0  0.27111406065E+02  0.61817061086E+01  0.24135840176E+02  0.54367073746E+02  0.39999976218E+02 0.  0.
        -12    1    3    3    0    0 -0.27111406065E+02 -0.61817061086E+01 -0.24135840176E+02  0.36820926254E+02  0.00000000000E+00 0.  1.
         11    1    4    4    0    0 -0.35718435524E+01  0.35679285988E+00 -0.43800020957E+01  0.56630191706E+01  0.51100000000E-03 0.  1.
        -11    1    4    4    0    0  0.22058115282E+01 -0.45876225366E+01  0.14370598479E+02  0.15245523473E+02  0.51100000000E-03 0. -1.
        -12    1    4    4    0    0  0.28477438089E+02  0.10412535785E+02  0.14145243792E+02  0.33458531102E+02  0.00000000000E+00 0.  1.
</event>
<event>
 8    1  0.2502398E-006  0.9118800E+02  0.7816164E-02  0.1184000E+00
        -11   -1    0    0    0    0  0.00000000000E+00  0.00000000000E+00  0.45593999997E+02  0.45594000000E+02  0.51100000000E-03 0. -1.
         11   -1    0    0    0    0 -0.00000000000E+00 -0.00000000000E+00 -0.45593999997E+02  0.45594000000E+02  0.51100000000E-03 0.  1.
         23    2    1    2    0    0  0.00000000000E+00  0.17763568394E-14  0.00000000000E+00  0.91188000000E+02  0.91188000000E+02 0.  0.
    9900012    2    3    3    0    0 -0.14795627561E+02  0.95863294106E+01  0.32326021359E+02  0.54367082529E+02  0.39999996242E+02 0.  0.
        -12    1    3    3    0    0  0.14795627561E+02 -0.95863294106E+01 -0.32326021359E+02  0.36820917471E+02  0.00000000000E+00 0.  1.
         11    1    4    4    0    0 -0.11302719299E+02  0.29421796043E+01 -0.16097500153E+01  0.11789791336E+02  0.51100000000E-03 0.  1.
        -11    1    4    4    0    0 -0.15707795853E+01 -0.15091732867E+01 -0.35510516013E+01  0.41659236972E+01  0.51100000000E-03 0. -1.
         12    1    4    4    0    0 -0.19221286772E+01  0.81533230930E+01  0.37486822976E+02  0.38411367496E+02  0.00000000000E+00 0. -1.
</event>
<event>
 8    1  0.2502398E-006  0.9118800E+02  0.7816164E-02  0.1184000E+00
        -11   -1    0    0    0    0  0.00000000000E+00  0.00000000000E+00  0.45593999997E+02  0.45594000000E+02  0.51100000000E-03 0. -1.
         11   -1    0    0    0    0 -0.00000000000E+00 -0.00000000000E+00 -0.45593999997E+02  0.45594000000E+02  0.51100000000E-03 0.  1.
         23    2    1    2    0    0 -0.35527136788E-14  0.00000000000E+00  0.71054273576E-14  0.91188000000E+02  0.91188000000E+02 0.  0.
    9900012    2    3    3    0    0  0.25140908024E+02  0.88037671871E+01 -0.25420633319E+02  0.54367079706E+02  0.39999989806E+02 0.  0.
         12    1    3    3    0    0 -0.25140908024E+02 -0.88037671871E+01  0.25420633319E+02  0.36820920294E+02  0.00000000000E+00 0. -1.
         11    1    4    4    0    0  0.51774592894E+01  0.38615605482E+01  0.18607755990E+01  0.67216233643E+01  0.51100000000E-03 0. -1.
        -11    1    4    4    0    0  0.52648512377E+01  0.41677201357E+01  0.73864277073E+01  0.99823776837E+01  0.51100000000E-03 0.  1.
        -12    1    4    4    0    0  0.14698597497E+02  0.77448650312E+00 -0.34667836625E+02  0.37663078658E+02  0.00000000000E+00 0.  1.
</event>
<event>
 8    1  0.2502398E-006  0.9118800E+02  0.7816164E-02  0.1184000E+00
        -11   -1    0    0    0    0  0.00000000000E+00  0.00000000000E+00  0.45593999997E+02  0.45594000000E+02  0.51100000000E-03 0. -1.
         11   -1    0    0    0    0 -0.00000000000E+00 -0.00000000000E+00 -0.45593999997E+02  0.45594000000E+02  0.51100000000E-03 0.  1.
         23    2    1    2    0    0  0.00000000000E+00  0.00000000000E+00  0.00000000000E+00  0.91188000000E+02  0.91188000000E+02 0.  0.
    9900012    2    3    3    0    0  0.18069723091E+02  0.15602969524E+02 -0.28032326964E+02  0.54367096894E+02  0.40000028988E+02 0.  0.
         12    1    3    3    0    0 -0.18069723091E+02 -0.15602969524E+02  0.28032326964E+02  0.36820903106E+02  0.00000000000E+00 0. -1.
         11    1    4    4    0    0  0.57540964074E+01  0.18639521090E+02 -0.15869250683E+02  0.25147057272E+02  0.51100000000E-03 0. -1.
        -11    1    4    4    0    0 -0.83926437361E+00  0.87882843660E+01 -0.49153742930E+01  0.10104415445E+02  0.51100000000E-03 0.  1.
         12    1    4    4    0    0  0.13154891057E+02 -0.11824835932E+02 -0.72477019876E+01  0.19115624176E+02  0.00000000000E+00 0. -1.
</event>
<event>
 8    1  0.2502398E-006  0.9118800E+02  0.7816164E-02  0.1184000E+00
        -11   -1    0    0    0    0  0.00000000000E+00  0.00000000000E+00  0.45593999997E+02  0.45594000000E+02  0.51100000000E-03 0. -1.
         11   -1    0    0    0    0 -0.00000000000E+00 -0.00000000000E+00 -0.45593999997E+02  0.45594000000E+02  0.51100000000E-03 0.  1.
         23    2    1    2    0    0  0.00000000000E+00  0.17763568394E-14  0.00000000000E+00  0.91188000000E+02  0.91188000000E+02 0.  0.
    9900012    2    3    3    0    0  0.19569986893E+02  0.10167628383E+02  0.29485876067E+02  0.54367055669E+02  0.39999935009E+02 0.  0.
        -12    1    3    3    0    0 -0.19569986893E+02 -0.10167628383E+02 -0.29485876067E+02  0.36820944331E+02  0.00000000000E+00 0.  1.
         11    1    4    4    0    0  0.54663700948E+01  0.16424797073E+02  0.23872940535E+02  0.29488513882E+02  0.51100000000E-03 0. -1.
        -11    1    4    4    0    0  0.15493700227E+02  0.22058491671E+01  0.39792755291E+01  0.16147914766E+02  0.51100000000E-03 0.  1.
         12    1    4    4    0    0 -0.13900834287E+01 -0.84630178571E+01  0.16336600032E+01  0.87306270219E+01  0.00000000000E+00 0. -1.
</event>
<event>
 8    1  0.2502398E-006  0.9118800E+02  0.7816164E-02  0.1184000E+00
        -11   -1    0    0    0    0  0.00000000000E+00  0.00000000000E+00  0.45593999997E+02  0.45594000000E+02  0.51100000000E-03 0.  1.
         11   -1    0    0    0    0 -0.00000000000E+00 -0.00000000000E+00 -0.45593999997E+02  0.45594000000E+02  0.51100000000E-03 0. -1.
         23    2    1    2    0    0  0.35527136788E-14 -0.44408920985E-15  0.35527136788E-14  0.91188000000E+02  0.91188000000E+02 0.  0.
    9900012    2    3    3    0    0  0.21981730351E+02  0.39888766233E+01  0.29268968984E+02  0.54367079977E+02  0.39999990424E+02 0.  0.
         12    1    3    3    0    0 -0.21981730351E+02 -0.39888766233E+01 -0.29268968984E+02  0.36820920023E+02  0.00000000000E+00 0. -1.
         11    1    4    4    0    0  0.21501102032E+02  0.98900383158E+01  0.11970591051E+01  0.23696902693E+02  0.51100000000E-03 0. -1.
        -11    1    4    4    0    0 -0.18642217985E+01 -0.29996455038E+01  0.26307317013E+02  0.26543325427E+02  0.51100000000E-03 0.  1.
         12    1    4    4    0    0  0.23448501168E+01 -0.29015161887E+01  0.17645928665E+01  0.41268518568E+01  0.00000000000E+00 0. -1.
</event>
<event>
 8    1  0.2502398E-006  0.9118800E+02  0.7816164E-02  0.1184000E+00
        -11   -1    0    0    0    0  0.00000000000E+00  0.00000000000E+00  0.45593999997E+02  0.45594000000E+02  0.51100000000E-03 0.  1.
         11   -1    0    0    0    0 -0.00000000000E+00 -0.00000000000E+00 -0.45593999997E+02  0.45594000000E+02  0.51100000000E-03 0. -1.
         23    2    1    2    0    0  0.00000000000E+00  0.00000000000E+00  0.35527136788E-14  0.91188000000E+02  0.91188000000E+02 0.  0.
    9900012    2    3    3    0    0 -0.16323628721E+02 -0.11014770254E+02 -0.31112593462E+02  0.54367088954E+02  0.40000010887E+02 0.  0.
        -12    1    3    3    0    0  0.16323628721E+02  0.11014770254E+02  0.31112593462E+02  0.36820911046E+02  0.00000000000E+00 0.  1.
         11    1    4    4    0    0  0.21845332040E+01  0.76836096716E+01 -0.95916998944E+01  0.12482417636E+02  0.51100000000E-03 0. -1.
        -11    1    4    4    0    0 -0.15368904807E+02 -0.53208730549E+01  0.10302416514E+00  0.16264241122E+02  0.51100000000E-03 0.  1.
        -12    1    4    4    0    0 -0.31392571180E+01 -0.13377506871E+02 -0.21623917733E+02  0.25620430196E+02  0.00000000000E+00 0.  1.
</event>
<event>
 8    1  0.2502398E-006  0.9118800E+02  0.7816164E-02  0.1184000E+00
        -11   -1    0    0    0    0  0.00000000000E+00  0.00000000000E+00  0.45593999997E+02  0.45594000000E+02  0.51100000000E-03 0. -1.
         11   -1    0    0    0    0 -0.00000000000E+00 -0.00000000000E+00 -0.45593999997E+02  0.45594000000E+02  0.51100000000E-03 0.  1.
         23    2    1    2    0    0 -0.35527136788E-14  0.00000000000E+00  0.00000000000E+00  0.91188000000E+02  0.91188000000E+02 0.  0.
    9900012    2    3    3    0    0 -0.11226526900E+02  0.23663076865E+02 -0.25880580318E+02  0.54367074556E+02  0.39999978065E+02 0.  0.
         12    1    3    3    0    0  0.11226526900E+02 -0.23663076865E+02  0.25880580318E+02  0.36820925444E+02  0.00000000000E+00 0. -1.
         11    1    4    4    0    0 -0.20347000659E+02  0.77896323171E+01 -0.16072893867E+02  0.27074281615E+02  0.51100000000E-03 0. -1.
        -11    1    4    4    0    0 -0.14335312060E+01  0.12665942242E+02 -0.10092418758E+02  0.16258475366E+02  0.51100000000E-03 0.  1.
         12    1    4    4    0    0  0.10554004965E+02  0.32075023060E+01  0.28473230670E+00  0.11034317574E+02  0.00000000000E+00 0. -1.
</event>
<event>
 8    1  0.2502398E-006  0.9118800E+02  0.7816164E-02  0.1184000E+00
        -11   -1    0    0    0    0  0.00000000000E+00  0.00000000000E+00  0.45593999997E+02  0.45594000000E+02  0.51100000000E-03 0.  1.
         11   -1    0    0    0    0 -0.00000000000E+00 -0.00000000000E+00 -0.45593999997E+02  0.45594000000E+02  0.51100000000E-03 0. -1.
         23    2    1    2    0    0  0.00000000000E+00 -0.17763568394E-14 -0.71054273576E-14  0.91188000000E+02  0.91188000000E+02 0.  0.
    9900012    2    3    3    0    0  0.20377979545E+02  0.15723775301E+02  0.26330221012E+02  0.54367086125E+02  0.40000004438E+02 0.  0.
         12    1    3    3    0    0 -0.20377979545E+02 -0.15723775301E+02 -0.26330221012E+02  0.36820913875E+02  0.00000000000E+00 0. -1.
         11    1    4    4    0    0  0.16595347336E+02  0.13421354194E+02 -0.60922184625E+00  0.21352036276E+02  0.51100000000E-03 0. -1.
        -11    1    4    4    0    0  0.22387164793E+01  0.91771115921E+01  0.66913784582E+01  0.11576086324E+02  0.51100000000E-03 0.  1.
        -12    1    4    4    0    0  0.15439157300E+01 -0.68746904853E+01  0.20248064400E+02  0.21438963525E+02  0.00000000000E+00 0.  1.
</event>
<event>
 8    1  0.2502398E-006  0.9118800E+02  0.7816164E-02  0.1184000E+00
        -11   -1    0    0    0    0  0.00000000000E+00  0.00000000000E+00  0.45593999997E+02  0.45594000000E+02  0.51100000000E-03 0. -1.
         11   -1    0    0    0    0 -0.00000000000E+00 -0.00000000000E+00 -0.45593999997E+02  0.45594000000E+02  0.51100000000E-03 0.  1.
         23    2    1    2    0    0  0.35527136788E-14  0.00000000000E+00  0.00000000000E+00  0.91188000000E+02  0.91188000000E+02 0.  0.
    9900012    2    3    3    0    0 -0.31915235498E+02  0.83447155006E+01  0.16357315294E+02  0.54367105154E+02  0.40000047819E+02 0.  0.
        -12    1    3    3    0    0  0.31915235498E+02 -0.83447155006E+01 -0.16357315294E+02  0.36820894846E+02  0.00000000000E+00 0.  1.
         11    1    4    4    0    0 -0.17015580956E+02  0.40090996867E+00  0.23338185076E+02  0.28885318191E+02  0.51100000000E-03 0. -1.
        -11    1    4    4    0    0 -0.24205891532E+00 -0.48376057267E+01 -0.74409181157E-01  0.48442294199E+01  0.51100000000E-03 0.  1.
        -12    1    4    4    0    0 -0.14657595626E+02  0.12781411259E+02 -0.69064606012E+01  0.20637557543E+02  0.00000000000E+00 0.  1.
</event>
<event>
 8    1  0.2502398E-006  0.9118800E+02  0.7816164E-02  0.1184000E+00
        -11   -1    0    0    0    0  0.00000000000E+00  0.00000000000E+00  0.45593999997E+02  0.45594000000E+02  0.51100000000E-03 0. -1.
         11   -1    0    0    0    0 -0.00000000000E+00 -0.00000000000E+00 -0.45593999997E+02  0.45594000000E+02  0.51100000000E-03 0.  1.
         23    2    1    2    0    0  0.71054273576E-14  0.00000000000E+00  0.00000000000E+00  0.91188000000E+02  0.91188000000E+02 0.  0.
    9900012    2    3    3    0    0  0.17333942666E+02  0.31855052335E+02 -0.63695829250E+01  0.54367061469E+02  0.39999948232E+02 0.  0.
        -12    1    3    3    0    0 -0.17333942666E+02 -0.31855052335E+02  0.63695829250E+01  0.36820938531E+02  0.00000000000E+00 0.  1.
         11    1    4    4    0    0  0.20075854544E+02  0.19322932408E+02  0.12329513047E+01  0.27891500887E+02  0.51100000000E-03 0. -1.
        -11    1    4    4    0    0 -0.10634843852E+02  0.27064975954E+01  0.12922524630E+01  0.11049658351E+02  0.51100000000E-03 0.  1.
        -12    1    4    4    0    0  0.78929319741E+01  0.98256223317E+01 -0.88947866927E+01  0.15425902232E+02  0.00000000000E+00 0.  1.
</event>
<event>
 8    1  0.2502398E-006  0.9118800E+02  0.7816164E-02  0.1184000E+00
        -11   -1    0    0    0    0  0.00000000000E+00  0.00000000000E+00  0.45593999997E+02  0.45594000000E+02  0.51100000000E-03 0.  1.
         11   -1    0    0    0    0 -0.00000000000E+00 -0.00000000000E+00 -0.45593999997E+02  0.45594000000E+02  0.51100000000E-03 0. -1.
         23    2    1    2    0    0  0.17763568394E-14 -0.14210854715E-13  0.00000000000E+00  0.91188000000E+02  0.91188000000E+02 0.  0.
    9900012    2    3    3    0    0 -0.15241320194E+02  0.32179961637E+02 -0.93772308005E+01  0.54367078913E+02  0.39999987998E+02 0.  0.
        -12    1    3    3    0    0  0.15241320194E+02 -0.32179961637E+02  0.93772308005E+01  0.36820921087E+02  0.00000000000E+00 0.  1.
         11    1    4    4    0    0  0.44930552320E+01 -0.68035915662E+01  0.30555766084E+01  0.87070633504E+01  0.51100000000E-03 0. -1.
        -11    1    4    4    0    0 -0.13296846419E+02  0.25405010283E+02 -0.59046899461E+01  0.29276031763E+02  0.51100000000E-03 0.  1.
         12    1    4    4    0    0 -0.64375290066E+01  0.13578542920E+02 -0.65281174628E+01  0.16383983800E+02  0.00000000000E+00 0. -1.
</event>
<event>
 8    1  0.2502398E-006  0.9118800E+02  0.7816164E-02  0.1184000E+00
        -11   -1    0    0    0    0  0.00000000000E+00  0.00000000000E+00  0.45593999997E+02  0.45594000000E+02  0.51100000000E-03 0.  1.
         11   -1    0    0    0    0 -0.00000000000E+00 -0.00000000000E+00 -0.45593999997E+02  0.45594000000E+02  0.51100000000E-03 0. -1.
         23    2    1    2    0    0  0.00000000000E+00 -0.35527136788E-14 -0.35527136788E-14  0.91188000000E+02  0.91188000000E+02 0.  0.
    9900012    2    3    3    0    0 -0.11757341937E+02 -0.16180258039E+02 -0.30915044680E+02  0.54367138695E+02  0.40000124283E+02 0.  0.
        -12    1    3    3    0    0  0.11757341937E+02  0.16180258039E+02  0.30915044680E+02  0.36820861305E+02  0.00000000000E+00 0.  1.
         11    1    4    4    0    0 -0.10075432943E+01  0.62162226801E+01  0.38629022422E+01  0.73877318504E+01  0.51100000000E-03 0. -1.
        -11    1    4    4    0    0  0.45357070640E+01 -0.17008723652E+01 -0.10683109014E+02  0.11730064955E+02  0.51100000000E-03 0.  1.
         12    1    4    4    0    0 -0.15285505707E+02 -0.20695608354E+02 -0.24094837909E+02  0.35249341890E+02  0.00000000000E+00 0. -1.
</event>
<event>
 8    1  0.2502398E-006  0.9118800E+02  0.7816164E-02  0.1184000E+00
        -11   -1    0    0    0    0  0.00000000000E+00  0.00000000000E+00  0.45593999997E+02  0.45594000000E+02  0.51100000000E-03 0.  1.
         11   -1    0    0    0    0 -0.00000000000E+00 -0.00000000000E+00 -0.45593999997E+02  0.45594000000E+02  0.51100000000E-03 0. -1.
         23    2    1    2    0    0  0.00000000000E+00  0.44408920985E-15  0.00000000000E+00  0.91188000000E+02  0.91188000000E+02 0.  0.
    9900012    2    3    3    0    0  0.30910065996E+02 -0.26879729990E+01  0.19827330784E+02  0.54367076264E+02  0.39999981959E+02 0.  0.
         12    1    3    3    0    0 -0.30910065996E+02  0.26879729990E+01 -0.19827330784E+02  0.36820923736E+02  0.00000000000E+00 0. -1.
         11    1    4    4    0    0  0.23789435342E+02 -0.45684727078E+01  0.11230026151E+02  0.26700592959E+02  0.51100000000E-03 0. -1.
        -11    1    4    4    0    0  0.59715939811E+01  0.12273496439E+02 -0.71043353610E+00  0.13667602774E+02  0.51100000000E-03 0.  1.
        -12    1    4    4    0    0  0.11490366733E+01 -0.10392996730E+02  0.93077381690E+01  0.13998880531E+02  0.00000000000E+00 0.  1.
</event>
<event>
 8    1  0.2502398E-006  0.9118800E+02  0.7816164E-02  0.1184000E+00
        -11   -1    0    0    0    0  0.00000000000E+00  0.00000000000E+00  0.45593999997E+02  0.45594000000E+02  0.51100000000E-03 0. -1.
         11   -1    0    0    0    0 -0.00000000000E+00 -0.00000000000E+00 -0.45593999997E+02  0.45594000000E+02  0.51100000000E-03 0.  1.
         23    2    1    2    0    0  0.00000000000E+00  0.35527136788E-14 -0.22204460493E-14  0.91188000000E+02  0.91188000000E+02 0.  0.
    9900012    2    3    3    0    0  0.22833103958E+02  0.28669923525E+02 -0.35303813214E+01  0.54367099093E+02  0.40000034003E+02 0.  0.
        -12    1    3    3    0    0 -0.22833103958E+02 -0.28669923525E+02  0.35303813214E+01  0.36820900907E+02  0.00000000000E+00 0.  1.
         11    1    4    4    0    0  0.16674451003E+01  0.25238969335E+02 -0.12519205106E+02  0.28222622894E+02  0.51100000000E-03 0.  1.
        -11    1    4    4    0    0  0.20725712793E+02  0.54524185622E+01  0.10213629634E+02  0.23740308960E+02  0.51100000000E-03 0. -1.
        -12    1    4    4    0    0  0.43994606558E+00 -0.20214643723E+01 -0.12248058496E+01  0.24041672401E+01  0.00000000000E+00 0.  1.
</event>
<event>
 8    1  0.2502398E-006  0.9118800E+02  0.7816164E-02  0.1184000E+00
        -11   -1    0    0    0    0  0.00000000000E+00  0.00000000000E+00  0.45593999997E+02  0.45594000000E+02  0.51100000000E-03 0. -1.
         11   -1    0    0    0    0 -0.00000000000E+00 -0.00000000000E+00 -0.45593999997E+02  0.45594000000E+02  0.51100000000E-03 0.  1.
         23    2    1    2    0    0  0.00000000000E+00  0.00000000000E+00  0.88817841970E-15  0.91188000000E+02  0.91188000000E+02 0.  0.
    9900012    2    3    3    0    0  0.35976899812E+02 -0.50808855057E+01  0.59687881751E+01  0.54367093576E+02  0.40000021425E+02 0.  0.
         12    1    3    3    0    0 -0.35976899812E+02  0.50808855057E+01 -0.59687881751E+01  0.36820906424E+02  0.00000000000E+00 0. -1.
         11    1    4    4    0    0  0.23174215749E+02 -0.14874498551E+02 -0.84108312054E+01  0.28793003743E+02  0.51100000000E-03 0.  1.
        -11    1    4    4    0    0  0.14415035072E+02  0.11760139408E+02  0.12537239967E+02  0.22433824936E+02  0.51100000000E-03 0. -1.
         12    1    4    4    0    0 -0.16123510094E+01 -0.19665263625E+01  0.18423794138E+01  0.31402648959E+01  0.00000000000E+00 0. -1.
</event>
<event>
 8    1  0.2502398E-006  0.9118800E+02  0.7816164E-02  0.1184000E+00
        -11   -1    0    0    0    0  0.00000000000E+00  0.00000000000E+00  0.45593999997E+02  0.45594000000E+02  0.51100000000E-03 0. -1.
         11   -1    0    0    0    0 -0.00000000000E+00 -0.00000000000E+00 -0.45593999997E+02  0.45594000000E+02  0.51100000000E-03 0.  1.
         23    2    1    2    0    0  0.00000000000E+00  0.44408920985E-15 -0.35527136788E-14  0.91188000000E+02  0.91188000000E+02 0.  0.
    9900012    2    3    3    0    0  0.33509722990E+02  0.17708876852E+01  0.15157242095E+02  0.54367087926E+02  0.40000008544E+02 0.  0.
        -12    1    3    3    0    0 -0.33509722990E+02 -0.17708876852E+01 -0.15157242095E+02  0.36820912074E+02  0.00000000000E+00 0.  1.
         11    1    4    4    0    0  0.99446491705E+01  0.19126350842E+01  0.20593056308E+00  0.10128999346E+02  0.51100000000E-03 0. -1.
        -11    1    4    4    0    0  0.12284502789E+02 -0.64510346498E+01 -0.93373083500E+01  0.16724538388E+02  0.51100000000E-03 0.  1.
        -12    1    4    4    0    0  0.11280571031E+02  0.63092872508E+01  0.24288619882E+02  0.27513550192E+02  0.00000000000E+00 0.  1.
</event>
<event>
 8    1  0.2502398E-006  0.9118800E+02  0.7816164E-02  0.1184000E+00
        -11   -1    0    0    0    0  0.00000000000E+00  0.00000000000E+00  0.45593999997E+02  0.45594000000E+02  0.51100000000E-03 0.  1.
         11   -1    0    0    0    0 -0.00000000000E+00 -0.00000000000E+00 -0.45593999997E+02  0.45594000000E+02  0.51100000000E-03 0. -1.
         23    2    1    2    0    0  0.00000000000E+00  0.17763568394E-14  0.35527136788E-14  0.91188000000E+02  0.91188000000E+02 0.  0.
    9900012    2    3    3    0    0  0.17096262335E+02  0.13728558068E+02  0.29580808859E+02  0.54367085492E+02  0.40000002996E+02 0.  0.
        -12    1    3    3    0    0 -0.17096262335E+02 -0.13728558068E+02 -0.29580808859E+02  0.36820914508E+02  0.00000000000E+00 0.  1.
         11    1    4    4    0    0  0.63893803177E+01  0.87506526213E+01 -0.48649561067E+00  0.10845956868E+02  0.51100000000E-03 0. -1.
        -11    1    4    4    0    0 -0.47344073693E+01  0.74670371822E+01 -0.84043188745E+00  0.88813052778E+01  0.51100000000E-03 0.  1.
        -12    1    4    4    0    0  0.15441289387E+02 -0.24891317354E+01  0.30907736357E+02  0.34639823346E+02  0.00000000000E+00 0.  1.
</event>
<event>
 8    1  0.2502398E-006  0.9118800E+02  0.7816164E-02  0.1184000E+00
        -11   -1    0    0    0    0  0.00000000000E+00  0.00000000000E+00  0.45593999997E+02  0.45594000000E+02  0.51100000000E-03 0.  1.
         11   -1    0    0    0    0 -0.00000000000E+00 -0.00000000000E+00 -0.45593999997E+02  0.45594000000E+02  0.51100000000E-03 0. -1.
         23    2    1    2    0    0  0.00000000000E+00 -0.35527136788E-14  0.00000000000E+00  0.91188000000E+02  0.91188000000E+02 0.  0.
    9900012    2    3    3    0    0 -0.26983171422E+02  0.24884444062E+02 -0.29061550767E+01  0.54367179347E+02  0.40000216956E+02 0.  0.
        -12    1    3    3    0    0  0.26983171422E+02 -0.24884444062E+02  0.29061550767E+01  0.36820820653E+02  0.00000000000E+00 0.  1.
         11    1    4    4    0    0 -0.13009180805E+02  0.32066529648E+02 -0.10747865760E+02  0.36235586480E+02  0.51100000000E-03 0. -1.
        -11    1    4    4    0    0 -0.13473524430E+02 -0.54781021959E+01  0.73068606340E+01  0.16276844805E+02  0.51100000000E-03 0.  1.
         12    1    4    4    0    0 -0.50046618755E+00 -0.17039833898E+01  0.53485004961E+00  0.18547480619E+01  0.00000000000E+00 0. -1.
</event>
<event>
 8    1  0.2502398E-006  0.9118800E+02  0.7816164E-02  0.1184000E+00
        -11   -1    0    0    0    0  0.00000000000E+00  0.00000000000E+00  0.45593999997E+02  0.45594000000E+02  0.51100000000E-03 0.  1.
         11   -1    0    0    0    0 -0.00000000000E+00 -0.00000000000E+00 -0.45593999997E+02  0.45594000000E+02  0.51100000000E-03 0. -1.
         23    2    1    2    0    0  0.00000000000E+00  0.00000000000E+00  0.00000000000E+00  0.91188000000E+02  0.91188000000E+02 0.  0.
    9900012    2    3    3    0    0 -0.17184562759E+02  0.24439813038E+02  0.21521294118E+02  0.54367085304E+02  0.40000002567E+02 0.  0.
         12    1    3    3    0    0  0.17184562759E+02 -0.24439813038E+02 -0.21521294118E+02  0.36820914696E+02  0.00000000000E+00 0. -1.
         11    1    4    4    0    0 -0.15260860390E+02  0.37277450850E+01 -0.42121817206E+01  0.16264452600E+02  0.51100000000E-03 0. -1.
        -11    1    4    4    0    0  0.28393790440E+01 -0.28695818443E+01  0.39537919572E+01  0.56505791224E+01  0.51100000000E-03 0.  1.
        -12    1    4    4    0    0 -0.47630814131E+01  0.23581649797E+02  0.21779683881E+02  0.32452053582E+02  0.00000000000E+00 0.  1.
</event>
<event>
 8    1  0.2502398E-006  0.9118800E+02  0.7816164E-02  0.1184000E+00
        -11   -1    0    0    0    0  0.00000000000E+00  0.00000000000E+00  0.45593999997E+02  0.45594000000E+02  0.51100000000E-03 0. -1.
         11   -1    0    0    0    0 -0.00000000000E+00 -0.00000000000E+00 -0.45593999997E+02  0.45594000000E+02  0.51100000000E-03 0.  1.
         23    2    1    2    0    0  0.00000000000E+00 -0.94368957093E-15  0.00000000000E+00  0.91188000000E+02  0.91188000000E+02 0.  0.
    9900012    2    3    3    0    0  0.34000184734E+02 -0.43659384325E+00  0.14126875648E+02  0.54367193495E+02  0.40000249209E+02 0.  0.
         12    1    3    3    0    0 -0.34000184734E+02  0.43659384325E+00 -0.14126875648E+02  0.36820806505E+02  0.00000000000E+00 0. -1.
         11    1    4    4    0    0  0.24544450449E+02  0.15816918027E+02  0.10632143192E+02  0.31074867865E+02  0.51100000000E-03 0. -1.
        -11    1    4    4    0    0  0.84556480584E-01 -0.59475498343E+00 -0.36468165842E+01  0.36959646573E+01  0.51100000000E-03 0.  1.
         12    1    4    4    0    0  0.93711778043E+01 -0.15658756886E+02  0.71415490402E+01  0.19596360972E+02  0.00000000000E+00 0. -1.
</event>
<event>
 8    1  0.2502398E-006  0.9118800E+02  0.7816164E-02  0.1184000E+00
        -11   -1    0    0    0    0  0.00000000000E+00  0.00000000000E+00  0.45593999997E+02  0.45594000000E+02  0.51100000000E-03 0. -1.
         11   -1    0    0    0    0 -0.00000000000E+00 -0.00000000000E+00 -0.45593999997E+02  0.45594000000E+02  0.51100000000E-03 0.  1.
         23    2    1    2    0    0  0.00000000000E+00  0.00000000000E+00  0.00000000000E+00  0.91188000000E+02  0.91188000000E+02 0.  0.
    9900012    2    3    3    0    0  0.30805660387E+02  0.93259799152E+01  0.17883430954E+02  0.54367085889E+02  0.40000003901E+02 0.  0.
         12    1    3    3    0    0 -0.30805660387E+02 -0.93259799152E+01 -0.17883430954E+02  0.36820914111E+02  0.00000000000E+00 0. -1.
         11    1    4    4    0    0  0.50826759670E+01 -0.59424282100E+01  0.17324428967E+02  0.19007416640E+02  0.51100000000E-03 0. -1.
        -11    1    4    4    0    0  0.11229537679E+02  0.11291310666E+02  0.88258143277E+01  0.18206900116E+02  0.51100000000E-03 0.  1.
        -12    1    4    4    0    0  0.14493446742E+02  0.39770974589E+01 -0.82668123405E+01  0.17152769133E+02  0.00000000000E+00 0.  1.
</event>
<event>
 8    1  0.2502398E-006  0.9118800E+02  0.7816164E-02  0.1184000E+00
        -11   -1    0    0    0    0  0.00000000000E+00  0.00000000000E+00  0.45593999997E+02  0.45594000000E+02  0.51100000000E-03 0.  1.
         11   -1    0    0    0    0 -0.00000000000E+00 -0.00000000000E+00 -0.45593999997E+02  0.45594000000E+02  0.51100000000E-03 0. -1.
         23    2    1    2    0    0 -0.17763568394E-14  0.00000000000E+00  0.35527136788E-14  0.91188000000E+02  0.91188000000E+02 0.  0.
    9900012    2    3    3    0    0  0.10997700134E+02  0.16532220617E+02  0.31008318770E+02  0.54367088011E+02  0.40000008739E+02 0.  0.
         12    1    3    3    0    0 -0.10997700134E+02 -0.16532220617E+02 -0.31008318770E+02  0.36820911989E+02  0.00000000000E+00 0. -1.
         11    1    4    4    0    0  0.18022489167E+02  0.45069899889E+00  0.28080793613E+01  0.18245507812E+02  0.51100000000E-03 0. -1.
        -11    1    4    4    0    0 -0.59791824838E+01  0.90979756657E+00  0.31568168204E+01  0.68223051446E+01  0.51100000000E-03 0.  1.
         12    1    4    4    0    0 -0.10456065500E+01  0.15171724052E+02  0.25043422588E+02  0.29299275054E+02  0.00000000000E+00 0. -1.
</event>
<event>
 8    1  0.2502398E-006  0.9118800E+02  0.7816164E-02  0.1184000E+00
        -11   -1    0    0    0    0  0.00000000000E+00  0.00000000000E+00  0.45593999997E+02  0.45594000000E+02  0.51100000000E-03 0.  1.
         11   -1    0    0    0    0 -0.00000000000E+00 -0.00000000000E+00 -0.45593999997E+02  0.45594000000E+02  0.51100000000E-03 0. -1.
         23    2    1    2    0    0  0.00000000000E+00  0.17763568394E-14  0.00000000000E+00  0.91188000000E+02  0.91188000000E+02 0.  0.
    9900012    2    3    3    0    0 -0.44336711922E+01 -0.15427614373E+02  0.33137664963E+02  0.54367169419E+02  0.40000194325E+02 0.  0.
         12    1    3    3    0    0  0.44336711922E+01  0.15427614373E+02 -0.33137664963E+02  0.36820830581E+02  0.00000000000E+00 0. -1.
         11    1    4    4    0    0 -0.68148296094E+01 -0.18176807168E+02  0.11139159903E+02  0.22381222153E+02  0.51100000000E-03 0. -1.
        -11    1    4    4    0    0 -0.45329533019E+01 -0.81089432862E+01  0.46652477411E+01  0.10395535754E+02  0.51100000000E-03 0.  1.
        -12    1    4    4    0    0  0.69141117192E+01  0.10858136082E+02  0.17333257318E+02  0.21590411513E+02  0.00000000000E+00 0.  1.
</event>
<event>
 8    1  0.2502398E-006  0.9118800E+02  0.7816164E-02  0.1184000E+00
        -11   -1    0    0    0    0  0.00000000000E+00  0.00000000000E+00  0.45593999997E+02  0.45594000000E+02  0.51100000000E-03 0. -1.
         11   -1    0    0    0    0 -0.00000000000E+00 -0.00000000000E+00 -0.45593999997E+02  0.45594000000E+02  0.51100000000E-03 0.  1.
         23    2    1    2    0    0 -0.88817841970E-15  0.35527136788E-14  0.00000000000E+00  0.91188000000E+02  0.91188000000E+02 0.  0.
    9900012    2    3    3    0    0 -0.50040419893E+01 -0.27340698876E+02  0.24150084500E+02  0.54367070726E+02  0.39999969335E+02 0.  0.
        -12    1    3    3    0    0  0.50040419893E+01  0.27340698876E+02 -0.24150084500E+02  0.36820929274E+02  0.00000000000E+00 0.  1.
         11    1    4    4    0    0 -0.42663214837E+01 -0.25601905579E+02  0.22906288606E+02  0.34617295189E+02  0.51100000000E-03 0. -1.
        -11    1    4    4    0    0 -0.12026314876E+01 -0.61622886626E+01 -0.75954786196E+01  0.98545126606E+01  0.51100000000E-03 0.  1.
        -12    1    4    4    0    0  0.46491098210E+00  0.44234953654E+01  0.88392745136E+01  0.98952628766E+01  0.00000000000E+00 0.  1.
</event>
<event>
 8    1  0.2502398E-006  0.9118800E+02  0.7816164E-02  0.1184000E+00
        -11   -1    0    0    0    0  0.00000000000E+00  0.00000000000E+00  0.45593999997E+02  0.45594000000E+02  0.51100000000E-03 0.  1.
         11   -1    0    0    0    0 -0.00000000000E+00 -0.00000000000E+00 -0.45593999997E+02  0.45594000000E+02  0.51100000000E-03 0. -1.
         23    2    1    2    0    0 -0.17763568394E-14  0.00000000000E+00  0.17763568394E-14  0.91188000000E+02  0.91188000000E+02 0.  0.
    9900012    2    3    3    0    0 -0.10334531399E+02 -0.33470650843E+02  0.11344732052E+02  0.54366946886E+02  0.39999687015E+02 0.  0.
         12    1    3    3    0    0  0.10334531399E+02  0.33470650843E+02 -0.11344732052E+02  0.36821053114E+02  0.00000000000E+00 0. -1.
         11    1    4    4    0    0 -0.12001410350E+02 -0.10219094154E+02 -0.59279999631E+01  0.16840573611E+02  0.51100000000E-03 0. -1.
        -11    1    4    4    0    0 -0.30685788021E+01 -0.26684771735E+02  0.11221552976E+02  0.29110418580E+02  0.51100000000E-03 0.  1.
        -12    1    4    4    0    0  0.47354577524E+01  0.34332150466E+01  0.60511790386E+01  0.84159546956E+01  0.00000000000E+00 0.  1.
</event>
<event>
 8    1  0.2502398E-006  0.9118800E+02  0.7816164E-02  0.1184000E+00
        -11   -1    0    0    0    0  0.00000000000E+00  0.00000000000E+00  0.45593999997E+02  0.45594000000E+02  0.51100000000E-03 0.  1.
         11   -1    0    0    0    0 -0.00000000000E+00 -0.00000000000E+00 -0.45593999997E+02  0.45594000000E+02  0.51100000000E-03 0. -1.
         23    2    1    2    0    0  0.00000000000E+00  0.00000000000E+00  0.17763568394E-14  0.91188000000E+02  0.91188000000E+02 0.  0.
    9900012    2    3    3    0    0 -0.29771905972E+02  0.17025450457E+02 -0.13399627744E+02  0.54367049821E+02  0.39999921676E+02 0.  0.
        -12    1    3    3    0    0  0.29771905972E+02 -0.17025450457E+02  0.13399627744E+02  0.36820950179E+02  0.00000000000E+00 0.  1.
         11    1    4    4    0    0 -0.21866843630E+02 -0.36049971108E+01  0.46574086680E+01  0.22646110268E+02  0.51100000000E-03 0. -1.
        -11    1    4    4    0    0 -0.47492060825E+01  0.96845887218E+01 -0.17193078418E+02  0.20296506174E+02  0.51100000000E-03 0.  1.
        -12    1    4    4    0    0 -0.31558562591E+01  0.10945858846E+02 -0.86395799385E+00  0.11424433378E+02  0.00000000000E+00 0.  1.
</event>
<event>
 8    1  0.2502398E-006  0.9118800E+02  0.7816164E-02  0.1184000E+00
        -11   -1    0    0    0    0  0.00000000000E+00  0.00000000000E+00  0.45593999997E+02  0.45594000000E+02  0.51100000000E-03 0.  1.
         11   -1    0    0    0    0 -0.00000000000E+00 -0.00000000000E+00 -0.45593999997E+02  0.45594000000E+02  0.51100000000E-03 0. -1.
         23    2    1    2    0    0  0.25535129566E-14  0.44408920985E-15  0.00000000000E+00  0.91188000000E+02  0.91188000000E+02 0.  0.
    9900012    2    3    3    0    0  0.93501429097E+00  0.22742499647E+01  0.36738724538E+02  0.54367077343E+02  0.39999984418E+02 0.  0.
         12    1    3    3    0    0 -0.93501429097E+00 -0.22742499647E+01 -0.36738724538E+02  0.36820922657E+02  0.00000000000E+00 0. -1.
         11    1    4    4    0    0  0.14593642921E+02  0.30019752698E+01  0.19621016355E+02  0.24636772359E+02  0.51100000000E-03 0. -1.
        -11    1    4    4    0    0 -0.17609198216E+02 -0.14137424240E+01  0.72804705061E+01  0.19107270358E+02  0.51100000000E-03 0.  1.
        -12    1    4    4    0    0  0.39505695868E+01  0.68601711889E+00  0.98372376769E+01  0.10623034626E+02  0.00000000000E+00 0.  1.
</event>
<event>
 8    1  0.2502398E-006  0.9118800E+02  0.7816164E-02  0.1184000E+00
        -11   -1    0    0    0    0  0.00000000000E+00  0.00000000000E+00  0.45593999997E+02  0.45594000000E+02  0.51100000000E-03 0. -1.
         11   -1    0    0    0    0 -0.00000000000E+00 -0.00000000000E+00 -0.45593999997E+02  0.45594000000E+02  0.51100000000E-03 0.  1.
         23    2    1    2    0    0  0.00000000000E+00  0.17763568394E-14 -0.35527136788E-14  0.91188000000E+02  0.91188000000E+02 0.  0.
    9900012    2    3    3    0    0 -0.12993524836E+02 -0.15498160884E+02  0.30769403020E+02  0.54367070617E+02  0.39999969085E+02 0.  0.
        -12    1    3    3    0    0  0.12993524836E+02  0.15498160884E+02 -0.30769403020E+02  0.36820929383E+02  0.00000000000E+00 0.  1.
         11    1    4    4    0    0 -0.19519741981E+02 -0.18195690615E+02  0.44129354986E+01  0.27047689068E+02  0.51100000000E-03 0. -1.
        -11    1    4    4    0    0  0.28644458086E+01  0.12027741646E+01  0.91082312279E+01  0.96234916659E+01  0.51100000000E-03 0.  1.
         12    1    4    4    0    0  0.36617713366E+01  0.14947555662E+01  0.17248236293E+02  0.17695889883E+02  0.00000000000E+00 0. -1.
</event>
<event>
 8    1  0.2502398E-006  0.9118800E+02  0.7816164E-02  0.1184000E+00
        -11   -1    0    0    0    0  0.00000000000E+00  0.00000000000E+00  0.45593999997E+02  0.45594000000E+02  0.51100000000E-03 0.  1.
         11   -1    0    0    0    0 -0.00000000000E+00 -0.00000000000E+00 -0.45593999997E+02  0.45594000000E+02  0.51100000000E-03 0. -1.
         23    2    1    2    0    0  0.35527136788E-14  0.00000000000E+00 -0.35527136788E-14  0.91188000000E+02  0.91188000000E+02 0.  0.
    9900012    2    3    3    0    0 -0.16523104649E+02 -0.26807051679E+02  0.19082676125E+02  0.54367088346E+02  0.40000009502E+02 0.  0.
         12    1    3    3    0    0  0.16523104649E+02  0.26807051679E+02 -0.19082676125E+02  0.36820911654E+02  0.00000000000E+00 0. -1.
         11    1    4    4    0    0  0.11809119530E+00 -0.46249117304E+01 -0.88153226618E+01  0.99555847612E+01  0.51100000000E-03 0. -1.
        -11    1    4    4    0    0 -0.56123364644E+01  0.34460998368E+01  0.42577957506E+01  0.78423688762E+01  0.51100000000E-03 0.  1.
         12    1    4    4    0    0 -0.11028859380E+02 -0.25628239786E+02  0.23640203036E+02  0.36569134708E+02  0.00000000000E+00 0. -1.
</event>
<event>
 8    1  0.2502398E-006  0.9118800E+02  0.7816164E-02  0.1184000E+00
        -11   -1    0    0    0    0  0.00000000000E+00  0.00000000000E+00  0.45593999997E+02  0.45594000000E+02  0.51100000000E-03 0.  1.
         11   -1    0    0    0    0 -0.00000000000E+00 -0.00000000000E+00 -0.45593999997E+02  0.45594000000E+02  0.51100000000E-03 0. -1.
         23    2    1    2    0    0  0.00000000000E+00  0.35527136788E-14  0.35527136788E-14  0.91188000000E+02  0.91188000000E+02 0.  0.
    9900012    2    3    3    0    0 -0.93906188149E+01 -0.26581924698E+02  0.23685407913E+02  0.54367068584E+02  0.39999964450E+02 0.  0.
         12    1    3    3    0    0  0.93906188149E+01  0.26581924698E+02 -0.23685407913E+02  0.36820931416E+02  0.00000000000E+00 0. -1.
         11    1    4    4    0    0 -0.15085266839E+02  0.16463570573E+01  0.20397558613E+01  0.15311315142E+02  0.51100000000E-03 0. -1.
        -11    1    4    4    0    0 -0.38377094984E+01 -0.15012992497E+01  0.24001736332E+01  0.47689356635E+01  0.51100000000E-03 0.  1.
         12    1    4    4    0    0  0.95323575222E+01 -0.26726982505E+02  0.19245478419E+02  0.34286817778E+02  0.00000000000E+00 0. -1.
</event>
<event>
 8    1  0.2502398E-006  0.9118800E+02  0.7816164E-02  0.1184000E+00
        -11   -1    0    0    0    0  0.00000000000E+00  0.00000000000E+00  0.45593999997E+02  0.45594000000E+02  0.51100000000E-03 0. -1.
         11   -1    0    0    0    0 -0.00000000000E+00 -0.00000000000E+00 -0.45593999997E+02  0.45594000000E+02  0.51100000000E-03 0.  1.
         23    2    1    2    0    0 -0.17763568394E-14  0.00000000000E+00  0.13322676296E-14  0.91188000000E+02  0.91188000000E+02 0.  0.
    9900012    2    3    3    0    0 -0.14876019578E+02  0.33588247874E+02  0.25122931470E+01  0.54367109590E+02  0.40000057933E+02 0.  0.
        -12    1    3    3    0    0  0.14876019578E+02 -0.33588247874E+02 -0.25122931470E+01  0.36820890410E+02  0.00000000000E+00 0.  1.
         11    1    4    4    0    0 -0.87097084847E+01  0.26917487857E+02 -0.42097627565E+01  0.28603011680E+02  0.51100000000E-03 0.  1.
        -11    1    4    4    0    0 -0.14684436629E+01 -0.23450029360E+01 -0.76641496274E+01  0.81482854229E+01  0.51100000000E-03 0. -1.
         12    1    4    4    0    0 -0.46978674303E+01  0.90157629527E+01  0.14386205531E+02  0.17615812487E+02  0.00000000000E+00 0. -1.
</event>
<event>
 8    1  0.2502398E-006  0.9118800E+02  0.7816164E-02  0.1184000E+00
        -11   -1    0    0    0    0  0.00000000000E+00  0.00000000000E+00  0.45593999997E+02  0.45594000000E+02  0.51100000000E-03 0. -1.
         11   -1    0    0    0    0 -0.00000000000E+00 -0.00000000000E+00 -0.45593999997E+02  0.45594000000E+02  0.51100000000E-03 0.  1.
         23    2    1    2    0    0 -0.35527136788E-14  0.17763568394E-14  0.35527136788E-14  0.91188000000E+02  0.91188000000E+02 0.  0.
    9900012    2    3    3    0    0 -0.24274410675E+02 -0.55025305920E+01  0.27134023129E+02  0.54367081113E+02  0.39999993013E+02 0.  0.
        -12    1    3    3    0    0  0.24274410675E+02  0.55025305920E+01 -0.27134023129E+02  0.36820918887E+02  0.00000000000E+00 0.  1.
         11    1    4    4    0    0 -0.80312151920E+01  0.31926517010E+01  0.20155032611E+02  0.21929860514E+02  0.51100000000E-03 0. -1.
        -11    1    4    4    0    0 -0.72819822500E+01 -0.15758978656E+02 -0.25813590914E+01  0.17550956920E+02  0.51100000000E-03 0.  1.
        -12    1    4    4    0    0 -0.89612132331E+01  0.70637963634E+01  0.95603496095E+01  0.14886263679E+02  0.00000000000E+00 0.  1.
</event>
<event>
 8    1  0.2502398E-006  0.9118800E+02  0.7816164E-02  0.1184000E+00
        -11   -1    0    0    0    0  0.00000000000E+00  0.00000000000E+00  0.45593999997E+02  0.45594000000E+02  0.51100000000E-03 0.  1.
         11   -1    0    0    0    0 -0.00000000000E+00 -0.00000000000E+00 -0.45593999997E+02  0.45594000000E+02  0.51100000000E-03 0. -1.
         23    2    1    2    0    0  0.17763568394E-14  0.17763568394E-14  0.00000000000E+00  0.91188000000E+02  0.91188000000E+02 0.  0.
    9900012    2    3    3    0    0  0.16134229513E+01  0.87245354977E+01  0.35735956685E+02  0.54367092169E+02  0.40000018218E+02 0.  0.
         12    1    3    3    0    0 -0.16134229513E+01 -0.87245354977E+01 -0.35735956685E+02  0.36820907831E+02  0.00000000000E+00 0. -1.
         11    1    4    4    0    0 -0.15439287752E+02  0.14318944939E+00  0.16304283984E+02  0.22454883344E+02  0.51100000000E-03 0. -1.
        -11    1    4    4    0    0  0.39129582132E+01 -0.46142874929E+01  0.19136834662E+01  0.63454767917E+01  0.51100000000E-03 0.  1.
        -12    1    4    4    0    0  0.13139752490E+02  0.13195633541E+02  0.17517989235E+02  0.25566732034E+02  0.00000000000E+00 0.  1.
</event>
<event>
 8    1  0.2502398E-006  0.9118800E+02  0.7816164E-02  0.1184000E+00
        -11   -1    0    0    0    0  0.00000000000E+00  0.00000000000E+00  0.45593999997E+02  0.45594000000E+02  0.51100000000E-03 0.  1.
         11   -1    0    0    0    0 -0.00000000000E+00 -0.00000000000E+00 -0.45593999997E+02  0.45594000000E+02  0.51100000000E-03 0. -1.
         23    2    1    2    0    0  0.00000000000E+00  0.00000000000E+00 -0.88817841970E-15  0.91188000000E+02  0.91188000000E+02 0.  0.
    9900012    2    3    3    0    0  0.23837153953E+02 -0.27558506048E+02  0.53001944110E+01  0.54367174032E+02  0.40000204840E+02 0.  0.
        -12    1    3    3    0    0 -0.23837153953E+02  0.27558506048E+02 -0.53001944110E+01  0.36820825968E+02  0.00000000000E+00 0.  1.
         11    1    4    4    0    0  0.61393536091E+01 -0.12546743194E+02 -0.12031951245E+02  0.18435842225E+02  0.51100000000E-03 0. -1.
        -11    1    4    4    0    0  0.95998194772E+01  0.43097413585E+01  0.59849621612E+01  0.12105791048E+02  0.51100000000E-03 0.  1.
         12    1    4    4    0    0  0.80979808670E+01 -0.19321504212E+02  0.11347183495E+02  0.23825540758E+02  0.00000000000E+00 0. -1.
</event>
<event>
 8    1  0.2502398E-006  0.9118800E+02  0.7816164E-02  0.1184000E+00
        -11   -1    0    0    0    0  0.00000000000E+00  0.00000000000E+00  0.45593999997E+02  0.45594000000E+02  0.51100000000E-03 0.  1.
         11   -1    0    0    0    0 -0.00000000000E+00 -0.00000000000E+00 -0.45593999997E+02  0.45594000000E+02  0.51100000000E-03 0. -1.
         23    2    1    2    0    0  0.88817841970E-15  0.17763568394E-14 -0.71054273576E-14  0.91188000000E+02  0.91188000000E+02 0.  0.
    9900012    2    3    3    0    0  0.56515140942E+01  0.78276474167E+01 -0.35532691491E+02  0.54367029885E+02  0.39999876229E+02 0.  0.
        -12    1    3    3    0    0 -0.56515140942E+01 -0.78276474167E+01  0.35532691491E+02  0.36820970115E+02  0.00000000000E+00 0.  1.
         11    1    4    4    0    0 -0.79945406399E+01 -0.15118268022E+01 -0.22406813836E+02  0.23838280283E+02  0.51100000000E-03 0. -1.
        -11    1    4    4    0    0  0.46626118067E+01  0.28975802474E+00  0.59614899398E+01  0.75738544438E+01  0.51100000000E-03 0.  1.
         12    1    4    4    0    0  0.89834429275E+01  0.90497161942E+01 -0.19087367594E+02  0.22954895158E+02  0.00000000000E+00 0. -1.
</event>
<event>
 8    1  0.2502398E-006  0.9118800E+02  0.7816164E-02  0.1184000E+00
        -11   -1    0    0    0    0  0.00000000000E+00  0.00000000000E+00  0.45593999997E+02  0.45594000000E+02  0.51100000000E-03 0.  1.
         11   -1    0    0    0    0 -0.00000000000E+00 -0.00000000000E+00 -0.45593999997E+02  0.45594000000E+02  0.51100000000E-03 0. -1.
         23    2    1    2    0    0  0.00000000000E+00  0.00000000000E+00  0.17763568394E-14  0.91188000000E+02  0.91188000000E+02 0.  0.
    9900012    2    3    3    0    0 -0.25684269263E+02  0.23156123707E+02  0.12644797220E+02  0.54367100371E+02  0.40000036916E+02 0.  0.
         12    1    3    3    0    0  0.25684269263E+02 -0.23156123707E+02 -0.12644797220E+02  0.36820899629E+02  0.00000000000E+00 0. -1.
         11    1    4    4    0    0 -0.95226775438E+01 -0.14823533176E+01 -0.77624574921E+01  0.12374752747E+02  0.51100000000E-03 0. -1.
        -11    1    4    4    0    0 -0.13333301671E+02  0.16722216990E+02  0.16657670350E+01  0.21451905616E+02  0.51100000000E-03 0.  1.
        -12    1    4    4    0    0 -0.28282900489E+01  0.79162600350E+01  0.18741487677E+02  0.20540442008E+02  0.00000000000E+00 0.  1.
</event>
<event>
 8    1  0.2502398E-006  0.9118800E+02  0.7816164E-02  0.1184000E+00
        -11   -1    0    0    0    0  0.00000000000E+00  0.00000000000E+00  0.45593999997E+02  0.45594000000E+02  0.51100000000E-03 0. -1.
         11   -1    0    0    0    0 -0.00000000000E+00 -0.00000000000E+00 -0.45593999997E+02  0.45594000000E+02  0.51100000000E-03 0.  1.
         23    2    1    2    0    0 -0.44408920985E-15 -0.35527136788E-14  0.00000000000E+00  0.91188000000E+02  0.91188000000E+02 0.  0.
    9900012    2    3    3    0    0 -0.38950209597E+01  0.31837478972E+02  0.18082757229E+02  0.54367049923E+02  0.39999921909E+02 0.  0.
        -12    1    3    3    0    0  0.38950209597E+01 -0.31837478972E+02 -0.18082757229E+02  0.36820950077E+02  0.00000000000E+00 0.  1.
         11    1    4    4    0    0 -0.31131855738E+00  0.14345262467E+02 -0.65157298053E+00  0.14363426544E+02  0.51100000000E-03 0. -1.
        -11    1    4    4    0    0 -0.39397750151E+01 -0.84905561312E+01  0.48838694964E+01  0.10557630042E+02  0.51100000000E-03 0.  1.
        -12    1    4    4    0    0  0.35607261282E+00  0.25982772637E+02  0.13850460713E+02  0.29445993336E+02  0.00000000000E+00 0.  1.
</event>
<event>
 8    1  0.2502398E-006  0.9118800E+02  0.7816164E-02  0.1184000E+00
        -11   -1    0    0    0    0  0.00000000000E+00  0.00000000000E+00  0.45593999997E+02  0.45594000000E+02  0.51100000000E-03 0.  1.
         11   -1    0    0    0    0 -0.00000000000E+00 -0.00000000000E+00 -0.45593999997E+02  0.45594000000E+02  0.51100000000E-03 0. -1.
         23    2    1    2    0    0  0.00000000000E+00 -0.17763568394E-14  0.00000000000E+00  0.91188000000E+02  0.91188000000E+02 0.  0.
    9900012    2    3    3    0    0 -0.26266204990E+02  0.15802257838E+02 -0.20399832653E+02  0.54367108517E+02  0.40000055486E+02 0.  0.
        -12    1    3    3    0    0  0.26266204990E+02 -0.15802257838E+02  0.20399832653E+02  0.36820891483E+02  0.00000000000E+00 0.  1.
         11    1    4    4    0    0 -0.27678094458E+02  0.51182584923E+01 -0.23986184033E+01  0.28249369079E+02  0.51100000000E-03 0. -1.
        -11    1    4    4    0    0 -0.97689706210E+00  0.69555303002E+01  0.55006670554E+00  0.70453036321E+01  0.51100000000E-03 0.  1.
         12    1    4    4    0    0  0.23887865302E+01  0.37284690451E+01 -0.18551280955E+02  0.19072435806E+02  0.00000000000E+00 0. -1.
</event>
<event>
 8    1  0.2502398E-006  0.9118800E+02  0.7816164E-02  0.1184000E+00
        -11   -1    0    0    0    0  0.00000000000E+00  0.00000000000E+00  0.45593999997E+02  0.45594000000E+02  0.51100000000E-03 0. -1.
         11   -1    0    0    0    0 -0.00000000000E+00 -0.00000000000E+00 -0.45593999997E+02  0.45594000000E+02  0.51100000000E-03 0.  1.
         23    2    1    2    0    0  0.00000000000E+00  0.00000000000E+00 -0.27755575616E-15  0.91188000000E+02  0.91188000000E+02 0.  0.
    9900012    2    3    3    0    0 -0.12522594855E+02 -0.34624527897E+02  0.32616008841E+00  0.54367086182E+02  0.40000004569E+02 0.  0.
        -12    1    3    3    0    0  0.12522594855E+02  0.34624527897E+02 -0.32616008841E+00  0.36820913818E+02  0.00000000000E+00 0.  1.
         11    1    4    4    0    0 -0.80040886279E+01 -0.34447691256E+02  0.66229659197E+01  0.35980168780E+02  0.51100000000E-03 0. -1.
        -11    1    4    4    0    0  0.51721855874E+01 -0.22143403015E+01  0.14546963021E+01  0.58112776834E+01  0.51100000000E-03 0.  1.
        -12    1    4    4    0    0 -0.96906918142E+01  0.20375036601E+01 -0.77515021334E+01  0.12575639718E+02  0.00000000000E+00 0.  1.
</event>
<event>
 8    1  0.2502398E-006  0.9118800E+02  0.7816164E-02  0.1184000E+00
        -11   -1    0    0    0    0  0.00000000000E+00  0.00000000000E+00  0.45593999997E+02  0.45594000000E+02  0.51100000000E-03 0. -1.
         11   -1    0    0    0    0 -0.00000000000E+00 -0.00000000000E+00 -0.45593999997E+02  0.45594000000E+02  0.51100000000E-03 0.  1.
         23    2    1    2    0    0  0.35527136788E-14  0.00000000000E+00  0.00000000000E+00  0.91188000000E+02  0.91188000000E+02 0.  0.
    9900012    2    3    3    0    0 -0.27459099547E+02  0.13332410374E+02 -0.20591855863E+02  0.54367084175E+02  0.39999999994E+02 0.  0.
         12    1    3    3    0    0  0.27459099547E+02 -0.13332410374E+02  0.20591855863E+02  0.36820915825E+02  0.00000000000E+00 0. -1.
         11    1    4    4    0    0 -0.19570091444E+02  0.20884985413E+02 -0.15346320534E+02  0.32475847164E+02  0.51100000000E-03 0. -1.
        -11    1    4    4    0    0 -0.85372552281E+01  0.35642513262E+01 -0.54808101044E+01  0.10753041152E+02  0.51100000000E-03 0.  1.
         12    1    4    4    0    0  0.64824712590E+00 -0.11116826366E+02  0.23527477495E+00  0.11138195859E+02  0.00000000000E+00 0. -1.
</event>
<event>
 8    1  0.2502398E-006  0.9118800E+02  0.7816164E-02  0.1184000E+00
        -11   -1    0    0    0    0  0.00000000000E+00  0.00000000000E+00  0.45593999997E+02  0.45594000000E+02  0.51100000000E-03 0. -1.
         11   -1    0    0    0    0 -0.00000000000E+00 -0.00000000000E+00 -0.45593999997E+02  0.45594000000E+02  0.51100000000E-03 0.  1.
         23    2    1    2    0    0  0.00000000000E+00  0.17763568394E-14  0.44408920985E-15  0.91188000000E+02  0.91188000000E+02 0.  0.
    9900012    2    3    3    0    0 -0.35042930816E+02 -0.11020631976E+02 -0.25136554834E+01  0.54367084840E+02  0.40000001509E+02 0.  0.
         12    1    3    3    0    0  0.35042930816E+02  0.11020631976E+02  0.25136554834E+01  0.36820915160E+02  0.00000000000E+00 0. -1.
         11    1    4    4    0    0  0.30025448826E+01 -0.15452484198E+01 -0.48648197625E+00  0.34117053544E+01  0.51100000000E-03 0. -1.
        -11    1    4    4    0    0  0.40137112305E+01 -0.34678369774E+01 -0.63223528542E+01  0.82527520875E+01  0.51100000000E-03 0.  1.
        -12    1    4    4    0    0 -0.42059186929E+02 -0.60075465787E+01  0.42951793470E+01  0.42702627398E+02  0.00000000000E+00 0.  1.
</event>
<event>
 8    1  0.2502398E-006  0.9118800E+02  0.7816164E-02  0.1184000E+00
        -11   -1    0    0    0    0  0.00000000000E+00  0.00000000000E+00  0.45593999997E+02  0.45594000000E+02  0.51100000000E-03 0.  1.
         11   -1    0    0    0    0 -0.00000000000E+00 -0.00000000000E+00 -0.45593999997E+02  0.45594000000E+02  0.51100000000E-03 0. -1.
         23    2    1    2    0    0  0.35527136788E-14  0.00000000000E+00 -0.71054273576E-14  0.91188000000E+02  0.91188000000E+02 0.  0.
    9900012    2    3    3    0    0  0.16217783384E+02  0.24571177835E+01 -0.32965516481E+02  0.54367092861E+02  0.40000019794E+02 0.  0.
        -12    1    3    3    0    0 -0.16217783384E+02 -0.24571177835E+01  0.32965516481E+02  0.36820907139E+02  0.00000000000E+00 0.  1.
         11    1    4    4    0    0  0.19435526531E+02  0.98344583489E+01 -0.17457098928E+02  0.27914271722E+02  0.51100000000E-03 0. -1.
        -11    1    4    4    0    0 -0.28742002597E+01  0.64580392489E+01 -0.81154128197E+01  0.10762305681E+02  0.51100000000E-03 0.  1.
         12    1    4    4    0    0 -0.34354288782E+00 -0.13835379814E+02 -0.73930047341E+01  0.15690515457E+02  0.00000000000E+00 0. -1.
</event>
<event>
 8    1  0.2502398E-006  0.9118800E+02  0.7816164E-02  0.1184000E+00
        -11   -1    0    0    0    0  0.00000000000E+00  0.00000000000E+00  0.45593999997E+02  0.45594000000E+02  0.51100000000E-03 0. -1.
         11   -1    0    0    0    0 -0.00000000000E+00 -0.00000000000E+00 -0.45593999997E+02  0.45594000000E+02  0.51100000000E-03 0.  1.
         23    2    1    2    0    0  0.00000000000E+00  0.00000000000E+00  0.00000000000E+00  0.91188000000E+02  0.91188000000E+02 0.  0.
    9900012    2    3    3    0    0  0.92929237332E+01  0.52880844754E+01  0.35234327304E+02  0.54367080817E+02  0.39999992339E+02 0.  0.
        -12    1    3    3    0    0 -0.92929237332E+01 -0.52880844754E+01 -0.35234327304E+02  0.36820919183E+02  0.00000000000E+00 0.  1.
         11    1    4    4    0    0  0.13066120106E+02  0.11065853229E+02  0.29367326507E+02  0.33994359367E+02  0.51100000000E-03 0. -1.
        -11    1    4    4    0    0 -0.10758982990E+02 -0.60709959785E+01  0.50003675531E+01  0.13327279658E+02  0.51100000000E-03 0.  1.
        -12    1    4    4    0    0  0.69857866174E+01  0.29322722499E+00  0.86663324321E+00  0.70454417922E+01  0.00000000000E+00 0.  1.
</event>
<event>
 8    1  0.2502398E-006  0.9118800E+02  0.7816164E-02  0.1184000E+00
        -11   -1    0    0    0    0  0.00000000000E+00  0.00000000000E+00  0.45593999997E+02  0.45594000000E+02  0.51100000000E-03 0. -1.
         11   -1    0    0    0    0 -0.00000000000E+00 -0.00000000000E+00 -0.45593999997E+02  0.45594000000E+02  0.51100000000E-03 0.  1.
         23    2    1    2    0    0  0.35527136788E-14  0.00000000000E+00  0.00000000000E+00  0.91188000000E+02  0.91188000000E+02 0.  0.
    9900012    2    3    3    0    0 -0.23910422657E+02  0.19232863239E+02 -0.20351143865E+02  0.54367076647E+02  0.39999982832E+02 0.  0.
         12    1    3    3    0    0  0.23910422657E+02 -0.19232863239E+02  0.20351143865E+02  0.36820923353E+02  0.00000000000E+00 0. -1.
         11    1    4    4    0    0 -0.38632751534E+00  0.99017019816E+00  0.21852676326E+01  0.24300372132E+01  0.51100000000E-03 0. -1.
        -11    1    4    4    0    0  0.75470217241E+01  0.12192466677E+02 -0.11608504767E+02  0.18449150760E+02  0.51100000000E-03 0.  1.
        -12    1    4    4    0    0 -0.31071116865E+02  0.60502263634E+01 -0.10927906731E+02  0.33487888674E+02  0.00000000000E+00 0.  1.
</event>
<event>
 8    1  0.2502398E-006  0.9118800E+02  0.7816164E-02  0.1184000E+00
        -11   -1    0    0    0    0  0.00000000000E+00  0.00000000000E+00  0.45593999997E+02  0.45594000000E+02  0.51100000000E-03 0.  1.
         11   -1    0    0    0    0 -0.00000000000E+00 -0.00000000000E+00 -0.45593999997E+02  0.45594000000E+02  0.51100000000E-03 0. -1.
         23    2    1    2    0    0  0.71054273576E-14  0.00000000000E+00  0.00000000000E+00  0.91188000000E+02  0.91188000000E+02 0.  0.
    9900012    2    3    3    0    0  0.32923880991E+02  0.12544350022E+02  0.10697526500E+02  0.54367085695E+02  0.40000003459E+02 0.  0.
         12    1    3    3    0    0 -0.32923880991E+02 -0.12544350022E+02 -0.10697526500E+02  0.36820914305E+02  0.00000000000E+00 0. -1.
         11    1    4    4    0    0 -0.64689928140E+01 -0.86300295716E+00  0.40814454116E+01  0.76974566605E+01  0.51100000000E-03 0. -1.
        -11    1    4    4    0    0  0.19354102843E+02  0.40474430992E+01  0.12983312218E+02  0.23654375682E+02  0.51100000000E-03 0.  1.
        -12    1    4    4    0    0  0.20038770962E+02  0.93599098803E+01 -0.63672311291E+01  0.23015253353E+02  0.00000000000E+00 0.  1.
</event>
<event>
 8    1  0.2502398E-006  0.9118800E+02  0.7816164E-02  0.1184000E+00
        -11   -1    0    0    0    0  0.00000000000E+00  0.00000000000E+00  0.45593999997E+02  0.45594000000E+02  0.51100000000E-03 0.  1.
         11   -1    0    0    0    0 -0.00000000000E+00 -0.00000000000E+00 -0.45593999997E+02  0.45594000000E+02  0.51100000000E-03 0. -1.
         23    2    1    2    0    0  0.00000000000E+00  0.35527136788E-14  0.44408920985E-15  0.91188000000E+02  0.91188000000E+02 0.  0.
    9900012    2    3    3    0    0  0.31306314946E+02 -0.19174358111E+02  0.28355376824E+01  0.54367059784E+02  0.39999944390E+02 0.  0.
         12    1    3    3    0    0 -0.31306314946E+02  0.19174358111E+02 -0.28355376824E+01  0.36820940216E+02  0.00000000000E+00 0. -1.
         11    1    4    4    0    0 -0.23969459767E+01 -0.34067862935E+01 -0.29759951833E+01  0.51193837966E+01  0.51100000000E-03 0. -1.
        -11    1    4    4    0    0 -0.23331647249E+01 -0.65784558631E+01  0.95960078517E+01  0.11866048463E+02  0.51100000000E-03 0.  1.
         12    1    4    4    0    0  0.36036425647E+02 -0.91891159541E+01 -0.37844749860E+01  0.37381627524E+02  0.00000000000E+00 0. -1.
</event>
<event>
 8    1  0.2502398E-006  0.9118800E+02  0.7816164E-02  0.1184000E+00
        -11   -1    0    0    0    0  0.00000000000E+00  0.00000000000E+00  0.45593999997E+02  0.45594000000E+02  0.51100000000E-03 0.  1.
         11   -1    0    0    0    0 -0.00000000000E+00 -0.00000000000E+00 -0.45593999997E+02  0.45594000000E+02  0.51100000000E-03 0. -1.
         23    2    1    2    0    0 -0.44408920985E-14  0.00000000000E+00  0.00000000000E+00  0.91188000000E+02  0.91188000000E+02 0.  0.
    9900012    2    3    3    0    0  0.72015511076E+01 -0.25512373716E+02  0.25554577001E+02  0.54367082621E+02  0.39999996450E+02 0.  0.
         12    1    3    3    0    0 -0.72015511076E+01  0.25512373716E+02 -0.25554577001E+02  0.36820917379E+02  0.00000000000E+00 0. -1.
         11    1    4    4    0    0 -0.92793670872E+01 -0.22125320442E+02  0.19745189381E+02  0.31072640090E+02  0.51100000000E-03 0. -1.
        -11    1    4    4    0    0  0.13821367930E+02 -0.86929790048E+01  0.58929104006E+01  0.17358700662E+02  0.51100000000E-03 0.  1.
         12    1    4    4    0    0  0.26595502650E+01  0.53059257310E+01 -0.83522780500E-01  0.59357418686E+01  0.00000000000E+00 0. -1.
</event>
<event>
 8    1  0.2502398E-006  0.9118800E+02  0.7816164E-02  0.1184000E+00
        -11   -1    0    0    0    0  0.00000000000E+00  0.00000000000E+00  0.45593999997E+02  0.45594000000E+02  0.51100000000E-03 0. -1.
         11   -1    0    0    0    0 -0.00000000000E+00 -0.00000000000E+00 -0.45593999997E+02  0.45594000000E+02  0.51100000000E-03 0.  1.
         23    2    1    2    0    0  0.71054273576E-14 -0.17763568394E-14 -0.26645352591E-14  0.91188000000E+02  0.91188000000E+02 0.  0.
    9900012    2    3    3    0    0 -0.33216732071E+02  0.14899572998E+02 -0.55165337925E+01  0.54367072390E+02  0.39999973128E+02 0.  0.
         12    1    3    3    0    0  0.33216732071E+02 -0.14899572998E+02  0.55165337925E+01  0.36820927610E+02  0.00000000000E+00 0. -1.
         11    1    4    4    0    0 -0.13742377188E+02  0.79523434596E+01 -0.18309055882E+02  0.24234566735E+02  0.51100000000E-03 0.  1.
        -11    1    4    4    0    0 -0.16860471695E+02  0.10873460434E+02  0.44519549972E+01  0.20550609508E+02  0.51100000000E-03 0. -1.
         12    1    4    4    0    0 -0.26138831876E+01 -0.39262308960E+01  0.83405670921E+01  0.95818961477E+01  0.00000000000E+00 0. -1.
</event>
<event>
 8    1  0.2502398E-006  0.9118800E+02  0.7816164E-02  0.1184000E+00
        -11   -1    0    0    0    0  0.00000000000E+00  0.00000000000E+00  0.45593999997E+02  0.45594000000E+02  0.51100000000E-03 0.  1.
         11   -1    0    0    0    0 -0.00000000000E+00 -0.00000000000E+00 -0.45593999997E+02  0.45594000000E+02  0.51100000000E-03 0. -1.
         23    2    1    2    0    0 -0.44408920985E-15 -0.44408920985E-15  0.00000000000E+00  0.91188000000E+02  0.91188000000E+02 0.  0.
    9900012    2    3    3    0    0  0.37622811806E+01 -0.21458435758E+01  0.36565281945E+02  0.54367092243E+02  0.40000018386E+02 0.  0.
         12    1    3    3    0    0 -0.37622811806E+01  0.21458435758E+01 -0.36565281945E+02  0.36820907757E+02  0.00000000000E+00 0. -1.
         11    1    4    4    0    0 -0.13952457521E+01 -0.18449200726E+02  0.29520969438E+02  0.34839738159E+02  0.51100000000E-03 0. -1.
        -11    1    4    4    0    0  0.14544987804E+01  0.10026642644E+02  0.68634366698E+01  0.12237479013E+02  0.51100000000E-03 0.  1.
         12    1    4    4    0    0  0.37030281523E+01  0.62767145060E+01  0.18087583682E+00  0.72898750713E+01  0.00000000000E+00 0. -1.
</event>
<event>
 8    1  0.2502398E-006  0.9118800E+02  0.7816164E-02  0.1184000E+00
        -11   -1    0    0    0    0  0.00000000000E+00  0.00000000000E+00  0.45593999997E+02  0.45594000000E+02  0.51100000000E-03 0.  1.
         11   -1    0    0    0    0 -0.00000000000E+00 -0.00000000000E+00 -0.45593999997E+02  0.45594000000E+02  0.51100000000E-03 0. -1.
         23    2    1    2    0    0  0.00000000000E+00  0.35527136788E-14  0.88817841970E-15  0.91188000000E+02  0.91188000000E+02 0.  0.
    9900012    2    3    3    0    0 -0.30077488067E+02 -0.20688416046E+02  0.48077091449E+01  0.54367083198E+02  0.39999997767E+02 0.  0.
         12    1    3    3    0    0  0.30077488067E+02  0.20688416046E+02 -0.48077091449E+01  0.36820916802E+02  0.00000000000E+00 0. -1.
         11    1    4    4    0    0 -0.21051002452E+02  0.13082478301E+01  0.24679950930E+01  0.21235517810E+02  0.51100000000E-03 0. -1.
        -11    1    4    4    0    0  0.17746656505E+01 -0.20946356499E+01  0.90957925548E+01  0.95010725256E+01  0.51100000000E-03 0.  1.
         12    1    4    4    0    0 -0.10801151265E+02 -0.19902028227E+02 -0.67560785029E+01  0.23630492862E+02  0.00000000000E+00 0. -1.
</event>
<event>
 8    1  0.2502398E-006  0.9118800E+02  0.7816164E-02  0.1184000E+00
        -11   -1    0    0    0    0  0.00000000000E+00  0.00000000000E+00  0.45593999997E+02  0.45594000000E+02  0.51100000000E-03 0.  1.
         11   -1    0    0    0    0 -0.00000000000E+00 -0.00000000000E+00 -0.45593999997E+02  0.45594000000E+02  0.51100000000E-03 0. -1.
         23    2    1    2    0    0  0.00000000000E+00  0.35527136788E-14 -0.35527136788E-14  0.91188000000E+02  0.91188000000E+02 0.  0.
    9900012    2    3    3    0    0  0.17127903818E+02  0.17668686836E+02  0.27390360681E+02  0.54367089610E+02  0.40000012384E+02 0.  0.
         12    1    3    3    0    0 -0.17127903818E+02 -0.17668686836E+02 -0.27390360681E+02  0.36820910390E+02  0.00000000000E+00 0. -1.
         11    1    4    4    0    0  0.16144530663E+02  0.24379160317E+02  0.12353603407E+02  0.31742729017E+02  0.51100000000E-03 0. -1.
        -11    1    4    4    0    0  0.45451808360E-01 -0.11760124569E+02  0.10786021634E+02  0.15957470310E+02  0.51100000000E-03 0.  1.
        -12    1    4    4    0    0  0.93792134725E+00  0.50496510885E+01  0.42507356393E+01  0.66668902829E+01  0.00000000000E+00 0.  1.
</event>
<event>
 8    1  0.2502398E-006  0.9118800E+02  0.7816164E-02  0.1184000E+00
        -11   -1    0    0    0    0  0.00000000000E+00  0.00000000000E+00  0.45593999997E+02  0.45594000000E+02  0.51100000000E-03 0. -1.
         11   -1    0    0    0    0 -0.00000000000E+00 -0.00000000000E+00 -0.45593999997E+02  0.45594000000E+02  0.51100000000E-03 0.  1.
         23    2    1    2    0    0  0.00000000000E+00  0.88817841970E-15  0.35527136788E-14  0.91188000000E+02  0.91188000000E+02 0.  0.
    9900012    2    3    3    0    0  0.18636310474E+02  0.69527579903E+01  0.30985929775E+02  0.54367071769E+02  0.39999971713E+02 0.  0.
        -12    1    3    3    0    0 -0.18636310474E+02 -0.69527579903E+01 -0.30985929775E+02  0.36820928231E+02  0.00000000000E+00 0.  1.
         11    1    4    4    0    0 -0.45464978605E+01 -0.83457446733E+00  0.61131065352E+01  0.76640217320E+01  0.51100000000E-03 0. -1.
        -11    1    4    4    0    0  0.11304912386E+01 -0.10665455909E+02  0.57348425617E+01  0.12162170022E+02  0.51100000000E-03 0.  1.
        -12    1    4    4    0    0  0.22052317096E+02  0.18452788366E+02  0.19137980678E+02  0.34540880015E+02  0.00000000000E+00 0.  1.
</event>
<event>
 8    1  0.2502398E-006  0.9118800E+02  0.7816164E-02  0.1184000E+00
        -11   -1    0    0    0    0  0.00000000000E+00  0.00000000000E+00  0.45593999997E+02  0.45594000000E+02  0.51100000000E-03 0.  1.
         11   -1    0    0    0    0 -0.00000000000E+00 -0.00000000000E+00 -0.45593999997E+02  0.45594000000E+02  0.51100000000E-03 0. -1.
         23    2    1    2    0    0  0.35527136788E-14  0.35527136788E-14  0.00000000000E+00  0.91188000000E+02  0.91188000000E+02 0.  0.
    9900012    2    3    3    0    0 -0.17017700544E+02 -0.25257235750E+02 -0.20694249265E+02  0.54367054301E+02  0.39999931890E+02 0.  0.
        -12    1    3    3    0    0  0.17017700544E+02  0.25257235750E+02  0.20694249265E+02  0.36820945699E+02  0.00000000000E+00 0.  1.
         11    1    4    4    0    0 -0.97427778053E+01 -0.80895430147E+01 -0.55514627049E+01  0.13826827690E+02  0.51100000000E-03 0. -1.
        -11    1    4    4    0    0 -0.13050298536E+02 -0.80382345041E+01  0.62673401146E+01  0.16559077818E+02  0.51100000000E-03 0.  1.
         12    1    4    4    0    0  0.57753757970E+01 -0.91294582310E+01 -0.21410126675E+02  0.23981148793E+02  0.00000000000E+00 0. -1.
</event>
<event>
 8    1  0.2502398E-006  0.9118800E+02  0.7816164E-02  0.1184000E+00
        -11   -1    0    0    0    0  0.00000000000E+00  0.00000000000E+00  0.45593999997E+02  0.45594000000E+02  0.51100000000E-03 0. -1.
         11   -1    0    0    0    0 -0.00000000000E+00 -0.00000000000E+00 -0.45593999997E+02  0.45594000000E+02  0.51100000000E-03 0.  1.
         23    2    1    2    0    0  0.88817841970E-15 -0.35527136788E-14 -0.35527136788E-14  0.91188000000E+02  0.91188000000E+02 0.  0.
    9900012    2    3    3    0    0  0.65891615144E+01 -0.23519205988E+02 -0.27553749386E+02  0.54367092828E+02  0.40000019720E+02 0.  0.
         12    1    3    3    0    0 -0.65891615144E+01  0.23519205988E+02  0.27553749386E+02  0.36820907172E+02  0.00000000000E+00 0. -1.
         11    1    4    4    0    0  0.67534339986E+01  0.18036128897E+01  0.64595232109E+01  0.95177376830E+01  0.51100000000E-03 0. -1.
        -11    1    4    4    0    0  0.22006526427E+01 -0.61249381194E+01 -0.99707338210E+00  0.65842155653E+01  0.51100000000E-03 0.  1.
        -12    1    4    4    0    0 -0.23649251270E+01 -0.19197880758E+02 -0.33016199215E+02  0.38265139580E+02  0.00000000000E+00 0.  1.
</event>
<event>
 8    1  0.2502398E-006  0.9118800E+02  0.7816164E-02  0.1184000E+00
        -11   -1    0    0    0    0  0.00000000000E+00  0.00000000000E+00  0.45593999997E+02  0.45594000000E+02  0.51100000000E-03 0. -1.
         11   -1    0    0    0    0 -0.00000000000E+00 -0.00000000000E+00 -0.45593999997E+02  0.45594000000E+02  0.51100000000E-03 0.  1.
         23    2    1    2    0    0  0.00000000000E+00 -0.88817841970E-15  0.00000000000E+00  0.91188000000E+02  0.91188000000E+02 0.  0.
    9900012    2    3    3    0    0 -0.32507634056E+02 -0.67108195139E+01 -0.15937132419E+02  0.54367169480E+02  0.40000194463E+02 0.  0.
         12    1    3    3    0    0  0.32507634056E+02  0.67108195139E+01  0.15937132419E+02  0.36820830520E+02  0.00000000000E+00 0. -1.
         11    1    4    4    0    0 -0.20020885115E+02 -0.36300661996E+01  0.43790861695E+01  0.20813207762E+02  0.51100000000E-03 0. -1.
        -11    1    4    4    0    0 -0.15383940194E+02 -0.94430292027E+01 -0.19407164708E+02  0.26504234730E+02  0.51100000000E-03 0.  1.
        -12    1    4    4    0    0  0.28971912530E+01  0.63622758884E+01 -0.90905388106E+00  0.70497269872E+01  0.00000000000E+00 0.  1.
</event>
<event>
 8    1  0.2502398E-006  0.9118800E+02  0.7816164E-02  0.1184000E+00
        -11   -1    0    0    0    0  0.00000000000E+00  0.00000000000E+00  0.45593999997E+02  0.45594000000E+02  0.51100000000E-03 0. -1.
         11   -1    0    0    0    0 -0.00000000000E+00 -0.00000000000E+00 -0.45593999997E+02  0.45594000000E+02  0.51100000000E-03 0.  1.
         23    2    1    2    0    0 -0.44408920985E-15  0.00000000000E+00 -0.14155343564E-14  0.91188000000E+02  0.91188000000E+02 0.  0.
    9900012    2    3    3    0    0 -0.36353973041E+01 -0.36640181148E+02 -0.24598371545E+00  0.54367088875E+02  0.40000010707E+02 0.  0.
         12    1    3    3    0    0  0.36353973041E+01  0.36640181148E+02  0.24598371545E+00  0.36820911125E+02  0.00000000000E+00 0. -1.
         11    1    4    4    0    0 -0.26046651172E+01 -0.27859920253E+01 -0.60555237549E+01  0.71564935649E+01  0.51100000000E-03 0. -1.
        -11    1    4    4    0    0 -0.22825425076E+01  0.56501613539E+01  0.46571160539E+01  0.76696188839E+01  0.51100000000E-03 0.  1.
        -12    1    4    4    0    0  0.12518103206E+01 -0.39504350477E+02  0.11524239855E+01  0.39540976426E+02  0.00000000000E+00 0.  1.
</event>
<event>
 8    1  0.2502398E-006  0.9118800E+02  0.7816164E-02  0.1184000E+00
        -11   -1    0    0    0    0  0.00000000000E+00  0.00000000000E+00  0.45593999997E+02  0.45594000000E+02  0.51100000000E-03 0. -1.
         11   -1    0    0    0    0 -0.00000000000E+00 -0.00000000000E+00 -0.45593999997E+02  0.45594000000E+02  0.51100000000E-03 0.  1.
         23    2    1    2    0    0 -0.13322676296E-14  0.00000000000E+00  0.00000000000E+00  0.91188000000E+02  0.91188000000E+02 0.  0.
    9900012    2    3    3    0    0 -0.21377123426E+01  0.79824507824E+01  0.35881629855E+02  0.54367072587E+02  0.39999973575E+02 0.  0.
        -12    1    3    3    0    0  0.21377123426E+01 -0.79824507824E+01 -0.35881629855E+02  0.36820927413E+02  0.00000000000E+00 0.  1.
         11    1    4    4    0    0  0.56683520707E+01  0.13773367252E+02  0.42481972013E+01  0.15488158069E+02  0.51100000000E-03 0. -1.
        -11    1    4    4    0    0 -0.10738229664E+02  0.16947549948E+01  0.28038631268E+02  0.30072356317E+02  0.51100000000E-03 0.  1.
        -12    1    4    4    0    0  0.29321652505E+01 -0.74856714645E+01  0.35948013850E+01  0.88065581999E+01  0.00000000000E+00 0.  1.
</event>
<event>
 8    1  0.2502398E-006  0.9118800E+02  0.7816164E-02  0.1184000E+00
        -11   -1    0    0    0    0  0.00000000000E+00  0.00000000000E+00  0.45593999997E+02  0.45594000000E+02  0.51100000000E-03 0. -1.
         11   -1    0    0    0    0 -0.00000000000E+00 -0.00000000000E+00 -0.45593999997E+02  0.45594000000E+02  0.51100000000E-03 0.  1.
         23    2    1    2    0    0 -0.35527136788E-14 -0.35527136788E-14  0.00000000000E+00  0.91188000000E+02  0.91188000000E+02 0.  0.
    9900012    2    3    3    0    0 -0.20910426325E+02 -0.21801810732E+02  0.21052662632E+02  0.54367089037E+02  0.40000011078E+02 0.  0.
        -12    1    3    3    0    0  0.20910426325E+02  0.21801810732E+02 -0.21052662632E+02  0.36820910963E+02  0.00000000000E+00 0.  1.
         11    1    4    4    0    0 -0.85770637706E+01 -0.63932292022E+01  0.98423569193E+01  0.14536553668E+02  0.51100000000E-03 0. -1.
        -11    1    4    4    0    0 -0.81052030639E+01 -0.19231723700E+02 -0.59881561006E+01  0.21712013424E+02  0.51100000000E-03 0.  1.
        -12    1    4    4    0    0 -0.42281594902E+01  0.38231421705E+01  0.17198461813E+02  0.18118521945E+02  0.00000000000E+00 0.  1.
</event>
<event>
 8    1  0.2502398E-006  0.9118800E+02  0.7816164E-02  0.1184000E+00
        -11   -1    0    0    0    0  0.00000000000E+00  0.00000000000E+00  0.45593999997E+02  0.45594000000E+02  0.51100000000E-03 0.  1.
         11   -1    0    0    0    0 -0.00000000000E+00 -0.00000000000E+00 -0.45593999997E+02  0.45594000000E+02  0.51100000000E-03 0. -1.
         23    2    1    2    0    0  0.00000000000E+00 -0.35527136788E-14  0.00000000000E+00  0.91188000000E+02  0.91188000000E+02 0.  0.
    9900012    2    3    3    0    0 -0.24961911099E+02  0.26624342193E+02  0.48812300950E+01  0.54367095473E+02  0.40000025751E+02 0.  0.
         12    1    3    3    0    0  0.24961911099E+02 -0.26624342193E+02 -0.48812300950E+01  0.36820904527E+02  0.00000000000E+00 0. -1.
         11    1    4    4    0    0  0.74235768196E+01  0.16313487086E+02  0.39506411141E+01  0.18353389855E+02  0.51100000000E-03 0. -1.
        -11    1    4    4    0    0 -0.29710260800E+02  0.12753869617E+02  0.13895374558E+01  0.32361885014E+02  0.51100000000E-03 0.  1.
        -12    1    4    4    0    0 -0.26752271181E+01 -0.24430145098E+01 -0.45894847486E+00  0.36518206050E+01  0.00000000000E+00 0.  1.
</event>
<event>
 8    1  0.2502398E-006  0.9118800E+02  0.7816164E-02  0.1184000E+00
        -11   -1    0    0    0    0  0.00000000000E+00  0.00000000000E+00  0.45593999997E+02  0.45594000000E+02  0.51100000000E-03 0.  1.
         11   -1    0    0    0    0 -0.00000000000E+00 -0.00000000000E+00 -0.45593999997E+02  0.45594000000E+02  0.51100000000E-03 0. -1.
         23    2    1    2    0    0  0.00000000000E+00  0.00000000000E+00  0.26645352591E-14  0.91188000000E+02  0.91188000000E+02 0.  0.
    9900012    2    3    3    0    0 -0.11179678589E+02 -0.34519404649E+02  0.62614321953E+01  0.54367081437E+02  0.39999993752E+02 0.  0.
        -12    1    3    3    0    0  0.11179678589E+02  0.34519404649E+02 -0.62614321953E+01  0.36820918563E+02  0.00000000000E+00 0.  1.
         11    1    4    4    0    0 -0.73839981978E+01 -0.56067227582E+01  0.11232595334E+02  0.14564682203E+02  0.51100000000E-03 0.  1.
        -11    1    4    4    0    0 -0.88449461343E+01 -0.43784872349E+01 -0.10222695604E+02  0.14209423924E+02  0.51100000000E-03 0. -1.
        -12    1    4    4    0    0  0.50492657432E+01 -0.24534194656E+02  0.52515324654E+01  0.25592975310E+02  0.00000000000E+00 0.  1.
</event>
<event>
 8    1  0.2502398E-006  0.9118800E+02  0.7816164E-02  0.1184000E+00
        -11   -1    0    0    0    0  0.00000000000E+00  0.00000000000E+00  0.45593999997E+02  0.45594000000E+02  0.51100000000E-03 0.  1.
         11   -1    0    0    0    0 -0.00000000000E+00 -0.00000000000E+00 -0.45593999997E+02  0.45594000000E+02  0.51100000000E-03 0. -1.
         23    2    1    2    0    0 -0.17763568394E-14  0.17763568394E-14 -0.71054273576E-14  0.91188000000E+02  0.91188000000E+02 0.  0.
    9900012    2    3    3    0    0  0.11050719460E+02  0.10487470845E+02 -0.33521266896E+02  0.54367071445E+02  0.39999970974E+02 0.  0.
        -12    1    3    3    0    0 -0.11050719460E+02 -0.10487470845E+02  0.33521266896E+02  0.36820928555E+02  0.00000000000E+00 0.  1.
         11    1    4    4    0    0 -0.11504413897E+02 -0.59936139270E+00 -0.22749313300E+02  0.25499843707E+02  0.51100000000E-03 0. -1.
        -11    1    4    4    0    0  0.28269642338E+01  0.29891337838E+01  0.13590660768E+01  0.43328637665E+01  0.51100000000E-03 0.  1.
         12    1    4    4    0    0  0.19728169123E+02  0.80976984542E+01 -0.12131019673E+02  0.24534363972E+02  0.00000000000E+00 0. -1.
</event>
<event>
 8    1  0.2502398E-006  0.9118800E+02  0.7816164E-02  0.1184000E+00
        -11   -1    0    0    0    0  0.00000000000E+00  0.00000000000E+00  0.45593999997E+02  0.45594000000E+02  0.51100000000E-03 0.  1.
         11   -1    0    0    0    0 -0.00000000000E+00 -0.00000000000E+00 -0.45593999997E+02  0.45594000000E+02  0.51100000000E-03 0. -1.
         23    2    1    2    0    0  0.00000000000E+00 -0.17763568394E-14  0.00000000000E+00  0.91188000000E+02  0.91188000000E+02 0.  0.
    9900012    2    3    3    0    0  0.34102986346E+02 -0.11054710396E+02  0.83999997470E+01  0.54367078020E+02  0.39999985963E+02 0.  0.
         12    1    3    3    0    0 -0.34102986346E+02  0.11054710396E+02 -0.83999997470E+01  0.36820921980E+02  0.00000000000E+00 0. -1.
         11    1    4    4    0    0  0.21244309912E+02 -0.22567390775E+02  0.48436100535E+01  0.31369864339E+02  0.51100000000E-03 0. -1.
        -11    1    4    4    0    0  0.12381960066E+02  0.63209696253E+01  0.80930524547E+01  0.16086176997E+02  0.51100000000E-03 0.  1.
         12    1    4    4    0    0  0.47671636809E+00  0.51917107536E+01 -0.45366627612E+01  0.69110366844E+01  0.00000000000E+00 0. -1.
</event>
<event>
 8    1  0.2502398E-006  0.9118800E+02  0.7816164E-02  0.1184000E+00
        -11   -1    0    0    0    0  0.00000000000E+00  0.00000000000E+00  0.45593999997E+02  0.45594000000E+02  0.51100000000E-03 0. -1.
         11   -1    0    0    0    0 -0.00000000000E+00 -0.00000000000E+00 -0.45593999997E+02  0.45594000000E+02  0.51100000000E-03 0.  1.
         23    2    1    2    0    0 -0.88817841970E-15  0.00000000000E+00  0.00000000000E+00  0.91188000000E+02  0.91188000000E+02 0.  0.
    9900012    2    3    3    0    0 -0.51667979438E+01  0.70851319573E+01 -0.35761502951E+02  0.54367082179E+02  0.39999995444E+02 0.  0.
         12    1    3    3    0    0  0.51667979438E+01 -0.70851319573E+01  0.35761502951E+02  0.36820917821E+02  0.00000000000E+00 0. -1.
         11    1    4    4    0    0 -0.13044462361E+02  0.10261847429E+02 -0.17154729998E+02  0.23869400338E+02  0.51100000000E-03 0. -1.
        -11    1    4    4    0    0 -0.41038056105E+01  0.62882791079E+01 -0.11307694747E+02  0.13573784858E+02  0.51100000000E-03 0.  1.
         12    1    4    4    0    0  0.11981470028E+02 -0.94649945794E+01 -0.72990782064E+01  0.16923896983E+02  0.00000000000E+00 0. -1.
</event>
<event>
 8    1  0.2502398E-006  0.9118800E+02  0.7816164E-02  0.1184000E+00
        -11   -1    0    0    0    0  0.00000000000E+00  0.00000000000E+00  0.45593999997E+02  0.45594000000E+02  0.51100000000E-03 0.  1.
         11   -1    0    0    0    0 -0.00000000000E+00 -0.00000000000E+00 -0.45593999997E+02  0.45594000000E+02  0.51100000000E-03 0. -1.
         23    2    1    2    0    0 -0.88817841970E-15  0.00000000000E+00  0.35527136788E-14  0.91188000000E+02  0.91188000000E+02 0.  0.
    9900012    2    3    3    0    0 -0.54954722648E+01 -0.30905305735E+02 -0.19246879273E+02  0.54367075246E+02  0.39999979639E+02 0.  0.
        -12    1    3    3    0    0  0.54954722648E+01  0.30905305735E+02  0.19246879273E+02  0.36820924754E+02  0.00000000000E+00 0.  1.
         11    1    4    4    0    0  0.78575679517E+01  0.50250960965E+01 -0.26414555473E+01  0.96938254865E+01  0.51100000000E-03 0. -1.
        -11    1    4    4    0    0 -0.87131603281E+01 -0.15162127963E+02  0.30826401101E+00  0.17490120475E+02  0.51100000000E-03 0.  1.
         12    1    4    4    0    0 -0.46398798884E+01 -0.20768273869E+02 -0.16913687737E+02  0.27183129285E+02  0.00000000000E+00 0. -1.
</event>
<event>
 8    1  0.2502398E-006  0.9118800E+02  0.7816164E-02  0.1184000E+00
        -11   -1    0    0    0    0  0.00000000000E+00  0.00000000000E+00  0.45593999997E+02  0.45594000000E+02  0.51100000000E-03 0. -1.
         11   -1    0    0    0    0 -0.00000000000E+00 -0.00000000000E+00 -0.45593999997E+02  0.45594000000E+02  0.51100000000E-03 0.  1.
         23    2    1    2    0    0  0.88817841970E-15 -0.88817841970E-15  0.00000000000E+00  0.91188000000E+02  0.91188000000E+02 0.  0.
    9900012    2    3    3    0    0 -0.43007328429E+01 -0.35140351084E+01 -0.36399665055E+02  0.54367077119E+02  0.39999983908E+02 0.  0.
         12    1    3    3    0    0  0.43007328429E+01  0.35140351084E+01  0.36399665055E+02  0.36820922881E+02  0.00000000000E+00 0. -1.
         11    1    4    4    0    0  0.18327526937E+00  0.80553183661E+01 -0.19812762574E+02  0.21388485334E+02  0.51100000000E-03 0. -1.
        -11    1    4    4    0    0 -0.11881230401E+02 -0.15909242043E+02 -0.12637009634E+02  0.23536389506E+02  0.51100000000E-03 0.  1.
         12    1    4    4    0    0  0.73972222885E+01  0.43398885689E+01 -0.39498928464E+01  0.94422022788E+01  0.00000000000E+00 0. -1.
</event>
<event>
 8    1  0.2502398E-006  0.9118800E+02  0.7816164E-02  0.1184000E+00
        -11   -1    0    0    0    0  0.00000000000E+00  0.00000000000E+00  0.45593999997E+02  0.45594000000E+02  0.51100000000E-03 0. -1.
         11   -1    0    0    0    0 -0.00000000000E+00 -0.00000000000E+00 -0.45593999997E+02  0.45594000000E+02  0.51100000000E-03 0.  1.
         23    2    1    2    0    0  0.00000000000E+00  0.00000000000E+00 -0.35527136788E-14  0.91188000000E+02  0.91188000000E+02 0.  0.
    9900012    2    3    3    0    0 -0.20543697665E+02  0.13957002700E+02  0.27183396825E+02  0.54367102386E+02  0.40000041510E+02 0.  0.
        -12    1    3    3    0    0  0.20543697665E+02 -0.13957002700E+02 -0.27183396825E+02  0.36820897614E+02  0.00000000000E+00 0.  1.
         11    1    4    4    0    0  0.74048314485E+01  0.83559793500E+01  0.15609287590E+02  0.19191242247E+02  0.51100000000E-03 0. -1.
        -11    1    4    4    0    0  0.86069468468E+00 -0.28639889116E+01  0.22233598208E+01  0.37264670910E+01  0.51100000000E-03 0.  1.
         12    1    4    4    0    0 -0.28809223799E+02  0.84650122619E+01  0.93507494142E+01  0.31449393048E+02  0.00000000000E+00 0. -1.
</event>
<event>
 8    1  0.2502398E-006  0.9118800E+02  0.7816164E-02  0.1184000E+00
        -11   -1    0    0    0    0  0.00000000000E+00  0.00000000000E+00  0.45593999997E+02  0.45594000000E+02  0.51100000000E-03 0.  1.
         11   -1    0    0    0    0 -0.00000000000E+00 -0.00000000000E+00 -0.45593999997E+02  0.45594000000E+02  0.51100000000E-03 0. -1.
         23    2    1    2    0    0  0.00000000000E+00  0.00000000000E+00 -0.35527136788E-14  0.91188000000E+02  0.91188000000E+02 0.  0.
    9900012    2    3    3    0    0 -0.30709268798E+02  0.65502788454E+01  0.19230560882E+02  0.54367084546E+02  0.40000000839E+02 0.  0.
        -12    1    3    3    0    0  0.30709268798E+02 -0.65502788454E+01 -0.19230560882E+02  0.36820915454E+02  0.00000000000E+00 0.  1.
         11    1    4    4    0    0 -0.16098639910E+02  0.91686008683E+01 -0.61877509394E-01  0.18526556019E+02  0.51100000000E-03 0. -1.
        -11    1    4    4    0    0 -0.21856750073E+02 -0.34993656203E+01  0.17766386842E+02  0.28383227180E+02  0.51100000000E-03 0.  1.
         12    1    4    4    0    0  0.72461211848E+01  0.88104359746E+00  0.15260515501E+01  0.74573013470E+01  0.00000000000E+00 0. -1.
</event>
<event>
 8    1  0.2502398E-006  0.9118800E+02  0.7816164E-02  0.1184000E+00
        -11   -1    0    0    0    0  0.00000000000E+00  0.00000000000E+00  0.45593999997E+02  0.45594000000E+02  0.51100000000E-03 0.  1.
         11   -1    0    0    0    0 -0.00000000000E+00 -0.00000000000E+00 -0.45593999997E+02  0.45594000000E+02  0.51100000000E-03 0. -1.
         23    2    1    2    0    0  0.88817841970E-15  0.71054273576E-14 -0.88817841970E-15  0.91188000000E+02  0.91188000000E+02 0.  0.
    9900012    2    3    3    0    0  0.41795421590E+01 -0.35720912263E+02 -0.78948443700E+01  0.54367072348E+02  0.39999973031E+02 0.  0.
        -12    1    3    3    0    0 -0.41795421590E+01  0.35720912263E+02  0.78948443700E+01  0.36820927652E+02  0.00000000000E+00 0.  1.
         11    1    4    4    0    0  0.90325840553E+01 -0.40226725254E+02 -0.12726599020E+01  0.41247989804E+02  0.51100000000E-03 0. -1.
        -11    1    4    4    0    0  0.19583902183E+01  0.71191699984E-01 -0.42053578905E+01  0.46395469340E+01  0.51100000000E-03 0.  1.
         12    1    4    4    0    0 -0.68114321146E+01  0.44346212913E+01 -0.24168265776E+01  0.84795356096E+01  0.00000000000E+00 0. -1.
</event>
<event>
 8    1  0.2502398E-006  0.9118800E+02  0.7816164E-02  0.1184000E+00
        -11   -1    0    0    0    0  0.00000000000E+00  0.00000000000E+00  0.45593999997E+02  0.45594000000E+02  0.51100000000E-03 0. -1.
         11   -1    0    0    0    0 -0.00000000000E+00 -0.00000000000E+00 -0.45593999997E+02  0.45594000000E+02  0.51100000000E-03 0.  1.
         23    2    1    2    0    0  0.00000000000E+00  0.00000000000E+00  0.88817841970E-15  0.91188000000E+02  0.91188000000E+02 0.  0.
    9900012    2    3    3    0    0 -0.35139820973E+02  0.95998008235E+01 -0.53681269544E+01  0.54367082292E+02  0.39999995700E+02 0.  0.
         12    1    3    3    0    0  0.35139820973E+02 -0.95998008235E+01  0.53681269544E+01  0.36820917708E+02  0.00000000000E+00 0. -1.
         11    1    4    4    0    0  0.26513862843E+00  0.48017969660E+01  0.41503582988E+01  0.63524032354E+01  0.51100000000E-03 0. -1.
        -11    1    4    4    0    0 -0.37834885596E+02  0.40152197075E+01  0.11618626576E+00  0.38047523663E+02  0.51100000000E-03 0.  1.
        -12    1    4    4    0    0  0.24299259939E+01  0.78278415009E+00 -0.96346715190E+01  0.99671553936E+01  0.00000000000E+00 0.  1.
</event>
<event>
 8    1  0.2502398E-006  0.9118800E+02  0.7816164E-02  0.1184000E+00
        -11   -1    0    0    0    0  0.00000000000E+00  0.00000000000E+00  0.45593999997E+02  0.45594000000E+02  0.51100000000E-03 0. -1.
         11   -1    0    0    0    0 -0.00000000000E+00 -0.00000000000E+00 -0.45593999997E+02  0.45594000000E+02  0.51100000000E-03 0.  1.
         23    2    1    2    0    0  0.00000000000E+00 -0.35527136788E-14 -0.35527136788E-14  0.91188000000E+02  0.91188000000E+02 0.  0.
    9900012    2    3    3    0    0  0.17081813083E+02 -0.23155402387E+02 -0.22974329917E+02  0.54367070720E+02  0.39999969321E+02 0.  0.
         12    1    3    3    0    0 -0.17081813083E+02  0.23155402387E+02  0.22974329917E+02  0.36820929280E+02  0.00000000000E+00 0. -1.
         11    1    4    4    0    0 -0.32177800733E+00 -0.45990336848E+01  0.12719851729E+01  0.47825305499E+01  0.51100000000E-03 0. -1.
        -11    1    4    4    0    0  0.45683153144E+00 -0.13121771611E+02 -0.28418699800E+02  0.31305144686E+02  0.51100000000E-03 0.  1.
         12    1    4    4    0    0  0.16946759559E+02 -0.54345970913E+01  0.41723847103E+01  0.18279395484E+02  0.00000000000E+00 0. -1.
</event>
<event>
 8    1  0.2502398E-006  0.9118800E+02  0.7816164E-02  0.1184000E+00
        -11   -1    0    0    0    0  0.00000000000E+00  0.00000000000E+00  0.45593999997E+02  0.45594000000E+02  0.51100000000E-03 0.  1.
         11   -1    0    0    0    0 -0.00000000000E+00 -0.00000000000E+00 -0.45593999997E+02  0.45594000000E+02  0.51100000000E-03 0. -1.
         23    2    1    2    0    0 -0.22204460493E-15  0.00000000000E+00 -0.35527136788E-14  0.91188000000E+02  0.91188000000E+02 0.  0.
    9900012    2    3    3    0    0 -0.67021065363E+00 -0.29154450547E+02 -0.22479972809E+02  0.54367077327E+02  0.39999984383E+02 0.  0.
        -12    1    3    3    0    0  0.67021065363E+00  0.29154450547E+02  0.22479972809E+02  0.36820922673E+02  0.00000000000E+00 0.  1.
         11    1    4    4    0    0 -0.72460905511E+01 -0.13556471494E+02 -0.26888067409E+01  0.15604916840E+02  0.51100000000E-03 0.  1.
        -11    1    4    4    0    0  0.71425891454E+01 -0.21380554773E+02 -0.22932923864E+02  0.32156860843E+02  0.51100000000E-03 0. -1.
        -12    1    4    4    0    0 -0.56670924796E+00  0.57825757199E+01  0.31417577964E+01  0.66052996434E+01  0.00000000000E+00 0.  1.
</event>
<event>
 8    1  0.2502398E-006  0.9118800E+02  0.7816164E-02  0.1184000E+00
        -11   -1    0    0    0    0  0.00000000000E+00  0.00000000000E+00  0.45593999997E+02  0.45594000000E+02  0.51100000000E-03 0. -1.
         11   -1    0    0    0    0 -0.00000000000E+00 -0.00000000000E+00 -0.45593999997E+02  0.45594000000E+02  0.51100000000E-03 0.  1.
         23    2    1    2    0    0 -0.35527136788E-14 -0.17763568394E-14  0.00000000000E+00  0.91188000000E+02  0.91188000000E+02 0.  0.
    9900012    2    3    3    0    0  0.25068462193E+02  0.82246835441E+01 -0.25684529849E+02  0.54367241050E+02  0.40000357619E+02 0.  0.
         12    1    3    3    0    0 -0.25068462193E+02 -0.82246835441E+01  0.25684529849E+02  0.36820758950E+02  0.00000000000E+00 0. -1.
         11    1    4    4    0    0 -0.81596726086E+01 -0.21810978398E+01 -0.75916359272E+01  0.11356512721E+02  0.51100000000E-03 0. -1.
        -11    1    4    4    0    0  0.15436553734E+02  0.47279333142E+00 -0.16456930716E+02  0.22568590864E+02  0.51100000000E-03 0.  1.
         12    1    4    4    0    0  0.17791581068E+02  0.99329880524E+01 -0.16359632056E+01  0.20442137465E+02  0.00000000000E+00 0. -1.
</event>
<event>
 8    1  0.2502398E-006  0.9118800E+02  0.7816164E-02  0.1184000E+00
        -11   -1    0    0    0    0  0.00000000000E+00  0.00000000000E+00  0.45593999997E+02  0.45594000000E+02  0.51100000000E-03 0. -1.
         11   -1    0    0    0    0 -0.00000000000E+00 -0.00000000000E+00 -0.45593999997E+02  0.45594000000E+02  0.51100000000E-03 0.  1.
         23    2    1    2    0    0  0.00000000000E+00 -0.17763568394E-14 -0.71054273576E-14  0.91188000000E+02  0.91188000000E+02 0.  0.
    9900012    2    3    3    0    0 -0.23433094070E+02  0.15472671203E+02  0.23817358657E+02  0.54367081690E+02  0.39999994328E+02 0.  0.
        -12    1    3    3    0    0  0.23433094070E+02 -0.15472671203E+02 -0.23817358657E+02  0.36820918310E+02  0.00000000000E+00 0.  1.
         11    1    4    4    0    0  0.43717593820E+01  0.44341925433E+01  0.54070953476E+01  0.82468796502E+01  0.51100000000E-03 0. -1.
        -11    1    4    4    0    0 -0.14201334469E+02 -0.60120648900E+00 -0.63477152986E+01  0.15567043384E+02  0.51100000000E-03 0.  1.
         12    1    4    4    0    0 -0.13603518982E+02  0.11639685148E+02  0.24757978608E+02  0.30553158655E+02  0.00000000000E+00 0. -1.
</event>
<event>
 8    1  0.2502398E-006  0.9118800E+02  0.7816164E-02  0.1184000E+00
        -11   -1    0    0    0    0  0.00000000000E+00  0.00000000000E+00  0.45593999997E+02  0.45594000000E+02  0.51100000000E-03 0. -1.
         11   -1    0    0    0    0 -0.00000000000E+00 -0.00000000000E+00 -0.45593999997E+02  0.45594000000E+02  0.51100000000E-03 0.  1.
         23    2    1    2    0    0 -0.33306690739E-15  0.00000000000E+00  0.00000000000E+00  0.91188000000E+02  0.91188000000E+02 0.  0.
    9900012    2    3    3    0    0 -0.78864242903E+00 -0.33271041397E+02 -0.15754253311E+02  0.54367073207E+02  0.39999974989E+02 0.  0.
         12    1    3    3    0    0  0.78864242903E+00  0.33271041397E+02  0.15754253311E+02  0.36820926793E+02  0.00000000000E+00 0. -1.
         11    1    4    4    0    0  0.10483621892E+01 -0.22057831701E+02 -0.23210403858E+02  0.32037007509E+02  0.51100000000E-03 0. -1.
        -11    1    4    4    0    0 -0.85895063970E+01 -0.30942353697E+01 -0.44604305537E+00  0.91407257554E+01  0.51100000000E-03 0.  1.
         12    1    4    4    0    0  0.67525017788E+01 -0.81189743265E+01  0.79021936021E+01  0.13189339942E+02  0.00000000000E+00 0. -1.
</event>
<event>
 8    1  0.2502398E-006  0.9118800E+02  0.7816164E-02  0.1184000E+00
        -11   -1    0    0    0    0  0.00000000000E+00  0.00000000000E+00  0.45593999997E+02  0.45594000000E+02  0.51100000000E-03 0.  1.
         11   -1    0    0    0    0 -0.00000000000E+00 -0.00000000000E+00 -0.45593999997E+02  0.45594000000E+02  0.51100000000E-03 0. -1.
         23    2    1    2    0    0  0.17763568394E-14  0.00000000000E+00  0.35527136788E-14  0.91188000000E+02  0.91188000000E+02 0.  0.
    9900012    2    3    3    0    0  0.14704233212E+02 -0.27625558738E+02  0.19400894382E+02  0.54367072897E+02  0.39999974283E+02 0.  0.
         12    1    3    3    0    0 -0.14704233212E+02  0.27625558738E+02 -0.19400894382E+02  0.36820927103E+02  0.00000000000E+00 0. -1.
         11    1    4    4    0    0  0.16015783152E+01  0.15284114923E+01  0.21611856052E+01  0.30938355274E+01  0.51100000000E-03 0. -1.
        -11    1    4    4    0    0  0.17862178273E+02 -0.10391895851E+02  0.23152772958E+02  0.31033849390E+02  0.51100000000E-03 0.  1.
         12    1    4    4    0    0 -0.47595233757E+01 -0.18762074379E+02 -0.59130641818E+01  0.20239387979E+02  0.00000000000E+00 0. -1.
</event>
<event>
 8    1  0.2502398E-006  0.9118800E+02  0.7816164E-02  0.1184000E+00
        -11   -1    0    0    0    0  0.00000000000E+00  0.00000000000E+00  0.45593999997E+02  0.45594000000E+02  0.51100000000E-03 0.  1.
         11   -1    0    0    0    0 -0.00000000000E+00 -0.00000000000E+00 -0.45593999997E+02  0.45594000000E+02  0.51100000000E-03 0. -1.
         23    2    1    2    0    0 -0.88817841970E-15  0.00000000000E+00  0.00000000000E+00  0.91188000000E+02  0.91188000000E+02 0.  0.
    9900012    2    3    3    0    0  0.43042554123E+01 -0.97236560766E+01  0.35252184800E+02  0.54366910454E+02  0.39999603961E+02 0.  0.
         12    1    3    3    0    0 -0.43042554123E+01  0.97236560766E+01 -0.35252184800E+02  0.36821089546E+02  0.00000000000E+00 0. -1.
         11    1    4    4    0    0  0.96146171337E+01 -0.16718882527E+02  0.11470210381E+02  0.22439421160E+02  0.51100000000E-03 0. -1.
        -11    1    4    4    0    0 -0.92556053850E+01 -0.29930874850E+01  0.69266518609E+01  0.11941662782E+02  0.51100000000E-03 0.  1.
        -12    1    4    4    0    0  0.39452436636E+01  0.99883139351E+01  0.16855322558E+02  0.19985826512E+02  0.00000000000E+00 0.  1.
</event>
<event>
 8    1  0.2502398E-006  0.9118800E+02  0.7816164E-02  0.1184000E+00
        -11   -1    0    0    0    0  0.00000000000E+00  0.00000000000E+00  0.45593999997E+02  0.45594000000E+02  0.51100000000E-03 0.  1.
         11   -1    0    0    0    0 -0.00000000000E+00 -0.00000000000E+00 -0.45593999997E+02  0.45594000000E+02  0.51100000000E-03 0. -1.
         23    2    1    2    0    0  0.00000000000E+00 -0.88817841970E-15  0.00000000000E+00  0.91188000000E+02  0.91188000000E+02 0.  0.
    9900012    2    3    3    0    0  0.23722934389E+02  0.71161479965E+01  0.27246505097E+02  0.54366956854E+02  0.39999709740E+02 0.  0.
         12    1    3    3    0    0 -0.23722934389E+02 -0.71161479965E+01 -0.27246505097E+02  0.36821043146E+02  0.00000000000E+00 0. -1.
         11    1    4    4    0    0  0.65551095431E+01  0.55894969634E+01  0.62227189030E+01  0.10627048896E+02  0.51100000000E-03 0. -1.
        -11    1    4    4    0    0  0.21822928073E+01  0.16810191964E+02  0.93628758721E+01  0.19365133633E+02  0.51100000000E-03 0.  1.
         12    1    4    4    0    0  0.14985532038E+02 -0.15283540931E+02  0.11660910322E+02  0.24374774325E+02  0.00000000000E+00 0. -1.
</event>
<event>
 8    1  0.2502398E-006  0.9118800E+02  0.7816164E-02  0.1184000E+00
        -11   -1    0    0    0    0  0.00000000000E+00  0.00000000000E+00  0.45593999997E+02  0.45594000000E+02  0.51100000000E-03 0. -1.
         11   -1    0    0    0    0 -0.00000000000E+00 -0.00000000000E+00 -0.45593999997E+02  0.45594000000E+02  0.51100000000E-03 0.  1.
         23    2    1    2    0    0  0.00000000000E+00 -0.35527136788E-14  0.00000000000E+00  0.91188000000E+02  0.91188000000E+02 0.  0.
    9900012    2    3    3    0    0 -0.31399870411E+02  0.13523573823E+02  0.13672637066E+02  0.54367083184E+02  0.39999997735E+02 0.  0.
        -12    1    3    3    0    0  0.31399870411E+02 -0.13523573823E+02 -0.13672637066E+02  0.36820916816E+02  0.00000000000E+00 0.  1.
         11    1    4    4    0    0 -0.18107478629E+02 -0.12900090163E+02  0.19849037077E+01  0.22321132397E+02  0.51100000000E-03 0. -1.
        -11    1    4    4    0    0 -0.53292809181E+01  0.82798096031E+01  0.22583940738E+01  0.10102317864E+02  0.51100000000E-03 0.  1.
        -12    1    4    4    0    0 -0.79631108645E+01  0.18143854383E+02  0.94293392848E+01  0.21943632923E+02  0.00000000000E+00 0.  1.
</event>
<event>
 8    1  0.2502398E-006  0.9118800E+02  0.7816164E-02  0.1184000E+00
        -11   -1    0    0    0    0  0.00000000000E+00  0.00000000000E+00  0.45593999997E+02  0.45594000000E+02  0.51100000000E-03 0.  1.
         11   -1    0    0    0    0 -0.00000000000E+00 -0.00000000000E+00 -0.45593999997E+02  0.45594000000E+02  0.51100000000E-03 0. -1.
         23    2    1    2    0    0  0.00000000000E+00 -0.44408920985E-15  0.61062266354E-15  0.91188000000E+02  0.91188000000E+02 0.  0.
    9900012    2    3    3    0    0 -0.36657227352E+02 -0.34577337821E+01  0.26685056461E+00  0.54367089511E+02  0.40000012158E+02 0.  0.
        -12    1    3    3    0    0  0.36657227352E+02  0.34577337821E+01 -0.26685056461E+00  0.36820910489E+02  0.00000000000E+00 0.  1.
         11    1    4    4    0    0 -0.14025879908E+02 -0.53277325205E-01  0.52734428227E+01  0.14984570235E+02  0.51100000000E-03 0. -1.
        -11    1    4    4    0    0 -0.26168019702E+02  0.10311866910E+01  0.61193214519E+01  0.26893766869E+02  0.51100000000E-03 0.  1.
        -12    1    4    4    0    0  0.35366722578E+01 -0.44356431479E+01 -0.11125913710E+02  0.12488752407E+02  0.00000000000E+00 0.  1.
</event>
<event>
 8    1  0.2502398E-006  0.9118800E+02  0.7816164E-02  0.1184000E+00
        -11   -1    0    0    0    0  0.00000000000E+00  0.00000000000E+00  0.45593999997E+02  0.45594000000E+02  0.51100000000E-03 0.  1.
         11   -1    0    0    0    0 -0.00000000000E+00 -0.00000000000E+00 -0.45593999997E+02  0.45594000000E+02  0.51100000000E-03 0. -1.
         23    2    1    2    0    0  0.00000000000E+00  0.00000000000E+00 -0.17763568394E-14  0.91188000000E+02  0.91188000000E+02 0.  0.
    9900012    2    3    3    0    0  0.34165399338E+02 -0.86112510271E+01  0.10693573160E+02  0.54367073027E+02  0.39999974580E+02 0.  0.
         12    1    3    3    0    0 -0.34165399338E+02  0.86112510271E+01 -0.10693573160E+02  0.36820926973E+02  0.00000000000E+00 0. -1.
         11    1    4    4    0    0  0.95585352848E+01 -0.17565308296E+02  0.42561375069E+01  0.20445546191E+02  0.51100000000E-03 0. -1.
        -11    1    4    4    0    0  0.27118005612E+01 -0.47887315364E+01  0.58958546126E+01  0.80651666992E+01  0.51100000000E-03 0.  1.
         12    1    4    4    0    0  0.21895063493E+02  0.13742788805E+02  0.54158104047E+00  0.25856360137E+02  0.00000000000E+00 0. -1.
</event>
<event>
 8    1  0.2502398E-006  0.9118800E+02  0.7816164E-02  0.1184000E+00
        -11   -1    0    0    0    0  0.00000000000E+00  0.00000000000E+00  0.45593999997E+02  0.45594000000E+02  0.51100000000E-03 0.  1.
         11   -1    0    0    0    0 -0.00000000000E+00 -0.00000000000E+00 -0.45593999997E+02  0.45594000000E+02  0.51100000000E-03 0. -1.
         23    2    1    2    0    0 -0.17763568394E-14 -0.44408920985E-15  0.71054273576E-14  0.91188000000E+02  0.91188000000E+02 0.  0.
    9900012    2    3    3    0    0 -0.86206125833E+01 -0.35535534013E+01  0.35620732805E+02  0.54367091420E+02  0.40000016511E+02 0.  0.
         12    1    3    3    0    0  0.86206125833E+01  0.35535534013E+01 -0.35620732805E+02  0.36820908580E+02  0.00000000000E+00 0. -1.
         11    1    4    4    0    0 -0.12761380620E+02 -0.10137369076E+02  0.11732535805E+02  0.20081620547E+02  0.51100000000E-03 0. -1.
        -11    1    4    4    0    0 -0.24280378411E+01  0.14089867196E+02  0.16736539978E+02  0.22012076141E+02  0.51100000000E-03 0.  1.
         12    1    4    4    0    0  0.65688058775E+01 -0.75060515212E+01  0.71516570217E+01  0.12273394732E+02  0.00000000000E+00 0. -1.
</event>
<event>
 8    1  0.2502398E-006  0.9118800E+02  0.7816164E-02  0.1184000E+00
        -11   -1    0    0    0    0  0.00000000000E+00  0.00000000000E+00  0.45593999997E+02  0.45594000000E+02  0.51100000000E-03 0.  1.
         11   -1    0    0    0    0 -0.00000000000E+00 -0.00000000000E+00 -0.45593999997E+02  0.45594000000E+02  0.51100000000E-03 0. -1.
         23    2    1    2    0    0 -0.88817841970E-15  0.00000000000E+00  0.35527136788E-14  0.91188000000E+02  0.91188000000E+02 0.  0.
    9900012    2    3    3    0    0  0.50570196774E+01  0.19818685594E+02 -0.30617399406E+02  0.54367097063E+02  0.40000029375E+02 0.  0.
        -12    1    3    3    0    0 -0.50570196774E+01 -0.19818685594E+02  0.30617399406E+02  0.36820902937E+02  0.00000000000E+00 0.  1.
         11    1    4    4    0    0 -0.11247104238E+00  0.38760429986E+01 -0.23567662839E+00  0.38848298285E+01  0.51100000000E-03 0. -1.
        -11    1    4    4    0    0  0.19236741549E+02  0.25903622138E+00 -0.15058542466E+02  0.24431107766E+02  0.51100000000E-03 0.  1.
         12    1    4    4    0    0 -0.14067250830E+02  0.15683606374E+02 -0.15323180311E+02  0.26051159469E+02  0.00000000000E+00 0. -1.
</event>
<event>
 8    1  0.2502398E-006  0.9118800E+02  0.7816164E-02  0.1184000E+00
        -11   -1    0    0    0    0  0.00000000000E+00  0.00000000000E+00  0.45593999997E+02  0.45594000000E+02  0.51100000000E-03 0.  1.
         11   -1    0    0    0    0 -0.00000000000E+00 -0.00000000000E+00 -0.45593999997E+02  0.45594000000E+02  0.51100000000E-03 0. -1.
         23    2    1    2    0    0  0.00000000000E+00 -0.41633363423E-15 -0.35527136788E-14  0.91188000000E+02  0.91188000000E+02 0.  0.
    9900012    2    3    3    0    0 -0.23360312597E+02 -0.18993373797E+00  0.28461190407E+02  0.54367086936E+02  0.40000006288E+02 0.  0.
         12    1    3    3    0    0  0.23360312597E+02  0.18993373797E+00 -0.28461190407E+02  0.36820913064E+02  0.00000000000E+00 0. -1.
         11    1    4    4    0    0 -0.19256984278E+01  0.56223437069E+01 -0.54261711725E+01  0.80475087479E+01  0.51100000000E-03 0. -1.
        -11    1    4    4    0    0  0.33706512865E+01 -0.24714661326E+01 -0.14109162576E-01  0.41796691579E+01  0.51100000000E-03 0.  1.
        -12    1    4    4    0    0 -0.24805265456E+02 -0.33408113123E+01  0.33901470742E+02  0.42139909030E+02  0.00000000000E+00 0.  1.
</event>
<event>
 8    1  0.2502398E-006  0.9118800E+02  0.7816164E-02  0.1184000E+00
        -11   -1    0    0    0    0  0.00000000000E+00  0.00000000000E+00  0.45593999997E+02  0.45594000000E+02  0.51100000000E-03 0.  1.
         11   -1    0    0    0    0 -0.00000000000E+00 -0.00000000000E+00 -0.45593999997E+02  0.45594000000E+02  0.51100000000E-03 0. -1.
         23    2    1    2    0    0  0.00000000000E+00  0.00000000000E+00  0.17763568394E-14  0.91188000000E+02  0.91188000000E+02 0.  0.
    9900012    2    3    3    0    0 -0.22972341507E+02  0.26526559440E+02 -0.11153171272E+02  0.54367081225E+02  0.39999993268E+02 0.  0.
        -12    1    3    3    0    0  0.22972341507E+02 -0.26526559440E+02  0.11153171272E+02  0.36820918775E+02  0.00000000000E+00 0.  1.
         11    1    4    4    0    0 -0.22284730737E+02  0.31168599996E+02 -0.11071838552E+02  0.39883285457E+02  0.51100000000E-03 0. -1.
        -11    1    4    4    0    0  0.48964315508E+01 -0.74252059696E+00 -0.42264725429E+01  0.65107180238E+01  0.51100000000E-03 0.  1.
        -12    1    4    4    0    0 -0.55840423212E+01 -0.38995199589E+01  0.41451398222E+01  0.79730777433E+01  0.00000000000E+00 0.  1.
</event>
<event>
 8    1  0.2502398E-006  0.9118800E+02  0.7816164E-02  0.1184000E+00
        -11   -1    0    0    0    0  0.00000000000E+00  0.00000000000E+00  0.45593999997E+02  0.45594000000E+02  0.51100000000E-03 0. -1.
         11   -1    0    0    0    0 -0.00000000000E+00 -0.00000000000E+00 -0.45593999997E+02  0.45594000000E+02  0.51100000000E-03 0.  1.
         23    2    1    2    0    0  0.00000000000E+00  0.17763568394E-14 -0.35527136788E-14  0.91188000000E+02  0.91188000000E+02 0.  0.
    9900012    2    3    3    0    0  0.14463774729E+02  0.13924060219E+02 -0.30865827843E+02  0.54367087995E+02  0.40000008703E+02 0.  0.
         12    1    3    3    0    0 -0.14463774729E+02 -0.13924060219E+02  0.30865827843E+02  0.36820912005E+02  0.00000000000E+00 0. -1.
         11    1    4    4    0    0 -0.35829550787E+01 -0.81464452896E+00 -0.11503270131E+02  0.12075861740E+02  0.51100000000E-03 0. -1.
        -11    1    4    4    0    0  0.21242416458E+02  0.73657087537E+01 -0.24103082092E+02  0.32961378749E+02  0.51100000000E-03 0.  1.
         12    1    4    4    0    0 -0.31956866500E+01  0.73729959947E+01  0.47405243795E+01  0.93298475066E+01  0.00000000000E+00 0. -1.
</event>
<event>
 8    1  0.2502398E-006  0.9118800E+02  0.7816164E-02  0.1184000E+00
        -11   -1    0    0    0    0  0.00000000000E+00  0.00000000000E+00  0.45593999997E+02  0.45594000000E+02  0.51100000000E-03 0.  1.
         11   -1    0    0    0    0 -0.00000000000E+00 -0.00000000000E+00 -0.45593999997E+02  0.45594000000E+02  0.51100000000E-03 0. -1.
         23    2    1    2    0    0  0.88817841970E-15  0.71054273576E-14  0.00000000000E+00  0.91188000000E+02  0.91188000000E+02 0.  0.
    9900012    2    3    3    0    0  0.59567590732E+01 -0.32218540805E+02  0.16800657276E+02  0.54367089702E+02  0.40000012594E+02 0.  0.
         12    1    3    3    0    0 -0.59567590732E+01  0.32218540805E+02 -0.16800657276E+02  0.36820910298E+02  0.00000000000E+00 0. -1.
         11    1    4    4    0    0 -0.75496373740E+01 -0.21488927893E+02  0.38516273754E+01  0.23099915155E+02  0.51100000000E-03 0.  1.
        -11    1    4    4    0    0  0.12376041501E+02 -0.74805067269E+01 -0.31537490863E+01  0.14801030967E+02  0.51100000000E-03 0. -1.
        -12    1    4    4    0    0  0.11303549462E+01 -0.32491061852E+01  0.16102778987E+02  0.16466143580E+02  0.00000000000E+00 0.  1.
</event>
<event>
 8    1  0.2502398E-006  0.9118800E+02  0.7816164E-02  0.1184000E+00
        -11   -1    0    0    0    0  0.00000000000E+00  0.00000000000E+00  0.45593999997E+02  0.45594000000E+02  0.51100000000E-03 0.  1.
         11   -1    0    0    0    0 -0.00000000000E+00 -0.00000000000E+00 -0.45593999997E+02  0.45594000000E+02  0.51100000000E-03 0. -1.
         23    2    1    2    0    0  0.00000000000E+00  0.71054273576E-14  0.00000000000E+00  0.91188000000E+02  0.91188000000E+02 0.  0.
    9900012    2    3    3    0    0 -0.28735373534E+01  0.32085299783E+02 -0.17834129584E+02  0.54367083973E+02  0.39999999533E+02 0.  0.
        -12    1    3    3    0    0  0.28735373534E+01 -0.32085299783E+02  0.17834129584E+02  0.36820916027E+02  0.00000000000E+00 0.  1.
         11    1    4    4    0    0 -0.30769326213E+01  0.16866453231E+02 -0.12542724972E+02  0.21242991996E+02  0.51100000000E-03 0. -1.
        -11    1    4    4    0    0  0.11955331181E+02  0.11250165825E+02  0.48327860428E+01  0.17112918977E+02  0.51100000000E-03 0.  1.
        -12    1    4    4    0    0 -0.11751935913E+02  0.39686807265E+01 -0.10124190655E+02  0.16011173000E+02  0.00000000000E+00 0.  1.
</event>
<event>
 8    1  0.2502398E-006  0.9118800E+02  0.7816164E-02  0.1184000E+00
        -11   -1    0    0    0    0  0.00000000000E+00  0.00000000000E+00  0.45593999997E+02  0.45594000000E+02  0.51100000000E-03 0. -1.
         11   -1    0    0    0    0 -0.00000000000E+00 -0.00000000000E+00 -0.45593999997E+02  0.45594000000E+02  0.51100000000E-03 0.  1.
         23    2    1    2    0    0  0.35527136788E-14  0.35527136788E-14  0.35527136788E-14  0.91188000000E+02  0.91188000000E+02 0.  0.
    9900012    2    3    3    0    0  0.21381527107E+02 -0.18376417762E+02 -0.23683645597E+02  0.54367115981E+02  0.40000072502E+02 0.  0.
         12    1    3    3    0    0 -0.21381527107E+02  0.18376417762E+02  0.23683645597E+02  0.36820884019E+02  0.00000000000E+00 0. -1.
         11    1    4    4    0    0 -0.60718517759E+00  0.26773675055E+01 -0.13443985484E+01  0.30568575887E+01  0.51100000000E-03 0. -1.
        -11    1    4    4    0    0  0.25185957303E+01  0.53854313070E+01 -0.17044207342E+02  0.18051348952E+02  0.51100000000E-03 0.  1.
         12    1    4    4    0    0  0.19470116554E+02 -0.26439216574E+02 -0.52950397070E+01  0.33258909440E+02  0.00000000000E+00 0. -1.
</event>
<event>
 8    1  0.2502398E-006  0.9118800E+02  0.7816164E-02  0.1184000E+00
        -11   -1    0    0    0    0  0.00000000000E+00  0.00000000000E+00  0.45593999997E+02  0.45594000000E+02  0.51100000000E-03 0.  1.
         11   -1    0    0    0    0 -0.00000000000E+00 -0.00000000000E+00 -0.45593999997E+02  0.45594000000E+02  0.51100000000E-03 0. -1.
         23    2    1    2    0    0  0.00000000000E+00 -0.35527136788E-14  0.00000000000E+00  0.91188000000E+02  0.91188000000E+02 0.  0.
    9900012    2    3    3    0    0  0.17057774917E+02  0.11009159632E+02  0.30718262958E+02  0.54367068995E+02  0.39999965388E+02 0.  0.
         12    1    3    3    0    0 -0.17057774917E+02 -0.11009159632E+02 -0.30718262958E+02  0.36820931005E+02  0.00000000000E+00 0. -1.
         11    1    4    4    0    0  0.55938883684E+01 -0.76712183463E+01  0.10068484149E+02  0.13838842123E+02  0.51100000000E-03 0. -1.
        -11    1    4    4    0    0  0.16228695791E+02  0.10196536341E+02  0.17188387099E+01  0.19243033213E+02  0.51100000000E-03 0.  1.
        -12    1    4    4    0    0 -0.47648092433E+01  0.84838416371E+01  0.18930940100E+02  0.21285193659E+02  0.00000000000E+00 0.  1.
</event>
<event>
 8    1  0.2502398E-006  0.9118800E+02  0.7816164E-02  0.1184000E+00
        -11   -1    0    0    0    0  0.00000000000E+00  0.00000000000E+00  0.45593999997E+02  0.45594000000E+02  0.51100000000E-03 0. -1.
         11   -1    0    0    0    0 -0.00000000000E+00 -0.00000000000E+00 -0.45593999997E+02  0.45594000000E+02  0.51100000000E-03 0.  1.
         23    2    1    2    0    0  0.71054273576E-14 -0.35527136788E-14  0.00000000000E+00  0.91188000000E+02  0.91188000000E+02 0.  0.
    9900012    2    3    3    0    0 -0.25398177594E+02  0.24385894097E+02 -0.10772214681E+02  0.54367083863E+02  0.39999999283E+02 0.  0.
         12    1    3    3    0    0  0.25398177594E+02 -0.24385894097E+02  0.10772214681E+02  0.36820916137E+02  0.00000000000E+00 0. -1.
         11    1    4    4    0    0  0.42202420906E+01  0.30971977800E+01  0.40316486452E+01  0.66073647131E+01  0.51100000000E-03 0. -1.
        -11    1    4    4    0    0 -0.30320393848E+01 -0.54419089494E+01  0.19160057178E+01  0.65175696403E+01  0.51100000000E-03 0.  1.
        -12    1    4    4    0    0 -0.26586380300E+02  0.26730605266E+02 -0.16719869044E+02  0.41242149510E+02  0.00000000000E+00 0.  1.
</event>
<event>
 8    1  0.2502398E-006  0.9118800E+02  0.7816164E-02  0.1184000E+00
        -11   -1    0    0    0    0  0.00000000000E+00  0.00000000000E+00  0.45593999997E+02  0.45594000000E+02  0.51100000000E-03 0. -1.
         11   -1    0    0    0    0 -0.00000000000E+00 -0.00000000000E+00 -0.45593999997E+02  0.45594000000E+02  0.51100000000E-03 0.  1.
         23    2    1    2    0    0  0.17763568394E-14  0.00000000000E+00  0.00000000000E+00  0.91188000000E+02  0.91188000000E+02 0.  0.
    9900012    2    3    3    0    0  0.10714837370E+02 -0.55284576922E+01  0.34790913740E+02  0.54367092037E+02  0.40000017917E+02 0.  0.
        -12    1    3    3    0    0 -0.10714837370E+02  0.55284576922E+01 -0.34790913740E+02  0.36820907963E+02  0.00000000000E+00 0.  1.
         11    1    4    4    0    0 -0.62422705539E+01 -0.80063945455E+01  0.23513050145E+02  0.25611165977E+02  0.51100000000E-03 0. -1.
        -11    1    4    4    0    0  0.64513606146E+01 -0.20605306619E+01  0.15214417841E+02  0.16653658783E+02  0.51100000000E-03 0.  1.
        -12    1    4    4    0    0  0.10505747309E+02  0.45384675152E+01 -0.39365542457E+01  0.12102267277E+02  0.00000000000E+00 0.  1.
</event>
<event>
 8    1  0.2502398E-006  0.9118800E+02  0.7816164E-02  0.1184000E+00
        -11   -1    0    0    0    0  0.00000000000E+00  0.00000000000E+00  0.45593999997E+02  0.45594000000E+02  0.51100000000E-03 0.  1.
         11   -1    0    0    0    0 -0.00000000000E+00 -0.00000000000E+00 -0.45593999997E+02  0.45594000000E+02  0.51100000000E-03 0. -1.
         23    2    1    2    0    0 -0.35527136788E-14  0.00000000000E+00  0.35527136788E-14  0.91188000000E+02  0.91188000000E+02 0.  0.
    9900012    2    3    3    0    0 -0.19553523758E+02 -0.61239683737E+01  0.30593110399E+02  0.54367059166E+02  0.39999942980E+02 0.  0.
         12    1    3    3    0    0  0.19553523758E+02  0.61239683737E+01 -0.30593110399E+02  0.36820940834E+02  0.00000000000E+00 0. -1.
         11    1    4    4    0    0  0.32448819144E+00 -0.59104040174E+01  0.32699067615E+02  0.33230515966E+02  0.51100000000E-03 0. -1.
        -11    1    4    4    0    0 -0.13028018717E+02 -0.33581493960E+01 -0.72183311253E+00  0.13473213513E+02  0.51100000000E-03 0.  1.
         12    1    4    4    0    0 -0.68499932324E+01  0.31445850397E+01 -0.13841241030E+01  0.76633296868E+01  0.00000000000E+00 0. -1.
</event>
<event>
 8    1  0.2502398E-006  0.9118800E+02  0.7816164E-02  0.1184000E+00
        -11   -1    0    0    0    0  0.00000000000E+00  0.00000000000E+00  0.45593999997E+02  0.45594000000E+02  0.51100000000E-03 0. -1.
         11   -1    0    0    0    0 -0.00000000000E+00 -0.00000000000E+00 -0.45593999997E+02  0.45594000000E+02  0.51100000000E-03 0.  1.
         23    2    1    2    0    0 -0.71054273576E-14  0.00000000000E+00 -0.71054273576E-14  0.91188000000E+02  0.91188000000E+02 0.  0.
    9900012    2    3    3    0    0 -0.24898377623E+02 -0.47531988794E+01 -0.26706886411E+02  0.54367083531E+02  0.39999998524E+02 0.  0.
         12    1    3    3    0    0  0.24898377623E+02  0.47531988794E+01  0.26706886411E+02  0.36820916469E+02  0.00000000000E+00 0. -1.
         11    1    4    4    0    0 -0.98184574831E+01 -0.77253528693E+01 -0.10997467349E+01  0.12541635756E+02  0.51100000000E-03 0. -1.
        -11    1    4    4    0    0 -0.10377814658E+02  0.32096462934E+00  0.44436253007E+01  0.11293708932E+02  0.51100000000E-03 0.  1.
        -12    1    4    4    0    0 -0.47021054820E+01  0.26511893606E+01 -0.30050764977E+02  0.30531738842E+02  0.00000000000E+00 0.  1.
</event>
<event>
 8    1  0.2502398E-006  0.9118800E+02  0.7816164E-02  0.1184000E+00
        -11   -1    0    0    0    0  0.00000000000E+00  0.00000000000E+00  0.45593999997E+02  0.45594000000E+02  0.51100000000E-03 0.  1.
         11   -1    0    0    0    0 -0.00000000000E+00 -0.00000000000E+00 -0.45593999997E+02  0.45594000000E+02  0.51100000000E-03 0. -1.
         23    2    1    2    0    0  0.00000000000E+00  0.00000000000E+00 -0.35527136788E-14  0.91188000000E+02  0.91188000000E+02 0.  0.
    9900012    2    3    3    0    0 -0.65801970466E+01 -0.33795483049E+02 -0.13051549845E+02  0.54367127916E+02  0.40000099710E+02 0.  0.
        -12    1    3    3    0    0  0.65801970466E+01  0.33795483049E+02  0.13051549845E+02  0.36820872084E+02  0.00000000000E+00 0.  1.
         11    1    4    4    0    0 -0.32489652427E+01 -0.49711949978E+01 -0.10849186832E+02  0.12368241995E+02  0.51100000000E-03 0. -1.
        -11    1    4    4    0    0  0.99189151425E+01 -0.39270955769E+01  0.64890258943E+01  0.12486569368E+02  0.51100000000E-03 0.  1.
        -12    1    4    4    0    0 -0.13250146946E+02 -0.24897192474E+02 -0.86913889073E+01  0.29512316553E+02  0.00000000000E+00 0.  1.
</event>
<event>
 8    1  0.2502398E-006  0.9118800E+02  0.7816164E-02  0.1184000E+00
        -11   -1    0    0    0    0  0.00000000000E+00  0.00000000000E+00  0.45593999997E+02  0.45594000000E+02  0.51100000000E-03 0.  1.
         11   -1    0    0    0    0 -0.00000000000E+00 -0.00000000000E+00 -0.45593999997E+02  0.45594000000E+02  0.51100000000E-03 0. -1.
         23    2    1    2    0    0  0.00000000000E+00  0.00000000000E+00  0.35527136788E-14  0.91188000000E+02  0.91188000000E+02 0.  0.
    9900012    2    3    3    0    0 -0.16800889136E+02 -0.23602223412E+02  0.22725442991E+02  0.54367074090E+02  0.39999977002E+02 0.  0.
         12    1    3    3    0    0  0.16800889136E+02  0.23602223412E+02 -0.22725442991E+02  0.36820925910E+02  0.00000000000E+00 0. -1.
         11    1    4    4    0    0 -0.18969413794E+02 -0.82075357779E+01 -0.97708335136E+00  0.20691954847E+02  0.51100000000E-03 0. -1.
        -11    1    4    4    0    0 -0.24179420411E+01 -0.10562178808E+02  0.20589455008E+01  0.11029293799E+02  0.51100000000E-03 0.  1.
        -12    1    4    4    0    0  0.45864666996E+01 -0.48325088267E+01  0.21643580842E+02  0.22645825443E+02  0.00000000000E+00 0.  1.
</event>
<event>
 8    1  0.2502398E-006  0.9118800E+02  0.7816164E-02  0.1184000E+00
        -11   -1    0    0    0    0  0.00000000000E+00  0.00000000000E+00  0.45593999997E+02  0.45594000000E+02  0.51100000000E-03 0. -1.
         11   -1    0    0    0    0 -0.00000000000E+00 -0.00000000000E+00 -0.45593999997E+02  0.45594000000E+02  0.51100000000E-03 0.  1.
         23    2    1    2    0    0  0.00000000000E+00 -0.35527136788E-14  0.00000000000E+00  0.91188000000E+02  0.91188000000E+02 0.  0.
    9900012    2    3    3    0    0  0.20088406966E+02 -0.27228160166E+02  0.14521244573E+02  0.54367036617E+02  0.39999891577E+02 0.  0.
        -12    1    3    3    0    0 -0.20088406966E+02  0.27228160166E+02 -0.14521244573E+02  0.36820963383E+02  0.00000000000E+00 0.  1.
         11    1    4    4    0    0 -0.92776728979E+01  0.16491993140E+01  0.47097536927E+01  0.10534555182E+02  0.51100000000E-03 0. -1.
        -11    1    4    4    0    0  0.70314035168E+01 -0.57590368298E+01 -0.24745237712E+01  0.94196819892E+01  0.51100000000E-03 0.  1.
         12    1    4    4    0    0  0.22334676348E+02 -0.23118322650E+02  0.12286014651E+02  0.34412799446E+02  0.00000000000E+00 0. -1.
</event>
<event>
 8    1  0.2502398E-006  0.9118800E+02  0.7816164E-02  0.1184000E+00
        -11   -1    0    0    0    0  0.00000000000E+00  0.00000000000E+00  0.45593999997E+02  0.45594000000E+02  0.51100000000E-03 0.  1.
         11   -1    0    0    0    0 -0.00000000000E+00 -0.00000000000E+00 -0.45593999997E+02  0.45594000000E+02  0.51100000000E-03 0. -1.
         23    2    1    2    0    0  0.00000000000E+00  0.19984014443E-14  0.00000000000E+00  0.91188000000E+02  0.91188000000E+02 0.  0.
    9900012    2    3    3    0    0 -0.36149359420E+02  0.55867174223E+00  0.69779405695E+01  0.54367082641E+02  0.39999996497E+02 0.  0.
         12    1    3    3    0    0  0.36149359420E+02 -0.55867174223E+00 -0.69779405695E+01  0.36820917359E+02  0.00000000000E+00 0. -1.
         11    1    4    4    0    0 -0.81857151371E+00  0.85432115494E+01 -0.70972859317E+01  0.11136785477E+02  0.51100000000E-03 0. -1.
        -11    1    4    4    0    0 -0.10477331276E+02 -0.90240249831E+01 -0.14566654346E+01  0.13904293295E+02  0.51100000000E-03 0.  1.
        -12    1    4    4    0    0 -0.24853456629E+02  0.10394851759E+01  0.15531891936E+02  0.29326003870E+02  0.00000000000E+00 0.  1.
</event>
<event>
 8    1  0.2502398E-006  0.9118800E+02  0.7816164E-02  0.1184000E+00
        -11   -1    0    0    0    0  0.00000000000E+00  0.00000000000E+00  0.45593999997E+02  0.45594000000E+02  0.51100000000E-03 0.  1.
         11   -1    0    0    0    0 -0.00000000000E+00 -0.00000000000E+00 -0.45593999997E+02  0.45594000000E+02  0.51100000000E-03 0. -1.
         23    2    1    2    0    0  0.00000000000E+00  0.00000000000E+00 -0.44408920985E-15  0.91188000000E+02  0.91188000000E+02 0.  0.
    9900012    2    3    3    0    0 -0.15724325790E+02  0.33226613641E+02  0.21252970212E+01  0.54367093398E+02  0.40000021019E+02 0.  0.
        -12    1    3    3    0    0  0.15724325790E+02 -0.33226613641E+02 -0.21252970212E+01  0.36820906602E+02  0.00000000000E+00 0.  1.
         11    1    4    4    0    0 -0.87047515225E+01  0.58906071638E+01 -0.48236702037E+01  0.11564590193E+02  0.51100000000E-03 0. -1.
        -11    1    4    4    0    0 -0.13535559829E+02  0.31106798010E+02  0.88060929473E+01  0.35048417020E+02  0.51100000000E-03 0.  1.
        -12    1    4    4    0    0  0.65159855614E+01 -0.37707915331E+01 -0.18571257225E+01  0.77540861855E+01  0.00000000000E+00 0.  1.
</event>
<event>
 8    1  0.2502398E-006  0.9118800E+02  0.7816164E-02  0.1184000E+00
        -11   -1    0    0    0    0  0.00000000000E+00  0.00000000000E+00  0.45593999997E+02  0.45594000000E+02  0.51100000000E-03 0.  1.
         11   -1    0    0    0    0 -0.00000000000E+00 -0.00000000000E+00 -0.45593999997E+02  0.45594000000E+02  0.51100000000E-03 0. -1.
         23    2    1    2    0    0  0.00000000000E+00 -0.35527136788E-14 -0.35527136788E-14  0.91188000000E+02  0.91188000000E+02 0.  0.
    9900012    2    3    3    0    0  0.19754175137E+02 -0.25703434991E+02 -0.17460943763E+02  0.54367101549E+02  0.40000039601E+02 0.  0.
        -12    1    3    3    0    0 -0.19754175137E+02  0.25703434991E+02  0.17460943763E+02  0.36820898451E+02  0.00000000000E+00 0.  1.
         11    1    4    4    0    0  0.10012124135E+02 -0.65872043485E+01  0.25153028570E+01  0.12245841724E+02  0.51100000000E-03 0.  1.
        -11    1    4    4    0    0 -0.41658533685E+01  0.51804557336E+01  0.15265704043E+01  0.68206944922E+01  0.51100000000E-03 0. -1.
         12    1    4    4    0    0  0.13907904371E+02 -0.24296686376E+02 -0.21502817024E+02  0.35300565332E+02  0.00000000000E+00 0. -1.
</event>
<event>
 8    1  0.2502398E-006  0.9118800E+02  0.7816164E-02  0.1184000E+00
        -11   -1    0    0    0    0  0.00000000000E+00  0.00000000000E+00  0.45593999997E+02  0.45594000000E+02  0.51100000000E-03 0.  1.
         11   -1    0    0    0    0 -0.00000000000E+00 -0.00000000000E+00 -0.45593999997E+02  0.45594000000E+02  0.51100000000E-03 0. -1.
         23    2    1    2    0    0  0.88817841970E-15  0.00000000000E+00 -0.14210854715E-13  0.91188000000E+02  0.91188000000E+02 0.  0.
    9900012    2    3    3    0    0 -0.16955679622E+01 -0.81980112481E+01 -0.35856627506E+02  0.54367081011E+02  0.39999992780E+02 0.  0.
        -12    1    3    3    0    0  0.16955679622E+01  0.81980112481E+01  0.35856627506E+02  0.36820918989E+02  0.00000000000E+00 0.  1.
         11    1    4    4    0    0  0.12402799562E+02  0.53966955571E+01 -0.39334190522E-01  0.13526097270E+02  0.51100000000E-03 0. -1.
        -11    1    4    4    0    0 -0.35416278504E+01 -0.27226625897E+01 -0.84498304219E+01  0.95580151615E+01  0.51100000000E-03 0.  1.
         12    1    4    4    0    0 -0.10556739674E+02 -0.10872044215E+02 -0.27367462893E+02  0.31282968580E+02  0.00000000000E+00 0. -1.
</event>
<event>
 8    1  0.2502398E-006  0.9118800E+02  0.7816164E-02  0.1184000E+00
        -11   -1    0    0    0    0  0.00000000000E+00  0.00000000000E+00  0.45593999997E+02  0.45594000000E+02  0.51100000000E-03 0. -1.
         11   -1    0    0    0    0 -0.00000000000E+00 -0.00000000000E+00 -0.45593999997E+02  0.45594000000E+02  0.51100000000E-03 0.  1.
         23    2    1    2    0    0  0.17763568394E-14  0.00000000000E+00  0.00000000000E+00  0.91188000000E+02  0.91188000000E+02 0.  0.
    9900012    2    3    3    0    0 -0.89833443930E+01 -0.14252631071E+02 -0.32740514068E+02  0.54367092483E+02  0.40000018933E+02 0.  0.
         12    1    3    3    0    0  0.89833443930E+01  0.14252631071E+02  0.32740514068E+02  0.36820907517E+02  0.00000000000E+00 0. -1.
         11    1    4    4    0    0 -0.49463902762E+01 -0.11866954416E+01  0.11645127802E+01  0.52183439051E+01  0.51100000000E-03 0. -1.
        -11    1    4    4    0    0 -0.16399370876E+02 -0.10511664119E+02 -0.30298893229E+02  0.36020235685E+02  0.51100000000E-03 0.  1.
         12    1    4    4    0    0  0.12362416759E+02 -0.25542715110E+01 -0.36061336195E+01  0.13128512892E+02  0.00000000000E+00 0. -1.
</event>
<event>
 8    1  0.2502398E-006  0.9118800E+02  0.7816164E-02  0.1184000E+00
        -11   -1    0    0    0    0  0.00000000000E+00  0.00000000000E+00  0.45593999997E+02  0.45594000000E+02  0.51100000000E-03 0. -1.
         11   -1    0    0    0    0 -0.00000000000E+00 -0.00000000000E+00 -0.45593999997E+02  0.45594000000E+02  0.51100000000E-03 0.  1.
         23    2    1    2    0    0 -0.22204460493E-14  0.44408920985E-15  0.00000000000E+00  0.91188000000E+02  0.91188000000E+02 0.  0.
    9900012    2    3    3    0    0 -0.34581880257E+01  0.24098599689E+01 -0.36578868166E+02  0.54367080867E+02  0.39999992453E+02 0.  0.
         12    1    3    3    0    0  0.34581880257E+01 -0.24098599689E+01  0.36578868166E+02  0.36820919133E+02  0.00000000000E+00 0. -1.
         11    1    4    4    0    0 -0.35790176500E+01  0.46350975958E+01 -0.21441852235E+01  0.62362671203E+01  0.51100000000E-03 0. -1.
        -11    1    4    4    0    0 -0.11010661632E+02  0.39883307245E+01 -0.32342457995E+00  0.11715206155E+02  0.51100000000E-03 0.  1.
         12    1    4    4    0    0  0.11131491256E+02 -0.62135683515E+01 -0.34111258362E+02  0.36415607592E+02  0.00000000000E+00 0. -1.
</event>
<event>
 8    1  0.2502398E-006  0.9118800E+02  0.7816164E-02  0.1184000E+00
        -11   -1    0    0    0    0  0.00000000000E+00  0.00000000000E+00  0.45593999997E+02  0.45594000000E+02  0.51100000000E-03 0.  1.
         11   -1    0    0    0    0 -0.00000000000E+00 -0.00000000000E+00 -0.45593999997E+02  0.45594000000E+02  0.51100000000E-03 0. -1.
         23    2    1    2    0    0  0.00000000000E+00  0.00000000000E+00  0.00000000000E+00  0.91188000000E+02  0.91188000000E+02 0.  0.
    9900012    2    3    3    0    0  0.93134609831E+01  0.34071725138E+02  0.10400395246E+02  0.54366929529E+02  0.39999647445E+02 0.  0.
         12    1    3    3    0    0 -0.93134609831E+01 -0.34071725138E+02 -0.10400395246E+02  0.36821070471E+02  0.00000000000E+00 0. -1.
         11    1    4    4    0    0  0.16089453979E+01  0.20383319393E+01 -0.12597537158E+02  0.12862404328E+02  0.51100000000E-03 0. -1.
        -11    1    4    4    0    0  0.85031812898E+01  0.16725145978E+02  0.92732082006E+01  0.20929094358E+02  0.51100000000E-03 0.  1.
        -12    1    4    4    0    0 -0.79866570456E+00  0.15308247221E+02  0.13724724204E+02  0.20575430842E+02  0.00000000000E+00 0.  1.
</event>
<event>
 8    1  0.2502398E-006  0.9118800E+02  0.7816164E-02  0.1184000E+00
        -11   -1    0    0    0    0  0.00000000000E+00  0.00000000000E+00  0.45593999997E+02  0.45594000000E+02  0.51100000000E-03 0.  1.
         11   -1    0    0    0    0 -0.00000000000E+00 -0.00000000000E+00 -0.45593999997E+02  0.45594000000E+02  0.51100000000E-03 0. -1.
         23    2    1    2    0    0 -0.17763568394E-14  0.00000000000E+00  0.00000000000E+00  0.91188000000E+02  0.91188000000E+02 0.  0.
    9900012    2    3    3    0    0 -0.91881526255E+01  0.65130035341E+01  0.35056227931E+02  0.54367075508E+02  0.39999980236E+02 0.  0.
         12    1    3    3    0    0  0.91881526255E+01 -0.65130035341E+01 -0.35056227931E+02  0.36820924492E+02  0.00000000000E+00 0. -1.
         11    1    4    4    0    0 -0.15112147599E+02  0.45039995879E+01  0.26692527868E+02  0.31002484765E+02  0.51100000000E-03 0.  1.
        -11    1    4    4    0    0 -0.39846866851E+00 -0.83686805498E+01  0.73935176979E+01  0.11173974031E+02  0.51100000000E-03 0. -1.
         12    1    4    4    0    0  0.63224636425E+01  0.10377684496E+02  0.97018236434E+00  0.12190616712E+02  0.00000000000E+00 0. -1.
</event>
<event>
 8    1  0.2502398E-006  0.9118800E+02  0.7816164E-02  0.1184000E+00
        -11   -1    0    0    0    0  0.00000000000E+00  0.00000000000E+00  0.45593999997E+02  0.45594000000E+02  0.51100000000E-03 0.  1.
         11   -1    0    0    0    0 -0.00000000000E+00 -0.00000000000E+00 -0.45593999997E+02  0.45594000000E+02  0.51100000000E-03 0. -1.
         23    2    1    2    0    0 -0.17763568394E-14  0.88817841970E-15  0.00000000000E+00  0.91188000000E+02  0.91188000000E+02 0.  0.
    9900012    2    3    3    0    0 -0.13655502524E+02 -0.64223785306E+01 -0.33586607097E+02  0.54367083778E+02  0.39999999089E+02 0.  0.
        -12    1    3    3    0    0  0.13655502524E+02  0.64223785306E+01  0.33586607097E+02  0.36820916222E+02  0.00000000000E+00 0.  1.
         11    1    4    4    0    0 -0.43865746308E+01 -0.43110594283E+00 -0.10885852570E+02  0.11744346545E+02  0.51100000000E-03 0.  1.
        -11    1    4    4    0    0  0.60252900902E+01 -0.81713053420E+01 -0.25019467753E+02  0.27000891070E+02  0.51100000000E-03 0. -1.
        -12    1    4    4    0    0 -0.15294217983E+02  0.21800327542E+01  0.23187132265E+01  0.15621846163E+02  0.00000000000E+00 0.  1.
</event>
