<event>
 8    1  0.2401680E-006  0.9118800E+02  0.7816164E-02  0.1184000E+00
        -11   -1    0    0    0    0  0.00000000000E+00  0.00000000000E+00  0.45593999997E+02  0.45594000000E+02  0.51100000000E-03 0.  1.
         11   -1    0    0    0    0 -0.00000000000E+00 -0.00000000000E+00 -0.45593999997E+02  0.45594000000E+02  0.51100000000E-03 0. -1.
         23    2    1    2    0    0  0.88817841970E-15  0.00000000000E+00  0.00000000000E+00  0.91188000000E+02  0.91188000000E+02 0.  0.
    9900012    2    3    3    0    0  0.73873234582E+01  0.24649417229E+01  0.35987921015E+02  0.54367096364E+02  0.40000027782E+02 0.  0.
         12    1    3    3    0    0 -0.73873234582E+01 -0.24649417229E+01 -0.35987921015E+02  0.36820903636E+02  0.00000000000E+00 0. -1.
         11    1    4    4    0    0  0.14354916196E+01  0.28859728722E+01 -0.47045673274E+01  0.57028439930E+01  0.51100000000E-03 0. -1.
        -11    1    4    4    0    0  0.92299989577E+01  0.11249083199E+02  0.23052086913E+02  0.27260474407E+02  0.51100000000E-03 0.  1.
         12    1    4    4    0    0 -0.32781671191E+01 -0.11670114349E+02  0.17640401429E+02  0.21403777964E+02  0.00000000000E+00 0. -1.
</event>
<event>
 8    1  0.2401680E-006  0.9118800E+02  0.7816164E-02  0.1184000E+00
        -11   -1    0    0    0    0  0.00000000000E+00  0.00000000000E+00  0.45593999997E+02  0.45594000000E+02  0.51100000000E-03 0. -1.
         11   -1    0    0    0    0 -0.00000000000E+00 -0.00000000000E+00 -0.45593999997E+02  0.45594000000E+02  0.51100000000E-03 0.  1.
         23    2    1    2    0    0  0.22204460493E-15  0.11102230246E-14  0.00000000000E+00  0.91188000000E+02  0.91188000000E+02 0.  0.
    9900012    2    3    3    0    0 -0.13208017367E+01 -0.33033396917E+00 -0.36795722742E+02  0.54367097650E+02  0.40000030714E+02 0.  0.
         12    1    3    3    0    0  0.13208017367E+01  0.33033396917E+00  0.36795722742E+02  0.36820902350E+02  0.00000000000E+00 0. -1.
         11    1    4    4    0    0  0.37838071362E+01  0.78535970189E+01  0.43494874113E+00  0.87284227239E+01  0.51100000000E-03 0. -1.
        -11    1    4    4    0    0 -0.42898741518E+01 -0.53032962894E+01  0.13404098798E+01  0.69515948298E+01  0.51100000000E-03 0.  1.
        -12    1    4    4    0    0 -0.81473472111E+00 -0.28806346987E+01 -0.38571081363E+02  0.38687080097E+02  0.00000000000E+00 0.  1.
</event>
<event>
 8    1  0.2401680E-006  0.9118800E+02  0.7816164E-02  0.1184000E+00
        -11   -1    0    0    0    0  0.00000000000E+00  0.00000000000E+00  0.45593999997E+02  0.45594000000E+02  0.51100000000E-03 0. -1.
         11   -1    0    0    0    0 -0.00000000000E+00 -0.00000000000E+00 -0.45593999997E+02  0.45594000000E+02  0.51100000000E-03 0.  1.
         23    2    1    2    0    0  0.00000000000E+00 -0.48849813084E-14  0.00000000000E+00  0.91188000000E+02  0.91188000000E+02 0.  0.
    9900012    2    3    3    0    0 -0.28600258672E+02 -0.16415564768E+01 -0.23132435398E+02  0.54367094644E+02  0.40000023861E+02 0.  0.
         12    1    3    3    0    0  0.28600258672E+02  0.16415564768E+01  0.23132435398E+02  0.36820905356E+02  0.00000000000E+00 0. -1.
         11    1    4    4    0    0 -0.13959718162E+02 -0.39874133995E+01 -0.46305403926E+01  0.15238605624E+02  0.51100000000E-03 0. -1.
        -11    1    4    4    0    0 -0.14091586003E+02  0.15583630727E+02 -0.91770027829E+01  0.22926834126E+02  0.51100000000E-03 0.  1.
        -12    1    4    4    0    0 -0.54895450704E+00 -0.13237773804E+02 -0.93248922226E+01  0.16201654894E+02  0.00000000000E+00 0.  1.
</event>
<event>
 8    1  0.2401680E-006  0.9118800E+02  0.7816164E-02  0.1184000E+00
        -11   -1    0    0    0    0  0.00000000000E+00  0.00000000000E+00  0.45593999997E+02  0.45594000000E+02  0.51100000000E-03 0. -1.
         11   -1    0    0    0    0 -0.00000000000E+00 -0.00000000000E+00 -0.45593999997E+02  0.45594000000E+02  0.51100000000E-03 0.  1.
         23    2    1    2    0    0 -0.71054273576E-14 -0.17763568394E-14  0.35527136788E-14  0.91188000000E+02  0.91188000000E+02 0.  0.
    9900012    2    3    3    0    0  0.32424376455E+02 -0.47924169084E+01 -0.16777115955E+02  0.54367094687E+02  0.40000023957E+02 0.  0.
        -12    1    3    3    0    0 -0.32424376455E+02  0.47924169084E+01  0.16777115955E+02  0.36820905313E+02  0.00000000000E+00 0.  1.
         11    1    4    4    0    0  0.13394951691E+02  0.68932408960E+01 -0.16086371549E+02  0.22038894045E+02  0.51100000000E-03 0. -1.
        -11    1    4    4    0    0 -0.21489709624E+01  0.27082174012E+01  0.50171327155E+01  0.60929581186E+01  0.51100000000E-03 0.  1.
         12    1    4    4    0    0  0.21178395727E+02 -0.14393875206E+02 -0.57078771208E+01  0.26235242523E+02  0.00000000000E+00 0. -1.
</event>
<event>
 8    1  0.2401680E-006  0.9118800E+02  0.7816164E-02  0.1184000E+00
        -11   -1    0    0    0    0  0.00000000000E+00  0.00000000000E+00  0.45593999997E+02  0.45594000000E+02  0.51100000000E-03 0.  1.
         11   -1    0    0    0    0 -0.00000000000E+00 -0.00000000000E+00 -0.45593999997E+02  0.45594000000E+02  0.51100000000E-03 0. -1.
         23    2    1    2    0    0 -0.35527136788E-14  0.35527136788E-14 -0.88817841970E-15  0.91188000000E+02  0.91188000000E+02 0.  0.
    9900012    2    3    3    0    0 -0.31361302464E+02  0.18660964960E+02  0.49007457473E+01  0.54367079121E+02  0.39999988472E+02 0.  0.
        -12    1    3    3    0    0  0.31361302464E+02 -0.18660964960E+02 -0.49007457473E+01  0.36820920879E+02  0.00000000000E+00 0.  1.
         11    1    4    4    0    0 -0.91715132077E+01  0.12198483852E+00 -0.36578232048E+01  0.98747762343E+01  0.51100000000E-03 0. -1.
        -11    1    4    4    0    0 -0.15413231915E+02 -0.14306208281E+01  0.15873420638E+02  0.22171600687E+02  0.51100000000E-03 0.  1.
        -12    1    4    4    0    0 -0.67765573411E+01  0.19969600950E+02 -0.73148516858E+01  0.22320702199E+02  0.00000000000E+00 0.  1.
</event>
<event>
 8    1  0.2401680E-006  0.9118800E+02  0.7816164E-02  0.1184000E+00
        -11   -1    0    0    0    0  0.00000000000E+00  0.00000000000E+00  0.45593999997E+02  0.45594000000E+02  0.51100000000E-03 0. -1.
         11   -1    0    0    0    0 -0.00000000000E+00 -0.00000000000E+00 -0.45593999997E+02  0.45594000000E+02  0.51100000000E-03 0.  1.
         23    2    1    2    0    0  0.35527136788E-14 -0.88817841970E-15  0.35527136788E-14  0.91188000000E+02  0.91188000000E+02 0.  0.
    9900012    2    3    3    0    0 -0.31418250111E+02  0.69193848058E+01 -0.17910709515E+02  0.54367111343E+02  0.40000061930E+02 0.  0.
         12    1    3    3    0    0  0.31418250111E+02 -0.69193848058E+01  0.17910709515E+02  0.36820888657E+02  0.00000000000E+00 0. -1.
         11    1    4    4    0    0 -0.14114296588E+02 -0.11871465690E+01  0.78184350784E+01  0.16178708616E+02  0.51100000000E-03 0. -1.
        -11    1    4    4    0    0 -0.15442156612E+02  0.82776024213E+01 -0.62234121858E+01  0.18593271959E+02  0.51100000000E-03 0.  1.
         12    1    4    4    0    0 -0.18617969113E+01 -0.17107104652E+00 -0.19505732408E+02  0.19595130768E+02  0.00000000000E+00 0. -1.
</event>
<event>
 8    1  0.2401680E-006  0.9118800E+02  0.7816164E-02  0.1184000E+00
        -11   -1    0    0    0    0  0.00000000000E+00  0.00000000000E+00  0.45593999997E+02  0.45594000000E+02  0.51100000000E-03 0.  1.
         11   -1    0    0    0    0 -0.00000000000E+00 -0.00000000000E+00 -0.45593999997E+02  0.45594000000E+02  0.51100000000E-03 0. -1.
         23    2    1    2    0    0  0.35527136788E-14  0.00000000000E+00  0.88817841970E-15  0.91188000000E+02  0.91188000000E+02 0.  0.
    9900012    2    3    3    0    0 -0.26159109393E+02 -0.24747579932E+02  0.76836140826E+01  0.54367086892E+02  0.40000006187E+02 0.  0.
        -12    1    3    3    0    0  0.26159109393E+02  0.24747579932E+02 -0.76836140826E+01  0.36820913108E+02  0.00000000000E+00 0.  1.
         11    1    4    4    0    0 -0.10405533492E+02  0.51101446548E+01 -0.42151515638E+01  0.12335161475E+02  0.51100000000E-03 0. -1.
        -11    1    4    4    0    0 -0.92018918697E+01 -0.25064229118E+02  0.17717691772E+02  0.32043829316E+02  0.51100000000E-03 0.  1.
        -12    1    4    4    0    0 -0.65516840313E+01 -0.47934954693E+01 -0.58189261256E+01  0.99880961007E+01  0.00000000000E+00 0.  1.
</event>
<event>
 8    1  0.2401680E-006  0.9118800E+02  0.7816164E-02  0.1184000E+00
        -11   -1    0    0    0    0  0.00000000000E+00  0.00000000000E+00  0.45593999997E+02  0.45594000000E+02  0.51100000000E-03 0. -1.
         11   -1    0    0    0    0 -0.00000000000E+00 -0.00000000000E+00 -0.45593999997E+02  0.45594000000E+02  0.51100000000E-03 0.  1.
         23    2    1    2    0    0  0.00000000000E+00  0.00000000000E+00  0.00000000000E+00  0.91188000000E+02  0.91188000000E+02 0.  0.
    9900012    2    3    3    0    0  0.31294744629E+02  0.14015922029E+02 -0.13415400167E+02  0.54367081036E+02  0.39999992838E+02 0.  0.
         12    1    3    3    0    0 -0.31294744629E+02 -0.14015922029E+02  0.13415400167E+02  0.36820918964E+02  0.00000000000E+00 0. -1.
         11    1    4    4    0    0 -0.13554362770E+01  0.67465431428E+01 -0.41517681745E+01  0.80368047827E+01  0.51100000000E-03 0. -1.
        -11    1    4    4    0    0  0.22493395640E+02  0.13992011480E+02 -0.17389962293E+02  0.31688168478E+02  0.51100000000E-03 0.  1.
         12    1    4    4    0    0  0.10156785266E+02 -0.67226325941E+01  0.81263303013E+01  0.14642107775E+02  0.00000000000E+00 0. -1.
</event>
<event>
 8    1  0.2401680E-006  0.9118800E+02  0.7816164E-02  0.1184000E+00
        -11   -1    0    0    0    0  0.00000000000E+00  0.00000000000E+00  0.45593999997E+02  0.45594000000E+02  0.51100000000E-03 0.  1.
         11   -1    0    0    0    0 -0.00000000000E+00 -0.00000000000E+00 -0.45593999997E+02  0.45594000000E+02  0.51100000000E-03 0. -1.
         23    2    1    2    0    0 -0.35527136788E-14  0.00000000000E+00  0.17763568394E-14  0.91188000000E+02  0.91188000000E+02 0.  0.
    9900012    2    3    3    0    0 -0.27086757085E+02 -0.21880878711E+02  0.11971490672E+02  0.54367056891E+02  0.39999937794E+02 0.  0.
         12    1    3    3    0    0  0.27086757085E+02  0.21880878711E+02 -0.11971490672E+02  0.36820943109E+02  0.00000000000E+00 0. -1.
         11    1    4    4    0    0 -0.24231148959E+02 -0.21437695270E+01  0.38299375799E+01  0.24625449230E+02  0.51100000000E-03 0. -1.
        -11    1    4    4    0    0 -0.93131197336E+01 -0.10872200799E+02  0.11400060531E+02  0.18300282232E+02  0.51100000000E-03 0.  1.
         12    1    4    4    0    0  0.64575116078E+01 -0.88649083852E+01 -0.32585074391E+01  0.11441325429E+02  0.00000000000E+00 0. -1.
</event>
<event>
 8    1  0.2401680E-006  0.9118800E+02  0.7816164E-02  0.1184000E+00
        -11   -1    0    0    0    0  0.00000000000E+00  0.00000000000E+00  0.45593999997E+02  0.45594000000E+02  0.51100000000E-03 0. -1.
         11   -1    0    0    0    0 -0.00000000000E+00 -0.00000000000E+00 -0.45593999997E+02  0.45594000000E+02  0.51100000000E-03 0.  1.
         23    2    1    2    0    0  0.71054273576E-14  0.35527136788E-14  0.00000000000E+00  0.91188000000E+02  0.91188000000E+02 0.  0.
    9900012    2    3    3    0    0 -0.29311550019E+02  0.21916186191E+02  0.40362867930E+01  0.54367112005E+02  0.40000063437E+02 0.  0.
        -12    1    3    3    0    0  0.29311550019E+02 -0.21916186191E+02 -0.40362867930E+01  0.36820887995E+02  0.00000000000E+00 0.  1.
         11    1    4    4    0    0 -0.36368967471E+02  0.25689884641E+02  0.23631690020E+01  0.44589870327E+02  0.51100000000E-03 0. -1.
        -11    1    4    4    0    0  0.17715165908E+01  0.10355638668E+01  0.16464733098E+01  0.26308816345E+01  0.51100000000E-03 0.  1.
         12    1    4    4    0    0  0.52859008612E+01 -0.48092623166E+01  0.26644481196E-01  0.71463600436E+01  0.00000000000E+00 0. -1.
</event>
<event>
 8    1  0.2401680E-006  0.9118800E+02  0.7816164E-02  0.1184000E+00
        -11   -1    0    0    0    0  0.00000000000E+00  0.00000000000E+00  0.45593999997E+02  0.45594000000E+02  0.51100000000E-03 0. -1.
         11   -1    0    0    0    0 -0.00000000000E+00 -0.00000000000E+00 -0.45593999997E+02  0.45594000000E+02  0.51100000000E-03 0.  1.
         23    2    1    2    0    0  0.00000000000E+00  0.00000000000E+00 -0.35527136788E-14  0.91188000000E+02  0.91188000000E+02 0.  0.
    9900012    2    3    3    0    0 -0.29177031702E+02 -0.14522926742E+02  0.17133444034E+02  0.54367224824E+02  0.40000320630E+02 0.  0.
        -12    1    3    3    0    0  0.29177031702E+02  0.14522926742E+02 -0.17133444034E+02  0.36820775176E+02  0.00000000000E+00 0.  1.
         11    1    4    4    0    0  0.33027226166E+01 -0.11270777380E+02 -0.42978738373E+01  0.12506403128E+02  0.51100000000E-03 0. -1.
        -11    1    4    4    0    0 -0.32381812904E+01 -0.14148366722E+01 -0.22488020761E+01  0.41886384323E+01  0.51100000000E-03 0.  1.
         12    1    4    4    0    0 -0.29241573028E+02 -0.18373126904E+01  0.23680119948E+02  0.37672183263E+02  0.00000000000E+00 0. -1.
</event>
<event>
 8    1  0.2401680E-006  0.9118800E+02  0.7816164E-02  0.1184000E+00
        -11   -1    0    0    0    0  0.00000000000E+00  0.00000000000E+00  0.45593999997E+02  0.45594000000E+02  0.51100000000E-03 0. -1.
         11   -1    0    0    0    0 -0.00000000000E+00 -0.00000000000E+00 -0.45593999997E+02  0.45594000000E+02  0.51100000000E-03 0.  1.
         23    2    1    2    0    0 -0.35527136788E-14  0.00000000000E+00  0.00000000000E+00  0.91188000000E+02  0.91188000000E+02 0.  0.
    9900012    2    3    3    0    0  0.20191072411E+02 -0.22627006416E+02 -0.20883463372E+02  0.54367083840E+02  0.39999999229E+02 0.  0.
         12    1    3    3    0    0 -0.20191072411E+02  0.22627006416E+02  0.20883463372E+02  0.36820916160E+02  0.00000000000E+00 0. -1.
         11    1    4    4    0    0 -0.84878923407E+01 -0.10635359396E+02 -0.12661892055E+02  0.18587057232E+02  0.51100000000E-03 0. -1.
        -11    1    4    4    0    0  0.53649307403E+01 -0.40439709631E+01  0.44715457413E+01  0.80703720222E+01  0.51100000000E-03 0.  1.
         12    1    4    4    0    0  0.23314034011E+02 -0.79476760571E+01 -0.12693117059E+02  0.27709654586E+02  0.00000000000E+00 0. -1.
</event>
<event>
 8    1  0.2401680E-006  0.9118800E+02  0.7816164E-02  0.1184000E+00
        -11   -1    0    0    0    0  0.00000000000E+00  0.00000000000E+00  0.45593999997E+02  0.45594000000E+02  0.51100000000E-03 0.  1.
         11   -1    0    0    0    0 -0.00000000000E+00 -0.00000000000E+00 -0.45593999997E+02  0.45594000000E+02  0.51100000000E-03 0. -1.
         23    2    1    2    0    0  0.00000000000E+00  0.00000000000E+00 -0.22204460493E-14  0.91188000000E+02  0.91188000000E+02 0.  0.
    9900012    2    3    3    0    0 -0.99013473428E+01  0.35405001640E+02  0.20565138742E+01  0.54367081086E+02  0.39999992952E+02 0.  0.
        -12    1    3    3    0    0  0.99013473428E+01 -0.35405001640E+02 -0.20565138742E+01  0.36820918914E+02  0.00000000000E+00 0.  1.
         11    1    4    4    0    0  0.12850617387E+02  0.11457330175E+02 -0.31161500373E+01  0.17496261695E+02  0.51100000000E-03 0. -1.
        -11    1    4    4    0    0 -0.87066252453E+01  0.11866349176E+02 -0.52349555205E+01  0.15621149941E+02  0.51100000000E-03 0.  1.
        -12    1    4    4    0    0 -0.14045339485E+02  0.12081322289E+02  0.10407619432E+02  0.21249669450E+02  0.00000000000E+00 0.  1.
</event>
<event>
 8    1  0.2401680E-006  0.9118800E+02  0.7816164E-02  0.1184000E+00
        -11   -1    0    0    0    0  0.00000000000E+00  0.00000000000E+00  0.45593999997E+02  0.45594000000E+02  0.51100000000E-03 0. -1.
         11   -1    0    0    0    0 -0.00000000000E+00 -0.00000000000E+00 -0.45593999997E+02  0.45594000000E+02  0.51100000000E-03 0.  1.
         23    2    1    2    0    0 -0.35527136788E-14 -0.31086244690E-14 -0.71054273576E-14  0.91188000000E+02  0.91188000000E+02 0.  0.
    9900012    2    3    3    0    0  0.17103045092E+02  0.10341162196E+01  0.32591368471E+02  0.54367070536E+02  0.39999968902E+02 0.  0.
        -12    1    3    3    0    0 -0.17103045092E+02 -0.10341162196E+01 -0.32591368471E+02  0.36820929464E+02  0.00000000000E+00 0.  1.
         11    1    4    4    0    0 -0.95356628203E+00 -0.92194790795E+01 -0.31154578900E+01  0.97782493974E+01  0.51100000000E-03 0. -1.
        -11    1    4    4    0    0  0.17772225507E+02  0.13713979085E+02  0.33942512200E+02  0.40694217729E+02  0.51100000000E-03 0.  1.
        -12    1    4    4    0    0  0.28438586662E+00 -0.34603837858E+01  0.17643141607E+01  0.38946034103E+01  0.00000000000E+00 0.  1.
</event>
<event>
 8    1  0.2401680E-006  0.9118800E+02  0.7816164E-02  0.1184000E+00
        -11   -1    0    0    0    0  0.00000000000E+00  0.00000000000E+00  0.45593999997E+02  0.45594000000E+02  0.51100000000E-03 0.  1.
         11   -1    0    0    0    0 -0.00000000000E+00 -0.00000000000E+00 -0.45593999997E+02  0.45594000000E+02  0.51100000000E-03 0. -1.
         23    2    1    2    0    0  0.00000000000E+00  0.00000000000E+00  0.88817841970E-15  0.91188000000E+02  0.91188000000E+02 0.  0.
    9900012    2    3    3    0    0 -0.34933687650E+02  0.93983820391E+01  0.68619544308E+01  0.54367101907E+02  0.40000040417E+02 0.  0.
        -12    1    3    3    0    0  0.34933687650E+02 -0.93983820391E+01 -0.68619544308E+01  0.36820898093E+02  0.00000000000E+00 0.  1.
         11    1    4    4    0    0 -0.18597666723E+01  0.56186409753E+01 -0.55066250855E+01  0.80839828413E+01  0.51100000000E-03 0. -1.
        -11    1    4    4    0    0 -0.16115063559E+01 -0.17369044285E+01  0.14096292627E+02  0.14294028677E+02  0.51100000000E-03 0.  1.
         12    1    4    4    0    0 -0.31462414622E+02  0.55166454924E+01 -0.17277131104E+01  0.31989090389E+02  0.00000000000E+00 0. -1.
</event>
<event>
 8    1  0.2401680E-006  0.9118800E+02  0.7816164E-02  0.1184000E+00
        -11   -1    0    0    0    0  0.00000000000E+00  0.00000000000E+00  0.45593999997E+02  0.45594000000E+02  0.51100000000E-03 0. -1.
         11   -1    0    0    0    0 -0.00000000000E+00 -0.00000000000E+00 -0.45593999997E+02  0.45594000000E+02  0.51100000000E-03 0.  1.
         23    2    1    2    0    0  0.00000000000E+00  0.00000000000E+00  0.14210854715E-13  0.91188000000E+02  0.91188000000E+02 0.  0.
    9900012    2    3    3    0    0 -0.16529510364E+02 -0.32749648663E+01 -0.32738870712E+02  0.54367030930E+02  0.39999878611E+02 0.  0.
         12    1    3    3    0    0  0.16529510364E+02  0.32749648663E+01  0.32738870712E+02  0.36820969070E+02  0.00000000000E+00 0. -1.
         11    1    4    4    0    0  0.10248036515E+02 -0.50579261114E+01  0.28244610300E+00  0.11431738496E+02  0.51100000000E-03 0. -1.
        -11    1    4    4    0    0 -0.13580247932E+02 -0.10668541959E+01 -0.19840320897E+02  0.24066566961E+02  0.51100000000E-03 0.  1.
         12    1    4    4    0    0 -0.13197298948E+02  0.28498154410E+01 -0.13180995919E+02  0.18868725473E+02  0.00000000000E+00 0. -1.
</event>
<event>
 8    1  0.2401680E-006  0.9118800E+02  0.7816164E-02  0.1184000E+00
        -11   -1    0    0    0    0  0.00000000000E+00  0.00000000000E+00  0.45593999997E+02  0.45594000000E+02  0.51100000000E-03 0.  1.
         11   -1    0    0    0    0 -0.00000000000E+00 -0.00000000000E+00 -0.45593999997E+02  0.45594000000E+02  0.51100000000E-03 0. -1.
         23    2    1    2    0    0 -0.44408920985E-15  0.44408920985E-15  0.00000000000E+00  0.91188000000E+02  0.91188000000E+02 0.  0.
    9900012    2    3    3    0    0  0.12318921658E+01 -0.33712435337E+01 -0.36645538892E+02  0.54367104276E+02  0.40000045817E+02 0.  0.
        -12    1    3    3    0    0 -0.12318921658E+01  0.33712435337E+01  0.36645538892E+02  0.36820895724E+02  0.00000000000E+00 0.  1.
         11    1    4    4    0    0  0.70095127517E+01 -0.50283662665E+01 -0.11164775464E+02  0.14109214994E+02  0.51100000000E-03 0. -1.
        -11    1    4    4    0    0  0.25953782720E+00 -0.92426835706E+01 -0.26193381588E+02  0.27777469265E+02  0.51100000000E-03 0.  1.
        -12    1    4    4    0    0 -0.60371584131E+01  0.10899806303E+02  0.71261816017E+00  0.12480420017E+02  0.00000000000E+00 0.  1.
</event>
<event>
 8    1  0.2401680E-006  0.9118800E+02  0.7816164E-02  0.1184000E+00
        -11   -1    0    0    0    0  0.00000000000E+00  0.00000000000E+00  0.45593999997E+02  0.45594000000E+02  0.51100000000E-03 0.  1.
         11   -1    0    0    0    0 -0.00000000000E+00 -0.00000000000E+00 -0.45593999997E+02  0.45594000000E+02  0.51100000000E-03 0. -1.
         23    2    1    2    0    0  0.17763568394E-14 -0.35527136788E-14  0.00000000000E+00  0.91188000000E+02  0.91188000000E+02 0.  0.
    9900012    2    3    3    0    0 -0.83213521263E+01  0.29187182657E+02 -0.20848102031E+02  0.54367083513E+02  0.39999998485E+02 0.  0.
        -12    1    3    3    0    0  0.83213521263E+01 -0.29187182657E+02  0.20848102031E+02  0.36820916487E+02  0.00000000000E+00 0.  1.
         11    1    4    4    0    0  0.19754800566E+01  0.16686222903E+01 -0.64181107864E+01  0.69194629943E+01  0.51100000000E-03 0. -1.
        -11    1    4    4    0    0  0.11006875878E+02  0.52569154120E+01 -0.11034486256E+02  0.16448293633E+02  0.51100000000E-03 0.  1.
        -12    1    4    4    0    0 -0.21303708061E+02  0.22261644954E+02 -0.33955049884E+01  0.30999326885E+02  0.00000000000E+00 0.  1.
</event>
<event>
 8    1  0.2401680E-006  0.9118800E+02  0.7816164E-02  0.1184000E+00
        -11   -1    0    0    0    0  0.00000000000E+00  0.00000000000E+00  0.45593999997E+02  0.45594000000E+02  0.51100000000E-03 0.  1.
         11   -1    0    0    0    0 -0.00000000000E+00 -0.00000000000E+00 -0.45593999997E+02  0.45594000000E+02  0.51100000000E-03 0. -1.
         23    2    1    2    0    0  0.00000000000E+00 -0.88817841970E-15  0.00000000000E+00  0.91188000000E+02  0.91188000000E+02 0.  0.
    9900012    2    3    3    0    0 -0.19172938293E+02 -0.47443876720E+01 -0.31075227988E+02  0.54367074269E+02  0.39999977411E+02 0.  0.
        -12    1    3    3    0    0  0.19172938293E+02  0.47443876720E+01  0.31075227988E+02  0.36820925731E+02  0.00000000000E+00 0.  1.
         11    1    4    4    0    0 -0.12652509246E+02 -0.92192034842E+01 -0.25521367637E+02  0.29940272367E+02  0.51100000000E-03 0. -1.
        -11    1    4    4    0    0  0.53928513952E+01 -0.33020105080E+00  0.53304686431E+01  0.75898468444E+01  0.51100000000E-03 0.  1.
        -12    1    4    4    0    0 -0.11913280442E+02  0.48050168630E+01 -0.10884328995E+02  0.16836955057E+02  0.00000000000E+00 0.  1.
</event>
<event>
 8    1  0.2401680E-006  0.9118800E+02  0.7816164E-02  0.1184000E+00
        -11   -1    0    0    0    0  0.00000000000E+00  0.00000000000E+00  0.45593999997E+02  0.45594000000E+02  0.51100000000E-03 0.  1.
         11   -1    0    0    0    0 -0.00000000000E+00 -0.00000000000E+00 -0.45593999997E+02  0.45594000000E+02  0.51100000000E-03 0. -1.
         23    2    1    2    0    0 -0.88817841970E-15  0.14210854715E-13  0.00000000000E+00  0.91188000000E+02  0.91188000000E+02 0.  0.
    9900012    2    3    3    0    0 -0.45257164449E+01 -0.35094826786E+02  0.10180912117E+02  0.54367082738E+02  0.39999996718E+02 0.  0.
         12    1    3    3    0    0  0.45257164449E+01  0.35094826786E+02 -0.10180912117E+02  0.36820917262E+02  0.00000000000E+00 0. -1.
         11    1    4    4    0    0  0.64833240747E+01 -0.33211233248E+02 -0.53844334614E+01  0.34263853094E+02  0.51100000000E-03 0.  1.
        -11    1    4    4    0    0 -0.11013751067E+02 -0.53178449157E+00  0.12033294451E+02  0.16321326016E+02  0.51100000000E-03 0. -1.
        -12    1    4    4    0    0  0.47105472458E-02 -0.13518090466E+01  0.35320511269E+01  0.37819036279E+01  0.00000000000E+00 0.  1.
</event>
<event>
 8    1  0.2401680E-006  0.9118800E+02  0.7816164E-02  0.1184000E+00
        -11   -1    0    0    0    0  0.00000000000E+00  0.00000000000E+00  0.45593999997E+02  0.45594000000E+02  0.51100000000E-03 0.  1.
         11   -1    0    0    0    0 -0.00000000000E+00 -0.00000000000E+00 -0.45593999997E+02  0.45594000000E+02  0.51100000000E-03 0. -1.
         23    2    1    2    0    0  0.00000000000E+00 -0.35527136788E-14  0.00000000000E+00  0.91188000000E+02  0.91188000000E+02 0.  0.
    9900012    2    3    3    0    0  0.20456315189E+02 -0.15915512097E+02  0.26153608824E+02  0.54367141632E+02  0.40000130977E+02 0.  0.
         12    1    3    3    0    0 -0.20456315189E+02  0.15915512097E+02 -0.26153608824E+02  0.36820858368E+02  0.00000000000E+00 0. -1.
         11    1    4    4    0    0 -0.52416134202E+01 -0.15505036718E+01  0.80598729226E+01  0.97385894601E+01  0.51100000000E-03 0. -1.
        -11    1    4    4    0    0  0.28270187949E+01  0.37876033246E+01 -0.53818646431E+01  0.71625722691E+01  0.51100000000E-03 0.  1.
        -12    1    4    4    0    0  0.22870909815E+02 -0.18152611750E+02  0.23475600545E+02  0.37465979902E+02  0.00000000000E+00 0.  1.
</event>
<event>
 8    1  0.2401680E-006  0.9118800E+02  0.7816164E-02  0.1184000E+00
        -11   -1    0    0    0    0  0.00000000000E+00  0.00000000000E+00  0.45593999997E+02  0.45594000000E+02  0.51100000000E-03 0.  1.
         11   -1    0    0    0    0 -0.00000000000E+00 -0.00000000000E+00 -0.45593999997E+02  0.45594000000E+02  0.51100000000E-03 0. -1.
         23    2    1    2    0    0  0.71054273576E-14 -0.13322676296E-14  0.00000000000E+00  0.91188000000E+02  0.91188000000E+02 0.  0.
    9900012    2    3    3    0    0 -0.35400930568E+02  0.11615382784E+01 -0.10060040027E+02  0.54367089343E+02  0.40000011775E+02 0.  0.
        -12    1    3    3    0    0  0.35400930568E+02 -0.11615382784E+01  0.10060040027E+02  0.36820910657E+02  0.00000000000E+00 0.  1.
         11    1    4    4    0    0 -0.60144464443E+01 -0.11731531352E+02  0.31582986532E+01  0.13556446604E+02  0.51100000000E-03 0. -1.
        -11    1    4    4    0    0 -0.21179602414E+01  0.45520490853E+01  0.49083151076E+01  0.70212864858E+01  0.51100000000E-03 0.  1.
         12    1    4    4    0    0 -0.27268523883E+02  0.83410205446E+01 -0.18126653788E+02  0.33789356253E+02  0.00000000000E+00 0. -1.
</event>
<event>
 8    1  0.2401680E-006  0.9118800E+02  0.7816164E-02  0.1184000E+00
        -11   -1    0    0    0    0  0.00000000000E+00  0.00000000000E+00  0.45593999997E+02  0.45594000000E+02  0.51100000000E-03 0.  1.
         11   -1    0    0    0    0 -0.00000000000E+00 -0.00000000000E+00 -0.45593999997E+02  0.45594000000E+02  0.51100000000E-03 0. -1.
         23    2    1    2    0    0  0.00000000000E+00  0.00000000000E+00  0.00000000000E+00  0.91188000000E+02  0.91188000000E+02 0.  0.
    9900012    2    3    3    0    0  0.17736752610E+01 -0.34616882141E+02 -0.12422127754E+02  0.54367031639E+02  0.39999880228E+02 0.  0.
        -12    1    3    3    0    0 -0.17736752610E+01  0.34616882141E+02  0.12422127754E+02  0.36820968361E+02  0.00000000000E+00 0.  1.
         11    1    4    4    0    0  0.28400175377E+00 -0.21910854807E+00 -0.11512603685E+02  0.11518190371E+02  0.51100000000E-03 0. -1.
        -11    1    4    4    0    0 -0.62030021620E+01 -0.33657182635E+02  0.26777566937E+01  0.34328611389E+02  0.51100000000E-03 0.  1.
        -12    1    4    4    0    0  0.76926756693E+01 -0.74059095822E+00 -0.35872807623E+01  0.85202298788E+01  0.00000000000E+00 0.  1.
</event>
<event>
 8    1  0.2401680E-006  0.9118800E+02  0.7816164E-02  0.1184000E+00
        -11   -1    0    0    0    0  0.00000000000E+00  0.00000000000E+00  0.45593999997E+02  0.45594000000E+02  0.51100000000E-03 0.  1.
         11   -1    0    0    0    0 -0.00000000000E+00 -0.00000000000E+00 -0.45593999997E+02  0.45594000000E+02  0.51100000000E-03 0. -1.
         23    2    1    2    0    0  0.00000000000E+00 -0.35527136788E-14 -0.17763568394E-14  0.91188000000E+02  0.91188000000E+02 0.  0.
    9900012    2    3    3    0    0 -0.22155878972E+02  0.29051580517E+02  0.45718187391E+01  0.54367097918E+02  0.40000031324E+02 0.  0.
         12    1    3    3    0    0  0.22155878972E+02 -0.29051580517E+02 -0.45718187391E+01  0.36820902082E+02  0.00000000000E+00 0. -1.
         11    1    4    4    0    0 -0.74557502537E+01  0.18382408182E+02 -0.20946973653E+01  0.19947152672E+02  0.51100000000E-03 0. -1.
        -11    1    4    4    0    0 -0.50538793643E+01 -0.28279404607E+01 -0.95835007835E+01  0.11197429679E+02  0.51100000000E-03 0.  1.
        -12    1    4    4    0    0 -0.96462493536E+01  0.13497112795E+02  0.16250016888E+02  0.23222515567E+02  0.00000000000E+00 0.  1.
</event>
<event>
 8    1  0.2401680E-006  0.9118800E+02  0.7816164E-02  0.1184000E+00
        -11   -1    0    0    0    0  0.00000000000E+00  0.00000000000E+00  0.45593999997E+02  0.45594000000E+02  0.51100000000E-03 0.  1.
         11   -1    0    0    0    0 -0.00000000000E+00 -0.00000000000E+00 -0.45593999997E+02  0.45594000000E+02  0.51100000000E-03 0. -1.
         23    2    1    2    0    0  0.00000000000E+00  0.71054273576E-14 -0.17763568394E-14  0.91188000000E+02  0.91188000000E+02 0.  0.
    9900012    2    3    3    0    0 -0.92893469994E+01  0.32683256425E+02 -0.14187730680E+02  0.54367096697E+02  0.40000028540E+02 0.  0.
        -12    1    3    3    0    0  0.92893469994E+01 -0.32683256425E+02  0.14187730680E+02  0.36820903303E+02  0.00000000000E+00 0.  1.
         11    1    4    4    0    0  0.25165786209E+01 -0.20413386014E+01 -0.50762584207E+01  0.60223443156E+01  0.51100000000E-03 0. -1.
        -11    1    4    4    0    0  0.33138311911E+01 -0.29784622766E+01  0.36562371317E+01  0.57637474719E+01  0.51100000000E-03 0.  1.
         12    1    4    4    0    0 -0.15119756811E+02  0.37703057303E+02 -0.12767709391E+02  0.42581004909E+02  0.00000000000E+00 0. -1.
</event>
<event>
 8    1  0.2401680E-006  0.9118800E+02  0.7816164E-02  0.1184000E+00
        -11   -1    0    0    0    0  0.00000000000E+00  0.00000000000E+00  0.45593999997E+02  0.45594000000E+02  0.51100000000E-03 0. -1.
         11   -1    0    0    0    0 -0.00000000000E+00 -0.00000000000E+00 -0.45593999997E+02  0.45594000000E+02  0.51100000000E-03 0.  1.
         23    2    1    2    0    0  0.00000000000E+00  0.35527136788E-14  0.11102230246E-14  0.91188000000E+02  0.91188000000E+02 0.  0.
    9900012    2    3    3    0    0  0.32182406770E+02  0.17868522154E+02 -0.88142089515E+00  0.54367241014E+02  0.40000357539E+02 0.  0.
         12    1    3    3    0    0 -0.32182406770E+02 -0.17868522154E+02  0.88142089515E+00  0.36820758986E+02  0.00000000000E+00 0. -1.
         11    1    4    4    0    0  0.12180899737E+02 -0.80385934617E+01 -0.96702174640E+00  0.14626292578E+02  0.51100000000E-03 0. -1.
        -11    1    4    4    0    0  0.19554663558E+02  0.17235739158E+02  0.87292723401E+01  0.27489193641E+02  0.51100000000E-03 0.  1.
         12    1    4    4    0    0  0.44684347497E+00  0.86713764582E+01 -0.86436714888E+01  0.12251754796E+02  0.00000000000E+00 0. -1.
</event>
<event>
 8    1  0.2401680E-006  0.9118800E+02  0.7816164E-02  0.1184000E+00
        -11   -1    0    0    0    0  0.00000000000E+00  0.00000000000E+00  0.45593999997E+02  0.45594000000E+02  0.51100000000E-03 0. -1.
         11   -1    0    0    0    0 -0.00000000000E+00 -0.00000000000E+00 -0.45593999997E+02  0.45594000000E+02  0.51100000000E-03 0.  1.
         23    2    1    2    0    0  0.00000000000E+00  0.35527136788E-14  0.00000000000E+00  0.91188000000E+02  0.91188000000E+02 0.  0.
    9900012    2    3    3    0    0 -0.82738704852E+01  0.28240803372E+02  0.22130895609E+02  0.54367130261E+02  0.40000105055E+02 0.  0.
        -12    1    3    3    0    0  0.82738704852E+01 -0.28240803372E+02 -0.22130895609E+02  0.36820869739E+02  0.00000000000E+00 0.  1.
         11    1    4    4    0    0 -0.69890391084E+01  0.15610463463E+02  0.10396367742E+02  0.20015436535E+02  0.51100000000E-03 0. -1.
        -11    1    4    4    0    0  0.55920660951E+01  0.10936341965E+02  0.19997610013E+02  0.23468685206E+02  0.51100000000E-03 0.  1.
        -12    1    4    4    0    0 -0.68768974719E+01  0.16939979439E+01 -0.82630821467E+01  0.10883008520E+02  0.00000000000E+00 0.  1.
</event>
<event>
 8    1  0.2401680E-006  0.9118800E+02  0.7816164E-02  0.1184000E+00
        -11   -1    0    0    0    0  0.00000000000E+00  0.00000000000E+00  0.45593999997E+02  0.45594000000E+02  0.51100000000E-03 0.  1.
         11   -1    0    0    0    0 -0.00000000000E+00 -0.00000000000E+00 -0.45593999997E+02  0.45594000000E+02  0.51100000000E-03 0. -1.
         23    2    1    2    0    0  0.00000000000E+00  0.17763568394E-14 -0.88817841970E-15  0.91188000000E+02  0.91188000000E+02 0.  0.
    9900012    2    3    3    0    0 -0.33990290270E+02  0.13025519956E+02 -0.55477510104E+01  0.54367061065E+02  0.39999947310E+02 0.  0.
        -12    1    3    3    0    0  0.33990290270E+02 -0.13025519956E+02  0.55477510104E+01  0.36820938935E+02  0.00000000000E+00 0.  1.
         11    1    4    4    0    0 -0.11401420210E+02 -0.30340182823E+01  0.45811475534E+01  0.12656404028E+02  0.51100000000E-03 0. -1.
        -11    1    4    4    0    0 -0.34100172376E+01 -0.51306012715E+01  0.62448451646E+01  0.87720794774E+01  0.51100000000E-03 0.  1.
         12    1    4    4    0    0 -0.19178852823E+02  0.21190139509E+02 -0.16373743728E+02  0.32938577560E+02  0.00000000000E+00 0. -1.
</event>
<event>
 8    1  0.2401680E-006  0.9118800E+02  0.7816164E-02  0.1184000E+00
        -11   -1    0    0    0    0  0.00000000000E+00  0.00000000000E+00  0.45593999997E+02  0.45594000000E+02  0.51100000000E-03 0.  1.
         11   -1    0    0    0    0 -0.00000000000E+00 -0.00000000000E+00 -0.45593999997E+02  0.45594000000E+02  0.51100000000E-03 0. -1.
         23    2    1    2    0    0  0.00000000000E+00  0.00000000000E+00  0.35527136788E-14  0.91188000000E+02  0.91188000000E+02 0.  0.
    9900012    2    3    3    0    0 -0.27118515334E+02 -0.99163961405E+01 -0.22847978990E+02  0.54367096558E+02  0.40000028224E+02 0.  0.
         12    1    3    3    0    0  0.27118515334E+02  0.99163961405E+01  0.22847978990E+02  0.36820903442E+02  0.00000000000E+00 0. -1.
         11    1    4    4    0    0  0.12475543349E+01  0.39857387041E+01  0.52737608263E+01  0.67271879972E+01  0.51100000000E-03 0.  1.
        -11    1    4    4    0    0 -0.55935482475E+01  0.66683074725E+00 -0.17854012730E+02  0.18721597583E+02  0.51100000000E-03 0. -1.
         12    1    4    4    0    0 -0.22772521421E+02 -0.14568965592E+02 -0.10267727086E+02  0.28918310978E+02  0.00000000000E+00 0. -1.
</event>
<event>
 8    1  0.2401680E-006  0.9118800E+02  0.7816164E-02  0.1184000E+00
        -11   -1    0    0    0    0  0.00000000000E+00  0.00000000000E+00  0.45593999997E+02  0.45594000000E+02  0.51100000000E-03 0.  1.
         11   -1    0    0    0    0 -0.00000000000E+00 -0.00000000000E+00 -0.45593999997E+02  0.45594000000E+02  0.51100000000E-03 0. -1.
         23    2    1    2    0    0  0.00000000000E+00 -0.35527136788E-14 -0.86042284408E-15  0.91188000000E+02  0.91188000000E+02 0.  0.
    9900012    2    3    3    0    0 -0.19382265407E+02 -0.31306316801E+02 -0.15167283359E+00  0.54367072681E+02  0.39999973792E+02 0.  0.
         12    1    3    3    0    0  0.19382265407E+02  0.31306316801E+02  0.15167283359E+00  0.36820927319E+02  0.00000000000E+00 0. -1.
         11    1    4    4    0    0 -0.19247524966E+02 -0.36604203625E+02  0.96667354784E+01  0.42470939657E+02  0.51100000000E-03 0. -1.
        -11    1    4    4    0    0  0.18802004716E+01  0.25695321213E+01 -0.35479367899E+01  0.47671275274E+01  0.51100000000E-03 0.  1.
         12    1    4    4    0    0 -0.20149409126E+01  0.27283547022E+01 -0.62704715221E+01  0.71290054966E+01  0.00000000000E+00 0. -1.
</event>
<event>
 8    1  0.2401680E-006  0.9118800E+02  0.7816164E-02  0.1184000E+00
        -11   -1    0    0    0    0  0.00000000000E+00  0.00000000000E+00  0.45593999997E+02  0.45594000000E+02  0.51100000000E-03 0. -1.
         11   -1    0    0    0    0 -0.00000000000E+00 -0.00000000000E+00 -0.45593999997E+02  0.45594000000E+02  0.51100000000E-03 0.  1.
         23    2    1    2    0    0  0.88817841970E-15  0.00000000000E+00  0.00000000000E+00  0.91188000000E+02  0.91188000000E+02 0.  0.
    9900012    2    3    3    0    0  0.76593981270E+01 -0.16593492976E+02  0.31965136354E+02  0.54367077538E+02  0.39999984863E+02 0.  0.
        -12    1    3    3    0    0 -0.76593981270E+01  0.16593492976E+02 -0.31965136354E+02  0.36820922462E+02  0.00000000000E+00 0.  1.
         11    1    4    4    0    0  0.14200536351E+02 -0.65113422437E+01  0.96103213579E+01  0.18341512678E+02  0.51100000000E-03 0. -1.
        -11    1    4    4    0    0 -0.12866035619E+02 -0.92077594803E+01  0.24607436059E+02  0.29254805022E+02  0.51100000000E-03 0.  1.
        -12    1    4    4    0    0  0.63248973954E+01 -0.87439125209E+00 -0.22526210625E+01  0.67707598374E+01  0.00000000000E+00 0.  1.
</event>
<event>
 8    1  0.2401680E-006  0.9118800E+02  0.7816164E-02  0.1184000E+00
        -11   -1    0    0    0    0  0.00000000000E+00  0.00000000000E+00  0.45593999997E+02  0.45594000000E+02  0.51100000000E-03 0.  1.
         11   -1    0    0    0    0 -0.00000000000E+00 -0.00000000000E+00 -0.45593999997E+02  0.45594000000E+02  0.51100000000E-03 0. -1.
         23    2    1    2    0    0  0.00000000000E+00  0.00000000000E+00 -0.35527136788E-14  0.91188000000E+02  0.91188000000E+02 0.  0.
    9900012    2    3    3    0    0 -0.28180728193E+02  0.77722665923E+01  0.22387891962E+02  0.54367091864E+02  0.40000017523E+02 0.  0.
         12    1    3    3    0    0  0.28180728193E+02 -0.77722665923E+01 -0.22387891962E+02  0.36820908136E+02  0.00000000000E+00 0. -1.
         11    1    4    4    0    0  0.39613199409E+00  0.37661810016E+01 -0.34869986302E+01  0.51478344575E+01  0.51100000000E-03 0. -1.
        -11    1    4    4    0    0 -0.24111729348E+02  0.67096551737E+01  0.23678461509E+01  0.25139643202E+02  0.51100000000E-03 0.  1.
        -12    1    4    4    0    0 -0.44651308391E+01 -0.27035695831E+01  0.23507044441E+02  0.24079614205E+02  0.00000000000E+00 0.  1.
</event>
<event>
 8    1  0.2401680E-006  0.9118800E+02  0.7816164E-02  0.1184000E+00
        -11   -1    0    0    0    0  0.00000000000E+00  0.00000000000E+00  0.45593999997E+02  0.45594000000E+02  0.51100000000E-03 0. -1.
         11   -1    0    0    0    0 -0.00000000000E+00 -0.00000000000E+00 -0.45593999997E+02  0.45594000000E+02  0.51100000000E-03 0.  1.
         23    2    1    2    0    0  0.00000000000E+00 -0.35527136788E-14  0.17763568394E-14  0.91188000000E+02  0.91188000000E+02 0.  0.
    9900012    2    3    3    0    0 -0.19843210804E+02 -0.28056286980E+02  0.13224093206E+02  0.54367015558E+02  0.39999843568E+02 0.  0.
        -12    1    3    3    0    0  0.19843210804E+02  0.28056286980E+02 -0.13224093206E+02  0.36820984442E+02  0.00000000000E+00 0.  1.
         11    1    4    4    0    0 -0.14844619554E+02 -0.31429850026E+02  0.17570480450E+02  0.38947657001E+02  0.51100000000E-03 0. -1.
        -11    1    4    4    0    0 -0.83866782802E+01  0.52768740476E+01 -0.55423600992E+01  0.11353392798E+02  0.51100000000E-03 0.  1.
        -12    1    4    4    0    0  0.33880870295E+01 -0.19033110022E+01  0.11959728550E+01  0.40659657598E+01  0.00000000000E+00 0.  1.
</event>
<event>
 8    1  0.2401680E-006  0.9118800E+02  0.7816164E-02  0.1184000E+00
        -11   -1    0    0    0    0  0.00000000000E+00  0.00000000000E+00  0.45593999997E+02  0.45594000000E+02  0.51100000000E-03 0.  1.
         11   -1    0    0    0    0 -0.00000000000E+00 -0.00000000000E+00 -0.45593999997E+02  0.45594000000E+02  0.51100000000E-03 0. -1.
         23    2    1    2    0    0  0.35527136788E-14 -0.17763568394E-14  0.00000000000E+00  0.91188000000E+02  0.91188000000E+02 0.  0.
    9900012    2    3    3    0    0 -0.30460910812E+02  0.89144146716E+01  0.18666711215E+02  0.54367082250E+02  0.39999995604E+02 0.  0.
         12    1    3    3    0    0  0.30460910812E+02 -0.89144146716E+01 -0.18666711215E+02  0.36820917750E+02  0.00000000000E+00 0. -1.
         11    1    4    4    0    0 -0.99883816824E+00 -0.37805682011E+00 -0.34007078396E+01  0.35644661195E+01  0.51100000000E-03 0. -1.
        -11    1    4    4    0    0 -0.39022283372E+01  0.18161806950E+01 -0.89440542420E+01  0.99258251474E+01  0.51100000000E-03 0.  1.
        -12    1    4    4    0    0 -0.25559844306E+02  0.74762907967E+01  0.31011473296E+02  0.40876790983E+02  0.00000000000E+00 0.  1.
</event>
<event>
 8    1  0.2401680E-006  0.9118800E+02  0.7816164E-02  0.1184000E+00
        -11   -1    0    0    0    0  0.00000000000E+00  0.00000000000E+00  0.45593999997E+02  0.45594000000E+02  0.51100000000E-03 0. -1.
         11   -1    0    0    0    0 -0.00000000000E+00 -0.00000000000E+00 -0.45593999997E+02  0.45594000000E+02  0.51100000000E-03 0.  1.
         23    2    1    2    0    0 -0.35527136788E-14  0.00000000000E+00 -0.88817841970E-15  0.91188000000E+02  0.91188000000E+02 0.  0.
    9900012    2    3    3    0    0  0.28091265677E+02  0.23354472558E+02  0.46074936829E+01  0.54367087548E+02  0.40000007683E+02 0.  0.
         12    1    3    3    0    0 -0.28091265677E+02 -0.23354472558E+02 -0.46074936829E+01  0.36820912452E+02  0.00000000000E+00 0. -1.
         11    1    4    4    0    0  0.21373972832E+02  0.27399360170E+02  0.55964067914E+01  0.35197889447E+02  0.51100000000E-03 0.  1.
        -11    1    4    4    0    0  0.28661252039E+01 -0.76411612679E+01 -0.72986680111E+01  0.10948633440E+02  0.51100000000E-03 0. -1.
        -12    1    4    4    0    0  0.38511676410E+01  0.35962736560E+01  0.63097549026E+01  0.82205646606E+01  0.00000000000E+00 0.  1.
</event>
<event>
 8    1  0.2401680E-006  0.9118800E+02  0.7816164E-02  0.1184000E+00
        -11   -1    0    0    0    0  0.00000000000E+00  0.00000000000E+00  0.45593999997E+02  0.45594000000E+02  0.51100000000E-03 0. -1.
         11   -1    0    0    0    0 -0.00000000000E+00 -0.00000000000E+00 -0.45593999997E+02  0.45594000000E+02  0.51100000000E-03 0.  1.
         23    2    1    2    0    0  0.35527136788E-14  0.00000000000E+00 -0.44408920985E-15  0.91188000000E+02  0.91188000000E+02 0.  0.
    9900012    2    3    3    0    0 -0.31247189478E+02  0.19271160696E+02 -0.28310530871E+01  0.54367090907E+02  0.40000015340E+02 0.  0.
         12    1    3    3    0    0  0.31247189478E+02 -0.19271160696E+02  0.28310530871E+01  0.36820909093E+02  0.00000000000E+00 0. -1.
         11    1    4    4    0    0 -0.92667084244E+01 -0.21114913336E+01  0.30819186075E+01  0.99914214824E+01  0.51100000000E-03 0. -1.
        -11    1    4    4    0    0  0.28428369364E+01  0.18224735941E+02  0.81657854797E+00  0.18463193731E+02  0.51100000000E-03 0.  1.
        -12    1    4    4    0    0 -0.24823317990E+02  0.31579160888E+01 -0.67295502426E+01  0.25912475693E+02  0.00000000000E+00 0.  1.
</event>
<event>
 8    1  0.2401680E-006  0.9118800E+02  0.7816164E-02  0.1184000E+00
        -11   -1    0    0    0    0  0.00000000000E+00  0.00000000000E+00  0.45593999997E+02  0.45594000000E+02  0.51100000000E-03 0. -1.
         11   -1    0    0    0    0 -0.00000000000E+00 -0.00000000000E+00 -0.45593999997E+02  0.45594000000E+02  0.51100000000E-03 0.  1.
         23    2    1    2    0    0 -0.17763568394E-14  0.44408920985E-15  0.00000000000E+00  0.91188000000E+02  0.91188000000E+02 0.  0.
    9900012    2    3    3    0    0 -0.12065411357E+02 -0.23721007374E+01  0.34707039883E+02  0.54367087049E+02  0.40000006545E+02 0.  0.
        -12    1    3    3    0    0  0.12065411357E+02  0.23721007374E+01 -0.34707039883E+02  0.36820912951E+02  0.00000000000E+00 0.  1.
         11    1    4    4    0    0  0.32916460901E+01 -0.11642694416E+02  0.18237969793E+02  0.21886315581E+02  0.51100000000E-03 0. -1.
        -11    1    4    4    0    0 -0.19729936109E+02  0.54144115825E+01  0.17035286237E+02  0.26623057846E+02  0.51100000000E-03 0.  1.
         12    1    4    4    0    0  0.43728786622E+01  0.38561820961E+01 -0.56621614736E+00  0.58577136221E+01  0.00000000000E+00 0. -1.
</event>
<event>
 8    1  0.2401680E-006  0.9118800E+02  0.7816164E-02  0.1184000E+00
        -11   -1    0    0    0    0  0.00000000000E+00  0.00000000000E+00  0.45593999997E+02  0.45594000000E+02  0.51100000000E-03 0. -1.
         11   -1    0    0    0    0 -0.00000000000E+00 -0.00000000000E+00 -0.45593999997E+02  0.45594000000E+02  0.51100000000E-03 0.  1.
         23    2    1    2    0    0 -0.88817841970E-15  0.35527136788E-14 -0.35527136788E-14  0.91188000000E+02  0.91188000000E+02 0.  0.
    9900012    2    3    3    0    0  0.58481766839E+01  0.24388871441E+02  0.26958518391E+02  0.54367082921E+02  0.39999997135E+02 0.  0.
        -12    1    3    3    0    0 -0.58481766839E+01 -0.24388871441E+02 -0.26958518391E+02  0.36820917079E+02  0.00000000000E+00 0.  1.
         11    1    4    4    0    0  0.14720567358E+02  0.14157431343E+02  0.15968100367E+02  0.25925049569E+02  0.51100000000E-03 0. -1.
        -11    1    4    4    0    0 -0.11051399228E+02  0.86767562610E+01  0.16886039526E+02  0.21967199531E+02  0.51100000000E-03 0.  1.
         12    1    4    4    0    0  0.21790085545E+01  0.15546838372E+01 -0.58956215020E+01  0.64748338209E+01  0.00000000000E+00 0. -1.
</event>
<event>
 8    1  0.2401680E-006  0.9118800E+02  0.7816164E-02  0.1184000E+00
        -11   -1    0    0    0    0  0.00000000000E+00  0.00000000000E+00  0.45593999997E+02  0.45594000000E+02  0.51100000000E-03 0. -1.
         11   -1    0    0    0    0 -0.00000000000E+00 -0.00000000000E+00 -0.45593999997E+02  0.45594000000E+02  0.51100000000E-03 0.  1.
         23    2    1    2    0    0  0.00000000000E+00 -0.17763568394E-14  0.00000000000E+00  0.91188000000E+02  0.91188000000E+02 0.  0.
    9900012    2    3    3    0    0  0.26118898248E+01  0.14491671948E+02 -0.33748331951E+02  0.54367076141E+02  0.39999981680E+02 0.  0.
         12    1    3    3    0    0 -0.26118898248E+01 -0.14491671948E+02  0.33748331951E+02  0.36820923859E+02  0.00000000000E+00 0. -1.
         11    1    4    4    0    0 -0.67601119703E+01 -0.14680231130E+01 -0.53286604224E+01  0.87320574820E+01  0.51100000000E-03 0. -1.
        -11    1    4    4    0    0  0.94640831472E+01 -0.73712470139E+01 -0.12887845714E+02  0.17606837302E+02  0.51100000000E-03 0.  1.
        -12    1    4    4    0    0 -0.92081352152E-01  0.23330942075E+02 -0.15531825815E+02  0.28028181358E+02  0.00000000000E+00 0.  1.
</event>
<event>
 8    1  0.2401680E-006  0.9118800E+02  0.7816164E-02  0.1184000E+00
        -11   -1    0    0    0    0  0.00000000000E+00  0.00000000000E+00  0.45593999997E+02  0.45594000000E+02  0.51100000000E-03 0.  1.
         11   -1    0    0    0    0 -0.00000000000E+00 -0.00000000000E+00 -0.45593999997E+02  0.45594000000E+02  0.51100000000E-03 0. -1.
         23    2    1    2    0    0  0.17763568394E-14 -0.44408920985E-15  0.00000000000E+00  0.91188000000E+02  0.91188000000E+02 0.  0.
    9900012    2    3    3    0    0  0.14489159057E+02 -0.26904703140E+01 -0.33743224496E+02  0.54367088006E+02  0.40000008727E+02 0.  0.
        -12    1    3    3    0    0 -0.14489159057E+02  0.26904703140E+01  0.33743224496E+02  0.36820911994E+02  0.00000000000E+00 0.  1.
         11    1    4    4    0    0  0.74757962430E+01 -0.54016372985E+01 -0.24228803829E+01  0.95360140825E+01  0.51100000000E-03 0. -1.
        -11    1    4    4    0    0  0.17372377963E+02  0.51089061118E+01 -0.92518958811E+01  0.20334650610E+02  0.51100000000E-03 0.  1.
        -12    1    4    4    0    0 -0.10359015149E+02 -0.23977391273E+01 -0.22068448232E+02  0.24496423313E+02  0.00000000000E+00 0.  1.
</event>
<event>
 8    1  0.2401680E-006  0.9118800E+02  0.7816164E-02  0.1184000E+00
        -11   -1    0    0    0    0  0.00000000000E+00  0.00000000000E+00  0.45593999997E+02  0.45594000000E+02  0.51100000000E-03 0. -1.
         11   -1    0    0    0    0 -0.00000000000E+00 -0.00000000000E+00 -0.45593999997E+02  0.45594000000E+02  0.51100000000E-03 0.  1.
         23    2    1    2    0    0  0.00000000000E+00  0.00000000000E+00  0.00000000000E+00  0.91188000000E+02  0.91188000000E+02 0.  0.
    9900012    2    3    3    0    0 -0.18206462815E+02 -0.25595922630E+02  0.19213356585E+02  0.54367087263E+02  0.40000007033E+02 0.  0.
        -12    1    3    3    0    0  0.18206462815E+02  0.25595922630E+02 -0.19213356585E+02  0.36820912737E+02  0.00000000000E+00 0.  1.
         11    1    4    4    0    0 -0.43109155840E+01 -0.77256951136E+01  0.98039638941E+01  0.13205607387E+02  0.51100000000E-03 0. -1.
        -11    1    4    4    0    0 -0.17074234767E+02 -0.24880159846E+02  0.16322133107E+01  0.30219463387E+02  0.51100000000E-03 0.  1.
        -12    1    4    4    0    0  0.31786875359E+01  0.70099323302E+01  0.77771793803E+01  0.10942016489E+02  0.00000000000E+00 0.  1.
</event>
<event>
 8    1  0.2401680E-006  0.9118800E+02  0.7816164E-02  0.1184000E+00
        -11   -1    0    0    0    0  0.00000000000E+00  0.00000000000E+00  0.45593999997E+02  0.45594000000E+02  0.51100000000E-03 0. -1.
         11   -1    0    0    0    0 -0.00000000000E+00 -0.00000000000E+00 -0.45593999997E+02  0.45594000000E+02  0.51100000000E-03 0.  1.
         23    2    1    2    0    0 -0.17763568394E-14 -0.35527136788E-14 -0.35527136788E-14  0.91188000000E+02  0.91188000000E+02 0.  0.
    9900012    2    3    3    0    0 -0.15293104308E+02 -0.15875187052E+02 -0.29493709283E+02  0.54367088950E+02  0.40000010878E+02 0.  0.
         12    1    3    3    0    0  0.15293104308E+02  0.15875187052E+02  0.29493709283E+02  0.36820911050E+02  0.00000000000E+00 0. -1.
         11    1    4    4    0    0  0.51814373891E+01  0.79202545391E+01 -0.79158731430E+00  0.94975963337E+01  0.51100000000E-03 0.  1.
        -11    1    4    4    0    0 -0.71246920469E+01 -0.12657959654E+02 -0.47690829777E+01  0.15288208923E+02  0.51100000000E-03 0. -1.
        -12    1    4    4    0    0 -0.13349849650E+02 -0.11137481937E+02 -0.23933038991E+02  0.29581283693E+02  0.00000000000E+00 0.  1.
</event>
<event>
 8    1  0.2401680E-006  0.9118800E+02  0.7816164E-02  0.1184000E+00
        -11   -1    0    0    0    0  0.00000000000E+00  0.00000000000E+00  0.45593999997E+02  0.45594000000E+02  0.51100000000E-03 0.  1.
         11   -1    0    0    0    0 -0.00000000000E+00 -0.00000000000E+00 -0.45593999997E+02  0.45594000000E+02  0.51100000000E-03 0. -1.
         23    2    1    2    0    0  0.00000000000E+00  0.00000000000E+00  0.17763568394E-14  0.91188000000E+02  0.91188000000E+02 0.  0.
    9900012    2    3    3    0    0  0.32253919322E+02  0.13662357304E+02 -0.11349506829E+02  0.54366992083E+02  0.39999790052E+02 0.  0.
        -12    1    3    3    0    0 -0.32253919322E+02 -0.13662357304E+02  0.11349506829E+02  0.36821007917E+02  0.00000000000E+00 0.  1.
         11    1    4    4    0    0  0.20051395107E+02  0.77072857576E+01  0.12789711806E+02  0.25000748545E+02  0.51100000000E-03 0. -1.
        -11    1    4    4    0    0 -0.19223197244E+00  0.15571839645E+01 -0.97366583511E+01  0.98622660245E+01  0.51100000000E-03 0.  1.
         12    1    4    4    0    0  0.12394756187E+02  0.43978875821E+01 -0.14402560284E+02  0.19503977514E+02  0.00000000000E+00 0. -1.
</event>
<event>
 8    1  0.2401680E-006  0.9118800E+02  0.7816164E-02  0.1184000E+00
        -11   -1    0    0    0    0  0.00000000000E+00  0.00000000000E+00  0.45593999997E+02  0.45594000000E+02  0.51100000000E-03 0.  1.
         11   -1    0    0    0    0 -0.00000000000E+00 -0.00000000000E+00 -0.45593999997E+02  0.45594000000E+02  0.51100000000E-03 0. -1.
         23    2    1    2    0    0  0.17763568394E-14  0.00000000000E+00  0.00000000000E+00  0.91188000000E+02  0.91188000000E+02 0.  0.
    9900012    2    3    3    0    0 -0.12050814792E+02  0.16684909119E+02  0.30531498800E+02  0.54367071869E+02  0.39999971940E+02 0.  0.
         12    1    3    3    0    0  0.12050814792E+02 -0.16684909119E+02 -0.30531498800E+02  0.36820928131E+02  0.00000000000E+00 0. -1.
         11    1    4    4    0    0 -0.21385014711E+02 -0.12527502902E+01  0.66629054967E+01  0.22433959691E+02  0.51100000000E-03 0. -1.
        -11    1    4    4    0    0  0.48805118910E+01  0.75537421850E+01  0.60662519820E+01  0.10847941311E+02  0.51100000000E-03 0.  1.
         12    1    4    4    0    0  0.44536880285E+01  0.10383917225E+02  0.17802341321E+02  0.21085170867E+02  0.00000000000E+00 0. -1.
</event>
<event>
 8    1  0.2401680E-006  0.9118800E+02  0.7816164E-02  0.1184000E+00
        -11   -1    0    0    0    0  0.00000000000E+00  0.00000000000E+00  0.45593999997E+02  0.45594000000E+02  0.51100000000E-03 0. -1.
         11   -1    0    0    0    0 -0.00000000000E+00 -0.00000000000E+00 -0.45593999997E+02  0.45594000000E+02  0.51100000000E-03 0.  1.
         23    2    1    2    0    0  0.00000000000E+00 -0.44408920985E-15  0.00000000000E+00  0.91188000000E+02  0.91188000000E+02 0.  0.
    9900012    2    3    3    0    0  0.16405748231E+01 -0.38819593958E+01 -0.36578959357E+02  0.54367063536E+02  0.39999952942E+02 0.  0.
         12    1    3    3    0    0 -0.16405748231E+01  0.38819593958E+01  0.36578959357E+02  0.36820936464E+02  0.00000000000E+00 0. -1.
         11    1    4    4    0    0  0.58512257703E+01 -0.48992676535E+01  0.55002755526E+01  0.94070557547E+01  0.51100000000E-03 0. -1.
        -11    1    4    4    0    0  0.30979273469E+01 -0.23879222510E+01 -0.31063185134E+02  0.31308478044E+02  0.51100000000E-03 0.  1.
        -12    1    4    4    0    0 -0.73085782941E+01  0.34052305087E+01 -0.11016049775E+02  0.13651529737E+02  0.00000000000E+00 0.  1.
</event>
<event>
 8    1  0.2401680E-006  0.9118800E+02  0.7816164E-02  0.1184000E+00
        -11   -1    0    0    0    0  0.00000000000E+00  0.00000000000E+00  0.45593999997E+02  0.45594000000E+02  0.51100000000E-03 0.  1.
         11   -1    0    0    0    0 -0.00000000000E+00 -0.00000000000E+00 -0.45593999997E+02  0.45594000000E+02  0.51100000000E-03 0. -1.
         23    2    1    2    0    0  0.00000000000E+00 -0.17763568394E-14  0.00000000000E+00  0.91188000000E+02  0.91188000000E+02 0.  0.
    9900012    2    3    3    0    0  0.34753827663E+02  0.86626361904E+01  0.85388251169E+01  0.54367063871E+02  0.39999953707E+02 0.  0.
        -12    1    3    3    0    0 -0.34753827663E+02 -0.86626361904E+01 -0.85388251169E+01  0.36820936129E+02  0.00000000000E+00 0.  1.
         11    1    4    4    0    0  0.49287117241E+01  0.25098969208E+01 -0.65913050313E+01  0.86044804660E+01  0.51100000000E-03 0. -1.
        -11    1    4    4    0    0 -0.32012899312E+00 -0.14980507587E+01 -0.72731580736E+01  0.74327294631E+01  0.51100000000E-03 0.  1.
         12    1    4    4    0    0  0.30145244932E+02  0.76507900283E+01  0.22403288222E+02  0.38329853942E+02  0.00000000000E+00 0. -1.
</event>
<event>
 8    1  0.2401680E-006  0.9118800E+02  0.7816164E-02  0.1184000E+00
        -11   -1    0    0    0    0  0.00000000000E+00  0.00000000000E+00  0.45593999997E+02  0.45594000000E+02  0.51100000000E-03 0.  1.
         11   -1    0    0    0    0 -0.00000000000E+00 -0.00000000000E+00 -0.45593999997E+02  0.45594000000E+02  0.51100000000E-03 0. -1.
         23    2    1    2    0    0  0.17763568394E-14  0.44408920985E-15  0.00000000000E+00  0.91188000000E+02  0.91188000000E+02 0.  0.
    9900012    2    3    3    0    0  0.92157052613E+01 -0.30914084382E+01  0.35514701520E+02  0.54367081304E+02  0.39999993449E+02 0.  0.
         12    1    3    3    0    0 -0.92157052613E+01  0.30914084382E+01 -0.35514701520E+02  0.36820918696E+02  0.00000000000E+00 0. -1.
         11    1    4    4    0    0  0.14430639512E+02 -0.85568699379E+00  0.74128448315E+01  0.16245794093E+02  0.51100000000E-03 0. -1.
        -11    1    4    4    0    0 -0.69959233718E+01 -0.80991277350E+01  0.29881446922E+02  0.31740190363E+02  0.51100000000E-03 0.  1.
        -12    1    4    4    0    0  0.17809891208E+01  0.58634062906E+01 -0.17795902338E+01  0.63810968475E+01  0.00000000000E+00 0.  1.
</event>
<event>
 8    1  0.2401680E-006  0.9118800E+02  0.7816164E-02  0.1184000E+00
        -11   -1    0    0    0    0  0.00000000000E+00  0.00000000000E+00  0.45593999997E+02  0.45594000000E+02  0.51100000000E-03 0.  1.
         11   -1    0    0    0    0 -0.00000000000E+00 -0.00000000000E+00 -0.45593999997E+02  0.45594000000E+02  0.51100000000E-03 0. -1.
         23    2    1    2    0    0  0.88817841970E-15  0.00000000000E+00  0.00000000000E+00  0.91188000000E+02  0.91188000000E+02 0.  0.
    9900012    2    3    3    0    0  0.56233901711E+01 -0.33094296508E+02  0.15130257932E+02  0.54367086330E+02  0.40000004907E+02 0.  0.
        -12    1    3    3    0    0 -0.56233901711E+01  0.33094296508E+02 -0.15130257932E+02  0.36820913670E+02  0.00000000000E+00 0.  1.
         11    1    4    4    0    0 -0.44955291686E+01 -0.31276238644E+00 -0.19133723741E+01  0.48957733729E+01  0.51100000000E-03 0. -1.
        -11    1    4    4    0    0  0.89635126055E+01 -0.29856034648E+01  0.17232471779E+02  0.19652390952E+02  0.51100000000E-03 0.  1.
         12    1    4    4    0    0  0.11554067342E+01 -0.29795930657E+02 -0.18884147258E+00  0.29818922005E+02  0.00000000000E+00 0. -1.
</event>
<event>
 8    1  0.2401680E-006  0.9118800E+02  0.7816164E-02  0.1184000E+00
        -11   -1    0    0    0    0  0.00000000000E+00  0.00000000000E+00  0.45593999997E+02  0.45594000000E+02  0.51100000000E-03 0. -1.
         11   -1    0    0    0    0 -0.00000000000E+00 -0.00000000000E+00 -0.45593999997E+02  0.45594000000E+02  0.51100000000E-03 0.  1.
         23    2    1    2    0    0  0.00000000000E+00  0.00000000000E+00 -0.35527136788E-14  0.91188000000E+02  0.91188000000E+02 0.  0.
    9900012    2    3    3    0    0  0.66892797504E+01 -0.28478983856E+02  0.22360261943E+02  0.54367077970E+02  0.39999985847E+02 0.  0.
        -12    1    3    3    0    0 -0.66892797504E+01  0.28478983856E+02 -0.22360261943E+02  0.36820922030E+02  0.00000000000E+00 0.  1.
         11    1    4    4    0    0  0.11550973947E+02 -0.15608317049E+02  0.23356702949E+02  0.30374004233E+02  0.51100000000E-03 0. -1.
        -11    1    4    4    0    0  0.30412776049E+01 -0.98862032292E+01  0.68965696397E+01  0.12431776093E+02  0.51100000000E-03 0.  1.
        -12    1    4    4    0    0 -0.79029718016E+01 -0.29844635773E+01 -0.78930106464E+01  0.11561297644E+02  0.00000000000E+00 0.  1.
</event>
<event>
 8    1  0.2401680E-006  0.9118800E+02  0.7816164E-02  0.1184000E+00
        -11   -1    0    0    0    0  0.00000000000E+00  0.00000000000E+00  0.45593999997E+02  0.45594000000E+02  0.51100000000E-03 0.  1.
         11   -1    0    0    0    0 -0.00000000000E+00 -0.00000000000E+00 -0.45593999997E+02  0.45594000000E+02  0.51100000000E-03 0. -1.
         23    2    1    2    0    0 -0.17763568394E-14  0.71054273576E-14  0.88817841970E-15  0.91188000000E+02  0.91188000000E+02 0.  0.
    9900012    2    3    3    0    0  0.10298693630E+02 -0.35218470168E+02  0.30612944497E+01  0.54367146463E+02  0.40000141992E+02 0.  0.
        -12    1    3    3    0    0 -0.10298693630E+02  0.35218470168E+02 -0.30612944497E+01  0.36820853537E+02  0.00000000000E+00 0.  1.
         11    1    4    4    0    0  0.69787564996E+00 -0.13005985712E+02  0.38966213885E+01  0.13595085629E+02  0.51100000000E-03 0. -1.
        -11    1    4    4    0    0  0.19495163191E+01 -0.69222031746E+01 -0.16238179044E+02  0.17759391025E+02  0.51100000000E-03 0.  1.
        -12    1    4    4    0    0  0.76513016607E+01 -0.15290281282E+02  0.15402852105E+02  0.23012669809E+02  0.00000000000E+00 0.  1.
</event>
<event>
 8    1  0.2401680E-006  0.9118800E+02  0.7816164E-02  0.1184000E+00
        -11   -1    0    0    0    0  0.00000000000E+00  0.00000000000E+00  0.45593999997E+02  0.45594000000E+02  0.51100000000E-03 0.  1.
         11   -1    0    0    0    0 -0.00000000000E+00 -0.00000000000E+00 -0.45593999997E+02  0.45594000000E+02  0.51100000000E-03 0. -1.
         23    2    1    2    0    0  0.44408920985E-15  0.00000000000E+00  0.00000000000E+00  0.91188000000E+02  0.91188000000E+02 0.  0.
    9900012    2    3    3    0    0  0.36078357130E+01  0.32445612385E+02 -0.17030854326E+02  0.54367024447E+02  0.39999863832E+02 0.  0.
        -12    1    3    3    0    0 -0.36078357130E+01 -0.32445612385E+02  0.17030854326E+02  0.36820975553E+02  0.00000000000E+00 0.  1.
         11    1    4    4    0    0  0.89544165604E+01  0.15775023117E+02 -0.12104485482E+02  0.21807143310E+02  0.51100000000E-03 0. -1.
        -11    1    4    4    0    0 -0.10822148307E+02  0.20155347851E+02  0.21258571691E+01  0.22975556793E+02  0.51100000000E-03 0.  1.
        -12    1    4    4    0    0  0.54755674597E+01 -0.34847585835E+01 -0.70522260133E+01  0.95843243441E+01  0.00000000000E+00 0.  1.
</event>
<event>
 8    1  0.2401680E-006  0.9118800E+02  0.7816164E-02  0.1184000E+00
        -11   -1    0    0    0    0  0.00000000000E+00  0.00000000000E+00  0.45593999997E+02  0.45594000000E+02  0.51100000000E-03 0. -1.
         11   -1    0    0    0    0 -0.00000000000E+00 -0.00000000000E+00 -0.45593999997E+02  0.45594000000E+02  0.51100000000E-03 0.  1.
         23    2    1    2    0    0  0.00000000000E+00 -0.55511151231E-16 -0.88817841970E-15  0.91188000000E+02  0.91188000000E+02 0.  0.
    9900012    2    3    3    0    0  0.36339202569E+02 -0.14466444975E+00 -0.59347934638E+01  0.54367077352E+02  0.39999984440E+02 0.  0.
        -12    1    3    3    0    0 -0.36339202569E+02  0.14466444975E+00  0.59347934638E+01  0.36820922648E+02  0.00000000000E+00 0.  1.
         11    1    4    4    0    0  0.26454815845E+02 -0.58329530548E+01 -0.23354294225E+01  0.27190712635E+02  0.51100000000E-03 0. -1.
        -11    1    4    4    0    0  0.16448331846E+02  0.13948470745E+01 -0.78238798615E+01  0.18267630258E+02  0.51100000000E-03 0.  1.
        -12    1    4    4    0    0 -0.65639451228E+01  0.42934415306E+01  0.42245158202E+01  0.89087344594E+01  0.00000000000E+00 0.  1.
</event>
<event>
 8    1  0.2401680E-006  0.9118800E+02  0.7816164E-02  0.1184000E+00
        -11   -1    0    0    0    0  0.00000000000E+00  0.00000000000E+00  0.45593999997E+02  0.45594000000E+02  0.51100000000E-03 0. -1.
         11   -1    0    0    0    0 -0.00000000000E+00 -0.00000000000E+00 -0.45593999997E+02  0.45594000000E+02  0.51100000000E-03 0.  1.
         23    2    1    2    0    0 -0.35527136788E-14  0.17763568394E-14  0.35527136788E-14  0.91188000000E+02  0.91188000000E+02 0.  0.
    9900012    2    3    3    0    0  0.24334987696E+02 -0.14715204135E+02 -0.23389112743E+02  0.54367089449E+02  0.40000012016E+02 0.  0.
         12    1    3    3    0    0 -0.24334987696E+02  0.14715204135E+02  0.23389112743E+02  0.36820910551E+02  0.00000000000E+00 0. -1.
         11    1    4    4    0    0 -0.77278217663E+01 -0.37067112967E+01  0.17101458488E+01  0.87397675583E+01  0.51100000000E-03 0. -1.
        -11    1    4    4    0    0  0.44395046540E+01  0.44756334112E+01 -0.56434172257E+01  0.84610078743E+01  0.51100000000E-03 0.  1.
        -12    1    4    4    0    0  0.27623304808E+02 -0.15484126250E+02 -0.19455841366E+02  0.37166314016E+02  0.00000000000E+00 0.  1.
</event>
<event>
 8    1  0.2401680E-006  0.9118800E+02  0.7816164E-02  0.1184000E+00
        -11   -1    0    0    0    0  0.00000000000E+00  0.00000000000E+00  0.45593999997E+02  0.45594000000E+02  0.51100000000E-03 0.  1.
         11   -1    0    0    0    0 -0.00000000000E+00 -0.00000000000E+00 -0.45593999997E+02  0.45594000000E+02  0.51100000000E-03 0. -1.
         23    2    1    2    0    0  0.00000000000E+00  0.35527136788E-14  0.00000000000E+00  0.91188000000E+02  0.91188000000E+02 0.  0.
    9900012    2    3    3    0    0 -0.82622678481E+01 -0.12845066629E+02  0.33503863649E+02  0.54367222087E+02  0.40000314390E+02 0.  0.
         12    1    3    3    0    0  0.82622678481E+01  0.12845066629E+02 -0.33503863649E+02  0.36820777913E+02  0.00000000000E+00 0. -1.
         11    1    4    4    0    0 -0.76625755449E+00 -0.24209024502E+02  0.30467669694E+02  0.38922267596E+02  0.51100000000E-03 0.  1.
        -11    1    4    4    0    0 -0.71287342082E+01  0.55653133165E+01  0.33040600432E+01  0.96285189283E+01  0.51100000000E-03 0. -1.
        -12    1    4    4    0    0 -0.36727608539E+00  0.57986445562E+01 -0.26786608776E+00  0.58164355625E+01  0.00000000000E+00 0.  1.
</event>
<event>
 8    1  0.2401680E-006  0.9118800E+02  0.7816164E-02  0.1184000E+00
        -11   -1    0    0    0    0  0.00000000000E+00  0.00000000000E+00  0.45593999997E+02  0.45594000000E+02  0.51100000000E-03 0.  1.
         11   -1    0    0    0    0 -0.00000000000E+00 -0.00000000000E+00 -0.45593999997E+02  0.45594000000E+02  0.51100000000E-03 0. -1.
         23    2    1    2    0    0 -0.55511151231E-15 -0.71054273576E-14  0.00000000000E+00  0.91188000000E+02  0.91188000000E+02 0.  0.
    9900012    2    3    3    0    0 -0.64333293855E+00 -0.33934661670E+02  0.14275893733E+02  0.54367132523E+02  0.40000110212E+02 0.  0.
         12    1    3    3    0    0  0.64333293855E+00  0.33934661670E+02 -0.14275893733E+02  0.36820867477E+02  0.00000000000E+00 0. -1.
         11    1    4    4    0    0  0.81285206915E+01 -0.67891919040E+01 -0.60743097712E+01  0.12209144720E+02  0.51100000000E-03 0. -1.
        -11    1    4    4    0    0 -0.45267355843E+01  0.36299627033E+01  0.24081221642E+01  0.62822780021E+01  0.51100000000E-03 0.  1.
        -12    1    4    4    0    0 -0.42451180458E+01 -0.30775432469E+02  0.17942081340E+02  0.35875709800E+02  0.00000000000E+00 0.  1.
</event>
<event>
 8    1  0.2401680E-006  0.9118800E+02  0.7816164E-02  0.1184000E+00
        -11   -1    0    0    0    0  0.00000000000E+00  0.00000000000E+00  0.45593999997E+02  0.45594000000E+02  0.51100000000E-03 0.  1.
         11   -1    0    0    0    0 -0.00000000000E+00 -0.00000000000E+00 -0.45593999997E+02  0.45594000000E+02  0.51100000000E-03 0. -1.
         23    2    1    2    0    0  0.00000000000E+00  0.88817841970E-15 -0.35527136788E-14  0.91188000000E+02  0.91188000000E+02 0.  0.
    9900012    2    3    3    0    0 -0.21662019076E+02  0.45910511622E+01 -0.29418684823E+02  0.54367084232E+02  0.40000000125E+02 0.  0.
        -12    1    3    3    0    0  0.21662019076E+02 -0.45910511622E+01  0.29418684823E+02  0.36820915768E+02  0.00000000000E+00 0.  1.
         11    1    4    4    0    0 -0.89044225043E+01  0.11404503871E+02 -0.60999864641E+00  0.14481835080E+02  0.51100000000E-03 0. -1.
        -11    1    4    4    0    0 -0.59188751246E+00 -0.13044063770E+02 -0.91601062538E+01  0.15950093332E+02  0.51100000000E-03 0.  1.
         12    1    4    4    0    0 -0.12165709059E+02  0.62306110614E+01 -0.19648579923E+02  0.23935155820E+02  0.00000000000E+00 0. -1.
</event>
<event>
 8    1  0.2401680E-006  0.9118800E+02  0.7816164E-02  0.1184000E+00
        -11   -1    0    0    0    0  0.00000000000E+00  0.00000000000E+00  0.45593999997E+02  0.45594000000E+02  0.51100000000E-03 0.  1.
         11   -1    0    0    0    0 -0.00000000000E+00 -0.00000000000E+00 -0.45593999997E+02  0.45594000000E+02  0.51100000000E-03 0. -1.
         23    2    1    2    0    0 -0.35527136788E-14  0.00000000000E+00 -0.26645352591E-14  0.91188000000E+02  0.91188000000E+02 0.  0.
    9900012    2    3    3    0    0  0.25354053898E+02  0.26390893414E+02  0.40585982890E+01  0.54367088491E+02  0.40000009833E+02 0.  0.
         12    1    3    3    0    0 -0.25354053898E+02 -0.26390893414E+02 -0.40585982890E+01  0.36820911509E+02  0.00000000000E+00 0. -1.
         11    1    4    4    0    0 -0.74350306938E+01  0.19679863538E+01 -0.67626667561E+01  0.10241401936E+02  0.51100000000E-03 0. -1.
        -11    1    4    4    0    0  0.14588918623E+02  0.14337504200E+02  0.11188204611E+02  0.23314727019E+02  0.51100000000E-03 0.  1.
         12    1    4    4    0    0  0.18200165969E+02  0.10085402860E+02 -0.36693956640E+00  0.20810959536E+02  0.00000000000E+00 0. -1.
</event>
<event>
 8    1  0.2401680E-006  0.9118800E+02  0.7816164E-02  0.1184000E+00
        -11   -1    0    0    0    0  0.00000000000E+00  0.00000000000E+00  0.45593999997E+02  0.45594000000E+02  0.51100000000E-03 0.  1.
         11   -1    0    0    0    0 -0.00000000000E+00 -0.00000000000E+00 -0.45593999997E+02  0.45594000000E+02  0.51100000000E-03 0. -1.
         23    2    1    2    0    0  0.00000000000E+00  0.00000000000E+00  0.00000000000E+00  0.91188000000E+02  0.91188000000E+02 0.  0.
    9900012    2    3    3    0    0  0.24091044702E+02 -0.25695854952E+02 -0.10729647481E+02  0.54367072097E+02  0.39999972460E+02 0.  0.
         12    1    3    3    0    0 -0.24091044702E+02  0.25695854952E+02  0.10729647481E+02  0.36820927903E+02  0.00000000000E+00 0. -1.
         11    1    4    4    0    0  0.77362286747E+00 -0.22508308278E+02 -0.14002746348E+02  0.26519791466E+02  0.51100000000E-03 0. -1.
        -11    1    4    4    0    0  0.65232258644E+01  0.16207804973E+01  0.72968797348E+01  0.99208799621E+01  0.51100000000E-03 0.  1.
         12    1    4    4    0    0  0.16794195970E+02 -0.48083271719E+01 -0.40237808676E+01  0.17926400669E+02  0.00000000000E+00 0. -1.
</event>
<event>
 8    1  0.2401680E-006  0.9118800E+02  0.7816164E-02  0.1184000E+00
        -11   -1    0    0    0    0  0.00000000000E+00  0.00000000000E+00  0.45593999997E+02  0.45594000000E+02  0.51100000000E-03 0.  1.
         11   -1    0    0    0    0 -0.00000000000E+00 -0.00000000000E+00 -0.45593999997E+02  0.45594000000E+02  0.51100000000E-03 0. -1.
         23    2    1    2    0    0  0.35527136788E-14 -0.35527136788E-14  0.00000000000E+00  0.91188000000E+02  0.91188000000E+02 0.  0.
    9900012    2    3    3    0    0 -0.26718785328E+02  0.25225483759E+02 -0.23584526975E+01  0.54367070905E+02  0.39999969742E+02 0.  0.
        -12    1    3    3    0    0  0.26718785328E+02 -0.25225483759E+02  0.23584526975E+01  0.36820929095E+02  0.00000000000E+00 0.  1.
         11    1    4    4    0    0 -0.93008176239E+01 -0.68927049408E+01  0.71726991669E+00  0.11598666573E+02  0.51100000000E-03 0. -1.
        -11    1    4    4    0    0 -0.12356216674E+02  0.38160419854E+01  0.32398051661E+01  0.13331714245E+02  0.51100000000E-03 0.  1.
         12    1    4    4    0    0 -0.50617510299E+01  0.28302146715E+02 -0.63155277803E+01  0.29436690087E+02  0.00000000000E+00 0. -1.
</event>
<event>
 8    1  0.2401680E-006  0.9118800E+02  0.7816164E-02  0.1184000E+00
        -11   -1    0    0    0    0  0.00000000000E+00  0.00000000000E+00  0.45593999997E+02  0.45594000000E+02  0.51100000000E-03 0.  1.
         11   -1    0    0    0    0 -0.00000000000E+00 -0.00000000000E+00 -0.45593999997E+02  0.45594000000E+02  0.51100000000E-03 0. -1.
         23    2    1    2    0    0  0.00000000000E+00  0.71054273576E-14  0.00000000000E+00  0.91188000000E+02  0.91188000000E+02 0.  0.
    9900012    2    3    3    0    0 -0.97402892929E+01 -0.33584184256E+02  0.11532935388E+02  0.54367091995E+02  0.40000017820E+02 0.  0.
         12    1    3    3    0    0  0.97402892929E+01  0.33584184256E+02 -0.11532935388E+02  0.36820908005E+02  0.00000000000E+00 0. -1.
         11    1    4    4    0    0  0.42568852125E+01 -0.15480717416E+01  0.12872599986E+02  0.13646297245E+02  0.51100000000E-03 0. -1.
        -11    1    4    4    0    0 -0.69396830877E+00 -0.18443991328E+02  0.72784908786E+01  0.19840333613E+02  0.51100000000E-03 0.  1.
         12    1    4    4    0    0 -0.13303206197E+02 -0.13592121186E+02 -0.86181554768E+01  0.20880461137E+02  0.00000000000E+00 0. -1.
</event>
<event>
 8    1  0.2401680E-006  0.9118800E+02  0.7816164E-02  0.1184000E+00
        -11   -1    0    0    0    0  0.00000000000E+00  0.00000000000E+00  0.45593999997E+02  0.45594000000E+02  0.51100000000E-03 0.  1.
         11   -1    0    0    0    0 -0.00000000000E+00 -0.00000000000E+00 -0.45593999997E+02  0.45594000000E+02  0.51100000000E-03 0. -1.
         23    2    1    2    0    0  0.00000000000E+00  0.00000000000E+00  0.35527136788E-14  0.91188000000E+02  0.91188000000E+02 0.  0.
    9900012    2    3    3    0    0 -0.11086141387E+02 -0.28562372472E+02 -0.20422166922E+02  0.54367128828E+02  0.40000101789E+02 0.  0.
        -12    1    3    3    0    0  0.11086141387E+02  0.28562372472E+02  0.20422166922E+02  0.36820871172E+02  0.00000000000E+00 0.  1.
         11    1    4    4    0    0 -0.10195019427E+02  0.32746752664E+01 -0.16363494449E+02  0.19555711954E+02  0.51100000000E-03 0. -1.
        -11    1    4    4    0    0  0.95573346879E+00 -0.31252336059E+02 -0.62511521398E+01  0.31885715280E+02  0.51100000000E-03 0.  1.
        -12    1    4    4    0    0 -0.18468554289E+01 -0.58471167935E+00  0.21924796665E+01  0.29257015930E+01  0.00000000000E+00 0.  1.
</event>
<event>
 8    1  0.2401680E-006  0.9118800E+02  0.7816164E-02  0.1184000E+00
        -11   -1    0    0    0    0  0.00000000000E+00  0.00000000000E+00  0.45593999997E+02  0.45594000000E+02  0.51100000000E-03 0. -1.
         11   -1    0    0    0    0 -0.00000000000E+00 -0.00000000000E+00 -0.45593999997E+02  0.45594000000E+02  0.51100000000E-03 0.  1.
         23    2    1    2    0    0  0.00000000000E+00  0.00000000000E+00  0.00000000000E+00  0.91188000000E+02  0.91188000000E+02 0.  0.
    9900012    2    3    3    0    0 -0.31225061768E+02 -0.17141826615E+02 -0.93237615100E+01  0.54367092477E+02  0.40000018920E+02 0.  0.
        -12    1    3    3    0    0  0.31225061768E+02  0.17141826615E+02  0.93237615100E+01  0.36820907523E+02  0.00000000000E+00 0.  1.
         11    1    4    4    0    0 -0.28597536860E+02 -0.13641455193E+02  0.14721574573E+01  0.31718695782E+02  0.51100000000E-03 0. -1.
        -11    1    4    4    0    0 -0.76714787421E+01 -0.95042943434E+00 -0.14115652550E+02  0.16093680418E+02  0.51100000000E-03 0.  1.
        -12    1    4    4    0    0  0.50439538339E+01 -0.25499419874E+01  0.33197335830E+01  0.65547162776E+01  0.00000000000E+00 0.  1.
</event>
<event>
 8    1  0.2401680E-006  0.9118800E+02  0.7816164E-02  0.1184000E+00
        -11   -1    0    0    0    0  0.00000000000E+00  0.00000000000E+00  0.45593999997E+02  0.45594000000E+02  0.51100000000E-03 0.  1.
         11   -1    0    0    0    0 -0.00000000000E+00 -0.00000000000E+00 -0.45593999997E+02  0.45594000000E+02  0.51100000000E-03 0. -1.
         23    2    1    2    0    0  0.00000000000E+00  0.00000000000E+00  0.88817841970E-15  0.91188000000E+02  0.91188000000E+02 0.  0.
    9900012    2    3    3    0    0  0.26187004933E+02 -0.25106832608E+02 -0.62982319831E+01  0.54367082072E+02  0.39999995200E+02 0.  0.
        -12    1    3    3    0    0 -0.26187004933E+02  0.25106832608E+02  0.62982319831E+01  0.36820917928E+02  0.00000000000E+00 0.  1.
         11    1    4    4    0    0  0.12905799366E+02 -0.16092972678E+02  0.11043008920E+02  0.23398535706E+02  0.51100000000E-03 0. -1.
        -11    1    4    4    0    0 -0.43742086335E+01 -0.56461482333E+01 -0.22179159200E+01  0.74787594112E+01  0.51100000000E-03 0.  1.
         12    1    4    4    0    0  0.17655414200E+02 -0.33677116960E+01 -0.15123324983E+02  0.23489786955E+02  0.00000000000E+00 0. -1.
</event>
<event>
 8    1  0.2401680E-006  0.9118800E+02  0.7816164E-02  0.1184000E+00
        -11   -1    0    0    0    0  0.00000000000E+00  0.00000000000E+00  0.45593999997E+02  0.45594000000E+02  0.51100000000E-03 0.  1.
         11   -1    0    0    0    0 -0.00000000000E+00 -0.00000000000E+00 -0.45593999997E+02  0.45594000000E+02  0.51100000000E-03 0. -1.
         23    2    1    2    0    0  0.17763568394E-14  0.00000000000E+00  0.00000000000E+00  0.91188000000E+02  0.91188000000E+02 0.  0.
    9900012    2    3    3    0    0 -0.10110435923E+02 -0.34037274836E+02 -0.97479210663E+01  0.54367096182E+02  0.40000027367E+02 0.  0.
        -12    1    3    3    0    0  0.10110435923E+02  0.34037274836E+02  0.97479210663E+01  0.36820903818E+02  0.00000000000E+00 0.  1.
         11    1    4    4    0    0 -0.90698469521E+01 -0.21434360374E+02  0.25387830355E+01  0.23412375956E+02  0.51100000000E-03 0. -1.
        -11    1    4    4    0    0  0.21925750422E+01  0.14780948356E+01  0.66381984163E+01  0.71454760607E+01  0.51100000000E-03 0.  1.
        -12    1    4    4    0    0 -0.32331640129E+01 -0.14081009298E+02 -0.18924902518E+02  0.23809244165E+02  0.00000000000E+00 0.  1.
</event>
<event>
 8    1  0.2401680E-006  0.9118800E+02  0.7816164E-02  0.1184000E+00
        -11   -1    0    0    0    0  0.00000000000E+00  0.00000000000E+00  0.45593999997E+02  0.45594000000E+02  0.51100000000E-03 0. -1.
         11   -1    0    0    0    0 -0.00000000000E+00 -0.00000000000E+00 -0.45593999997E+02  0.45594000000E+02  0.51100000000E-03 0.  1.
         23    2    1    2    0    0 -0.44408920985E-15 -0.35527136788E-14 -0.35527136788E-14  0.91188000000E+02  0.91188000000E+02 0.  0.
    9900012    2    3    3    0    0 -0.33033528305E+01 -0.18613643949E+02 -0.31597505053E+02  0.54367052069E+02  0.39999926802E+02 0.  0.
         12    1    3    3    0    0  0.33033528305E+01  0.18613643949E+02  0.31597505053E+02  0.36820947931E+02  0.00000000000E+00 0. -1.
         11    1    4    4    0    0 -0.41022885200E+01 -0.83222350636E+01 -0.13876434979E+02  0.16692627581E+02  0.51100000000E-03 0. -1.
        -11    1    4    4    0    0 -0.58537935564E+01 -0.96647184327E+00 -0.23923462114E+02  0.24648184652E+02  0.51100000000E-03 0.  1.
         12    1    4    4    0    0  0.66527292458E+01 -0.93249370418E+01  0.62023920410E+01  0.13026239837E+02  0.00000000000E+00 0. -1.
</event>
<event>
 8    1  0.2401680E-006  0.9118800E+02  0.7816164E-02  0.1184000E+00
        -11   -1    0    0    0    0  0.00000000000E+00  0.00000000000E+00  0.45593999997E+02  0.45594000000E+02  0.51100000000E-03 0. -1.
         11   -1    0    0    0    0 -0.00000000000E+00 -0.00000000000E+00 -0.45593999997E+02  0.45594000000E+02  0.51100000000E-03 0.  1.
         23    2    1    2    0    0  0.00000000000E+00  0.00000000000E+00  0.17763568394E-14  0.91188000000E+02  0.91188000000E+02 0.  0.
    9900012    2    3    3    0    0  0.10363669831E+02  0.33256939873E+02  0.11930978721E+02  0.54367109797E+02  0.40000058404E+02 0.  0.
        -12    1    3    3    0    0 -0.10363669831E+02 -0.33256939873E+02 -0.11930978721E+02  0.36820890203E+02  0.00000000000E+00 0.  1.
         11    1    4    4    0    0  0.22744704504E+01  0.19329807597E+02  0.18310513213E+02  0.26722454452E+02  0.51100000000E-03 0. -1.
        -11    1    4    4    0    0  0.84791500575E+00  0.15095687078E+02  0.33242005789E+01  0.15480601990E+02  0.51100000000E-03 0.  1.
        -12    1    4    4    0    0  0.72412843748E+01 -0.11685548014E+01 -0.97037350703E+01  0.12164053355E+02  0.00000000000E+00 0.  1.
</event>
<event>
 8    1  0.2401680E-006  0.9118800E+02  0.7816164E-02  0.1184000E+00
        -11   -1    0    0    0    0  0.00000000000E+00  0.00000000000E+00  0.45593999997E+02  0.45594000000E+02  0.51100000000E-03 0. -1.
         11   -1    0    0    0    0 -0.00000000000E+00 -0.00000000000E+00 -0.45593999997E+02  0.45594000000E+02  0.51100000000E-03 0.  1.
         23    2    1    2    0    0 -0.35527136788E-14 -0.88817841970E-15 -0.71054273576E-14  0.91188000000E+02  0.91188000000E+02 0.  0.
    9900012    2    3    3    0    0 -0.17409460248E+02  0.21337456841E+01 -0.32374795988E+02  0.54367223364E+02  0.40000317301E+02 0.  0.
         12    1    3    3    0    0  0.17409460248E+02 -0.21337456841E+01  0.32374795988E+02  0.36820776636E+02  0.00000000000E+00 0. -1.
         11    1    4    4    0    0  0.10758107338E+02  0.46940181046E+01 -0.12121774048E+02  0.16873295049E+02  0.51100000000E-03 0. -1.
        -11    1    4    4    0    0 -0.22256402541E+02 -0.56931825656E+01 -0.20513549269E+02  0.30798790328E+02  0.51100000000E-03 0.  1.
        -12    1    4    4    0    0 -0.59111650461E+01  0.31329101450E+01  0.26052732863E+00  0.66951379873E+01  0.00000000000E+00 0.  1.
</event>
<event>
 8    1  0.2401680E-006  0.9118800E+02  0.7816164E-02  0.1184000E+00
        -11   -1    0    0    0    0  0.00000000000E+00  0.00000000000E+00  0.45593999997E+02  0.45594000000E+02  0.51100000000E-03 0. -1.
         11   -1    0    0    0    0 -0.00000000000E+00 -0.00000000000E+00 -0.45593999997E+02  0.45594000000E+02  0.51100000000E-03 0.  1.
         23    2    1    2    0    0 -0.77715611724E-15  0.17763568394E-14 -0.71054273576E-14  0.91188000000E+02  0.91188000000E+02 0.  0.
    9900012    2    3    3    0    0 -0.74949773365E+00 -0.26249952959E+01 -0.36719578893E+02  0.54367084459E+02  0.40000000642E+02 0.  0.
         12    1    3    3    0    0  0.74949773365E+00  0.26249952959E+01  0.36719578893E+02  0.36820915541E+02  0.00000000000E+00 0. -1.
         11    1    4    4    0    0  0.29376231251E+01  0.59721761664E+01 -0.14185203386E+02  0.15668966563E+02  0.51100000000E-03 0.  1.
        -11    1    4    4    0    0 -0.10732424630E+02 -0.54577438180E+01 -0.27156560226E+02  0.29706071259E+02  0.51100000000E-03 0. -1.
         12    1    4    4    0    0  0.70453037714E+01 -0.31394276443E+01  0.46221847192E+01  0.89920466382E+01  0.00000000000E+00 0. -1.
</event>
<event>
 8    1  0.2401680E-006  0.9118800E+02  0.7816164E-02  0.1184000E+00
        -11   -1    0    0    0    0  0.00000000000E+00  0.00000000000E+00  0.45593999997E+02  0.45594000000E+02  0.51100000000E-03 0.  1.
         11   -1    0    0    0    0 -0.00000000000E+00 -0.00000000000E+00 -0.45593999997E+02  0.45594000000E+02  0.51100000000E-03 0. -1.
         23    2    1    2    0    0  0.00000000000E+00  0.00000000000E+00 -0.44408920985E-15  0.91188000000E+02  0.91188000000E+02 0.  0.
    9900012    2    3    3    0    0  0.31216199348E+02 -0.19408495377E+02  0.21538782207E+01  0.54367082224E+02  0.39999995545E+02 0.  0.
         12    1    3    3    0    0 -0.31216199348E+02  0.19408495377E+02 -0.21538782207E+01  0.36820917776E+02  0.00000000000E+00 0. -1.
         11    1    4    4    0    0  0.15130593520E+01 -0.15598332334E+02  0.11829327502E+01  0.15716127079E+02  0.51100000000E-03 0. -1.
        -11    1    4    4    0    0  0.11779863557E+02 -0.80656458549E+01  0.10678300471E+02  0.17828234060E+02  0.51100000000E-03 0.  1.
         12    1    4    4    0    0  0.17923276439E+02  0.42554828120E+01 -0.97073550009E+01  0.20822721085E+02  0.00000000000E+00 0. -1.
</event>
<event>
 8    1  0.2401680E-006  0.9118800E+02  0.7816164E-02  0.1184000E+00
        -11   -1    0    0    0    0  0.00000000000E+00  0.00000000000E+00  0.45593999997E+02  0.45594000000E+02  0.51100000000E-03 0. -1.
         11   -1    0    0    0    0 -0.00000000000E+00 -0.00000000000E+00 -0.45593999997E+02  0.45594000000E+02  0.51100000000E-03 0.  1.
         23    2    1    2    0    0 -0.88817841970E-15  0.00000000000E+00  0.00000000000E+00  0.91188000000E+02  0.91188000000E+02 0.  0.
    9900012    2    3    3    0    0 -0.58782532398E+01 -0.26740701406E+01 -0.36250108220E+02  0.54367151853E+02  0.40000154279E+02 0.  0.
         12    1    3    3    0    0  0.58782532398E+01  0.26740701406E+01  0.36250108220E+02  0.36820848147E+02  0.00000000000E+00 0. -1.
         11    1    4    4    0    0 -0.63284559641E+01 -0.31825475650E+01 -0.13735314237E+02  0.15454346358E+02  0.51100000000E-03 0. -1.
        -11    1    4    4    0    0 -0.12562997943E+02 -0.45536067859E+00  0.36164206521E+00  0.12576448462E+02  0.51100000000E-03 0.  1.
        -12    1    4    4    0    0  0.13013200668E+02  0.96383810301E+00 -0.22876436049E+02  0.26336357033E+02  0.00000000000E+00 0.  1.
</event>
<event>
 8    1  0.2401680E-006  0.9118800E+02  0.7816164E-02  0.1184000E+00
        -11   -1    0    0    0    0  0.00000000000E+00  0.00000000000E+00  0.45593999997E+02  0.45594000000E+02  0.51100000000E-03 0. -1.
         11   -1    0    0    0    0 -0.00000000000E+00 -0.00000000000E+00 -0.45593999997E+02  0.45594000000E+02  0.51100000000E-03 0.  1.
         23    2    1    2    0    0  0.00000000000E+00 -0.22204460493E-15  0.35527136788E-14  0.91188000000E+02  0.91188000000E+02 0.  0.
    9900012    2    3    3    0    0  0.35623634417E+02 -0.86204087012E+00  0.92732803445E+01  0.54367079698E+02  0.39999989787E+02 0.  0.
        -12    1    3    3    0    0 -0.35623634417E+02  0.86204087012E+00 -0.92732803445E+01  0.36820920302E+02  0.00000000000E+00 0.  1.
         11    1    4    4    0    0  0.74759016107E+01  0.21355832083E+01  0.22567156896E-01  0.77749810334E+01  0.51100000000E-03 0. -1.
        -11    1    4    4    0    0  0.34514098406E+02  0.74464456601E+00 -0.29489038304E+00  0.34523389824E+02  0.51100000000E-03 0.  1.
         12    1    4    4    0    0 -0.63663655998E+01 -0.37422686444E+01  0.95456035706E+01  0.12068708841E+02  0.00000000000E+00 0. -1.
</event>
<event>
 8    1  0.2401680E-006  0.9118800E+02  0.7816164E-02  0.1184000E+00
        -11   -1    0    0    0    0  0.00000000000E+00  0.00000000000E+00  0.45593999997E+02  0.45594000000E+02  0.51100000000E-03 0.  1.
         11   -1    0    0    0    0 -0.00000000000E+00 -0.00000000000E+00 -0.45593999997E+02  0.45594000000E+02  0.51100000000E-03 0. -1.
         23    2    1    2    0    0 -0.88817841970E-15  0.35527136788E-14  0.00000000000E+00  0.91188000000E+02  0.91188000000E+02 0.  0.
    9900012    2    3    3    0    0 -0.12383789873E+01 -0.15709360600E+02 -0.33278520455E+02  0.54367115755E+02  0.40000071986E+02 0.  0.
        -12    1    3    3    0    0  0.12383789873E+01  0.15709360600E+02  0.33278520455E+02  0.36820884245E+02  0.00000000000E+00 0.  1.
         11    1    4    4    0    0 -0.39034575291E+01  0.48770850186E+01 -0.97894467596E+00  0.63230745607E+01  0.51100000000E-03 0.  1.
        -11    1    4    4    0    0  0.24950434985E+01 -0.92980660977E+01  0.37016575375E+01  0.10314142912E+02  0.51100000000E-03 0. -1.
         12    1    4    4    0    0  0.17003504333E+00 -0.11288379520E+02 -0.36001233316E+02  0.37729898282E+02  0.00000000000E+00 0. -1.
</event>
<event>
 8    1  0.2401680E-006  0.9118800E+02  0.7816164E-02  0.1184000E+00
        -11   -1    0    0    0    0  0.00000000000E+00  0.00000000000E+00  0.45593999997E+02  0.45594000000E+02  0.51100000000E-03 0. -1.
         11   -1    0    0    0    0 -0.00000000000E+00 -0.00000000000E+00 -0.45593999997E+02  0.45594000000E+02  0.51100000000E-03 0.  1.
         23    2    1    2    0    0 -0.71054273576E-14  0.00000000000E+00 -0.88817841970E-15  0.91188000000E+02  0.91188000000E+02 0.  0.
    9900012    2    3    3    0    0 -0.35339554300E+02  0.87537976383E+01 -0.55015946321E+01  0.54367073685E+02  0.39999976080E+02 0.  0.
        -12    1    3    3    0    0  0.35339554300E+02 -0.87537976383E+01  0.55015946321E+01  0.36820926315E+02  0.00000000000E+00 0.  1.
         11    1    4    4    0    0 -0.18713946081E+02  0.13360163437E+02 -0.55933203881E+01  0.23664128512E+02  0.51100000000E-03 0. -1.
        -11    1    4    4    0    0 -0.82703611212E+01 -0.51837991859E+01  0.12421547043E+02  0.15797641542E+02  0.51100000000E-03 0.  1.
        -12    1    4    4    0    0 -0.83552470970E+01  0.57743338693E+00 -0.12329821287E+02  0.14905303631E+02  0.00000000000E+00 0.  1.
</event>
<event>
 8    1  0.2401680E-006  0.9118800E+02  0.7816164E-02  0.1184000E+00
        -11   -1    0    0    0    0  0.00000000000E+00  0.00000000000E+00  0.45593999997E+02  0.45594000000E+02  0.51100000000E-03 0.  1.
         11   -1    0    0    0    0 -0.00000000000E+00 -0.00000000000E+00 -0.45593999997E+02  0.45594000000E+02  0.51100000000E-03 0. -1.
         23    2    1    2    0    0  0.00000000000E+00  0.00000000000E+00  0.00000000000E+00  0.91188000000E+02  0.91188000000E+02 0.  0.
    9900012    2    3    3    0    0 -0.15642103374E+02  0.33026223347E+02  0.45133833029E+01  0.54367116586E+02  0.40000073881E+02 0.  0.
        -12    1    3    3    0    0  0.15642103374E+02 -0.33026223347E+02 -0.45133833029E+01  0.36820883414E+02  0.00000000000E+00 0.  1.
         11    1    4    4    0    0  0.12126978054E+01  0.14868119728E+02 -0.21346622039E+01  0.15069452651E+02  0.51100000000E-03 0. -1.
        -11    1    4    4    0    0 -0.19983577898E+02  0.29942281814E+01  0.11272864656E+02  0.23138415370E+02  0.51100000000E-03 0.  1.
        -12    1    4    4    0    0  0.31287767187E+01  0.15163875438E+02 -0.46248191488E+01  0.16159248566E+02  0.00000000000E+00 0.  1.
</event>
<event>
 8    1  0.2401680E-006  0.9118800E+02  0.7816164E-02  0.1184000E+00
        -11   -1    0    0    0    0  0.00000000000E+00  0.00000000000E+00  0.45593999997E+02  0.45594000000E+02  0.51100000000E-03 0. -1.
         11   -1    0    0    0    0 -0.00000000000E+00 -0.00000000000E+00 -0.45593999997E+02  0.45594000000E+02  0.51100000000E-03 0.  1.
         23    2    1    2    0    0 -0.35527136788E-14  0.22204460493E-15  0.00000000000E+00  0.91188000000E+02  0.91188000000E+02 0.  0.
    9900012    2    3    3    0    0  0.13345873870E+02  0.47935062624E+00  0.34313857010E+02  0.54367042526E+02  0.39999905047E+02 0.  0.
        -12    1    3    3    0    0 -0.13345873870E+02 -0.47935062624E+00 -0.34313857010E+02  0.36820957474E+02  0.00000000000E+00 0.  1.
         11    1    4    4    0    0 -0.32065080543E+01  0.99765533605E+00 -0.59065501976E+01  0.67944348970E+01  0.51100000000E-03 0.  1.
        -11    1    4    4    0    0  0.19519298059E+01 -0.81474083742E+01  0.18527583261E+02  0.20333756046E+02  0.51100000000E-03 0. -1.
         12    1    4    4    0    0  0.14600452119E+02  0.76291036644E+01  0.21692823947E+02  0.27238851583E+02  0.00000000000E+00 0. -1.
</event>
<event>
 8    1  0.2401680E-006  0.9118800E+02  0.7816164E-02  0.1184000E+00
        -11   -1    0    0    0    0  0.00000000000E+00  0.00000000000E+00  0.45593999997E+02  0.45594000000E+02  0.51100000000E-03 0.  1.
         11   -1    0    0    0    0 -0.00000000000E+00 -0.00000000000E+00 -0.45593999997E+02  0.45594000000E+02  0.51100000000E-03 0. -1.
         23    2    1    2    0    0  0.00000000000E+00  0.00000000000E+00  0.35527136788E-14  0.91188000000E+02  0.91188000000E+02 0.  0.
    9900012    2    3    3    0    0 -0.10581250902E+02 -0.28258122708E+02  0.21102060783E+02  0.54367063851E+02  0.39999953661E+02 0.  0.
         12    1    3    3    0    0  0.10581250902E+02  0.28258122708E+02 -0.21102060783E+02  0.36820936149E+02  0.00000000000E+00 0. -1.
         11    1    4    4    0    0 -0.15227605565E+02 -0.75217498396E+01  0.17821007493E+02  0.24617981238E+02  0.51100000000E-03 0. -1.
        -11    1    4    4    0    0  0.55438298297E+01 -0.12888988625E+02 -0.78676172659E+01  0.16086002570E+02  0.51100000000E-03 0.  1.
        -12    1    4    4    0    0 -0.89747516712E+00 -0.78473842424E+01  0.11148670556E+02  0.13663080044E+02  0.00000000000E+00 0.  1.
</event>
<event>
 8    1  0.2401680E-006  0.9118800E+02  0.7816164E-02  0.1184000E+00
        -11   -1    0    0    0    0  0.00000000000E+00  0.00000000000E+00  0.45593999997E+02  0.45594000000E+02  0.51100000000E-03 0. -1.
         11   -1    0    0    0    0 -0.00000000000E+00 -0.00000000000E+00 -0.45593999997E+02  0.45594000000E+02  0.51100000000E-03 0.  1.
         23    2    1    2    0    0  0.00000000000E+00  0.00000000000E+00  0.00000000000E+00  0.91188000000E+02  0.91188000000E+02 0.  0.
    9900012    2    3    3    0    0 -0.94834728260E+01 -0.27716814239E+02 -0.22307439388E+02  0.54367083384E+02  0.39999998191E+02 0.  0.
         12    1    3    3    0    0  0.94834728260E+01  0.27716814239E+02  0.22307439388E+02  0.36820916616E+02  0.00000000000E+00 0. -1.
         11    1    4    4    0    0  0.71065693213E-01 -0.12183856409E+01  0.49006390694E+01  0.50503244898E+01  0.51100000000E-03 0. -1.
        -11    1    4    4    0    0 -0.11980763875E-01 -0.29679405366E+02 -0.14278947325E+02  0.32935627873E+02  0.51100000000E-03 0.  1.
         12    1    4    4    0    0 -0.95425577553E+01  0.31809767677E+01 -0.12929131132E+02  0.16381131022E+02  0.00000000000E+00 0. -1.
</event>
<event>
 8    1  0.2401680E-006  0.9118800E+02  0.7816164E-02  0.1184000E+00
        -11   -1    0    0    0    0  0.00000000000E+00  0.00000000000E+00  0.45593999997E+02  0.45594000000E+02  0.51100000000E-03 0. -1.
         11   -1    0    0    0    0 -0.00000000000E+00 -0.00000000000E+00 -0.45593999997E+02  0.45594000000E+02  0.51100000000E-03 0.  1.
         23    2    1    2    0    0  0.00000000000E+00  0.35527136788E-14  0.35527136788E-14  0.91188000000E+02  0.91188000000E+02 0.  0.
    9900012    2    3    3    0    0  0.28282718463E+02 -0.11324110506E+02  0.20679300427E+02  0.54367066978E+02  0.39999960791E+02 0.  0.
        -12    1    3    3    0    0 -0.28282718463E+02  0.11324110506E+02 -0.20679300427E+02  0.36820933022E+02  0.00000000000E+00 0.  1.
         11    1    4    4    0    0  0.21666566803E+02  0.89457602235E+01  0.17623545226E+02  0.29326712901E+02  0.51100000000E-03 0. -1.
        -11    1    4    4    0    0  0.96891890565E+01 -0.19264406700E+02  0.20847069559E+01  0.21664342903E+02  0.51100000000E-03 0.  1.
         12    1    4    4    0    0 -0.30730373961E+01 -0.10054640293E+01  0.97104824546E+00  0.33760111740E+01  0.00000000000E+00 0. -1.
</event>
<event>
 8    1  0.2401680E-006  0.9118800E+02  0.7816164E-02  0.1184000E+00
        -11   -1    0    0    0    0  0.00000000000E+00  0.00000000000E+00  0.45593999997E+02  0.45594000000E+02  0.51100000000E-03 0. -1.
         11   -1    0    0    0    0 -0.00000000000E+00 -0.00000000000E+00 -0.45593999997E+02  0.45594000000E+02  0.51100000000E-03 0.  1.
         23    2    1    2    0    0  0.22204460493E-15 -0.35527136788E-14  0.00000000000E+00  0.91188000000E+02  0.91188000000E+02 0.  0.
    9900012    2    3    3    0    0 -0.19160697537E+01 -0.29909159316E+02  0.21390369323E+02  0.54367122307E+02  0.40000086923E+02 0.  0.
        -12    1    3    3    0    0  0.19160697537E+01  0.29909159316E+02 -0.21390369323E+02  0.36820877693E+02  0.00000000000E+00 0.  1.
         11    1    4    4    0    0  0.34954194066E-01 -0.13392263164E+02  0.71840097377E+01  0.15197497511E+02  0.51100000000E-03 0. -1.
        -11    1    4    4    0    0  0.13765836765E+02 -0.15532782457E+02  0.80445221100E+01  0.22259378449E+02  0.51100000000E-03 0.  1.
         12    1    4    4    0    0 -0.15716860713E+02 -0.98411369570E+00  0.61618374758E+01  0.16910246347E+02  0.00000000000E+00 0. -1.
</event>
<event>
 8    1  0.2401680E-006  0.9118800E+02  0.7816164E-02  0.1184000E+00
        -11   -1    0    0    0    0  0.00000000000E+00  0.00000000000E+00  0.45593999997E+02  0.45594000000E+02  0.51100000000E-03 0. -1.
         11   -1    0    0    0    0 -0.00000000000E+00 -0.00000000000E+00 -0.45593999997E+02  0.45594000000E+02  0.51100000000E-03 0.  1.
         23    2    1    2    0    0  0.00000000000E+00 -0.35527136788E-14  0.00000000000E+00  0.91188000000E+02  0.91188000000E+02 0.  0.
    9900012    2    3    3    0    0 -0.23042086598E+02  0.28572905501E+02 -0.29039412968E+01  0.54367060867E+02  0.39999946858E+02 0.  0.
        -12    1    3    3    0    0  0.23042086598E+02 -0.28572905501E+02  0.29039412968E+01  0.36820939133E+02  0.00000000000E+00 0.  1.
         11    1    4    4    0    0 -0.16899027008E+01  0.18026343371E+02  0.19227229593E+01  0.18207187875E+02  0.51100000000E-03 0. -1.
        -11    1    4    4    0    0 -0.26937604688E+02  0.11257425619E+02 -0.74358181318E+00  0.29204744342E+02  0.51100000000E-03 0.  1.
        -12    1    4    4    0    0  0.55854207909E+01 -0.71086348832E+00 -0.40830824429E+01  0.69551286505E+01  0.00000000000E+00 0.  1.
</event>
<event>
 8    1  0.2401680E-006  0.9118800E+02  0.7816164E-02  0.1184000E+00
        -11   -1    0    0    0    0  0.00000000000E+00  0.00000000000E+00  0.45593999997E+02  0.45594000000E+02  0.51100000000E-03 0.  1.
         11   -1    0    0    0    0 -0.00000000000E+00 -0.00000000000E+00 -0.45593999997E+02  0.45594000000E+02  0.51100000000E-03 0. -1.
         23    2    1    2    0    0 -0.17763568394E-14  0.35527136788E-14  0.00000000000E+00  0.91188000000E+02  0.91188000000E+02 0.  0.
    9900012    2    3    3    0    0 -0.13113238042E+02  0.19179583378E+02 -0.28565112856E+02  0.54367094213E+02  0.40000022878E+02 0.  0.
        -12    1    3    3    0    0  0.13113238042E+02 -0.19179583378E+02  0.28565112856E+02  0.36820905787E+02  0.00000000000E+00 0.  1.
         11    1    4    4    0    0 -0.20305789027E+02  0.19671479834E+01 -0.16841435715E+02  0.26454275579E+02  0.51100000000E-03 0. -1.
        -11    1    4    4    0    0  0.47113592451E+01  0.44935376451E+00  0.28821314077E+01  0.55412549530E+01  0.51100000000E-03 0.  1.
         12    1    4    4    0    0  0.24811917402E+01  0.16763081630E+02 -0.14605808548E+02  0.22371563681E+02  0.00000000000E+00 0. -1.
</event>
<event>
 8    1  0.2401680E-006  0.9118800E+02  0.7816164E-02  0.1184000E+00
        -11   -1    0    0    0    0  0.00000000000E+00  0.00000000000E+00  0.45593999997E+02  0.45594000000E+02  0.51100000000E-03 0. -1.
         11   -1    0    0    0    0 -0.00000000000E+00 -0.00000000000E+00 -0.45593999997E+02  0.45594000000E+02  0.51100000000E-03 0.  1.
         23    2    1    2    0    0  0.00000000000E+00  0.00000000000E+00  0.00000000000E+00  0.91188000000E+02  0.91188000000E+02 0.  0.
    9900012    2    3    3    0    0  0.22954378333E+02 -0.13038378748E+02 -0.25668637032E+02  0.54367058511E+02  0.39999941488E+02 0.  0.
         12    1    3    3    0    0 -0.22954378333E+02  0.13038378748E+02  0.25668637032E+02  0.36820941489E+02  0.00000000000E+00 0. -1.
         11    1    4    4    0    0  0.76271404254E+01 -0.11583189154E+02 -0.48197196481E+01  0.14682412601E+02  0.51100000000E-03 0. -1.
        -11    1    4    4    0    0 -0.43085839815E+01 -0.99623612514E+01 -0.12894317790E+02  0.16854553366E+02  0.51100000000E-03 0.  1.
         12    1    4    4    0    0  0.19635821889E+02  0.85071716572E+01 -0.79545995944E+01  0.22830092544E+02  0.00000000000E+00 0. -1.
</event>
<event>
 8    1  0.2401680E-006  0.9118800E+02  0.7816164E-02  0.1184000E+00
        -11   -1    0    0    0    0  0.00000000000E+00  0.00000000000E+00  0.45593999997E+02  0.45594000000E+02  0.51100000000E-03 0. -1.
         11   -1    0    0    0    0 -0.00000000000E+00 -0.00000000000E+00 -0.45593999997E+02  0.45594000000E+02  0.51100000000E-03 0.  1.
         23    2    1    2    0    0  0.00000000000E+00  0.17763568394E-14 -0.35527136788E-14  0.91188000000E+02  0.91188000000E+02 0.  0.
    9900012    2    3    3    0    0  0.18997133549E+02  0.14806361258E+02  0.27850652418E+02  0.54367105702E+02  0.40000049069E+02 0.  0.
        -12    1    3    3    0    0 -0.18997133549E+02 -0.14806361258E+02 -0.27850652418E+02  0.36820894298E+02  0.00000000000E+00 0.  1.
         11    1    4    4    0    0  0.14958271684E+02 -0.16914146331E+00  0.14387991628E+02  0.20755548751E+02  0.51100000000E-03 0.  1.
        -11    1    4    4    0    0  0.15355952280E+02  0.94603146430E+01  0.61692639945E+01  0.19062073393E+02  0.51100000000E-03 0. -1.
         12    1    4    4    0    0 -0.11317090414E+02  0.55151880784E+01  0.72933967951E+01  0.14549483558E+02  0.00000000000E+00 0. -1.
</event>
<event>
 8    1  0.2401680E-006  0.9118800E+02  0.7816164E-02  0.1184000E+00
        -11   -1    0    0    0    0  0.00000000000E+00  0.00000000000E+00  0.45593999997E+02  0.45594000000E+02  0.51100000000E-03 0.  1.
         11   -1    0    0    0    0 -0.00000000000E+00 -0.00000000000E+00 -0.45593999997E+02  0.45594000000E+02  0.51100000000E-03 0. -1.
         23    2    1    2    0    0 -0.17763568394E-14 -0.35527136788E-14 -0.35527136788E-14  0.91188000000E+02  0.91188000000E+02 0.  0.
    9900012    2    3    3    0    0 -0.13099479553E+02 -0.22413761814E+02 -0.26111430760E+02  0.54367083396E+02  0.39999998218E+02 0.  0.
        -12    1    3    3    0    0  0.13099479553E+02  0.22413761814E+02  0.26111430760E+02  0.36820916604E+02  0.00000000000E+00 0.  1.
         11    1    4    4    0    0  0.11396897232E+01 -0.16527979331E+02 -0.27989163418E+02  0.32524856072E+02  0.51100000000E-03 0. -1.
        -11    1    4    4    0    0 -0.11182354986E+02 -0.14102538506E+01  0.78820564407E+01  0.13753570190E+02  0.51100000000E-03 0.  1.
         12    1    4    4    0    0 -0.30568142896E+01 -0.44755286323E+01 -0.60043237835E+01  0.80886571344E+01  0.00000000000E+00 0. -1.
</event>
<event>
 8    1  0.2401680E-006  0.9118800E+02  0.7816164E-02  0.1184000E+00
        -11   -1    0    0    0    0  0.00000000000E+00  0.00000000000E+00  0.45593999997E+02  0.45594000000E+02  0.51100000000E-03 0.  1.
         11   -1    0    0    0    0 -0.00000000000E+00 -0.00000000000E+00 -0.45593999997E+02  0.45594000000E+02  0.51100000000E-03 0. -1.
         23    2    1    2    0    0 -0.99920072216E-15  0.00000000000E+00  0.00000000000E+00  0.91188000000E+02  0.91188000000E+02 0.  0.
    9900012    2    3    3    0    0 -0.55897128634E+00 -0.85364178938E+01  0.35813378191E+02  0.54367069311E+02  0.39999966108E+02 0.  0.
         12    1    3    3    0    0  0.55897128634E+00  0.85364178938E+01 -0.35813378191E+02  0.36820930689E+02  0.00000000000E+00 0. -1.
         11    1    4    4    0    0 -0.14513539670E+02 -0.88743258532E+00  0.11150132007E+02  0.18323640860E+02  0.51100000000E-03 0. -1.
        -11    1    4    4    0    0  0.50602555907E+01 -0.13761559579E+02  0.96474695191E+01  0.17551648842E+02  0.51100000000E-03 0.  1.
         12    1    4    4    0    0  0.88943127925E+01  0.61125742705E+01  0.15015776665E+02  0.18491779609E+02  0.00000000000E+00 0. -1.
</event>
<event>
 8    1  0.2401680E-006  0.9118800E+02  0.7816164E-02  0.1184000E+00
        -11   -1    0    0    0    0  0.00000000000E+00  0.00000000000E+00  0.45593999997E+02  0.45594000000E+02  0.51100000000E-03 0.  1.
         11   -1    0    0    0    0 -0.00000000000E+00 -0.00000000000E+00 -0.45593999997E+02  0.45594000000E+02  0.51100000000E-03 0. -1.
         23    2    1    2    0    0  0.35527136788E-14  0.00000000000E+00  0.00000000000E+00  0.91188000000E+02  0.91188000000E+02 0.  0.
    9900012    2    3    3    0    0 -0.25152878524E+02  0.15599809395E+02 -0.21903400140E+02  0.54367078109E+02  0.39999986165E+02 0.  0.
        -12    1    3    3    0    0  0.25152878524E+02 -0.15599809395E+02  0.21903400140E+02  0.36820921891E+02  0.00000000000E+00 0.  1.
         11    1    4    4    0    0 -0.15596809874E+00  0.39315246630E+01 -0.18686973113E+02  0.19096705910E+02  0.51100000000E-03 0.  1.
        -11    1    4    4    0    0 -0.18585623650E+02 -0.30909621253E+01  0.97094051301E-01  0.18841148607E+02  0.51100000000E-03 0. -1.
        -12    1    4    4    0    0 -0.64112867754E+01  0.14759246857E+02 -0.33135210792E+01  0.16429223593E+02  0.00000000000E+00 0.  1.
</event>
<event>
 8    1  0.2401680E-006  0.9118800E+02  0.7816164E-02  0.1184000E+00
        -11   -1    0    0    0    0  0.00000000000E+00  0.00000000000E+00  0.45593999997E+02  0.45594000000E+02  0.51100000000E-03 0.  1.
         11   -1    0    0    0    0 -0.00000000000E+00 -0.00000000000E+00 -0.45593999997E+02  0.45594000000E+02  0.51100000000E-03 0. -1.
         23    2    1    2    0    0  0.71054273576E-14  0.17763568394E-14  0.22204460493E-15  0.91188000000E+02  0.91188000000E+02 0.  0.
    9900012    2    3    3    0    0 -0.36716822318E+02 -0.27524119574E+01  0.28430349150E+00  0.54367059746E+02  0.39999944303E+02 0.  0.
         12    1    3    3    0    0  0.36716822318E+02  0.27524119574E+01 -0.28430349150E+00  0.36820940254E+02  0.00000000000E+00 0. -1.
         11    1    4    4    0    0 -0.16555113674E+02  0.22472169080E+01 -0.21908268790E+01  0.16849970186E+02  0.51100000000E-03 0. -1.
        -11    1    4    4    0    0 -0.63284510900E+01 -0.17500490564E+02  0.30784145308E+01  0.18862478614E+02  0.51100000000E-03 0.  1.
        -12    1    4    4    0    0 -0.13833257554E+02  0.12500861699E+02 -0.60328416029E+00  0.18654610946E+02  0.00000000000E+00 0.  1.
</event>
<event>
 8    1  0.2401680E-006  0.9118800E+02  0.7816164E-02  0.1184000E+00
        -11   -1    0    0    0    0  0.00000000000E+00  0.00000000000E+00  0.45593999997E+02  0.45594000000E+02  0.51100000000E-03 0.  1.
         11   -1    0    0    0    0 -0.00000000000E+00 -0.00000000000E+00 -0.45593999997E+02  0.45594000000E+02  0.51100000000E-03 0. -1.
         23    2    1    2    0    0  0.00000000000E+00  0.00000000000E+00  0.17763568394E-14  0.91188000000E+02  0.91188000000E+02 0.  0.
    9900012    2    3    3    0    0  0.32789032839E+02  0.59072485438E+01  0.15676812738E+02  0.54367099448E+02  0.40000034811E+02 0.  0.
        -12    1    3    3    0    0 -0.32789032839E+02 -0.59072485438E+01 -0.15676812738E+02  0.36820900552E+02  0.00000000000E+00 0.  1.
         11    1    4    4    0    0  0.16797712353E+02  0.11044916665E+02 -0.70913199672E+00  0.20116068027E+02  0.51100000000E-03 0. -1.
        -11    1    4    4    0    0  0.66835342443E+01 -0.59507548038E+01 -0.54655405395E+01  0.10485859353E+02  0.51100000000E-03 0.  1.
         12    1    4    4    0    0  0.93077862416E+01  0.81308668250E+00  0.21851485275E+02  0.23765172067E+02  0.00000000000E+00 0. -1.
</event>
<event>
 8    1  0.2401680E-006  0.9118800E+02  0.7816164E-02  0.1184000E+00
        -11   -1    0    0    0    0  0.00000000000E+00  0.00000000000E+00  0.45593999997E+02  0.45594000000E+02  0.51100000000E-03 0.  1.
         11   -1    0    0    0    0 -0.00000000000E+00 -0.00000000000E+00 -0.45593999997E+02  0.45594000000E+02  0.51100000000E-03 0. -1.
         23    2    1    2    0    0 -0.35527136788E-14  0.17763568394E-14  0.00000000000E+00  0.91188000000E+02  0.91188000000E+02 0.  0.
    9900012    2    3    3    0    0  0.18681338287E+02  0.14126799531E+02  0.28411627845E+02  0.54367089338E+02  0.40000011764E+02 0.  0.
         12    1    3    3    0    0 -0.18681338287E+02 -0.14126799531E+02 -0.28411627845E+02  0.36820910662E+02  0.00000000000E+00 0. -1.
         11    1    4    4    0    0  0.70636498411E+01 -0.91888541447E+01  0.17657248844E+02  0.21121283734E+02  0.51100000000E-03 0. -1.
        -11    1    4    4    0    0  0.31743183874E+01  0.22700279843E+01  0.98012733153E+01  0.10549610568E+02  0.51100000000E-03 0.  1.
         12    1    4    4    0    0  0.84433700582E+01  0.21045625691E+02  0.95310568602E+00  0.22696195036E+02  0.00000000000E+00 0. -1.
</event>
<event>
 8    1  0.2401680E-006  0.9118800E+02  0.7816164E-02  0.1184000E+00
        -11   -1    0    0    0    0  0.00000000000E+00  0.00000000000E+00  0.45593999997E+02  0.45594000000E+02  0.51100000000E-03 0. -1.
         11   -1    0    0    0    0 -0.00000000000E+00 -0.00000000000E+00 -0.45593999997E+02  0.45594000000E+02  0.51100000000E-03 0.  1.
         23    2    1    2    0    0  0.00000000000E+00  0.00000000000E+00  0.00000000000E+00  0.91188000000E+02  0.91188000000E+02 0.  0.
    9900012    2    3    3    0    0 -0.84110013116E+01 -0.12160325968E+02  0.33721846735E+02  0.54367062777E+02  0.39999951213E+02 0.  0.
        -12    1    3    3    0    0  0.84110013116E+01  0.12160325968E+02 -0.33721846735E+02  0.36820937223E+02  0.00000000000E+00 0.  1.
         11    1    4    4    0    0  0.19345557926E+01 -0.12301550002E+02  0.28972741195E+02  0.31535541397E+02  0.51100000000E-03 0. -1.
        -11    1    4    4    0    0 -0.89569908371E+01 -0.77834597168E+01  0.78294836950E+01  0.14216565873E+02  0.51100000000E-03 0.  1.
         12    1    4    4    0    0 -0.13885662672E+01  0.79246837505E+01 -0.30803781549E+01  0.86149555077E+01  0.00000000000E+00 0. -1.
</event>
<event>
 8    1  0.2401680E-006  0.9118800E+02  0.7816164E-02  0.1184000E+00
        -11   -1    0    0    0    0  0.00000000000E+00  0.00000000000E+00  0.45593999997E+02  0.45594000000E+02  0.51100000000E-03 0.  1.
         11   -1    0    0    0    0 -0.00000000000E+00 -0.00000000000E+00 -0.45593999997E+02  0.45594000000E+02  0.51100000000E-03 0. -1.
         23    2    1    2    0    0  0.00000000000E+00 -0.35527136788E-14  0.00000000000E+00  0.91188000000E+02  0.91188000000E+02 0.  0.
    9900012    2    3    3    0    0  0.21489180411E+02 -0.15784025060E+02 -0.25394074103E+02  0.54367091248E+02  0.40000016117E+02 0.  0.
        -12    1    3    3    0    0 -0.21489180411E+02  0.15784025060E+02  0.25394074103E+02  0.36820908752E+02  0.00000000000E+00 0.  1.
         11    1    4    4    0    0  0.69231606498E+01 -0.23235969858E+02 -0.27996658543E+02  0.37035838569E+02  0.51100000000E-03 0. -1.
        -11    1    4    4    0    0  0.61090247040E+01  0.57634990315E+01  0.29462480615E+00  0.84038626808E+01  0.51100000000E-03 0.  1.
         12    1    4    4    0    0  0.84569950572E+01  0.16884457674E+01  0.23079596343E+01  0.89273899982E+01  0.00000000000E+00 0. -1.
</event>
<event>
 8    1  0.2401680E-006  0.9118800E+02  0.7816164E-02  0.1184000E+00
        -11   -1    0    0    0    0  0.00000000000E+00  0.00000000000E+00  0.45593999997E+02  0.45594000000E+02  0.51100000000E-03 0. -1.
         11   -1    0    0    0    0 -0.00000000000E+00 -0.00000000000E+00 -0.45593999997E+02  0.45594000000E+02  0.51100000000E-03 0.  1.
         23    2    1    2    0    0  0.35527136788E-14  0.00000000000E+00  0.35527136788E-14  0.91188000000E+02  0.91188000000E+02 0.  0.
    9900012    2    3    3    0    0 -0.19684187789E+02  0.88532113094E+01 -0.29831738575E+02  0.54367092545E+02  0.40000019075E+02 0.  0.
         12    1    3    3    0    0  0.19684187789E+02 -0.88532113094E+01  0.29831738575E+02  0.36820907455E+02  0.00000000000E+00 0. -1.
         11    1    4    4    0    0 -0.11399064718E+02  0.50690562731E+01 -0.12942276257E+02  0.17975998524E+02  0.51100000000E-03 0. -1.
        -11    1    4    4    0    0 -0.18970347638E+02  0.76111853262E+01 -0.13681694953E+02  0.24596605632E+02  0.51100000000E-03 0.  1.
         12    1    4    4    0    0  0.10685224568E+02 -0.38270302900E+01 -0.32077673656E+01  0.11794488390E+02  0.00000000000E+00 0. -1.
</event>
<event>
 8    1  0.2401680E-006  0.9118800E+02  0.7816164E-02  0.1184000E+00
        -11   -1    0    0    0    0  0.00000000000E+00  0.00000000000E+00  0.45593999997E+02  0.45594000000E+02  0.51100000000E-03 0. -1.
         11   -1    0    0    0    0 -0.00000000000E+00 -0.00000000000E+00 -0.45593999997E+02  0.45594000000E+02  0.51100000000E-03 0.  1.
         23    2    1    2    0    0  0.00000000000E+00  0.00000000000E+00  0.00000000000E+00  0.91188000000E+02  0.91188000000E+02 0.  0.
    9900012    2    3    3    0    0 -0.28689700399E+02  0.71528733516E+01 -0.21943507570E+02  0.54367081616E+02  0.39999994159E+02 0.  0.
         12    1    3    3    0    0  0.28689700399E+02 -0.71528733516E+01  0.21943507570E+02  0.36820918384E+02  0.00000000000E+00 0. -1.
         11    1    4    4    0    0 -0.21416139283E+01  0.34780598651E+01 -0.10971103637E+02  0.11706772652E+02  0.51100000000E-03 0. -1.
        -11    1    4    4    0    0 -0.12311249470E+02  0.29919629325E+01 -0.21489953787E+02  0.24946679533E+02  0.51100000000E-03 0.  1.
         12    1    4    4    0    0 -0.14236837001E+02  0.68285055392E+00  0.10517549854E+02  0.17713629431E+02  0.00000000000E+00 0. -1.
</event>
<event>
 8    1  0.2401680E-006  0.9118800E+02  0.7816164E-02  0.1184000E+00
        -11   -1    0    0    0    0  0.00000000000E+00  0.00000000000E+00  0.45593999997E+02  0.45594000000E+02  0.51100000000E-03 0.  1.
         11   -1    0    0    0    0 -0.00000000000E+00 -0.00000000000E+00 -0.45593999997E+02  0.45594000000E+02  0.51100000000E-03 0. -1.
         23    2    1    2    0    0  0.00000000000E+00  0.00000000000E+00 -0.35527136788E-14  0.91188000000E+02  0.91188000000E+02 0.  0.
    9900012    2    3    3    0    0  0.27184656428E+02  0.12475872801E+02 -0.21473827346E+02  0.54367106364E+02  0.40000050579E+02 0.  0.
        -12    1    3    3    0    0 -0.27184656428E+02 -0.12475872801E+02  0.21473827346E+02  0.36820893636E+02  0.00000000000E+00 0.  1.
         11    1    4    4    0    0  0.19544205509E+02  0.10098993662E+02 -0.23495012095E+02  0.32186662387E+02  0.51100000000E-03 0. -1.
        -11    1    4    4    0    0 -0.38874553808E+01  0.20514772329E+01  0.80464928434E+01  0.91688012038E+01  0.51100000000E-03 0.  1.
        -12    1    4    4    0    0  0.11527906299E+02  0.32540190555E+00 -0.60253080936E+01  0.13011642774E+02  0.00000000000E+00 0.  1.
</event>
<event>
 8    1  0.2401680E-006  0.9118800E+02  0.7816164E-02  0.1184000E+00
        -11   -1    0    0    0    0  0.00000000000E+00  0.00000000000E+00  0.45593999997E+02  0.45594000000E+02  0.51100000000E-03 0. -1.
         11   -1    0    0    0    0 -0.00000000000E+00 -0.00000000000E+00 -0.45593999997E+02  0.45594000000E+02  0.51100000000E-03 0.  1.
         23    2    1    2    0    0 -0.17763568394E-14  0.00000000000E+00 -0.35527136788E-14  0.91188000000E+02  0.91188000000E+02 0.  0.
    9900012    2    3    3    0    0 -0.13304704241E+02  0.24791804832E+02 -0.23751441672E+02  0.54367085790E+02  0.40000003675E+02 0.  0.
         12    1    3    3    0    0  0.13304704241E+02 -0.24791804832E+02  0.23751441672E+02  0.36820914210E+02  0.00000000000E+00 0. -1.
         11    1    4    4    0    0 -0.38521294147E+01 -0.83933312361E+00 -0.55672536987E+01  0.68218542294E+01  0.51100000000E-03 0. -1.
        -11    1    4    4    0    0  0.64528246988E+01  0.26057277543E+02 -0.60049018638E+01  0.27507808095E+02  0.51100000000E-03 0.  1.
        -12    1    4    4    0    0 -0.15905399525E+02 -0.42613958751E+00 -0.12179286110E+02  0.20037423466E+02  0.00000000000E+00 0.  1.
</event>
<event>
 8    1  0.2401680E-006  0.9118800E+02  0.7816164E-02  0.1184000E+00
        -11   -1    0    0    0    0  0.00000000000E+00  0.00000000000E+00  0.45593999997E+02  0.45594000000E+02  0.51100000000E-03 0.  1.
         11   -1    0    0    0    0 -0.00000000000E+00 -0.00000000000E+00 -0.45593999997E+02  0.45594000000E+02  0.51100000000E-03 0. -1.
         23    2    1    2    0    0 -0.17763568394E-14  0.99920072216E-15  0.00000000000E+00  0.91188000000E+02  0.91188000000E+02 0.  0.
    9900012    2    3    3    0    0 -0.91498634689E+01  0.50446892281E+00 -0.35662366570E+02  0.54367097244E+02  0.40000029788E+02 0.  0.
        -12    1    3    3    0    0  0.91498634689E+01 -0.50446892281E+00  0.35662366570E+02  0.36820902756E+02  0.00000000000E+00 0.  1.
         11    1    4    4    0    0 -0.15344412114E+02  0.11259336370E+00 -0.17540155510E+02  0.23304950461E+02  0.51100000000E-03 0. -1.
        -11    1    4    4    0    0  0.14306061376E+02  0.55811179789E+01 -0.90071354284E+01  0.17802830081E+02  0.51100000000E-03 0.  1.
        -12    1    4    4    0    0 -0.81115127305E+01 -0.51892424198E+01 -0.91150756312E+01  0.13259316703E+02  0.00000000000E+00 0.  1.
</event>
<event>
 8    1  0.2401680E-006  0.9118800E+02  0.7816164E-02  0.1184000E+00
        -11   -1    0    0    0    0  0.00000000000E+00  0.00000000000E+00  0.45593999997E+02  0.45594000000E+02  0.51100000000E-03 0.  1.
         11   -1    0    0    0    0 -0.00000000000E+00 -0.00000000000E+00 -0.45593999997E+02  0.45594000000E+02  0.51100000000E-03 0. -1.
         23    2    1    2    0    0  0.17763568394E-14 -0.88817841970E-15  0.00000000000E+00  0.91188000000E+02  0.91188000000E+02 0.  0.
    9900012    2    3    3    0    0  0.81721364379E+01  0.74380601936E+01  0.35123643643E+02  0.54367097021E+02  0.40000029279E+02 0.  0.
         12    1    3    3    0    0 -0.81721364379E+01 -0.74380601936E+01 -0.35123643643E+02  0.36820902979E+02  0.00000000000E+00 0. -1.
         11    1    4    4    0    0 -0.64598074438E+01 -0.46376045969E+01  0.86707039845E+01  0.11765100784E+02  0.51100000000E-03 0.  1.
        -11    1    4    4    0    0  0.19531152405E+02  0.12276465577E+01  0.23019375710E+02  0.30213650701E+02  0.51100000000E-03 0. -1.
        -12    1    4    4    0    0 -0.48992085234E+01  0.10848018233E+02  0.34335639494E+01  0.12388345536E+02  0.00000000000E+00 0.  1.
</event>
<event>
 8    1  0.2401680E-006  0.9118800E+02  0.7816164E-02  0.1184000E+00
        -11   -1    0    0    0    0  0.00000000000E+00  0.00000000000E+00  0.45593999997E+02  0.45594000000E+02  0.51100000000E-03 0. -1.
         11   -1    0    0    0    0 -0.00000000000E+00 -0.00000000000E+00 -0.45593999997E+02  0.45594000000E+02  0.51100000000E-03 0.  1.
         23    2    1    2    0    0  0.26645352591E-14  0.00000000000E+00  0.35527136788E-14  0.91188000000E+02  0.91188000000E+02 0.  0.
    9900012    2    3    3    0    0 -0.59954403681E+01  0.22733803390E+02 -0.28337396630E+02  0.54367093309E+02  0.40000020815E+02 0.  0.
         12    1    3    3    0    0  0.59954403681E+01 -0.22733803390E+02  0.28337396630E+02  0.36820906691E+02  0.00000000000E+00 0. -1.
         11    1    4    4    0    0  0.11399452683E+02  0.16420812228E+02 -0.25424214390E+02  0.32341633745E+02  0.51100000000E-03 0. -1.
        -11    1    4    4    0    0 -0.67857465701E+01  0.30381021922E+01 -0.69830281621E+01  0.10199956079E+02  0.51100000000E-03 0.  1.
         12    1    4    4    0    0 -0.10609146481E+02  0.32748889704E+01  0.40698459218E+01  0.11825503484E+02  0.00000000000E+00 0. -1.
</event>
<event>
 8    1  0.2401680E-006  0.9118800E+02  0.7816164E-02  0.1184000E+00
        -11   -1    0    0    0    0  0.00000000000E+00  0.00000000000E+00  0.45593999997E+02  0.45594000000E+02  0.51100000000E-03 0.  1.
         11   -1    0    0    0    0 -0.00000000000E+00 -0.00000000000E+00 -0.45593999997E+02  0.45594000000E+02  0.51100000000E-03 0. -1.
         23    2    1    2    0    0 -0.71054273576E-14  0.00000000000E+00 -0.17763568394E-14  0.91188000000E+02  0.91188000000E+02 0.  0.
    9900012    2    3    3    0    0  0.36215560173E+02  0.22586515277E+01 -0.62540983523E+01  0.54367054173E+02  0.39999931598E+02 0.  0.
        -12    1    3    3    0    0 -0.36215560173E+02 -0.22586515277E+01  0.62540983523E+01  0.36820945827E+02  0.00000000000E+00 0.  1.
         11    1    4    4    0    0 -0.20704945036E+01  0.18908801626E+01  0.45735332250E+01  0.53646604459E+01  0.51100000000E-03 0. -1.
        -11    1    4    4    0    0 -0.13270976092E+01  0.37120346885E+01  0.48662692759E+01  0.62626644904E+01  0.51100000000E-03 0.  1.
         12    1    4    4    0    0  0.39613152286E+02 -0.33442633234E+01 -0.15693900853E+02  0.42739729237E+02  0.00000000000E+00 0. -1.
</event>
<event>
 8    1  0.2401680E-006  0.9118800E+02  0.7816164E-02  0.1184000E+00
        -11   -1    0    0    0    0  0.00000000000E+00  0.00000000000E+00  0.45593999997E+02  0.45594000000E+02  0.51100000000E-03 0.  1.
         11   -1    0    0    0    0 -0.00000000000E+00 -0.00000000000E+00 -0.45593999997E+02  0.45594000000E+02  0.51100000000E-03 0. -1.
         23    2    1    2    0    0 -0.17763568394E-14 -0.35527136788E-14  0.35527136788E-14  0.91188000000E+02  0.91188000000E+02 0.  0.
    9900012    2    3    3    0    0  0.13095545741E+02  0.21553580529E+02 -0.26827775555E+02  0.54367086200E+02  0.40000004610E+02 0.  0.
        -12    1    3    3    0    0 -0.13095545741E+02 -0.21553580529E+02  0.26827775555E+02  0.36820913800E+02  0.00000000000E+00 0.  1.
         11    1    4    4    0    0  0.16532051873E+02  0.11576391910E+02 -0.20507919541E+02  0.28773188091E+02  0.51100000000E-03 0. -1.
        -11    1    4    4    0    0  0.78237750042E+01  0.10897509610E+02 -0.45039267491E+01  0.14151061000E+02  0.51100000000E-03 0.  1.
        -12    1    4    4    0    0 -0.11260281136E+02 -0.92032099079E+00 -0.18159292649E+01  0.11442837108E+02  0.00000000000E+00 0.  1.
</event>
<event>
 8    1  0.2401680E-006  0.9118800E+02  0.7816164E-02  0.1184000E+00
        -11   -1    0    0    0    0  0.00000000000E+00  0.00000000000E+00  0.45593999997E+02  0.45594000000E+02  0.51100000000E-03 0. -1.
         11   -1    0    0    0    0 -0.00000000000E+00 -0.00000000000E+00 -0.45593999997E+02  0.45594000000E+02  0.51100000000E-03 0.  1.
         23    2    1    2    0    0  0.44408920985E-15  0.00000000000E+00  0.35527136788E-14  0.91188000000E+02  0.91188000000E+02 0.  0.
    9900012    2    3    3    0    0 -0.33962372934E+01 -0.23740330779E+02  0.27939991327E+02  0.54367070509E+02  0.39999968838E+02 0.  0.
        -12    1    3    3    0    0  0.33962372934E+01  0.23740330779E+02 -0.27939991327E+02  0.36820929491E+02  0.00000000000E+00 0.  1.
         11    1    4    4    0    0  0.38818977341E+01 -0.20407959121E+01  0.11542462244E+02  0.12347567083E+02  0.51100000000E-03 0. -1.
        -11    1    4    4    0    0 -0.13029241446E+02 -0.14908723259E+01  0.16412495655E+02  0.21008423235E+02  0.51100000000E-03 0.  1.
        -12    1    4    4    0    0  0.57511064187E+01 -0.20208662541E+02 -0.14966571468E-01  0.21011080190E+02  0.00000000000E+00 0.  1.
</event>
<event>
 8    1  0.2401680E-006  0.9118800E+02  0.7816164E-02  0.1184000E+00
        -11   -1    0    0    0    0  0.00000000000E+00  0.00000000000E+00  0.45593999997E+02  0.45594000000E+02  0.51100000000E-03 0. -1.
         11   -1    0    0    0    0 -0.00000000000E+00 -0.00000000000E+00 -0.45593999997E+02  0.45594000000E+02  0.51100000000E-03 0.  1.
         23    2    1    2    0    0  0.00000000000E+00  0.00000000000E+00  0.00000000000E+00  0.91188000000E+02  0.91188000000E+02 0.  0.
    9900012    2    3    3    0    0 -0.33569537553E+02 -0.82455531361E+01 -0.12683831930E+02  0.54367046856E+02  0.39999914917E+02 0.  0.
         12    1    3    3    0    0  0.33569537553E+02  0.82455531361E+01  0.12683831930E+02  0.36820953144E+02  0.00000000000E+00 0. -1.
         11    1    4    4    0    0 -0.96251923977E+01  0.32459601113E+01  0.46733110176E+01  0.11181253144E+02  0.51100000000E-03 0. -1.
        -11    1    4    4    0    0  0.19552419389E+01  0.16152852436E+00 -0.14511139879E+02  0.14643163707E+02  0.51100000000E-03 0.  1.
        -12    1    4    4    0    0 -0.25899587094E+02 -0.11653041772E+02 -0.28460030690E+01  0.28542630005E+02  0.00000000000E+00 0.  1.
</event>
<event>
 8    1  0.2401680E-006  0.9118800E+02  0.7816164E-02  0.1184000E+00
        -11   -1    0    0    0    0  0.00000000000E+00  0.00000000000E+00  0.45593999997E+02  0.45594000000E+02  0.51100000000E-03 0. -1.
         11   -1    0    0    0    0 -0.00000000000E+00 -0.00000000000E+00 -0.45593999997E+02  0.45594000000E+02  0.51100000000E-03 0.  1.
         23    2    1    2    0    0 -0.17763568394E-14  0.00000000000E+00 -0.35527136788E-14  0.91188000000E+02  0.91188000000E+02 0.  0.
    9900012    2    3    3    0    0  0.10018892020E+02  0.23465606594E+02  0.26547431855E+02  0.54367095228E+02  0.40000025191E+02 0.  0.
        -12    1    3    3    0    0 -0.10018892020E+02 -0.23465606594E+02 -0.26547431855E+02  0.36820904772E+02  0.00000000000E+00 0.  1.
         11    1    4    4    0    0  0.46396427255E+01  0.47699385010E+01 -0.10208351656E+01  0.67320652567E+01  0.51100000000E-03 0. -1.
        -11    1    4    4    0    0  0.86128856661E+01 -0.67808423275E+01  0.15385600254E+01  0.11069272306E+02  0.51100000000E-03 0.  1.
         12    1    4    4    0    0 -0.32336363713E+01  0.25476510421E+02  0.26029706995E+02  0.36565757665E+02  0.00000000000E+00 0. -1.
</event>
<event>
 8    1  0.2401680E-006  0.9118800E+02  0.7816164E-02  0.1184000E+00
        -11   -1    0    0    0    0  0.00000000000E+00  0.00000000000E+00  0.45593999997E+02  0.45594000000E+02  0.51100000000E-03 0. -1.
         11   -1    0    0    0    0 -0.00000000000E+00 -0.00000000000E+00 -0.45593999997E+02  0.45594000000E+02  0.51100000000E-03 0.  1.
         23    2    1    2    0    0  0.00000000000E+00  0.00000000000E+00  0.00000000000E+00  0.91188000000E+02  0.91188000000E+02 0.  0.
    9900012    2    3    3    0    0 -0.14421764726E+02  0.26565429118E+02 -0.21025463479E+02  0.54367089684E+02  0.40000012552E+02 0.  0.
         12    1    3    3    0    0  0.14421764726E+02 -0.26565429118E+02  0.21025463479E+02  0.36820910316E+02  0.00000000000E+00 0. -1.
         11    1    4    4    0    0 -0.22597214097E+01  0.63490320337E+01  0.98597282304E+01  0.11942813306E+02  0.51100000000E-03 0. -1.
        -11    1    4    4    0    0  0.40707732018E+01  0.18661757028E+01 -0.61693857052E+01  0.76233277809E+01  0.51100000000E-03 0.  1.
         12    1    4    4    0    0 -0.16232816518E+02  0.18350221381E+02 -0.24715806004E+02  0.34800948597E+02  0.00000000000E+00 0. -1.
</event>
<event>
 8    1  0.2401680E-006  0.9118800E+02  0.7816164E-02  0.1184000E+00
        -11   -1    0    0    0    0  0.00000000000E+00  0.00000000000E+00  0.45593999997E+02  0.45594000000E+02  0.51100000000E-03 0. -1.
         11   -1    0    0    0    0 -0.00000000000E+00 -0.00000000000E+00 -0.45593999997E+02  0.45594000000E+02  0.51100000000E-03 0.  1.
         23    2    1    2    0    0 -0.35527136788E-14  0.00000000000E+00  0.00000000000E+00  0.91188000000E+02  0.91188000000E+02 0.  0.
    9900012    2    3    3    0    0 -0.28861125203E+02  0.14424904665E+02 -0.17740992268E+02  0.54367011023E+02  0.39999833230E+02 0.  0.
         12    1    3    3    0    0  0.28861125203E+02 -0.14424904665E+02  0.17740992268E+02  0.36820988977E+02  0.00000000000E+00 0. -1.
         11    1    4    4    0    0 -0.19203406078E+01 -0.90130904820E+01  0.26204439942E+01  0.95807220539E+01  0.51100000000E-03 0.  1.
        -11    1    4    4    0    0 -0.12170128221E+02  0.16303437119E+01 -0.11957038924E+02  0.17138868739E+02  0.51100000000E-03 0. -1.
        -12    1    4    4    0    0 -0.14770656374E+02  0.21807651435E+02 -0.84043973381E+01  0.27647420231E+02  0.00000000000E+00 0.  1.
</event>
<event>
 8    1  0.2401680E-006  0.9118800E+02  0.7816164E-02  0.1184000E+00
        -11   -1    0    0    0    0  0.00000000000E+00  0.00000000000E+00  0.45593999997E+02  0.45594000000E+02  0.51100000000E-03 0. -1.
         11   -1    0    0    0    0 -0.00000000000E+00 -0.00000000000E+00 -0.45593999997E+02  0.45594000000E+02  0.51100000000E-03 0.  1.
         23    2    1    2    0    0  0.00000000000E+00  0.35527136788E-14  0.00000000000E+00  0.91188000000E+02  0.91188000000E+02 0.  0.
    9900012    2    3    3    0    0 -0.13072935090E+02  0.30314430868E+02 -0.16307334581E+02  0.54366871393E+02  0.39999514912E+02 0.  0.
         12    1    3    3    0    0  0.13072935090E+02 -0.30314430868E+02  0.16307334581E+02  0.36821128607E+02  0.00000000000E+00 0. -1.
         11    1    4    4    0    0 -0.78081378643E+01 -0.57530027184E+01 -0.29890143427E+01  0.10148806047E+02  0.51100000000E-03 0. -1.
        -11    1    4    4    0    0 -0.67569017962E+01  0.23837339021E+02 -0.18429551198E+02  0.30879164676E+02  0.51100000000E-03 0.  1.
        -12    1    4    4    0    0  0.14921045701E+01  0.12230094566E+02  0.51112309602E+01  0.13338900670E+02  0.00000000000E+00 0.  1.
</event>
<event>
 8    1  0.2401680E-006  0.9118800E+02  0.7816164E-02  0.1184000E+00
        -11   -1    0    0    0    0  0.00000000000E+00  0.00000000000E+00  0.45593999997E+02  0.45594000000E+02  0.51100000000E-03 0.  1.
         11   -1    0    0    0    0 -0.00000000000E+00 -0.00000000000E+00 -0.45593999997E+02  0.45594000000E+02  0.51100000000E-03 0. -1.
         23    2    1    2    0    0  0.00000000000E+00 -0.35527136788E-14  0.00000000000E+00  0.91188000000E+02  0.91188000000E+02 0.  0.
    9900012    2    3    3    0    0  0.85616821989E+01  0.25589655314E+02 -0.25052926333E+02  0.54367055158E+02  0.39999933844E+02 0.  0.
        -12    1    3    3    0    0 -0.85616821989E+01 -0.25589655314E+02  0.25052926333E+02  0.36820944842E+02  0.00000000000E+00 0.  1.
         11    1    4    4    0    0  0.86175720278E+01  0.63341076280E+01 -0.95595738103E+01  0.14344647740E+02  0.51100000000E-03 0. -1.
        -11    1    4    4    0    0  0.98034549453E-01  0.22686388901E+02  0.14515460450E+01  0.22732990087E+02  0.51100000000E-03 0.  1.
        -12    1    4    4    0    0 -0.15392437834E+00 -0.34308412143E+01 -0.16944898568E+02  0.17289417331E+02  0.00000000000E+00 0.  1.
</event>
<event>
 8    1  0.2401680E-006  0.9118800E+02  0.7816164E-02  0.1184000E+00
        -11   -1    0    0    0    0  0.00000000000E+00  0.00000000000E+00  0.45593999997E+02  0.45594000000E+02  0.51100000000E-03 0. -1.
         11   -1    0    0    0    0 -0.00000000000E+00 -0.00000000000E+00 -0.45593999997E+02  0.45594000000E+02  0.51100000000E-03 0.  1.
         23    2    1    2    0    0  0.00000000000E+00  0.00000000000E+00  0.00000000000E+00  0.91188000000E+02  0.91188000000E+02 0.  0.
    9900012    2    3    3    0    0 -0.24448848799E+01  0.34496286525E+02  0.12641894296E+02  0.54366963384E+02  0.39999724625E+02 0.  0.
        -12    1    3    3    0    0  0.24448848799E+01 -0.34496286525E+02 -0.12641894296E+02  0.36821036616E+02  0.00000000000E+00 0.  1.
         11    1    4    4    0    0 -0.92107647590E+01  0.15573384427E+02  0.48048574262E+01  0.18720447246E+02  0.51100000000E-03 0. -1.
        -11    1    4    4    0    0 -0.10328468031E+02  0.55629416492E+01 -0.18678920314E+01  0.11879082143E+02  0.51100000000E-03 0.  1.
         12    1    4    4    0    0  0.17094347910E+02  0.13359960449E+02  0.97049289016E+01  0.23767433994E+02  0.00000000000E+00 0. -1.
</event>
<event>
 8    1  0.2401680E-006  0.9118800E+02  0.7816164E-02  0.1184000E+00
        -11   -1    0    0    0    0  0.00000000000E+00  0.00000000000E+00  0.45593999997E+02  0.45594000000E+02  0.51100000000E-03 0.  1.
         11   -1    0    0    0    0 -0.00000000000E+00 -0.00000000000E+00 -0.45593999997E+02  0.45594000000E+02  0.51100000000E-03 0. -1.
         23    2    1    2    0    0  0.35527136788E-14  0.88817841970E-15  0.35527136788E-14  0.91188000000E+02  0.91188000000E+02 0.  0.
    9900012    2    3    3    0    0 -0.31005564884E+02 -0.77299680789E+01 -0.18294311307E+02  0.54367091722E+02  0.40000017198E+02 0.  0.
        -12    1    3    3    0    0  0.31005564884E+02  0.77299680789E+01  0.18294311307E+02  0.36820908278E+02  0.00000000000E+00 0.  1.
         11    1    4    4    0    0  0.30384272702E+01  0.87217030711E+01 -0.80718304270E+01  0.12265993292E+02  0.51100000000E-03 0. -1.
        -11    1    4    4    0    0 -0.28770930831E+01 -0.56961449837E+01  0.23703608356E+01  0.68075210640E+01  0.51100000000E-03 0.  1.
         12    1    4    4    0    0 -0.31166899071E+02 -0.10755526166E+02 -0.12592841716E+02  0.35293577366E+02  0.00000000000E+00 0. -1.
</event>
<event>
 8    1  0.2401680E-006  0.9118800E+02  0.7816164E-02  0.1184000E+00
        -11   -1    0    0    0    0  0.00000000000E+00  0.00000000000E+00  0.45593999997E+02  0.45594000000E+02  0.51100000000E-03 0.  1.
         11   -1    0    0    0    0 -0.00000000000E+00 -0.00000000000E+00 -0.45593999997E+02  0.45594000000E+02  0.51100000000E-03 0. -1.
         23    2    1    2    0    0  0.00000000000E+00  0.00000000000E+00  0.00000000000E+00  0.91188000000E+02  0.91188000000E+02 0.  0.
    9900012    2    3    3    0    0  0.81418152236E+01 -0.39753965202E+01 -0.35688777809E+02  0.54367057670E+02  0.39999939569E+02 0.  0.
        -12    1    3    3    0    0 -0.81418152236E+01  0.39753965202E+01  0.35688777809E+02  0.36820942330E+02  0.00000000000E+00 0.  1.
         11    1    4    4    0    0  0.10946717793E+01  0.11458949436E+01  0.94165145971E+00  0.18433906962E+01  0.51100000000E-03 0.  1.
        -11    1    4    4    0    0 -0.31655819694E+00 -0.10628847968E+02  0.36225844934E+01  0.11233687591E+02  0.51100000000E-03 0. -1.
         12    1    4    4    0    0  0.73637016413E+01  0.55075565040E+01 -0.40253013762E+02  0.41289979383E+02  0.00000000000E+00 0. -1.
</event>
<event>
 8    1  0.2401680E-006  0.9118800E+02  0.7816164E-02  0.1184000E+00
        -11   -1    0    0    0    0  0.00000000000E+00  0.00000000000E+00  0.45593999997E+02  0.45594000000E+02  0.51100000000E-03 0.  1.
         11   -1    0    0    0    0 -0.00000000000E+00 -0.00000000000E+00 -0.45593999997E+02  0.45594000000E+02  0.51100000000E-03 0. -1.
         23    2    1    2    0    0  0.00000000000E+00  0.88817841970E-15  0.00000000000E+00  0.91188000000E+02  0.91188000000E+02 0.  0.
    9900012    2    3    3    0    0 -0.31794390428E+02  0.24285410433E+01  0.18411809733E+02  0.54367138903E+02  0.40000124756E+02 0.  0.
         12    1    3    3    0    0  0.31794390428E+02 -0.24285410433E+01 -0.18411809733E+02  0.36820861097E+02  0.00000000000E+00 0. -1.
         11    1    4    4    0    0 -0.12923956231E+02  0.43543168917E+01  0.13738477877E+02  0.19358060205E+02  0.51100000000E-03 0. -1.
        -11    1    4    4    0    0 -0.16540309242E+02  0.12000534005E+02  0.12115995429E+01  0.20471019025E+02  0.51100000000E-03 0.  1.
        -12    1    4    4    0    0 -0.23301249554E+01 -0.13926309853E+02  0.34617323134E+01  0.14538059673E+02  0.00000000000E+00 0.  1.
</event>
<event>
 8    1  0.2401680E-006  0.9118800E+02  0.7816164E-02  0.1184000E+00
        -11   -1    0    0    0    0  0.00000000000E+00  0.00000000000E+00  0.45593999997E+02  0.45594000000E+02  0.51100000000E-03 0. -1.
         11   -1    0    0    0    0 -0.00000000000E+00 -0.00000000000E+00 -0.45593999997E+02  0.45594000000E+02  0.51100000000E-03 0.  1.
         23    2    1    2    0    0  0.00000000000E+00  0.17763568394E-14  0.35527136788E-14  0.91188000000E+02  0.91188000000E+02 0.  0.
    9900012    2    3    3    0    0 -0.15304160407E+02  0.14011593347E+02 -0.30417677611E+02  0.54367120256E+02  0.40000082248E+02 0.  0.
         12    1    3    3    0    0  0.15304160407E+02 -0.14011593347E+02  0.30417677611E+02  0.36820879744E+02  0.00000000000E+00 0. -1.
         11    1    4    4    0    0 -0.43757005624E+01 -0.51259002306E+01 -0.39688192569E-01  0.67396723956E+01  0.51100000000E-03 0. -1.
        -11    1    4    4    0    0 -0.90719598511E+01  0.46078685962E+01 -0.31337782802E+02  0.32948285839E+02  0.51100000000E-03 0.  1.
         12    1    4    4    0    0 -0.18564999934E+01  0.14529624981E+02  0.95979338376E+00  0.14679162022E+02  0.00000000000E+00 0. -1.
</event>
<event>
 8    1  0.2401680E-006  0.9118800E+02  0.7816164E-02  0.1184000E+00
        -11   -1    0    0    0    0  0.00000000000E+00  0.00000000000E+00  0.45593999997E+02  0.45594000000E+02  0.51100000000E-03 0. -1.
         11   -1    0    0    0    0 -0.00000000000E+00 -0.00000000000E+00 -0.45593999997E+02  0.45594000000E+02  0.51100000000E-03 0.  1.
         23    2    1    2    0    0  0.17763568394E-14  0.35527136788E-14  0.00000000000E+00  0.91188000000E+02  0.91188000000E+02 0.  0.
    9900012    2    3    3    0    0 -0.12220962372E+02  0.28427469837E+02 -0.19957648880E+02  0.54367072371E+02  0.39999973084E+02 0.  0.
         12    1    3    3    0    0  0.12220962372E+02 -0.28427469837E+02  0.19957648880E+02  0.36820927629E+02  0.00000000000E+00 0. -1.
         11    1    4    4    0    0  0.71546593864E+01  0.18367750635E+01 -0.64340031252E+00  0.74146380756E+01  0.51100000000E-03 0. -1.
        -11    1    4    4    0    0 -0.96012537219E+00  0.15165865436E+02  0.33854645914E+01  0.15568772781E+02  0.51100000000E-03 0.  1.
        -12    1    4    4    0    0 -0.18415496386E+02  0.11424829338E+02 -0.22699713159E+02  0.31383661514E+02  0.00000000000E+00 0.  1.
</event>
<event>
 8    1  0.2401680E-006  0.9118800E+02  0.7816164E-02  0.1184000E+00
        -11   -1    0    0    0    0  0.00000000000E+00  0.00000000000E+00  0.45593999997E+02  0.45594000000E+02  0.51100000000E-03 0.  1.
         11   -1    0    0    0    0 -0.00000000000E+00 -0.00000000000E+00 -0.45593999997E+02  0.45594000000E+02  0.51100000000E-03 0. -1.
         23    2    1    2    0    0 -0.17763568394E-14  0.00000000000E+00  0.17763568394E-14  0.91188000000E+02  0.91188000000E+02 0.  0.
    9900012    2    3    3    0    0 -0.15574651728E+02  0.29420192932E+02 -0.15737284486E+02  0.54367086763E+02  0.40000005893E+02 0.  0.
        -12    1    3    3    0    0  0.15574651728E+02 -0.29420192932E+02  0.15737284486E+02  0.36820913237E+02  0.00000000000E+00 0.  1.
         11    1    4    4    0    0  0.21201450099E+01  0.76662168587E+01  0.81747173474E+01  0.11405783610E+02  0.51100000000E-03 0. -1.
        -11    1    4    4    0    0 -0.14772794250E+02  0.68442195662E+01 -0.21532841236E+01  0.16423015076E+02  0.51100000000E-03 0.  1.
         12    1    4    4    0    0 -0.29220024880E+01  0.14909756507E+02 -0.21758717710E+02  0.26538288077E+02  0.00000000000E+00 0. -1.
</event>
<event>
 8    1  0.2401680E-006  0.9118800E+02  0.7816164E-02  0.1184000E+00
        -11   -1    0    0    0    0  0.00000000000E+00  0.00000000000E+00  0.45593999997E+02  0.45594000000E+02  0.51100000000E-03 0.  1.
         11   -1    0    0    0    0 -0.00000000000E+00 -0.00000000000E+00 -0.45593999997E+02  0.45594000000E+02  0.51100000000E-03 0. -1.
         23    2    1    2    0    0  0.00000000000E+00 -0.35527136788E-14  0.00000000000E+00  0.91188000000E+02  0.91188000000E+02 0.  0.
    9900012    2    3    3    0    0  0.21805492028E+02 -0.77525937658E+01 -0.28639087163E+02  0.54367088737E+02  0.40000010394E+02 0.  0.
        -12    1    3    3    0    0 -0.21805492028E+02  0.77525937658E+01  0.28639087163E+02  0.36820911263E+02  0.00000000000E+00 0.  1.
         11    1    4    4    0    0  0.49160481875E+01  0.26065368360E+01 -0.32312752310E+01  0.64344932931E+01  0.51100000000E-03 0. -1.
        -11    1    4    4    0    0 -0.75208120800E+01  0.70466639818E+01 -0.38316127478E+01  0.10995423781E+02  0.51100000000E-03 0.  1.
         12    1    4    4    0    0  0.24410255921E+02 -0.17405794584E+02 -0.21576199184E+02  0.36937171663E+02  0.00000000000E+00 0. -1.
</event>
<event>
 8    1  0.2401680E-006  0.9118800E+02  0.7816164E-02  0.1184000E+00
        -11   -1    0    0    0    0  0.00000000000E+00  0.00000000000E+00  0.45593999997E+02  0.45594000000E+02  0.51100000000E-03 0.  1.
         11   -1    0    0    0    0 -0.00000000000E+00 -0.00000000000E+00 -0.45593999997E+02  0.45594000000E+02  0.51100000000E-03 0. -1.
         23    2    1    2    0    0  0.00000000000E+00  0.00000000000E+00  0.00000000000E+00  0.91188000000E+02  0.91188000000E+02 0.  0.
    9900012    2    3    3    0    0 -0.10930486346E+02 -0.10433341241E+02 -0.33577525267E+02  0.54367077358E+02  0.39999984452E+02 0.  0.
        -12    1    3    3    0    0  0.10930486346E+02  0.10433341241E+02  0.33577525267E+02  0.36820922642E+02  0.00000000000E+00 0.  1.
         11    1    4    4    0    0 -0.20041791573E+02  0.28255317229E+01 -0.63107987501E+01  0.21201019317E+02  0.51100000000E-03 0. -1.
        -11    1    4    4    0    0  0.39737510123E+01 -0.36725358380E+01 -0.18259496743E+02  0.19044354495E+02  0.51100000000E-03 0.  1.
         12    1    4    4    0    0  0.51375542152E+01 -0.95863371256E+01 -0.90072297740E+01  0.14121703545E+02  0.00000000000E+00 0. -1.
</event>
<event>
 8    1  0.2401680E-006  0.9118800E+02  0.7816164E-02  0.1184000E+00
        -11   -1    0    0    0    0  0.00000000000E+00  0.00000000000E+00  0.45593999997E+02  0.45594000000E+02  0.51100000000E-03 0. -1.
         11   -1    0    0    0    0 -0.00000000000E+00 -0.00000000000E+00 -0.45593999997E+02  0.45594000000E+02  0.51100000000E-03 0.  1.
         23    2    1    2    0    0  0.00000000000E+00 -0.66613381478E-15  0.00000000000E+00  0.91188000000E+02  0.91188000000E+02 0.  0.
    9900012    2    3    3    0    0 -0.26219777543E+02 -0.60552157486E+00  0.25844344537E+02  0.54367169817E+02  0.40000195232E+02 0.  0.
        -12    1    3    3    0    0  0.26219777543E+02  0.60552157486E+00 -0.25844344537E+02  0.36820830183E+02  0.00000000000E+00 0.  1.
         11    1    4    4    0    0  0.30895088537E+01  0.12223583765E+01  0.11742893234E+02  0.12203883264E+02  0.51100000000E-03 0. -1.
        -11    1    4    4    0    0  0.24503395729E-01  0.57456068100E+01 -0.38801191893E+01  0.69331034332E+01  0.51100000000E-03 0.  1.
        -12    1    4    4    0    0 -0.29333789793E+02 -0.75734867614E+01  0.17981570492E+02  0.35230183120E+02  0.00000000000E+00 0.  1.
</event>
<event>
 8    1  0.2401680E-006  0.9118800E+02  0.7816164E-02  0.1184000E+00
        -11   -1    0    0    0    0  0.00000000000E+00  0.00000000000E+00  0.45593999997E+02  0.45594000000E+02  0.51100000000E-03 0. -1.
         11   -1    0    0    0    0 -0.00000000000E+00 -0.00000000000E+00 -0.45593999997E+02  0.45594000000E+02  0.51100000000E-03 0.  1.
         23    2    1    2    0    0 -0.71054273576E-14  0.00000000000E+00  0.88817841970E-15  0.91188000000E+02  0.91188000000E+02 0.  0.
    9900012    2    3    3    0    0  0.35750967319E+02  0.73967772698E+01  0.47895683695E+01  0.54367028484E+02  0.39999873035E+02 0.  0.
         12    1    3    3    0    0 -0.35750967319E+02 -0.73967772698E+01 -0.47895683695E+01  0.36820971516E+02  0.00000000000E+00 0. -1.
         11    1    4    4    0    0  0.21895094172E+01 -0.34254783507E+01 -0.92041995304E+01  0.10062064533E+02  0.51100000000E-03 0. -1.
        -11    1    4    4    0    0 -0.11458350472E+01  0.69337780578E+01  0.34142941012E+01  0.78132976765E+01  0.51100000000E-03 0.  1.
        -12    1    4    4    0    0  0.34707292949E+02  0.38884775626E+01  0.10579473799E+02  0.36491666274E+02  0.00000000000E+00 0.  1.
</event>
<event>
 8    1  0.2401680E-006  0.9118800E+02  0.7816164E-02  0.1184000E+00
        -11   -1    0    0    0    0  0.00000000000E+00  0.00000000000E+00  0.45593999997E+02  0.45594000000E+02  0.51100000000E-03 0.  1.
         11   -1    0    0    0    0 -0.00000000000E+00 -0.00000000000E+00 -0.45593999997E+02  0.45594000000E+02  0.51100000000E-03 0. -1.
         23    2    1    2    0    0  0.00000000000E+00  0.88817841970E-15  0.35527136788E-14  0.91188000000E+02  0.91188000000E+02 0.  0.
    9900012    2    3    3    0    0 -0.19990187015E+02 -0.41134786593E+01  0.30647222133E+02  0.54367075134E+02  0.39999979382E+02 0.  0.
         12    1    3    3    0    0  0.19990187015E+02  0.41134786593E+01 -0.30647222133E+02  0.36820924866E+02  0.00000000000E+00 0. -1.
         11    1    4    4    0    0  0.17431196522E+01  0.61912614430E+01 -0.30456974661E+01  0.71166324686E+01  0.51100000000E-03 0. -1.
        -11    1    4    4    0    0 -0.13464129856E+02 -0.16100225568E+02  0.29753968387E+02  0.36411518661E+02  0.51100000000E-03 0.  1.
         12    1    4    4    0    0 -0.82691768116E+01  0.57954854658E+01  0.39389512114E+01  0.10838924004E+02  0.00000000000E+00 0. -1.
</event>
<event>
 8    1  0.2401680E-006  0.9118800E+02  0.7816164E-02  0.1184000E+00
        -11   -1    0    0    0    0  0.00000000000E+00  0.00000000000E+00  0.45593999997E+02  0.45594000000E+02  0.51100000000E-03 0.  1.
         11   -1    0    0    0    0 -0.00000000000E+00 -0.00000000000E+00 -0.45593999997E+02  0.45594000000E+02  0.51100000000E-03 0. -1.
         23    2    1    2    0    0 -0.88817841970E-15  0.00000000000E+00  0.00000000000E+00  0.91188000000E+02  0.91188000000E+02 0.  0.
    9900012    2    3    3    0    0 -0.71845853777E+01  0.29610311924E+02 -0.20673437358E+02  0.54367084049E+02  0.39999999706E+02 0.  0.
        -12    1    3    3    0    0  0.71845853777E+01 -0.29610311924E+02  0.20673437358E+02  0.36820915951E+02  0.00000000000E+00 0.  1.
         11    1    4    4    0    0 -0.67518727110E+00  0.20671441732E+02 -0.29813004028E+00  0.20684614159E+02  0.51100000000E-03 0. -1.
        -11    1    4    4    0    0 -0.83012413459E+01  0.16676990734E+02 -0.16309373851E+02  0.24759408383E+02  0.51100000000E-03 0.  1.
        -12    1    4    4    0    0  0.17918432393E+01 -0.77381205411E+01 -0.40659334667E+01  0.89230615071E+01  0.00000000000E+00 0.  1.
</event>
<event>
 8    1  0.2401680E-006  0.9118800E+02  0.7816164E-02  0.1184000E+00
        -11   -1    0    0    0    0  0.00000000000E+00  0.00000000000E+00  0.45593999997E+02  0.45594000000E+02  0.51100000000E-03 0.  1.
         11   -1    0    0    0    0 -0.00000000000E+00 -0.00000000000E+00 -0.45593999997E+02  0.45594000000E+02  0.51100000000E-03 0. -1.
         23    2    1    2    0    0  0.13322676296E-14 -0.88817841970E-15 -0.71054273576E-14  0.91188000000E+02  0.91188000000E+02 0.  0.
    9900012    2    3    3    0    0 -0.26466643921E+01  0.73128403198E+01  0.35990253761E+02  0.54367070738E+02  0.39999969361E+02 0.  0.
         12    1    3    3    0    0  0.26466643921E+01 -0.73128403198E+01 -0.35990253761E+02  0.36820929262E+02  0.00000000000E+00 0. -1.
         11    1    4    4    0    0  0.56966111767E+01  0.51336228561E+01  0.52404866006E+01  0.92880656005E+01  0.51100000000E-03 0.  1.
        -11    1    4    4    0    0 -0.82470969419E+01 -0.13600745202E+02  0.92181737867E+01  0.18383949691E+02  0.51100000000E-03 0. -1.
         12    1    4    4    0    0 -0.96178626851E-01  0.15779962666E+02  0.21531593374E+02  0.26695055446E+02  0.00000000000E+00 0. -1.
</event>
<event>
 8    1  0.2401680E-006  0.9118800E+02  0.7816164E-02  0.1184000E+00
        -11   -1    0    0    0    0  0.00000000000E+00  0.00000000000E+00  0.45593999997E+02  0.45594000000E+02  0.51100000000E-03 0.  1.
         11   -1    0    0    0    0 -0.00000000000E+00 -0.00000000000E+00 -0.45593999997E+02  0.45594000000E+02  0.51100000000E-03 0. -1.
         23    2    1    2    0    0 -0.35527136788E-14  0.88817841970E-15  0.00000000000E+00  0.91188000000E+02  0.91188000000E+02 0.  0.
    9900012    2    3    3    0    0  0.29636873586E+02 -0.59481103775E+01  0.21025111101E+02  0.54367087602E+02  0.40000007806E+02 0.  0.
         12    1    3    3    0    0 -0.29636873586E+02  0.59481103775E+01 -0.21025111101E+02  0.36820912398E+02  0.00000000000E+00 0. -1.
         11    1    4    4    0    0  0.12287297751E+01 -0.12461029377E+02  0.76505644062E+01  0.14673723658E+02  0.51100000000E-03 0. -1.
        -11    1    4    4    0    0  0.19966300052E+02 -0.64568933030E+01  0.33372780815E+01  0.21248106602E+02  0.51100000000E-03 0.  1.
         12    1    4    4    0    0  0.84418437586E+01  0.12969812302E+02  0.10037268613E+02  0.18445257342E+02  0.00000000000E+00 0. -1.
</event>
<event>
 8    1  0.2401680E-006  0.9118800E+02  0.7816164E-02  0.1184000E+00
        -11   -1    0    0    0    0  0.00000000000E+00  0.00000000000E+00  0.45593999997E+02  0.45594000000E+02  0.51100000000E-03 0.  1.
         11   -1    0    0    0    0 -0.00000000000E+00 -0.00000000000E+00 -0.45593999997E+02  0.45594000000E+02  0.51100000000E-03 0. -1.
         23    2    1    2    0    0 -0.13322676296E-14  0.35527136788E-14  0.00000000000E+00  0.91188000000E+02  0.91188000000E+02 0.  0.
    9900012    2    3    3    0    0 -0.39104397525E+01  0.26473293548E+02  0.25291353834E+02  0.54367090328E+02  0.40000014020E+02 0.  0.
         12    1    3    3    0    0  0.39104397525E+01 -0.26473293548E+02 -0.25291353834E+02  0.36820909672E+02  0.00000000000E+00 0. -1.
         11    1    4    4    0    0 -0.14745399943E+02  0.16373787498E+01  0.16406630032E+02  0.22119795160E+02  0.51100000000E-03 0. -1.
        -11    1    4    4    0    0  0.81791005382E+01  0.26453094156E+01  0.33273068158E+01  0.92177176364E+01  0.51100000000E-03 0.  1.
        -12    1    4    4    0    0  0.26558596523E+01  0.22190605382E+02  0.55574169867E+01  0.23029577532E+02  0.00000000000E+00 0.  1.
</event>
<event>
 8    1  0.2401680E-006  0.9118800E+02  0.7816164E-02  0.1184000E+00
        -11   -1    0    0    0    0  0.00000000000E+00  0.00000000000E+00  0.45593999997E+02  0.45594000000E+02  0.51100000000E-03 0. -1.
         11   -1    0    0    0    0 -0.00000000000E+00 -0.00000000000E+00 -0.45593999997E+02  0.45594000000E+02  0.51100000000E-03 0.  1.
         23    2    1    2    0    0 -0.35527136788E-14 -0.17763568394E-14  0.00000000000E+00  0.91188000000E+02  0.91188000000E+02 0.  0.
    9900012    2    3    3    0    0  0.18711744010E+02 -0.50562152882E+01 -0.31306307294E+02  0.54367088098E+02  0.40000008936E+02 0.  0.
         12    1    3    3    0    0 -0.18711744010E+02  0.50562152882E+01  0.31306307294E+02  0.36820911902E+02  0.00000000000E+00 0. -1.
         11    1    4    4    0    0  0.66752393862E+01 -0.86400051492E+01 -0.88152337460E+01  0.14032706656E+02  0.51100000000E-03 0. -1.
        -11    1    4    4    0    0  0.85216729008E+00 -0.13147063429E+02 -0.10978080465E+02  0.17149044197E+02  0.51100000000E-03 0.  1.
         12    1    4    4    0    0  0.11184337333E+02  0.16730853290E+02 -0.11512993083E+02  0.23185337245E+02  0.00000000000E+00 0. -1.
</event>
<event>
 8    1  0.2401680E-006  0.9118800E+02  0.7816164E-02  0.1184000E+00
        -11   -1    0    0    0    0  0.00000000000E+00  0.00000000000E+00  0.45593999997E+02  0.45594000000E+02  0.51100000000E-03 0.  1.
         11   -1    0    0    0    0 -0.00000000000E+00 -0.00000000000E+00 -0.45593999997E+02  0.45594000000E+02  0.51100000000E-03 0. -1.
         23    2    1    2    0    0 -0.35527136788E-14  0.71054273576E-14 -0.44408920985E-15  0.91188000000E+02  0.91188000000E+02 0.  0.
    9900012    2    3    3    0    0 -0.17372500108E+02  0.32385897779E+02 -0.22653727025E+01  0.54367054216E+02  0.39999931697E+02 0.  0.
         12    1    3    3    0    0  0.17372500108E+02 -0.32385897779E+02  0.22653727025E+01  0.36820945784E+02  0.00000000000E+00 0. -1.
         11    1    4    4    0    0 -0.68161291166E+00  0.40658259235E+01 -0.69406179013E+01  0.80726522106E+01  0.51100000000E-03 0. -1.
        -11    1    4    4    0    0 -0.11778147637E+02 -0.43397719082E+01 -0.16709295239E+01  0.12662953357E+02  0.51100000000E-03 0.  1.
        -12    1    4    4    0    0 -0.49127395588E+01  0.32659843763E+02  0.63461747227E+01  0.33631448649E+02  0.00000000000E+00 0.  1.
</event>
<event>
 8    1  0.2401680E-006  0.9118800E+02  0.7816164E-02  0.1184000E+00
        -11   -1    0    0    0    0  0.00000000000E+00  0.00000000000E+00  0.45593999997E+02  0.45594000000E+02  0.51100000000E-03 0.  1.
         11   -1    0    0    0    0 -0.00000000000E+00 -0.00000000000E+00 -0.45593999997E+02  0.45594000000E+02  0.51100000000E-03 0. -1.
         23    2    1    2    0    0  0.00000000000E+00  0.10658141036E-13  0.17763568394E-14  0.91188000000E+02  0.91188000000E+02 0.  0.
    9900012    2    3    3    0    0  0.16067997576E+02 -0.31658966613E+02 -0.97625497370E+01  0.54367107962E+02  0.40000054220E+02 0.  0.
         12    1    3    3    0    0 -0.16067997576E+02  0.31658966613E+02  0.97625497370E+01  0.36820892038E+02  0.00000000000E+00 0. -1.
         11    1    4    4    0    0  0.57267534328E+01 -0.17982648926E+02 -0.17313222564E+02  0.25610916483E+02  0.51100000000E-03 0. -1.
        -11    1    4    4    0    0  0.55776860200E+01  0.55449301203E+01  0.11736262775E+01  0.79519953644E+01  0.51100000000E-03 0.  1.
        -12    1    4    4    0    0  0.47635581236E+01 -0.19221247808E+02  0.63770465495E+01  0.20804196115E+02  0.00000000000E+00 0.  1.
</event>
<event>
 8    1  0.2401680E-006  0.9118800E+02  0.7816164E-02  0.1184000E+00
        -11   -1    0    0    0    0  0.00000000000E+00  0.00000000000E+00  0.45593999997E+02  0.45594000000E+02  0.51100000000E-03 0. -1.
         11   -1    0    0    0    0 -0.00000000000E+00 -0.00000000000E+00 -0.45593999997E+02  0.45594000000E+02  0.51100000000E-03 0.  1.
         23    2    1    2    0    0  0.00000000000E+00 -0.55511151231E-15  0.00000000000E+00  0.91188000000E+02  0.91188000000E+02 0.  0.
    9900012    2    3    3    0    0  0.14307161438E+02  0.43055241792E+00  0.33924994787E+02  0.54367007141E+02  0.39999824380E+02 0.  0.
        -12    1    3    3    0    0 -0.14307161438E+02 -0.43055241792E+00 -0.33924994787E+02  0.36820992859E+02  0.00000000000E+00 0.  1.
         11    1    4    4    0    0  0.65788198403E+01 -0.18411846856E+00 -0.66717732801E+01  0.93716236087E+01  0.51100000000E-03 0. -1.
        -11    1    4    4    0    0 -0.14584428563E+01 -0.35963903713E+01  0.83531044971E+00  0.39697384141E+01  0.51100000000E-03 0.  1.
         12    1    4    4    0    0  0.91867844544E+01  0.42110612578E+01  0.39761457617E+02  0.41025645118E+02  0.00000000000E+00 0. -1.
</event>
<event>
 8    1  0.2401680E-006  0.9118800E+02  0.7816164E-02  0.1184000E+00
        -11   -1    0    0    0    0  0.00000000000E+00  0.00000000000E+00  0.45593999997E+02  0.45594000000E+02  0.51100000000E-03 0.  1.
         11   -1    0    0    0    0 -0.00000000000E+00 -0.00000000000E+00 -0.45593999997E+02  0.45594000000E+02  0.51100000000E-03 0. -1.
         23    2    1    2    0    0  0.35527136788E-14 -0.88817841970E-15  0.35527136788E-14  0.91188000000E+02  0.91188000000E+02 0.  0.
    9900012    2    3    3    0    0 -0.27401612698E+02 -0.48759133310E+01  0.24107210649E+02  0.54367075045E+02  0.39999979180E+02 0.  0.
         12    1    3    3    0    0  0.27401612698E+02  0.48759133310E+01 -0.24107210649E+02  0.36820924955E+02  0.00000000000E+00 0. -1.
         11    1    4    4    0    0 -0.79446614137E+01  0.31886060191E+00 -0.10176105705E+02  0.12914040601E+02  0.51100000000E-03 0. -1.
        -11    1    4    4    0    0 -0.64308622020E+01 -0.74688406835E+01  0.11854812777E+02  0.15416749205E+02  0.51100000000E-03 0.  1.
         12    1    4    4    0    0 -0.13026089083E+02  0.22740667506E+01  0.22428503576E+02  0.26036285239E+02  0.00000000000E+00 0. -1.
</event>
<event>
 8    1  0.2401680E-006  0.9118800E+02  0.7816164E-02  0.1184000E+00
        -11   -1    0    0    0    0  0.00000000000E+00  0.00000000000E+00  0.45593999997E+02  0.45594000000E+02  0.51100000000E-03 0. -1.
         11   -1    0    0    0    0 -0.00000000000E+00 -0.00000000000E+00 -0.45593999997E+02  0.45594000000E+02  0.51100000000E-03 0.  1.
         23    2    1    2    0    0  0.17763568394E-14  0.71054273576E-14  0.00000000000E+00  0.91188000000E+02  0.91188000000E+02 0.  0.
    9900012    2    3    3    0    0  0.95200903959E+01  0.34561434724E+02 -0.84056244940E+01  0.54367089984E+02  0.40000013236E+02 0.  0.
         12    1    3    3    0    0 -0.95200903959E+01 -0.34561434724E+02  0.84056244940E+01  0.36820910016E+02  0.00000000000E+00 0. -1.
         11    1    4    4    0    0  0.77239632325E+01  0.49743922998E+01 -0.15899797611E+02  0.18363217340E+02  0.51100000000E-03 0.  1.
        -11    1    4    4    0    0 -0.15583421870E+01 -0.24716081976E+01  0.52486924484E-01  0.29223334157E+01  0.51100000000E-03 0. -1.
         12    1    4    4    0    0  0.33544693504E+01  0.32058650621E+02  0.74416861921E+01  0.33081539228E+02  0.00000000000E+00 0. -1.
</event>
<event>
 8    1  0.2401680E-006  0.9118800E+02  0.7816164E-02  0.1184000E+00
        -11   -1    0    0    0    0  0.00000000000E+00  0.00000000000E+00  0.45593999997E+02  0.45594000000E+02  0.51100000000E-03 0.  1.
         11   -1    0    0    0    0 -0.00000000000E+00 -0.00000000000E+00 -0.45593999997E+02  0.45594000000E+02  0.51100000000E-03 0. -1.
         23    2    1    2    0    0  0.00000000000E+00  0.22204460493E-15  0.35527136788E-14  0.91188000000E+02  0.91188000000E+02 0.  0.
    9900012    2    3    3    0    0 -0.25988648807E+02 -0.80196501345E+00 -0.26071588864E+02  0.54367071704E+02  0.39999971563E+02 0.  0.
        -12    1    3    3    0    0  0.25988648807E+02  0.80196501345E+00  0.26071588864E+02  0.36820928296E+02  0.00000000000E+00 0.  1.
         11    1    4    4    0    0 -0.11760432734E+02 -0.51010940606E+01 -0.11318078322E+02  0.17100521509E+02  0.51100000000E-03 0. -1.
        -11    1    4    4    0    0 -0.75437380877E+01  0.20925747973E+01 -0.24229074887E+02  0.25462421796E+02  0.51100000000E-03 0.  1.
        -12    1    4    4    0    0 -0.66844779858E+01  0.22065542498E+01  0.94755643447E+01  0.11804128399E+02  0.00000000000E+00 0.  1.
</event>
<event>
 8    1  0.2401680E-006  0.9118800E+02  0.7816164E-02  0.1184000E+00
        -11   -1    0    0    0    0  0.00000000000E+00  0.00000000000E+00  0.45593999997E+02  0.45594000000E+02  0.51100000000E-03 0.  1.
         11   -1    0    0    0    0 -0.00000000000E+00 -0.00000000000E+00 -0.45593999997E+02  0.45594000000E+02  0.51100000000E-03 0. -1.
         23    2    1    2    0    0  0.00000000000E+00  0.71054273576E-14  0.00000000000E+00  0.91188000000E+02  0.91188000000E+02 0.  0.
    9900012    2    3    3    0    0  0.83981523880E+01 -0.35354808331E+02 -0.59404769743E+01  0.54367072495E+02  0.39999973366E+02 0.  0.
        -12    1    3    3    0    0 -0.83981523880E+01  0.35354808331E+02  0.59404769743E+01  0.36820927505E+02  0.00000000000E+00 0.  1.
         11    1    4    4    0    0  0.11090606382E+02  0.85154955310E-01  0.11751955600E+01  0.11153021391E+02  0.51100000000E-03 0. -1.
        -11    1    4    4    0    0 -0.62254355830E+01 -0.37351889454E+02 -0.38982012493E+01  0.38067251900E+02  0.51100000000E-03 0.  1.
        -12    1    4    4    0    0  0.35329815892E+01  0.19119261669E+01 -0.32174712850E+01  0.51467992040E+01  0.00000000000E+00 0.  1.
</event>
<event>
 8    1  0.2401680E-006  0.9118800E+02  0.7816164E-02  0.1184000E+00
        -11   -1    0    0    0    0  0.00000000000E+00  0.00000000000E+00  0.45593999997E+02  0.45594000000E+02  0.51100000000E-03 0.  1.
         11   -1    0    0    0    0 -0.00000000000E+00 -0.00000000000E+00 -0.45593999997E+02  0.45594000000E+02  0.51100000000E-03 0. -1.
         23    2    1    2    0    0 -0.71054273576E-14  0.00000000000E+00  0.00000000000E+00  0.91188000000E+02  0.91188000000E+02 0.  0.
    9900012    2    3    3    0    0 -0.27663102356E+02 -0.17959304547E+02  0.16370617697E+02  0.54367068785E+02  0.39999964909E+02 0.  0.
         12    1    3    3    0    0  0.27663102356E+02  0.17959304547E+02 -0.16370617697E+02  0.36820931215E+02  0.00000000000E+00 0. -1.
         11    1    4    4    0    0 -0.53637327581E+00 -0.34471866549E+00 -0.33601856345E+01  0.34201425422E+01  0.51100000000E-03 0. -1.
        -11    1    4    4    0    0  0.30190279398E+01  0.10310879131E+01  0.14823274082E+02  0.15162688639E+02  0.51100000000E-03 0.  1.
        -12    1    4    4    0    0 -0.30145757020E+02 -0.18645673794E+02  0.49075292500E+01  0.35784237604E+02  0.00000000000E+00 0.  1.
</event>
<event>
 8    1  0.2401680E-006  0.9118800E+02  0.7816164E-02  0.1184000E+00
        -11   -1    0    0    0    0  0.00000000000E+00  0.00000000000E+00  0.45593999997E+02  0.45594000000E+02  0.51100000000E-03 0.  1.
         11   -1    0    0    0    0 -0.00000000000E+00 -0.00000000000E+00 -0.45593999997E+02  0.45594000000E+02  0.51100000000E-03 0. -1.
         23    2    1    2    0    0 -0.17763568394E-14  0.00000000000E+00  0.00000000000E+00  0.91188000000E+02  0.91188000000E+02 0.  0.
    9900012    2    3    3    0    0  0.10091875305E+02 -0.29838924791E+02  0.19067611471E+02  0.54367065913E+02  0.39999958361E+02 0.  0.
         12    1    3    3    0    0 -0.10091875305E+02  0.29838924791E+02 -0.19067611471E+02  0.36820934087E+02  0.00000000000E+00 0. -1.
         11    1    4    4    0    0  0.29263599069E+01 -0.55007314624E+01 -0.60756649003E+01  0.87026049645E+01  0.51100000000E-03 0. -1.
        -11    1    4    4    0    0 -0.10416859538E+01 -0.21165088724E+01  0.21580675099E+02  0.21709220563E+02  0.51100000000E-03 0.  1.
         12    1    4    4    0    0  0.82072013523E+01 -0.22221684456E+02  0.35626012722E+01  0.23955240386E+02  0.00000000000E+00 0. -1.
</event>
<event>
 8    1  0.2401680E-006  0.9118800E+02  0.7816164E-02  0.1184000E+00
        -11   -1    0    0    0    0  0.00000000000E+00  0.00000000000E+00  0.45593999997E+02  0.45594000000E+02  0.51100000000E-03 0.  1.
         11   -1    0    0    0    0 -0.00000000000E+00 -0.00000000000E+00 -0.45593999997E+02  0.45594000000E+02  0.51100000000E-03 0. -1.
         23    2    1    2    0    0  0.17763568394E-14  0.88817841970E-15  0.00000000000E+00  0.91188000000E+02  0.91188000000E+02 0.  0.
    9900012    2    3    3    0    0 -0.13753538764E+02  0.71003372435E+01 -0.33409665647E+02  0.54367076924E+02  0.39999983464E+02 0.  0.
        -12    1    3    3    0    0  0.13753538764E+02 -0.71003372435E+01  0.33409665647E+02  0.36820923076E+02  0.00000000000E+00 0.  1.
         11    1    4    4    0    0 -0.64017632504E+01  0.26540265379E+01 -0.15288367758E+02  0.16785726631E+02  0.51100000000E-03 0. -1.
        -11    1    4    4    0    0 -0.11572262415E+02 -0.11406771608E+02 -0.11417233205E+02  0.19859126623E+02  0.51100000000E-03 0.  1.
         12    1    4    4    0    0  0.42204869013E+01  0.15853082313E+02 -0.67040646841E+01  0.17722223670E+02  0.00000000000E+00 0. -1.
</event>
<event>
 8    1  0.2401680E-006  0.9118800E+02  0.7816164E-02  0.1184000E+00
        -11   -1    0    0    0    0  0.00000000000E+00  0.00000000000E+00  0.45593999997E+02  0.45594000000E+02  0.51100000000E-03 0.  1.
         11   -1    0    0    0    0 -0.00000000000E+00 -0.00000000000E+00 -0.45593999997E+02  0.45594000000E+02  0.51100000000E-03 0. -1.
         23    2    1    2    0    0  0.00000000000E+00  0.88817841970E-15  0.35527136788E-14  0.91188000000E+02  0.91188000000E+02 0.  0.
    9900012    2    3    3    0    0  0.27622440604E+02  0.66755754466E+01 -0.23414087523E+02  0.54367054507E+02  0.39999932360E+02 0.  0.
        -12    1    3    3    0    0 -0.27622440604E+02 -0.66755754466E+01  0.23414087523E+02  0.36820945493E+02  0.00000000000E+00 0.  1.
         11    1    4    4    0    0  0.66548979189E+01  0.93259336814E+01 -0.23598743716E+02  0.26232830777E+02  0.51100000000E-03 0. -1.
        -11    1    4    4    0    0  0.66752159357E+00 -0.69562384902E+01 -0.19976953528E+01  0.72681239666E+01  0.51100000000E-03 0.  1.
        -12    1    4    4    0    0  0.20300021091E+02  0.43058802555E+01  0.21823515461E+01  0.20866099764E+02  0.00000000000E+00 0.  1.
</event>
<event>
 8    1  0.2401680E-006  0.9118800E+02  0.7816164E-02  0.1184000E+00
        -11   -1    0    0    0    0  0.00000000000E+00  0.00000000000E+00  0.45593999997E+02  0.45594000000E+02  0.51100000000E-03 0.  1.
         11   -1    0    0    0    0 -0.00000000000E+00 -0.00000000000E+00 -0.45593999997E+02  0.45594000000E+02  0.51100000000E-03 0. -1.
         23    2    1    2    0    0  0.00000000000E+00  0.44408920985E-15  0.00000000000E+00  0.91188000000E+02  0.91188000000E+02 0.  0.
    9900012    2    3    3    0    0  0.32308125721E+02  0.56089002739E+00 -0.17653661588E+02  0.54367063664E+02  0.39999953234E+02 0.  0.
         12    1    3    3    0    0 -0.32308125721E+02 -0.56089002739E+00  0.17653661588E+02  0.36820936336E+02  0.00000000000E+00 0. -1.
         11    1    4    4    0    0 -0.49413154573E+00  0.13011608637E+02 -0.97356507995E+00  0.13057333362E+02  0.51100000000E-03 0. -1.
        -11    1    4    4    0    0  0.22580887872E+02 -0.18170509710E+01 -0.12956707229E+02  0.26097402818E+02  0.51100000000E-03 0.  1.
        -12    1    4    4    0    0  0.10221369394E+02 -0.10633667639E+02 -0.37233892786E+01  0.15212327484E+02  0.00000000000E+00 0.  1.
</event>
<event>
 8    1  0.2401680E-006  0.9118800E+02  0.7816164E-02  0.1184000E+00
        -11   -1    0    0    0    0  0.00000000000E+00  0.00000000000E+00  0.45593999997E+02  0.45594000000E+02  0.51100000000E-03 0. -1.
         11   -1    0    0    0    0 -0.00000000000E+00 -0.00000000000E+00 -0.45593999997E+02  0.45594000000E+02  0.51100000000E-03 0.  1.
         23    2    1    2    0    0  0.00000000000E+00  0.00000000000E+00 -0.17763568394E-14  0.91188000000E+02  0.91188000000E+02 0.  0.
    9900012    2    3    3    0    0  0.20260192915E+02 -0.27903919829E+02 -0.12910380000E+02  0.54367053916E+02  0.39999931011E+02 0.  0.
         12    1    3    3    0    0 -0.20260192915E+02  0.27903919829E+02  0.12910380000E+02  0.36820946084E+02  0.00000000000E+00 0. -1.
         11    1    4    4    0    0  0.62796659349E+01 -0.11745258831E+02 -0.19852319360E+02  0.23906063948E+02  0.51100000000E-03 0. -1.
        -11    1    4    4    0    0  0.11735956749E+02 -0.18790931300E+02 -0.60073306241E+00  0.22162866701E+02  0.51100000000E-03 0.  1.
         12    1    4    4    0    0  0.22445702310E+01  0.26322703012E+01  0.75426724228E+01  0.82981232661E+01  0.00000000000E+00 0. -1.
</event>
<event>
 8    1  0.2401680E-006  0.9118800E+02  0.7816164E-02  0.1184000E+00
        -11   -1    0    0    0    0  0.00000000000E+00  0.00000000000E+00  0.45593999997E+02  0.45594000000E+02  0.51100000000E-03 0. -1.
         11   -1    0    0    0    0 -0.00000000000E+00 -0.00000000000E+00 -0.45593999997E+02  0.45594000000E+02  0.51100000000E-03 0.  1.
         23    2    1    2    0    0  0.00000000000E+00  0.44408920985E-15  0.00000000000E+00  0.91188000000E+02  0.91188000000E+02 0.  0.
    9900012    2    3    3    0    0 -0.35829324638E+02  0.23403686097E+01  0.81585406976E+01  0.54367087252E+02  0.40000007009E+02 0.  0.
         12    1    3    3    0    0  0.35829324638E+02 -0.23403686097E+01 -0.81585406976E+01  0.36820912748E+02  0.00000000000E+00 0. -1.
         11    1    4    4    0    0 -0.33523756120E+02  0.47410075203E+01  0.13475351832E+02  0.36440423762E+02  0.51100000000E-03 0. -1.
        -11    1    4    4    0    0  0.57565754048E+01 -0.59344168192E+01 -0.32579816015E+01  0.88865014349E+01  0.51100000000E-03 0.  1.
        -12    1    4    4    0    0 -0.80621439233E+01  0.35337779085E+01 -0.20588295330E+01  0.90401620557E+01  0.00000000000E+00 0.  1.
</event>
<event>
 8    1  0.2401680E-006  0.9118800E+02  0.7816164E-02  0.1184000E+00
        -11   -1    0    0    0    0  0.00000000000E+00  0.00000000000E+00  0.45593999997E+02  0.45594000000E+02  0.51100000000E-03 0. -1.
         11   -1    0    0    0    0 -0.00000000000E+00 -0.00000000000E+00 -0.45593999997E+02  0.45594000000E+02  0.51100000000E-03 0.  1.
         23    2    1    2    0    0  0.00000000000E+00  0.35527136788E-14  0.00000000000E+00  0.91188000000E+02  0.91188000000E+02 0.  0.
    9900012    2    3    3    0    0 -0.41837644307E+01  0.15431541513E+02 -0.33168415274E+02  0.54367080266E+02  0.39999991082E+02 0.  0.
         12    1    3    3    0    0  0.41837644307E+01 -0.15431541513E+02  0.33168415274E+02  0.36820919734E+02  0.00000000000E+00 0. -1.
         11    1    4    4    0    0  0.36784174979E+01 -0.20673643343E+01  0.10952873102E+01  0.43594042176E+01  0.51100000000E-03 0. -1.
        -11    1    4    4    0    0 -0.17840674194E+02  0.19084254633E+02 -0.22297186180E+02  0.34346221661E+02  0.51100000000E-03 0.  1.
        -12    1    4    4    0    0  0.99784922650E+01 -0.15853487860E+01 -0.11966516404E+02  0.15661454387E+02  0.00000000000E+00 0.  1.
</event>
<event>
 8    1  0.2401680E-006  0.9118800E+02  0.7816164E-02  0.1184000E+00
        -11   -1    0    0    0    0  0.00000000000E+00  0.00000000000E+00  0.45593999997E+02  0.45594000000E+02  0.51100000000E-03 0. -1.
         11   -1    0    0    0    0 -0.00000000000E+00 -0.00000000000E+00 -0.45593999997E+02  0.45594000000E+02  0.51100000000E-03 0.  1.
         23    2    1    2    0    0  0.00000000000E+00 -0.35527136788E-14 -0.13322676296E-14  0.91188000000E+02  0.91188000000E+02 0.  0.
    9900012    2    3    3    0    0 -0.27366816967E+02 -0.24415852686E+02 -0.32716488648E+01  0.54367079050E+02  0.39999988311E+02 0.  0.
         12    1    3    3    0    0  0.27366816967E+02  0.24415852686E+02  0.32716488648E+01  0.36820920950E+02  0.00000000000E+00 0. -1.
         11    1    4    4    0    0 -0.87162015576E+01  0.42168517692E+01 -0.17406322386E+01  0.98378762590E+01  0.51100000000E-03 0. -1.
        -11    1    4    4    0    0 -0.19880278683E+02 -0.14367386202E+02 -0.11491794757E+02  0.27087056204E+02  0.51100000000E-03 0.  1.
        -12    1    4    4    0    0  0.12296632734E+01 -0.14265318253E+02  0.99607781305E+01  0.17442146588E+02  0.00000000000E+00 0.  1.
</event>
<event>
 8    1  0.2401680E-006  0.9118800E+02  0.7816164E-02  0.1184000E+00
        -11   -1    0    0    0    0  0.00000000000E+00  0.00000000000E+00  0.45593999997E+02  0.45594000000E+02  0.51100000000E-03 0. -1.
         11   -1    0    0    0    0 -0.00000000000E+00 -0.00000000000E+00 -0.45593999997E+02  0.45594000000E+02  0.51100000000E-03 0.  1.
         23    2    1    2    0    0  0.35527136788E-14  0.00000000000E+00  0.00000000000E+00  0.91188000000E+02  0.91188000000E+02 0.  0.
    9900012    2    3    3    0    0 -0.30821907634E+02  0.17727045311E+02  0.95678319689E+01  0.54367061198E+02  0.39999947614E+02 0.  0.
        -12    1    3    3    0    0  0.30821907634E+02 -0.17727045311E+02 -0.95678319689E+01  0.36820938802E+02  0.00000000000E+00 0.  1.
         11    1    4    4    0    0 -0.12452343325E+01 -0.46474455988E+01  0.54347759015E+01  0.72585224735E+01  0.51100000000E-03 0. -1.
        -11    1    4    4    0    0  0.47721481582E+01 -0.16026577477E+01  0.61197363852E+00  0.50711361543E+01  0.51100000000E-03 0.  1.
         12    1    4    4    0    0 -0.34348821459E+02  0.23977148658E+02  0.35210824289E+01  0.42037402571E+02  0.00000000000E+00 0. -1.
</event>
<event>
 8    1  0.2401680E-006  0.9118800E+02  0.7816164E-02  0.1184000E+00
        -11   -1    0    0    0    0  0.00000000000E+00  0.00000000000E+00  0.45593999997E+02  0.45594000000E+02  0.51100000000E-03 0. -1.
         11   -1    0    0    0    0 -0.00000000000E+00 -0.00000000000E+00 -0.45593999997E+02  0.45594000000E+02  0.51100000000E-03 0.  1.
         23    2    1    2    0    0  0.00000000000E+00  0.00000000000E+00  0.00000000000E+00  0.91188000000E+02  0.91188000000E+02 0.  0.
    9900012    2    3    3    0    0  0.55138498781E+01 -0.35326627430E+02  0.87980837371E+01  0.54367089860E+02  0.40000012954E+02 0.  0.
        -12    1    3    3    0    0 -0.55138498781E+01  0.35326627430E+02 -0.87980837371E+01  0.36820910140E+02  0.00000000000E+00 0.  1.
         11    1    4    4    0    0  0.28743415927E+01 -0.81104626808E+01  0.19322335106E+02  0.21151692100E+02  0.51100000000E-03 0. -1.
        -11    1    4    4    0    0 -0.88768423840E+00 -0.32119126254E+01 -0.81892578164E+01  0.88412844013E+01  0.51100000000E-03 0.  1.
        -12    1    4    4    0    0  0.35271925238E+01 -0.24004252124E+02 -0.23349935522E+01  0.24374113359E+02  0.00000000000E+00 0.  1.
</event>
<event>
 8    1  0.2401680E-006  0.9118800E+02  0.7816164E-02  0.1184000E+00
        -11   -1    0    0    0    0  0.00000000000E+00  0.00000000000E+00  0.45593999997E+02  0.45594000000E+02  0.51100000000E-03 0. -1.
         11   -1    0    0    0    0 -0.00000000000E+00 -0.00000000000E+00 -0.45593999997E+02  0.45594000000E+02  0.51100000000E-03 0.  1.
         23    2    1    2    0    0 -0.35527136788E-14  0.00000000000E+00 -0.35527136788E-14  0.91188000000E+02  0.91188000000E+02 0.  0.
    9900012    2    3    3    0    0 -0.19492856558E+02 -0.52464742674E+01 -0.30794212828E+02  0.54367075341E+02  0.39999979856E+02 0.  0.
         12    1    3    3    0    0  0.19492856558E+02  0.52464742674E+01  0.30794212828E+02  0.36820924659E+02  0.00000000000E+00 0. -1.
         11    1    4    4    0    0 -0.62936093595E+01 -0.14475394628E+02 -0.12949328166E+02  0.20416455829E+02  0.51100000000E-03 0. -1.
        -11    1    4    4    0    0  0.64855442767E+01  0.58612421232E+01 -0.37787499513E+01  0.95234130041E+01  0.51100000000E-03 0.  1.
         12    1    4    4    0    0 -0.19684791475E+02  0.33676782369E+01 -0.14066134711E+02  0.24427206509E+02  0.00000000000E+00 0. -1.
</event>
<event>
 8    1  0.2401680E-006  0.9118800E+02  0.7816164E-02  0.1184000E+00
        -11   -1    0    0    0    0  0.00000000000E+00  0.00000000000E+00  0.45593999997E+02  0.45594000000E+02  0.51100000000E-03 0.  1.
         11   -1    0    0    0    0 -0.00000000000E+00 -0.00000000000E+00 -0.45593999997E+02  0.45594000000E+02  0.51100000000E-03 0. -1.
         23    2    1    2    0    0  0.71054273576E-14  0.00000000000E+00 -0.44408920985E-15  0.91188000000E+02  0.91188000000E+02 0.  0.
    9900012    2    3    3    0    0 -0.33779514673E+02  0.14556808308E+02 -0.16755855956E+01  0.54367301110E+02  0.40000494538E+02 0.  0.
        -12    1    3    3    0    0  0.33779514673E+02 -0.14556808308E+02  0.16755855956E+01  0.36820698890E+02  0.00000000000E+00 0.  1.
         11    1    4    4    0    0 -0.10901760902E+02  0.70469659050E+01 -0.16776607378E+00  0.12982151784E+02  0.51100000000E-03 0. -1.
        -11    1    4    4    0    0  0.79407744776E+01 -0.96942463862E+00  0.40102432906E+01  0.89486163704E+01  0.51100000000E-03 0.  1.
        -12    1    4    4    0    0 -0.30818528248E+02  0.84792670418E+01 -0.55180628124E+01  0.32436532955E+02  0.00000000000E+00 0.  1.
</event>
<event>
 8    1  0.2401680E-006  0.9118800E+02  0.7816164E-02  0.1184000E+00
        -11   -1    0    0    0    0  0.00000000000E+00  0.00000000000E+00  0.45593999997E+02  0.45594000000E+02  0.51100000000E-03 0.  1.
         11   -1    0    0    0    0 -0.00000000000E+00 -0.00000000000E+00 -0.45593999997E+02  0.45594000000E+02  0.51100000000E-03 0. -1.
         23    2    1    2    0    0  0.00000000000E+00  0.00000000000E+00 -0.35527136788E-14  0.91188000000E+02  0.91188000000E+02 0.  0.
    9900012    2    3    3    0    0  0.16822537605E+02  0.82897063047E+01  0.31686953000E+02  0.54367082134E+02  0.39999995340E+02 0.  0.
         12    1    3    3    0    0 -0.16822537605E+02 -0.82897063047E+01 -0.31686953000E+02  0.36820917866E+02  0.00000000000E+00 0. -1.
         11    1    4    4    0    0 -0.41619336744E+01  0.11527017917E+02  0.69514252009E+01  0.14089575811E+02  0.51100000000E-03 0. -1.
        -11    1    4    4    0    0 -0.28263196102E+01 -0.57443466733E+01  0.10855599797E+02  0.12602763524E+02  0.51100000000E-03 0.  1.
         12    1    4    4    0    0  0.23810790889E+02  0.25070350613E+01  0.13879928002E+02  0.27674742798E+02  0.00000000000E+00 0. -1.
</event>
<event>
 8    1  0.2401680E-006  0.9118800E+02  0.7816164E-02  0.1184000E+00
        -11   -1    0    0    0    0  0.00000000000E+00  0.00000000000E+00  0.45593999997E+02  0.45594000000E+02  0.51100000000E-03 0.  1.
         11   -1    0    0    0    0 -0.00000000000E+00 -0.00000000000E+00 -0.45593999997E+02  0.45594000000E+02  0.51100000000E-03 0. -1.
         23    2    1    2    0    0  0.00000000000E+00  0.35527136788E-14  0.00000000000E+00  0.91188000000E+02  0.91188000000E+02 0.  0.
    9900012    2    3    3    0    0 -0.13256440114E+02 -0.30485923984E+02  0.15832094994E+02  0.54367082065E+02  0.39999995185E+02 0.  0.
        -12    1    3    3    0    0  0.13256440114E+02  0.30485923984E+02 -0.15832094994E+02  0.36820917935E+02  0.00000000000E+00 0.  1.
         11    1    4    4    0    0  0.85715489874E+01 -0.23444267271E+02  0.17932676736E+02  0.30735744909E+02  0.51100000000E-03 0. -1.
        -11    1    4    4    0    0 -0.10913326672E+02 -0.11933403689E+01 -0.24304331511E+01  0.11244188092E+02  0.51100000000E-03 0.  1.
         12    1    4    4    0    0 -0.10914662429E+02 -0.58483163435E+01  0.32985140991E+00  0.12387149064E+02  0.00000000000E+00 0. -1.
</event>
<event>
 8    1  0.2401680E-006  0.9118800E+02  0.7816164E-02  0.1184000E+00
        -11   -1    0    0    0    0  0.00000000000E+00  0.00000000000E+00  0.45593999997E+02  0.45594000000E+02  0.51100000000E-03 0.  1.
         11   -1    0    0    0    0 -0.00000000000E+00 -0.00000000000E+00 -0.45593999997E+02  0.45594000000E+02  0.51100000000E-03 0. -1.
         23    2    1    2    0    0 -0.35527136788E-14 -0.17763568394E-14  0.35527136788E-14  0.91188000000E+02  0.91188000000E+02 0.  0.
    9900012    2    3    3    0    0  0.23479546023E+02  0.34459427475E+01 -0.28153453843E+02  0.54367074344E+02  0.39999977582E+02 0.  0.
        -12    1    3    3    0    0 -0.23479546023E+02 -0.34459427475E+01  0.28153453843E+02  0.36820925656E+02  0.00000000000E+00 0.  1.
         11    1    4    4    0    0  0.35906374631E+01  0.17696844986E+02 -0.10290411978E+02  0.20783733514E+02  0.51100000000E-03 0. -1.
        -11    1    4    4    0    0  0.74950294130E+01  0.74856660029E+00 -0.57350643224E+00  0.75541199187E+01  0.51100000000E-03 0.  1.
        -12    1    4    4    0    0  0.12393879147E+02 -0.14999468839E+02 -0.17289535433E+02  0.26029220911E+02  0.00000000000E+00 0.  1.
</event>
<event>
 8    1  0.2401680E-006  0.9118800E+02  0.7816164E-02  0.1184000E+00
        -11   -1    0    0    0    0  0.00000000000E+00  0.00000000000E+00  0.45593999997E+02  0.45594000000E+02  0.51100000000E-03 0.  1.
         11   -1    0    0    0    0 -0.00000000000E+00 -0.00000000000E+00 -0.45593999997E+02  0.45594000000E+02  0.51100000000E-03 0. -1.
         23    2    1    2    0    0  0.00000000000E+00  0.00000000000E+00  0.26645352591E-14  0.91188000000E+02  0.91188000000E+02 0.  0.
    9900012    2    3    3    0    0 -0.29913019772E+02 -0.20025988589E+02 -0.77428579439E+01  0.54367070898E+02  0.39999969725E+02 0.  0.
        -12    1    3    3    0    0  0.29913019772E+02  0.20025988589E+02  0.77428579439E+01  0.36820929102E+02  0.00000000000E+00 0.  1.
         11    1    4    4    0    0 -0.26899871190E+02 -0.57714981699E+01 -0.15059299655E+02  0.31363924620E+02  0.51100000000E-03 0. -1.
        -11    1    4    4    0    0  0.23658783621E+01 -0.12143780808E+01  0.84433364633E+01  0.88522327941E+01  0.51100000000E-03 0.  1.
        -12    1    4    4    0    0 -0.53790269434E+01 -0.13040112338E+02 -0.11268947520E+01  0.14150913484E+02  0.00000000000E+00 0.  1.
</event>
<event>
 8    1  0.2401680E-006  0.9118800E+02  0.7816164E-02  0.1184000E+00
        -11   -1    0    0    0    0  0.00000000000E+00  0.00000000000E+00  0.45593999997E+02  0.45594000000E+02  0.51100000000E-03 0. -1.
         11   -1    0    0    0    0 -0.00000000000E+00 -0.00000000000E+00 -0.45593999997E+02  0.45594000000E+02  0.51100000000E-03 0.  1.
         23    2    1    2    0    0  0.00000000000E+00 -0.35527136788E-14  0.00000000000E+00  0.91188000000E+02  0.91188000000E+02 0.  0.
    9900012    2    3    3    0    0 -0.30001493605E+02 -0.20888744520E+02  0.43987906275E+01  0.54367100701E+02  0.40000037668E+02 0.  0.
        -12    1    3    3    0    0  0.30001493605E+02  0.20888744520E+02 -0.43987906275E+01  0.36820899299E+02  0.00000000000E+00 0.  1.
         11    1    4    4    0    0  0.38924707403E+01  0.62970824705E+01 -0.19265830120E+01  0.76495946604E+01  0.51100000000E-03 0. -1.
        -11    1    4    4    0    0 -0.17771458998E+02 -0.89649151613E+01 -0.39741486557E+01  0.20297495327E+02  0.51100000000E-03 0.  1.
         12    1    4    4    0    0 -0.16122505348E+02 -0.18220911829E+02  0.10299522295E+02  0.26420010714E+02  0.00000000000E+00 0. -1.
</event>
<event>
 8    1  0.2401680E-006  0.9118800E+02  0.7816164E-02  0.1184000E+00
        -11   -1    0    0    0    0  0.00000000000E+00  0.00000000000E+00  0.45593999997E+02  0.45594000000E+02  0.51100000000E-03 0. -1.
         11   -1    0    0    0    0 -0.00000000000E+00 -0.00000000000E+00 -0.45593999997E+02  0.45594000000E+02  0.51100000000E-03 0.  1.
         23    2    1    2    0    0 -0.35527136788E-14  0.00000000000E+00  0.00000000000E+00  0.91188000000E+02  0.91188000000E+02 0.  0.
    9900012    2    3    3    0    0  0.12276984932E+02  0.29831946437E+02  0.17751347658E+02  0.54367085686E+02  0.40000003438E+02 0.  0.
        -12    1    3    3    0    0 -0.12276984932E+02 -0.29831946437E+02 -0.17751347658E+02  0.36820914314E+02  0.00000000000E+00 0.  1.
         11    1    4    4    0    0 -0.55049701239E+01 -0.41468685558E+01 -0.37095296456E+01  0.78269933778E+01  0.51100000000E-03 0. -1.
        -11    1    4    4    0    0  0.31515271258E+01 -0.75389246835E+00  0.35684578040E+01  0.48202041905E+01  0.51100000000E-03 0.  1.
         12    1    4    4    0    0  0.14630427930E+02  0.34732707461E+02  0.17892419499E+02  0.41719888118E+02  0.00000000000E+00 0. -1.
</event>
<event>
 8    1  0.2401680E-006  0.9118800E+02  0.7816164E-02  0.1184000E+00
        -11   -1    0    0    0    0  0.00000000000E+00  0.00000000000E+00  0.45593999997E+02  0.45594000000E+02  0.51100000000E-03 0. -1.
         11   -1    0    0    0    0 -0.00000000000E+00 -0.00000000000E+00 -0.45593999997E+02  0.45594000000E+02  0.51100000000E-03 0.  1.
         23    2    1    2    0    0  0.44408920985E-15  0.44408920985E-15  0.00000000000E+00  0.91188000000E+02  0.91188000000E+02 0.  0.
    9900012    2    3    3    0    0 -0.26569967192E+01  0.19334059559E+01 -0.36674164684E+02  0.54366918465E+02  0.39999622222E+02 0.  0.
         12    1    3    3    0    0  0.26569967192E+01 -0.19334059559E+01  0.36674164684E+02  0.36821081535E+02  0.00000000000E+00 0. -1.
         11    1    4    4    0    0  0.77073982975E+01  0.25896448973E+01 -0.19857692513E+01  0.83697986231E+01  0.51100000000E-03 0. -1.
        -11    1    4    4    0    0 -0.15453177384E+01  0.74312839305E+01 -0.33060874075E+02  0.33920987348E+02  0.51100000000E-03 0.  1.
        -12    1    4    4    0    0 -0.88190772783E+01 -0.80875228719E+01 -0.16275213578E+01  0.12076132494E+02  0.00000000000E+00 0.  1.
</event>
<event>
 8    1  0.2401680E-006  0.9118800E+02  0.7816164E-02  0.1184000E+00
        -11   -1    0    0    0    0  0.00000000000E+00  0.00000000000E+00  0.45593999997E+02  0.45594000000E+02  0.51100000000E-03 0.  1.
         11   -1    0    0    0    0 -0.00000000000E+00 -0.00000000000E+00 -0.45593999997E+02  0.45594000000E+02  0.51100000000E-03 0. -1.
         23    2    1    2    0    0  0.88817841970E-15  0.00000000000E+00  0.00000000000E+00  0.91188000000E+02  0.91188000000E+02 0.  0.
    9900012    2    3    3    0    0 -0.49029665370E+01 -0.81046211547E+01 -0.35581727496E+02  0.54367037268E+02  0.39999893060E+02 0.  0.
        -12    1    3    3    0    0  0.49029665370E+01  0.81046211547E+01  0.35581727496E+02  0.36820962732E+02  0.00000000000E+00 0.  1.
         11    1    4    4    0    0  0.39752682256E+01 -0.10962375967E+02 -0.24321611334E+02  0.26972527180E+02  0.51100000000E-03 0. -1.
        -11    1    4    4    0    0  0.55817404251E+01  0.53921155471E+01  0.15461730642E+01  0.79133676556E+01  0.51100000000E-03 0.  1.
         12    1    4    4    0    0 -0.14459975188E+02 -0.25343607344E+01 -0.12806289225E+02  0.19481142433E+02  0.00000000000E+00 0. -1.
</event>
<event>
 8    1  0.2401680E-006  0.9118800E+02  0.7816164E-02  0.1184000E+00
        -11   -1    0    0    0    0  0.00000000000E+00  0.00000000000E+00  0.45593999997E+02  0.45594000000E+02  0.51100000000E-03 0.  1.
         11   -1    0    0    0    0 -0.00000000000E+00 -0.00000000000E+00 -0.45593999997E+02  0.45594000000E+02  0.51100000000E-03 0. -1.
         23    2    1    2    0    0  0.35527136788E-14  0.00000000000E+00 -0.17763568394E-14  0.91188000000E+02  0.91188000000E+02 0.  0.
    9900012    2    3    3    0    0  0.24364716924E+02 -0.24858566318E+02 -0.12007979076E+02  0.54367091379E+02  0.40000016417E+02 0.  0.
         12    1    3    3    0    0 -0.24364716924E+02  0.24858566318E+02  0.12007979076E+02  0.36820908621E+02  0.00000000000E+00 0. -1.
         11    1    4    4    0    0  0.13986199007E+01  0.65232723932E+01 -0.10664982447E+01  0.67562296519E+01  0.51100000000E-03 0. -1.
        -11    1    4    4    0    0  0.13809496053E+02 -0.37185877797E+00 -0.13270444495E+01  0.13878094516E+02  0.51100000000E-03 0.  1.
         12    1    4    4    0    0  0.91566009711E+01 -0.31009979933E+02 -0.96144363818E+01  0.33732767211E+02  0.00000000000E+00 0. -1.
</event>
<event>
 8    1  0.2401680E-006  0.9118800E+02  0.7816164E-02  0.1184000E+00
        -11   -1    0    0    0    0  0.00000000000E+00  0.00000000000E+00  0.45593999997E+02  0.45594000000E+02  0.51100000000E-03 0. -1.
         11   -1    0    0    0    0 -0.00000000000E+00 -0.00000000000E+00 -0.45593999997E+02  0.45594000000E+02  0.51100000000E-03 0.  1.
         23    2    1    2    0    0 -0.35527136788E-14 -0.35527136788E-14  0.00000000000E+00  0.91188000000E+02  0.91188000000E+02 0.  0.
    9900012    2    3    3    0    0  0.30919603153E+02 -0.15970684602E+02 -0.12029052912E+02  0.54367044828E+02  0.39999910295E+02 0.  0.
         12    1    3    3    0    0 -0.30919603153E+02  0.15970684602E+02  0.12029052912E+02  0.36820955172E+02  0.00000000000E+00 0. -1.
         11    1    4    4    0    0  0.14447513840E+01  0.96361351812E+01  0.19034643375E+01  0.99280201721E+01  0.51100000000E-03 0. -1.
        -11    1    4    4    0    0  0.22255944745E+02 -0.98059822156E+01 -0.11484176735E+02  0.26895551291E+02  0.51100000000E-03 0.  1.
         12    1    4    4    0    0  0.72189070242E+01 -0.15800837567E+02 -0.24483405145E+01  0.17543473365E+02  0.00000000000E+00 0. -1.
</event>
<event>
 8    1  0.2401680E-006  0.9118800E+02  0.7816164E-02  0.1184000E+00
        -11   -1    0    0    0    0  0.00000000000E+00  0.00000000000E+00  0.45593999997E+02  0.45594000000E+02  0.51100000000E-03 0. -1.
         11   -1    0    0    0    0 -0.00000000000E+00 -0.00000000000E+00 -0.45593999997E+02  0.45594000000E+02  0.51100000000E-03 0.  1.
         23    2    1    2    0    0 -0.35527136788E-14 -0.35527136788E-14  0.00000000000E+00  0.91188000000E+02  0.91188000000E+02 0.  0.
    9900012    2    3    3    0    0  0.19670269038E+02  0.28887823937E+02  0.11590989637E+02  0.54367124173E+02  0.40000091178E+02 0.  0.
         12    1    3    3    0    0 -0.19670269038E+02 -0.28887823937E+02 -0.11590989637E+02  0.36820875827E+02  0.00000000000E+00 0. -1.
         11    1    4    4    0    0  0.23545920360E+02  0.11621780338E+02  0.19700989391E+02  0.32826896397E+02  0.51100000000E-03 0. -1.
        -11    1    4    4    0    0 -0.30703364158E+01  0.69770530651E+01 -0.82317004537E+01  0.11219052001E+02  0.51100000000E-03 0.  1.
        -12    1    4    4    0    0 -0.80531490663E+00  0.10288990535E+02  0.12170070021E+00  0.10321175775E+02  0.00000000000E+00 0.  1.
</event>
<event>
 8    1  0.2401680E-006  0.9118800E+02  0.7816164E-02  0.1184000E+00
        -11   -1    0    0    0    0  0.00000000000E+00  0.00000000000E+00  0.45593999997E+02  0.45594000000E+02  0.51100000000E-03 0.  1.
         11   -1    0    0    0    0 -0.00000000000E+00 -0.00000000000E+00 -0.45593999997E+02  0.45594000000E+02  0.51100000000E-03 0. -1.
         23    2    1    2    0    0  0.00000000000E+00 -0.17763568394E-14  0.00000000000E+00  0.91188000000E+02  0.91188000000E+02 0.  0.
    9900012    2    3    3    0    0 -0.12344518474E+02  0.80047362996E+01 -0.33753698283E+02  0.54367148742E+02  0.40000147187E+02 0.  0.
        -12    1    3    3    0    0  0.12344518474E+02 -0.80047362996E+01  0.33753698283E+02  0.36820851258E+02  0.00000000000E+00 0.  1.
         11    1    4    4    0    0  0.26404308523E+01 -0.16969137133E+01  0.48519783013E+00  0.31759736194E+01  0.51100000000E-03 0. -1.
        -11    1    4    4    0    0  0.42357659468E+01 -0.20042662723E+01  0.44311187490E+01  0.64493108218E+01  0.51100000000E-03 0.  1.
         12    1    4    4    0    0 -0.19220715273E+02  0.11705916285E+02 -0.38670014862E+02  0.44741864301E+02  0.00000000000E+00 0. -1.
</event>
<event>
 8    1  0.2401680E-006  0.9118800E+02  0.7816164E-02  0.1184000E+00
        -11   -1    0    0    0    0  0.00000000000E+00  0.00000000000E+00  0.45593999997E+02  0.45594000000E+02  0.51100000000E-03 0.  1.
         11   -1    0    0    0    0 -0.00000000000E+00 -0.00000000000E+00 -0.45593999997E+02  0.45594000000E+02  0.51100000000E-03 0. -1.
         23    2    1    2    0    0  0.00000000000E+00 -0.35527136788E-14  0.00000000000E+00  0.91188000000E+02  0.91188000000E+02 0.  0.
    9900012    2    3    3    0    0 -0.10091616858E+01 -0.27814704165E+02  0.24106099239E+02  0.54367079376E+02  0.39999989053E+02 0.  0.
         12    1    3    3    0    0  0.10091616858E+01  0.27814704165E+02 -0.24106099239E+02  0.36820920624E+02  0.00000000000E+00 0. -1.
         11    1    4    4    0    0  0.86010005699E+01 -0.53976084986E+01  0.12139632347E+01  0.10226685451E+02  0.51100000000E-03 0. -1.
        -11    1    4    4    0    0  0.92707396686E+01 -0.14492254737E+02  0.11692049795E+02  0.20800867531E+02  0.51100000000E-03 0.  1.
         12    1    4    4    0    0 -0.18880901924E+02 -0.79248409292E+01  0.11200086209E+02  0.23339526394E+02  0.00000000000E+00 0. -1.
</event>
<event>
 8    1  0.2401680E-006  0.9118800E+02  0.7816164E-02  0.1184000E+00
        -11   -1    0    0    0    0  0.00000000000E+00  0.00000000000E+00  0.45593999997E+02  0.45594000000E+02  0.51100000000E-03 0.  1.
         11   -1    0    0    0    0 -0.00000000000E+00 -0.00000000000E+00 -0.45593999997E+02  0.45594000000E+02  0.51100000000E-03 0. -1.
         23    2    1    2    0    0  0.00000000000E+00  0.35527136788E-14 -0.17763568394E-14  0.91188000000E+02  0.91188000000E+02 0.  0.
    9900012    2    3    3    0    0  0.23127509230E+02 -0.26163792405E+02  0.11677076786E+02  0.54367084226E+02  0.40000000110E+02 0.  0.
         12    1    3    3    0    0 -0.23127509230E+02  0.26163792405E+02 -0.11677076786E+02  0.36820915774E+02  0.00000000000E+00 0. -1.
         11    1    4    4    0    0  0.17737812905E+02 -0.12260101906E+01  0.11609785258E+02  0.21234882190E+02  0.51100000000E-03 0.  1.
        -11    1    4    4    0    0  0.67414814798E+01 -0.59126533963E+00 -0.47615734428E+01  0.82746449566E+01  0.51100000000E-03 0. -1.
        -12    1    4    4    0    0 -0.13517851549E+01 -0.24346516875E+02  0.48288649705E+01  0.24857557079E+02  0.00000000000E+00 0.  1.
</event>
<event>
 8    1  0.2401680E-006  0.9118800E+02  0.7816164E-02  0.1184000E+00
        -11   -1    0    0    0    0  0.00000000000E+00  0.00000000000E+00  0.45593999997E+02  0.45594000000E+02  0.51100000000E-03 0.  1.
         11   -1    0    0    0    0 -0.00000000000E+00 -0.00000000000E+00 -0.45593999997E+02  0.45594000000E+02  0.51100000000E-03 0. -1.
         23    2    1    2    0    0 -0.35527136788E-14  0.00000000000E+00  0.00000000000E+00  0.91188000000E+02  0.91188000000E+02 0.  0.
    9900012    2    3    3    0    0 -0.23536228380E+02 -0.80606449712E+01  0.27144994436E+02  0.54367098781E+02  0.40000033290E+02 0.  0.
         12    1    3    3    0    0  0.23536228380E+02  0.80606449712E+01 -0.27144994436E+02  0.36820901219E+02  0.00000000000E+00 0. -1.
         11    1    4    4    0    0 -0.23545495886E+02  0.97321449404E+01  0.54134456035E+01  0.26046312891E+02  0.51100000000E-03 0. -1.
        -11    1    4    4    0    0 -0.15259422980E+01 -0.13621925649E+02  0.16788896966E+02  0.21673772627E+02  0.51100000000E-03 0.  1.
         12    1    4    4    0    0  0.15352098044E+01 -0.41708642625E+01  0.49426518661E+01  0.66470132623E+01  0.00000000000E+00 0. -1.
</event>
<event>
 8    1  0.2401680E-006  0.9118800E+02  0.7816164E-02  0.1184000E+00
        -11   -1    0    0    0    0  0.00000000000E+00  0.00000000000E+00  0.45593999997E+02  0.45594000000E+02  0.51100000000E-03 0.  1.
         11   -1    0    0    0    0 -0.00000000000E+00 -0.00000000000E+00 -0.45593999997E+02  0.45594000000E+02  0.51100000000E-03 0. -1.
         23    2    1    2    0    0  0.35527136788E-14  0.00000000000E+00  0.35527136788E-14  0.91188000000E+02  0.91188000000E+02 0.  0.
    9900012    2    3    3    0    0  0.25531798358E+02  0.45595996144E+01 -0.26136352641E+02  0.54367196024E+02  0.40000254975E+02 0.  0.
        -12    1    3    3    0    0 -0.25531798358E+02 -0.45595996144E+01  0.26136352641E+02  0.36820803976E+02  0.00000000000E+00 0.  1.
         11    1    4    4    0    0 -0.26474239921E+01  0.11522028263E+01 -0.48584379135E+01  0.56516231622E+01  0.51100000000E-03 0. -1.
        -11    1    4    4    0    0 -0.61397010425E+00  0.13190008331E+01  0.76854699608E+01  0.78219672248E+01  0.51100000000E-03 0.  1.
         12    1    4    4    0    0  0.28793192455E+02  0.20883959550E+01 -0.28963384688E+02  0.40893605637E+02  0.00000000000E+00 0. -1.
</event>
<event>
 8    1  0.2401680E-006  0.9118800E+02  0.7816164E-02  0.1184000E+00
        -11   -1    0    0    0    0  0.00000000000E+00  0.00000000000E+00  0.45593999997E+02  0.45594000000E+02  0.51100000000E-03 0.  1.
         11   -1    0    0    0    0 -0.00000000000E+00 -0.00000000000E+00 -0.45593999997E+02  0.45594000000E+02  0.51100000000E-03 0. -1.
         23    2    1    2    0    0 -0.35527136788E-14  0.00000000000E+00  0.00000000000E+00  0.91188000000E+02  0.91188000000E+02 0.  0.
    9900012    2    3    3    0    0  0.23778185841E+02 -0.20418600432E+02 -0.19325114900E+02  0.54367062595E+02  0.39999950798E+02 0.  0.
        -12    1    3    3    0    0 -0.23778185841E+02  0.20418600432E+02  0.19325114900E+02  0.36820937405E+02  0.00000000000E+00 0.  1.
         11    1    4    4    0    0  0.20722483513E+01  0.37773548920E+01 -0.12038426295E+01  0.44734618080E+01  0.51100000000E-03 0. -1.
        -11    1    4    4    0    0  0.21821580173E+02 -0.24634359271E+02 -0.26037694329E+02  0.41964205511E+02  0.51100000000E-03 0.  1.
        -12    1    4    4    0    0 -0.11564268329E+00  0.43840394734E+00  0.79164220581E+01  0.79293952766E+01  0.00000000000E+00 0.  1.
</event>
<event>
 8    1  0.2401680E-006  0.9118800E+02  0.7816164E-02  0.1184000E+00
        -11   -1    0    0    0    0  0.00000000000E+00  0.00000000000E+00  0.45593999997E+02  0.45594000000E+02  0.51100000000E-03 0.  1.
         11   -1    0    0    0    0 -0.00000000000E+00 -0.00000000000E+00 -0.45593999997E+02  0.45594000000E+02  0.51100000000E-03 0. -1.
         23    2    1    2    0    0  0.00000000000E+00  0.00000000000E+00  0.00000000000E+00  0.91188000000E+02  0.91188000000E+02 0.  0.
    9900012    2    3    3    0    0 -0.20458117392E+02 -0.29577463241E+02 -0.79006580772E+01  0.54367064419E+02  0.39999954956E+02 0.  0.
         12    1    3    3    0    0  0.20458117392E+02  0.29577463241E+02  0.79006580772E+01  0.36820935581E+02  0.00000000000E+00 0. -1.
         11    1    4    4    0    0 -0.16440707687E+02 -0.59183525002E+01  0.92076453882E+01  0.19751063248E+02  0.51100000000E-03 0. -1.
        -11    1    4    4    0    0 -0.21745971407E+01 -0.25390812147E+02 -0.10539440774E+02  0.27577201205E+02  0.51100000000E-03 0.  1.
        -12    1    4    4    0    0 -0.18428125648E+01  0.17317014064E+01 -0.65688626915E+01  0.70387999666E+01  0.00000000000E+00 0.  1.
</event>
<event>
 8    1  0.2401680E-006  0.9118800E+02  0.7816164E-02  0.1184000E+00
        -11   -1    0    0    0    0  0.00000000000E+00  0.00000000000E+00  0.45593999997E+02  0.45594000000E+02  0.51100000000E-03 0. -1.
         11   -1    0    0    0    0 -0.00000000000E+00 -0.00000000000E+00 -0.45593999997E+02  0.45594000000E+02  0.51100000000E-03 0.  1.
         23    2    1    2    0    0  0.00000000000E+00  0.17763568394E-14  0.00000000000E+00  0.91188000000E+02  0.91188000000E+02 0.  0.
    9900012    2    3    3    0    0  0.40982616501E+01  0.52081276806E+01  0.36219616216E+02  0.54367069249E+02  0.39999965968E+02 0.  0.
        -12    1    3    3    0    0 -0.40982616501E+01 -0.52081276806E+01 -0.36219616216E+02  0.36820930751E+02  0.00000000000E+00 0.  1.
         11    1    4    4    0    0  0.62213662280E+01  0.34004094725E+01  0.97349838827E+01  0.12043176233E+02  0.51100000000E-03 0. -1.
        -11    1    4    4    0    0 -0.74414336546E+01  0.16010701933E+02  0.16505772223E+02  0.24169361352E+02  0.51100000000E-03 0.  1.
         12    1    4    4    0    0  0.53183290768E+01 -0.14202983725E+02  0.99788601102E+01  0.18154531664E+02  0.00000000000E+00 0. -1.
</event>
<event>
 8    1  0.2401680E-006  0.9118800E+02  0.7816164E-02  0.1184000E+00
        -11   -1    0    0    0    0  0.00000000000E+00  0.00000000000E+00  0.45593999997E+02  0.45594000000E+02  0.51100000000E-03 0.  1.
         11   -1    0    0    0    0 -0.00000000000E+00 -0.00000000000E+00 -0.45593999997E+02  0.45594000000E+02  0.51100000000E-03 0. -1.
         23    2    1    2    0    0  0.35527136788E-14  0.00000000000E+00 -0.71054273576E-14  0.91188000000E+02  0.91188000000E+02 0.  0.
    9900012    2    3    3    0    0  0.18577121690E+02 -0.36738519312E+01 -0.31578050001E+02  0.54367083659E+02  0.39999998818E+02 0.  0.
        -12    1    3    3    0    0 -0.18577121690E+02  0.36738519312E+01  0.31578050001E+02  0.36820916341E+02  0.00000000000E+00 0.  1.
         11    1    4    4    0    0  0.21550560483E+02 -0.30340692988E+01 -0.36720076400E+02  0.42684847952E+02  0.51100000000E-03 0. -1.
        -11    1    4    4    0    0 -0.64599226166E+01 -0.18929594028E+01  0.27460394339E+01  0.72701188675E+01  0.51100000000E-03 0.  1.
         12    1    4    4    0    0  0.34864838239E+01  0.12531767704E+01  0.23959869648E+01  0.44121168398E+01  0.00000000000E+00 0. -1.
</event>
<event>
 8    1  0.2401680E-006  0.9118800E+02  0.7816164E-02  0.1184000E+00
        -11   -1    0    0    0    0  0.00000000000E+00  0.00000000000E+00  0.45593999997E+02  0.45594000000E+02  0.51100000000E-03 0. -1.
         11   -1    0    0    0    0 -0.00000000000E+00 -0.00000000000E+00 -0.45593999997E+02  0.45594000000E+02  0.51100000000E-03 0.  1.
         23    2    1    2    0    0  0.11102230246E-15  0.00000000000E+00  0.00000000000E+00  0.91188000000E+02  0.91188000000E+02 0.  0.
    9900012    2    3    3    0    0 -0.67960836984E+00  0.32274529787E+02  0.17710815566E+02  0.54367080286E+02  0.39999991129E+02 0.  0.
        -12    1    3    3    0    0  0.67960836984E+00 -0.32274529787E+02 -0.17710815566E+02  0.36820919714E+02  0.00000000000E+00 0.  1.
         11    1    4    4    0    0  0.60513743424E+00  0.24773649527E+02  0.27016578169E+01  0.24927873102E+02  0.51100000000E-03 0. -1.
        -11    1    4    4    0    0 -0.12805455610E+01 -0.56076893318E+01 -0.35187734523E+01  0.67429773428E+01  0.51100000000E-03 0.  1.
         12    1    4    4    0    0 -0.42002430703E-02  0.13108569593E+02  0.18527931201E+02  0.22696229841E+02  0.00000000000E+00 0. -1.
</event>
<event>
 8    1  0.2401680E-006  0.9118800E+02  0.7816164E-02  0.1184000E+00
        -11   -1    0    0    0    0  0.00000000000E+00  0.00000000000E+00  0.45593999997E+02  0.45594000000E+02  0.51100000000E-03 0.  1.
         11   -1    0    0    0    0 -0.00000000000E+00 -0.00000000000E+00 -0.45593999997E+02  0.45594000000E+02  0.51100000000E-03 0. -1.
         23    2    1    2    0    0  0.00000000000E+00  0.17763568394E-14  0.71054273576E-14  0.91188000000E+02  0.91188000000E+02 0.  0.
    9900012    2    3    3    0    0  0.10236804442E+02  0.10131956140E+02 -0.33887102160E+02  0.54367022376E+02  0.39999859110E+02 0.  0.
        -12    1    3    3    0    0 -0.10236804442E+02 -0.10131956140E+02  0.33887102160E+02  0.36820977624E+02  0.00000000000E+00 0.  1.
         11    1    4    4    0    0  0.11335797529E+02  0.10748840786E+02 -0.33826117177E+02  0.37259147701E+02  0.51100000000E-03 0. -1.
        -11    1    4    4    0    0  0.23252878764E+01 -0.18398247170E+01 -0.79154518751E+01  0.84525911616E+01  0.51100000000E-03 0.  1.
        -12    1    4    4    0    0 -0.34242809636E+01  0.12229400710E+01  0.78544668920E+01  0.86552835132E+01  0.00000000000E+00 0.  1.
</event>
<event>
 8    1  0.2401680E-006  0.9118800E+02  0.7816164E-02  0.1184000E+00
        -11   -1    0    0    0    0  0.00000000000E+00  0.00000000000E+00  0.45593999997E+02  0.45594000000E+02  0.51100000000E-03 0.  1.
         11   -1    0    0    0    0 -0.00000000000E+00 -0.00000000000E+00 -0.45593999997E+02  0.45594000000E+02  0.51100000000E-03 0. -1.
         23    2    1    2    0    0  0.00000000000E+00  0.00000000000E+00  0.00000000000E+00  0.91188000000E+02  0.91188000000E+02 0.  0.
    9900012    2    3    3    0    0 -0.16783605852E+02  0.16089209992E+02 -0.28552202896E+02  0.54367076685E+02  0.39999982919E+02 0.  0.
        -12    1    3    3    0    0  0.16783605852E+02 -0.16089209992E+02  0.28552202896E+02  0.36820923315E+02  0.00000000000E+00 0.  1.
         11    1    4    4    0    0  0.73633874075E+01  0.41562185737E+01 -0.94786279487E+01  0.12701890214E+02  0.51100000000E-03 0. -1.
        -11    1    4    4    0    0 -0.91711694146E+00 -0.46741184898E+00  0.55313569532E+01  0.56263209405E+01  0.51100000000E-03 0.  1.
         12    1    4    4    0    0 -0.23229876318E+02  0.12400403267E+02 -0.24604931900E+02  0.36038865531E+02  0.00000000000E+00 0. -1.
</event>
<event>
 8    1  0.2401680E-006  0.9118800E+02  0.7816164E-02  0.1184000E+00
        -11   -1    0    0    0    0  0.00000000000E+00  0.00000000000E+00  0.45593999997E+02  0.45594000000E+02  0.51100000000E-03 0. -1.
         11   -1    0    0    0    0 -0.00000000000E+00 -0.00000000000E+00 -0.45593999997E+02  0.45594000000E+02  0.51100000000E-03 0.  1.
         23    2    1    2    0    0  0.00000000000E+00  0.44408920985E-15  0.00000000000E+00  0.91188000000E+02  0.91188000000E+02 0.  0.
    9900012    2    3    3    0    0 -0.25276064462E+02 -0.17788137960E+01 -0.26715801932E+02  0.54367113453E+02  0.40000066739E+02 0.  0.
         12    1    3    3    0    0  0.25276064462E+02  0.17788137960E+01  0.26715801932E+02  0.36820886547E+02  0.00000000000E+00 0. -1.
         11    1    4    4    0    0 -0.12004634814E+02  0.36288180612E+01 -0.83751257058E+01  0.15080527457E+02  0.51100000000E-03 0. -1.
        -11    1    4    4    0    0 -0.14366452817E+02  0.89011298390E+01 -0.18335163939E+02  0.24935984357E+02  0.51100000000E-03 0.  1.
         12    1    4    4    0    0  0.10950231684E+01 -0.14308761696E+02 -0.55122878318E-02  0.14350601639E+02  0.00000000000E+00 0. -1.
</event>
<event>
 8    1  0.2401680E-006  0.9118800E+02  0.7816164E-02  0.1184000E+00
        -11   -1    0    0    0    0  0.00000000000E+00  0.00000000000E+00  0.45593999997E+02  0.45594000000E+02  0.51100000000E-03 0. -1.
         11   -1    0    0    0    0 -0.00000000000E+00 -0.00000000000E+00 -0.45593999997E+02  0.45594000000E+02  0.51100000000E-03 0.  1.
         23    2    1    2    0    0  0.00000000000E+00  0.35527136788E-14  0.00000000000E+00  0.91188000000E+02  0.91188000000E+02 0.  0.
    9900012    2    3    3    0    0 -0.22908648389E+02 -0.21842992369E+02  0.18811019033E+02  0.54367123806E+02  0.40000090340E+02 0.  0.
        -12    1    3    3    0    0  0.22908648389E+02  0.21842992369E+02 -0.18811019033E+02  0.36820876194E+02  0.00000000000E+00 0.  1.
         11    1    4    4    0    0 -0.13656423854E+02 -0.24108651363E+02  0.81511195459E+01  0.28881927448E+02  0.51100000000E-03 0. -1.
        -11    1    4    4    0    0  0.60988281914E+01  0.45717672501E+01  0.37120276462E+01  0.84779661833E+01  0.51100000000E-03 0.  1.
         12    1    4    4    0    0 -0.15351052726E+02 -0.23061082565E+01  0.69478718411E+01  0.17007230174E+02  0.00000000000E+00 0. -1.
</event>
<event>
 8    1  0.2401680E-006  0.9118800E+02  0.7816164E-02  0.1184000E+00
        -11   -1    0    0    0    0  0.00000000000E+00  0.00000000000E+00  0.45593999997E+02  0.45594000000E+02  0.51100000000E-03 0.  1.
         11   -1    0    0    0    0 -0.00000000000E+00 -0.00000000000E+00 -0.45593999997E+02  0.45594000000E+02  0.51100000000E-03 0. -1.
         23    2    1    2    0    0 -0.35527136788E-14  0.00000000000E+00  0.35527136788E-14  0.91188000000E+02  0.91188000000E+02 0.  0.
    9900012    2    3    3    0    0  0.24812361151E+02 -0.13789345340E+02 -0.23451677592E+02  0.54367075342E+02  0.39999979857E+02 0.  0.
         12    1    3    3    0    0 -0.24812361151E+02  0.13789345340E+02  0.23451677592E+02  0.36820924658E+02  0.00000000000E+00 0. -1.
         11    1    4    4    0    0  0.26525784247E+02 -0.40491405848E+01 -0.69731846382E+01  0.27724322781E+02  0.51100000000E-03 0. -1.
        -11    1    4    4    0    0  0.79681144204E+01 -0.33652095055E+01 -0.10487397396E+02  0.13594152671E+02  0.51100000000E-03 0.  1.
         12    1    4    4    0    0 -0.96815375163E+01 -0.63749952497E+01 -0.59910955579E+01  0.13048599890E+02  0.00000000000E+00 0. -1.
</event>
<event>
 8    1  0.2401680E-006  0.9118800E+02  0.7816164E-02  0.1184000E+00
        -11   -1    0    0    0    0  0.00000000000E+00  0.00000000000E+00  0.45593999997E+02  0.45594000000E+02  0.51100000000E-03 0.  1.
         11   -1    0    0    0    0 -0.00000000000E+00 -0.00000000000E+00 -0.45593999997E+02  0.45594000000E+02  0.51100000000E-03 0. -1.
         23    2    1    2    0    0  0.17763568394E-14  0.71054273576E-14  0.00000000000E+00  0.91188000000E+02  0.91188000000E+02 0.  0.
    9900012    2    3    3    0    0  0.88946482056E+01 -0.32140495491E+02 -0.15609376515E+02  0.54367097617E+02  0.40000030638E+02 0.  0.
         12    1    3    3    0    0 -0.88946482056E+01  0.32140495491E+02  0.15609376515E+02  0.36820902383E+02  0.00000000000E+00 0. -1.
         11    1    4    4    0    0 -0.76743154867E+01 -0.20932331406E+02 -0.12550837352E+02  0.25584783267E+02  0.51100000000E-03 0. -1.
        -11    1    4    4    0    0  0.20704084338E+02 -0.57730634172E+01 -0.40780005435E+01  0.21877327491E+02  0.51100000000E-03 0.  1.
        -12    1    4    4    0    0 -0.41351206453E+01 -0.54351006672E+01  0.10194613807E+01  0.69049868588E+01  0.00000000000E+00 0.  1.
</event>
<event>
 8    1  0.2401680E-006  0.9118800E+02  0.7816164E-02  0.1184000E+00
        -11   -1    0    0    0    0  0.00000000000E+00  0.00000000000E+00  0.45593999997E+02  0.45594000000E+02  0.51100000000E-03 0. -1.
         11   -1    0    0    0    0 -0.00000000000E+00 -0.00000000000E+00 -0.45593999997E+02  0.45594000000E+02  0.51100000000E-03 0.  1.
         23    2    1    2    0    0  0.00000000000E+00  0.00000000000E+00  0.00000000000E+00  0.91188000000E+02  0.91188000000E+02 0.  0.
    9900012    2    3    3    0    0  0.16139208330E+02  0.19992436441E+02  0.26374382802E+02  0.54367087076E+02  0.40000006607E+02 0.  0.
        -12    1    3    3    0    0 -0.16139208330E+02 -0.19992436441E+02 -0.26374382802E+02  0.36820912924E+02  0.00000000000E+00 0.  1.
         11    1    4    4    0    0  0.34060820173E+01  0.17883933705E+02  0.11564100453E+02  0.21567681818E+02  0.51100000000E-03 0. -1.
        -11    1    4    4    0    0  0.28754213933E+01 -0.11083239459E+02  0.11039340135E+02  0.15905133636E+02  0.51100000000E-03 0.  1.
        -12    1    4    4    0    0  0.98577049193E+01  0.13191742196E+02  0.37709422140E+01  0.16894271622E+02  0.00000000000E+00 0.  1.
</event>
<event>
 8    1  0.2401680E-006  0.9118800E+02  0.7816164E-02  0.1184000E+00
        -11   -1    0    0    0    0  0.00000000000E+00  0.00000000000E+00  0.45593999997E+02  0.45594000000E+02  0.51100000000E-03 0.  1.
         11   -1    0    0    0    0 -0.00000000000E+00 -0.00000000000E+00 -0.45593999997E+02  0.45594000000E+02  0.51100000000E-03 0. -1.
         23    2    1    2    0    0  0.00000000000E+00 -0.17763568394E-14  0.00000000000E+00  0.91188000000E+02  0.91188000000E+02 0.  0.
    9900012    2    3    3    0    0  0.92242376682E+01 -0.14516733098E+02 -0.32556987939E+02  0.54367087952E+02  0.40000008605E+02 0.  0.
        -12    1    3    3    0    0 -0.92242376682E+01  0.14516733098E+02  0.32556987939E+02  0.36820912048E+02  0.00000000000E+00 0.  1.
         11    1    4    4    0    0 -0.11733009483E+01 -0.19516612798E+02 -0.16670399527E+02  0.25693910385E+02  0.51100000000E-03 0. -1.
        -11    1    4    4    0    0  0.14540596816E+02  0.52757750819E+01 -0.38493318346E+01  0.15939890662E+02  0.51100000000E-03 0.  1.
        -12    1    4    4    0    0 -0.41430581999E+01 -0.27589538191E+00 -0.12037256577E+02  0.12733286905E+02  0.00000000000E+00 0.  1.
</event>
<event>
 8    1  0.2401680E-006  0.9118800E+02  0.7816164E-02  0.1184000E+00
        -11   -1    0    0    0    0  0.00000000000E+00  0.00000000000E+00  0.45593999997E+02  0.45594000000E+02  0.51100000000E-03 0.  1.
         11   -1    0    0    0    0 -0.00000000000E+00 -0.00000000000E+00 -0.45593999997E+02  0.45594000000E+02  0.51100000000E-03 0. -1.
         23    2    1    2    0    0  0.00000000000E+00 -0.44408920985E-15  0.00000000000E+00  0.91188000000E+02  0.91188000000E+02 0.  0.
    9900012    2    3    3    0    0 -0.43027006666E+01  0.29467660409E+01 -0.36449729220E+02  0.54367089863E+02  0.40000012961E+02 0.  0.
        -12    1    3    3    0    0  0.43027006666E+01 -0.29467660409E+01  0.36449729220E+02  0.36820910137E+02  0.00000000000E+00 0.  1.
         11    1    4    4    0    0  0.10698558606E+01  0.18791124398E+02 -0.18662218432E+02  0.26505270132E+02  0.51100000000E-03 0. -1.
        -11    1    4    4    0    0  0.25144667138E+01  0.10642750058E+01 -0.16268443156E+01  0.31783402636E+01  0.51100000000E-03 0.  1.
         12    1    4    4    0    0 -0.78870232410E+01 -0.16908633363E+02 -0.16160666472E+02  0.24683479468E+02  0.00000000000E+00 0. -1.
</event>
<event>
 8    1  0.2401680E-006  0.9118800E+02  0.7816164E-02  0.1184000E+00
        -11   -1    0    0    0    0  0.00000000000E+00  0.00000000000E+00  0.45593999997E+02  0.45594000000E+02  0.51100000000E-03 0.  1.
         11   -1    0    0    0    0 -0.00000000000E+00 -0.00000000000E+00 -0.45593999997E+02  0.45594000000E+02  0.51100000000E-03 0. -1.
         23    2    1    2    0    0  0.00000000000E+00  0.00000000000E+00 -0.77715611724E-15  0.91188000000E+02  0.91188000000E+02 0.  0.
    9900012    2    3    3    0    0  0.42698391543E+01 -0.36565945864E+02  0.68963168175E+00  0.54367142932E+02  0.40000133942E+02 0.  0.
         12    1    3    3    0    0 -0.42698391543E+01  0.36565945864E+02 -0.68963168175E+00  0.36820857068E+02  0.00000000000E+00 0. -1.
         11    1    4    4    0    0 -0.54163009724E+01  0.21763038205E+01  0.73513607695E+01  0.93869654291E+01  0.51100000000E-03 0. -1.
        -11    1    4    4    0    0  0.11854168589E+02 -0.23316922466E+02  0.34873243639E+01  0.26388664569E+02  0.51100000000E-03 0.  1.
         12    1    4    4    0    0 -0.21680284627E+01 -0.15425327219E+02 -0.10149053452E+02  0.18591512934E+02  0.00000000000E+00 0. -1.
</event>
<event>
 8    1  0.2401680E-006  0.9118800E+02  0.7816164E-02  0.1184000E+00
        -11   -1    0    0    0    0  0.00000000000E+00  0.00000000000E+00  0.45593999997E+02  0.45594000000E+02  0.51100000000E-03 0.  1.
         11   -1    0    0    0    0 -0.00000000000E+00 -0.00000000000E+00 -0.45593999997E+02  0.45594000000E+02  0.51100000000E-03 0. -1.
         23    2    1    2    0    0  0.00000000000E+00  0.00000000000E+00  0.00000000000E+00  0.91188000000E+02  0.91188000000E+02 0.  0.
    9900012    2    3    3    0    0  0.34704489421E+01 -0.85084702081E+01  0.35655888627E+02  0.54367075583E+02  0.39999980407E+02 0.  0.
         12    1    3    3    0    0 -0.34704489421E+01  0.85084702081E+01 -0.35655888627E+02  0.36820924417E+02  0.00000000000E+00 0. -1.
         11    1    4    4    0    0  0.81528051982E+00  0.16017427251E+01  0.53312728217E+01  0.56260760965E+01  0.51100000000E-03 0.  1.
        -11    1    4    4    0    0  0.19268811285E+02 -0.24034080788E+01  0.11963479645E+02  0.22807636971E+02  0.51100000000E-03 0. -1.
        -12    1    4    4    0    0 -0.16613642863E+02 -0.77068048543E+01  0.18361136160E+02  0.25933362515E+02  0.00000000000E+00 0.  1.
</event>
<event>
 8    1  0.2401680E-006  0.9118800E+02  0.7816164E-02  0.1184000E+00
        -11   -1    0    0    0    0  0.00000000000E+00  0.00000000000E+00  0.45593999997E+02  0.45594000000E+02  0.51100000000E-03 0.  1.
         11   -1    0    0    0    0 -0.00000000000E+00 -0.00000000000E+00 -0.45593999997E+02  0.45594000000E+02  0.51100000000E-03 0. -1.
         23    2    1    2    0    0 -0.35527136788E-14 -0.35527136788E-14 -0.17763568394E-14  0.91188000000E+02  0.91188000000E+02 0.  0.
    9900012    2    3    3    0    0 -0.21506677460E+02  0.25977506697E+02 -0.14778756166E+02  0.54367086603E+02  0.40000005530E+02 0.  0.
        -12    1    3    3    0    0  0.21506677460E+02 -0.25977506697E+02  0.14778756166E+02  0.36820913397E+02  0.00000000000E+00 0.  1.
         11    1    4    4    0    0 -0.13926946135E+02  0.28631980028E+02 -0.12659003919E+02  0.34263690540E+02  0.51100000000E-03 0. -1.
        -11    1    4    4    0    0 -0.13350436227E+02  0.32610343563E+00 -0.29794539317E+00  0.13357741674E+02  0.51100000000E-03 0.  1.
        -12    1    4    4    0    0  0.57707049018E+01 -0.29805767669E+01 -0.18218068540E+01  0.67456543893E+01  0.00000000000E+00 0.  1.
</event>
<event>
 8    1  0.2401680E-006  0.9118800E+02  0.7816164E-02  0.1184000E+00
        -11   -1    0    0    0    0  0.00000000000E+00  0.00000000000E+00  0.45593999997E+02  0.45594000000E+02  0.51100000000E-03 0. -1.
         11   -1    0    0    0    0 -0.00000000000E+00 -0.00000000000E+00 -0.45593999997E+02  0.45594000000E+02  0.51100000000E-03 0.  1.
         23    2    1    2    0    0  0.66613381478E-15  0.35527136788E-14  0.00000000000E+00  0.91188000000E+02  0.91188000000E+02 0.  0.
    9900012    2    3    3    0    0 -0.10383524133E+01  0.27461580950E+02 -0.24506134036E+02  0.54367255719E+02  0.40000391060E+02 0.  0.
         12    1    3    3    0    0  0.10383524133E+01 -0.27461580950E+02  0.24506134036E+02  0.36820744281E+02  0.00000000000E+00 0. -1.
         11    1    4    4    0    0 -0.56406512451E+01  0.77034462953E+01 -0.23062874989E+02  0.24961094414E+02  0.51100000000E-03 0. -1.
        -11    1    4    4    0    0  0.11800223045E+02  0.93481434970E+01  0.40798341498E+01  0.15597374706E+02  0.51100000000E-03 0.  1.
         12    1    4    4    0    0 -0.71979242133E+01  0.10409991158E+02 -0.55230931968E+01  0.13808786600E+02  0.00000000000E+00 0. -1.
</event>
<event>
 8    1  0.2401680E-006  0.9118800E+02  0.7816164E-02  0.1184000E+00
        -11   -1    0    0    0    0  0.00000000000E+00  0.00000000000E+00  0.45593999997E+02  0.45594000000E+02  0.51100000000E-03 0.  1.
         11   -1    0    0    0    0 -0.00000000000E+00 -0.00000000000E+00 -0.45593999997E+02  0.45594000000E+02  0.51100000000E-03 0. -1.
         23    2    1    2    0    0  0.00000000000E+00  0.00000000000E+00  0.00000000000E+00  0.91188000000E+02  0.91188000000E+02 0.  0.
    9900012    2    3    3    0    0  0.12545556034E+02 -0.24041934305E+02 -0.24907301982E+02  0.54367091899E+02  0.40000017603E+02 0.  0.
        -12    1    3    3    0    0 -0.12545556034E+02  0.24041934305E+02  0.24907301982E+02  0.36820908101E+02  0.00000000000E+00 0.  1.
         11    1    4    4    0    0  0.23825811762E+02 -0.10769802595E+02 -0.19361672529E+02  0.32535093628E+02  0.51100000000E-03 0. -1.
        -11    1    4    4    0    0 -0.64978140957E+01 -0.97418414231E+00 -0.56055904050E+01  0.86367393625E+01  0.51100000000E-03 0.  1.
         12    1    4    4    0    0 -0.47824416317E+01 -0.12297947568E+02  0.59960952062E-01  0.13195258908E+02  0.00000000000E+00 0. -1.
</event>
<event>
 8    1  0.2401680E-006  0.9118800E+02  0.7816164E-02  0.1184000E+00
        -11   -1    0    0    0    0  0.00000000000E+00  0.00000000000E+00  0.45593999997E+02  0.45594000000E+02  0.51100000000E-03 0.  1.
         11   -1    0    0    0    0 -0.00000000000E+00 -0.00000000000E+00 -0.45593999997E+02  0.45594000000E+02  0.51100000000E-03 0. -1.
         23    2    1    2    0    0  0.00000000000E+00 -0.35527136788E-14  0.17763568394E-14  0.91188000000E+02  0.91188000000E+02 0.  0.
    9900012    2    3    3    0    0  0.29264718910E+02 -0.18354224845E+02 -0.12746702330E+02  0.54367085253E+02  0.40000002452E+02 0.  0.
        -12    1    3    3    0    0 -0.29264718910E+02  0.18354224845E+02  0.12746702330E+02  0.36820914747E+02  0.00000000000E+00 0.  1.
         11    1    4    4    0    0  0.20410895527E+02 -0.98538041437E+01  0.79117904355E+01  0.24006218787E+02  0.51100000000E-03 0. -1.
        -11    1    4    4    0    0  0.19637994354E+00 -0.43952366122E+01  0.26665140884E+01  0.51446056801E+01  0.51100000000E-03 0.  1.
         12    1    4    4    0    0  0.86574434392E+01 -0.41051840887E+01 -0.23325006853E+02  0.25216260786E+02  0.00000000000E+00 0. -1.
</event>
<event>
 8    1  0.2401680E-006  0.9118800E+02  0.7816164E-02  0.1184000E+00
        -11   -1    0    0    0    0  0.00000000000E+00  0.00000000000E+00  0.45593999997E+02  0.45594000000E+02  0.51100000000E-03 0.  1.
         11   -1    0    0    0    0 -0.00000000000E+00 -0.00000000000E+00 -0.45593999997E+02  0.45594000000E+02  0.51100000000E-03 0. -1.
         23    2    1    2    0    0 -0.35527136788E-14  0.71054273576E-14 -0.26645352591E-14  0.91188000000E+02  0.91188000000E+02 0.  0.
    9900012    2    3    3    0    0  0.19787738694E+02 -0.30403204611E+02  0.63147200103E+01  0.54367012207E+02  0.39999835928E+02 0.  0.
         12    1    3    3    0    0 -0.19787738694E+02  0.30403204611E+02 -0.63147200103E+01  0.36820987793E+02  0.00000000000E+00 0. -1.
         11    1    4    4    0    0  0.14399224514E+01 -0.14931195615E+02 -0.12103296663E+02  0.19274433053E+02  0.51100000000E-03 0.  1.
        -11    1    4    4    0    0 -0.18590630645E+01  0.22842353176E+01  0.22660575426E+01  0.37160279212E+01  0.51100000000E-03 0. -1.
        -12    1    4    4    0    0  0.20206879307E+02 -0.17756244314E+02  0.16151959131E+02  0.31376551232E+02  0.00000000000E+00 0.  1.
</event>
<event>
 8    1  0.2401680E-006  0.9118800E+02  0.7816164E-02  0.1184000E+00
        -11   -1    0    0    0    0  0.00000000000E+00  0.00000000000E+00  0.45593999997E+02  0.45594000000E+02  0.51100000000E-03 0. -1.
         11   -1    0    0    0    0 -0.00000000000E+00 -0.00000000000E+00 -0.45593999997E+02  0.45594000000E+02  0.51100000000E-03 0.  1.
         23    2    1    2    0    0  0.00000000000E+00  0.00000000000E+00  0.00000000000E+00  0.91188000000E+02  0.91188000000E+02 0.  0.
    9900012    2    3    3    0    0 -0.30714749303E+02 -0.15168571230E+02  0.13501777542E+02  0.54367090523E+02  0.40000014466E+02 0.  0.
        -12    1    3    3    0    0  0.30714749303E+02  0.15168571230E+02 -0.13501777542E+02  0.36820909477E+02  0.00000000000E+00 0.  1.
         11    1    4    4    0    0  0.34370211603E+01 -0.34154404107E+01  0.13158325609E+02  0.14022121121E+02  0.51100000000E-03 0. -1.
        -11    1    4    4    0    0 -0.68297590146E+01 -0.99362264601E+01 -0.38202368734E+01  0.12647862052E+02  0.51100000000E-03 0.  1.
        -12    1    4    4    0    0 -0.27322011449E+02 -0.18169043595E+01  0.41636888065E+01  0.27697107350E+02  0.00000000000E+00 0.  1.
</event>
<event>
 8    1  0.2401680E-006  0.9118800E+02  0.7816164E-02  0.1184000E+00
        -11   -1    0    0    0    0  0.00000000000E+00  0.00000000000E+00  0.45593999997E+02  0.45594000000E+02  0.51100000000E-03 0.  1.
         11   -1    0    0    0    0 -0.00000000000E+00 -0.00000000000E+00 -0.45593999997E+02  0.45594000000E+02  0.51100000000E-03 0. -1.
         23    2    1    2    0    0 -0.66613381478E-15  0.17763568394E-14 -0.71054273576E-14  0.91188000000E+02  0.91188000000E+02 0.  0.
    9900012    2    3    3    0    0  0.10325904606E+01 -0.15150775778E+02  0.33543531572E+02  0.54367071711E+02  0.39999971580E+02 0.  0.
         12    1    3    3    0    0 -0.10325904606E+01  0.15150775778E+02 -0.33543531572E+02  0.36820928289E+02  0.00000000000E+00 0. -1.
         11    1    4    4    0    0 -0.34685712300E+01 -0.73249656340E+01  0.71552253826E+01  0.10811260725E+02  0.51100000000E-03 0. -1.
        -11    1    4    4    0    0  0.15523698668E+02 -0.10578236822E+02  0.26142901945E+02  0.32192167324E+02  0.51100000000E-03 0.  1.
         12    1    4    4    0    0 -0.11022536978E+02  0.27524266790E+01  0.24540424463E+00  0.11363643663E+02  0.00000000000E+00 0. -1.
</event>
<event>
 8    1  0.2401680E-006  0.9118800E+02  0.7816164E-02  0.1184000E+00
        -11   -1    0    0    0    0  0.00000000000E+00  0.00000000000E+00  0.45593999997E+02  0.45594000000E+02  0.51100000000E-03 0. -1.
         11   -1    0    0    0    0 -0.00000000000E+00 -0.00000000000E+00 -0.45593999997E+02  0.45594000000E+02  0.51100000000E-03 0.  1.
         23    2    1    2    0    0  0.88817841970E-15 -0.71054273576E-14  0.00000000000E+00  0.91188000000E+02  0.91188000000E+02 0.  0.
    9900012    2    3    3    0    0 -0.45778903806E+01 -0.35002033220E+02  0.10472862909E+02  0.54367078401E+02  0.39999986831E+02 0.  0.
         12    1    3    3    0    0  0.45778903806E+01  0.35002033220E+02 -0.10472862909E+02  0.36820921599E+02  0.00000000000E+00 0. -1.
         11    1    4    4    0    0  0.48341736096E+01 -0.50355619649E+01  0.13200045019E+02  0.14932089859E+02  0.51100000000E-03 0. -1.
        -11    1    4    4    0    0 -0.60557250237E+01 -0.67877647742E+01  0.93832681244E+01  0.13068713676E+02  0.51100000000E-03 0.  1.
         12    1    4    4    0    0 -0.33563389665E+01 -0.23178706481E+02 -0.12110450235E+02  0.26366274866E+02  0.00000000000E+00 0. -1.
</event>
<event>
 8    1  0.2401680E-006  0.9118800E+02  0.7816164E-02  0.1184000E+00
        -11   -1    0    0    0    0  0.00000000000E+00  0.00000000000E+00  0.45593999997E+02  0.45594000000E+02  0.51100000000E-03 0. -1.
         11   -1    0    0    0    0 -0.00000000000E+00 -0.00000000000E+00 -0.45593999997E+02  0.45594000000E+02  0.51100000000E-03 0.  1.
         23    2    1    2    0    0 -0.17763568394E-14 -0.17763568394E-14  0.00000000000E+00  0.91188000000E+02  0.91188000000E+02 0.  0.
    9900012    2    3    3    0    0 -0.11577732181E+02 -0.15954640741E+02 -0.31099594703E+02  0.54367092430E+02  0.40000018812E+02 0.  0.
         12    1    3    3    0    0  0.11577732181E+02  0.15954640741E+02  0.31099594703E+02  0.36820907570E+02  0.00000000000E+00 0. -1.
         11    1    4    4    0    0 -0.29689670484E+00 -0.13515034330E+02  0.32562931437E+01  0.13904954005E+02  0.51100000000E-03 0. -1.
        -11    1    4    4    0    0 -0.21847105448E-01 -0.84828649146E+01 -0.15779244354E+02  0.17914910747E+02  0.51100000000E-03 0.  1.
         12    1    4    4    0    0 -0.11258988371E+02  0.60432585036E+01 -0.18576643493E+02  0.22547227678E+02  0.00000000000E+00 0. -1.
</event>
<event>
 8    1  0.2401680E-006  0.9118800E+02  0.7816164E-02  0.1184000E+00
        -11   -1    0    0    0    0  0.00000000000E+00  0.00000000000E+00  0.45593999997E+02  0.45594000000E+02  0.51100000000E-03 0.  1.
         11   -1    0    0    0    0 -0.00000000000E+00 -0.00000000000E+00 -0.45593999997E+02  0.45594000000E+02  0.51100000000E-03 0. -1.
         23    2    1    2    0    0  0.35527136788E-14 -0.35527136788E-14  0.00000000000E+00  0.91188000000E+02  0.91188000000E+02 0.  0.
    9900012    2    3    3    0    0  0.24636183276E+02 -0.27321562883E+02 -0.15396603289E+01  0.54367083679E+02  0.39999998863E+02 0.  0.
        -12    1    3    3    0    0 -0.24636183276E+02  0.27321562883E+02  0.15396603289E+01  0.36820916321E+02  0.00000000000E+00 0.  1.
         11    1    4    4    0    0  0.86197295967E+01 -0.23775031316E+02 -0.57048934847E+01  0.25924846428E+02  0.51100000000E-03 0.  1.
        -11    1    4    4    0    0  0.14545086419E+02 -0.88383811794E+01  0.10546539208E+02  0.20022637447E+02  0.51100000000E-03 0. -1.
        -12    1    4    4    0    0  0.14713672603E+01  0.52918496120E+01 -0.63813060519E+01  0.84195998040E+01  0.00000000000E+00 0.  1.
</event>
<event>
 8    1  0.2401680E-006  0.9118800E+02  0.7816164E-02  0.1184000E+00
        -11   -1    0    0    0    0  0.00000000000E+00  0.00000000000E+00  0.45593999997E+02  0.45594000000E+02  0.51100000000E-03 0.  1.
         11   -1    0    0    0    0 -0.00000000000E+00 -0.00000000000E+00 -0.45593999997E+02  0.45594000000E+02  0.51100000000E-03 0. -1.
         23    2    1    2    0    0 -0.88817841970E-15  0.00000000000E+00  0.00000000000E+00  0.91188000000E+02  0.91188000000E+02 0.  0.
    9900012    2    3    3    0    0  0.59190602267E+01  0.29506804711E+02  0.21215366737E+02  0.54367101260E+02  0.40000038943E+02 0.  0.
         12    1    3    3    0    0 -0.59190602267E+01 -0.29506804711E+02 -0.21215366737E+02  0.36820898740E+02  0.00000000000E+00 0. -1.
         11    1    4    4    0    0 -0.50702313797E+01 -0.69787374106E+01  0.55712082141E+01  0.10268806324E+02  0.51100000000E-03 0.  1.
        -11    1    4    4    0    0  0.77551086437E+01  0.44552019235E+01  0.21979748513E+01  0.92098657951E+01  0.51100000000E-03 0. -1.
        -12    1    4    4    0    0  0.32341829627E+01  0.32030340198E+02  0.13446183672E+02  0.34888429141E+02  0.00000000000E+00 0.  1.
</event>
<event>
 8    1  0.2401680E-006  0.9118800E+02  0.7816164E-02  0.1184000E+00
        -11   -1    0    0    0    0  0.00000000000E+00  0.00000000000E+00  0.45593999997E+02  0.45594000000E+02  0.51100000000E-03 0.  1.
         11   -1    0    0    0    0 -0.00000000000E+00 -0.00000000000E+00 -0.45593999997E+02  0.45594000000E+02  0.51100000000E-03 0. -1.
         23    2    1    2    0    0  0.00000000000E+00 -0.35527136788E-14  0.00000000000E+00  0.91188000000E+02  0.91188000000E+02 0.  0.
    9900012    2    3    3    0    0 -0.22820665905E+01 -0.28904782013E+02 -0.22695493446E+02  0.54367086460E+02  0.40000005202E+02 0.  0.
         12    1    3    3    0    0  0.22820665905E+01  0.28904782013E+02  0.22695493446E+02  0.36820913540E+02  0.00000000000E+00 0. -1.
         11    1    4    4    0    0 -0.20633095494E+01  0.24385283363E+01 -0.14411329010E+02  0.14761099920E+02  0.51100000000E-03 0. -1.
        -11    1    4    4    0    0 -0.96875439321E+01 -0.21011867754E+02 -0.10516010229E+02  0.25415223102E+02  0.51100000000E-03 0.  1.
        -12    1    4    4    0    0  0.94687868911E+01 -0.10331442596E+02  0.22318457925E+01  0.14190763438E+02  0.00000000000E+00 0.  1.
</event>
<event>
 8    1  0.2401680E-006  0.9118800E+02  0.7816164E-02  0.1184000E+00
        -11   -1    0    0    0    0  0.00000000000E+00  0.00000000000E+00  0.45593999997E+02  0.45594000000E+02  0.51100000000E-03 0.  1.
         11   -1    0    0    0    0 -0.00000000000E+00 -0.00000000000E+00 -0.45593999997E+02  0.45594000000E+02  0.51100000000E-03 0. -1.
         23    2    1    2    0    0  0.17763568394E-14  0.00000000000E+00 -0.71054273576E-14  0.91188000000E+02  0.91188000000E+02 0.  0.
    9900012    2    3    3    0    0  0.14307819391E+02 -0.12584675165E+02 -0.31507011174E+02  0.54367088851E+02  0.40000010653E+02 0.  0.
        -12    1    3    3    0    0 -0.14307819391E+02  0.12584675165E+02  0.31507011174E+02  0.36820911149E+02  0.00000000000E+00 0.  1.
         11    1    4    4    0    0  0.46629289503E+01 -0.14083465179E+02 -0.36912730754E+02  0.39782365312E+02  0.51100000000E-03 0. -1.
        -11    1    4    4    0    0 -0.35884927062E+00  0.25999231072E+01 -0.82108767043E+00  0.27500105792E+01  0.51100000000E-03 0.  1.
         12    1    4    4    0    0  0.10003739711E+02 -0.11011330939E+01  0.62268072503E+01  0.11834712959E+02  0.00000000000E+00 0. -1.
</event>
<event>
 8    1  0.2401680E-006  0.9118800E+02  0.7816164E-02  0.1184000E+00
        -11   -1    0    0    0    0  0.00000000000E+00  0.00000000000E+00  0.45593999997E+02  0.45594000000E+02  0.51100000000E-03 0. -1.
         11   -1    0    0    0    0 -0.00000000000E+00 -0.00000000000E+00 -0.45593999997E+02  0.45594000000E+02  0.51100000000E-03 0.  1.
         23    2    1    2    0    0  0.00000000000E+00  0.00000000000E+00  0.00000000000E+00  0.91188000000E+02  0.91188000000E+02 0.  0.
    9900012    2    3    3    0    0  0.22793545149E+02  0.15395362607E+01 -0.28876744099E+02  0.54367051858E+02  0.39999926320E+02 0.  0.
         12    1    3    3    0    0 -0.22793545149E+02 -0.15395362607E+01  0.28876744099E+02  0.36820948142E+02  0.00000000000E+00 0. -1.
         11    1    4    4    0    0  0.15147732935E+02  0.50492260767E+01 -0.24979548400E+02  0.29646691815E+02  0.51100000000E-03 0.  1.
        -11    1    4    4    0    0 -0.66553284474E+00 -0.50506512726E+01 -0.11984158915E+02  0.13021984389E+02  0.51100000000E-03 0. -1.
         12    1    4    4    0    0  0.83113450587E+01  0.15409614566E+01  0.80869632161E+01  0.11698375655E+02  0.00000000000E+00 0. -1.
</event>
<event>
 8    1  0.2401680E-006  0.9118800E+02  0.7816164E-02  0.1184000E+00
        -11   -1    0    0    0    0  0.00000000000E+00  0.00000000000E+00  0.45593999997E+02  0.45594000000E+02  0.51100000000E-03 0. -1.
         11   -1    0    0    0    0 -0.00000000000E+00 -0.00000000000E+00 -0.45593999997E+02  0.45594000000E+02  0.51100000000E-03 0.  1.
         23    2    1    2    0    0  0.35527136788E-14  0.00000000000E+00  0.35527136788E-14  0.91188000000E+02  0.91188000000E+02 0.  0.
    9900012    2    3    3    0    0  0.22678593372E+02  0.38731024584E+01  0.28748220760E+02  0.54367085877E+02  0.40000003873E+02 0.  0.
        -12    1    3    3    0    0 -0.22678593372E+02 -0.38731024584E+01 -0.28748220760E+02  0.36820914123E+02  0.00000000000E+00 0.  1.
         11    1    4    4    0    0 -0.16977542039E+01  0.48632438660E+01  0.67412444048E+01  0.84839782310E+01  0.51100000000E-03 0. -1.
        -11    1    4    4    0    0 -0.77772390095E+01  0.17621538684E+01  0.38578639787E+01  0.88585409412E+01  0.51100000000E-03 0.  1.
        -12    1    4    4    0    0  0.32153586586E+02 -0.27522952760E+01  0.18149112376E+02  0.37024566705E+02  0.00000000000E+00 0.  1.
</event>
<event>
 8    1  0.2401680E-006  0.9118800E+02  0.7816164E-02  0.1184000E+00
        -11   -1    0    0    0    0  0.00000000000E+00  0.00000000000E+00  0.45593999997E+02  0.45594000000E+02  0.51100000000E-03 0. -1.
         11   -1    0    0    0    0 -0.00000000000E+00 -0.00000000000E+00 -0.45593999997E+02  0.45594000000E+02  0.51100000000E-03 0.  1.
         23    2    1    2    0    0  0.00000000000E+00  0.00000000000E+00 -0.35527136788E-14  0.91188000000E+02  0.91188000000E+02 0.  0.
    9900012    2    3    3    0    0  0.13416387951E+02  0.12975081066E+02 -0.31739995609E+02  0.54367088610E+02  0.40000010104E+02 0.  0.
         12    1    3    3    0    0 -0.13416387951E+02 -0.12975081066E+02  0.31739995609E+02  0.36820911390E+02  0.00000000000E+00 0. -1.
         11    1    4    4    0    0  0.77524101463E+01  0.24781895487E+02 -0.87687012741E+01  0.27406793488E+02  0.51100000000E-03 0. -1.
        -11    1    4    4    0    0  0.63520144598E+01 -0.92332081077E+01 -0.16341230744E+02  0.19815045853E+02  0.51100000000E-03 0.  1.
         12    1    4    4    0    0 -0.68803665518E+00 -0.25736063135E+01 -0.66300635915E+01  0.71452492694E+01  0.00000000000E+00 0. -1.
</event>
<event>
 8    1  0.2401680E-006  0.9118800E+02  0.7816164E-02  0.1184000E+00
        -11   -1    0    0    0    0  0.00000000000E+00  0.00000000000E+00  0.45593999997E+02  0.45594000000E+02  0.51100000000E-03 0. -1.
         11   -1    0    0    0    0 -0.00000000000E+00 -0.00000000000E+00 -0.45593999997E+02  0.45594000000E+02  0.51100000000E-03 0.  1.
         23    2    1    2    0    0  0.00000000000E+00  0.17763568394E-14  0.00000000000E+00  0.91188000000E+02  0.91188000000E+02 0.  0.
    9900012    2    3    3    0    0  0.24192970390E+02  0.14905108811E+02 -0.23416161205E+02  0.54367099813E+02  0.40000035645E+02 0.  0.
         12    1    3    3    0    0 -0.24192970390E+02 -0.14905108811E+02  0.23416161205E+02  0.36820900187E+02  0.00000000000E+00 0. -1.
         11    1    4    4    0    0  0.15882644312E+02 -0.23080695742E+01 -0.11032009803E+02  0.19475390011E+02  0.51100000000E-03 0. -1.
        -11    1    4    4    0    0  0.12890018897E+02 -0.16692727359E+01 -0.68334147052E+01  0.14684502560E+02  0.51100000000E-03 0.  1.
        -12    1    4    4    0    0 -0.45796928195E+01  0.18882451121E+02 -0.55507366968E+01  0.20207207243E+02  0.00000000000E+00 0.  1.
</event>
<event>
 8    1  0.2401680E-006  0.9118800E+02  0.7816164E-02  0.1184000E+00
        -11   -1    0    0    0    0  0.00000000000E+00  0.00000000000E+00  0.45593999997E+02  0.45594000000E+02  0.51100000000E-03 0.  1.
         11   -1    0    0    0    0 -0.00000000000E+00 -0.00000000000E+00 -0.45593999997E+02  0.45594000000E+02  0.51100000000E-03 0. -1.
         23    2    1    2    0    0  0.00000000000E+00  0.00000000000E+00  0.35527136788E-14  0.91188000000E+02  0.91188000000E+02 0.  0.
    9900012    2    3    3    0    0  0.21377710390E+02 -0.14327193885E+02  0.26334466518E+02  0.54367094078E+02  0.40000022570E+02 0.  0.
         12    1    3    3    0    0 -0.21377710390E+02  0.14327193885E+02 -0.26334466518E+02  0.36820905922E+02  0.00000000000E+00 0. -1.
         11    1    4    4    0    0  0.10388159759E+02 -0.55414669755E+01  0.33963676844E+02  0.35946530631E+02  0.51100000000E-03 0. -1.
        -11    1    4    4    0    0  0.46177684391E+01 -0.22513304324E+01  0.16591325492E+01  0.53986104832E+01  0.51100000000E-03 0.  1.
         12    1    4    4    0    0  0.63717821921E+01 -0.65343964767E+01 -0.92883428751E+01  0.13021952964E+02  0.00000000000E+00 0. -1.
</event>
<event>
 8    1  0.2401680E-006  0.9118800E+02  0.7816164E-02  0.1184000E+00
        -11   -1    0    0    0    0  0.00000000000E+00  0.00000000000E+00  0.45593999997E+02  0.45594000000E+02  0.51100000000E-03 0. -1.
         11   -1    0    0    0    0 -0.00000000000E+00 -0.00000000000E+00 -0.45593999997E+02  0.45594000000E+02  0.51100000000E-03 0.  1.
         23    2    1    2    0    0  0.00000000000E+00  0.88817841970E-15 -0.71054273576E-14  0.91188000000E+02  0.91188000000E+02 0.  0.
    9900012    2    3    3    0    0 -0.14203587261E+02 -0.79534304936E+01  0.33026983818E+02  0.54367073779E+02  0.39999976294E+02 0.  0.
        -12    1    3    3    0    0  0.14203587261E+02  0.79534304936E+01 -0.33026983818E+02  0.36820926221E+02  0.00000000000E+00 0.  1.
         11    1    4    4    0    0 -0.10068245375E+02 -0.19186616578E+02  0.11461006035E+02  0.24512251635E+02  0.51100000000E-03 0. -1.
        -11    1    4    4    0    0 -0.37674529990E+01  0.40838841007E+01 -0.14573715967E+01  0.57441921694E+01  0.51100000000E-03 0.  1.
         12    1    4    4    0    0 -0.36788888654E+00  0.71493019837E+01  0.23023349380E+02  0.24110629974E+02  0.00000000000E+00 0. -1.
</event>
<event>
 8    1  0.2401680E-006  0.9118800E+02  0.7816164E-02  0.1184000E+00
        -11   -1    0    0    0    0  0.00000000000E+00  0.00000000000E+00  0.45593999997E+02  0.45594000000E+02  0.51100000000E-03 0.  1.
         11   -1    0    0    0    0 -0.00000000000E+00 -0.00000000000E+00 -0.45593999997E+02  0.45594000000E+02  0.51100000000E-03 0. -1.
         23    2    1    2    0    0  0.00000000000E+00  0.00000000000E+00  0.00000000000E+00  0.91188000000E+02  0.91188000000E+02 0.  0.
    9900012    2    3    3    0    0  0.31777521591E+02 -0.15264574586E+02  0.10628241166E+02  0.54367114268E+02  0.40000068597E+02 0.  0.
         12    1    3    3    0    0 -0.31777521591E+02  0.15264574586E+02 -0.10628241166E+02  0.36820885732E+02  0.00000000000E+00 0. -1.
         11    1    4    4    0    0  0.29149055166E+00  0.35077593799E+01 -0.20715313235E+01  0.40841871768E+01  0.51100000000E-03 0. -1.
        -11    1    4    4    0    0  0.36207595075E+02 -0.21535394234E+02  0.14453037639E+02  0.44538224517E+02  0.51100000000E-03 0.  1.
        -12    1    4    4    0    0 -0.47215640354E+01  0.27630602677E+01 -0.17532651488E+01  0.57447025741E+01  0.00000000000E+00 0.  1.
</event>
<event>
 8    1  0.2401680E-006  0.9118800E+02  0.7816164E-02  0.1184000E+00
        -11   -1    0    0    0    0  0.00000000000E+00  0.00000000000E+00  0.45593999997E+02  0.45594000000E+02  0.51100000000E-03 0. -1.
         11   -1    0    0    0    0 -0.00000000000E+00 -0.00000000000E+00 -0.45593999997E+02  0.45594000000E+02  0.51100000000E-03 0.  1.
         23    2    1    2    0    0 -0.35527136788E-14  0.35527136788E-14 -0.35527136788E-14  0.91188000000E+02  0.91188000000E+02 0.  0.
    9900012    2    3    3    0    0  0.20200752644E+02 -0.18289271258E+02 -0.24763180569E+02  0.54367041805E+02  0.39999903402E+02 0.  0.
         12    1    3    3    0    0 -0.20200752644E+02  0.18289271258E+02  0.24763180569E+02  0.36820958195E+02  0.00000000000E+00 0. -1.
         11    1    4    4    0    0  0.19430120720E+00  0.37558415030E+01 -0.22111430900E+02  0.22428987384E+02  0.51100000000E-03 0. -1.
        -11    1    4    4    0    0  0.79740760361E+01 -0.16950179083E+02 -0.89115850942E+00  0.18753362987E+02  0.51100000000E-03 0.  1.
        -12    1    4    4    0    0  0.12032375401E+02 -0.50949336781E+01 -0.17605911591E+01  0.13184691434E+02  0.00000000000E+00 0.  1.
</event>
<event>
 8    1  0.2401680E-006  0.9118800E+02  0.7816164E-02  0.1184000E+00
        -11   -1    0    0    0    0  0.00000000000E+00  0.00000000000E+00  0.45593999997E+02  0.45594000000E+02  0.51100000000E-03 0. -1.
         11   -1    0    0    0    0 -0.00000000000E+00 -0.00000000000E+00 -0.45593999997E+02  0.45594000000E+02  0.51100000000E-03 0.  1.
         23    2    1    2    0    0  0.35527136788E-14  0.17763568394E-14  0.71054273576E-14  0.91188000000E+02  0.91188000000E+02 0.  0.
    9900012    2    3    3    0    0 -0.16710308687E+02 -0.10483601141E+02 -0.31090809781E+02  0.54367098842E+02  0.40000033430E+02 0.  0.
         12    1    3    3    0    0  0.16710308687E+02  0.10483601141E+02  0.31090809781E+02  0.36820901158E+02  0.00000000000E+00 0. -1.
         11    1    4    4    0    0 -0.17410053060E+02  0.10322318234E+02 -0.11354507074E+02  0.23207434853E+02  0.51100000000E-03 0. -1.
        -11    1    4    4    0    0 -0.30917195080E+00 -0.37801605334E+01  0.13618401355E+01  0.40298647334E+01  0.51100000000E-03 0.  1.
        -12    1    4    4    0    0  0.10089163244E+01 -0.17025758841E+02 -0.21098142842E+02  0.27129799256E+02  0.00000000000E+00 0.  1.
</event>
<event>
 8    1  0.2401680E-006  0.9118800E+02  0.7816164E-02  0.1184000E+00
        -11   -1    0    0    0    0  0.00000000000E+00  0.00000000000E+00  0.45593999997E+02  0.45594000000E+02  0.51100000000E-03 0.  1.
         11   -1    0    0    0    0 -0.00000000000E+00 -0.00000000000E+00 -0.45593999997E+02  0.45594000000E+02  0.51100000000E-03 0. -1.
         23    2    1    2    0    0  0.00000000000E+00  0.00000000000E+00  0.00000000000E+00  0.91188000000E+02  0.91188000000E+02 0.  0.
    9900012    2    3    3    0    0 -0.53251103018E+01  0.19929197340E+02 -0.30499902833E+02  0.54367166506E+02  0.40000187683E+02 0.  0.
        -12    1    3    3    0    0  0.53251103018E+01 -0.19929197340E+02  0.30499902833E+02  0.36820833494E+02  0.00000000000E+00 0.  1.
         11    1    4    4    0    0 -0.10053550306E+02  0.86106222839E+01 -0.38685352501E+01  0.13790658255E+02  0.51100000000E-03 0. -1.
        -11    1    4    4    0    0 -0.56794514931E+01  0.11564309375E+02 -0.27255351733E+02  0.30147033336E+02  0.51100000000E-03 0.  1.
        -12    1    4    4    0    0  0.10407891497E+02 -0.24573431840E+00  0.62398415022E+00  0.10429474915E+02  0.00000000000E+00 0.  1.
</event>
<event>
 8    1  0.2401680E-006  0.9118800E+02  0.7816164E-02  0.1184000E+00
        -11   -1    0    0    0    0  0.00000000000E+00  0.00000000000E+00  0.45593999997E+02  0.45594000000E+02  0.51100000000E-03 0. -1.
         11   -1    0    0    0    0 -0.00000000000E+00 -0.00000000000E+00 -0.45593999997E+02  0.45594000000E+02  0.51100000000E-03 0.  1.
         23    2    1    2    0    0  0.00000000000E+00  0.88817841970E-15  0.00000000000E+00  0.91188000000E+02  0.91188000000E+02 0.  0.
    9900012    2    3    3    0    0 -0.33627604329E+02  0.41507471698E+01 -0.14413035035E+02  0.54367081300E+02  0.39999993440E+02 0.  0.
         12    1    3    3    0    0  0.33627604329E+02 -0.41507471698E+01  0.14413035035E+02  0.36820918700E+02  0.00000000000E+00 0. -1.
         11    1    4    4    0    0 -0.11905188474E+02  0.13628440753E+02  0.47583559566E+01  0.18711222879E+02  0.51100000000E-03 0. -1.
        -11    1    4    4    0    0 -0.20152829705E+02 -0.97291668879E+01 -0.70963181939E+01  0.23476604644E+02  0.51100000000E-03 0.  1.
         12    1    4    4    0    0 -0.15695861506E+01  0.25147330488E+00 -0.12075072797E+02  0.12179253777E+02  0.00000000000E+00 0. -1.
</event>
<event>
 8    1  0.2401680E-006  0.9118800E+02  0.7816164E-02  0.1184000E+00
        -11   -1    0    0    0    0  0.00000000000E+00  0.00000000000E+00  0.45593999997E+02  0.45594000000E+02  0.51100000000E-03 0. -1.
         11   -1    0    0    0    0 -0.00000000000E+00 -0.00000000000E+00 -0.45593999997E+02  0.45594000000E+02  0.51100000000E-03 0.  1.
         23    2    1    2    0    0  0.00000000000E+00  0.00000000000E+00 -0.71054273576E-14  0.91188000000E+02  0.91188000000E+02 0.  0.
    9900012    2    3    3    0    0  0.19389293133E+02 -0.17071920483E+02 -0.26237087509E+02  0.54367083144E+02  0.39999997643E+02 0.  0.
         12    1    3    3    0    0 -0.19389293133E+02  0.17071920483E+02  0.26237087509E+02  0.36820916856E+02  0.00000000000E+00 0. -1.
         11    1    4    4    0    0  0.38473010965E+00 -0.13378951840E+02  0.27999425693E+01  0.13674211065E+02  0.51100000000E-03 0. -1.
        -11    1    4    4    0    0 -0.17154400458E+01 -0.70029370669E+01 -0.49362549008E+01  0.87378758757E+01  0.51100000000E-03 0.  1.
         12    1    4    4    0    0  0.20720003069E+02  0.33099684243E+01 -0.24100775178E+02  0.31954996203E+02  0.00000000000E+00 0. -1.
</event>
<event>
 8    1  0.2401680E-006  0.9118800E+02  0.7816164E-02  0.1184000E+00
        -11   -1    0    0    0    0  0.00000000000E+00  0.00000000000E+00  0.45593999997E+02  0.45594000000E+02  0.51100000000E-03 0.  1.
         11   -1    0    0    0    0 -0.00000000000E+00 -0.00000000000E+00 -0.45593999997E+02  0.45594000000E+02  0.51100000000E-03 0. -1.
         23    2    1    2    0    0  0.88817841970E-15  0.35527136788E-14  0.00000000000E+00  0.91188000000E+02  0.91188000000E+02 0.  0.
    9900012    2    3    3    0    0 -0.25930264631E+01 -0.21251970716E+02  0.29956789179E+02  0.54367092034E+02  0.40000017909E+02 0.  0.
         12    1    3    3    0    0  0.25930264631E+01  0.21251970716E+02 -0.29956789179E+02  0.36820907966E+02  0.00000000000E+00 0. -1.
         11    1    4    4    0    0  0.85523403736E+01 -0.48804596079E+01  0.37874093654E+01  0.10550160274E+02  0.51100000000E-03 0. -1.
        -11    1    4    4    0    0  0.59767625531E+01  0.16423382871E+01 -0.17477871658E+01  0.64400097751E+01  0.51100000000E-03 0.  1.
        -12    1    4    4    0    0 -0.17122129390E+02 -0.18013849395E+02  0.27917166979E+02  0.37376921984E+02  0.00000000000E+00 0.  1.
</event>
<event>
 8    1  0.2401680E-006  0.9118800E+02  0.7816164E-02  0.1184000E+00
        -11   -1    0    0    0    0  0.00000000000E+00  0.00000000000E+00  0.45593999997E+02  0.45594000000E+02  0.51100000000E-03 0.  1.
         11   -1    0    0    0    0 -0.00000000000E+00 -0.00000000000E+00 -0.45593999997E+02  0.45594000000E+02  0.51100000000E-03 0. -1.
         23    2    1    2    0    0 -0.88817841970E-15 -0.35527136788E-14 -0.35527136788E-14  0.91188000000E+02  0.91188000000E+02 0.  0.
    9900012    2    3    3    0    0 -0.71955667711E+01 -0.22950761610E+02  0.27879523226E+02  0.54367062275E+02  0.39999950069E+02 0.  0.
         12    1    3    3    0    0  0.71955667711E+01  0.22950761610E+02 -0.27879523226E+02  0.36820937725E+02  0.00000000000E+00 0. -1.
         11    1    4    4    0    0 -0.60281753955E+00 -0.14945993031E+02 -0.44680097993E+01  0.15611188568E+02  0.51100000000E-03 0. -1.
        -11    1    4    4    0    0 -0.44268373955E+01 -0.54800311924E+01  0.86443450282E+00  0.70975262216E+01  0.51100000000E-03 0.  1.
        -12    1    4    4    0    0 -0.21659118361E+01 -0.25247373861E+01  0.31483098522E+02  0.31658347486E+02  0.00000000000E+00 0.  1.
</event>
<event>
 8    1  0.2401680E-006  0.9118800E+02  0.7816164E-02  0.1184000E+00
        -11   -1    0    0    0    0  0.00000000000E+00  0.00000000000E+00  0.45593999997E+02  0.45594000000E+02  0.51100000000E-03 0. -1.
         11   -1    0    0    0    0 -0.00000000000E+00 -0.00000000000E+00 -0.45593999997E+02  0.45594000000E+02  0.51100000000E-03 0.  1.
         23    2    1    2    0    0  0.00000000000E+00  0.00000000000E+00  0.00000000000E+00  0.91188000000E+02  0.91188000000E+02 0.  0.
    9900012    2    3    3    0    0  0.72359153873E+01 -0.35114421036E+02 -0.83904252661E+01  0.54367078334E+02  0.39999986678E+02 0.  0.
         12    1    3    3    0    0 -0.72359153873E+01  0.35114421036E+02  0.83904252661E+01  0.36820921666E+02  0.00000000000E+00 0. -1.
         11    1    4    4    0    0  0.42703796108E+01 -0.41108794370E+01 -0.10391939086E+02  0.11963606061E+02  0.51100000000E-03 0.  1.
        -11    1    4    4    0    0 -0.23898674221E+00 -0.38691137100E+01 -0.11349324902E+02  0.11993095162E+02  0.51100000000E-03 0. -1.
        -12    1    4    4    0    0  0.32045225187E+01 -0.27134427889E+02  0.13350838722E+02  0.30410377111E+02  0.00000000000E+00 0.  1.
</event>
<event>
 8    1  0.2401680E-006  0.9118800E+02  0.7816164E-02  0.1184000E+00
        -11   -1    0    0    0    0  0.00000000000E+00  0.00000000000E+00  0.45593999997E+02  0.45594000000E+02  0.51100000000E-03 0.  1.
         11   -1    0    0    0    0 -0.00000000000E+00 -0.00000000000E+00 -0.45593999997E+02  0.45594000000E+02  0.51100000000E-03 0. -1.
         23    2    1    2    0    0  0.00000000000E+00  0.00000000000E+00  0.35527136788E-14  0.91188000000E+02  0.91188000000E+02 0.  0.
    9900012    2    3    3    0    0 -0.26729905266E+02 -0.14727557767E+02  0.20600857256E+02  0.54367026181E+02  0.39999867784E+02 0.  0.
         12    1    3    3    0    0  0.26729905266E+02  0.14727557767E+02 -0.20600857256E+02  0.36820973819E+02  0.00000000000E+00 0. -1.
         11    1    4    4    0    0 -0.38362083324E+00 -0.13206023591E+02  0.48343404569E+01  0.14068300250E+02  0.51100000000E-03 0. -1.
        -11    1    4    4    0    0 -0.15124562520E+02 -0.53774632962E+01 -0.46259346612E+01  0.16705351678E+02  0.51100000000E-03 0.  1.
        -12    1    4    4    0    0 -0.11221721912E+02  0.38559291197E+01  0.20392451461E+02  0.23593374253E+02  0.00000000000E+00 0.  1.
</event>
<event>
 8    1  0.2401680E-006  0.9118800E+02  0.7816164E-02  0.1184000E+00
        -11   -1    0    0    0    0  0.00000000000E+00  0.00000000000E+00  0.45593999997E+02  0.45594000000E+02  0.51100000000E-03 0. -1.
         11   -1    0    0    0    0 -0.00000000000E+00 -0.00000000000E+00 -0.45593999997E+02  0.45594000000E+02  0.51100000000E-03 0.  1.
         23    2    1    2    0    0  0.00000000000E+00 -0.71054273576E-14 -0.35527136788E-14  0.91188000000E+02  0.91188000000E+02 0.  0.
    9900012    2    3    3    0    0  0.13001089113E+02 -0.31515020281E+02 -0.13912405332E+02  0.54367084157E+02  0.39999999952E+02 0.  0.
         12    1    3    3    0    0 -0.13001089113E+02  0.31515020281E+02  0.13912405332E+02  0.36820915843E+02  0.00000000000E+00 0. -1.
         11    1    4    4    0    0 -0.18009763216E+01  0.76405397302E+00  0.85782371873E+00  0.21361544837E+01  0.51100000000E-03 0. -1.
        -11    1    4    4    0    0  0.68978683921E+01 -0.34981748926E+02 -0.45686693802E+00  0.35658267960E+02  0.51100000000E-03 0.  1.
         12    1    4    4    0    0  0.79041970430E+01  0.27026746721E+01 -0.14313362113E+02  0.16572661713E+02  0.00000000000E+00 0. -1.
</event>
<event>
 8    1  0.2401680E-006  0.9118800E+02  0.7816164E-02  0.1184000E+00
        -11   -1    0    0    0    0  0.00000000000E+00  0.00000000000E+00  0.45593999997E+02  0.45594000000E+02  0.51100000000E-03 0.  1.
         11   -1    0    0    0    0 -0.00000000000E+00 -0.00000000000E+00 -0.45593999997E+02  0.45594000000E+02  0.51100000000E-03 0. -1.
         23    2    1    2    0    0 -0.35527136788E-14  0.00000000000E+00  0.17763568394E-14  0.91188000000E+02  0.91188000000E+02 0.  0.
    9900012    2    3    3    0    0 -0.28956461592E+02 -0.19303983188E+02 -0.12027544622E+02  0.54367051282E+02  0.39999925008E+02 0.  0.
         12    1    3    3    0    0  0.28956461592E+02  0.19303983188E+02  0.12027544622E+02  0.36820948718E+02  0.00000000000E+00 0. -1.
         11    1    4    4    0    0  0.61701777621E+01 -0.11497964784E+00  0.61357969746E+01  0.87024317699E+01  0.51100000000E-03 0.  1.
        -11    1    4    4    0    0 -0.12069591187E+02 -0.28356803697E+00 -0.48538025651E+01  0.13012103667E+02  0.51100000000E-03 0. -1.
         12    1    4    4    0    0 -0.23057048167E+02 -0.18905435503E+02 -0.13309539032E+02  0.32652515845E+02  0.00000000000E+00 0. -1.
</event>
<event>
 8    1  0.2401680E-006  0.9118800E+02  0.7816164E-02  0.1184000E+00
        -11   -1    0    0    0    0  0.00000000000E+00  0.00000000000E+00  0.45593999997E+02  0.45594000000E+02  0.51100000000E-03 0. -1.
         11   -1    0    0    0    0 -0.00000000000E+00 -0.00000000000E+00 -0.45593999997E+02  0.45594000000E+02  0.51100000000E-03 0.  1.
         23    2    1    2    0    0 -0.88817841970E-15  0.00000000000E+00  0.00000000000E+00  0.91188000000E+02  0.91188000000E+02 0.  0.
    9900012    2    3    3    0    0  0.77533580396E+01  0.24472010723E+02 -0.26396705377E+02  0.54367083058E+02  0.39999997446E+02 0.  0.
         12    1    3    3    0    0 -0.77533580396E+01 -0.24472010723E+02  0.26396705377E+02  0.36820916942E+02  0.00000000000E+00 0. -1.
         11    1    4    4    0    0 -0.90833901352E+01  0.61788880588E+01 -0.31581001404E+01  0.11430670617E+02  0.51100000000E-03 0. -1.
        -11    1    4    4    0    0  0.14844804441E+02  0.14619082208E+02 -0.29068047932E+02  0.35763629490E+02  0.51100000000E-03 0.  1.
        -12    1    4    4    0    0  0.19919437342E+01  0.36740404568E+01  0.58294426954E+01  0.71727829507E+01  0.00000000000E+00 0.  1.
</event>
<event>
 8    1  0.2401680E-006  0.9118800E+02  0.7816164E-02  0.1184000E+00
        -11   -1    0    0    0    0  0.00000000000E+00  0.00000000000E+00  0.45593999997E+02  0.45594000000E+02  0.51100000000E-03 0. -1.
         11   -1    0    0    0    0 -0.00000000000E+00 -0.00000000000E+00 -0.45593999997E+02  0.45594000000E+02  0.51100000000E-03 0.  1.
         23    2    1    2    0    0 -0.17763568394E-14  0.17763568394E-14  0.00000000000E+00  0.91188000000E+02  0.91188000000E+02 0.  0.
    9900012    2    3    3    0    0 -0.94096557372E+01 -0.46345154737E+01  0.35295356293E+02  0.54367047668E+02  0.39999916768E+02 0.  0.
        -12    1    3    3    0    0  0.94096557372E+01  0.46345154737E+01 -0.35295356293E+02  0.36820952332E+02  0.00000000000E+00 0.  1.
         11    1    4    4    0    0 -0.11121781173E+02  0.12316705981E+02  0.23739359441E+02  0.28964675894E+02  0.51100000000E-03 0.  1.
        -11    1    4    4    0    0  0.74830587597E+01 -0.13898616980E+02  0.10016140915E+02  0.18694673077E+02  0.51100000000E-03 0. -1.
         12    1    4    4    0    0 -0.57709333235E+01 -0.30526044747E+01  0.15398559375E+01  0.67076986971E+01  0.00000000000E+00 0. -1.
</event>
<event>
 8    1  0.2401680E-006  0.9118800E+02  0.7816164E-02  0.1184000E+00
        -11   -1    0    0    0    0  0.00000000000E+00  0.00000000000E+00  0.45593999997E+02  0.45594000000E+02  0.51100000000E-03 0.  1.
         11   -1    0    0    0    0 -0.00000000000E+00 -0.00000000000E+00 -0.45593999997E+02  0.45594000000E+02  0.51100000000E-03 0. -1.
         23    2    1    2    0    0 -0.35527136788E-14  0.00000000000E+00  0.17763568394E-14  0.91188000000E+02  0.91188000000E+02 0.  0.
    9900012    2    3    3    0    0  0.22012748188E+02 -0.27079462921E+02 -0.11744129889E+02  0.54367041543E+02  0.39999902805E+02 0.  0.
        -12    1    3    3    0    0 -0.22012748188E+02  0.27079462921E+02  0.11744129889E+02  0.36820958457E+02  0.00000000000E+00 0.  1.
         11    1    4    4    0    0  0.11892542783E+02 -0.11018566389E+02 -0.22153666992E+02  0.27452255656E+02  0.51100000000E-03 0. -1.
        -11    1    4    4    0    0 -0.42758392151E+00  0.44506448182E+00  0.70058013955E+01  0.70329342282E+01  0.51100000000E-03 0.  1.
         12    1    4    4    0    0  0.10547789326E+02 -0.16505961013E+02  0.34037357071E+01  0.19881851659E+02  0.00000000000E+00 0. -1.
</event>
<event>
 8    1  0.2401680E-006  0.9118800E+02  0.7816164E-02  0.1184000E+00
        -11   -1    0    0    0    0  0.00000000000E+00  0.00000000000E+00  0.45593999997E+02  0.45594000000E+02  0.51100000000E-03 0.  1.
         11   -1    0    0    0    0 -0.00000000000E+00 -0.00000000000E+00 -0.45593999997E+02  0.45594000000E+02  0.51100000000E-03 0. -1.
         23    2    1    2    0    0  0.00000000000E+00  0.00000000000E+00  0.00000000000E+00  0.91188000000E+02  0.91188000000E+02 0.  0.
    9900012    2    3    3    0    0 -0.36355503162E+02 -0.42353545566E+01  0.40146832340E+01  0.54367102131E+02  0.40000040929E+02 0.  0.
         12    1    3    3    0    0  0.36355503162E+02  0.42353545566E+01 -0.40146832340E+01  0.36820897869E+02  0.00000000000E+00 0. -1.
         11    1    4    4    0    0 -0.13450609912E+02 -0.14698661739E+02  0.63084791341E+01  0.20898958662E+02  0.51100000000E-03 0. -1.
        -11    1    4    4    0    0 -0.15907435112E+02  0.11689744439E+02  0.77147023744E+01  0.21194651445E+02  0.51100000000E-03 0.  1.
         12    1    4    4    0    0 -0.69974581387E+01 -0.12264372566E+01 -0.10008498275E+02  0.12273492024E+02  0.00000000000E+00 0. -1.
</event>
<event>
 8    1  0.2401680E-006  0.9118800E+02  0.7816164E-02  0.1184000E+00
        -11   -1    0    0    0    0  0.00000000000E+00  0.00000000000E+00  0.45593999997E+02  0.45594000000E+02  0.51100000000E-03 0.  1.
         11   -1    0    0    0    0 -0.00000000000E+00 -0.00000000000E+00 -0.45593999997E+02  0.45594000000E+02  0.51100000000E-03 0. -1.
         23    2    1    2    0    0  0.00000000000E+00  0.00000000000E+00  0.00000000000E+00  0.91188000000E+02  0.91188000000E+02 0.  0.
    9900012    2    3    3    0    0  0.17326510326E+02  0.31965286281E+02  0.58131361548E+01  0.54367081502E+02  0.39999993899E+02 0.  0.
        -12    1    3    3    0    0 -0.17326510326E+02 -0.31965286281E+02 -0.58131361548E+01  0.36820918498E+02  0.00000000000E+00 0.  1.
         11    1    4    4    0    0 -0.45641192448E+01  0.65777197860E+00 -0.61698494796E+01  0.77026548227E+01  0.51100000000E-03 0. -1.
        -11    1    4    4    0    0  0.16251390398E+02  0.10012632960E+02  0.15201333277E+02  0.24401660647E+02  0.51100000000E-03 0.  1.
        -12    1    4    4    0    0  0.56392391723E+01  0.21294881343E+02 -0.32183476427E+01  0.22262766032E+02  0.00000000000E+00 0.  1.
</event>
<event>
 8    1  0.2401680E-006  0.9118800E+02  0.7816164E-02  0.1184000E+00
        -11   -1    0    0    0    0  0.00000000000E+00  0.00000000000E+00  0.45593999997E+02  0.45594000000E+02  0.51100000000E-03 0. -1.
         11   -1    0    0    0    0 -0.00000000000E+00 -0.00000000000E+00 -0.45593999997E+02  0.45594000000E+02  0.51100000000E-03 0.  1.
         23    2    1    2    0    0  0.44408920985E-15  0.00000000000E+00  0.00000000000E+00  0.91188000000E+02  0.91188000000E+02 0.  0.
    9900012    2    3    3    0    0 -0.19561063696E+01 -0.34610233554E+02 -0.12413092277E+02  0.54367089111E+02  0.40000011247E+02 0.  0.
        -12    1    3    3    0    0  0.19561063696E+01  0.34610233554E+02  0.12413092277E+02  0.36820910889E+02  0.00000000000E+00 0.  1.
         11    1    4    4    0    0  0.10066875291E+02 -0.57544326997E+01  0.19343616890E+01  0.11755731760E+02  0.51100000000E-03 0. -1.
        -11    1    4    4    0    0 -0.72046938091E+01 -0.10106334133E+00  0.39229560771E+01  0.82041094170E+01  0.51100000000E-03 0.  1.
         12    1    4    4    0    0 -0.48182878513E+01 -0.28754737513E+02 -0.18270410043E+02  0.34407247934E+02  0.00000000000E+00 0. -1.
</event>
<event>
 8    1  0.2401680E-006  0.9118800E+02  0.7816164E-02  0.1184000E+00
        -11   -1    0    0    0    0  0.00000000000E+00  0.00000000000E+00  0.45593999997E+02  0.45594000000E+02  0.51100000000E-03 0. -1.
         11   -1    0    0    0    0 -0.00000000000E+00 -0.00000000000E+00 -0.45593999997E+02  0.45594000000E+02  0.51100000000E-03 0.  1.
         23    2    1    2    0    0  0.00000000000E+00  0.17763568394E-14  0.00000000000E+00  0.91188000000E+02  0.91188000000E+02 0.  0.
    9900012    2    3    3    0    0  0.10949996579E+02 -0.10627227814E+02  0.33510261639E+02  0.54367108767E+02  0.40000056055E+02 0.  0.
        -12    1    3    3    0    0 -0.10949996579E+02  0.10627227814E+02 -0.33510261639E+02  0.36820891233E+02  0.00000000000E+00 0.  1.
         11    1    4    4    0    0  0.11587546340E+02 -0.23025591739E+02  0.29413455265E+02  0.39110106826E+02  0.51100000000E-03 0. -1.
        -11    1    4    4    0    0  0.27883126230E+01  0.47845391400E+01  0.41294346655E+01  0.69078747081E+01  0.51100000000E-03 0.  1.
        -12    1    4    4    0    0 -0.34258623842E+01  0.76138247850E+01 -0.32628290956E-01  0.83491272320E+01  0.00000000000E+00 0.  1.
</event>
<event>
 8    1  0.2401680E-006  0.9118800E+02  0.7816164E-02  0.1184000E+00
        -11   -1    0    0    0    0  0.00000000000E+00  0.00000000000E+00  0.45593999997E+02  0.45594000000E+02  0.51100000000E-03 0. -1.
         11   -1    0    0    0    0 -0.00000000000E+00 -0.00000000000E+00 -0.45593999997E+02  0.45594000000E+02  0.51100000000E-03 0.  1.
         23    2    1    2    0    0  0.00000000000E+00  0.88817841970E-15 -0.71054273576E-14  0.91188000000E+02  0.91188000000E+02 0.  0.
    9900012    2    3    3    0    0 -0.26255552879E+02 -0.49009058196E+01 -0.25345738007E+02  0.54367090587E+02  0.40000014612E+02 0.  0.
         12    1    3    3    0    0  0.26255552879E+02  0.49009058196E+01  0.25345738007E+02  0.36820909413E+02  0.00000000000E+00 0. -1.
         11    1    4    4    0    0  0.48230088189E+00  0.34452444818E+01  0.95696503906E+00  0.36080612560E+01  0.51100000000E-03 0. -1.
        -11    1    4    4    0    0  0.54591424623E+01  0.54356409517E+01 -0.84990587094E+01  0.11470938418E+02  0.51100000000E-03 0.  1.
         12    1    4    4    0    0 -0.32196996223E+02 -0.13781791253E+02 -0.17803644337E+02  0.39288090913E+02  0.00000000000E+00 0. -1.
</event>
<event>
 8    1  0.2401680E-006  0.9118800E+02  0.7816164E-02  0.1184000E+00
        -11   -1    0    0    0    0  0.00000000000E+00  0.00000000000E+00  0.45593999997E+02  0.45594000000E+02  0.51100000000E-03 0.  1.
         11   -1    0    0    0    0 -0.00000000000E+00 -0.00000000000E+00 -0.45593999997E+02  0.45594000000E+02  0.51100000000E-03 0. -1.
         23    2    1    2    0    0  0.00000000000E+00 -0.26645352591E-14  0.35527136788E-14  0.91188000000E+02  0.91188000000E+02 0.  0.
    9900012    2    3    3    0    0 -0.22560711514E+02  0.77275393213E+01 -0.28054919689E+02  0.54367094433E+02  0.40000023380E+02 0.  0.
        -12    1    3    3    0    0  0.22560711514E+02 -0.77275393213E+01  0.28054919689E+02  0.36820905567E+02  0.00000000000E+00 0.  1.
         11    1    4    4    0    0 -0.18591206283E+02  0.81645680569E+01 -0.36859730183E+01  0.20636848596E+02  0.51100000000E-03 0. -1.
        -11    1    4    4    0    0  0.73047287295E+01  0.45216149437E+00 -0.52173544276E+00  0.73372828732E+01  0.51100000000E-03 0.  1.
        -12    1    4    4    0    0 -0.11274233960E+02 -0.88919022997E+00 -0.23847211228E+02  0.26392962964E+02  0.00000000000E+00 0.  1.
</event>
<event>
 8    1  0.2401680E-006  0.9118800E+02  0.7816164E-02  0.1184000E+00
        -11   -1    0    0    0    0  0.00000000000E+00  0.00000000000E+00  0.45593999997E+02  0.45594000000E+02  0.51100000000E-03 0. -1.
         11   -1    0    0    0    0 -0.00000000000E+00 -0.00000000000E+00 -0.45593999997E+02  0.45594000000E+02  0.51100000000E-03 0.  1.
         23    2    1    2    0    0  0.00000000000E+00  0.00000000000E+00 -0.35527136788E-14  0.91188000000E+02  0.91188000000E+02 0.  0.
    9900012    2    3    3    0    0 -0.75605157382E+01 -0.30001039177E+02 -0.19963781001E+02  0.54367132251E+02  0.40000109592E+02 0.  0.
         12    1    3    3    0    0  0.75605157382E+01  0.30001039177E+02  0.19963781001E+02  0.36820867749E+02  0.00000000000E+00 0. -1.
         11    1    4    4    0    0 -0.10653491556E+01 -0.23298397747E+02  0.54858518533E+01  0.23959233653E+02  0.51100000000E-03 0. -1.
        -11    1    4    4    0    0 -0.20002902712E+00  0.24811009366E+01 -0.14775378846E+02  0.14983580806E+02  0.51100000000E-03 0.  1.
         12    1    4    4    0    0 -0.62951375555E+01 -0.91837423667E+01 -0.10674254009E+02  0.15424317792E+02  0.00000000000E+00 0. -1.
</event>
<event>
 8    1  0.2401680E-006  0.9118800E+02  0.7816164E-02  0.1184000E+00
        -11   -1    0    0    0    0  0.00000000000E+00  0.00000000000E+00  0.45593999997E+02  0.45594000000E+02  0.51100000000E-03 0. -1.
         11   -1    0    0    0    0 -0.00000000000E+00 -0.00000000000E+00 -0.45593999997E+02  0.45594000000E+02  0.51100000000E-03 0.  1.
         23    2    1    2    0    0  0.00000000000E+00  0.00000000000E+00  0.00000000000E+00  0.91188000000E+02  0.91188000000E+02 0.  0.
    9900012    2    3    3    0    0 -0.16280600581E+02 -0.31760568641E+01 -0.32872987511E+02  0.54367101038E+02  0.40000038437E+02 0.  0.
         12    1    3    3    0    0  0.16280600581E+02  0.31760568641E+01  0.32872987511E+02  0.36820898962E+02  0.00000000000E+00 0. -1.
         11    1    4    4    0    0  0.69023791621E+01 -0.59568852499E+01 -0.92327127416E+01  0.12975758352E+02  0.51100000000E-03 0. -1.
        -11    1    4    4    0    0 -0.20355607483E+02  0.11895619935E+02 -0.12374327175E+02  0.26626687795E+02  0.51100000000E-03 0.  1.
        -12    1    4    4    0    0 -0.28273722600E+01 -0.91147915489E+01 -0.11265947594E+02  0.14764654891E+02  0.00000000000E+00 0.  1.
</event>
<event>
 8    1  0.2401680E-006  0.9118800E+02  0.7816164E-02  0.1184000E+00
        -11   -1    0    0    0    0  0.00000000000E+00  0.00000000000E+00  0.45593999997E+02  0.45594000000E+02  0.51100000000E-03 0. -1.
         11   -1    0    0    0    0 -0.00000000000E+00 -0.00000000000E+00 -0.45593999997E+02  0.45594000000E+02  0.51100000000E-03 0.  1.
         23    2    1    2    0    0  0.00000000000E+00  0.35527136788E-14 -0.35527136788E-14  0.91188000000E+02  0.91188000000E+02 0.  0.
    9900012    2    3    3    0    0  0.14357234421E+02 -0.23880295184E+02  0.24070329525E+02  0.54367089613E+02  0.40000012392E+02 0.  0.
        -12    1    3    3    0    0 -0.14357234421E+02  0.23880295184E+02 -0.24070329525E+02  0.36820910387E+02  0.00000000000E+00 0.  1.
         11    1    4    4    0    0 -0.10447211902E+02 -0.18995292166E+02  0.74393486374E+01  0.22919626293E+02  0.51100000000E-03 0. -1.
        -11    1    4    4    0    0  0.13695944974E+02  0.15395462721E+01  0.97894874856E+01  0.16905122802E+02  0.51100000000E-03 0.  1.
         12    1    4    4    0    0  0.11108501349E+02 -0.64245492897E+01  0.68414934017E+01  0.14542340519E+02  0.00000000000E+00 0. -1.
</event>
<event>
 8    1  0.2401680E-006  0.9118800E+02  0.7816164E-02  0.1184000E+00
        -11   -1    0    0    0    0  0.00000000000E+00  0.00000000000E+00  0.45593999997E+02  0.45594000000E+02  0.51100000000E-03 0. -1.
         11   -1    0    0    0    0 -0.00000000000E+00 -0.00000000000E+00 -0.45593999997E+02  0.45594000000E+02  0.51100000000E-03 0.  1.
         23    2    1    2    0    0  0.00000000000E+00  0.35527136788E-14  0.00000000000E+00  0.91188000000E+02  0.91188000000E+02 0.  0.
    9900012    2    3    3    0    0  0.67275886049E+01  0.24627211899E+02 -0.26533370802E+02  0.54367085013E+02  0.40000001904E+02 0.  0.
         12    1    3    3    0    0 -0.67275886049E+01 -0.24627211899E+02  0.26533370802E+02  0.36820914987E+02  0.00000000000E+00 0. -1.
         11    1    4    4    0    0 -0.27503318381E+01 -0.11355425423E+01 -0.44641196746E+01  0.53648995159E+01  0.51100000000E-03 0. -1.
        -11    1    4    4    0    0  0.64964280946E+01  0.16047199255E+02 -0.30978082413E+02  0.35487431186E+02  0.51100000000E-03 0.  1.
        -12    1    4    4    0    0  0.29814923483E+01  0.97155551871E+01  0.89088312860E+01  0.13514754311E+02  0.00000000000E+00 0.  1.
</event>
<event>
 8    1  0.2401680E-006  0.9118800E+02  0.7816164E-02  0.1184000E+00
        -11   -1    0    0    0    0  0.00000000000E+00  0.00000000000E+00  0.45593999997E+02  0.45594000000E+02  0.51100000000E-03 0.  1.
         11   -1    0    0    0    0 -0.00000000000E+00 -0.00000000000E+00 -0.45593999997E+02  0.45594000000E+02  0.51100000000E-03 0. -1.
         23    2    1    2    0    0 -0.17763568394E-14  0.35527136788E-14  0.00000000000E+00  0.91188000000E+02  0.91188000000E+02 0.  0.
    9900012    2    3    3    0    0 -0.12854256827E+02 -0.12789397301E+02 -0.32046530577E+02  0.54367072202E+02  0.39999972698E+02 0.  0.
        -12    1    3    3    0    0  0.12854256827E+02  0.12789397301E+02  0.32046530577E+02  0.36820927798E+02  0.00000000000E+00 0.  1.
         11    1    4    4    0    0  0.83152936614E+01  0.25360038702E+01 -0.10553282944E+02  0.13672863836E+02  0.51100000000E-03 0. -1.
        -11    1    4    4    0    0 -0.49449341335E+01  0.29186163502E+01  0.26801778911E+01  0.63367222421E+01  0.51100000000E-03 0.  1.
        -12    1    4    4    0    0 -0.16224616355E+02 -0.18244017521E+02 -0.24173425524E+02  0.34357486124E+02  0.00000000000E+00 0.  1.
</event>
<event>
 8    1  0.2401680E-006  0.9118800E+02  0.7816164E-02  0.1184000E+00
        -11   -1    0    0    0    0  0.00000000000E+00  0.00000000000E+00  0.45593999997E+02  0.45594000000E+02  0.51100000000E-03 0.  1.
         11   -1    0    0    0    0 -0.00000000000E+00 -0.00000000000E+00 -0.45593999997E+02  0.45594000000E+02  0.51100000000E-03 0. -1.
         23    2    1    2    0    0 -0.66613381478E-15  0.00000000000E+00  0.00000000000E+00  0.91188000000E+02  0.91188000000E+02 0.  0.
    9900012    2    3    3    0    0 -0.65851957677E+00 -0.10613673106E+02  0.35251892095E+02  0.54367087448E+02  0.40000007456E+02 0.  0.
         12    1    3    3    0    0  0.65851957677E+00  0.10613673106E+02 -0.35251892095E+02  0.36820912552E+02  0.00000000000E+00 0. -1.
         11    1    4    4    0    0 -0.16832538659E+01 -0.13249026653E+02  0.10424477033E+01  0.13396146771E+02  0.51100000000E-03 0. -1.
        -11    1    4    4    0    0 -0.69184532177E+01  0.91651325333E+00  0.31709046497E+02  0.32467963002E+02  0.51100000000E-03 0.  1.
         12    1    4    4    0    0  0.79431875069E+01  0.17188402931E+01  0.25003978952E+01  0.85029776759E+01  0.00000000000E+00 0. -1.
</event>
<event>
 8    1  0.2401680E-006  0.9118800E+02  0.7816164E-02  0.1184000E+00
        -11   -1    0    0    0    0  0.00000000000E+00  0.00000000000E+00  0.45593999997E+02  0.45594000000E+02  0.51100000000E-03 0. -1.
         11   -1    0    0    0    0 -0.00000000000E+00 -0.00000000000E+00 -0.45593999997E+02  0.45594000000E+02  0.51100000000E-03 0.  1.
         23    2    1    2    0    0  0.00000000000E+00 -0.88817841970E-15  0.35527136788E-14  0.91188000000E+02  0.91188000000E+02 0.  0.
    9900012    2    3    3    0    0  0.26889935588E+02  0.21702254594E+01  0.25059945725E+02  0.54367090258E+02  0.40000013861E+02 0.  0.
        -12    1    3    3    0    0 -0.26889935588E+02 -0.21702254594E+01 -0.25059945725E+02  0.36820909742E+02  0.00000000000E+00 0.  1.
         11    1    4    4    0    0 -0.18229318752E+01  0.47173966341E+01  0.23727237992E+02  0.24260229484E+02  0.51100000000E-03 0. -1.
        -11    1    4    4    0    0  0.11618551597E+02 -0.40640684875E+01  0.35306685787E+01  0.12805194834E+02  0.51100000000E-03 0.  1.
         12    1    4    4    0    0  0.17094315867E+02  0.15168973128E+01 -0.21979608457E+01  0.17301665940E+02  0.00000000000E+00 0. -1.
</event>
<event>
 8    1  0.2401680E-006  0.9118800E+02  0.7816164E-02  0.1184000E+00
        -11   -1    0    0    0    0  0.00000000000E+00  0.00000000000E+00  0.45593999997E+02  0.45594000000E+02  0.51100000000E-03 0. -1.
         11   -1    0    0    0    0 -0.00000000000E+00 -0.00000000000E+00 -0.45593999997E+02  0.45594000000E+02  0.51100000000E-03 0.  1.
         23    2    1    2    0    0  0.13322676296E-14 -0.88817841970E-15 -0.71054273576E-14  0.91188000000E+02  0.91188000000E+02 0.  0.
    9900012    2    3    3    0    0 -0.34225485651E+01 -0.20021772459E+01 -0.36606777642E+02  0.54367099390E+02  0.40000034680E+02 0.  0.
         12    1    3    3    0    0  0.34225485651E+01  0.20021772459E+01  0.36606777642E+02  0.36820900610E+02  0.00000000000E+00 0. -1.
         11    1    4    4    0    0  0.96067127295E+01 -0.18085707178E+01 -0.97078032465E+00  0.98235570039E+01  0.51100000000E-03 0. -1.
        -11    1    4    4    0    0 -0.17552882459E+02  0.26385078653E+01 -0.34901965679E+02  0.39156258950E+02  0.51100000000E-03 0.  1.
        -12    1    4    4    0    0  0.45236211649E+01 -0.28321143933E+01 -0.73403163787E+00  0.53872834365E+01  0.00000000000E+00 0.  1.
</event>
<event>
 8    1  0.2401680E-006  0.9118800E+02  0.7816164E-02  0.1184000E+00
        -11   -1    0    0    0    0  0.00000000000E+00  0.00000000000E+00  0.45593999997E+02  0.45594000000E+02  0.51100000000E-03 0.  1.
         11   -1    0    0    0    0 -0.00000000000E+00 -0.00000000000E+00 -0.45593999997E+02  0.45594000000E+02  0.51100000000E-03 0. -1.
         23    2    1    2    0    0 -0.88817841970E-15  0.00000000000E+00  0.00000000000E+00  0.91188000000E+02  0.91188000000E+02 0.  0.
    9900012    2    3    3    0    0 -0.27880340407E+01  0.23084944460E+02 -0.28549824126E+02  0.54367078608E+02  0.39999987303E+02 0.  0.
        -12    1    3    3    0    0  0.27880340407E+01 -0.23084944460E+02  0.28549824126E+02  0.36820921392E+02  0.00000000000E+00 0.  1.
         11    1    4    4    0    0  0.33279757721E+01  0.11285514149E+02 -0.20891173813E+02  0.23976642716E+02  0.51100000000E-03 0. -1.
        -11    1    4    4    0    0  0.77857554005E+01 -0.36184453277E+01 -0.13337975728E+01  0.86885067746E+01  0.51100000000E-03 0.  1.
         12    1    4    4    0    0 -0.13901765213E+02  0.15417875639E+02 -0.63248527396E+01  0.21701929118E+02  0.00000000000E+00 0. -1.
</event>
<event>
 8    1  0.2401680E-006  0.9118800E+02  0.7816164E-02  0.1184000E+00
        -11   -1    0    0    0    0  0.00000000000E+00  0.00000000000E+00  0.45593999997E+02  0.45594000000E+02  0.51100000000E-03 0.  1.
         11   -1    0    0    0    0 -0.00000000000E+00 -0.00000000000E+00 -0.45593999997E+02  0.45594000000E+02  0.51100000000E-03 0. -1.
         23    2    1    2    0    0 -0.88817841970E-15  0.00000000000E+00  0.71054273576E-14  0.91188000000E+02  0.91188000000E+02 0.  0.
    9900012    2    3    3    0    0 -0.58875866573E+01 -0.19559557935E+02  0.30635543279E+02  0.54367129624E+02  0.40000103603E+02 0.  0.
         12    1    3    3    0    0  0.58875866573E+01  0.19559557935E+02 -0.30635543279E+02  0.36820870376E+02  0.00000000000E+00 0. -1.
         11    1    4    4    0    0  0.11921884761E+01 -0.42216868345E+01  0.48074201051E+01  0.65080904588E+01  0.51100000000E-03 0. -1.
        -11    1    4    4    0    0 -0.14475182168E+02 -0.83527956387E+01  0.31899583725E+02  0.36012269241E+02  0.51100000000E-03 0.  1.
         12    1    4    4    0    0  0.73954070350E+01 -0.69850754615E+01 -0.60714605505E+01  0.11846769924E+02  0.00000000000E+00 0. -1.
</event>
<event>
 8    1  0.2401680E-006  0.9118800E+02  0.7816164E-02  0.1184000E+00
        -11   -1    0    0    0    0  0.00000000000E+00  0.00000000000E+00  0.45593999997E+02  0.45594000000E+02  0.51100000000E-03 0. -1.
         11   -1    0    0    0    0 -0.00000000000E+00 -0.00000000000E+00 -0.45593999997E+02  0.45594000000E+02  0.51100000000E-03 0.  1.
         23    2    1    2    0    0  0.00000000000E+00  0.00000000000E+00  0.00000000000E+00  0.91188000000E+02  0.91188000000E+02 0.  0.
    9900012    2    3    3    0    0 -0.82433469332E+01  0.22688629574E+02 -0.27803867509E+02  0.54367058553E+02  0.39999941582E+02 0.  0.
         12    1    3    3    0    0  0.82433469332E+01 -0.22688629574E+02  0.27803867509E+02  0.36820941447E+02  0.00000000000E+00 0. -1.
         11    1    4    4    0    0 -0.66282428310E+01  0.68390810361E+00 -0.31922791999E+01  0.73886385804E+01  0.51100000000E-03 0. -1.
        -11    1    4    4    0    0  0.54307708849E+01  0.23103146568E+02 -0.26407626157E+01  0.23879327486E+02  0.51100000000E-03 0.  1.
        -12    1    4    4    0    0 -0.70458749871E+01 -0.10984250974E+01 -0.21970825693E+02  0.23099092486E+02  0.00000000000E+00 0.  1.
</event>
<event>
 8    1  0.2401680E-006  0.9118800E+02  0.7816164E-02  0.1184000E+00
        -11   -1    0    0    0    0  0.00000000000E+00  0.00000000000E+00  0.45593999997E+02  0.45594000000E+02  0.51100000000E-03 0.  1.
         11   -1    0    0    0    0 -0.00000000000E+00 -0.00000000000E+00 -0.45593999997E+02  0.45594000000E+02  0.51100000000E-03 0. -1.
         23    2    1    2    0    0 -0.35527136788E-14  0.00000000000E+00  0.35527136788E-14  0.91188000000E+02  0.91188000000E+02 0.  0.
    9900012    2    3    3    0    0  0.23080477639E+02  0.19700501222E+02 -0.20855737973E+02  0.54367081994E+02  0.39999995021E+02 0.  0.
        -12    1    3    3    0    0 -0.23080477639E+02 -0.19700501222E+02  0.20855737973E+02  0.36820918006E+02  0.00000000000E+00 0.  1.
         11    1    4    4    0    0  0.16034666958E+02  0.23709716778E+02 -0.70879175034E+01  0.29487281817E+02  0.51100000000E-03 0. -1.
        -11    1    4    4    0    0  0.11964655826E+02  0.19482225347E+01 -0.47868885226E+01  0.13033144750E+02  0.51100000000E-03 0.  1.
        -12    1    4    4    0    0 -0.49188451460E+01 -0.59574380903E+01 -0.89809319466E+01  0.11846655427E+02  0.00000000000E+00 0.  1.
</event>
<event>
 8    1  0.2401680E-006  0.9118800E+02  0.7816164E-02  0.1184000E+00
        -11   -1    0    0    0    0  0.00000000000E+00  0.00000000000E+00  0.45593999997E+02  0.45594000000E+02  0.51100000000E-03 0.  1.
         11   -1    0    0    0    0 -0.00000000000E+00 -0.00000000000E+00 -0.45593999997E+02  0.45594000000E+02  0.51100000000E-03 0. -1.
         23    2    1    2    0    0  0.00000000000E+00  0.00000000000E+00  0.00000000000E+00  0.91188000000E+02  0.91188000000E+02 0.  0.
    9900012    2    3    3    0    0  0.24663213195E+02 -0.22604492758E+02 -0.15379979531E+02  0.54367069155E+02  0.39999965752E+02 0.  0.
        -12    1    3    3    0    0 -0.24663213195E+02  0.22604492758E+02  0.15379979531E+02  0.36820930845E+02  0.00000000000E+00 0.  1.
         11    1    4    4    0    0  0.73491488746E+01 -0.27042835994E+02 -0.50715032847E+01  0.28478853797E+02  0.51100000000E-03 0. -1.
        -11    1    4    4    0    0  0.19864661858E+02  0.55799338735E+01 -0.75773974700E+01  0.21980841782E+02  0.51100000000E-03 0.  1.
         12    1    4    4    0    0 -0.25505975372E+01 -0.11415906381E+01 -0.27310787759E+01  0.39073735760E+01  0.00000000000E+00 0. -1.
</event>
<event>
 8    1  0.2401680E-006  0.9118800E+02  0.7816164E-02  0.1184000E+00
        -11   -1    0    0    0    0  0.00000000000E+00  0.00000000000E+00  0.45593999997E+02  0.45594000000E+02  0.51100000000E-03 0. -1.
         11   -1    0    0    0    0 -0.00000000000E+00 -0.00000000000E+00 -0.45593999997E+02  0.45594000000E+02  0.51100000000E-03 0.  1.
         23    2    1    2    0    0  0.71054273576E-14 -0.88817841970E-15  0.00000000000E+00  0.91188000000E+02  0.91188000000E+02 0.  0.
    9900012    2    3    3    0    0 -0.30742500607E+02 -0.55460274331E+01 -0.19491603314E+02  0.54367049937E+02  0.39999921940E+02 0.  0.
         12    1    3    3    0    0  0.30742500607E+02  0.55460274331E+01  0.19491603314E+02  0.36820950063E+02  0.00000000000E+00 0. -1.
         11    1    4    4    0    0 -0.20317700342E+02  0.37998042651E+01 -0.14777234545E+01  0.20722720056E+02  0.51100000000E-03 0. -1.
        -11    1    4    4    0    0 -0.13255164513E+02 -0.13361501708E+02 -0.20755515635E+02  0.28018218067E+02  0.51100000000E-03 0.  1.
        -12    1    4    4    0    0  0.28303642486E+01  0.40156700097E+01  0.27416357755E+01  0.56261118130E+01  0.00000000000E+00 0.  1.
</event>
<event>
 8    1  0.2401680E-006  0.9118800E+02  0.7816164E-02  0.1184000E+00
        -11   -1    0    0    0    0  0.00000000000E+00  0.00000000000E+00  0.45593999997E+02  0.45594000000E+02  0.51100000000E-03 0.  1.
         11   -1    0    0    0    0 -0.00000000000E+00 -0.00000000000E+00 -0.45593999997E+02  0.45594000000E+02  0.51100000000E-03 0. -1.
         23    2    1    2    0    0 -0.71054273576E-14 -0.44408920985E-15  0.00000000000E+00  0.91188000000E+02  0.91188000000E+02 0.  0.
    9900012    2    3    3    0    0  0.35055743917E+02 -0.22821062418E+01 -0.11030241306E+02  0.54367089993E+02  0.40000013257E+02 0.  0.
         12    1    3    3    0    0 -0.35055743917E+02  0.22821062418E+01  0.11030241306E+02  0.36820910007E+02  0.00000000000E+00 0. -1.
         11    1    4    4    0    0  0.18025237112E+02 -0.52030732200E+01 -0.10285546631E+02  0.21395644735E+02  0.51100000000E-03 0. -1.
        -11    1    4    4    0    0  0.15427894689E+02  0.57727814009E+01 -0.12558059464E+02  0.20713517262E+02  0.51100000000E-03 0.  1.
        -12    1    4    4    0    0  0.16026121164E+01 -0.28518144227E+01  0.11813364789E+02  0.12257927995E+02  0.00000000000E+00 0.  1.
</event>
<event>
 8    1  0.2401680E-006  0.9118800E+02  0.7816164E-02  0.1184000E+00
        -11   -1    0    0    0    0  0.00000000000E+00  0.00000000000E+00  0.45593999997E+02  0.45594000000E+02  0.51100000000E-03 0.  1.
         11   -1    0    0    0    0 -0.00000000000E+00 -0.00000000000E+00 -0.45593999997E+02  0.45594000000E+02  0.51100000000E-03 0. -1.
         23    2    1    2    0    0  0.00000000000E+00 -0.17763568394E-14  0.00000000000E+00  0.91188000000E+02  0.91188000000E+02 0.  0.
    9900012    2    3    3    0    0 -0.29748105049E+02 -0.10024973482E+02  0.19244017520E+02  0.54367054091E+02  0.39999931411E+02 0.  0.
         12    1    3    3    0    0  0.29748105049E+02  0.10024973482E+02 -0.19244017520E+02  0.36820945909E+02  0.00000000000E+00 0. -1.
         11    1    4    4    0    0 -0.11368496271E+02 -0.29715847997E+01  0.39115926524E+01  0.12384408788E+02  0.51100000000E-03 0. -1.
        -11    1    4    4    0    0 -0.85515932922E+01  0.28955891361E+01  0.23923112785E+02  0.25570090142E+02  0.51100000000E-03 0.  1.
         12    1    4    4    0    0 -0.98280154859E+01 -0.99489778186E+01 -0.85906879172E+01  0.16412555161E+02  0.00000000000E+00 0. -1.
</event>
<event>
 8    1  0.2401680E-006  0.9118800E+02  0.7816164E-02  0.1184000E+00
        -11   -1    0    0    0    0  0.00000000000E+00  0.00000000000E+00  0.45593999997E+02  0.45594000000E+02  0.51100000000E-03 0. -1.
         11   -1    0    0    0    0 -0.00000000000E+00 -0.00000000000E+00 -0.45593999997E+02  0.45594000000E+02  0.51100000000E-03 0.  1.
         23    2    1    2    0    0  0.00000000000E+00  0.35527136788E-14 -0.35527136788E-14  0.91188000000E+02  0.91188000000E+02 0.  0.
    9900012    2    3    3    0    0  0.18515616898E+02 -0.24887678119E+02  0.19838273173E+02  0.54367059304E+02  0.39999943294E+02 0.  0.
        -12    1    3    3    0    0 -0.18515616898E+02  0.24887678119E+02 -0.19838273173E+02  0.36820940696E+02  0.00000000000E+00 0.  1.
         11    1    4    4    0    0  0.10171063464E+02 -0.11374640292E+02  0.13042403433E+02  0.20073297221E+02  0.51100000000E-03 0. -1.
        -11    1    4    4    0    0  0.44835014310E+01 -0.20352829821E+02 -0.37181895746E+01  0.21169893736E+02  0.51100000000E-03 0.  1.
        -12    1    4    4    0    0  0.38610520032E+01  0.68397919945E+01  0.10514059315E+02  0.13123868347E+02  0.00000000000E+00 0.  1.
</event>
<event>
 8    1  0.2401680E-006  0.9118800E+02  0.7816164E-02  0.1184000E+00
        -11   -1    0    0    0    0  0.00000000000E+00  0.00000000000E+00  0.45593999997E+02  0.45594000000E+02  0.51100000000E-03 0.  1.
         11   -1    0    0    0    0 -0.00000000000E+00 -0.00000000000E+00 -0.45593999997E+02  0.45594000000E+02  0.51100000000E-03 0. -1.
         23    2    1    2    0    0  0.00000000000E+00  0.35527136788E-14  0.00000000000E+00  0.91188000000E+02  0.91188000000E+02 0.  0.
    9900012    2    3    3    0    0 -0.20975863698E+02 -0.26626054614E+02 -0.14382142332E+02  0.54367086646E+02  0.40000005626E+02 0.  0.
        -12    1    3    3    0    0  0.20975863698E+02  0.26626054614E+02  0.14382142332E+02  0.36820913354E+02  0.00000000000E+00 0.  1.
         11    1    4    4    0    0 -0.17110210739E+02 -0.17258198512E+02 -0.18106135199E+02  0.30305723214E+02  0.51100000000E-03 0. -1.
        -11    1    4    4    0    0 -0.63579190716E+01  0.42789840606E+01 -0.34948241353E+01  0.84229825780E+01  0.51100000000E-03 0.  1.
        -12    1    4    4    0    0  0.24922661127E+01 -0.13646840163E+02  0.72188170026E+01  0.15638380854E+02  0.00000000000E+00 0.  1.
</event>
<event>
 8    1  0.2401680E-006  0.9118800E+02  0.7816164E-02  0.1184000E+00
        -11   -1    0    0    0    0  0.00000000000E+00  0.00000000000E+00  0.45593999997E+02  0.45594000000E+02  0.51100000000E-03 0. -1.
         11   -1    0    0    0    0 -0.00000000000E+00 -0.00000000000E+00 -0.45593999997E+02  0.45594000000E+02  0.51100000000E-03 0.  1.
         23    2    1    2    0    0  0.35527136788E-14  0.35527136788E-14  0.17763568394E-14  0.91188000000E+02  0.91188000000E+02 0.  0.
    9900012    2    3    3    0    0 -0.24116819720E+02  0.22967000997E+02 -0.15705927456E+02  0.54367078156E+02  0.39999986271E+02 0.  0.
        -12    1    3    3    0    0  0.24116819720E+02 -0.22967000997E+02  0.15705927456E+02  0.36820921844E+02  0.00000000000E+00 0.  1.
         11    1    4    4    0    0 -0.80693366773E-01  0.20639821778E+02 -0.19005435747E+02  0.28057358084E+02  0.51100000000E-03 0. -1.
        -11    1    4    4    0    0 -0.13239774826E+02  0.43769656338E+00  0.66851557945E+01  0.14838279010E+02  0.51100000000E-03 0.  1.
         12    1    4    4    0    0 -0.10796351528E+02  0.18894826556E+01 -0.33856475036E+01  0.11471441062E+02  0.00000000000E+00 0. -1.
</event>
<event>
 8    1  0.2401680E-006  0.9118800E+02  0.7816164E-02  0.1184000E+00
        -11   -1    0    0    0    0  0.00000000000E+00  0.00000000000E+00  0.45593999997E+02  0.45594000000E+02  0.51100000000E-03 0.  1.
         11   -1    0    0    0    0 -0.00000000000E+00 -0.00000000000E+00 -0.45593999997E+02  0.45594000000E+02  0.51100000000E-03 0. -1.
         23    2    1    2    0    0  0.00000000000E+00 -0.17763568394E-14  0.35527136788E-14  0.91188000000E+02  0.91188000000E+02 0.  0.
    9900012    2    3    3    0    0 -0.33586217626E+02  0.10750816180E+02 -0.10590665402E+02  0.54367132864E+02  0.40000110991E+02 0.  0.
        -12    1    3    3    0    0  0.33586217626E+02 -0.10750816180E+02  0.10590665402E+02  0.36820867136E+02  0.00000000000E+00 0.  1.
         11    1    4    4    0    0  0.32095221841E+00 -0.15410779448E+01  0.27822450407E+00  0.15985433039E+01  0.51100000000E-03 0. -1.
        -11    1    4    4    0    0  0.27067054263E+01  0.79285194664E+01  0.77930961498E+01  0.11442028800E+02  0.51100000000E-03 0.  1.
         12    1    4    4    0    0 -0.36613875271E+02  0.43633746582E+01 -0.18661986056E+02  0.41326560761E+02  0.00000000000E+00 0. -1.
</event>
<event>
 8    1  0.2401680E-006  0.9118800E+02  0.7816164E-02  0.1184000E+00
        -11   -1    0    0    0    0  0.00000000000E+00  0.00000000000E+00  0.45593999997E+02  0.45594000000E+02  0.51100000000E-03 0.  1.
         11   -1    0    0    0    0 -0.00000000000E+00 -0.00000000000E+00 -0.45593999997E+02  0.45594000000E+02  0.51100000000E-03 0. -1.
         23    2    1    2    0    0 -0.71054273576E-14  0.35527136788E-14  0.35527136788E-14  0.91188000000E+02  0.91188000000E+02 0.  0.
    9900012    2    3    3    0    0  0.27419833080E+02 -0.18463928539E+02  0.16217767377E+02  0.54367083635E+02  0.39999998764E+02 0.  0.
         12    1    3    3    0    0 -0.27419833080E+02  0.18463928539E+02 -0.16217767377E+02  0.36820916365E+02  0.00000000000E+00 0. -1.
         11    1    4    4    0    0 -0.31697189361E+00  0.62150364508E+01  0.24616095350E+01  0.66922844403E+01  0.51100000000E-03 0. -1.
        -11    1    4    4    0    0 -0.47168597958E+01  0.24897411134E+00  0.15309638488E+01  0.49653403719E+01  0.51100000000E-03 0.  1.
        -12    1    4    4    0    0  0.32453664769E+02 -0.24927939102E+02  0.12225193993E+02  0.42709458823E+02  0.00000000000E+00 0.  1.
</event>
<event>
 8    1  0.2401680E-006  0.9118800E+02  0.7816164E-02  0.1184000E+00
        -11   -1    0    0    0    0  0.00000000000E+00  0.00000000000E+00  0.45593999997E+02  0.45594000000E+02  0.51100000000E-03 0.  1.
         11   -1    0    0    0    0 -0.00000000000E+00 -0.00000000000E+00 -0.45593999997E+02  0.45594000000E+02  0.51100000000E-03 0. -1.
         23    2    1    2    0    0  0.00000000000E+00  0.35527136788E-14 -0.35527136788E-14  0.91188000000E+02  0.91188000000E+02 0.  0.
    9900012    2    3    3    0    0 -0.19473601081E+02  0.21071159396E+02 -0.23077282587E+02  0.54367138128E+02  0.40000122991E+02 0.  0.
         12    1    3    3    0    0  0.19473601081E+02 -0.21071159396E+02  0.23077282587E+02  0.36820861872E+02  0.00000000000E+00 0. -1.
         11    1    4    4    0    0  0.40512344479E+01 -0.33785621685E+01  0.46592058649E+01  0.70381377104E+01  0.51100000000E-03 0. -1.
        -11    1    4    4    0    0 -0.34069834379E+01  0.15956107578E+02 -0.95120321141E+01  0.18886070539E+02  0.51100000000E-03 0.  1.
         12    1    4    4    0    0 -0.20117852091E+02  0.84936139864E+01 -0.18224456338E+02  0.28442929879E+02  0.00000000000E+00 0. -1.
</event>
<event>
 8    1  0.2401680E-006  0.9118800E+02  0.7816164E-02  0.1184000E+00
        -11   -1    0    0    0    0  0.00000000000E+00  0.00000000000E+00  0.45593999997E+02  0.45594000000E+02  0.51100000000E-03 0.  1.
         11   -1    0    0    0    0 -0.00000000000E+00 -0.00000000000E+00 -0.45593999997E+02  0.45594000000E+02  0.51100000000E-03 0. -1.
         23    2    1    2    0    0  0.00000000000E+00 -0.17763568394E-14  0.00000000000E+00  0.91188000000E+02  0.91188000000E+02 0.  0.
    9900012    2    3    3    0    0  0.27276232309E+02 -0.11483289276E+02  0.21907086025E+02  0.54367092900E+02  0.40000019883E+02 0.  0.
         12    1    3    3    0    0 -0.27276232309E+02  0.11483289276E+02 -0.21907086025E+02  0.36820907100E+02  0.00000000000E+00 0. -1.
         11    1    4    4    0    0  0.11425749181E+02 -0.75930767983E+01  0.25487950827E+01  0.13953455352E+02  0.51100000000E-03 0. -1.
        -11    1    4    4    0    0  0.43278388562E+01  0.11331917312E+02  0.17415414865E+02  0.21223553291E+02  0.51100000000E-03 0.  1.
        -12    1    4    4    0    0  0.11522644272E+02 -0.15222129789E+02  0.19428760776E+01  0.19190084257E+02  0.00000000000E+00 0.  1.
</event>
<event>
 8    1  0.2401680E-006  0.9118800E+02  0.7816164E-02  0.1184000E+00
        -11   -1    0    0    0    0  0.00000000000E+00  0.00000000000E+00  0.45593999997E+02  0.45594000000E+02  0.51100000000E-03 0.  1.
         11   -1    0    0    0    0 -0.00000000000E+00 -0.00000000000E+00 -0.45593999997E+02  0.45594000000E+02  0.51100000000E-03 0. -1.
         23    2    1    2    0    0 -0.35527136788E-14  0.17763568394E-14  0.00000000000E+00  0.91188000000E+02  0.91188000000E+02 0.  0.
    9900012    2    3    3    0    0 -0.25850526210E+02  0.15894365145E+02  0.20854234984E+02  0.54367086575E+02  0.40000005464E+02 0.  0.
         12    1    3    3    0    0  0.25850526210E+02 -0.15894365145E+02 -0.20854234984E+02  0.36820913425E+02  0.00000000000E+00 0. -1.
         11    1    4    4    0    0 -0.61439618026E+01  0.18685822473E+02 -0.21706975383E+01  0.19789395043E+02  0.51100000000E-03 0. -1.
        -11    1    4    4    0    0 -0.20985322198E+02 -0.28499726056E+01  0.13829308183E+02  0.25293395515E+02  0.51100000000E-03 0.  1.
        -12    1    4    4    0    0  0.12787577904E+01  0.58515277573E-01  0.91956243394E+01  0.92842960161E+01  0.00000000000E+00 0.  1.
</event>
<event>
 8    1  0.2401680E-006  0.9118800E+02  0.7816164E-02  0.1184000E+00
        -11   -1    0    0    0    0  0.00000000000E+00  0.00000000000E+00  0.45593999997E+02  0.45594000000E+02  0.51100000000E-03 0. -1.
         11   -1    0    0    0    0 -0.00000000000E+00 -0.00000000000E+00 -0.45593999997E+02  0.45594000000E+02  0.51100000000E-03 0.  1.
         23    2    1    2    0    0  0.17763568394E-14  0.00000000000E+00  0.00000000000E+00  0.91188000000E+02  0.91188000000E+02 0.  0.
    9900012    2    3    3    0    0  0.10879558161E+02 -0.18854392373E+02  0.29697255377E+02  0.54367083737E+02  0.39999998995E+02 0.  0.
        -12    1    3    3    0    0 -0.10879558161E+02  0.18854392373E+02 -0.29697255377E+02  0.36820916263E+02  0.00000000000E+00 0.  1.
         11    1    4    4    0    0  0.49755313418E+01 -0.13712862526E+02  0.51274734191E+01  0.15462519029E+02  0.51100000000E-03 0. -1.
        -11    1    4    4    0    0 -0.61727356428E+01 -0.80255530305E+01  0.24476410695E+02  0.26487862268E+02  0.51100000000E-03 0.  1.
        -12    1    4    4    0    0  0.12076762462E+02  0.28840231842E+01  0.93371263284E-01  0.12416702440E+02  0.00000000000E+00 0.  1.
</event>
<event>
 8    1  0.2401680E-006  0.9118800E+02  0.7816164E-02  0.1184000E+00
        -11   -1    0    0    0    0  0.00000000000E+00  0.00000000000E+00  0.45593999997E+02  0.45594000000E+02  0.51100000000E-03 0. -1.
         11   -1    0    0    0    0 -0.00000000000E+00 -0.00000000000E+00 -0.45593999997E+02  0.45594000000E+02  0.51100000000E-03 0.  1.
         23    2    1    2    0    0 -0.35527136788E-14  0.22204460493E-15 -0.35527136788E-14  0.91188000000E+02  0.91188000000E+02 0.  0.
    9900012    2    3    3    0    0 -0.27408036050E+02  0.83737879611E-01 -0.24588057383E+02  0.54367081787E+02  0.39999994550E+02 0.  0.
         12    1    3    3    0    0  0.27408036050E+02 -0.83737879611E-01  0.24588057383E+02  0.36820918213E+02  0.00000000000E+00 0. -1.
         11    1    4    4    0    0 -0.45241870625E+01  0.99034574574E+01  0.43193504730E+01  0.11713390925E+02  0.51100000000E-03 0. -1.
        -11    1    4    4    0    0  0.52178528584E+00  0.11144492806E+01  0.20144113417E+01  0.23605318041E+01  0.51100000000E-03 0.  1.
        -12    1    4    4    0    0 -0.23405634274E+02 -0.10934168858E+02 -0.30921819198E+02  0.40293159058E+02  0.00000000000E+00 0.  1.
</event>
<event>
 8    1  0.2401680E-006  0.9118800E+02  0.7816164E-02  0.1184000E+00
        -11   -1    0    0    0    0  0.00000000000E+00  0.00000000000E+00  0.45593999997E+02  0.45594000000E+02  0.51100000000E-03 0.  1.
         11   -1    0    0    0    0 -0.00000000000E+00 -0.00000000000E+00 -0.45593999997E+02  0.45594000000E+02  0.51100000000E-03 0. -1.
         23    2    1    2    0    0 -0.17763568394E-14  0.44408920985E-15  0.00000000000E+00  0.91188000000E+02  0.91188000000E+02 0.  0.
    9900012    2    3    3    0    0 -0.89046729665E+01  0.10655357981E+01  0.35712066193E+02  0.54367078787E+02  0.39999987712E+02 0.  0.
         12    1    3    3    0    0  0.89046729665E+01 -0.10655357981E+01 -0.35712066193E+02  0.36820921213E+02  0.00000000000E+00 0. -1.
         11    1    4    4    0    0 -0.11926759397E+02  0.78101348034E+01 -0.13079718517E+01  0.14316304900E+02  0.51100000000E-03 0. -1.
        -11    1    4    4    0    0  0.76011803694E+01 -0.74392105397E+01  0.26619580226E+02  0.28665691133E+02  0.51100000000E-03 0.  1.
        -12    1    4    4    0    0 -0.45790939385E+01  0.69461153438E+00  0.10400457819E+02  0.11385082754E+02  0.00000000000E+00 0.  1.
</event>
<event>
 8    1  0.2401680E-006  0.9118800E+02  0.7816164E-02  0.1184000E+00
        -11   -1    0    0    0    0  0.00000000000E+00  0.00000000000E+00  0.45593999997E+02  0.45594000000E+02  0.51100000000E-03 0. -1.
         11   -1    0    0    0    0 -0.00000000000E+00 -0.00000000000E+00 -0.45593999997E+02  0.45594000000E+02  0.51100000000E-03 0.  1.
         23    2    1    2    0    0  0.35527136788E-14  0.00000000000E+00 -0.44408920985E-15  0.91188000000E+02  0.91188000000E+02 0.  0.
    9900012    2    3    3    0    0 -0.28284152593E+02 -0.23475908331E+02 -0.21606146050E+01  0.54367084540E+02  0.40000000825E+02 0.  0.
         12    1    3    3    0    0  0.28284152593E+02  0.23475908331E+02  0.21606146050E+01  0.36820915460E+02  0.00000000000E+00 0. -1.
         11    1    4    4    0    0 -0.24589823003E+01 -0.17275482542E+02  0.51018631524E+01  0.18180151234E+02  0.51100000000E-03 0. -1.
        -11    1    4    4    0    0 -0.46418627781E+01  0.40992248318E+01  0.64418806094E+01  0.89357909734E+01  0.51100000000E-03 0.  1.
        -12    1    4    4    0    0 -0.21183307514E+02 -0.10299650621E+02 -0.13704358367E+02  0.27251142332E+02  0.00000000000E+00 0.  1.
</event>
<event>
 8    1  0.2401680E-006  0.9118800E+02  0.7816164E-02  0.1184000E+00
        -11   -1    0    0    0    0  0.00000000000E+00  0.00000000000E+00  0.45593999997E+02  0.45594000000E+02  0.51100000000E-03 0. -1.
         11   -1    0    0    0    0 -0.00000000000E+00 -0.00000000000E+00 -0.45593999997E+02  0.45594000000E+02  0.51100000000E-03 0.  1.
         23    2    1    2    0    0  0.71054273576E-14  0.88817841970E-15  0.88817841970E-15  0.91188000000E+02  0.91188000000E+02 0.  0.
    9900012    2    3    3    0    0 -0.35481828060E+02  0.63216258441E+01  0.75409284597E+01  0.54366964194E+02  0.39999726472E+02 0.  0.
        -12    1    3    3    0    0  0.35481828060E+02 -0.63216258441E+01 -0.75409284597E+01  0.36821035806E+02  0.00000000000E+00 0.  1.
         11    1    4    4    0    0 -0.38359167906E+02  0.10203549740E+02  0.91798560514E+01  0.40740740630E+02  0.51100000000E-03 0. -1.
        -11    1    4    4    0    0  0.17373114417E+01  0.39441700548E+01  0.21957011949E+01  0.48369238639E+01  0.51100000000E-03 0.  1.
         12    1    4    4    0    0  0.11400284040E+01 -0.78260939504E+01 -0.38346287867E+01  0.87892996999E+01  0.00000000000E+00 0. -1.
</event>
<event>
 8    1  0.2401680E-006  0.9118800E+02  0.7816164E-02  0.1184000E+00
        -11   -1    0    0    0    0  0.00000000000E+00  0.00000000000E+00  0.45593999997E+02  0.45594000000E+02  0.51100000000E-03 0.  1.
         11   -1    0    0    0    0 -0.00000000000E+00 -0.00000000000E+00 -0.45593999997E+02  0.45594000000E+02  0.51100000000E-03 0. -1.
         23    2    1    2    0    0 -0.71054273576E-14  0.17763568394E-14 -0.88817841970E-15  0.91188000000E+02  0.91188000000E+02 0.  0.
    9900012    2    3    3    0    0 -0.33807257032E+02  0.13401769185E+02 -0.57656140688E+01  0.54367077267E+02  0.39999984246E+02 0.  0.
        -12    1    3    3    0    0  0.33807257032E+02 -0.13401769185E+02  0.57656140688E+01  0.36820922733E+02  0.00000000000E+00 0.  1.
         11    1    4    4    0    0 -0.11753163500E+02  0.14308446927E+02 -0.68941226793E+01  0.19758477510E+02  0.51100000000E-03 0. -1.
        -11    1    4    4    0    0 -0.34340843020E+01  0.10039960543E+02  0.63781521595E+01  0.12380410653E+02  0.51100000000E-03 0.  1.
         12    1    4    4    0    0 -0.18620009230E+02 -0.10946638285E+02 -0.52496435490E+01  0.22228189104E+02  0.00000000000E+00 0. -1.
</event>
<event>
 8    1  0.2401680E-006  0.9118800E+02  0.7816164E-02  0.1184000E+00
        -11   -1    0    0    0    0  0.00000000000E+00  0.00000000000E+00  0.45593999997E+02  0.45594000000E+02  0.51100000000E-03 0.  1.
         11   -1    0    0    0    0 -0.00000000000E+00 -0.00000000000E+00 -0.45593999997E+02  0.45594000000E+02  0.51100000000E-03 0. -1.
         23    2    1    2    0    0 -0.17763568394E-14  0.00000000000E+00  0.35527136788E-14  0.91188000000E+02  0.91188000000E+02 0.  0.
    9900012    2    3    3    0    0 -0.85851253983E+01  0.18463351713E+02  0.30678665142E+02  0.54367078916E+02  0.39999988005E+02 0.  0.
         12    1    3    3    0    0  0.85851253983E+01 -0.18463351713E+02 -0.30678665142E+02  0.36820921084E+02  0.00000000000E+00 0. -1.
         11    1    4    4    0    0  0.11203376142E+02  0.78821857525E+01  0.34565347689E+01  0.14127707602E+02  0.51100000000E-03 0. -1.
        -11    1    4    4    0    0  0.96625228349E+00  0.64359071476E+01  0.10690536094E+01  0.65952573997E+01  0.51100000000E-03 0.  1.
        -12    1    4    4    0    0 -0.20754753823E+02  0.41452588126E+01  0.26153076764E+02  0.33644113915E+02  0.00000000000E+00 0.  1.
</event>
<event>
 8    1  0.2401680E-006  0.9118800E+02  0.7816164E-02  0.1184000E+00
        -11   -1    0    0    0    0  0.00000000000E+00  0.00000000000E+00  0.45593999997E+02  0.45594000000E+02  0.51100000000E-03 0.  1.
         11   -1    0    0    0    0 -0.00000000000E+00 -0.00000000000E+00 -0.45593999997E+02  0.45594000000E+02  0.51100000000E-03 0. -1.
         23    2    1    2    0    0  0.17763568394E-14  0.71054273576E-14 -0.17763568394E-14  0.91188000000E+02  0.91188000000E+02 0.  0.
    9900012    2    3    3    0    0  0.15416346685E+02  0.32397314183E+02 -0.82783175834E+01  0.54367078591E+02  0.39999987264E+02 0.  0.
        -12    1    3    3    0    0 -0.15416346685E+02 -0.32397314183E+02  0.82783175834E+01  0.36820921409E+02  0.00000000000E+00 0.  1.
         11    1    4    4    0    0  0.16170613214E+02  0.15614137361E+02 -0.14279718870E+02  0.26630816520E+02  0.51100000000E-03 0. -1.
        -11    1    4    4    0    0  0.29891583187E+01 -0.23733098989E+01 -0.42308437554E+01  0.56980440920E+01  0.51100000000E-03 0.  1.
        -12    1    4    4    0    0 -0.37434248475E+01  0.19156486721E+02  0.10232245042E+02  0.22038217979E+02  0.00000000000E+00 0.  1.
</event>
<event>
 8    1  0.2401680E-006  0.9118800E+02  0.7816164E-02  0.1184000E+00
        -11   -1    0    0    0    0  0.00000000000E+00  0.00000000000E+00  0.45593999997E+02  0.45594000000E+02  0.51100000000E-03 0. -1.
         11   -1    0    0    0    0 -0.00000000000E+00 -0.00000000000E+00 -0.45593999997E+02  0.45594000000E+02  0.51100000000E-03 0.  1.
         23    2    1    2    0    0  0.00000000000E+00 -0.17763568394E-14 -0.17763568394E-14  0.91188000000E+02  0.91188000000E+02 0.  0.
    9900012    2    3    3    0    0 -0.32146802261E+02 -0.14910751289E+02 -0.10001505661E+02  0.54367115775E+02  0.40000072033E+02 0.  0.
         12    1    3    3    0    0  0.32146802261E+02  0.14910751289E+02  0.10001505661E+02  0.36820884225E+02  0.00000000000E+00 0. -1.
         11    1    4    4    0    0 -0.24578185100E+02 -0.19815780415E+02  0.71453963062E+01  0.32369878358E+02  0.51100000000E-03 0. -1.
        -11    1    4    4    0    0 -0.29759369681E+01  0.76465425561E+01 -0.83847797768E+01  0.11731596058E+02  0.51100000000E-03 0.  1.
         12    1    4    4    0    0 -0.45926801925E+01 -0.27415134306E+01 -0.87621221903E+01  0.10265641359E+02  0.00000000000E+00 0. -1.
</event>
<event>
 8    1  0.2401680E-006  0.9118800E+02  0.7816164E-02  0.1184000E+00
        -11   -1    0    0    0    0  0.00000000000E+00  0.00000000000E+00  0.45593999997E+02  0.45594000000E+02  0.51100000000E-03 0.  1.
         11   -1    0    0    0    0 -0.00000000000E+00 -0.00000000000E+00 -0.45593999997E+02  0.45594000000E+02  0.51100000000E-03 0. -1.
         23    2    1    2    0    0  0.00000000000E+00  0.00000000000E+00  0.35527136788E-14  0.91188000000E+02  0.91188000000E+02 0.  0.
    9900012    2    3    3    0    0  0.92545500864E+01 -0.25862201029E+02 -0.24521049823E+02  0.54367054550E+02  0.39999932458E+02 0.  0.
         12    1    3    3    0    0 -0.92545500864E+01  0.25862201029E+02  0.24521049823E+02  0.36820945450E+02  0.00000000000E+00 0. -1.
         11    1    4    4    0    0  0.11647667554E+02 -0.16163950002E+01 -0.25606307933E+02  0.28177365002E+02  0.51100000000E-03 0. -1.
        -11    1    4    4    0    0 -0.11147819231E+01 -0.77899120980E+01  0.48720478232E+01  0.92553940750E+01  0.51100000000E-03 0.  1.
         12    1    4    4    0    0 -0.12783355444E+01 -0.16455893931E+02 -0.37867897129E+01  0.16934295473E+02  0.00000000000E+00 0. -1.
</event>
<event>
 8    1  0.2401680E-006  0.9118800E+02  0.7816164E-02  0.1184000E+00
        -11   -1    0    0    0    0  0.00000000000E+00  0.00000000000E+00  0.45593999997E+02  0.45594000000E+02  0.51100000000E-03 0. -1.
         11   -1    0    0    0    0 -0.00000000000E+00 -0.00000000000E+00 -0.45593999997E+02  0.45594000000E+02  0.51100000000E-03 0.  1.
         23    2    1    2    0    0  0.00000000000E+00 -0.17763568394E-14  0.35527136788E-14  0.91188000000E+02  0.91188000000E+02 0.  0.
    9900012    2    3    3    0    0  0.30833033223E+02  0.13528422643E+02  0.14902284191E+02  0.54367187529E+02  0.40000235610E+02 0.  0.
        -12    1    3    3    0    0 -0.30833033223E+02 -0.13528422643E+02 -0.14902284191E+02  0.36820812471E+02  0.00000000000E+00 0.  1.
         11    1    4    4    0    0  0.17490439966E+02  0.14212956772E+01  0.10263159187E+02  0.20328994278E+02  0.51100000000E-03 0. -1.
        -11    1    4    4    0    0 -0.68477708399E+01 -0.36796913383E+01 -0.87273398894E+00  0.78226439711E+01  0.51100000000E-03 0.  1.
        -12    1    4    4    0    0  0.20190364096E+02  0.15786818304E+02  0.55118589924E+01  0.26215549280E+02  0.00000000000E+00 0.  1.
</event>
<event>
 8    1  0.2401680E-006  0.9118800E+02  0.7816164E-02  0.1184000E+00
        -11   -1    0    0    0    0  0.00000000000E+00  0.00000000000E+00  0.45593999997E+02  0.45594000000E+02  0.51100000000E-03 0.  1.
         11   -1    0    0    0    0 -0.00000000000E+00 -0.00000000000E+00 -0.45593999997E+02  0.45594000000E+02  0.51100000000E-03 0. -1.
         23    2    1    2    0    0 -0.35527136788E-14 -0.35527136788E-14  0.00000000000E+00  0.91188000000E+02  0.91188000000E+02 0.  0.
    9900012    2    3    3    0    0  0.27968310696E+02  0.23429948689E+02 -0.49590544230E+01  0.54367066830E+02  0.39999960453E+02 0.  0.
         12    1    3    3    0    0 -0.27968310696E+02 -0.23429948689E+02  0.49590544230E+01  0.36820933170E+02  0.00000000000E+00 0. -1.
         11    1    4    4    0    0 -0.24898573501E+01  0.77548653730E+00  0.53183508473E+01  0.59233119949E+01  0.51100000000E-03 0. -1.
        -11    1    4    4    0    0 -0.58344906320E+00  0.61307138136E+01  0.69493038514E+01  0.92854126970E+01  0.51100000000E-03 0.  1.
         12    1    4    4    0    0  0.31041617109E+02  0.16523748338E+02 -0.17226709122E+02  0.39158342138E+02  0.00000000000E+00 0. -1.
</event>
<event>
 8    1  0.2401680E-006  0.9118800E+02  0.7816164E-02  0.1184000E+00
        -11   -1    0    0    0    0  0.00000000000E+00  0.00000000000E+00  0.45593999997E+02  0.45594000000E+02  0.51100000000E-03 0.  1.
         11   -1    0    0    0    0 -0.00000000000E+00 -0.00000000000E+00 -0.45593999997E+02  0.45594000000E+02  0.51100000000E-03 0. -1.
         23    2    1    2    0    0  0.35527136788E-14 -0.71054273576E-14 -0.17763568394E-14  0.91188000000E+02  0.91188000000E+02 0.  0.
    9900012    2    3    3    0    0 -0.11242932383E+02 -0.32495005597E+02  0.13170076531E+02  0.54367084298E+02  0.40000000275E+02 0.  0.
        -12    1    3    3    0    0  0.11242932383E+02  0.32495005597E+02 -0.13170076531E+02  0.36820915702E+02  0.00000000000E+00 0.  1.
         11    1    4    4    0    0 -0.19333542622E+02 -0.21148158171E+02  0.15939350282E+02  0.32788616196E+02  0.51100000000E-03 0.  1.
        -11    1    4    4    0    0  0.88248776993E+01 -0.92978859955E+01 -0.85451315530E+01  0.15406116445E+02  0.51100000000E-03 0. -1.
        -12    1    4    4    0    0 -0.73426745960E+00 -0.20489614303E+01  0.57758578014E+01  0.61723516577E+01  0.00000000000E+00 0.  1.
</event>
<event>
 8    1  0.2401680E-006  0.9118800E+02  0.7816164E-02  0.1184000E+00
        -11   -1    0    0    0    0  0.00000000000E+00  0.00000000000E+00  0.45593999997E+02  0.45594000000E+02  0.51100000000E-03 0. -1.
         11   -1    0    0    0    0 -0.00000000000E+00 -0.00000000000E+00 -0.45593999997E+02  0.45594000000E+02  0.51100000000E-03 0.  1.
         23    2    1    2    0    0  0.88817841970E-15  0.88817841970E-15 -0.71054273576E-14  0.91188000000E+02  0.91188000000E+02 0.  0.
    9900012    2    3    3    0    0  0.29338990820E+01 -0.77249559351E+01 -0.35881708095E+02  0.54367086325E+02  0.40000004896E+02 0.  0.
         12    1    3    3    0    0 -0.29338990820E+01  0.77249559351E+01  0.35881708095E+02  0.36820913675E+02  0.00000000000E+00 0. -1.
         11    1    4    4    0    0  0.90084726502E+01 -0.11379011308E+02  0.80288795893E+00  0.14535443137E+02  0.51100000000E-03 0. -1.
        -11    1    4    4    0    0  0.43352723808E+01  0.16111358964E+01 -0.14901042425E+02  0.15602288650E+02  0.51100000000E-03 0.  1.
         12    1    4    4    0    0 -0.10409845949E+02  0.20429194767E+01 -0.21783553629E+02  0.24229354539E+02  0.00000000000E+00 0. -1.
</event>
<event>
 8    1  0.2401680E-006  0.9118800E+02  0.7816164E-02  0.1184000E+00
        -11   -1    0    0    0    0  0.00000000000E+00  0.00000000000E+00  0.45593999997E+02  0.45594000000E+02  0.51100000000E-03 0.  1.
         11   -1    0    0    0    0 -0.00000000000E+00 -0.00000000000E+00 -0.45593999997E+02  0.45594000000E+02  0.51100000000E-03 0. -1.
         23    2    1    2    0    0  0.00000000000E+00 -0.35527136788E-14  0.35527136788E-14  0.91188000000E+02  0.91188000000E+02 0.  0.
    9900012    2    3    3    0    0  0.17073374845E+02 -0.25041772568E+02  0.20909059171E+02  0.54367092117E+02  0.40000018098E+02 0.  0.
         12    1    3    3    0    0 -0.17073374845E+02  0.25041772568E+02 -0.20909059171E+02  0.36820907883E+02  0.00000000000E+00 0. -1.
         11    1    4    4    0    0 -0.10254593403E+01  0.13576148397E+01  0.16632395006E+01  0.23792962845E+01  0.51100000000E-03 0. -1.
        -11    1    4    4    0    0  0.24413797536E+02 -0.37748379614E+01  0.11543735547E+02  0.27267943494E+02  0.51100000000E-03 0.  1.
         12    1    4    4    0    0 -0.63149633506E+01 -0.22624549447E+02  0.77020841233E+01  0.24719852338E+02  0.00000000000E+00 0. -1.
</event>
<event>
 8    1  0.2401680E-006  0.9118800E+02  0.7816164E-02  0.1184000E+00
        -11   -1    0    0    0    0  0.00000000000E+00  0.00000000000E+00  0.45593999997E+02  0.45594000000E+02  0.51100000000E-03 0. -1.
         11   -1    0    0    0    0 -0.00000000000E+00 -0.00000000000E+00 -0.45593999997E+02  0.45594000000E+02  0.51100000000E-03 0.  1.
         23    2    1    2    0    0  0.00000000000E+00  0.00000000000E+00  0.00000000000E+00  0.91188000000E+02  0.91188000000E+02 0.  0.
    9900012    2    3    3    0    0  0.24017836331E+02  0.18655980998E+02 -0.20757608782E+02  0.54367076446E+02  0.39999982375E+02 0.  0.
         12    1    3    3    0    0 -0.24017836331E+02 -0.18655980998E+02  0.20757608782E+02  0.36820923554E+02  0.00000000000E+00 0. -1.
         11    1    4    4    0    0 -0.24173185685E+01 -0.14243094570E+01  0.83699753155E+01  0.88277162128E+01  0.51100000000E-03 0. -1.
        -11    1    4    4    0    0  0.15243043479E+02  0.16895463693E+02 -0.23135086884E+02  0.32450567226E+02  0.51100000000E-03 0.  1.
         12    1    4    4    0    0  0.11192111420E+02  0.31848267628E+01 -0.59924972133E+01  0.13088793008E+02  0.00000000000E+00 0. -1.
</event>
<event>
 8    1  0.2401680E-006  0.9118800E+02  0.7816164E-02  0.1184000E+00
        -11   -1    0    0    0    0  0.00000000000E+00  0.00000000000E+00  0.45593999997E+02  0.45594000000E+02  0.51100000000E-03 0.  1.
         11   -1    0    0    0    0 -0.00000000000E+00 -0.00000000000E+00 -0.45593999997E+02  0.45594000000E+02  0.51100000000E-03 0. -1.
         23    2    1    2    0    0  0.00000000000E+00 -0.35527136788E-14  0.00000000000E+00  0.91188000000E+02  0.91188000000E+02 0.  0.
    9900012    2    3    3    0    0 -0.26656589613E+02 -0.25399931377E+02 -0.22795545636E+00  0.54367051513E+02  0.39999925534E+02 0.  0.
        -12    1    3    3    0    0  0.26656589613E+02  0.25399931377E+02  0.22795545636E+00  0.36820948487E+02  0.00000000000E+00 0.  1.
         11    1    4    4    0    0 -0.43833729222E+01  0.11771394872E+01 -0.62719562103E+01  0.77419022541E+01  0.51100000000E-03 0. -1.
        -11    1    4    4    0    0 -0.76975848950E+01  0.54901994848E+01 -0.35795126670E+01  0.10109797960E+02  0.51100000000E-03 0.  1.
         12    1    4    4    0    0 -0.14575631796E+02 -0.32067270349E+02  0.96235134209E+01  0.36515351299E+02  0.00000000000E+00 0. -1.
</event>
<event>
 8    1  0.2401680E-006  0.9118800E+02  0.7816164E-02  0.1184000E+00
        -11   -1    0    0    0    0  0.00000000000E+00  0.00000000000E+00  0.45593999997E+02  0.45594000000E+02  0.51100000000E-03 0.  1.
         11   -1    0    0    0    0 -0.00000000000E+00 -0.00000000000E+00 -0.45593999997E+02  0.45594000000E+02  0.51100000000E-03 0. -1.
         23    2    1    2    0    0  0.00000000000E+00  0.00000000000E+00  0.00000000000E+00  0.91188000000E+02  0.91188000000E+02 0.  0.
    9900012    2    3    3    0    0  0.17607767846E+02  0.76238709300E+01  0.31426508559E+02  0.54367050302E+02  0.39999922773E+02 0.  0.
         12    1    3    3    0    0 -0.17607767846E+02 -0.76238709300E+01 -0.31426508559E+02  0.36820949698E+02  0.00000000000E+00 0. -1.
         11    1    4    4    0    0  0.25574285302E+01  0.15432741895E+02  0.11917821293E+02  0.19665818766E+02  0.51100000000E-03 0.  1.
        -11    1    4    4    0    0  0.61205068891E+01  0.82795223099E+01  0.68278950931E+01  0.12354401884E+02  0.51100000000E-03 0. -1.
         12    1    4    4    0    0  0.89298324269E+01 -0.16088393275E+02  0.12680792172E+02  0.22346829651E+02  0.00000000000E+00 0. -1.
</event>
<event>
 8    1  0.2401680E-006  0.9118800E+02  0.7816164E-02  0.1184000E+00
        -11   -1    0    0    0    0  0.00000000000E+00  0.00000000000E+00  0.45593999997E+02  0.45594000000E+02  0.51100000000E-03 0.  1.
         11   -1    0    0    0    0 -0.00000000000E+00 -0.00000000000E+00 -0.45593999997E+02  0.45594000000E+02  0.51100000000E-03 0. -1.
         23    2    1    2    0    0  0.00000000000E+00 -0.17763568394E-14  0.00000000000E+00  0.91188000000E+02  0.91188000000E+02 0.  0.
    9900012    2    3    3    0    0  0.10134597384E+02 -0.10618408937E+02  0.33768635169E+02  0.54367063107E+02  0.39999951966E+02 0.  0.
         12    1    3    3    0    0 -0.10134597384E+02  0.10618408937E+02 -0.33768635169E+02  0.36820936893E+02  0.00000000000E+00 0. -1.
         11    1    4    4    0    0  0.10373615987E+01 -0.19624536873E+02  0.86354112259E+01  0.21465528036E+02  0.51100000000E-03 0. -1.
        -11    1    4    4    0    0  0.52059417507E+01  0.12330052393E+02  0.24264040049E+02  0.27710569487E+02  0.51100000000E-03 0.  1.
        -12    1    4    4    0    0  0.38912940343E+01 -0.33239244577E+01  0.86918389441E+00  0.51909655850E+01  0.00000000000E+00 0.  1.
</event>
<event>
 8    1  0.2401680E-006  0.9118800E+02  0.7816164E-02  0.1184000E+00
        -11   -1    0    0    0    0  0.00000000000E+00  0.00000000000E+00  0.45593999997E+02  0.45594000000E+02  0.51100000000E-03 0. -1.
         11   -1    0    0    0    0 -0.00000000000E+00 -0.00000000000E+00 -0.45593999997E+02  0.45594000000E+02  0.51100000000E-03 0.  1.
         23    2    1    2    0    0 -0.17763568394E-14  0.00000000000E+00  0.00000000000E+00  0.91188000000E+02  0.91188000000E+02 0.  0.
    9900012    2    3    3    0    0 -0.98454817782E+01 -0.30705223347E+02  0.17777381661E+02  0.54367088130E+02  0.40000009009E+02 0.  0.
        -12    1    3    3    0    0  0.98454817782E+01  0.30705223347E+02 -0.17777381661E+02  0.36820911870E+02  0.00000000000E+00 0.  1.
         11    1    4    4    0    0 -0.46708743541E+01 -0.11455353304E+02  0.16428100984E+02  0.20565132840E+02  0.51100000000E-03 0. -1.
        -11    1    4    4    0    0  0.94146577960E+01  0.74715015121E-01 -0.10341664761E+01  0.94715819328E+01  0.51100000000E-03 0.  1.
        -12    1    4    4    0    0 -0.14589265220E+02 -0.19324585058E+02  0.23834471535E+01  0.24330373357E+02  0.00000000000E+00 0.  1.
</event>
<event>
 8    1  0.2401680E-006  0.9118800E+02  0.7816164E-02  0.1184000E+00
        -11   -1    0    0    0    0  0.00000000000E+00  0.00000000000E+00  0.45593999997E+02  0.45594000000E+02  0.51100000000E-03 0.  1.
         11   -1    0    0    0    0 -0.00000000000E+00 -0.00000000000E+00 -0.45593999997E+02  0.45594000000E+02  0.51100000000E-03 0. -1.
         23    2    1    2    0    0 -0.44408920985E-15  0.88817841970E-15  0.71054273576E-14  0.91188000000E+02  0.91188000000E+02 0.  0.
    9900012    2    3    3    0    0  0.20151788910E+01  0.27106973221E+01  0.36665672300E+02  0.54367077264E+02  0.39999984238E+02 0.  0.
         12    1    3    3    0    0 -0.20151788910E+01 -0.27106973221E+01 -0.36665672300E+02  0.36820922736E+02  0.00000000000E+00 0. -1.
         11    1    4    4    0    0 -0.25781286844E+01  0.20112656344E+01 -0.50532612292E+01  0.60189190290E+01  0.51100000000E-03 0. -1.
        -11    1    4    4    0    0 -0.73109529776E+01  0.45510009932E+01  0.29977215801E+02  0.31189663527E+02  0.51100000000E-03 0.  1.
         12    1    4    4    0    0  0.11904260553E+02 -0.38515693055E+01  0.11741717728E+02  0.17158494708E+02  0.00000000000E+00 0. -1.
</event>
<event>
 8    1  0.2401680E-006  0.9118800E+02  0.7816164E-02  0.1184000E+00
        -11   -1    0    0    0    0  0.00000000000E+00  0.00000000000E+00  0.45593999997E+02  0.45594000000E+02  0.51100000000E-03 0. -1.
         11   -1    0    0    0    0 -0.00000000000E+00 -0.00000000000E+00 -0.45593999997E+02  0.45594000000E+02  0.51100000000E-03 0.  1.
         23    2    1    2    0    0  0.11102230246E-15  0.00000000000E+00  0.00000000000E+00  0.91188000000E+02  0.91188000000E+02 0.  0.
    9900012    2    3    3    0    0 -0.75759287216E+00 -0.14443366082E+02 -0.33861360940E+02  0.54367129078E+02  0.40000102360E+02 0.  0.
         12    1    3    3    0    0  0.75759287216E+00  0.14443366082E+02  0.33861360940E+02  0.36820870922E+02  0.00000000000E+00 0. -1.
         11    1    4    4    0    0 -0.50561560184E+01 -0.42633481473E+01 -0.12478490221E+01  0.67303772963E+01  0.51100000000E-03 0. -1.
        -11    1    4    4    0    0 -0.13306169801E+02 -0.15659703656E+01 -0.20833639182E+02  0.24769879689E+02  0.51100000000E-03 0.  1.
        -12    1    4    4    0    0  0.17604732947E+02 -0.86140475689E+01 -0.11779872735E+02  0.22866872093E+02  0.00000000000E+00 0.  1.
</event>
<event>
 8    1  0.2401680E-006  0.9118800E+02  0.7816164E-02  0.1184000E+00
        -11   -1    0    0    0    0  0.00000000000E+00  0.00000000000E+00  0.45593999997E+02  0.45594000000E+02  0.51100000000E-03 0.  1.
         11   -1    0    0    0    0 -0.00000000000E+00 -0.00000000000E+00 -0.45593999997E+02  0.45594000000E+02  0.51100000000E-03 0. -1.
         23    2    1    2    0    0  0.00000000000E+00  0.44408920985E-15  0.00000000000E+00  0.91188000000E+02  0.91188000000E+02 0.  0.
    9900012    2    3    3    0    0 -0.18411205259E+02 -0.26525015753E+01  0.31776871779E+02  0.54367111584E+02  0.40000062478E+02 0.  0.
         12    1    3    3    0    0  0.18411205259E+02  0.26525015753E+01 -0.31776871779E+02  0.36820888416E+02  0.00000000000E+00 0. -1.
         11    1    4    4    0    0 -0.16688462056E+02 -0.17059785144E+02  0.12914323055E+02  0.27135231253E+02  0.51100000000E-03 0. -1.
        -11    1    4    4    0    0  0.43048035453E+01  0.12650463491E+02  0.12798024183E+02  0.18502837170E+02  0.51100000000E-03 0.  1.
        -12    1    4    4    0    0 -0.60275467484E+01  0.17568200776E+01  0.60645245404E+01  0.87290431601E+01  0.00000000000E+00 0.  1.
</event>
<event>
 8    1  0.2401680E-006  0.9118800E+02  0.7816164E-02  0.1184000E+00
        -11   -1    0    0    0    0  0.00000000000E+00  0.00000000000E+00  0.45593999997E+02  0.45594000000E+02  0.51100000000E-03 0.  1.
         11   -1    0    0    0    0 -0.00000000000E+00 -0.00000000000E+00 -0.45593999997E+02  0.45594000000E+02  0.51100000000E-03 0. -1.
         23    2    1    2    0    0 -0.71054273576E-14  0.00000000000E+00  0.17763568394E-14  0.91188000000E+02  0.91188000000E+02 0.  0.
    9900012    2    3    3    0    0  0.32908982591E+02  0.10738687085E+02 -0.12548266465E+02  0.54367088458E+02  0.40000009758E+02 0.  0.
         12    1    3    3    0    0 -0.32908982591E+02 -0.10738687085E+02  0.12548266465E+02  0.36820911542E+02  0.00000000000E+00 0. -1.
         11    1    4    4    0    0  0.11334234691E+02  0.15700453695E+02 -0.62365683017E+01  0.20343645364E+02  0.51100000000E-03 0. -1.
        -11    1    4    4    0    0  0.12677204911E+02  0.64594006192E+01  0.55848113221E+01  0.15284812674E+02  0.51100000000E-03 0.  1.
        -12    1    4    4    0    0  0.88975429896E+01 -0.11421167228E+02 -0.11896509485E+02  0.18738630421E+02  0.00000000000E+00 0.  1.
</event>
<event>
 8    1  0.2401680E-006  0.9118800E+02  0.7816164E-02  0.1184000E+00
        -11   -1    0    0    0    0  0.00000000000E+00  0.00000000000E+00  0.45593999997E+02  0.45594000000E+02  0.51100000000E-03 0.  1.
         11   -1    0    0    0    0 -0.00000000000E+00 -0.00000000000E+00 -0.45593999997E+02  0.45594000000E+02  0.51100000000E-03 0. -1.
         23    2    1    2    0    0 -0.71054273576E-14 -0.17763568394E-14  0.33306690739E-15  0.91188000000E+02  0.91188000000E+02 0.  0.
    9900012    2    3    3    0    0 -0.33675196419E+02 -0.14879542130E+02  0.59999763868E+00  0.54367087124E+02  0.40000006716E+02 0.  0.
         12    1    3    3    0    0  0.33675196419E+02  0.14879542130E+02 -0.59999763868E+00  0.36820912876E+02  0.00000000000E+00 0. -1.
         11    1    4    4    0    0 -0.17514068722E+02 -0.88639765246E+01 -0.12576560735E+02  0.23312712481E+02  0.51100000000E-03 0. -1.
        -11    1    4    4    0    0 -0.14048351708E+00 -0.55863285297E+01 -0.45142513350E+01  0.71836806330E+01  0.51100000000E-03 0.  1.
        -12    1    4    4    0    0 -0.16020644180E+02 -0.42923707580E+00  0.17690809708E+02  0.23870694010E+02  0.00000000000E+00 0.  1.
</event>
<event>
 8    1  0.2401680E-006  0.9118800E+02  0.7816164E-02  0.1184000E+00
        -11   -1    0    0    0    0  0.00000000000E+00  0.00000000000E+00  0.45593999997E+02  0.45594000000E+02  0.51100000000E-03 0.  1.
         11   -1    0    0    0    0 -0.00000000000E+00 -0.00000000000E+00 -0.45593999997E+02  0.45594000000E+02  0.51100000000E-03 0. -1.
         23    2    1    2    0    0  0.00000000000E+00  0.88817841970E-15  0.00000000000E+00  0.91188000000E+02  0.91188000000E+02 0.  0.
    9900012    2    3    3    0    0 -0.34938399446E+02  0.63585005059E+01  0.97295523906E+01  0.54366994117E+02  0.39999794687E+02 0.  0.
         12    1    3    3    0    0  0.34938399446E+02 -0.63585005059E+01 -0.97295523906E+01  0.36821005883E+02  0.00000000000E+00 0. -1.
         11    1    4    4    0    0 -0.73940453537E+00  0.13597488671E+02  0.11022342543E+02  0.17519430716E+02  0.51100000000E-03 0.  1.
        -11    1    4    4    0    0 -0.19659204031E+02  0.47763373076E-01 -0.47402290482E+01  0.20222669363E+02  0.51100000000E-03 0. -1.
         12    1    4    4    0    0 -0.14539790880E+02 -0.72867515384E+01  0.34474388961E+01  0.16624894037E+02  0.00000000000E+00 0. -1.
</event>
<event>
 8    1  0.2401680E-006  0.9118800E+02  0.7816164E-02  0.1184000E+00
        -11   -1    0    0    0    0  0.00000000000E+00  0.00000000000E+00  0.45593999997E+02  0.45594000000E+02  0.51100000000E-03 0.  1.
         11   -1    0    0    0    0 -0.00000000000E+00 -0.00000000000E+00 -0.45593999997E+02  0.45594000000E+02  0.51100000000E-03 0. -1.
         23    2    1    2    0    0 -0.88817841970E-15  0.00000000000E+00 -0.35527136788E-14  0.91188000000E+02  0.91188000000E+02 0.  0.
    9900012    2    3    3    0    0  0.36202777155E+01 -0.24182481355E+02  0.27529633045E+02  0.54367088675E+02  0.40000010252E+02 0.  0.
         12    1    3    3    0    0 -0.36202777155E+01  0.24182481355E+02 -0.27529633045E+02  0.36820911325E+02  0.00000000000E+00 0. -1.
         11    1    4    4    0    0  0.52438259369E+01  0.13056917634E+00  0.24063990846E+02  0.24629056305E+02  0.51100000000E-03 0. -1.
        -11    1    4    4    0    0 -0.65151061129E+01 -0.19360996363E+02  0.74187394364E+01  0.21733211519E+02  0.51100000000E-03 0.  1.
         12    1    4    4    0    0  0.48915578916E+01 -0.49520541681E+01 -0.39530972372E+01  0.80048208510E+01  0.00000000000E+00 0. -1.
</event>
<event>
 8    1  0.2401680E-006  0.9118800E+02  0.7816164E-02  0.1184000E+00
        -11   -1    0    0    0    0  0.00000000000E+00  0.00000000000E+00  0.45593999997E+02  0.45594000000E+02  0.51100000000E-03 0.  1.
         11   -1    0    0    0    0 -0.00000000000E+00 -0.00000000000E+00 -0.45593999997E+02  0.45594000000E+02  0.51100000000E-03 0. -1.
         23    2    1    2    0    0  0.00000000000E+00  0.35527136788E-14  0.00000000000E+00  0.91188000000E+02  0.91188000000E+02 0.  0.
    9900012    2    3    3    0    0  0.89510410870E+01 -0.22651324338E+02  0.27614892327E+02  0.54367001792E+02  0.39999812184E+02 0.  0.
         12    1    3    3    0    0 -0.89510410870E+01  0.22651324338E+02 -0.27614892327E+02  0.36820998208E+02  0.00000000000E+00 0. -1.
         11    1    4    4    0    0  0.98048239148E-01  0.78811826663E+01  0.41480193586E+01  0.89066670835E+01  0.51100000000E-03 0. -1.
        -11    1    4    4    0    0  0.16377700775E+02 -0.20729410784E+02  0.17864613171E+02  0.31891722408E+02  0.51100000000E-03 0.  1.
        -12    1    4    4    0    0 -0.75247079275E+01 -0.98030962206E+01  0.56022597972E+01  0.13568612300E+02  0.00000000000E+00 0.  1.
</event>
<event>
 8    1  0.2401680E-006  0.9118800E+02  0.7816164E-02  0.1184000E+00
        -11   -1    0    0    0    0  0.00000000000E+00  0.00000000000E+00  0.45593999997E+02  0.45594000000E+02  0.51100000000E-03 0. -1.
         11   -1    0    0    0    0 -0.00000000000E+00 -0.00000000000E+00 -0.45593999997E+02  0.45594000000E+02  0.51100000000E-03 0.  1.
         23    2    1    2    0    0 -0.71054273576E-14  0.00000000000E+00  0.00000000000E+00  0.91188000000E+02  0.91188000000E+02 0.  0.
    9900012    2    3    3    0    0  0.17278744173E+02 -0.87170852167E+01 -0.31324726065E+02  0.54367067938E+02  0.39999962977E+02 0.  0.
         12    1    3    3    0    0 -0.17278744173E+02  0.87170852167E+01  0.31324726065E+02  0.36820932062E+02  0.00000000000E+00 0. -1.
         11    1    4    4    0    0  0.14570195965E+02 -0.58841163378E+01 -0.80720283701E+01  0.17665533612E+02  0.51100000000E-03 0. -1.
        -11    1    4    4    0    0 -0.62608739527E-01 -0.12468872048E+02 -0.23575530007E+02  0.26669876366E+02  0.51100000000E-03 0.  1.
        -12    1    4    4    0    0  0.27711569477E+01  0.96359031692E+01  0.32283231153E+00  0.10031657959E+02  0.00000000000E+00 0.  1.
</event>
<event>
 8    1  0.2401680E-006  0.9118800E+02  0.7816164E-02  0.1184000E+00
        -11   -1    0    0    0    0  0.00000000000E+00  0.00000000000E+00  0.45593999997E+02  0.45594000000E+02  0.51100000000E-03 0.  1.
         11   -1    0    0    0    0 -0.00000000000E+00 -0.00000000000E+00 -0.45593999997E+02  0.45594000000E+02  0.51100000000E-03 0. -1.
         23    2    1    2    0    0  0.00000000000E+00  0.00000000000E+00 -0.17763568394E-14  0.91188000000E+02  0.91188000000E+02 0.  0.
    9900012    2    3    3    0    0 -0.25299865631E+02 -0.21884277642E+02  0.15387485299E+02  0.54367088649E+02  0.40000010194E+02 0.  0.
         12    1    3    3    0    0  0.25299865631E+02  0.21884277642E+02 -0.15387485299E+02  0.36820911351E+02  0.00000000000E+00 0. -1.
         11    1    4    4    0    0 -0.15751168705E+02 -0.89655300624E+01  0.16651351016E+02  0.24611938887E+02  0.51100000000E-03 0. -1.
        -11    1    4    4    0    0 -0.64065295494E+01 -0.13448070968E+02 -0.11637564096E+02  0.18903098475E+02  0.51100000000E-03 0.  1.
        -12    1    4    4    0    0 -0.31421673763E+01  0.52932338776E+00  0.10373698379E+02  0.10852051287E+02  0.00000000000E+00 0.  1.
</event>
<event>
 8    1  0.2401680E-006  0.9118800E+02  0.7816164E-02  0.1184000E+00
        -11   -1    0    0    0    0  0.00000000000E+00  0.00000000000E+00  0.45593999997E+02  0.45594000000E+02  0.51100000000E-03 0. -1.
         11   -1    0    0    0    0 -0.00000000000E+00 -0.00000000000E+00 -0.45593999997E+02  0.45594000000E+02  0.51100000000E-03 0.  1.
         23    2    1    2    0    0  0.00000000000E+00  0.00000000000E+00 -0.35527136788E-14  0.91188000000E+02  0.91188000000E+02 0.  0.
    9900012    2    3    3    0    0  0.22020241408E+02  0.54614370447E+01 -0.29001051606E+02  0.54367091259E+02  0.40000016143E+02 0.  0.
         12    1    3    3    0    0 -0.22020241408E+02 -0.54614370447E+01  0.29001051606E+02  0.36820908741E+02  0.00000000000E+00 0. -1.
         11    1    4    4    0    0  0.11037361939E+02 -0.69205303732E+00  0.64152333733E+01  0.12785050468E+02  0.51100000000E-03 0. -1.
        -11    1    4    4    0    0  0.13312888162E+02  0.43992379122E+00 -0.31685483265E+02  0.34371447077E+02  0.51100000000E-03 0.  1.
        -12    1    4    4    0    0 -0.23300086933E+01  0.57135662908E+01 -0.37308017146E+01  0.72105937137E+01  0.00000000000E+00 0.  1.
</event>
<event>
 8    1  0.2401680E-006  0.9118800E+02  0.7816164E-02  0.1184000E+00
        -11   -1    0    0    0    0  0.00000000000E+00  0.00000000000E+00  0.45593999997E+02  0.45594000000E+02  0.51100000000E-03 0. -1.
         11   -1    0    0    0    0 -0.00000000000E+00 -0.00000000000E+00 -0.45593999997E+02  0.45594000000E+02  0.51100000000E-03 0.  1.
         23    2    1    2    0    0  0.00000000000E+00 -0.88817841970E-15  0.35527136788E-14  0.91188000000E+02  0.91188000000E+02 0.  0.
    9900012    2    3    3    0    0  0.19009061270E+02 -0.79561963374E+01  0.30514490347E+02  0.54367087578E+02  0.40000007750E+02 0.  0.
        -12    1    3    3    0    0 -0.19009061270E+02  0.79561963374E+01 -0.30514490347E+02  0.36820912422E+02  0.00000000000E+00 0.  1.
         11    1    4    4    0    0  0.12309091647E+02 -0.11928141108E+02  0.38151468311E+02  0.41824978447E+02  0.51100000000E-03 0. -1.
        -11    1    4    4    0    0  0.45317266637E+01 -0.71257048544E+00 -0.48499791281E+01  0.66758221258E+01  0.51100000000E-03 0.  1.
         12    1    4    4    0    0  0.21682429587E+01  0.46845152558E+01 -0.27869988369E+01  0.58662870052E+01  0.00000000000E+00 0. -1.
</event>
<event>
 8    1  0.2401680E-006  0.9118800E+02  0.7816164E-02  0.1184000E+00
        -11   -1    0    0    0    0  0.00000000000E+00  0.00000000000E+00  0.45593999997E+02  0.45594000000E+02  0.51100000000E-03 0. -1.
         11   -1    0    0    0    0 -0.00000000000E+00 -0.00000000000E+00 -0.45593999997E+02  0.45594000000E+02  0.51100000000E-03 0.  1.
         23    2    1    2    0    0  0.26645352591E-14 -0.17763568394E-14  0.00000000000E+00  0.91188000000E+02  0.91188000000E+02 0.  0.
    9900012    2    3    3    0    0  0.55294708113E+01  0.10765891720E+02 -0.34774981760E+02  0.54367097942E+02  0.40000031379E+02 0.  0.
         12    1    3    3    0    0 -0.55294708113E+01 -0.10765891720E+02  0.34774981760E+02  0.36820902058E+02  0.00000000000E+00 0. -1.
         11    1    4    4    0    0  0.82525133095E+01 -0.41751067992E+00 -0.97017704379E+01  0.12743729477E+02  0.51100000000E-03 0. -1.
        -11    1    4    4    0    0  0.14260583034E+02  0.57807543492E+01 -0.12223681209E+02  0.19651965089E+02  0.51100000000E-03 0.  1.
         12    1    4    4    0    0 -0.16983625532E+02  0.54026480504E+01 -0.12849530113E+02  0.21971403376E+02  0.00000000000E+00 0. -1.
</event>
<event>
 8    1  0.2401680E-006  0.9118800E+02  0.7816164E-02  0.1184000E+00
        -11   -1    0    0    0    0  0.00000000000E+00  0.00000000000E+00  0.45593999997E+02  0.45594000000E+02  0.51100000000E-03 0.  1.
         11   -1    0    0    0    0 -0.00000000000E+00 -0.00000000000E+00 -0.45593999997E+02  0.45594000000E+02  0.51100000000E-03 0. -1.
         23    2    1    2    0    0 -0.35527136788E-14  0.00000000000E+00 -0.35527136788E-14  0.91188000000E+02  0.91188000000E+02 0.  0.
    9900012    2    3    3    0    0  0.24599694598E+02 -0.16548547323E+02  0.21835314080E+02  0.54367077499E+02  0.39999984776E+02 0.  0.
         12    1    3    3    0    0 -0.24599694598E+02  0.16548547323E+02 -0.21835314080E+02  0.36820922501E+02  0.00000000000E+00 0. -1.
         11    1    4    4    0    0  0.67241999133E+01 -0.12801550566E+02 -0.38013997625E+01  0.14951428085E+02  0.51100000000E-03 0. -1.
        -11    1    4    4    0    0 -0.38948969301E+01  0.26712979254E+01  0.12098952478E+02  0.12988098631E+02  0.51100000000E-03 0.  1.
        -12    1    4    4    0    0  0.21770391615E+02 -0.64182946831E+01  0.13537761364E+02  0.26427550784E+02  0.00000000000E+00 0.  1.
</event>
<event>
 8    1  0.2401680E-006  0.9118800E+02  0.7816164E-02  0.1184000E+00
        -11   -1    0    0    0    0  0.00000000000E+00  0.00000000000E+00  0.45593999997E+02  0.45594000000E+02  0.51100000000E-03 0.  1.
         11   -1    0    0    0    0 -0.00000000000E+00 -0.00000000000E+00 -0.45593999997E+02  0.45594000000E+02  0.51100000000E-03 0. -1.
         23    2    1    2    0    0  0.35527136788E-14  0.00000000000E+00  0.00000000000E+00  0.91188000000E+02  0.91188000000E+02 0.  0.
    9900012    2    3    3    0    0 -0.29872007662E+02  0.10642910583E+02 -0.18712876213E+02  0.54367080354E+02  0.39999991282E+02 0.  0.
        -12    1    3    3    0    0  0.29872007662E+02 -0.10642910583E+02  0.18712876213E+02  0.36820919646E+02  0.00000000000E+00 0.  1.
         11    1    4    4    0    0 -0.19015235045E+01  0.70746550829E+01 -0.19333245743E+01  0.75765612484E+01  0.51100000000E-03 0. -1.
        -11    1    4    4    0    0 -0.65437585772E+01  0.24732633211E+01  0.10170018566E+02  0.12343706318E+02  0.51100000000E-03 0.  1.
         12    1    4    4    0    0 -0.21426725581E+02  0.10949921789E+01 -0.26949570205E+02  0.34446812787E+02  0.00000000000E+00 0. -1.
</event>
<event>
 8    1  0.2401680E-006  0.9118800E+02  0.7816164E-02  0.1184000E+00
        -11   -1    0    0    0    0  0.00000000000E+00  0.00000000000E+00  0.45593999997E+02  0.45594000000E+02  0.51100000000E-03 0.  1.
         11   -1    0    0    0    0 -0.00000000000E+00 -0.00000000000E+00 -0.45593999997E+02  0.45594000000E+02  0.51100000000E-03 0. -1.
         23    2    1    2    0    0  0.00000000000E+00  0.71054273576E-14  0.00000000000E+00  0.91188000000E+02  0.91188000000E+02 0.  0.
    9900012    2    3    3    0    0  0.16534932939E+02  0.22646107440E+02 -0.23864815865E+02  0.54367087114E+02  0.40000006694E+02 0.  0.
        -12    1    3    3    0    0 -0.16534932939E+02 -0.22646107440E+02  0.23864815865E+02  0.36820912886E+02  0.00000000000E+00 0.  1.
         11    1    4    4    0    0  0.11270255783E+01  0.97057449421E+00 -0.13821277762E+01  0.20303888677E+01  0.51100000000E-03 0. -1.
        -11    1    4    4    0    0  0.65322618879E+01 -0.10654209631E+02 -0.10411327245E+01  0.12540597507E+02  0.51100000000E-03 0.  1.
        -12    1    4    4    0    0  0.88756454723E+01  0.32329742577E+02 -0.21441555364E+02  0.39796100739E+02  0.00000000000E+00 0.  1.
</event>
<event>
 8    1  0.2401680E-006  0.9118800E+02  0.7816164E-02  0.1184000E+00
        -11   -1    0    0    0    0  0.00000000000E+00  0.00000000000E+00  0.45593999997E+02  0.45594000000E+02  0.51100000000E-03 0.  1.
         11   -1    0    0    0    0 -0.00000000000E+00 -0.00000000000E+00 -0.45593999997E+02  0.45594000000E+02  0.51100000000E-03 0. -1.
         23    2    1    2    0    0  0.00000000000E+00  0.66613381478E-15  0.00000000000E+00  0.91188000000E+02  0.91188000000E+02 0.  0.
    9900012    2    3    3    0    0  0.25820649476E+01  0.57384248834E+00 -0.36725802471E+02  0.54367069516E+02  0.39999966575E+02 0.  0.
        -12    1    3    3    0    0 -0.25820649476E+01 -0.57384248834E+00  0.36725802471E+02  0.36820930484E+02  0.00000000000E+00 0.  1.
         11    1    4    4    0    0 -0.20756264182E+01  0.60406911301E+00 -0.36765125735E+02  0.36828624670E+02  0.51100000000E-03 0. -1.
        -11    1    4    4    0    0  0.10793000156E+02 -0.18994553913E+01  0.11865371765E+01  0.11022914945E+02  0.51100000000E-03 0.  1.
        -12    1    4    4    0    0 -0.61353087901E+01  0.18692287666E+01 -0.11472139128E+01  0.65155299012E+01  0.00000000000E+00 0.  1.
</event>
<event>
 8    1  0.2401680E-006  0.9118800E+02  0.7816164E-02  0.1184000E+00
        -11   -1    0    0    0    0  0.00000000000E+00  0.00000000000E+00  0.45593999997E+02  0.45594000000E+02  0.51100000000E-03 0. -1.
         11   -1    0    0    0    0 -0.00000000000E+00 -0.00000000000E+00 -0.45593999997E+02  0.45594000000E+02  0.51100000000E-03 0.  1.
         23    2    1    2    0    0  0.17763568394E-14 -0.35527136788E-14 -0.35527136788E-14  0.91188000000E+02  0.91188000000E+02 0.  0.
    9900012    2    3    3    0    0 -0.11446118252E+02  0.26066877944E+02  0.23351337007E+02  0.54367072678E+02  0.39999973784E+02 0.  0.
        -12    1    3    3    0    0  0.11446118252E+02 -0.26066877944E+02 -0.23351337007E+02  0.36820927322E+02  0.00000000000E+00 0.  1.
         11    1    4    4    0    0 -0.19675150785E+02  0.13076303713E+02  0.12666226316E+02  0.26805495081E+02  0.51100000000E-03 0. -1.
        -11    1    4    4    0    0 -0.50760191366E+01  0.39131746913E+01 -0.23649711550E+01  0.68316905129E+01  0.51100000000E-03 0.  1.
         12    1    4    4    0    0  0.13305051669E+02  0.90773995401E+01  0.13050081846E+02  0.20729887084E+02  0.00000000000E+00 0. -1.
</event>
<event>
 8    1  0.2401680E-006  0.9118800E+02  0.7816164E-02  0.1184000E+00
        -11   -1    0    0    0    0  0.00000000000E+00  0.00000000000E+00  0.45593999997E+02  0.45594000000E+02  0.51100000000E-03 0.  1.
         11   -1    0    0    0    0 -0.00000000000E+00 -0.00000000000E+00 -0.45593999997E+02  0.45594000000E+02  0.51100000000E-03 0. -1.
         23    2    1    2    0    0 -0.35527136788E-14 -0.17763568394E-14  0.00000000000E+00  0.91188000000E+02  0.91188000000E+02 0.  0.
    9900012    2    3    3    0    0 -0.13182040306E+02  0.14754856082E+02 -0.31053281383E+02  0.54367105805E+02  0.40000049304E+02 0.  0.
        -12    1    3    3    0    0  0.13182040306E+02 -0.14754856082E+02  0.31053281383E+02  0.36820894195E+02  0.00000000000E+00 0.  1.
         11    1    4    4    0    0  0.72827571607E+01  0.31670468274E+01 -0.93692980382E+01  0.12282201898E+02  0.51100000000E-03 0. -1.
        -11    1    4    4    0    0 -0.81390915793E+01 -0.85559290855E+01 -0.11097544495E+02  0.16205067983E+02  0.51100000000E-03 0.  1.
        -12    1    4    4    0    0 -0.12325705888E+02  0.20143738340E+02 -0.10586438849E+02  0.25879835924E+02  0.00000000000E+00 0.  1.
</event>
<event>
 8    1  0.2401680E-006  0.9118800E+02  0.7816164E-02  0.1184000E+00
        -11   -1    0    0    0    0  0.00000000000E+00  0.00000000000E+00  0.45593999997E+02  0.45594000000E+02  0.51100000000E-03 0.  1.
         11   -1    0    0    0    0 -0.00000000000E+00 -0.00000000000E+00 -0.45593999997E+02  0.45594000000E+02  0.51100000000E-03 0. -1.
         23    2    1    2    0    0  0.13322676296E-14  0.00000000000E+00  0.00000000000E+00  0.91188000000E+02  0.91188000000E+02 0.  0.
    9900012    2    3    3    0    0  0.95759174184E+00  0.25429462860E+02 -0.26612138108E+02  0.54367075813E+02  0.39999980931E+02 0.  0.
        -12    1    3    3    0    0 -0.95759174184E+00 -0.25429462860E+02  0.26612138108E+02  0.36820924187E+02  0.00000000000E+00 0.  1.
         11    1    4    4    0    0  0.81605669502E+01  0.24223373257E+01 -0.21320229259E+01  0.87754255216E+01  0.51100000000E-03 0. -1.
        -11    1    4    4    0    0 -0.13845511321E+00  0.28917034952E+02 -0.15882633796E+02  0.32992001103E+02  0.51100000000E-03 0.  1.
         12    1    4    4    0    0 -0.70645200952E+01 -0.59099094172E+01 -0.85974813858E+01  0.12599649188E+02  0.00000000000E+00 0. -1.
</event>
<event>
 8    1  0.2401680E-006  0.9118800E+02  0.7816164E-02  0.1184000E+00
        -11   -1    0    0    0    0  0.00000000000E+00  0.00000000000E+00  0.45593999997E+02  0.45594000000E+02  0.51100000000E-03 0. -1.
         11   -1    0    0    0    0 -0.00000000000E+00 -0.00000000000E+00 -0.45593999997E+02  0.45594000000E+02  0.51100000000E-03 0.  1.
         23    2    1    2    0    0  0.00000000000E+00 -0.35527136788E-14  0.00000000000E+00  0.91188000000E+02  0.91188000000E+02 0.  0.
    9900012    2    3    3    0    0  0.12686611337E+02  0.31467781564E+02 -0.14304103922E+02  0.54367098697E+02  0.40000033100E+02 0.  0.
         12    1    3    3    0    0 -0.12686611337E+02 -0.31467781564E+02  0.14304103922E+02  0.36820901303E+02  0.00000000000E+00 0. -1.
         11    1    4    4    0    0  0.35512946371E+01  0.57160943718E+01 -0.93046300044E+01  0.11483099244E+02  0.51100000000E-03 0. -1.
        -11    1    4    4    0    0  0.10210195012E+02  0.93429510253E+01 -0.17440165747E+02  0.22264280756E+02  0.51100000000E-03 0.  1.
         12    1    4    4    0    0 -0.10748783122E+01  0.16408736167E+02  0.12440691829E+02  0.20619718697E+02  0.00000000000E+00 0. -1.
</event>
<event>
 8    1  0.2401680E-006  0.9118800E+02  0.7816164E-02  0.1184000E+00
        -11   -1    0    0    0    0  0.00000000000E+00  0.00000000000E+00  0.45593999997E+02  0.45594000000E+02  0.51100000000E-03 0.  1.
         11   -1    0    0    0    0 -0.00000000000E+00 -0.00000000000E+00 -0.45593999997E+02  0.45594000000E+02  0.51100000000E-03 0. -1.
         23    2    1    2    0    0 -0.17763568394E-14  0.88817841970E-15  0.00000000000E+00  0.91188000000E+02  0.91188000000E+02 0.  0.
    9900012    2    3    3    0    0  0.11963362126E+02  0.76096150743E+01 -0.33981626131E+02  0.54367093039E+02  0.40000020201E+02 0.  0.
        -12    1    3    3    0    0 -0.11963362126E+02 -0.76096150743E+01  0.33981626131E+02  0.36820906961E+02  0.00000000000E+00 0.  1.
         11    1    4    4    0    0  0.30687937065E+01  0.16511037139E+02 -0.11091787503E+02  0.20126092331E+02  0.51100000000E-03 0. -1.
        -11    1    4    4    0    0  0.82280779832E+01  0.61995866351E+01 -0.10314643359E+02  0.14578340428E+02  0.51100000000E-03 0.  1.
        -12    1    4    4    0    0  0.66649043642E+00 -0.15101008700E+02 -0.12575195268E+02  0.19662660280E+02  0.00000000000E+00 0.  1.
</event>
<event>
 8    1  0.2401680E-006  0.9118800E+02  0.7816164E-02  0.1184000E+00
        -11   -1    0    0    0    0  0.00000000000E+00  0.00000000000E+00  0.45593999997E+02  0.45594000000E+02  0.51100000000E-03 0. -1.
         11   -1    0    0    0    0 -0.00000000000E+00 -0.00000000000E+00 -0.45593999997E+02  0.45594000000E+02  0.51100000000E-03 0.  1.
         23    2    1    2    0    0 -0.35527136788E-14 -0.35527136788E-14  0.00000000000E+00  0.91188000000E+02  0.91188000000E+02 0.  0.
    9900012    2    3    3    0    0  0.19951646496E+02  0.21226577657E+02 -0.22519865761E+02  0.54367079984E+02  0.39999990440E+02 0.  0.
         12    1    3    3    0    0 -0.19951646496E+02 -0.21226577657E+02  0.22519865761E+02  0.36820920016E+02  0.00000000000E+00 0. -1.
         11    1    4    4    0    0 -0.60691758881E+01 -0.20620649122E+01 -0.99372078601E+01  0.11825189554E+02  0.51100000000E-03 0. -1.
        -11    1    4    4    0    0  0.25465771428E+02  0.10373124305E+02 -0.65014937478E+01  0.28255559514E+02  0.51100000000E-03 0.  1.
        -12    1    4    4    0    0  0.55505095601E+00  0.12915518264E+02 -0.60811641531E+01  0.14286330917E+02  0.00000000000E+00 0.  1.
</event>
<event>
 8    1  0.2401680E-006  0.9118800E+02  0.7816164E-02  0.1184000E+00
        -11   -1    0    0    0    0  0.00000000000E+00  0.00000000000E+00  0.45593999997E+02  0.45594000000E+02  0.51100000000E-03 0.  1.
         11   -1    0    0    0    0 -0.00000000000E+00 -0.00000000000E+00 -0.45593999997E+02  0.45594000000E+02  0.51100000000E-03 0. -1.
         23    2    1    2    0    0  0.88817841970E-15  0.00000000000E+00 -0.17763568394E-14  0.91188000000E+02  0.91188000000E+02 0.  0.
    9900012    2    3    3    0    0  0.77871959214E+01  0.34932765300E+02 -0.86511286417E+01  0.54367074718E+02  0.39999978434E+02 0.  0.
        -12    1    3    3    0    0 -0.77871959214E+01 -0.34932765300E+02  0.86511286417E+01  0.36820925282E+02  0.00000000000E+00 0.  1.
         11    1    4    4    0    0  0.42215203458E+01  0.19343509715E+02 -0.60050759589E+00  0.19807907809E+02  0.51100000000E-03 0. -1.
        -11    1    4    4    0    0  0.27491188285E+01  0.22181075957E+02 -0.13374401453E+02  0.26046734909E+02  0.51100000000E-03 0.  1.
        -12    1    4    4    0    0  0.81655674711E+00 -0.65918203717E+01  0.53237804069E+01  0.85124320000E+01  0.00000000000E+00 0.  1.
</event>
<event>
 8    1  0.2401680E-006  0.9118800E+02  0.7816164E-02  0.1184000E+00
        -11   -1    0    0    0    0  0.00000000000E+00  0.00000000000E+00  0.45593999997E+02  0.45594000000E+02  0.51100000000E-03 0. -1.
         11   -1    0    0    0    0 -0.00000000000E+00 -0.00000000000E+00 -0.45593999997E+02  0.45594000000E+02  0.51100000000E-03 0.  1.
         23    2    1    2    0    0 -0.17763568394E-14 -0.17763568394E-14  0.00000000000E+00  0.91188000000E+02  0.91188000000E+02 0.  0.
    9900012    2    3    3    0    0  0.83818802916E+01 -0.13952704761E+02 -0.33027946991E+02  0.54367093305E+02  0.40000020808E+02 0.  0.
         12    1    3    3    0    0 -0.83818802916E+01  0.13952704761E+02  0.33027946991E+02  0.36820906695E+02  0.00000000000E+00 0. -1.
         11    1    4    4    0    0  0.59633982872E+01  0.11274974915E+02 -0.15128553966E+02  0.19787883257E+02  0.51100000000E-03 0. -1.
        -11    1    4    4    0    0 -0.43525724645E+01 -0.21249682295E+02 -0.13943962130E+02  0.25786197177E+02  0.51100000000E-03 0.  1.
         12    1    4    4    0    0  0.67710544689E+01 -0.39779973808E+01 -0.39554308949E+01  0.87930128709E+01  0.00000000000E+00 0. -1.
</event>
<event>
 8    1  0.2401680E-006  0.9118800E+02  0.7816164E-02  0.1184000E+00
        -11   -1    0    0    0    0  0.00000000000E+00  0.00000000000E+00  0.45593999997E+02  0.45594000000E+02  0.51100000000E-03 0. -1.
         11   -1    0    0    0    0 -0.00000000000E+00 -0.00000000000E+00 -0.45593999997E+02  0.45594000000E+02  0.51100000000E-03 0.  1.
         23    2    1    2    0    0  0.00000000000E+00 -0.35527136788E-14  0.00000000000E+00  0.91188000000E+02  0.91188000000E+02 0.  0.
    9900012    2    3    3    0    0  0.26893295002E+02  0.24958951172E+02 -0.30954715348E+01  0.54367075192E+02  0.39999979516E+02 0.  0.
        -12    1    3    3    0    0 -0.26893295002E+02 -0.24958951172E+02  0.30954715348E+01  0.36820924808E+02  0.00000000000E+00 0.  1.
         11    1    4    4    0    0  0.74249851901E+01  0.82026251396E+00 -0.45453434615E+01  0.87443343434E+01  0.51100000000E-03 0. -1.
        -11    1    4    4    0    0  0.11698912427E+01  0.24089246994E+02 -0.74944349536E+01  0.25255237512E+02  0.51100000000E-03 0.  1.
        -12    1    4    4    0    0  0.18298418569E+02  0.49441663946E-01  0.89443068803E+01  0.20367503337E+02  0.00000000000E+00 0.  1.
</event>
<event>
 8    1  0.2401680E-006  0.9118800E+02  0.7816164E-02  0.1184000E+00
        -11   -1    0    0    0    0  0.00000000000E+00  0.00000000000E+00  0.45593999997E+02  0.45594000000E+02  0.51100000000E-03 0.  1.
         11   -1    0    0    0    0 -0.00000000000E+00 -0.00000000000E+00 -0.45593999997E+02  0.45594000000E+02  0.51100000000E-03 0. -1.
         23    2    1    2    0    0 -0.17763568394E-14  0.00000000000E+00  0.00000000000E+00  0.91188000000E+02  0.91188000000E+02 0.  0.
    9900012    2    3    3    0    0  0.14110530173E+02  0.33627840122E+02  0.50834509755E+01  0.54367079766E+02  0.39999989943E+02 0.  0.
         12    1    3    3    0    0 -0.14110530173E+02 -0.33627840122E+02 -0.50834509755E+01  0.36820920234E+02  0.00000000000E+00 0. -1.
         11    1    4    4    0    0  0.19642342401E+01  0.20640442091E+01 -0.40456302703E+01  0.49482945741E+01  0.51100000000E-03 0. -1.
        -11    1    4    4    0    0  0.15707752733E+02  0.11806351657E+01 -0.38059086034E+01  0.16205318135E+02  0.51100000000E-03 0.  1.
        -12    1    4    4    0    0 -0.35614568003E+01  0.30383160747E+02  0.12934989849E+02  0.33213467057E+02  0.00000000000E+00 0.  1.
</event>
<event>
 8    1  0.2401680E-006  0.9118800E+02  0.7816164E-02  0.1184000E+00
        -11   -1    0    0    0    0  0.00000000000E+00  0.00000000000E+00  0.45593999997E+02  0.45594000000E+02  0.51100000000E-03 0.  1.
         11   -1    0    0    0    0 -0.00000000000E+00 -0.00000000000E+00 -0.45593999997E+02  0.45594000000E+02  0.51100000000E-03 0. -1.
         23    2    1    2    0    0  0.00000000000E+00  0.00000000000E+00  0.49960036108E-15  0.91188000000E+02  0.91188000000E+02 0.  0.
    9900012    2    3    3    0    0  0.33100279365E+02 -0.16125706680E+02 -0.32462450190E+00  0.54367186714E+02  0.40000233751E+02 0.  0.
         12    1    3    3    0    0 -0.33100279365E+02  0.16125706680E+02  0.32462450190E+00  0.36820813286E+02  0.00000000000E+00 0. -1.
         11    1    4    4    0    0  0.15587689362E+02 -0.16141300599E+02 -0.51914167075E+01  0.23031900754E+02  0.51100000000E-03 0.  1.
        -11    1    4    4    0    0 -0.40160809060E+00  0.13492706698E+01 -0.87068580862E+01  0.88199318815E+01  0.51100000000E-03 0. -1.
        -12    1    4    4    0    0  0.17914198094E+02 -0.13336767509E+01  0.13573650292E+02  0.22515354078E+02  0.00000000000E+00 0.  1.
</event>
<event>
 8    1  0.2401680E-006  0.9118800E+02  0.7816164E-02  0.1184000E+00
        -11   -1    0    0    0    0  0.00000000000E+00  0.00000000000E+00  0.45593999997E+02  0.45594000000E+02  0.51100000000E-03 0.  1.
         11   -1    0    0    0    0 -0.00000000000E+00 -0.00000000000E+00 -0.45593999997E+02  0.45594000000E+02  0.51100000000E-03 0. -1.
         23    2    1    2    0    0  0.00000000000E+00  0.88817841970E-15  0.00000000000E+00  0.91188000000E+02  0.91188000000E+02 0.  0.
    9900012    2    3    3    0    0  0.86078021536E+01  0.48098517836E+01  0.35476154681E+02  0.54366993997E+02  0.39999794414E+02 0.  0.
         12    1    3    3    0    0 -0.86078021536E+01 -0.48098517836E+01 -0.35476154681E+02  0.36821006003E+02  0.00000000000E+00 0. -1.
         11    1    4    4    0    0 -0.62973501096E-01  0.45076112627E+01 -0.15502388973E+01  0.47671549018E+01  0.51100000000E-03 0. -1.
        -11    1    4    4    0    0  0.33228487570E+01  0.16039153806E+02  0.18674053537E+02  0.24839807858E+02  0.51100000000E-03 0.  1.
        -12    1    4    4    0    0  0.53479268978E+01 -0.15736913285E+02  0.18352340042E+02  0.24760031237E+02  0.00000000000E+00 0.  1.
</event>
<event>
 8    1  0.2401680E-006  0.9118800E+02  0.7816164E-02  0.1184000E+00
        -11   -1    0    0    0    0  0.00000000000E+00  0.00000000000E+00  0.45593999997E+02  0.45594000000E+02  0.51100000000E-03 0.  1.
         11   -1    0    0    0    0 -0.00000000000E+00 -0.00000000000E+00 -0.45593999997E+02  0.45594000000E+02  0.51100000000E-03 0. -1.
         23    2    1    2    0    0  0.00000000000E+00  0.00000000000E+00  0.17763568394E-14  0.91188000000E+02  0.91188000000E+02 0.  0.
    9900012    2    3    3    0    0  0.35937805069E+02  0.32356969520E+01  0.73338384984E+01  0.54367071779E+02  0.39999971735E+02 0.  0.
         12    1    3    3    0    0 -0.35937805069E+02 -0.32356969520E+01 -0.73338384984E+01  0.36820928221E+02  0.00000000000E+00 0. -1.
         11    1    4    4    0    0  0.52401891073E+01 -0.34117958944E+01 -0.95294512408E+01  0.11397823227E+02  0.51100000000E-03 0. -1.
        -11    1    4    4    0    0  0.32931995568E+02  0.65382246134E+01  0.89519242405E+01  0.34747685694E+02  0.51100000000E-03 0.  1.
        -12    1    4    4    0    0 -0.22343796068E+01  0.10926823305E+00  0.79113654987E+01  0.82215628580E+01  0.00000000000E+00 0.  1.
</event>
<event>
 8    1  0.2401680E-006  0.9118800E+02  0.7816164E-02  0.1184000E+00
        -11   -1    0    0    0    0  0.00000000000E+00  0.00000000000E+00  0.45593999997E+02  0.45594000000E+02  0.51100000000E-03 0. -1.
         11   -1    0    0    0    0 -0.00000000000E+00 -0.00000000000E+00 -0.45593999997E+02  0.45594000000E+02  0.51100000000E-03 0.  1.
         23    2    1    2    0    0  0.35527136788E-14  0.00000000000E+00 -0.35527136788E-14  0.91188000000E+02  0.91188000000E+02 0.  0.
    9900012    2    3    3    0    0 -0.17999924693E+02  0.11449160955E+02 -0.30011635643E+02  0.54367097655E+02  0.40000030725E+02 0.  0.
         12    1    3    3    0    0  0.17999924693E+02 -0.11449160955E+02  0.30011635643E+02  0.36820902345E+02  0.00000000000E+00 0. -1.
         11    1    4    4    0    0 -0.19644718899E+02  0.22526744937E+01 -0.17749090249E+02  0.26571031744E+02  0.51100000000E-03 0. -1.
        -11    1    4    4    0    0 -0.35847955363E+00  0.10167774029E+02 -0.18533060624E+02  0.21142054599E+02  0.51100000000E-03 0.  1.
         12    1    4    4    0    0  0.20032737593E+01 -0.97128756802E+00  0.62705152306E+01  0.66540113129E+01  0.00000000000E+00 0. -1.
</event>
<event>
 8    1  0.2401680E-006  0.9118800E+02  0.7816164E-02  0.1184000E+00
        -11   -1    0    0    0    0  0.00000000000E+00  0.00000000000E+00  0.45593999997E+02  0.45594000000E+02  0.51100000000E-03 0.  1.
         11   -1    0    0    0    0 -0.00000000000E+00 -0.00000000000E+00 -0.45593999997E+02  0.45594000000E+02  0.51100000000E-03 0. -1.
         23    2    1    2    0    0  0.13322676296E-14  0.00000000000E+00 -0.71054273576E-14  0.91188000000E+02  0.91188000000E+02 0.  0.
    9900012    2    3    3    0    0  0.23348248985E+01  0.16633431151E+02 -0.32766729640E+02  0.54367068311E+02  0.39999963829E+02 0.  0.
        -12    1    3    3    0    0 -0.23348248985E+01 -0.16633431151E+02  0.32766729640E+02  0.36820931689E+02  0.00000000000E+00 0.  1.
         11    1    4    4    0    0 -0.14301805445E+02  0.64533203908E+01 -0.88394507167E+01  0.18008966442E+02  0.51100000000E-03 0.  1.
        -11    1    4    4    0    0  0.84929940096E+01  0.11680449293E+02 -0.43201223801E+01  0.15074060520E+02  0.51100000000E-03 0. -1.
        -12    1    4    4    0    0  0.81436363343E+01 -0.15003385327E+01 -0.19607156543E+02  0.21284041349E+02  0.00000000000E+00 0.  1.
</event>
<event>
 8    1  0.2401680E-006  0.9118800E+02  0.7816164E-02  0.1184000E+00
        -11   -1    0    0    0    0  0.00000000000E+00  0.00000000000E+00  0.45593999997E+02  0.45594000000E+02  0.51100000000E-03 0.  1.
         11   -1    0    0    0    0 -0.00000000000E+00 -0.00000000000E+00 -0.45593999997E+02  0.45594000000E+02  0.51100000000E-03 0. -1.
         23    2    1    2    0    0 -0.35527136788E-14  0.35527136788E-14 -0.17763568394E-14  0.91188000000E+02  0.91188000000E+02 0.  0.
    9900012    2    3    3    0    0  0.22285796981E+02 -0.26120424485E+02  0.13298398765E+02  0.54367072091E+02  0.39999972446E+02 0.  0.
        -12    1    3    3    0    0 -0.22285796981E+02  0.26120424485E+02 -0.13298398765E+02  0.36820927909E+02  0.00000000000E+00 0.  1.
         11    1    4    4    0    0  0.14475287133E+02 -0.10651539623E+02  0.10184780053E+02  0.20657177418E+02  0.51100000000E-03 0. -1.
        -11    1    4    4    0    0 -0.67196104530E+01  0.22194076913E+01  0.75986980604E+01  0.10383599935E+02  0.51100000000E-03 0.  1.
        -12    1    4    4    0    0  0.14530120301E+02 -0.17688292553E+02 -0.44850793477E+01  0.23326294737E+02  0.00000000000E+00 0.  1.
</event>
<event>
 8    1  0.2401680E-006  0.9118800E+02  0.7816164E-02  0.1184000E+00
        -11   -1    0    0    0    0  0.00000000000E+00  0.00000000000E+00  0.45593999997E+02  0.45594000000E+02  0.51100000000E-03 0.  1.
         11   -1    0    0    0    0 -0.00000000000E+00 -0.00000000000E+00 -0.45593999997E+02  0.45594000000E+02  0.51100000000E-03 0. -1.
         23    2    1    2    0    0 -0.35527136788E-14  0.35527136788E-14  0.00000000000E+00  0.91188000000E+02  0.91188000000E+02 0.  0.
    9900012    2    3    3    0    0  0.22724458047E+02 -0.16415245353E+02  0.23872934005E+02  0.54367105775E+02  0.40000049235E+02 0.  0.
         12    1    3    3    0    0 -0.22724458047E+02  0.16415245353E+02 -0.23872934005E+02  0.36820894225E+02  0.00000000000E+00 0. -1.
         11    1    4    4    0    0 -0.52978292209E+01 -0.17217358375E+02  0.12482989901E+02  0.21916419895E+02  0.51100000000E-03 0. -1.
        -11    1    4    4    0    0  0.51514111414E+01  0.45539201974E+01  0.46976633074E+01  0.83272604572E+01  0.51100000000E-03 0.  1.
         12    1    4    4    0    0  0.22870876126E+02 -0.37518071751E+01  0.66922807968E+01  0.24123425423E+02  0.00000000000E+00 0. -1.
</event>
<event>
 8    1  0.2401680E-006  0.9118800E+02  0.7816164E-02  0.1184000E+00
        -11   -1    0    0    0    0  0.00000000000E+00  0.00000000000E+00  0.45593999997E+02  0.45594000000E+02  0.51100000000E-03 0. -1.
         11   -1    0    0    0    0 -0.00000000000E+00 -0.00000000000E+00 -0.45593999997E+02  0.45594000000E+02  0.51100000000E-03 0.  1.
         23    2    1    2    0    0  0.00000000000E+00 -0.35527136788E-14  0.35527136788E-14  0.91188000000E+02  0.91188000000E+02 0.  0.
    9900012    2    3    3    0    0 -0.14363490682E+02  0.18484457186E+02 -0.28421720160E+02  0.54367092911E+02  0.40000019909E+02 0.  0.
         12    1    3    3    0    0  0.14363490682E+02 -0.18484457186E+02  0.28421720160E+02  0.36820907089E+02  0.00000000000E+00 0. -1.
         11    1    4    4    0    0 -0.29507552148E+01 -0.51663955069E+01 -0.18564896753E+01  0.62325879895E+01  0.51100000000E-03 0. -1.
        -11    1    4    4    0    0 -0.46567267050E+01  0.19780809693E+02 -0.32509794374E+02  0.38338652379E+02  0.51100000000E-03 0.  1.
         12    1    4    4    0    0 -0.67560087619E+01  0.38700429993E+01  0.59445638889E+01  0.97958525426E+01  0.00000000000E+00 0. -1.
</event>
<event>
 8    1  0.2401680E-006  0.9118800E+02  0.7816164E-02  0.1184000E+00
        -11   -1    0    0    0    0  0.00000000000E+00  0.00000000000E+00  0.45593999997E+02  0.45594000000E+02  0.51100000000E-03 0.  1.
         11   -1    0    0    0    0 -0.00000000000E+00 -0.00000000000E+00 -0.45593999997E+02  0.45594000000E+02  0.51100000000E-03 0. -1.
         23    2    1    2    0    0 -0.71054273576E-14  0.88817841970E-15  0.44408920985E-15  0.91188000000E+02  0.91188000000E+02 0.  0.
    9900012    2    3    3    0    0 -0.36250941163E+02  0.55556498508E+01 -0.32859321491E+01  0.54366901014E+02  0.39999582439E+02 0.  0.
        -12    1    3    3    0    0  0.36250941163E+02 -0.55556498508E+01  0.32859321491E+01  0.36821098986E+02  0.00000000000E+00 0.  1.
         11    1    4    4    0    0 -0.22524369108E+02 -0.46468191434E+01  0.45803248096E+01  0.23450362630E+02  0.51100000000E-03 0.  1.
        -11    1    4    4    0    0  0.51645587758E+01  0.66966820781E+01 -0.80875784042E+01  0.11701587196E+02  0.51100000000E-03 0. -1.
         12    1    4    4    0    0 -0.18891130831E+02  0.35057869161E+01  0.22132144549E+00  0.19214951188E+02  0.00000000000E+00 0. -1.
</event>
<event>
 8    1  0.2401680E-006  0.9118800E+02  0.7816164E-02  0.1184000E+00
        -11   -1    0    0    0    0  0.00000000000E+00  0.00000000000E+00  0.45593999997E+02  0.45594000000E+02  0.51100000000E-03 0. -1.
         11   -1    0    0    0    0 -0.00000000000E+00 -0.00000000000E+00 -0.45593999997E+02  0.45594000000E+02  0.51100000000E-03 0.  1.
         23    2    1    2    0    0  0.17763568394E-14  0.00000000000E+00  0.35527136788E-14  0.91188000000E+02  0.91188000000E+02 0.  0.
    9900012    2    3    3    0    0 -0.60930594649E+01  0.30935646845E+02  0.19016833700E+02  0.54367087690E+02  0.40000008008E+02 0.  0.
         12    1    3    3    0    0  0.60930594649E+01 -0.30935646845E+02 -0.19016833700E+02  0.36820912310E+02  0.00000000000E+00 0. -1.
         11    1    4    4    0    0  0.91972612803E+01  0.99592269259E+01 -0.41393407091E+01  0.14174270979E+02  0.51100000000E-03 0. -1.
        -11    1    4    4    0    0  0.41621685070E+01  0.66579411782E+01  0.20464185802E+01  0.81141639544E+01  0.51100000000E-03 0.  1.
         12    1    4    4    0    0 -0.19452489252E+02  0.14318478741E+02  0.21109755829E+02  0.32078652757E+02  0.00000000000E+00 0. -1.
</event>
<event>
 8    1  0.2401680E-006  0.9118800E+02  0.7816164E-02  0.1184000E+00
        -11   -1    0    0    0    0  0.00000000000E+00  0.00000000000E+00  0.45593999997E+02  0.45594000000E+02  0.51100000000E-03 0.  1.
         11   -1    0    0    0    0 -0.00000000000E+00 -0.00000000000E+00 -0.45593999997E+02  0.45594000000E+02  0.51100000000E-03 0. -1.
         23    2    1    2    0    0 -0.17763568394E-14 -0.17763568394E-14  0.00000000000E+00  0.91188000000E+02  0.91188000000E+02 0.  0.
    9900012    2    3    3    0    0  0.97002447824E+01  0.11581860737E+02 -0.33578961285E+02  0.54367069975E+02  0.39999967621E+02 0.  0.
        -12    1    3    3    0    0 -0.97002447824E+01 -0.11581860737E+02  0.33578961285E+02  0.36820930025E+02  0.00000000000E+00 0.  1.
         11    1    4    4    0    0  0.11475437431E+02  0.85673461207E+01 -0.36690274607E+02  0.39386055081E+02  0.51100000000E-03 0. -1.
        -11    1    4    4    0    0 -0.28257169029E+01 -0.48777937789E+01 -0.14290585729E+01  0.58154756324E+01  0.51100000000E-03 0.  1.
         12    1    4    4    0    0  0.10505242539E+01  0.78923083950E+01  0.45403718954E+01  0.91655392618E+01  0.00000000000E+00 0. -1.
</event>
<event>
 8    1  0.2401680E-006  0.9118800E+02  0.7816164E-02  0.1184000E+00
        -11   -1    0    0    0    0  0.00000000000E+00  0.00000000000E+00  0.45593999997E+02  0.45594000000E+02  0.51100000000E-03 0.  1.
         11   -1    0    0    0    0 -0.00000000000E+00 -0.00000000000E+00 -0.45593999997E+02  0.45594000000E+02  0.51100000000E-03 0. -1.
         23    2    1    2    0    0  0.00000000000E+00 -0.35527136788E-14  0.00000000000E+00  0.91188000000E+02  0.91188000000E+02 0.  0.
    9900012    2    3    3    0    0  0.12070509152E+02  0.27331339393E+02  0.21519305252E+02  0.54367084711E+02  0.40000001216E+02 0.  0.
         12    1    3    3    0    0 -0.12070509152E+02 -0.27331339393E+02 -0.21519305252E+02  0.36820915289E+02  0.00000000000E+00 0. -1.
         11    1    4    4    0    0 -0.71692006909E+01  0.17459034109E+01  0.64733479711E+01  0.98157960188E+01  0.51100000000E-03 0. -1.
        -11    1    4    4    0    0  0.67201949011E+00  0.21156006269E+02  0.14112142783E+02  0.25439748144E+02  0.51100000000E-03 0.  1.
        -12    1    4    4    0    0  0.18567690353E+02  0.44294297132E+01  0.93381449842E+00  0.19111540548E+02  0.00000000000E+00 0.  1.
</event>
<event>
 8    1  0.2401680E-006  0.9118800E+02  0.7816164E-02  0.1184000E+00
        -11   -1    0    0    0    0  0.00000000000E+00  0.00000000000E+00  0.45593999997E+02  0.45594000000E+02  0.51100000000E-03 0. -1.
         11   -1    0    0    0    0 -0.00000000000E+00 -0.00000000000E+00 -0.45593999997E+02  0.45594000000E+02  0.51100000000E-03 0.  1.
         23    2    1    2    0    0  0.00000000000E+00  0.00000000000E+00  0.13322676296E-14  0.91188000000E+02  0.91188000000E+02 0.  0.
    9900012    2    3    3    0    0  0.36602387164E+02  0.59212757208E+00 -0.39616438914E+01  0.54367082257E+02  0.39999995621E+02 0.  0.
         12    1    3    3    0    0 -0.36602387164E+02 -0.59212757208E+00  0.39616438914E+01  0.36820917743E+02  0.00000000000E+00 0. -1.
         11    1    4    4    0    0  0.14794757223E+02 -0.24808017975E+01  0.62833496698E+01  0.16264061675E+02  0.51100000000E-03 0. -1.
        -11    1    4    4    0    0  0.26082201513E+02  0.19497576787E+01 -0.16140871209E+02  0.30734516662E+02  0.51100000000E-03 0.  1.
        -12    1    4    4    0    0 -0.42745715725E+01  0.11231716909E+01  0.58958776480E+01  0.73685039198E+01  0.00000000000E+00 0.  1.
</event>
<event>
 8    1  0.2401680E-006  0.9118800E+02  0.7816164E-02  0.1184000E+00
        -11   -1    0    0    0    0  0.00000000000E+00  0.00000000000E+00  0.45593999997E+02  0.45594000000E+02  0.51100000000E-03 0. -1.
         11   -1    0    0    0    0 -0.00000000000E+00 -0.00000000000E+00 -0.45593999997E+02  0.45594000000E+02  0.51100000000E-03 0.  1.
         23    2    1    2    0    0  0.00000000000E+00  0.00000000000E+00  0.00000000000E+00  0.91188000000E+02  0.91188000000E+02 0.  0.
    9900012    2    3    3    0    0 -0.16686245188E+02 -0.14340517283E+02 -0.29524549079E+02  0.54367079143E+02  0.39999988523E+02 0.  0.
         12    1    3    3    0    0  0.16686245188E+02  0.14340517283E+02  0.29524549079E+02  0.36820920857E+02  0.00000000000E+00 0. -1.
         11    1    4    4    0    0 -0.16302064181E+02 -0.18927014601E+02 -0.37600905052E+01  0.25261184832E+02  0.51100000000E-03 0. -1.
        -11    1    4    4    0    0  0.57798375951E+01 -0.86292127341E-01 -0.11901727842E+02  0.13231216681E+02  0.51100000000E-03 0.  1.
         12    1    4    4    0    0 -0.61640186024E+01  0.46727894459E+01 -0.13862730732E+02  0.15874677631E+02  0.00000000000E+00 0. -1.
</event>
<event>
 8    1  0.2401680E-006  0.9118800E+02  0.7816164E-02  0.1184000E+00
        -11   -1    0    0    0    0  0.00000000000E+00  0.00000000000E+00  0.45593999997E+02  0.45594000000E+02  0.51100000000E-03 0. -1.
         11   -1    0    0    0    0 -0.00000000000E+00 -0.00000000000E+00 -0.45593999997E+02  0.45594000000E+02  0.51100000000E-03 0.  1.
         23    2    1    2    0    0  0.71054273576E-14  0.26645352591E-14 -0.35527136788E-14  0.91188000000E+02  0.91188000000E+02 0.  0.
    9900012    2    3    3    0    0 -0.23206873953E+02 -0.57606336224E+01  0.28000643786E+02  0.54367082699E+02  0.39999996630E+02 0.  0.
         12    1    3    3    0    0  0.23206873953E+02  0.57606336224E+01 -0.28000643786E+02  0.36820917301E+02  0.00000000000E+00 0. -1.
         11    1    4    4    0    0 -0.23229401167E+01  0.23986788527E+01 -0.13130032893E+01  0.35879923248E+01  0.51100000000E-03 0. -1.
        -11    1    4    4    0    0  0.82521104313E+01  0.39561875386E+01  0.28171807567E+01  0.95752417248E+01  0.51100000000E-03 0.  1.
         12    1    4    4    0    0 -0.29136044268E+02 -0.12115500014E+02  0.26496466319E+02  0.41203848650E+02  0.00000000000E+00 0. -1.
</event>
<event>
 8    1  0.2401680E-006  0.9118800E+02  0.7816164E-02  0.1184000E+00
        -11   -1    0    0    0    0  0.00000000000E+00  0.00000000000E+00  0.45593999997E+02  0.45594000000E+02  0.51100000000E-03 0. -1.
         11   -1    0    0    0    0 -0.00000000000E+00 -0.00000000000E+00 -0.45593999997E+02  0.45594000000E+02  0.51100000000E-03 0.  1.
         23    2    1    2    0    0  0.00000000000E+00  0.17763568394E-14  0.00000000000E+00  0.91188000000E+02  0.91188000000E+02 0.  0.
    9900012    2    3    3    0    0  0.31164332359E+02 -0.15832821595E+02 -0.11570915223E+02  0.54367082981E+02  0.39999997272E+02 0.  0.
        -12    1    3    3    0    0 -0.31164332359E+02  0.15832821595E+02  0.11570915223E+02  0.36820917019E+02  0.00000000000E+00 0.  1.
         11    1    4    4    0    0  0.17446374623E+02  0.17520219098E+01  0.43391037323E+01  0.18063039327E+02  0.51100000000E-03 0. -1.
        -11    1    4    4    0    0  0.33890494046E+01 -0.11879246733E+02 -0.20258903564E+02  0.23728154852E+02  0.51100000000E-03 0.  1.
        -12    1    4    4    0    0  0.10328908331E+02 -0.57055967711E+01  0.43488846082E+01  0.12575888802E+02  0.00000000000E+00 0.  1.
</event>
<event>
 8    1  0.2401680E-006  0.9118800E+02  0.7816164E-02  0.1184000E+00
        -11   -1    0    0    0    0  0.00000000000E+00  0.00000000000E+00  0.45593999997E+02  0.45594000000E+02  0.51100000000E-03 0.  1.
         11   -1    0    0    0    0 -0.00000000000E+00 -0.00000000000E+00 -0.45593999997E+02  0.45594000000E+02  0.51100000000E-03 0. -1.
         23    2    1    2    0    0  0.88817841970E-15  0.00000000000E+00 -0.35527136788E-14  0.91188000000E+02  0.91188000000E+02 0.  0.
    9900012    2    3    3    0    0 -0.40152937720E+01 -0.33081152311E+02  0.15661858064E+02  0.54367095335E+02  0.40000025435E+02 0.  0.
        -12    1    3    3    0    0  0.40152937720E+01  0.33081152311E+02 -0.15661858064E+02  0.36820904665E+02  0.00000000000E+00 0.  1.
         11    1    4    4    0    0 -0.44960876464E+01 -0.23954117293E+01 -0.77565082108E+01  0.92798826158E+01  0.51100000000E-03 0. -1.
        -11    1    4    4    0    0  0.11012672886E+02 -0.16020298245E+02  0.17299826310E+02  0.26023314750E+02  0.51100000000E-03 0.  1.
         12    1    4    4    0    0 -0.10531879012E+02 -0.14665442337E+02  0.61185399650E+01  0.19063897969E+02  0.00000000000E+00 0. -1.
</event>
<event>
 8    1  0.2401680E-006  0.9118800E+02  0.7816164E-02  0.1184000E+00
        -11   -1    0    0    0    0  0.00000000000E+00  0.00000000000E+00  0.45593999997E+02  0.45594000000E+02  0.51100000000E-03 0.  1.
         11   -1    0    0    0    0 -0.00000000000E+00 -0.00000000000E+00 -0.45593999997E+02  0.45594000000E+02  0.51100000000E-03 0. -1.
         23    2    1    2    0    0 -0.35527136788E-14  0.35527136788E-14 -0.17763568394E-14  0.91188000000E+02  0.91188000000E+02 0.  0.
    9900012    2    3    3    0    0  0.19811630709E+02 -0.29735448454E+02  0.88928714555E+01  0.54367071592E+02  0.39999971309E+02 0.  0.
         12    1    3    3    0    0 -0.19811630709E+02  0.29735448454E+02 -0.88928714555E+01  0.36820928408E+02  0.00000000000E+00 0. -1.
         11    1    4    4    0    0  0.42376616176E+01 -0.17477154825E+02 -0.84958321666E+01  0.19889391173E+02  0.51100000000E-03 0. -1.
        -11    1    4    4    0    0  0.10601742305E+02  0.42957114327E+01  0.11492540454E+02  0.16215072092E+02  0.51100000000E-03 0.  1.
         12    1    4    4    0    0  0.49722267857E+01 -0.16554005062E+02  0.58961631684E+01  0.18262608327E+02  0.00000000000E+00 0. -1.
</event>
<event>
 8    1  0.2401680E-006  0.9118800E+02  0.7816164E-02  0.1184000E+00
        -11   -1    0    0    0    0  0.00000000000E+00  0.00000000000E+00  0.45593999997E+02  0.45594000000E+02  0.51100000000E-03 0.  1.
         11   -1    0    0    0    0 -0.00000000000E+00 -0.00000000000E+00 -0.45593999997E+02  0.45594000000E+02  0.51100000000E-03 0. -1.
         23    2    1    2    0    0  0.00000000000E+00 -0.35527136788E-14  0.00000000000E+00  0.91188000000E+02  0.91188000000E+02 0.  0.
    9900012    2    3    3    0    0 -0.10888813039E+02  0.31987646039E+02 -0.14628876887E+02  0.54367084918E+02  0.40000001687E+02 0.  0.
         12    1    3    3    0    0  0.10888813039E+02 -0.31987646039E+02  0.14628876887E+02  0.36820915082E+02  0.00000000000E+00 0. -1.
         11    1    4    4    0    0 -0.76142145449E+01  0.20839087478E+02 -0.67056264138E+01  0.23177775042E+02  0.51100000000E-03 0. -1.
        -11    1    4    4    0    0 -0.46137331709E+00  0.84636174535E+01  0.98503787415E+01  0.12995216326E+02  0.51100000000E-03 0.  1.
         12    1    4    4    0    0 -0.28132251771E+01  0.26849411074E+01 -0.17773629215E+02  0.18194093550E+02  0.00000000000E+00 0. -1.
</event>
<event>
 8    1  0.2401680E-006  0.9118800E+02  0.7816164E-02  0.1184000E+00
        -11   -1    0    0    0    0  0.00000000000E+00  0.00000000000E+00  0.45593999997E+02  0.45594000000E+02  0.51100000000E-03 0.  1.
         11   -1    0    0    0    0 -0.00000000000E+00 -0.00000000000E+00 -0.45593999997E+02  0.45594000000E+02  0.51100000000E-03 0. -1.
         23    2    1    2    0    0 -0.35527136788E-14  0.35527136788E-14  0.71054273576E-14  0.91188000000E+02  0.91188000000E+02 0.  0.
    9900012    2    3    3    0    0  0.12323742381E+02 -0.18575941100E+02 -0.29305950864E+02  0.54367096018E+02  0.40000026993E+02 0.  0.
        -12    1    3    3    0    0 -0.12323742381E+02  0.18575941100E+02  0.29305950864E+02  0.36820903982E+02  0.00000000000E+00 0.  1.
         11    1    4    4    0    0 -0.69936301618E+00 -0.50853490628E+01  0.84889711076E+00  0.52029328541E+01  0.51100000000E-03 0. -1.
        -11    1    4    4    0    0 -0.74999478640E+00  0.29713206339E+01  0.62170953181E+01  0.69313427952E+01  0.51100000000E-03 0.  1.
         12    1    4    4    0    0  0.13773100183E+02 -0.16461912671E+02 -0.36371943293E+02  0.42232820369E+02  0.00000000000E+00 0. -1.
</event>
<event>
 8    1  0.2401680E-006  0.9118800E+02  0.7816164E-02  0.1184000E+00
        -11   -1    0    0    0    0  0.00000000000E+00  0.00000000000E+00  0.45593999997E+02  0.45594000000E+02  0.51100000000E-03 0.  1.
         11   -1    0    0    0    0 -0.00000000000E+00 -0.00000000000E+00 -0.45593999997E+02  0.45594000000E+02  0.51100000000E-03 0. -1.
         23    2    1    2    0    0  0.00000000000E+00  0.35527136788E-14  0.00000000000E+00  0.91188000000E+02  0.91188000000E+02 0.  0.
    9900012    2    3    3    0    0 -0.11713512797E+02 -0.21866772179E+02  0.27210611542E+02  0.54367088984E+02  0.40000010956E+02 0.  0.
         12    1    3    3    0    0  0.11713512797E+02  0.21866772179E+02 -0.27210611542E+02  0.36820911016E+02  0.00000000000E+00 0. -1.
         11    1    4    4    0    0 -0.68017588167E+01  0.38628860662E+01  0.18316715001E+02  0.19917024387E+02  0.51100000000E-03 0. -1.
        -11    1    4    4    0    0 -0.10111113137E+02 -0.19209258535E+02  0.12843241695E+02  0.25222590664E+02  0.51100000000E-03 0.  1.
         12    1    4    4    0    0  0.51993591566E+01 -0.65203997106E+01 -0.39493451536E+01  0.92274739321E+01  0.00000000000E+00 0. -1.
</event>
<event>
 8    1  0.2401680E-006  0.9118800E+02  0.7816164E-02  0.1184000E+00
        -11   -1    0    0    0    0  0.00000000000E+00  0.00000000000E+00  0.45593999997E+02  0.45594000000E+02  0.51100000000E-03 0. -1.
         11   -1    0    0    0    0 -0.00000000000E+00 -0.00000000000E+00 -0.45593999997E+02  0.45594000000E+02  0.51100000000E-03 0.  1.
         23    2    1    2    0    0  0.00000000000E+00  0.22204460493E-15  0.00000000000E+00  0.91188000000E+02  0.91188000000E+02 0.  0.
    9900012    2    3    3    0    0  0.33010357922E+02  0.91207736906E+00  0.16287080637E+02  0.54367019419E+02  0.39999852369E+02 0.  0.
        -12    1    3    3    0    0 -0.33010357922E+02 -0.91207736906E+00 -0.16287080637E+02  0.36820980581E+02  0.00000000000E+00 0.  1.
         11    1    4    4    0    0  0.82521866770E+01  0.46086684552E+01 -0.30882231525E+01  0.99436176708E+01  0.51100000000E-03 0. -1.
        -11    1    4    4    0    0  0.42256646236E+01 -0.15143526395E+02  0.12024223069E+02  0.19793043572E+02  0.51100000000E-03 0.  1.
         12    1    4    4    0    0  0.20532506621E+02  0.11446935308E+02  0.73510807203E+01  0.24630358176E+02  0.00000000000E+00 0. -1.
</event>
<event>
 8    1  0.2401680E-006  0.9118800E+02  0.7816164E-02  0.1184000E+00
        -11   -1    0    0    0    0  0.00000000000E+00  0.00000000000E+00  0.45593999997E+02  0.45594000000E+02  0.51100000000E-03 0. -1.
         11   -1    0    0    0    0 -0.00000000000E+00 -0.00000000000E+00 -0.45593999997E+02  0.45594000000E+02  0.51100000000E-03 0.  1.
         23    2    1    2    0    0  0.00000000000E+00  0.00000000000E+00  0.00000000000E+00  0.91188000000E+02  0.91188000000E+02 0.  0.
    9900012    2    3    3    0    0  0.15322335833E+02 -0.10960834833E+02 -0.31636463110E+02  0.54367086463E+02  0.40000005209E+02 0.  0.
         12    1    3    3    0    0 -0.15322335833E+02  0.10960834833E+02  0.31636463110E+02  0.36820913537E+02  0.00000000000E+00 0. -1.
         11    1    4    4    0    0  0.72533859757E+01  0.13860575005E+02 -0.70784210878E+01  0.17170649170E+02  0.51100000000E-03 0. -1.
        -11    1    4    4    0    0  0.60113410010E+01 -0.12719247523E+02 -0.19199526268E+02  0.23802043764E+02  0.51100000000E-03 0.  1.
         12    1    4    4    0    0  0.20576088567E+01 -0.12102162315E+02 -0.53585157542E+01  0.13394393528E+02  0.00000000000E+00 0. -1.
</event>
<event>
 8    1  0.2401680E-006  0.9118800E+02  0.7816164E-02  0.1184000E+00
        -11   -1    0    0    0    0  0.00000000000E+00  0.00000000000E+00  0.45593999997E+02  0.45594000000E+02  0.51100000000E-03 0. -1.
         11   -1    0    0    0    0 -0.00000000000E+00 -0.00000000000E+00 -0.45593999997E+02  0.45594000000E+02  0.51100000000E-03 0.  1.
         23    2    1    2    0    0  0.00000000000E+00  0.00000000000E+00 -0.55511151231E-15  0.91188000000E+02  0.91188000000E+02 0.  0.
    9900012    2    3    3    0    0  0.49246424737E+01 -0.36476449153E+02 -0.99833764395E+00  0.54367080344E+02  0.39999991259E+02 0.  0.
         12    1    3    3    0    0 -0.49246424737E+01  0.36476449153E+02  0.99833764395E+00  0.36820919656E+02  0.00000000000E+00 0. -1.
         11    1    4    4    0    0  0.76452533865E+01 -0.17918379477E+02  0.89952008537E+01  0.21457676041E+02  0.51100000000E-03 0.  1.
        -11    1    4    4    0    0  0.43175139707E+01  0.15778405795E+01  0.50339401569E+01  0.68169686479E+01  0.51100000000E-03 0. -1.
        -12    1    4    4    0    0 -0.70381248835E+01 -0.20135910255E+02 -0.15027478655E+02  0.26092435655E+02  0.00000000000E+00 0.  1.
</event>
<event>
 8    1  0.2401680E-006  0.9118800E+02  0.7816164E-02  0.1184000E+00
        -11   -1    0    0    0    0  0.00000000000E+00  0.00000000000E+00  0.45593999997E+02  0.45594000000E+02  0.51100000000E-03 0.  1.
         11   -1    0    0    0    0 -0.00000000000E+00 -0.00000000000E+00 -0.45593999997E+02  0.45594000000E+02  0.51100000000E-03 0. -1.
         23    2    1    2    0    0  0.00000000000E+00 -0.35527136788E-14  0.00000000000E+00  0.91188000000E+02  0.91188000000E+02 0.  0.
    9900012    2    3    3    0    0 -0.15278125071E+02  0.17675657821E+02  0.28459258311E+02  0.54367090604E+02  0.40000014650E+02 0.  0.
         12    1    3    3    0    0  0.15278125071E+02 -0.17675657821E+02 -0.28459258311E+02  0.36820909396E+02  0.00000000000E+00 0. -1.
         11    1    4    4    0    0  0.62275165100E+00 -0.43154890409E+01 -0.30413920202E+01  0.53161387268E+01  0.51100000000E-03 0. -1.
        -11    1    4    4    0    0 -0.17706144290E+02  0.23040933221E+02  0.15537091395E+02  0.32951378706E+02  0.51100000000E-03 0.  1.
        -12    1    4    4    0    0  0.18052675676E+01 -0.10497863594E+01  0.15963558936E+02  0.16099573171E+02  0.00000000000E+00 0.  1.
</event>
<event>
 8    1  0.2401680E-006  0.9118800E+02  0.7816164E-02  0.1184000E+00
        -11   -1    0    0    0    0  0.00000000000E+00  0.00000000000E+00  0.45593999997E+02  0.45594000000E+02  0.51100000000E-03 0. -1.
         11   -1    0    0    0    0 -0.00000000000E+00 -0.00000000000E+00 -0.45593999997E+02  0.45594000000E+02  0.51100000000E-03 0.  1.
         23    2    1    2    0    0 -0.17763568394E-14 -0.71054273576E-14  0.00000000000E+00  0.91188000000E+02  0.91188000000E+02 0.  0.
    9900012    2    3    3    0    0 -0.10245455095E+02 -0.21941336281E+02 -0.27737843985E+02  0.54367087779E+02  0.40000008209E+02 0.  0.
         12    1    3    3    0    0  0.10245455095E+02  0.21941336281E+02  0.27737843985E+02  0.36820912221E+02  0.00000000000E+00 0. -1.
         11    1    4    4    0    0 -0.68396224271E+01 -0.43747668978E+01  0.54784566122E+01  0.97945141517E+01  0.51100000000E-03 0. -1.
        -11    1    4    4    0    0 -0.12997801806E+02 -0.79206195200E+01 -0.22912337375E+02  0.27507349375E+02  0.51100000000E-03 0.  1.
         12    1    4    4    0    0  0.95919691379E+01 -0.96459498630E+01 -0.10303963222E+02  0.17065224252E+02  0.00000000000E+00 0. -1.
</event>
<event>
 8    1  0.2401680E-006  0.9118800E+02  0.7816164E-02  0.1184000E+00
        -11   -1    0    0    0    0  0.00000000000E+00  0.00000000000E+00  0.45593999997E+02  0.45594000000E+02  0.51100000000E-03 0.  1.
         11   -1    0    0    0    0 -0.00000000000E+00 -0.00000000000E+00 -0.45593999997E+02  0.45594000000E+02  0.51100000000E-03 0. -1.
         23    2    1    2    0    0  0.13322676296E-14  0.00000000000E+00  0.00000000000E+00  0.91188000000E+02  0.91188000000E+02 0.  0.
    9900012    2    3    3    0    0 -0.16834560467E+01 -0.23788006562E+02 -0.28054896327E+02  0.54367075401E+02  0.39999979991E+02 0.  0.
        -12    1    3    3    0    0  0.16834560467E+01  0.23788006562E+02  0.28054896327E+02  0.36820924599E+02  0.00000000000E+00 0.  1.
         11    1    4    4    0    0 -0.74539692023E+01 -0.12509559873E+02 -0.10541298843E+02  0.17976922057E+02  0.51100000000E-03 0. -1.
        -11    1    4    4    0    0 -0.67406845215E+01 -0.16890689664E+02 -0.10047746480E+02  0.20777137308E+02  0.51100000000E-03 0.  1.
        -12    1    4    4    0    0  0.12511197677E+02  0.56122429748E+01 -0.74658510040E+01  0.15613016036E+02  0.00000000000E+00 0.  1.
</event>
<event>
 8    1  0.2401680E-006  0.9118800E+02  0.7816164E-02  0.1184000E+00
        -11   -1    0    0    0    0  0.00000000000E+00  0.00000000000E+00  0.45593999997E+02  0.45594000000E+02  0.51100000000E-03 0.  1.
         11   -1    0    0    0    0 -0.00000000000E+00 -0.00000000000E+00 -0.45593999997E+02  0.45594000000E+02  0.51100000000E-03 0. -1.
         23    2    1    2    0    0  0.00000000000E+00 -0.17763568394E-14  0.44408920985E-15  0.91188000000E+02  0.91188000000E+02 0.  0.
    9900012    2    3    3    0    0 -0.34869496355E+02  0.11646751622E+02 -0.20619923423E+01  0.54367076440E+02  0.39999982360E+02 0.  0.
        -12    1    3    3    0    0  0.34869496355E+02 -0.11646751622E+02  0.20619923423E+01  0.36820923560E+02  0.00000000000E+00 0.  1.
         11    1    4    4    0    0  0.19672129277E+01  0.50671412525E+01 -0.46404962115E+01  0.71470310287E+01  0.51100000000E-03 0. -1.
        -11    1    4    4    0    0 -0.19663897621E+02 -0.49544812495E+01 -0.10409400791E+02  0.22794108431E+02  0.51100000000E-03 0.  1.
        -12    1    4    4    0    0 -0.17172811662E+02  0.11534091619E+02  0.12987904660E+02  0.24425936980E+02  0.00000000000E+00 0.  1.
</event>
<event>
 8    1  0.2401680E-006  0.9118800E+02  0.7816164E-02  0.1184000E+00
        -11   -1    0    0    0    0  0.00000000000E+00  0.00000000000E+00  0.45593999997E+02  0.45594000000E+02  0.51100000000E-03 0. -1.
         11   -1    0    0    0    0 -0.00000000000E+00 -0.00000000000E+00 -0.45593999997E+02  0.45594000000E+02  0.51100000000E-03 0.  1.
         23    2    1    2    0    0 -0.88817841970E-15  0.35527136788E-14  0.00000000000E+00  0.91188000000E+02  0.91188000000E+02 0.  0.
    9900012    2    3    3    0    0  0.41751083813E+01 -0.28062360650E+02  0.23470194957E+02  0.54367113718E+02  0.40000067343E+02 0.  0.
        -12    1    3    3    0    0 -0.41751083813E+01  0.28062360650E+02 -0.23470194957E+02  0.36820886282E+02  0.00000000000E+00 0.  1.
         11    1    4    4    0    0 -0.39431928540E+01 -0.45414986208E+01  0.11237343567E+02  0.12745660842E+02  0.51100000000E-03 0. -1.
        -11    1    4    4    0    0 -0.76210906358E+01 -0.10548261185E+02 -0.59387155939E+01  0.14304376242E+02  0.51100000000E-03 0.  1.
        -12    1    4    4    0    0  0.15739391871E+02 -0.12972600845E+02  0.18171566985E+02  0.27317076634E+02  0.00000000000E+00 0.  1.
</event>
<event>
 8    1  0.2401680E-006  0.9118800E+02  0.7816164E-02  0.1184000E+00
        -11   -1    0    0    0    0  0.00000000000E+00  0.00000000000E+00  0.45593999997E+02  0.45594000000E+02  0.51100000000E-03 0.  1.
         11   -1    0    0    0    0 -0.00000000000E+00 -0.00000000000E+00 -0.45593999997E+02  0.45594000000E+02  0.51100000000E-03 0. -1.
         23    2    1    2    0    0 -0.35527136788E-14  0.35527136788E-14 -0.35527136788E-14  0.91188000000E+02  0.91188000000E+02 0.  0.
    9900012    2    3    3    0    0  0.73924636542E+01  0.23520749864E+02  0.27347866321E+02  0.54367082231E+02  0.39999995562E+02 0.  0.
         12    1    3    3    0    0 -0.73924636542E+01 -0.23520749864E+02 -0.27347866321E+02  0.36820917769E+02  0.00000000000E+00 0. -1.
         11    1    4    4    0    0 -0.49844266945E+01  0.82128832887E+01  0.43884869078E+01  0.10561949583E+02  0.51100000000E-03 0. -1.
        -11    1    4    4    0    0  0.16553138239E+02  0.28731212051E+01  0.25408951416E+02  0.30461057489E+02  0.51100000000E-03 0.  1.
        -12    1    4    4    0    0 -0.41762478907E+01  0.12434745370E+02 -0.24495720023E+01  0.13344075159E+02  0.00000000000E+00 0.  1.
</event>
<event>
 8    1  0.2401680E-006  0.9118800E+02  0.7816164E-02  0.1184000E+00
        -11   -1    0    0    0    0  0.00000000000E+00  0.00000000000E+00  0.45593999997E+02  0.45594000000E+02  0.51100000000E-03 0.  1.
         11   -1    0    0    0    0 -0.00000000000E+00 -0.00000000000E+00 -0.45593999997E+02  0.45594000000E+02  0.51100000000E-03 0. -1.
         23    2    1    2    0    0  0.00000000000E+00 -0.17763568394E-14  0.35527136788E-14  0.91188000000E+02  0.91188000000E+02 0.  0.
    9900012    2    3    3    0    0  0.20947849579E+02  0.11815457090E+02  0.27881255136E+02  0.54367057370E+02  0.39999938886E+02 0.  0.
         12    1    3    3    0    0 -0.20947849579E+02 -0.11815457090E+02 -0.27881255136E+02  0.36820942630E+02  0.00000000000E+00 0. -1.
         11    1    4    4    0    0  0.83531546281E+01  0.12199617144E+02  0.18332088231E+02  0.23551460886E+02  0.51100000000E-03 0. -1.
        -11    1    4    4    0    0  0.15169671604E+02  0.33451326699E+00  0.17066945006E+02  0.22836625141E+02  0.51100000000E-03 0.  1.
         12    1    4    4    0    0 -0.25749766535E+01 -0.71867332066E+00 -0.75177781016E+01  0.79789713430E+01  0.00000000000E+00 0. -1.
</event>
<event>
 8    1  0.2401680E-006  0.9118800E+02  0.7816164E-02  0.1184000E+00
        -11   -1    0    0    0    0  0.00000000000E+00  0.00000000000E+00  0.45593999997E+02  0.45594000000E+02  0.51100000000E-03 0. -1.
         11   -1    0    0    0    0 -0.00000000000E+00 -0.00000000000E+00 -0.45593999997E+02  0.45594000000E+02  0.51100000000E-03 0.  1.
         23    2    1    2    0    0  0.00000000000E+00  0.71054273576E-14 -0.44408920985E-15  0.91188000000E+02  0.91188000000E+02 0.  0.
    9900012    2    3    3    0    0 -0.12547653145E+02  0.34577142082E+02  0.16602572830E+01  0.54367098215E+02  0.40000032000E+02 0.  0.
        -12    1    3    3    0    0  0.12547653145E+02 -0.34577142082E+02 -0.16602572830E+01  0.36820901785E+02  0.00000000000E+00 0.  1.
         11    1    4    4    0    0 -0.41975282798E+00  0.40390494184E+01 -0.33942765900E+01  0.52925633176E+01  0.51100000000E-03 0. -1.
        -11    1    4    4    0    0 -0.11972827883E+02  0.15718439515E+01 -0.10670712994E+02  0.16114695684E+02  0.51100000000E-03 0.  1.
         12    1    4    4    0    0 -0.15507243411E+00  0.28966248712E+02  0.15725246867E+02  0.32959839213E+02  0.00000000000E+00 0. -1.
</event>
<event>
 8    1  0.2401680E-006  0.9118800E+02  0.7816164E-02  0.1184000E+00
        -11   -1    0    0    0    0  0.00000000000E+00  0.00000000000E+00  0.45593999997E+02  0.45594000000E+02  0.51100000000E-03 0. -1.
         11   -1    0    0    0    0 -0.00000000000E+00 -0.00000000000E+00 -0.45593999997E+02  0.45594000000E+02  0.51100000000E-03 0.  1.
         23    2    1    2    0    0  0.22204460493E-14  0.00000000000E+00 -0.17763568394E-14  0.91188000000E+02  0.91188000000E+02 0.  0.
    9900012    2    3    3    0    0 -0.37220945618E+01  0.35604974548E+02 -0.86146452222E+01  0.54367077784E+02  0.39999985425E+02 0.  0.
        -12    1    3    3    0    0  0.37220945618E+01 -0.35604974548E+02  0.86146452222E+01  0.36820922216E+02  0.00000000000E+00 0.  1.
         11    1    4    4    0    0 -0.15759428721E+02  0.57332229372E+01  0.39630486955E+01  0.17231807626E+02  0.51100000000E-03 0. -1.
        -11    1    4    4    0    0  0.32724137361E+01  0.23776875988E+01 -0.64828470486E+01  0.76412954461E+01  0.51100000000E-03 0.  1.
         12    1    4    4    0    0  0.87649204227E+01  0.27494064012E+02 -0.60948468691E+01  0.29493974712E+02  0.00000000000E+00 0. -1.
</event>
<event>
 8    1  0.2401680E-006  0.9118800E+02  0.7816164E-02  0.1184000E+00
        -11   -1    0    0    0    0  0.00000000000E+00  0.00000000000E+00  0.45593999997E+02  0.45594000000E+02  0.51100000000E-03 0.  1.
         11   -1    0    0    0    0 -0.00000000000E+00 -0.00000000000E+00 -0.45593999997E+02  0.45594000000E+02  0.51100000000E-03 0. -1.
         23    2    1    2    0    0 -0.71054273576E-14  0.00000000000E+00 -0.17763568394E-14  0.91188000000E+02  0.91188000000E+02 0.  0.
    9900012    2    3    3    0    0  0.27042271403E+02 -0.23499197378E+02  0.85020225970E+01  0.54367066982E+02  0.39999960800E+02 0.  0.
        -12    1    3    3    0    0 -0.27042271403E+02  0.23499197378E+02 -0.85020225970E+01  0.36820933018E+02  0.00000000000E+00 0.  1.
         11    1    4    4    0    0  0.16173201227E+02 -0.19922683591E+02  0.18698669186E+02  0.31750999811E+02  0.51100000000E-03 0. -1.
        -11    1    4    4    0    0  0.48866595253E+00 -0.23695573598E+01  0.41876805383E+01  0.48363483173E+01  0.51100000000E-03 0.  1.
        -12    1    4    4    0    0  0.10380404223E+02 -0.12069564273E+01 -0.14384327127E+02  0.17779718854E+02  0.00000000000E+00 0.  1.
</event>
<event>
 8    1  0.2401680E-006  0.9118800E+02  0.7816164E-02  0.1184000E+00
        -11   -1    0    0    0    0  0.00000000000E+00  0.00000000000E+00  0.45593999997E+02  0.45594000000E+02  0.51100000000E-03 0. -1.
         11   -1    0    0    0    0 -0.00000000000E+00 -0.00000000000E+00 -0.45593999997E+02  0.45594000000E+02  0.51100000000E-03 0.  1.
         23    2    1    2    0    0  0.17763568394E-14  0.48572257327E-16  0.00000000000E+00  0.91188000000E+02  0.91188000000E+02 0.  0.
    9900012    2    3    3    0    0  0.12690388666E+02 -0.10948687452E-01  0.34564921597E+02  0.54367083534E+02  0.39999998533E+02 0.  0.
        -12    1    3    3    0    0 -0.12690388666E+02  0.10948687452E-01 -0.34564921597E+02  0.36820916466E+02  0.00000000000E+00 0.  1.
         11    1    4    4    0    0 -0.43525990290E+01 -0.69965361516E+01  0.33515342084E+02  0.34513400176E+02  0.51100000000E-03 0. -1.
        -11    1    4    4    0    0  0.49323229378E+01  0.55600417218E+01  0.17624309421E+01  0.76385886522E+01  0.51100000000E-03 0.  1.
         12    1    4    4    0    0  0.12110664757E+02  0.14255457423E+01 -0.71285142928E+00  0.12215094706E+02  0.00000000000E+00 0. -1.
</event>
<event>
 8    1  0.2401680E-006  0.9118800E+02  0.7816164E-02  0.1184000E+00
        -11   -1    0    0    0    0  0.00000000000E+00  0.00000000000E+00  0.45593999997E+02  0.45594000000E+02  0.51100000000E-03 0. -1.
         11   -1    0    0    0    0 -0.00000000000E+00 -0.00000000000E+00 -0.45593999997E+02  0.45594000000E+02  0.51100000000E-03 0.  1.
         23    2    1    2    0    0 -0.35527136788E-14  0.35527136788E-14 -0.35527136788E-14  0.91188000000E+02  0.91188000000E+02 0.  0.
    9900012    2    3    3    0    0  0.20765071072E+02 -0.27233175008E+02  0.13525758495E+02  0.54367080124E+02  0.39999990759E+02 0.  0.
         12    1    3    3    0    0 -0.20765071072E+02  0.27233175008E+02 -0.13525758495E+02  0.36820919876E+02  0.00000000000E+00 0. -1.
         11    1    4    4    0    0 -0.11845247928E+01 -0.14842439008E+00  0.86473755730E+01  0.87293890591E+01  0.51100000000E-03 0. -1.
        -11    1    4    4    0    0  0.70616706014E+01 -0.24951909727E+02  0.12488064350E+02  0.28782229625E+02  0.51100000000E-03 0.  1.
        -12    1    4    4    0    0  0.14887925263E+02 -0.21328408913E+01 -0.76096814286E+01  0.16855461440E+02  0.00000000000E+00 0.  1.
</event>
<event>
 8    1  0.2401680E-006  0.9118800E+02  0.7816164E-02  0.1184000E+00
        -11   -1    0    0    0    0  0.00000000000E+00  0.00000000000E+00  0.45593999997E+02  0.45594000000E+02  0.51100000000E-03 0.  1.
         11   -1    0    0    0    0 -0.00000000000E+00 -0.00000000000E+00 -0.45593999997E+02  0.45594000000E+02  0.51100000000E-03 0. -1.
         23    2    1    2    0    0  0.00000000000E+00  0.88817841970E-15 -0.88817841970E-15  0.91188000000E+02  0.91188000000E+02 0.  0.
    9900012    2    3    3    0    0 -0.35610656104E+02 -0.53550871782E+01  0.76801170814E+01  0.54367082233E+02  0.39999995566E+02 0.  0.
        -12    1    3    3    0    0  0.35610656104E+02  0.53550871782E+01 -0.76801170814E+01  0.36820917767E+02  0.00000000000E+00 0.  1.
         11    1    4    4    0    0 -0.34172145451E+01  0.27393173791E+01 -0.11332181122E+02  0.12149055280E+02  0.51100000000E-03 0. -1.
        -11    1    4    4    0    0  0.20632057892E+01 -0.16342061554E+01  0.25548429310E+01  0.36680608705E+01  0.51100000000E-03 0.  1.
         12    1    4    4    0    0 -0.34256647348E+02 -0.64601984019E+01  0.16457455272E+02  0.38549966082E+02  0.00000000000E+00 0. -1.
</event>
<event>
 8    1  0.2401680E-006  0.9118800E+02  0.7816164E-02  0.1184000E+00
        -11   -1    0    0    0    0  0.00000000000E+00  0.00000000000E+00  0.45593999997E+02  0.45594000000E+02  0.51100000000E-03 0.  1.
         11   -1    0    0    0    0 -0.00000000000E+00 -0.00000000000E+00 -0.45593999997E+02  0.45594000000E+02  0.51100000000E-03 0. -1.
         23    2    1    2    0    0 -0.17763568394E-14  0.88817841970E-15 -0.71054273576E-14  0.91188000000E+02  0.91188000000E+02 0.  0.
    9900012    2    3    3    0    0 -0.63760558343E+01 -0.29407117935E+01  0.36145240041E+02  0.54367078618E+02  0.39999987325E+02 0.  0.
         12    1    3    3    0    0  0.63760558343E+01  0.29407117935E+01 -0.36145240041E+02  0.36820921382E+02  0.00000000000E+00 0. -1.
         11    1    4    4    0    0 -0.84264719725E+01  0.13932982333E+02  0.64072791031E+01  0.17498189974E+02  0.51100000000E-03 0. -1.
        -11    1    4    4    0    0  0.36123034132E+01 -0.14874897602E+02  0.30579113508E+02  0.34196395976E+02  0.51100000000E-03 0.  1.
         12    1    4    4    0    0 -0.15618872750E+01 -0.19987965253E+01 -0.84115257015E+00  0.26724926671E+01  0.00000000000E+00 0. -1.
</event>
<event>
 8    1  0.2401680E-006  0.9118800E+02  0.7816164E-02  0.1184000E+00
        -11   -1    0    0    0    0  0.00000000000E+00  0.00000000000E+00  0.45593999997E+02  0.45594000000E+02  0.51100000000E-03 0.  1.
         11   -1    0    0    0    0 -0.00000000000E+00 -0.00000000000E+00 -0.45593999997E+02  0.45594000000E+02  0.51100000000E-03 0. -1.
         23    2    1    2    0    0  0.00000000000E+00  0.00000000000E+00 -0.88817841970E-15  0.91188000000E+02  0.91188000000E+02 0.  0.
    9900012    2    3    3    0    0  0.29823261145E+02 -0.20949765293E+02 -0.52402503718E+01  0.54367084814E+02  0.40000001451E+02 0.  0.
        -12    1    3    3    0    0 -0.29823261145E+02  0.20949765293E+02  0.52402503718E+01  0.36820915186E+02  0.00000000000E+00 0.  1.
         11    1    4    4    0    0  0.10203970048E+02  0.29264473058E+01 -0.91445098172E+01  0.14010965656E+02  0.51100000000E-03 0. -1.
        -11    1    4    4    0    0  0.42532914135E+01 -0.28003483207E+01 -0.96875851739E+01  0.10944484699E+02  0.51100000000E-03 0.  1.
        -12    1    4    4    0    0  0.15365999684E+02 -0.21075864278E+02  0.13591844619E+02  0.29411634459E+02  0.00000000000E+00 0.  1.
</event>
<event>
 8    1  0.2401680E-006  0.9118800E+02  0.7816164E-02  0.1184000E+00
        -11   -1    0    0    0    0  0.00000000000E+00  0.00000000000E+00  0.45593999997E+02  0.45594000000E+02  0.51100000000E-03 0.  1.
         11   -1    0    0    0    0 -0.00000000000E+00 -0.00000000000E+00 -0.45593999997E+02  0.45594000000E+02  0.51100000000E-03 0. -1.
         23    2    1    2    0    0  0.00000000000E+00  0.00000000000E+00  0.00000000000E+00  0.91188000000E+02  0.91188000000E+02 0.  0.
    9900012    2    3    3    0    0  0.21405602169E+02 -0.18719623965E+02  0.23391356280E+02  0.54367086456E+02  0.40000005194E+02 0.  0.
         12    1    3    3    0    0 -0.21405602169E+02  0.18719623965E+02 -0.23391356280E+02  0.36820913544E+02  0.00000000000E+00 0. -1.
         11    1    4    4    0    0  0.89994575866E+01 -0.15356097372E+02 -0.78234989146E+01  0.19442404658E+02  0.51100000000E-03 0. -1.
        -11    1    4    4    0    0  0.10599003901E+02 -0.58566246189E-01  0.28114483449E+02  0.30046072848E+02  0.51100000000E-03 0.  1.
        -12    1    4    4    0    0  0.18071406811E+01 -0.33049603464E+01  0.31003717451E+01  0.48786089503E+01  0.00000000000E+00 0.  1.
</event>
<event>
 8    1  0.2401680E-006  0.9118800E+02  0.7816164E-02  0.1184000E+00
        -11   -1    0    0    0    0  0.00000000000E+00  0.00000000000E+00  0.45593999997E+02  0.45594000000E+02  0.51100000000E-03 0.  1.
         11   -1    0    0    0    0 -0.00000000000E+00 -0.00000000000E+00 -0.45593999997E+02  0.45594000000E+02  0.51100000000E-03 0. -1.
         23    2    1    2    0    0  0.35527136788E-14  0.00000000000E+00  0.00000000000E+00  0.91188000000E+02  0.91188000000E+02 0.  0.
    9900012    2    3    3    0    0  0.18230261623E+02 -0.13227189976E+02 -0.29128661097E+02  0.54367083515E+02  0.39999998488E+02 0.  0.
        -12    1    3    3    0    0 -0.18230261623E+02  0.13227189976E+02  0.29128661097E+02  0.36820916485E+02  0.00000000000E+00 0.  1.
         11    1    4    4    0    0 -0.91976494543E+00 -0.38918804844E+01  0.16881486739E+01  0.43408003255E+01  0.51100000000E-03 0. -1.
        -11    1    4    4    0    0  0.20238479757E+01 -0.91559377037E+01 -0.31519517745E+02  0.32884755663E+02  0.51100000000E-03 0.  1.
         12    1    4    4    0    0  0.17126178593E+02 -0.17937178780E+00  0.70270797406E+00  0.17141527526E+02  0.00000000000E+00 0. -1.
</event>
<event>
 8    1  0.2401680E-006  0.9118800E+02  0.7816164E-02  0.1184000E+00
        -11   -1    0    0    0    0  0.00000000000E+00  0.00000000000E+00  0.45593999997E+02  0.45594000000E+02  0.51100000000E-03 0. -1.
         11   -1    0    0    0    0 -0.00000000000E+00 -0.00000000000E+00 -0.45593999997E+02  0.45594000000E+02  0.51100000000E-03 0.  1.
         23    2    1    2    0    0 -0.44408920985E-15 -0.17763568394E-14  0.00000000000E+00  0.91188000000E+02  0.91188000000E+02 0.  0.
    9900012    2    3    3    0    0  0.39758984954E+01  0.13192249401E+02 -0.34145811854E+02  0.54367086373E+02  0.40000005006E+02 0.  0.
         12    1    3    3    0    0 -0.39758984954E+01 -0.13192249401E+02  0.34145811854E+02  0.36820913627E+02  0.00000000000E+00 0. -1.
         11    1    4    4    0    0  0.55266831041E+01  0.73511776366E+01  0.48459467373E-01  0.91970858080E+01  0.51100000000E-03 0. -1.
        -11    1    4    4    0    0 -0.51606941324E+01 -0.31198826573E+01 -0.34962485503E+02  0.35478751733E+02  0.51100000000E-03 0.  1.
        -12    1    4    4    0    0  0.36099095237E+01  0.89609544213E+01  0.76821418092E+00  0.96912488328E+01  0.00000000000E+00 0.  1.
</event>
<event>
 8    1  0.2401680E-006  0.9118800E+02  0.7816164E-02  0.1184000E+00
        -11   -1    0    0    0    0  0.00000000000E+00  0.00000000000E+00  0.45593999997E+02  0.45594000000E+02  0.51100000000E-03 0.  1.
         11   -1    0    0    0    0 -0.00000000000E+00 -0.00000000000E+00 -0.45593999997E+02  0.45594000000E+02  0.51100000000E-03 0. -1.
         23    2    1    2    0    0  0.71054273576E-14  0.00000000000E+00  0.00000000000E+00  0.91188000000E+02  0.91188000000E+02 0.  0.
    9900012    2    3    3    0    0  0.29902016897E+02 -0.33936038028E+01  0.21216565973E+02  0.54366948508E+02  0.39999690713E+02 0.  0.
         12    1    3    3    0    0 -0.29902016897E+02  0.33936038028E+01 -0.21216565973E+02  0.36821051492E+02  0.00000000000E+00 0. -1.
         11    1    4    4    0    0  0.12846842275E+02 -0.17802610706E+01 -0.97548509875E+01  0.16228610660E+02  0.51100000000E-03 0. -1.
        -11    1    4    4    0    0 -0.22951826056E+01  0.27883086955E+00  0.64018375410E+01  0.68065508159E+01  0.51100000000E-03 0.  1.
         12    1    4    4    0    0  0.19350357228E+02 -0.18921736018E+01  0.24569579419E+02  0.31331787032E+02  0.00000000000E+00 0. -1.
</event>
<event>
 8    1  0.2401680E-006  0.9118800E+02  0.7816164E-02  0.1184000E+00
        -11   -1    0    0    0    0  0.00000000000E+00  0.00000000000E+00  0.45593999997E+02  0.45594000000E+02  0.51100000000E-03 0.  1.
         11   -1    0    0    0    0 -0.00000000000E+00 -0.00000000000E+00 -0.45593999997E+02  0.45594000000E+02  0.51100000000E-03 0. -1.
         23    2    1    2    0    0  0.00000000000E+00 -0.35527136788E-14  0.71054273576E-14  0.91188000000E+02  0.91188000000E+02 0.  0.
    9900012    2    3    3    0    0  0.10157901368E+02  0.27071961927E+02 -0.22797055596E+02  0.54367084387E+02  0.40000000476E+02 0.  0.
        -12    1    3    3    0    0 -0.10157901368E+02 -0.27071961927E+02  0.22797055596E+02  0.36820915613E+02  0.00000000000E+00 0.  1.
         11    1    4    4    0    0 -0.54795468977E+01 -0.29619345002E+01  0.44325651438E+01  0.76450064881E+01  0.51100000000E-03 0. -1.
        -11    1    4    4    0    0  0.13764512045E+02  0.96756825392E+01 -0.79025557813E+01  0.18588464503E+02  0.51100000000E-03 0.  1.
         12    1    4    4    0    0  0.18729362202E+01  0.20358213888E+02 -0.19327064958E+02  0.28133613395E+02  0.00000000000E+00 0. -1.
</event>
<event>
 8    1  0.2401680E-006  0.9118800E+02  0.7816164E-02  0.1184000E+00
        -11   -1    0    0    0    0  0.00000000000E+00  0.00000000000E+00  0.45593999997E+02  0.45594000000E+02  0.51100000000E-03 0.  1.
         11   -1    0    0    0    0 -0.00000000000E+00 -0.00000000000E+00 -0.45593999997E+02  0.45594000000E+02  0.51100000000E-03 0. -1.
         23    2    1    2    0    0  0.00000000000E+00 -0.17763568394E-14  0.00000000000E+00  0.91188000000E+02  0.91188000000E+02 0.  0.
    9900012    2    3    3    0    0 -0.29270718042E+02  0.10524579275E+02  0.19703762552E+02  0.54367082544E+02  0.39999996275E+02 0.  0.
         12    1    3    3    0    0  0.29270718042E+02 -0.10524579275E+02 -0.19703762552E+02  0.36820917456E+02  0.00000000000E+00 0. -1.
         11    1    4    4    0    0 -0.31420322706E+02 -0.38204616242E+00  0.21116788928E+02  0.37858967407E+02  0.51100000000E-03 0. -1.
        -11    1    4    4    0    0  0.43118634390E+01  0.57473431174E+01  0.44123749468E+01  0.84316767109E+01  0.51100000000E-03 0.  1.
         12    1    4    4    0    0 -0.21622587758E+01  0.51592823201E+01 -0.58254013234E+01  0.80764384261E+01  0.00000000000E+00 0. -1.
</event>
<event>
 8    1  0.2401680E-006  0.9118800E+02  0.7816164E-02  0.1184000E+00
        -11   -1    0    0    0    0  0.00000000000E+00  0.00000000000E+00  0.45593999997E+02  0.45594000000E+02  0.51100000000E-03 0. -1.
         11   -1    0    0    0    0 -0.00000000000E+00 -0.00000000000E+00 -0.45593999997E+02  0.45594000000E+02  0.51100000000E-03 0.  1.
         23    2    1    2    0    0 -0.17763568394E-14 -0.71054273576E-14 -0.88817841970E-15  0.91188000000E+02  0.91188000000E+02 0.  0.
    9900012    2    3    3    0    0 -0.15509776465E+02 -0.33235831788E+02  0.32569413692E+01  0.54367063731E+02  0.39999953388E+02 0.  0.
         12    1    3    3    0    0  0.15509776465E+02  0.33235831788E+02 -0.32569413692E+01  0.36820936269E+02  0.00000000000E+00 0. -1.
         11    1    4    4    0    0  0.44928963611E+01 -0.25080502422E+01  0.12108366375E+02  0.13156328145E+02  0.51100000000E-03 0. -1.
        -11    1    4    4    0    0 -0.18582398038E+02 -0.32063279220E+02 -0.56851574145E+01  0.37492404648E+02  0.51100000000E-03 0.  1.
        -12    1    4    4    0    0 -0.14202747876E+01  0.13354976741E+01 -0.31662675909E+01  0.37183309384E+01  0.00000000000E+00 0.  1.
</event>
<event>
 8    1  0.2401680E-006  0.9118800E+02  0.7816164E-02  0.1184000E+00
        -11   -1    0    0    0    0  0.00000000000E+00  0.00000000000E+00  0.45593999997E+02  0.45594000000E+02  0.51100000000E-03 0.  1.
         11   -1    0    0    0    0 -0.00000000000E+00 -0.00000000000E+00 -0.45593999997E+02  0.45594000000E+02  0.51100000000E-03 0. -1.
         23    2    1    2    0    0  0.88817841970E-15  0.00000000000E+00  0.17763568394E-14  0.91188000000E+02  0.91188000000E+02 0.  0.
    9900012    2    3    3    0    0 -0.65849446164E+01 -0.32649536251E+02  0.15697964665E+02  0.54367084644E+02  0.40000001063E+02 0.  0.
         12    1    3    3    0    0  0.65849446164E+01  0.32649536251E+02 -0.15697964665E+02  0.36820915356E+02  0.00000000000E+00 0. -1.
         11    1    4    4    0    0 -0.15674340246E+02 -0.22980272754E+02  0.62608693058E+01  0.28512740358E+02  0.51100000000E-03 0. -1.
        -11    1    4    4    0    0 -0.40300797380E+01  0.45432940781E+00  0.83075021196E+01  0.92445956988E+01  0.51100000000E-03 0.  1.
         12    1    4    4    0    0  0.13119475368E+02 -0.10123592906E+02  0.11295932393E+01  0.16609748587E+02  0.00000000000E+00 0. -1.
</event>
<event>
 8    1  0.2401680E-006  0.9118800E+02  0.7816164E-02  0.1184000E+00
        -11   -1    0    0    0    0  0.00000000000E+00  0.00000000000E+00  0.45593999997E+02  0.45594000000E+02  0.51100000000E-03 0. -1.
         11   -1    0    0    0    0 -0.00000000000E+00 -0.00000000000E+00 -0.45593999997E+02  0.45594000000E+02  0.51100000000E-03 0.  1.
         23    2    1    2    0    0  0.00000000000E+00 -0.66613381478E-15 -0.71054273576E-14  0.91188000000E+02  0.91188000000E+02 0.  0.
    9900012    2    3    3    0    0  0.14497729520E+02 -0.11995155194E+01  0.33825432126E+02  0.54367043233E+02  0.39999906658E+02 0.  0.
        -12    1    3    3    0    0 -0.14497729520E+02  0.11995155194E+01 -0.33825432126E+02  0.36820956767E+02  0.00000000000E+00 0.  1.
         11    1    4    4    0    0  0.13080768307E+02  0.10552807807E+02  0.43930652450E+01  0.17371449987E+02  0.51100000000E-03 0. -1.
        -11    1    4    4    0    0  0.30604277644E+01  0.28826279480E+01  0.13657137959E+00  0.42064728682E+01  0.51100000000E-03 0.  1.
         12    1    4    4    0    0 -0.16434665518E+01 -0.14634951275E+02  0.29295795501E+02  0.32789120378E+02  0.00000000000E+00 0. -1.
</event>
<event>
 8    1  0.2401680E-006  0.9118800E+02  0.7816164E-02  0.1184000E+00
        -11   -1    0    0    0    0  0.00000000000E+00  0.00000000000E+00  0.45593999997E+02  0.45594000000E+02  0.51100000000E-03 0.  1.
         11   -1    0    0    0    0 -0.00000000000E+00 -0.00000000000E+00 -0.45593999997E+02  0.45594000000E+02  0.51100000000E-03 0. -1.
         23    2    1    2    0    0  0.00000000000E+00  0.35527136788E-14  0.00000000000E+00  0.91188000000E+02  0.91188000000E+02 0.  0.
    9900012    2    3    3    0    0  0.23095451096E+01  0.30228160038E+02  0.20897483407E+02  0.54367075641E+02  0.39999980538E+02 0.  0.
         12    1    3    3    0    0 -0.23095451096E+01 -0.30228160038E+02 -0.20897483407E+02  0.36820924359E+02  0.00000000000E+00 0. -1.
         11    1    4    4    0    0 -0.75275970759E+01  0.29183179304E+01  0.12210044219E+02  0.14637844014E+02  0.51100000000E-03 0. -1.
        -11    1    4    4    0    0  0.26494608239E+01  0.16341635744E+02  0.17374934208E+02  0.23999104992E+02  0.51100000000E-03 0.  1.
         12    1    4    4    0    0  0.71876813616E+01  0.10968206364E+02 -0.86874950200E+01  0.15730126634E+02  0.00000000000E+00 0. -1.
</event>
<event>
 8    1  0.2401680E-006  0.9118800E+02  0.7816164E-02  0.1184000E+00
        -11   -1    0    0    0    0  0.00000000000E+00  0.00000000000E+00  0.45593999997E+02  0.45594000000E+02  0.51100000000E-03 0.  1.
         11   -1    0    0    0    0 -0.00000000000E+00 -0.00000000000E+00 -0.45593999997E+02  0.45594000000E+02  0.51100000000E-03 0. -1.
         23    2    1    2    0    0  0.00000000000E+00 -0.55511151231E-15  0.00000000000E+00  0.91188000000E+02  0.91188000000E+02 0.  0.
    9900012    2    3    3    0    0  0.11052889744E+02  0.71825677081E+00 -0.35115485113E+02  0.54367088018E+02  0.40000008754E+02 0.  0.
        -12    1    3    3    0    0 -0.11052889744E+02 -0.71825677081E+00  0.35115485113E+02  0.36820911982E+02  0.00000000000E+00 0.  1.
         11    1    4    4    0    0 -0.13775563657E+01 -0.22811567237E+01 -0.24984367484E+02  0.25126081198E+02  0.51100000000E-03 0. -1.
        -11    1    4    4    0    0 -0.84069994967E+00  0.11437567754E+02 -0.24000133070E+01  0.11716859505E+02  0.51100000000E-03 0.  1.
         12    1    4    4    0    0  0.13271146059E+02 -0.84381542596E+01 -0.77311043220E+01  0.17524147314E+02  0.00000000000E+00 0. -1.
</event>
<event>
 8    1  0.2401680E-006  0.9118800E+02  0.7816164E-02  0.1184000E+00
        -11   -1    0    0    0    0  0.00000000000E+00  0.00000000000E+00  0.45593999997E+02  0.45594000000E+02  0.51100000000E-03 0.  1.
         11   -1    0    0    0    0 -0.00000000000E+00 -0.00000000000E+00 -0.45593999997E+02  0.45594000000E+02  0.51100000000E-03 0. -1.
         23    2    1    2    0    0  0.35527136788E-14  0.00000000000E+00 -0.35527136788E-14  0.91188000000E+02  0.91188000000E+02 0.  0.
    9900012    2    3    3    0    0  0.20032188800E+02 -0.11297877254E+02 -0.28754985144E+02  0.54367084895E+02  0.40000001635E+02 0.  0.
        -12    1    3    3    0    0 -0.20032188800E+02  0.11297877254E+02  0.28754985144E+02  0.36820915105E+02  0.00000000000E+00 0.  1.
         11    1    4    4    0    0  0.12644204171E+02  0.45631180719E+01 -0.21819142089E+01  0.13618322053E+02  0.51100000000E-03 0. -1.
        -11    1    4    4    0    0 -0.67232957534E+01 -0.12004767099E+01  0.53805877994E+00  0.68507924819E+01  0.51100000000E-03 0.  1.
        -12    1    4    4    0    0  0.14111280382E+02 -0.14660518616E+02 -0.27111129715E+02  0.33897970360E+02  0.00000000000E+00 0.  1.
</event>
<event>
 8    1  0.2401680E-006  0.9118800E+02  0.7816164E-02  0.1184000E+00
        -11   -1    0    0    0    0  0.00000000000E+00  0.00000000000E+00  0.45593999997E+02  0.45594000000E+02  0.51100000000E-03 0. -1.
         11   -1    0    0    0    0 -0.00000000000E+00 -0.00000000000E+00 -0.45593999997E+02  0.45594000000E+02  0.51100000000E-03 0.  1.
         23    2    1    2    0    0  0.00000000000E+00  0.17763568394E-14  0.00000000000E+00  0.91188000000E+02  0.91188000000E+02 0.  0.
    9900012    2    3    3    0    0 -0.34058152287E+02  0.12063225570E+02 -0.70923406823E+01  0.54367075993E+02  0.39999981342E+02 0.  0.
         12    1    3    3    0    0  0.34058152287E+02 -0.12063225570E+02  0.70923406823E+01  0.36820924007E+02  0.00000000000E+00 0. -1.
         11    1    4    4    0    0  0.27286846085E+01  0.49645455067E+01 -0.38017222057E-01  0.56651458367E+01  0.51100000000E-03 0. -1.
        -11    1    4    4    0    0 -0.40432489522E+02  0.96556799113E+01 -0.10725424067E+02  0.42930794137E+02  0.51100000000E-03 0.  1.
        -12    1    4    4    0    0  0.36456526270E+01 -0.25569998475E+01  0.36711006066E+01  0.57711360199E+01  0.00000000000E+00 0.  1.
</event>
<event>
 8    1  0.2401680E-006  0.9118800E+02  0.7816164E-02  0.1184000E+00
        -11   -1    0    0    0    0  0.00000000000E+00  0.00000000000E+00  0.45593999997E+02  0.45594000000E+02  0.51100000000E-03 0.  1.
         11   -1    0    0    0    0 -0.00000000000E+00 -0.00000000000E+00 -0.45593999997E+02  0.45594000000E+02  0.51100000000E-03 0. -1.
         23    2    1    2    0    0  0.00000000000E+00 -0.35527136788E-14  0.00000000000E+00  0.91188000000E+02  0.91188000000E+02 0.  0.
    9900012    2    3    3    0    0 -0.12480839456E+02  0.24961613906E+02  0.24019214095E+02  0.54367134066E+02  0.40000113731E+02 0.  0.
         12    1    3    3    0    0  0.12480839456E+02 -0.24961613906E+02 -0.24019214095E+02  0.36820865934E+02  0.00000000000E+00 0. -1.
         11    1    4    4    0    0 -0.10548465565E+02  0.22778511691E+00  0.20469233185E+00  0.10552910075E+02  0.51100000000E-03 0. -1.
        -11    1    4    4    0    0 -0.78190711152E+01  0.12845565592E+02  0.26320589860E+02  0.30313691285E+02  0.51100000000E-03 0.  1.
        -12    1    4    4    0    0  0.58866972240E+01  0.11888263198E+02 -0.25060680966E+01  0.13500532707E+02  0.00000000000E+00 0.  1.
</event>
<event>
 8    1  0.2401680E-006  0.9118800E+02  0.7816164E-02  0.1184000E+00
        -11   -1    0    0    0    0  0.00000000000E+00  0.00000000000E+00  0.45593999997E+02  0.45594000000E+02  0.51100000000E-03 0.  1.
         11   -1    0    0    0    0 -0.00000000000E+00 -0.00000000000E+00 -0.45593999997E+02  0.45594000000E+02  0.51100000000E-03 0. -1.
         23    2    1    2    0    0 -0.35527136788E-14  0.00000000000E+00  0.00000000000E+00  0.91188000000E+02  0.91188000000E+02 0.  0.
    9900012    2    3    3    0    0  0.24314502164E+02  0.27538179651E+02 -0.24977622841E+01  0.54367011822E+02  0.39999835049E+02 0.  0.
         12    1    3    3    0    0 -0.24314502164E+02 -0.27538179651E+02  0.24977622841E+01  0.36820988178E+02  0.00000000000E+00 0. -1.
         11    1    4    4    0    0 -0.63377331249E+01  0.18052903704E+01 -0.89373804779E+01  0.11104175096E+02  0.51100000000E-03 0. -1.
        -11    1    4    4    0    0  0.31528266840E+02  0.20908757083E+02  0.63394573460E+01  0.38358785856E+02  0.51100000000E-03 0.  1.
        -12    1    4    4    0    0 -0.87603155029E+00  0.48241321978E+01  0.10016084774E+00  0.49040508699E+01  0.00000000000E+00 0.  1.
</event>
<event>
 8    1  0.2401680E-006  0.9118800E+02  0.7816164E-02  0.1184000E+00
        -11   -1    0    0    0    0  0.00000000000E+00  0.00000000000E+00  0.45593999997E+02  0.45594000000E+02  0.51100000000E-03 0.  1.
         11   -1    0    0    0    0 -0.00000000000E+00 -0.00000000000E+00 -0.45593999997E+02  0.45594000000E+02  0.51100000000E-03 0. -1.
         23    2    1    2    0    0  0.00000000000E+00 -0.44408920985E-15  0.71054273576E-14  0.91188000000E+02  0.91188000000E+02 0.  0.
    9900012    2    3    3    0    0  0.10982902664E+02 -0.17140650344E+01 -0.35102973668E+02  0.54367069400E+02  0.39999966312E+02 0.  0.
        -12    1    3    3    0    0 -0.10982902664E+02  0.17140650344E+01  0.35102973668E+02  0.36820930600E+02  0.00000000000E+00 0.  1.
         11    1    4    4    0    0 -0.24251855979E+01 -0.71849962685E+01  0.18127531266E+01  0.77969077667E+01  0.51100000000E-03 0.  1.
        -11    1    4    4    0    0 -0.31452104826E+01 -0.60116911812E+01 -0.16720313410E+02  0.18044435725E+02  0.51100000000E-03 0. -1.
         12    1    4    4    0    0  0.16553298744E+02  0.11482622415E+02 -0.20195413385E+02  0.28525725909E+02  0.00000000000E+00 0. -1.
</event>
<event>
 8    1  0.2401680E-006  0.9118800E+02  0.7816164E-02  0.1184000E+00
        -11   -1    0    0    0    0  0.00000000000E+00  0.00000000000E+00  0.45593999997E+02  0.45594000000E+02  0.51100000000E-03 0.  1.
         11   -1    0    0    0    0 -0.00000000000E+00 -0.00000000000E+00 -0.45593999997E+02  0.45594000000E+02  0.51100000000E-03 0. -1.
         23    2    1    2    0    0 -0.35527136788E-14  0.00000000000E+00 -0.22204460493E-15  0.91188000000E+02  0.91188000000E+02 0.  0.
    9900012    2    3    3    0    0 -0.31382797709E+02  0.19220856505E+02 -0.12078575471E+01  0.54367078819E+02  0.39999987783E+02 0.  0.
        -12    1    3    3    0    0  0.31382797709E+02 -0.19220856505E+02  0.12078575471E+01  0.36820921181E+02  0.00000000000E+00 0.  1.
         11    1    4    4    0    0  0.43104254513E+01 -0.51914698191E+01  0.12110858842E+00  0.67487624054E+01  0.51100000000E-03 0. -1.
        -11    1    4    4    0    0 -0.10722231986E+02 -0.91728099230E+00  0.43343555418E+01  0.11601478415E+02  0.51100000000E-03 0.  1.
         12    1    4    4    0    0 -0.24970991174E+02  0.25329607316E+02 -0.56633216773E+01  0.36016837998E+02  0.00000000000E+00 0. -1.
</event>
<event>
 8    1  0.2401680E-006  0.9118800E+02  0.7816164E-02  0.1184000E+00
        -11   -1    0    0    0    0  0.00000000000E+00  0.00000000000E+00  0.45593999997E+02  0.45594000000E+02  0.51100000000E-03 0.  1.
         11   -1    0    0    0    0 -0.00000000000E+00 -0.00000000000E+00 -0.45593999997E+02  0.45594000000E+02  0.51100000000E-03 0. -1.
         23    2    1    2    0    0  0.00000000000E+00  0.00000000000E+00  0.35527136788E-14  0.91188000000E+02  0.91188000000E+02 0.  0.
    9900012    2    3    3    0    0  0.23872645929E+02 -0.12196944304E+02 -0.25241369981E+02  0.54366872470E+02  0.39999517368E+02 0.  0.
        -12    1    3    3    0    0 -0.23872645929E+02  0.12196944304E+02  0.25241369981E+02  0.36821127530E+02  0.00000000000E+00 0.  1.
         11    1    4    4    0    0  0.26256320812E+02 -0.14959765252E+02 -0.17383047416E+02  0.34862003625E+02  0.51100000000E-03 0. -1.
        -11    1    4    4    0    0  0.42515632179E+01 -0.49117525481E+00 -0.10748802863E+02  0.11569520568E+02  0.51100000000E-03 0.  1.
        -12    1    4    4    0    0 -0.66352381011E+01  0.32539962024E+01  0.28904802976E+01  0.79353482780E+01  0.00000000000E+00 0.  1.
</event>
<event>
 8    1  0.2401680E-006  0.9118800E+02  0.7816164E-02  0.1184000E+00
        -11   -1    0    0    0    0  0.00000000000E+00  0.00000000000E+00  0.45593999997E+02  0.45594000000E+02  0.51100000000E-03 0.  1.
         11   -1    0    0    0    0 -0.00000000000E+00 -0.00000000000E+00 -0.45593999997E+02  0.45594000000E+02  0.51100000000E-03 0. -1.
         23    2    1    2    0    0  0.00000000000E+00  0.00000000000E+00 -0.35527136788E-14  0.91188000000E+02  0.91188000000E+02 0.  0.
    9900012    2    3    3    0    0 -0.25731469713E+02  0.19738307630E+02  0.17437699048E+02  0.54367045779E+02  0.39999912461E+02 0.  0.
         12    1    3    3    0    0  0.25731469713E+02 -0.19738307630E+02 -0.17437699048E+02  0.36820954221E+02  0.00000000000E+00 0. -1.
         11    1    4    4    0    0 -0.21299860124E+02  0.78434187085E+01 -0.25462192556E+01  0.22840457331E+02  0.51100000000E-03 0. -1.
        -11    1    4    4    0    0 -0.11126631881E+02  0.13406345101E+02  0.13028023134E+02  0.21754572232E+02  0.51100000000E-03 0.  1.
         12    1    4    4    0    0  0.66950222922E+01 -0.15114561800E+01  0.69558951703E+01  0.97720162146E+01  0.00000000000E+00 0. -1.
</event>
<event>
 8    1  0.2401680E-006  0.9118800E+02  0.7816164E-02  0.1184000E+00
        -11   -1    0    0    0    0  0.00000000000E+00  0.00000000000E+00  0.45593999997E+02  0.45594000000E+02  0.51100000000E-03 0.  1.
         11   -1    0    0    0    0 -0.00000000000E+00 -0.00000000000E+00 -0.45593999997E+02  0.45594000000E+02  0.51100000000E-03 0. -1.
         23    2    1    2    0    0  0.00000000000E+00  0.00000000000E+00 -0.17763568394E-14  0.91188000000E+02  0.91188000000E+02 0.  0.
    9900012    2    3    3    0    0  0.32921756871E+02 -0.67942527518E+01  0.15025825827E+02  0.54367090346E+02  0.40000014062E+02 0.  0.
         12    1    3    3    0    0 -0.32921756871E+02  0.67942527518E+01 -0.15025825827E+02  0.36820909654E+02  0.00000000000E+00 0. -1.
         11    1    4    4    0    0 -0.33708866892E+01  0.11813002360E+01 -0.43664929184E+01  0.56413303384E+01  0.51100000000E-03 0. -1.
        -11    1    4    4    0    0 -0.59258793647E+00 -0.24284236375E+01 -0.39859552679E+01  0.47049167351E+01  0.51100000000E-03 0.  1.
        -12    1    4    4    0    0  0.36885231497E+02 -0.55471293503E+01  0.23378274013E+02  0.44020843273E+02  0.00000000000E+00 0.  1.
</event>
<event>
 8    1  0.2401680E-006  0.9118800E+02  0.7816164E-02  0.1184000E+00
        -11   -1    0    0    0    0  0.00000000000E+00  0.00000000000E+00  0.45593999997E+02  0.45594000000E+02  0.51100000000E-03 0. -1.
         11   -1    0    0    0    0 -0.00000000000E+00 -0.00000000000E+00 -0.45593999997E+02  0.45594000000E+02  0.51100000000E-03 0.  1.
         23    2    1    2    0    0 -0.88817841970E-15  0.00000000000E+00 -0.17763568394E-14  0.91188000000E+02  0.91188000000E+02 0.  0.
    9900012    2    3    3    0    0 -0.49664678039E+01  0.36157422923E+02 -0.48736795387E+01  0.54367112081E+02  0.40000063612E+02 0.  0.
         12    1    3    3    0    0  0.49664678039E+01 -0.36157422923E+02  0.48736795387E+01  0.36820887919E+02  0.00000000000E+00 0. -1.
         11    1    4    4    0    0 -0.44875832667E+01  0.19636966141E+02  0.12747884921E+02  0.23838150369E+02  0.51100000000E-03 0. -1.
        -11    1    4    4    0    0  0.62727259382E+00  0.18724034863E+02 -0.76148827706E+01  0.20222991676E+02  0.51100000000E-03 0.  1.
         12    1    4    4    0    0 -0.11061571311E+01 -0.22035780807E+01 -0.10006681690E+02  0.10305970036E+02  0.00000000000E+00 0. -1.
</event>
<event>
 8    1  0.2401680E-006  0.9118800E+02  0.7816164E-02  0.1184000E+00
        -11   -1    0    0    0    0  0.00000000000E+00  0.00000000000E+00  0.45593999997E+02  0.45594000000E+02  0.51100000000E-03 0. -1.
         11   -1    0    0    0    0 -0.00000000000E+00 -0.00000000000E+00 -0.45593999997E+02  0.45594000000E+02  0.51100000000E-03 0.  1.
         23    2    1    2    0    0  0.00000000000E+00  0.35527136788E-14  0.00000000000E+00  0.91188000000E+02  0.91188000000E+02 0.  0.
    9900012    2    3    3    0    0 -0.15048389499E+02  0.29160943976E+02 -0.16702227496E+02  0.54367094479E+02  0.40000023484E+02 0.  0.
         12    1    3    3    0    0  0.15048389499E+02 -0.29160943976E+02  0.16702227496E+02  0.36820905521E+02  0.00000000000E+00 0. -1.
         11    1    4    4    0    0 -0.46693544270E+01  0.31465352711E+02 -0.43028524854E+01  0.32099623546E+02  0.51100000000E-03 0. -1.
        -11    1    4    4    0    0  0.37956532193E+01 -0.15224947060E+01 -0.42515242507E+01  0.58991891143E+01  0.51100000000E-03 0.  1.
         12    1    4    4    0    0 -0.14174688291E+02 -0.78191402983E+00 -0.81478507596E+01  0.16368281819E+02  0.00000000000E+00 0. -1.
</event>
<event>
 8    1  0.2401680E-006  0.9118800E+02  0.7816164E-02  0.1184000E+00
        -11   -1    0    0    0    0  0.00000000000E+00  0.00000000000E+00  0.45593999997E+02  0.45594000000E+02  0.51100000000E-03 0. -1.
         11   -1    0    0    0    0 -0.00000000000E+00 -0.00000000000E+00 -0.45593999997E+02  0.45594000000E+02  0.51100000000E-03 0.  1.
         23    2    1    2    0    0 -0.77715611724E-15  0.00000000000E+00  0.00000000000E+00  0.91188000000E+02  0.91188000000E+02 0.  0.
    9900012    2    3    3    0    0 -0.25418085556E+00 -0.28297035812E+02  0.23558262916E+02  0.54367101107E+02  0.40000038593E+02 0.  0.
        -12    1    3    3    0    0  0.25418085556E+00  0.28297035812E+02 -0.23558262916E+02  0.36820898893E+02  0.00000000000E+00 0.  1.
         11    1    4    4    0    0  0.80544614070E+01 -0.36657827766E+01 -0.44645477315E+00  0.88606790963E+01  0.51100000000E-03 0.  1.
        -11    1    4    4    0    0 -0.87402473895E+00 -0.25673573916E+02  0.27141123297E+02  0.37370267472E+02  0.51100000000E-03 0. -1.
        -12    1    4    4    0    0 -0.74346175237E+01  0.10423208801E+01 -0.31364056073E+01  0.81361545385E+01  0.00000000000E+00 0.  1.
</event>
<event>
 8    1  0.2401680E-006  0.9118800E+02  0.7816164E-02  0.1184000E+00
        -11   -1    0    0    0    0  0.00000000000E+00  0.00000000000E+00  0.45593999997E+02  0.45594000000E+02  0.51100000000E-03 0.  1.
         11   -1    0    0    0    0 -0.00000000000E+00 -0.00000000000E+00 -0.45593999997E+02  0.45594000000E+02  0.51100000000E-03 0. -1.
         23    2    1    2    0    0 -0.44408920985E-15 -0.35527136788E-14  0.71054273576E-14  0.91188000000E+02  0.91188000000E+02 0.  0.
    9900012    2    3    3    0    0 -0.25961196105E+01 -0.17114239941E+02  0.32498364525E+02  0.54367071948E+02  0.39999972120E+02 0.  0.
         12    1    3    3    0    0  0.25961196105E+01  0.17114239941E+02 -0.32498364525E+02  0.36820928052E+02  0.00000000000E+00 0. -1.
         11    1    4    4    0    0 -0.83419253282E+00 -0.21555027874E+02  0.10953270870E+02  0.24192751949E+02  0.51100000000E-03 0. -1.
        -11    1    4    4    0    0  0.10793532615E+01  0.74914218620E+01  0.24116438216E+02  0.25276253628E+02  0.51100000000E-03 0.  1.
        -12    1    4    4    0    0 -0.28412803392E+01 -0.30506339283E+01 -0.25713445606E+01  0.48980663715E+01  0.00000000000E+00 0.  1.
</event>
<event>
 8    1  0.2401680E-006  0.9118800E+02  0.7816164E-02  0.1184000E+00
        -11   -1    0    0    0    0  0.00000000000E+00  0.00000000000E+00  0.45593999997E+02  0.45594000000E+02  0.51100000000E-03 0. -1.
         11   -1    0    0    0    0 -0.00000000000E+00 -0.00000000000E+00 -0.45593999997E+02  0.45594000000E+02  0.51100000000E-03 0.  1.
         23    2    1    2    0    0  0.00000000000E+00  0.00000000000E+00 -0.26645352591E-14  0.91188000000E+02  0.91188000000E+02 0.  0.
    9900012    2    3    3    0    0  0.32611987150E+02  0.15812473570E+02  0.64964059076E+01  0.54367091321E+02  0.40000016284E+02 0.  0.
         12    1    3    3    0    0 -0.32611987150E+02 -0.15812473570E+02 -0.64964059076E+01  0.36820908679E+02  0.00000000000E+00 0. -1.
         11    1    4    4    0    0  0.63499973673E+00  0.51352168606E+01 -0.13054886839E+02  0.14042925176E+02  0.51100000000E-03 0. -1.
        -11    1    4    4    0    0  0.30926809866E+02  0.11324598695E+02  0.16101109055E+02  0.36660057517E+02  0.51100000000E-03 0.  1.
         12    1    4    4    0    0  0.10501775471E+01 -0.64734198576E+00  0.34501836916E+01  0.36641086273E+01  0.00000000000E+00 0. -1.
</event>
<event>
 8    1  0.2401680E-006  0.9118800E+02  0.7816164E-02  0.1184000E+00
        -11   -1    0    0    0    0  0.00000000000E+00  0.00000000000E+00  0.45593999997E+02  0.45594000000E+02  0.51100000000E-03 0. -1.
         11   -1    0    0    0    0 -0.00000000000E+00 -0.00000000000E+00 -0.45593999997E+02  0.45594000000E+02  0.51100000000E-03 0.  1.
         23    2    1    2    0    0 -0.44408920985E-15  0.00000000000E+00  0.00000000000E+00  0.91188000000E+02  0.91188000000E+02 0.  0.
    9900012    2    3    3    0    0 -0.15413162786E+01 -0.21388531771E+02 -0.29932184055E+02  0.54367074027E+02  0.39999976860E+02 0.  0.
         12    1    3    3    0    0  0.15413162786E+01  0.21388531771E+02  0.29932184055E+02  0.36820925973E+02  0.00000000000E+00 0. -1.
         11    1    4    4    0    0  0.56612866028E+01  0.74294666870E+01 -0.18050958057E+01  0.95134385152E+01  0.51100000000E-03 0. -1.
        -11    1    4    4    0    0 -0.42361349513E+01 -0.28276655124E+02 -0.29887817444E+02  0.41361766116E+02  0.51100000000E-03 0.  1.
         12    1    4    4    0    0 -0.29664679302E+01 -0.54134333334E+00  0.17607291950E+01  0.34918693967E+01  0.00000000000E+00 0. -1.
</event>
<event>
 8    1  0.2401680E-006  0.9118800E+02  0.7816164E-02  0.1184000E+00
        -11   -1    0    0    0    0  0.00000000000E+00  0.00000000000E+00  0.45593999997E+02  0.45594000000E+02  0.51100000000E-03 0.  1.
         11   -1    0    0    0    0 -0.00000000000E+00 -0.00000000000E+00 -0.45593999997E+02  0.45594000000E+02  0.51100000000E-03 0. -1.
         23    2    1    2    0    0  0.00000000000E+00  0.11102230246E-14  0.00000000000E+00  0.91188000000E+02  0.91188000000E+02 0.  0.
    9900012    2    3    3    0    0 -0.20530746442E+02  0.19431507105E+01  0.30503997621E+02  0.54367064990E+02  0.39999956257E+02 0.  0.
         12    1    3    3    0    0  0.20530746442E+02 -0.19431507105E+01 -0.30503997621E+02  0.36820935010E+02  0.00000000000E+00 0. -1.
         11    1    4    4    0    0 -0.20500586112E+02 -0.47083848976E+01  0.15960884354E+02  0.26404407756E+02  0.51100000000E-03 0. -1.
        -11    1    4    4    0    0 -0.28480866724E+01  0.13623259791E+02  0.14958034777E+02  0.20431534687E+02  0.51100000000E-03 0.  1.
         12    1    4    4    0    0  0.28179263429E+01 -0.69717241831E+01 -0.41492150950E+00  0.75311225470E+01  0.00000000000E+00 0. -1.
</event>
<event>
 8    1  0.2401680E-006  0.9118800E+02  0.7816164E-02  0.1184000E+00
        -11   -1    0    0    0    0  0.00000000000E+00  0.00000000000E+00  0.45593999997E+02  0.45594000000E+02  0.51100000000E-03 0. -1.
         11   -1    0    0    0    0 -0.00000000000E+00 -0.00000000000E+00 -0.45593999997E+02  0.45594000000E+02  0.51100000000E-03 0.  1.
         23    2    1    2    0    0  0.00000000000E+00  0.00000000000E+00  0.00000000000E+00  0.91188000000E+02  0.91188000000E+02 0.  0.
    9900012    2    3    3    0    0  0.24882653451E+02 -0.24646030162E+01  0.27028854811E+02  0.54367086062E+02  0.40000004296E+02 0.  0.
         12    1    3    3    0    0 -0.24882653451E+02  0.24646030162E+01 -0.27028854811E+02  0.36820913938E+02  0.00000000000E+00 0. -1.
         11    1    4    4    0    0 -0.59084169838E+01 -0.32908109643E+01  0.16492314359E+02  0.17825130049E+02  0.51100000000E-03 0.  1.
        -11    1    4    4    0    0 -0.30570578233E+00 -0.15362111003E+01  0.45157783409E+01  0.47797128423E+01  0.51100000000E-03 0. -1.
        -12    1    4    4    0    0  0.31096776218E+02  0.23624190484E+01  0.60207621106E+01  0.31762243171E+02  0.00000000000E+00 0.  1.
</event>
<event>
 8    1  0.2401680E-006  0.9118800E+02  0.7816164E-02  0.1184000E+00
        -11   -1    0    0    0    0  0.00000000000E+00  0.00000000000E+00  0.45593999997E+02  0.45594000000E+02  0.51100000000E-03 0.  1.
         11   -1    0    0    0    0 -0.00000000000E+00 -0.00000000000E+00 -0.45593999997E+02  0.45594000000E+02  0.51100000000E-03 0. -1.
         23    2    1    2    0    0  0.00000000000E+00 -0.13322676296E-14  0.00000000000E+00  0.91188000000E+02  0.91188000000E+02 0.  0.
    9900012    2    3    3    0    0  0.36406717765E+02 -0.14172330686E+01 -0.53217807449E+01  0.54367095634E+02  0.40000026117E+02 0.  0.
        -12    1    3    3    0    0 -0.36406717765E+02  0.14172330686E+01  0.53217807449E+01  0.36820904366E+02  0.00000000000E+00 0.  1.
         11    1    4    4    0    0  0.36199915011E+01  0.15210007847E+02 -0.26265137138E+01  0.15853934898E+02  0.51100000000E-03 0. -1.
        -11    1    4    4    0    0  0.13985014158E+02 -0.97410457959E+01  0.38024507529E+01  0.17462165564E+02  0.51100000000E-03 0.  1.
         12    1    4    4    0    0  0.18801712106E+02 -0.68861951202E+01 -0.64977177839E+01  0.21050995173E+02  0.00000000000E+00 0. -1.
</event>
<event>
 8    1  0.2401680E-006  0.9118800E+02  0.7816164E-02  0.1184000E+00
        -11   -1    0    0    0    0  0.00000000000E+00  0.00000000000E+00  0.45593999997E+02  0.45594000000E+02  0.51100000000E-03 0. -1.
         11   -1    0    0    0    0 -0.00000000000E+00 -0.00000000000E+00 -0.45593999997E+02  0.45594000000E+02  0.51100000000E-03 0.  1.
         23    2    1    2    0    0  0.00000000000E+00 -0.71054273576E-14  0.17763568394E-14  0.91188000000E+02  0.91188000000E+02 0.  0.
    9900012    2    3    3    0    0 -0.12114322111E+02  0.32910342904E+02 -0.11221964994E+02  0.54367082458E+02  0.39999996080E+02 0.  0.
         12    1    3    3    0    0  0.12114322111E+02 -0.32910342904E+02  0.11221964994E+02  0.36820917542E+02  0.00000000000E+00 0. -1.
         11    1    4    4    0    0 -0.22678882332E+02  0.11599375413E+02  0.14485119695E+01  0.25514219585E+02  0.51100000000E-03 0. -1.
        -11    1    4    4    0    0  0.23923892887E+01  0.71046288907E+00 -0.46621466246E+01  0.52880899611E+01  0.51100000000E-03 0.  1.
         12    1    4    4    0    0  0.81721709328E+01  0.20600504602E+02 -0.80083303385E+01  0.23564772913E+02  0.00000000000E+00 0. -1.
</event>
<event>
 8    1  0.2401680E-006  0.9118800E+02  0.7816164E-02  0.1184000E+00
        -11   -1    0    0    0    0  0.00000000000E+00  0.00000000000E+00  0.45593999997E+02  0.45594000000E+02  0.51100000000E-03 0. -1.
         11   -1    0    0    0    0 -0.00000000000E+00 -0.00000000000E+00 -0.45593999997E+02  0.45594000000E+02  0.51100000000E-03 0.  1.
         23    2    1    2    0    0  0.00000000000E+00 -0.88817841970E-15  0.00000000000E+00  0.91188000000E+02  0.91188000000E+02 0.  0.
    9900012    2    3    3    0    0  0.22290024548E+02  0.25791420428E+01 -0.29193875596E+02  0.54367088274E+02  0.40000009338E+02 0.  0.
         12    1    3    3    0    0 -0.22290024548E+02 -0.25791420428E+01  0.29193875596E+02  0.36820911726E+02  0.00000000000E+00 0. -1.
         11    1    4    4    0    0  0.26697381001E+02  0.69035469658E+01 -0.24315453835E+02  0.36764798496E+02  0.51100000000E-03 0.  1.
        -11    1    4    4    0    0 -0.28688749925E+01 -0.10088490363E+02 -0.50349202716E+01  0.11634367363E+02  0.51100000000E-03 0. -1.
         12    1    4    4    0    0 -0.15384814605E+01  0.57640854401E+01  0.15649851065E+00  0.59679224148E+01  0.00000000000E+00 0. -1.
</event>
<event>
 8    1  0.2401680E-006  0.9118800E+02  0.7816164E-02  0.1184000E+00
        -11   -1    0    0    0    0  0.00000000000E+00  0.00000000000E+00  0.45593999997E+02  0.45594000000E+02  0.51100000000E-03 0.  1.
         11   -1    0    0    0    0 -0.00000000000E+00 -0.00000000000E+00 -0.45593999997E+02  0.45594000000E+02  0.51100000000E-03 0. -1.
         23    2    1    2    0    0  0.35527136788E-14  0.35527136788E-14  0.00000000000E+00  0.91188000000E+02  0.91188000000E+02 0.  0.
    9900012    2    3    3    0    0 -0.31249385147E+02 -0.17524482439E+02  0.84946121020E+01  0.54366946355E+02  0.39999685803E+02 0.  0.
         12    1    3    3    0    0  0.31249385147E+02  0.17524482439E+02 -0.84946121020E+01  0.36821053645E+02  0.00000000000E+00 0. -1.
         11    1    4    4    0    0 -0.96647461516E+01  0.35254101158E+00 -0.87777253224E+01  0.13060630361E+02  0.51100000000E-03 0. -1.
        -11    1    4    4    0    0  0.39367142234E+01  0.26691106968E+01  0.20710969695E+01  0.51876115609E+01  0.51100000000E-03 0.  1.
        -12    1    4    4    0    0 -0.25521353218E+02 -0.20546134147E+02  0.15201240455E+02  0.36118704432E+02  0.00000000000E+00 0.  1.
</event>
<event>
 8    1  0.2401680E-006  0.9118800E+02  0.7816164E-02  0.1184000E+00
        -11   -1    0    0    0    0  0.00000000000E+00  0.00000000000E+00  0.45593999997E+02  0.45594000000E+02  0.51100000000E-03 0.  1.
         11   -1    0    0    0    0 -0.00000000000E+00 -0.00000000000E+00 -0.45593999997E+02  0.45594000000E+02  0.51100000000E-03 0. -1.
         23    2    1    2    0    0 -0.88817841970E-15  0.17763568394E-14  0.00000000000E+00  0.91188000000E+02  0.91188000000E+02 0.  0.
    9900012    2    3    3    0    0 -0.63195866367E+01  0.12483594987E+02 -0.34058823025E+02  0.54367071917E+02  0.39999972049E+02 0.  0.
        -12    1    3    3    0    0  0.63195866367E+01 -0.12483594987E+02  0.34058823025E+02  0.36820928083E+02  0.00000000000E+00 0.  1.
         11    1    4    4    0    0 -0.58955634801E+01  0.13874017188E+01 -0.26967815169E+02  0.27639565979E+02  0.51100000000E-03 0. -1.
        -11    1    4    4    0    0 -0.11595050874E+02  0.77957488076E+01 -0.24330621615E+01  0.14182337465E+02  0.51100000000E-03 0.  1.
         12    1    4    4    0    0  0.11171027717E+02  0.33004444604E+01 -0.46579456948E+01  0.12545168472E+02  0.00000000000E+00 0. -1.
</event>
<event>
 8    1  0.2401680E-006  0.9118800E+02  0.7816164E-02  0.1184000E+00
        -11   -1    0    0    0    0  0.00000000000E+00  0.00000000000E+00  0.45593999997E+02  0.45594000000E+02  0.51100000000E-03 0.  1.
         11   -1    0    0    0    0 -0.00000000000E+00 -0.00000000000E+00 -0.45593999997E+02  0.45594000000E+02  0.51100000000E-03 0. -1.
         23    2    1    2    0    0  0.00000000000E+00  0.00000000000E+00  0.00000000000E+00  0.91188000000E+02  0.91188000000E+02 0.  0.
    9900012    2    3    3    0    0 -0.13724814054E+02 -0.16399863072E+02  0.29974287959E+02  0.54367028146E+02  0.39999872264E+02 0.  0.
         12    1    3    3    0    0  0.13724814054E+02  0.16399863072E+02 -0.29974287959E+02  0.36820971854E+02  0.00000000000E+00 0. -1.
         11    1    4    4    0    0 -0.30883516236E+01 -0.14483265798E+02  0.21925176785E+02  0.26457820795E+02  0.51100000000E-03 0. -1.
        -11    1    4    4    0    0  0.43319793805E+01 -0.73021430253E+01  0.84740813913E+01  0.11995723980E+02  0.51100000000E-03 0.  1.
         12    1    4    4    0    0 -0.14968441811E+02  0.53855457513E+01 -0.42497021729E+00  0.15913483371E+02  0.00000000000E+00 0. -1.
</event>
<event>
 8    1  0.2401680E-006  0.9118800E+02  0.7816164E-02  0.1184000E+00
        -11   -1    0    0    0    0  0.00000000000E+00  0.00000000000E+00  0.45593999997E+02  0.45594000000E+02  0.51100000000E-03 0.  1.
         11   -1    0    0    0    0 -0.00000000000E+00 -0.00000000000E+00 -0.45593999997E+02  0.45594000000E+02  0.51100000000E-03 0. -1.
         23    2    1    2    0    0  0.35527136788E-14 -0.35527136788E-14  0.88817841970E-15  0.91188000000E+02  0.91188000000E+02 0.  0.
    9900012    2    3    3    0    0  0.29808871529E+02 -0.20854398550E+02  0.56840638744E+01  0.54367036639E+02  0.39999891627E+02 0.  0.
        -12    1    3    3    0    0 -0.29808871529E+02  0.20854398550E+02 -0.56840638744E+01  0.36820963361E+02  0.00000000000E+00 0.  1.
         11    1    4    4    0    0  0.89239203275E+01 -0.95046264059E+01 -0.77169206903E+01  0.15150087205E+02  0.51100000000E-03 0. -1.
        -11    1    4    4    0    0  0.63148225908E+01 -0.72285060160E+01 -0.83448948784E+01  0.12718708833E+02  0.51100000000E-03 0.  1.
        -12    1    4    4    0    0  0.14570128610E+02 -0.41212661278E+01  0.21745879443E+02  0.26498240601E+02  0.00000000000E+00 0.  1.
</event>
<event>
 8    1  0.2401680E-006  0.9118800E+02  0.7816164E-02  0.1184000E+00
        -11   -1    0    0    0    0  0.00000000000E+00  0.00000000000E+00  0.45593999997E+02  0.45594000000E+02  0.51100000000E-03 0.  1.
         11   -1    0    0    0    0 -0.00000000000E+00 -0.00000000000E+00 -0.45593999997E+02  0.45594000000E+02  0.51100000000E-03 0. -1.
         23    2    1    2    0    0  0.71054273576E-14  0.00000000000E+00 -0.17763568394E-14  0.91188000000E+02  0.91188000000E+02 0.  0.
    9900012    2    3    3    0    0  0.33223770128E+02  0.12712398290E+02  0.95055528973E+01  0.54367088718E+02  0.40000010349E+02 0.  0.
         12    1    3    3    0    0 -0.33223770128E+02 -0.12712398290E+02 -0.95055528973E+01  0.36820911282E+02  0.00000000000E+00 0. -1.
         11    1    4    4    0    0 -0.26209483840E+01  0.12579754659E+01  0.82046472911E+00  0.30207673425E+01  0.51100000000E-03 0. -1.
        -11    1    4    4    0    0  0.15907066891E+02  0.21163974716E+02  0.11738203428E+02  0.28960905076E+02  0.51100000000E-03 0.  1.
        -12    1    4    4    0    0  0.19937651620E+02 -0.97095518915E+01 -0.30531152603E+01  0.22385416299E+02  0.00000000000E+00 0.  1.
</event>
<event>
 8    1  0.2401680E-006  0.9118800E+02  0.7816164E-02  0.1184000E+00
        -11   -1    0    0    0    0  0.00000000000E+00  0.00000000000E+00  0.45593999997E+02  0.45594000000E+02  0.51100000000E-03 0.  1.
         11   -1    0    0    0    0 -0.00000000000E+00 -0.00000000000E+00 -0.45593999997E+02  0.45594000000E+02  0.51100000000E-03 0. -1.
         23    2    1    2    0    0  0.00000000000E+00  0.00000000000E+00  0.88817841970E-15  0.91188000000E+02  0.91188000000E+02 0.  0.
    9900012    2    3    3    0    0  0.11189415928E+02 -0.34708447366E+02  0.50889649197E+01  0.54367123974E+02  0.40000090724E+02 0.  0.
         12    1    3    3    0    0 -0.11189415928E+02  0.34708447366E+02 -0.50889649197E+01  0.36820876026E+02  0.00000000000E+00 0. -1.
         11    1    4    4    0    0  0.46341072558E+01  0.59129423861E+01  0.50255504365E+01  0.90384730553E+01  0.51100000000E-03 0. -1.
        -11    1    4    4    0    0 -0.66758213465E+00 -0.24571304297E+02 -0.81633052845E+01  0.25900467452E+02  0.51100000000E-03 0.  1.
         12    1    4    4    0    0  0.72228908066E+01 -0.16050085455E+02  0.82267197677E+01  0.19428183467E+02  0.00000000000E+00 0. -1.
</event>
<event>
 8    1  0.2401680E-006  0.9118800E+02  0.7816164E-02  0.1184000E+00
        -11   -1    0    0    0    0  0.00000000000E+00  0.00000000000E+00  0.45593999997E+02  0.45594000000E+02  0.51100000000E-03 0. -1.
         11   -1    0    0    0    0 -0.00000000000E+00 -0.00000000000E+00 -0.45593999997E+02  0.45594000000E+02  0.51100000000E-03 0.  1.
         23    2    1    2    0    0  0.35527136788E-14  0.00000000000E+00  0.88817841970E-15  0.91188000000E+02  0.91188000000E+02 0.  0.
    9900012    2    3    3    0    0 -0.30980755399E+02 -0.18956697104E+02 -0.60512899020E+01  0.54367059224E+02  0.39999943112E+02 0.  0.
         12    1    3    3    0    0  0.30980755399E+02  0.18956697104E+02  0.60512899020E+01  0.36820940776E+02  0.00000000000E+00 0. -1.
         11    1    4    4    0    0  0.26077233066E+01 -0.13792825833E+00 -0.25259603242E+00  0.26235567584E+01  0.51100000000E-03 0. -1.
        -11    1    4    4    0    0 -0.38698304939E+02 -0.20122422917E+02 -0.10292221218E+02  0.44815181882E+02  0.51100000000E-03 0.  1.
        -12    1    4    4    0    0  0.51098262336E+01  0.13036540718E+01  0.44935273482E+01  0.69283205833E+01  0.00000000000E+00 0.  1.
</event>
<event>
 8    1  0.2401680E-006  0.9118800E+02  0.7816164E-02  0.1184000E+00
        -11   -1    0    0    0    0  0.00000000000E+00  0.00000000000E+00  0.45593999997E+02  0.45594000000E+02  0.51100000000E-03 0.  1.
         11   -1    0    0    0    0 -0.00000000000E+00 -0.00000000000E+00 -0.45593999997E+02  0.45594000000E+02  0.51100000000E-03 0. -1.
         23    2    1    2    0    0  0.00000000000E+00  0.35527136788E-14  0.00000000000E+00  0.91188000000E+02  0.91188000000E+02 0.  0.
    9900012    2    3    3    0    0  0.21130469308E+02 -0.20259903419E+02 -0.22334270456E+02  0.54367081264E+02  0.39999993358E+02 0.  0.
        -12    1    3    3    0    0 -0.21130469308E+02  0.20259903419E+02  0.22334270456E+02  0.36820918736E+02  0.00000000000E+00 0.  1.
         11    1    4    4    0    0 -0.67562764210E+01 -0.13396758925E+02 -0.90692136317E+01  0.17532000939E+02  0.51100000000E-03 0. -1.
        -11    1    4    4    0    0  0.15481370299E+02  0.38159831707E+01 -0.12821415868E+02  0.20460284921E+02  0.51100000000E-03 0.  1.
        -12    1    4    4    0    0  0.12405375430E+02 -0.10679127665E+02 -0.44364095645E+00  0.16374795404E+02  0.00000000000E+00 0.  1.
</event>
<event>
 8    1  0.2401680E-006  0.9118800E+02  0.7816164E-02  0.1184000E+00
        -11   -1    0    0    0    0  0.00000000000E+00  0.00000000000E+00  0.45593999997E+02  0.45594000000E+02  0.51100000000E-03 0. -1.
         11   -1    0    0    0    0 -0.00000000000E+00 -0.00000000000E+00 -0.45593999997E+02  0.45594000000E+02  0.51100000000E-03 0.  1.
         23    2    1    2    0    0  0.35527136788E-14  0.00000000000E+00  0.17763568394E-14  0.91188000000E+02  0.91188000000E+02 0.  0.
    9900012    2    3    3    0    0  0.24322233258E+02 -0.22626030712E+02  0.15883080928E+02  0.54367074479E+02  0.39999977891E+02 0.  0.
        -12    1    3    3    0    0 -0.24322233258E+02  0.22626030712E+02 -0.15883080928E+02  0.36820925521E+02  0.00000000000E+00 0.  1.
         11    1    4    4    0    0  0.71769785958E+01 -0.31939478791E+01  0.16278435496E+02  0.18074783188E+02  0.51100000000E-03 0. -1.
        -11    1    4    4    0    0 -0.64968922350E+00  0.45825424602E+01  0.39552296531E+01  0.60881551686E+01  0.51100000000E-03 0.  1.
        -12    1    4    4    0    0  0.17794943885E+02 -0.24014625293E+02 -0.43505842218E+01  0.30204136123E+02  0.00000000000E+00 0.  1.
</event>
<event>
 8    1  0.2401680E-006  0.9118800E+02  0.7816164E-02  0.1184000E+00
        -11   -1    0    0    0    0  0.00000000000E+00  0.00000000000E+00  0.45593999997E+02  0.45594000000E+02  0.51100000000E-03 0. -1.
         11   -1    0    0    0    0 -0.00000000000E+00 -0.00000000000E+00 -0.45593999997E+02  0.45594000000E+02  0.51100000000E-03 0.  1.
         23    2    1    2    0    0 -0.88817841970E-15  0.35527136788E-14  0.35527136788E-14  0.91188000000E+02  0.91188000000E+02 0.  0.
    9900012    2    3    3    0    0 -0.51983544176E+01  0.17720372071E+02  0.31855063992E+02  0.54367087777E+02  0.40000008205E+02 0.  0.
        -12    1    3    3    0    0  0.51983544176E+01 -0.17720372071E+02 -0.31855063992E+02  0.36820912223E+02  0.00000000000E+00 0.  1.
         11    1    4    4    0    0 -0.11920365148E+01 -0.51032274577E+01  0.13770108512E+02  0.14733627191E+02  0.51100000000E-03 0. -1.
        -11    1    4    4    0    0 -0.56595279033E+01 -0.35537668079E+01 -0.13625802174E+01  0.68202741677E+01  0.51100000000E-03 0.  1.
         12    1    4    4    0    0  0.16532100004E+01  0.26377366337E+02  0.19447535698E+02  0.32813186418E+02  0.00000000000E+00 0. -1.
</event>
<event>
 8    1  0.2401680E-006  0.9118800E+02  0.7816164E-02  0.1184000E+00
        -11   -1    0    0    0    0  0.00000000000E+00  0.00000000000E+00  0.45593999997E+02  0.45594000000E+02  0.51100000000E-03 0. -1.
         11   -1    0    0    0    0 -0.00000000000E+00 -0.00000000000E+00 -0.45593999997E+02  0.45594000000E+02  0.51100000000E-03 0.  1.
         23    2    1    2    0    0  0.00000000000E+00  0.88817841970E-15  0.00000000000E+00  0.91188000000E+02  0.91188000000E+02 0.  0.
    9900012    2    3    3    0    0 -0.94055787737E+01 -0.75285657050E+01  0.34794263885E+02  0.54367013960E+02  0.39999839925E+02 0.  0.
        -12    1    3    3    0    0  0.94055787737E+01  0.75285657050E+01 -0.34794263885E+02  0.36820986040E+02  0.00000000000E+00 0.  1.
         11    1    4    4    0    0  0.13096586265E+02  0.40587708051E+01  0.12760891001E+02  0.18730577451E+02  0.51100000000E-03 0. -1.
        -11    1    4    4    0    0 -0.63703345353E+01 -0.92495732176E+01  0.58353240560E+01  0.12656491374E+02  0.51100000000E-03 0.  1.
         12    1    4    4    0    0 -0.16131830504E+02 -0.23377632925E+01  0.16198048828E+02  0.22979945136E+02  0.00000000000E+00 0. -1.
</event>
<event>
 8    1  0.2401680E-006  0.9118800E+02  0.7816164E-02  0.1184000E+00
        -11   -1    0    0    0    0  0.00000000000E+00  0.00000000000E+00  0.45593999997E+02  0.45594000000E+02  0.51100000000E-03 0. -1.
         11   -1    0    0    0    0 -0.00000000000E+00 -0.00000000000E+00 -0.45593999997E+02  0.45594000000E+02  0.51100000000E-03 0.  1.
         23    2    1    2    0    0  0.00000000000E+00  0.00000000000E+00 -0.17763568394E-14  0.91188000000E+02  0.91188000000E+02 0.  0.
    9900012    2    3    3    0    0  0.26751258632E+02  0.23952336583E+02  0.81507801515E+01  0.54367089049E+02  0.40000011106E+02 0.  0.
        -12    1    3    3    0    0 -0.26751258632E+02 -0.23952336583E+02 -0.81507801515E+01  0.36820910951E+02  0.00000000000E+00 0.  1.
         11    1    4    4    0    0  0.14014367804E+02 -0.21190854913E+01  0.23954805893E+01  0.14374677589E+02  0.51100000000E-03 0. -1.
        -11    1    4    4    0    0 -0.26962414808E+01 -0.24747659569E+01 -0.46468207457E+01  0.59149917978E+01  0.51100000000E-03 0.  1.
         12    1    4    4    0    0  0.15433132308E+02  0.28546188031E+02  0.10402120308E+02  0.34077419662E+02  0.00000000000E+00 0. -1.
</event>
<event>
 8    1  0.2401680E-006  0.9118800E+02  0.7816164E-02  0.1184000E+00
        -11   -1    0    0    0    0  0.00000000000E+00  0.00000000000E+00  0.45593999997E+02  0.45594000000E+02  0.51100000000E-03 0. -1.
         11   -1    0    0    0    0 -0.00000000000E+00 -0.00000000000E+00 -0.45593999997E+02  0.45594000000E+02  0.51100000000E-03 0.  1.
         23    2    1    2    0    0 -0.88817841970E-15  0.00000000000E+00  0.00000000000E+00  0.91188000000E+02  0.91188000000E+02 0.  0.
    9900012    2    3    3    0    0  0.71214552184E+01  0.28480260066E+02  0.22224767699E+02  0.54367073381E+02  0.39999975386E+02 0.  0.
        -12    1    3    3    0    0 -0.71214552184E+01 -0.28480260066E+02 -0.22224767699E+02  0.36820926619E+02  0.00000000000E+00 0.  1.
         11    1    4    4    0    0 -0.34979866699E+01  0.87909624205E+01  0.44214772681E+01  0.10443485650E+02  0.51100000000E-03 0. -1.
        -11    1    4    4    0    0  0.21699101097E+02  0.18339500428E+02  0.16032163738E+02  0.32622362556E+02  0.51100000000E-03 0.  1.
        -12    1    4    4    0    0 -0.11079659208E+02  0.13497972178E+01  0.17711266931E+01  0.11301225175E+02  0.00000000000E+00 0.  1.
</event>
<event>
 8    1  0.2401680E-006  0.9118800E+02  0.7816164E-02  0.1184000E+00
        -11   -1    0    0    0    0  0.00000000000E+00  0.00000000000E+00  0.45593999997E+02  0.45594000000E+02  0.51100000000E-03 0. -1.
         11   -1    0    0    0    0 -0.00000000000E+00 -0.00000000000E+00 -0.45593999997E+02  0.45594000000E+02  0.51100000000E-03 0.  1.
         23    2    1    2    0    0  0.00000000000E+00  0.00000000000E+00  0.00000000000E+00  0.91188000000E+02  0.91188000000E+02 0.  0.
    9900012    2    3    3    0    0  0.26141500327E+02 -0.22514071991E+02 -0.12865417045E+02  0.54367076156E+02  0.39999981713E+02 0.  0.
         12    1    3    3    0    0 -0.26141500327E+02  0.22514071991E+02  0.12865417045E+02  0.36820923844E+02  0.00000000000E+00 0. -1.
         11    1    4    4    0    0  0.87775128015E+01 -0.13755609729E+02 -0.63441701188E+01  0.17507427703E+02  0.51100000000E-03 0. -1.
        -11    1    4    4    0    0  0.83526619308E+01 -0.14750874386E+02  0.80040436051E+01  0.18746198835E+02  0.51100000000E-03 0.  1.
         12    1    4    4    0    0  0.90113255947E+01  0.59924121242E+01 -0.14525290532E+02  0.18113449618E+02  0.00000000000E+00 0. -1.
</event>
<event>
 8    1  0.2401680E-006  0.9118800E+02  0.7816164E-02  0.1184000E+00
        -11   -1    0    0    0    0  0.00000000000E+00  0.00000000000E+00  0.45593999997E+02  0.45594000000E+02  0.51100000000E-03 0.  1.
         11   -1    0    0    0    0 -0.00000000000E+00 -0.00000000000E+00 -0.45593999997E+02  0.45594000000E+02  0.51100000000E-03 0. -1.
         23    2    1    2    0    0 -0.17763568394E-14 -0.35527136788E-14  0.00000000000E+00  0.91188000000E+02  0.91188000000E+02 0.  0.
    9900012    2    3    3    0    0 -0.92104519235E+01  0.27501933361E+02 -0.22684912681E+02  0.54366891562E+02  0.39999560893E+02 0.  0.
        -12    1    3    3    0    0  0.92104519235E+01 -0.27501933361E+02  0.22684912681E+02  0.36821108438E+02  0.00000000000E+00 0.  1.
         11    1    4    4    0    0  0.28554706980E+00  0.31752650628E+02 -0.21528011854E+02  0.38363624095E+02  0.51100000000E-03 0. -1.
        -11    1    4    4    0    0 -0.20907423521E+01 -0.75280315279E+01  0.66906714352E-01  0.78132540620E+01  0.51100000000E-03 0.  1.
        -12    1    4    4    0    0 -0.74052566412E+01  0.32773142610E+01 -0.12238075411E+01  0.81900134057E+01  0.00000000000E+00 0.  1.
</event>
<event>
 8    1  0.2401680E-006  0.9118800E+02  0.7816164E-02  0.1184000E+00
        -11   -1    0    0    0    0  0.00000000000E+00  0.00000000000E+00  0.45593999997E+02  0.45594000000E+02  0.51100000000E-03 0.  1.
         11   -1    0    0    0    0 -0.00000000000E+00 -0.00000000000E+00 -0.45593999997E+02  0.45594000000E+02  0.51100000000E-03 0. -1.
         23    2    1    2    0    0  0.00000000000E+00  0.00000000000E+00  0.00000000000E+00  0.91188000000E+02  0.91188000000E+02 0.  0.
    9900012    2    3    3    0    0  0.29829635317E+02  0.10398237582E+02 -0.18916837549E+02  0.54367119636E+02  0.40000080834E+02 0.  0.
        -12    1    3    3    0    0 -0.29829635317E+02 -0.10398237582E+02  0.18916837549E+02  0.36820880364E+02  0.00000000000E+00 0.  1.
         11    1    4    4    0    0  0.87208898747E+01  0.30688949760E+01 -0.24613808622E+02  0.26292805322E+02  0.51100000000E-03 0. -1.
        -11    1    4    4    0    0  0.22675344468E+02  0.31044166803E+01  0.38688040682E+01  0.23211555201E+02  0.51100000000E-03 0.  1.
         12    1    4    4    0    0 -0.15665990264E+01  0.42249259254E+01  0.18281670047E+01  0.48627591120E+01  0.00000000000E+00 0. -1.
</event>
<event>
 8    1  0.2401680E-006  0.9118800E+02  0.7816164E-02  0.1184000E+00
        -11   -1    0    0    0    0  0.00000000000E+00  0.00000000000E+00  0.45593999997E+02  0.45594000000E+02  0.51100000000E-03 0. -1.
         11   -1    0    0    0    0 -0.00000000000E+00 -0.00000000000E+00 -0.45593999997E+02  0.45594000000E+02  0.51100000000E-03 0.  1.
         23    2    1    2    0    0 -0.35527136788E-14  0.17763568394E-14  0.35527136788E-14  0.91188000000E+02  0.91188000000E+02 0.  0.
    9900012    2    3    3    0    0  0.16760550512E+02 -0.13020853007E+02 -0.30088550936E+02  0.54367087954E+02  0.40000008608E+02 0.  0.
         12    1    3    3    0    0 -0.16760550512E+02  0.13020853007E+02  0.30088550936E+02  0.36820912046E+02  0.00000000000E+00 0. -1.
         11    1    4    4    0    0  0.17600847642E+02 -0.48249970142E+01 -0.24589764281E+02  0.30622327501E+02  0.51100000000E-03 0. -1.
        -11    1    4    4    0    0  0.38091373194E+01  0.60993809331E+01 -0.48974551962E+01  0.87004047345E+01  0.51100000000E-03 0.  1.
         12    1    4    4    0    0 -0.46494344493E+01 -0.14295236926E+02 -0.60133145882E+00  0.15044355718E+02  0.00000000000E+00 0. -1.
</event>
<event>
 8    1  0.2401680E-006  0.9118800E+02  0.7816164E-02  0.1184000E+00
        -11   -1    0    0    0    0  0.00000000000E+00  0.00000000000E+00  0.45593999997E+02  0.45594000000E+02  0.51100000000E-03 0.  1.
         11   -1    0    0    0    0 -0.00000000000E+00 -0.00000000000E+00 -0.45593999997E+02  0.45594000000E+02  0.51100000000E-03 0. -1.
         23    2    1    2    0    0  0.00000000000E+00  0.00000000000E+00  0.00000000000E+00  0.91188000000E+02  0.91188000000E+02 0.  0.
    9900012    2    3    3    0    0 -0.29352024252E+02 -0.21499431966E+02  0.56579040634E+01  0.54367098586E+02  0.40000032845E+02 0.  0.
         12    1    3    3    0    0  0.29352024252E+02  0.21499431966E+02 -0.56579040634E+01  0.36820901414E+02  0.00000000000E+00 0. -1.
         11    1    4    4    0    0 -0.13227353167E+02 -0.17431560778E+02 -0.10165404815E+02  0.24127943100E+02  0.51100000000E-03 0. -1.
        -11    1    4    4    0    0 -0.17276362829E+02 -0.97668984783E+01  0.13364142948E+02  0.23926247835E+02  0.51100000000E-03 0.  1.
         12    1    4    4    0    0  0.11516917434E+01  0.56990272900E+01  0.24591659304E+01  0.63129076499E+01  0.00000000000E+00 0. -1.
</event>
<event>
 8    1  0.2401680E-006  0.9118800E+02  0.7816164E-02  0.1184000E+00
        -11   -1    0    0    0    0  0.00000000000E+00  0.00000000000E+00  0.45593999997E+02  0.45594000000E+02  0.51100000000E-03 0.  1.
         11   -1    0    0    0    0 -0.00000000000E+00 -0.00000000000E+00 -0.45593999997E+02  0.45594000000E+02  0.51100000000E-03 0. -1.
         23    2    1    2    0    0  0.00000000000E+00  0.35527136788E-14  0.00000000000E+00  0.91188000000E+02  0.91188000000E+02 0.  0.
    9900012    2    3    3    0    0  0.22536172959E+02  0.23609551226E+02  0.17043375707E+02  0.54367263231E+02  0.40000408185E+02 0.  0.
        -12    1    3    3    0    0 -0.22536172959E+02 -0.23609551226E+02 -0.17043375707E+02  0.36820736769E+02  0.00000000000E+00 0.  1.
         11    1    4    4    0    0  0.93914848421E+00  0.18538000862E+02  0.77598638760E+01  0.20118522894E+02  0.51100000000E-03 0. -1.
        -11    1    4    4    0    0  0.88760892257E+01  0.55030907684E+01  0.16566896878E+02  0.19583948539E+02  0.51100000000E-03 0.  1.
         12    1    4    4    0    0  0.12720935249E+02 -0.43154040380E+00 -0.72833850466E+01  0.14664791797E+02  0.00000000000E+00 0. -1.
</event>
<event>
 8    1  0.2401680E-006  0.9118800E+02  0.7816164E-02  0.1184000E+00
        -11   -1    0    0    0    0  0.00000000000E+00  0.00000000000E+00  0.45593999997E+02  0.45594000000E+02  0.51100000000E-03 0.  1.
         11   -1    0    0    0    0 -0.00000000000E+00 -0.00000000000E+00 -0.45593999997E+02  0.45594000000E+02  0.51100000000E-03 0. -1.
         23    2    1    2    0    0  0.35527136788E-14  0.00000000000E+00  0.00000000000E+00  0.91188000000E+02  0.91188000000E+02 0.  0.
    9900012    2    3    3    0    0 -0.21463930622E+02 -0.24082798625E+02 -0.17751037606E+02  0.54367070579E+02  0.39999968999E+02 0.  0.
        -12    1    3    3    0    0  0.21463930622E+02  0.24082798625E+02  0.17751037606E+02  0.36820929421E+02  0.00000000000E+00 0.  1.
         11    1    4    4    0    0 -0.21877203183E+02 -0.25616696995E+02  0.48188158811E+00  0.33690642532E+02  0.51100000000E-03 0. -1.
        -11    1    4    4    0    0  0.87749848404E+00  0.55842593315E+01 -0.11255880155E+02  0.12595586298E+02  0.51100000000E-03 0.  1.
         12    1    4    4    0    0 -0.46422592298E+00 -0.40503609610E+01 -0.69770390392E+01  0.80808417493E+01  0.00000000000E+00 0. -1.
</event>
<event>
 8    1  0.2401680E-006  0.9118800E+02  0.7816164E-02  0.1184000E+00
        -11   -1    0    0    0    0  0.00000000000E+00  0.00000000000E+00  0.45593999997E+02  0.45594000000E+02  0.51100000000E-03 0.  1.
         11   -1    0    0    0    0 -0.00000000000E+00 -0.00000000000E+00 -0.45593999997E+02  0.45594000000E+02  0.51100000000E-03 0. -1.
         23    2    1    2    0    0  0.00000000000E+00 -0.44408920985E-15  0.00000000000E+00  0.91188000000E+02  0.91188000000E+02 0.  0.
    9900012    2    3    3    0    0 -0.32068248020E+02 -0.39842622475E+01 -0.17650283259E+02  0.54367090507E+02  0.40000014429E+02 0.  0.
        -12    1    3    3    0    0  0.32068248020E+02  0.39842622475E+01  0.17650283259E+02  0.36820909493E+02  0.00000000000E+00 0.  1.
         11    1    4    4    0    0 -0.19112943519E+02  0.91506713322E+01 -0.80740748380E+01  0.22676641738E+02  0.51100000000E-03 0. -1.
        -11    1    4    4    0    0  0.55142839748E+01  0.12418377414E+01  0.14237860134E+01  0.58289497857E+01  0.51100000000E-03 0.  1.
         12    1    4    4    0    0 -0.18469588476E+02 -0.14376771321E+02 -0.10999994435E+02  0.25861498983E+02  0.00000000000E+00 0. -1.
</event>
<event>
 8    1  0.2401680E-006  0.9118800E+02  0.7816164E-02  0.1184000E+00
        -11   -1    0    0    0    0  0.00000000000E+00  0.00000000000E+00  0.45593999997E+02  0.45594000000E+02  0.51100000000E-03 0. -1.
         11   -1    0    0    0    0 -0.00000000000E+00 -0.00000000000E+00 -0.45593999997E+02  0.45594000000E+02  0.51100000000E-03 0.  1.
         23    2    1    2    0    0 -0.44408920985E-15  0.53290705182E-14 -0.71054273576E-14  0.91188000000E+02  0.91188000000E+02 0.  0.
    9900012    2    3    3    0    0 -0.20298560354E+01  0.11464432320E+02 -0.34931745262E+02  0.54367077266E+02  0.39999984242E+02 0.  0.
         12    1    3    3    0    0  0.20298560354E+01 -0.11464432320E+02  0.34931745262E+02  0.36820922734E+02  0.00000000000E+00 0. -1.
         11    1    4    4    0    0  0.10570082987E+02 -0.56680920000E+01 -0.64380742870E+01  0.13612594244E+02  0.51100000000E-03 0.  1.
        -11    1    4    4    0    0 -0.13739745227E+02  0.18848506969E+02 -0.30144360247E+02  0.38114685736E+02  0.51100000000E-03 0. -1.
         12    1    4    4    0    0  0.11398062041E+01 -0.17159826487E+01  0.16506892713E+01  0.26397972847E+01  0.00000000000E+00 0. -1.
</event>
<event>
 8    1  0.2401680E-006  0.9118800E+02  0.7816164E-02  0.1184000E+00
        -11   -1    0    0    0    0  0.00000000000E+00  0.00000000000E+00  0.45593999997E+02  0.45594000000E+02  0.51100000000E-03 0. -1.
         11   -1    0    0    0    0 -0.00000000000E+00 -0.00000000000E+00 -0.45593999997E+02  0.45594000000E+02  0.51100000000E-03 0.  1.
         23    2    1    2    0    0  0.00000000000E+00  0.00000000000E+00  0.00000000000E+00  0.91188000000E+02  0.91188000000E+02 0.  0.
    9900012    2    3    3    0    0  0.15602244323E+02  0.25797536217E+02  0.21138547403E+02  0.54367067243E+02  0.39999961394E+02 0.  0.
        -12    1    3    3    0    0 -0.15602244323E+02 -0.25797536217E+02 -0.21138547403E+02  0.36820932757E+02  0.00000000000E+00 0.  1.
         11    1    4    4    0    0 -0.96572608355E+00  0.14085201888E+02  0.43899064949E+01  0.14785020067E+02  0.51100000000E-03 0.  1.
        -11    1    4    4    0    0  0.10619219522E+02  0.13291724545E+02 -0.43862407887E+01  0.17569202406E+02  0.51100000000E-03 0. -1.
         12    1    4    4    0    0  0.59487508844E+01 -0.15793902162E+01  0.21134881697E+02  0.22012844771E+02  0.00000000000E+00 0. -1.
</event>
<event>
 8    1  0.2401680E-006  0.9118800E+02  0.7816164E-02  0.1184000E+00
        -11   -1    0    0    0    0  0.00000000000E+00  0.00000000000E+00  0.45593999997E+02  0.45594000000E+02  0.51100000000E-03 0.  1.
         11   -1    0    0    0    0 -0.00000000000E+00 -0.00000000000E+00 -0.45593999997E+02  0.45594000000E+02  0.51100000000E-03 0. -1.
         23    2    1    2    0    0 -0.13322676296E-14 -0.71054273576E-14  0.11102230246E-14  0.91188000000E+02  0.91188000000E+02 0.  0.
    9900012    2    3    3    0    0 -0.39283871702E+01 -0.36596425746E+02 -0.10244353446E+01  0.54367081069E+02  0.39999992914E+02 0.  0.
        -12    1    3    3    0    0  0.39283871702E+01  0.36596425746E+02  0.10244353446E+01  0.36820918931E+02  0.00000000000E+00 0.  1.
         11    1    4    4    0    0 -0.13555594041E+01 -0.47191021688E+01  0.60448623012E+00  0.49470062099E+01  0.51100000000E-03 0. -1.
        -11    1    4    4    0    0  0.11095699797E+02 -0.26283149049E+02  0.10406710575E+02  0.30368044112E+02  0.51100000000E-03 0.  1.
         12    1    4    4    0    0 -0.13668527563E+02 -0.55941745279E+01 -0.12035632149E+02  0.19052030748E+02  0.00000000000E+00 0. -1.
</event>
<event>
 8    1  0.2401680E-006  0.9118800E+02  0.7816164E-02  0.1184000E+00
        -11   -1    0    0    0    0  0.00000000000E+00  0.00000000000E+00  0.45593999997E+02  0.45594000000E+02  0.51100000000E-03 0. -1.
         11   -1    0    0    0    0 -0.00000000000E+00 -0.00000000000E+00 -0.45593999997E+02  0.45594000000E+02  0.51100000000E-03 0.  1.
         23    2    1    2    0    0  0.00000000000E+00  0.00000000000E+00  0.00000000000E+00  0.91188000000E+02  0.91188000000E+02 0.  0.
    9900012    2    3    3    0    0  0.28148232506E+02  0.14099032825E+02 -0.19096428431E+02  0.54367091557E+02  0.40000016822E+02 0.  0.
         12    1    3    3    0    0 -0.28148232506E+02 -0.14099032825E+02  0.19096428431E+02  0.36820908443E+02  0.00000000000E+00 0. -1.
         11    1    4    4    0    0 -0.79255853820E+01  0.25276041331E+01 -0.12073500649E+02  0.14661961140E+02  0.51100000000E-03 0. -1.
        -11    1    4    4    0    0  0.29495775903E+02  0.71409310017E+01 -0.87585637887E+01  0.31586486534E+02  0.51100000000E-03 0.  1.
         12    1    4    4    0    0  0.65780419851E+01  0.44304976898E+01  0.17356360069E+01  0.81186438822E+01  0.00000000000E+00 0. -1.
</event>
<event>
 8    1  0.2401680E-006  0.9118800E+02  0.7816164E-02  0.1184000E+00
        -11   -1    0    0    0    0  0.00000000000E+00  0.00000000000E+00  0.45593999997E+02  0.45594000000E+02  0.51100000000E-03 0. -1.
         11   -1    0    0    0    0 -0.00000000000E+00 -0.00000000000E+00 -0.45593999997E+02  0.45594000000E+02  0.51100000000E-03 0.  1.
         23    2    1    2    0    0  0.00000000000E+00 -0.88817841970E-15  0.00000000000E+00  0.91188000000E+02  0.91188000000E+02 0.  0.
    9900012    2    3    3    0    0  0.36121029567E+02  0.70741916966E+01 -0.10026636832E+01  0.54367105122E+02  0.40000047747E+02 0.  0.
         12    1    3    3    0    0 -0.36121029567E+02 -0.70741916966E+01  0.10026636832E+01  0.36820894878E+02  0.00000000000E+00 0. -1.
         11    1    4    4    0    0  0.25060529960E+02 -0.25566843059E+01  0.51673120309E+01  0.25715129990E+02  0.51100000000E-03 0. -1.
        -11    1    4    4    0    0 -0.43179706985E+01  0.11644846835E+02 -0.18911519601E+01  0.12562793669E+02  0.51100000000E-03 0.  1.
        -12    1    4    4    0    0  0.15378470306E+02 -0.20139708324E+01 -0.42788237540E+01  0.16089181464E+02  0.00000000000E+00 0.  1.
</event>
<event>
 8    1  0.2401680E-006  0.9118800E+02  0.7816164E-02  0.1184000E+00
        -11   -1    0    0    0    0  0.00000000000E+00  0.00000000000E+00  0.45593999997E+02  0.45594000000E+02  0.51100000000E-03 0.  1.
         11   -1    0    0    0    0 -0.00000000000E+00 -0.00000000000E+00 -0.45593999997E+02  0.45594000000E+02  0.51100000000E-03 0. -1.
         23    2    1    2    0    0  0.88817841970E-15  0.00000000000E+00  0.00000000000E+00  0.91188000000E+02  0.91188000000E+02 0.  0.
    9900012    2    3    3    0    0 -0.22282667379E+01 -0.35206526921E+02 -0.10550509626E+02  0.54367109681E+02  0.40000058140E+02 0.  0.
        -12    1    3    3    0    0  0.22282667379E+01  0.35206526921E+02  0.10550509626E+02  0.36820890319E+02  0.00000000000E+00 0.  1.
         11    1    4    4    0    0  0.64683980040E+01 -0.59506295107E+01 -0.17152738194E+02  0.19273468606E+02  0.51100000000E-03 0. -1.
        -11    1    4    4    0    0 -0.11369287902E+02 -0.13923789799E+02 -0.50799743288E+00  0.17983066797E+02  0.51100000000E-03 0.  1.
        -12    1    4    4    0    0  0.26726231596E+01 -0.15332107611E+02  0.71102260005E+01  0.17110574278E+02  0.00000000000E+00 0.  1.
</event>
<event>
 8    1  0.2401680E-006  0.9118800E+02  0.7816164E-02  0.1184000E+00
        -11   -1    0    0    0    0  0.00000000000E+00  0.00000000000E+00  0.45593999997E+02  0.45594000000E+02  0.51100000000E-03 0.  1.
         11   -1    0    0    0    0 -0.00000000000E+00 -0.00000000000E+00 -0.45593999997E+02  0.45594000000E+02  0.51100000000E-03 0. -1.
         23    2    1    2    0    0  0.00000000000E+00  0.17763568394E-14  0.00000000000E+00  0.91188000000E+02  0.91188000000E+02 0.  0.
    9900012    2    3    3    0    0  0.24382793922E+02 -0.11925115663E+02 -0.24880566095E+02  0.54367196203E+02  0.40000255384E+02 0.  0.
        -12    1    3    3    0    0 -0.24382793922E+02  0.11925115663E+02  0.24880566095E+02  0.36820803797E+02  0.00000000000E+00 0.  1.
         11    1    4    4    0    0 -0.21523609923E+01  0.55062004359E+01  0.89447626407E+00  0.59792130861E+01  0.51100000000E-03 0. -1.
        -11    1    4    4    0    0  0.14882943464E+02 -0.21923470739E+02 -0.10125942448E+02  0.28366799011E+02  0.51100000000E-03 0.  1.
         12    1    4    4    0    0  0.11652211450E+02  0.44921546401E+01 -0.15649099911E+02  0.20021184106E+02  0.00000000000E+00 0. -1.
</event>
<event>
 8    1  0.2401680E-006  0.9118800E+02  0.7816164E-02  0.1184000E+00
        -11   -1    0    0    0    0  0.00000000000E+00  0.00000000000E+00  0.45593999997E+02  0.45594000000E+02  0.51100000000E-03 0.  1.
         11   -1    0    0    0    0 -0.00000000000E+00 -0.00000000000E+00 -0.45593999997E+02  0.45594000000E+02  0.51100000000E-03 0. -1.
         23    2    1    2    0    0  0.00000000000E+00  0.35527136788E-14  0.26645352591E-14  0.91188000000E+02  0.91188000000E+02 0.  0.
    9900012    2    3    3    0    0  0.23156908779E+02 -0.27792937106E+02 -0.68619278122E+01  0.54367138651E+02  0.40000124182E+02 0.  0.
        -12    1    3    3    0    0 -0.23156908779E+02  0.27792937106E+02  0.68619278122E+01  0.36820861349E+02  0.00000000000E+00 0.  1.
         11    1    4    4    0    0  0.76101719224E+01 -0.20523070977E+02 -0.13591890418E+02  0.25765299230E+02  0.51100000000E-03 0. -1.
        -11    1    4    4    0    0  0.16467325300E+02 -0.95813757662E+01  0.12178730649E+02  0.22611878396E+02  0.51100000000E-03 0.  1.
        -12    1    4    4    0    0 -0.92058844333E+00  0.23115096373E+01 -0.54487680436E+01  0.59899610248E+01  0.00000000000E+00 0.  1.
</event>
<event>
 8    1  0.2401680E-006  0.9118800E+02  0.7816164E-02  0.1184000E+00
        -11   -1    0    0    0    0  0.00000000000E+00  0.00000000000E+00  0.45593999997E+02  0.45594000000E+02  0.51100000000E-03 0.  1.
         11   -1    0    0    0    0 -0.00000000000E+00 -0.00000000000E+00 -0.45593999997E+02  0.45594000000E+02  0.51100000000E-03 0. -1.
         23    2    1    2    0    0  0.00000000000E+00 -0.17763568394E-14  0.00000000000E+00  0.91188000000E+02  0.91188000000E+02 0.  0.
    9900012    2    3    3    0    0 -0.18926155237E+02 -0.15320314563E+02 -0.27620074446E+02  0.54367083353E+02  0.39999998120E+02 0.  0.
        -12    1    3    3    0    0  0.18926155237E+02  0.15320314563E+02  0.27620074446E+02  0.36820916647E+02  0.00000000000E+00 0.  1.
         11    1    4    4    0    0 -0.98546311759E+01 -0.43705979428E+01 -0.52471442265E+01  0.11989512283E+02  0.51100000000E-03 0. -1.
        -11    1    4    4    0    0 -0.27364289706E+00  0.46409242674E+01 -0.23958881484E+02  0.24405758761E+02  0.51100000000E-03 0.  1.
        -12    1    4    4    0    0 -0.87978811637E+01 -0.15590640887E+02  0.15859512644E+01  0.17971812309E+02  0.00000000000E+00 0.  1.
</event>
<event>
 8    1  0.2401680E-006  0.9118800E+02  0.7816164E-02  0.1184000E+00
        -11   -1    0    0    0    0  0.00000000000E+00  0.00000000000E+00  0.45593999997E+02  0.45594000000E+02  0.51100000000E-03 0.  1.
         11   -1    0    0    0    0 -0.00000000000E+00 -0.00000000000E+00 -0.45593999997E+02  0.45594000000E+02  0.51100000000E-03 0. -1.
         23    2    1    2    0    0  0.00000000000E+00  0.53290705182E-14 -0.17763568394E-14  0.91188000000E+02  0.91188000000E+02 0.  0.
    9900012    2    3    3    0    0 -0.33242307959E+02 -0.14824759683E+02  0.55637608650E+01  0.54367082398E+02  0.39999995943E+02 0.  0.
         12    1    3    3    0    0  0.33242307959E+02  0.14824759683E+02 -0.55637608650E+01  0.36820917602E+02  0.00000000000E+00 0. -1.
         11    1    4    4    0    0  0.35352208271E+01  0.26556997784E+01 -0.27591807293E+01  0.52118716569E+01  0.51100000000E-03 0. -1.
        -11    1    4    4    0    0 -0.29763890473E+01 -0.86348337701E+01  0.10780661846E+02  0.14129469774E+02  0.51100000000E-03 0.  1.
         12    1    4    4    0    0 -0.33801139739E+02 -0.88456256910E+01 -0.24577202513E+01  0.35025740968E+02  0.00000000000E+00 0. -1.
</event>
<event>
 8    1  0.2401680E-006  0.9118800E+02  0.7816164E-02  0.1184000E+00
        -11   -1    0    0    0    0  0.00000000000E+00  0.00000000000E+00  0.45593999997E+02  0.45594000000E+02  0.51100000000E-03 0. -1.
         11   -1    0    0    0    0 -0.00000000000E+00 -0.00000000000E+00 -0.45593999997E+02  0.45594000000E+02  0.51100000000E-03 0.  1.
         23    2    1    2    0    0  0.00000000000E+00  0.00000000000E+00  0.00000000000E+00  0.91188000000E+02  0.91188000000E+02 0.  0.
    9900012    2    3    3    0    0 -0.17386472717E+02 -0.11479988492E+02 -0.30359504685E+02  0.54367094334E+02  0.40000023153E+02 0.  0.
         12    1    3    3    0    0  0.17386472717E+02  0.11479988492E+02  0.30359504685E+02  0.36820905666E+02  0.00000000000E+00 0. -1.
         11    1    4    4    0    0 -0.93813473703E+01 -0.65704201567E+01 -0.92820353988E+01  0.14742329562E+02  0.51100000000E-03 0. -1.
        -11    1    4    4    0    0  0.23783176044E+01 -0.24932031962E+01 -0.27141869436E+02  0.27359706387E+02  0.51100000000E-03 0.  1.
         12    1    4    4    0    0 -0.10383442952E+02 -0.24163651396E+01  0.60644001500E+01  0.12265058385E+02  0.00000000000E+00 0. -1.
</event>
<event>
 8    1  0.2401680E-006  0.9118800E+02  0.7816164E-02  0.1184000E+00
        -11   -1    0    0    0    0  0.00000000000E+00  0.00000000000E+00  0.45593999997E+02  0.45594000000E+02  0.51100000000E-03 0. -1.
         11   -1    0    0    0    0 -0.00000000000E+00 -0.00000000000E+00 -0.45593999997E+02  0.45594000000E+02  0.51100000000E-03 0.  1.
         23    2    1    2    0    0 -0.35527136788E-14  0.00000000000E+00  0.00000000000E+00  0.91188000000E+02  0.91188000000E+02 0.  0.
    9900012    2    3    3    0    0 -0.20494878528E+02 -0.88312748660E+01 -0.29287358773E+02  0.54367070551E+02  0.39999968935E+02 0.  0.
         12    1    3    3    0    0  0.20494878528E+02  0.88312748660E+01  0.29287358773E+02  0.36820929449E+02  0.00000000000E+00 0. -1.
         11    1    4    4    0    0  0.56731504337E+01 -0.54491524104E+01 -0.16175280718E+02  0.17986595131E+02  0.51100000000E-03 0. -1.
        -11    1    4    4    0    0 -0.59368307199E+01 -0.10392509240E+02 -0.16137788924E+01  0.12077023221E+02  0.51100000000E-03 0.  1.
         12    1    4    4    0    0 -0.20231198242E+02  0.70103867845E+01 -0.11498299162E+02  0.24303452199E+02  0.00000000000E+00 0. -1.
</event>
<event>
 8    1  0.2401680E-006  0.9118800E+02  0.7816164E-02  0.1184000E+00
        -11   -1    0    0    0    0  0.00000000000E+00  0.00000000000E+00  0.45593999997E+02  0.45594000000E+02  0.51100000000E-03 0.  1.
         11   -1    0    0    0    0 -0.00000000000E+00 -0.00000000000E+00 -0.45593999997E+02  0.45594000000E+02  0.51100000000E-03 0. -1.
         23    2    1    2    0    0 -0.17763568394E-14  0.00000000000E+00 -0.17763568394E-14  0.91188000000E+02  0.91188000000E+02 0.  0.
    9900012    2    3    3    0    0  0.71370337745E+01  0.34694737722E+02 -0.10055679966E+02  0.54367098649E+02  0.40000032991E+02 0.  0.
        -12    1    3    3    0    0 -0.71370337745E+01 -0.34694737722E+02  0.10055679966E+02  0.36820901351E+02  0.00000000000E+00 0.  1.
         11    1    4    4    0    0 -0.57440413858E+00 -0.81609058707E+00  0.51374283785E+00  0.11224419474E+01  0.51100000000E-03 0. -1.
        -11    1    4    4    0    0  0.45439453654E+01 -0.12476105953E+01  0.99632542424E+01  0.11021361397E+02  0.51100000000E-03 0.  1.
         12    1    4    4    0    0  0.31674925477E+01  0.36758438904E+02 -0.20532677047E+02  0.42223295305E+02  0.00000000000E+00 0. -1.
</event>
<event>
 8    1  0.2401680E-006  0.9118800E+02  0.7816164E-02  0.1184000E+00
        -11   -1    0    0    0    0  0.00000000000E+00  0.00000000000E+00  0.45593999997E+02  0.45594000000E+02  0.51100000000E-03 0. -1.
         11   -1    0    0    0    0 -0.00000000000E+00 -0.00000000000E+00 -0.45593999997E+02  0.45594000000E+02  0.51100000000E-03 0.  1.
         23    2    1    2    0    0 -0.35527136788E-14  0.00000000000E+00 -0.71054273576E-14  0.91188000000E+02  0.91188000000E+02 0.  0.
    9900012    2    3    3    0    0  0.19667691359E+02  0.95481753127E+01  0.29627582761E+02  0.54367090242E+02  0.40000013824E+02 0.  0.
        -12    1    3    3    0    0 -0.19667691359E+02 -0.95481753127E+01 -0.29627582761E+02  0.36820909758E+02  0.00000000000E+00 0.  1.
         11    1    4    4    0    0  0.46774416584E+01  0.16137657709E+01  0.64194765704E+01  0.81050835980E+01  0.51100000000E-03 0. -1.
        -11    1    4    4    0    0  0.43268791804E+01  0.67494743441E+01 -0.91535519933E+01  0.12168188103E+02  0.51100000000E-03 0.  1.
        -12    1    4    4    0    0  0.10663370520E+02  0.11849351976E+01  0.32361658184E+02  0.34093818540E+02  0.00000000000E+00 0.  1.
</event>
<event>
 8    1  0.2401680E-006  0.9118800E+02  0.7816164E-02  0.1184000E+00
        -11   -1    0    0    0    0  0.00000000000E+00  0.00000000000E+00  0.45593999997E+02  0.45594000000E+02  0.51100000000E-03 0.  1.
         11   -1    0    0    0    0 -0.00000000000E+00 -0.00000000000E+00 -0.45593999997E+02  0.45594000000E+02  0.51100000000E-03 0. -1.
         23    2    1    2    0    0  0.00000000000E+00 -0.17763568394E-14  0.71054273576E-14  0.91188000000E+02  0.91188000000E+02 0.  0.
    9900012    2    3    3    0    0  0.45898899737E+01  0.13648333039E+02 -0.33888579179E+02  0.54367083614E+02  0.39999998715E+02 0.  0.
        -12    1    3    3    0    0 -0.45898899737E+01 -0.13648333039E+02  0.33888579179E+02  0.36820916386E+02  0.00000000000E+00 0.  1.
         11    1    4    4    0    0  0.55938297541E+00  0.13856239674E+01 -0.41427259936E+01  0.44039802465E+01  0.51100000000E-03 0. -1.
        -11    1    4    4    0    0  0.35291580107E+01  0.24490021439E+02 -0.28376831288E+02  0.37649178750E+02  0.51100000000E-03 0.  1.
        -12    1    4    4    0    0  0.50134898764E+00 -0.12227312367E+02 -0.13690218982E+01  0.12313924618E+02  0.00000000000E+00 0.  1.
</event>
<event>
 8    1  0.2401680E-006  0.9118800E+02  0.7816164E-02  0.1184000E+00
        -11   -1    0    0    0    0  0.00000000000E+00  0.00000000000E+00  0.45593999997E+02  0.45594000000E+02  0.51100000000E-03 0.  1.
         11   -1    0    0    0    0 -0.00000000000E+00 -0.00000000000E+00 -0.45593999997E+02  0.45594000000E+02  0.51100000000E-03 0. -1.
         23    2    1    2    0    0  0.35527136788E-14  0.35527136788E-14  0.35527136788E-14  0.91188000000E+02  0.91188000000E+02 0.  0.
    9900012    2    3    3    0    0 -0.16466609869E+02  0.21126506929E+02  0.25264623963E+02  0.54367085297E+02  0.40000002551E+02 0.  0.
         12    1    3    3    0    0  0.16466609869E+02 -0.21126506929E+02 -0.25264623963E+02  0.36820914703E+02  0.00000000000E+00 0. -1.
         11    1    4    4    0    0  0.66591469775E+00  0.41955985312E+01  0.90165790251E+01  0.99672055761E+01  0.51100000000E-03 0. -1.
        -11    1    4    4    0    0 -0.67475129231E+01  0.16157206253E+02  0.25187352430E+02  0.30675510872E+02  0.51100000000E-03 0.  1.
         12    1    4    4    0    0 -0.10385011643E+02  0.77370214449E+00 -0.89393074924E+01  0.13724368848E+02  0.00000000000E+00 0. -1.
</event>
<event>
 8    1  0.2401680E-006  0.9118800E+02  0.7816164E-02  0.1184000E+00
        -11   -1    0    0    0    0  0.00000000000E+00  0.00000000000E+00  0.45593999997E+02  0.45594000000E+02  0.51100000000E-03 0.  1.
         11   -1    0    0    0    0 -0.00000000000E+00 -0.00000000000E+00 -0.45593999997E+02  0.45594000000E+02  0.51100000000E-03 0. -1.
         23    2    1    2    0    0  0.00000000000E+00  0.00000000000E+00 -0.35527136788E-14  0.91188000000E+02  0.91188000000E+02 0.  0.
    9900012    2    3    3    0    0  0.15397174462E+02  0.22964240184E+02 -0.24317715282E+02  0.54367074086E+02  0.39999976993E+02 0.  0.
        -12    1    3    3    0    0 -0.15397174462E+02 -0.22964240184E+02  0.24317715282E+02  0.36820925914E+02  0.00000000000E+00 0.  1.
         11    1    4    4    0    0  0.81615788190E+00  0.80817722236E+01 -0.10951085346E+02  0.13634787364E+02  0.51100000000E-03 0. -1.
        -11    1    4    4    0    0  0.16345277261E+02 -0.50997842309E+01 -0.96762105442E+00  0.17149699085E+02  0.51100000000E-03 0.  1.
        -12    1    4    4    0    0 -0.17642606805E+01  0.19982252191E+02 -0.12399008882E+02  0.23582587637E+02  0.00000000000E+00 0.  1.
</event>
<event>
 8    1  0.2401680E-006  0.9118800E+02  0.7816164E-02  0.1184000E+00
        -11   -1    0    0    0    0  0.00000000000E+00  0.00000000000E+00  0.45593999997E+02  0.45594000000E+02  0.51100000000E-03 0.  1.
         11   -1    0    0    0    0 -0.00000000000E+00 -0.00000000000E+00 -0.45593999997E+02  0.45594000000E+02  0.51100000000E-03 0. -1.
         23    2    1    2    0    0  0.00000000000E+00  0.44408920985E-15 -0.27755575616E-15  0.91188000000E+02  0.91188000000E+02 0.  0.
    9900012    2    3    3    0    0  0.36713302510E+02  0.27856709955E+01  0.38995203194E+00  0.54367100953E+02  0.40000038241E+02 0.  0.
        -12    1    3    3    0    0 -0.36713302510E+02 -0.27856709955E+01 -0.38995203194E+00  0.36820899047E+02  0.00000000000E+00 0.  1.
         11    1    4    4    0    0  0.12964652931E+02  0.16876012436E+01 -0.57893183635E+01  0.14298476526E+02  0.51100000000E-03 0. -1.
        -11    1    4    4    0    0  0.24058431919E+01 -0.12962002398E+02  0.60625718995E+01  0.14510560497E+02  0.51100000000E-03 0.  1.
         12    1    4    4    0    0  0.21342806387E+02  0.14060072150E+02  0.11669849591E+00  0.25558063930E+02  0.00000000000E+00 0. -1.
</event>
<event>
 8    1  0.2401680E-006  0.9118800E+02  0.7816164E-02  0.1184000E+00
        -11   -1    0    0    0    0  0.00000000000E+00  0.00000000000E+00  0.45593999997E+02  0.45594000000E+02  0.51100000000E-03 0.  1.
         11   -1    0    0    0    0 -0.00000000000E+00 -0.00000000000E+00 -0.45593999997E+02  0.45594000000E+02  0.51100000000E-03 0. -1.
         23    2    1    2    0    0  0.71054273576E-14  0.00000000000E+00 -0.88817841970E-15  0.91188000000E+02  0.91188000000E+02 0.  0.
    9900012    2    3    3    0    0 -0.33015444996E+02 -0.15728935270E+02  0.42849659040E+01  0.54367082768E+02  0.39999996786E+02 0.  0.
         12    1    3    3    0    0  0.33015444996E+02  0.15728935270E+02 -0.42849659040E+01  0.36820917232E+02  0.00000000000E+00 0. -1.
         11    1    4    4    0    0 -0.73527688897E+01 -0.10677182759E+02 -0.10759539867E+02  0.16847348172E+02  0.51100000000E-03 0.  1.
        -11    1    4    4    0    0 -0.23058814147E+01 -0.84511729226E+01 -0.12355656388E+01  0.88468093443E+01  0.51100000000E-03 0. -1.
         12    1    4    4    0    0 -0.23356794692E+02  0.33994204116E+01  0.16280071410E+02  0.28672925252E+02  0.00000000000E+00 0. -1.
</event>
<event>
 8    1  0.2401680E-006  0.9118800E+02  0.7816164E-02  0.1184000E+00
        -11   -1    0    0    0    0  0.00000000000E+00  0.00000000000E+00  0.45593999997E+02  0.45594000000E+02  0.51100000000E-03 0.  1.
         11   -1    0    0    0    0 -0.00000000000E+00 -0.00000000000E+00 -0.45593999997E+02  0.45594000000E+02  0.51100000000E-03 0. -1.
         23    2    1    2    0    0  0.00000000000E+00  0.13322676296E-14  0.00000000000E+00  0.91188000000E+02  0.91188000000E+02 0.  0.
    9900012    2    3    3    0    0  0.89202762649E+01 -0.39261208636E+01 -0.35507653031E+02  0.54367093202E+02  0.40000020572E+02 0.  0.
        -12    1    3    3    0    0 -0.89202762649E+01  0.39261208636E+01  0.35507653031E+02  0.36820906798E+02  0.00000000000E+00 0.  1.
         11    1    4    4    0    0  0.38638424981E+01 -0.13516843846E+02 -0.84788311210E+00  0.14083793964E+02  0.51100000000E-03 0. -1.
        -11    1    4    4    0    0  0.27395468104E+01  0.56578100719E+01 -0.10600310393E+01  0.63749194192E+01  0.51100000000E-03 0.  1.
         12    1    4    4    0    0  0.23168869564E+01  0.39329129102E+01 -0.33599738879E+02  0.33908379818E+02  0.00000000000E+00 0. -1.
</event>
<event>
 8    1  0.2401680E-006  0.9118800E+02  0.7816164E-02  0.1184000E+00
        -11   -1    0    0    0    0  0.00000000000E+00  0.00000000000E+00  0.45593999997E+02  0.45594000000E+02  0.51100000000E-03 0.  1.
         11   -1    0    0    0    0 -0.00000000000E+00 -0.00000000000E+00 -0.45593999997E+02  0.45594000000E+02  0.51100000000E-03 0. -1.
         23    2    1    2    0    0  0.00000000000E+00  0.00000000000E+00  0.17763568394E-14  0.91188000000E+02  0.91188000000E+02 0.  0.
    9900012    2    3    3    0    0 -0.32930625335E+02  0.12396857044E+02 -0.10847637937E+02  0.54367090202E+02  0.40000013734E+02 0.  0.
         12    1    3    3    0    0  0.32930625335E+02 -0.12396857044E+02  0.10847637937E+02  0.36820909798E+02  0.00000000000E+00 0. -1.
         11    1    4    4    0    0 -0.13123867851E+02 -0.68758937466E+01 -0.11573971058E+02  0.18800814570E+02  0.51100000000E-03 0. -1.
        -11    1    4    4    0    0 -0.24352779670E+02  0.13542150307E+02 -0.15431615751E+01  0.27907509034E+02  0.51100000000E-03 0.  1.
        -12    1    4    4    0    0  0.45460221861E+01  0.57306004834E+01  0.22694946966E+01  0.76587665975E+01  0.00000000000E+00 0.  1.
</event>
<event>
 8    1  0.2401680E-006  0.9118800E+02  0.7816164E-02  0.1184000E+00
        -11   -1    0    0    0    0  0.00000000000E+00  0.00000000000E+00  0.45593999997E+02  0.45594000000E+02  0.51100000000E-03 0.  1.
         11   -1    0    0    0    0 -0.00000000000E+00 -0.00000000000E+00 -0.45593999997E+02  0.45594000000E+02  0.51100000000E-03 0. -1.
         23    2    1    2    0    0  0.00000000000E+00 -0.17763568394E-14  0.00000000000E+00  0.91188000000E+02  0.91188000000E+02 0.  0.
    9900012    2    3    3    0    0  0.25439399709E+02  0.10354936757E+02 -0.24523279694E+02  0.54367095343E+02  0.40000025454E+02 0.  0.
        -12    1    3    3    0    0 -0.25439399709E+02 -0.10354936757E+02  0.24523279694E+02  0.36820904657E+02  0.00000000000E+00 0.  1.
         11    1    4    4    0    0  0.73387616318E+01  0.32330177332E+01 -0.27969277158E+02  0.29096224685E+02  0.51100000000E-03 0. -1.
        -11    1    4    4    0    0  0.15040345048E+01  0.20182617853E+01  0.70947755011E+01  0.75280369352E+01  0.51100000000E-03 0.  1.
        -12    1    4    4    0    0  0.16596603572E+02  0.51036572388E+01 -0.36487780369E+01  0.17742833723E+02  0.00000000000E+00 0.  1.
</event>
<event>
 8    1  0.2401680E-006  0.9118800E+02  0.7816164E-02  0.1184000E+00
        -11   -1    0    0    0    0  0.00000000000E+00  0.00000000000E+00  0.45593999997E+02  0.45594000000E+02  0.51100000000E-03 0. -1.
         11   -1    0    0    0    0 -0.00000000000E+00 -0.00000000000E+00 -0.45593999997E+02  0.45594000000E+02  0.51100000000E-03 0.  1.
         23    2    1    2    0    0  0.35527136788E-14 -0.66613381478E-15  0.00000000000E+00  0.91188000000E+02  0.91188000000E+02 0.  0.
    9900012    2    3    3    0    0 -0.31886655844E+02  0.14550706666E+01  0.18354851995E+02  0.54367127614E+02  0.40000099021E+02 0.  0.
        -12    1    3    3    0    0  0.31886655844E+02 -0.14550706666E+01 -0.18354851995E+02  0.36820872386E+02  0.00000000000E+00 0.  1.
         11    1    4    4    0    0  0.17650179374E+01 -0.46030938341E+01  0.11743594403E+02  0.12736395523E+02  0.51100000000E-03 0. -1.
        -11    1    4    4    0    0 -0.56109274898E+01 -0.73429885148E+01  0.50076286718E+01  0.10510867367E+02  0.51100000000E-03 0.  1.
         12    1    4    4    0    0 -0.28040746291E+02  0.13401153015E+02  0.16036289200E+01  0.31119864724E+02  0.00000000000E+00 0. -1.
</event>
<event>
 8    1  0.2401680E-006  0.9118800E+02  0.7816164E-02  0.1184000E+00
        -11   -1    0    0    0    0  0.00000000000E+00  0.00000000000E+00  0.45593999997E+02  0.45594000000E+02  0.51100000000E-03 0.  1.
         11   -1    0    0    0    0 -0.00000000000E+00 -0.00000000000E+00 -0.45593999997E+02  0.45594000000E+02  0.51100000000E-03 0. -1.
         23    2    1    2    0    0  0.00000000000E+00  0.35527136788E-14  0.35527136788E-14  0.91188000000E+02  0.91188000000E+02 0.  0.
    9900012    2    3    3    0    0  0.29553593817E+02  0.16147200525E+02  0.14887327975E+02  0.54367088462E+02  0.40000009766E+02 0.  0.
         12    1    3    3    0    0 -0.29553593817E+02 -0.16147200525E+02 -0.14887327975E+02  0.36820911538E+02  0.00000000000E+00 0. -1.
         11    1    4    4    0    0  0.12475765300E+02  0.18475483629E+02 -0.48636508647E+01  0.22817609760E+02  0.51100000000E-03 0. -1.
        -11    1    4    4    0    0  0.76907347509E+01  0.40267793378E+01 -0.10915104764E+00  0.86818354658E+01  0.51100000000E-03 0.  1.
         12    1    4    4    0    0  0.93870937662E+01 -0.63550624423E+01  0.19860129887E+02  0.22867643236E+02  0.00000000000E+00 0. -1.
</event>
<event>
 8    1  0.2401680E-006  0.9118800E+02  0.7816164E-02  0.1184000E+00
        -11   -1    0    0    0    0  0.00000000000E+00  0.00000000000E+00  0.45593999997E+02  0.45594000000E+02  0.51100000000E-03 0. -1.
         11   -1    0    0    0    0 -0.00000000000E+00 -0.00000000000E+00 -0.45593999997E+02  0.45594000000E+02  0.51100000000E-03 0.  1.
         23    2    1    2    0    0  0.00000000000E+00 -0.88817841970E-15  0.15543122345E-14  0.91188000000E+02  0.91188000000E+02 0.  0.
    9900012    2    3    3    0    0  0.36688265570E+02  0.24078798224E+01  0.19875556163E+01  0.54367121506E+02  0.40000085097E+02 0.  0.
         12    1    3    3    0    0 -0.36688265570E+02 -0.24078798224E+01 -0.19875556163E+01  0.36820878494E+02  0.00000000000E+00 0. -1.
         11    1    4    4    0    0  0.14310417007E+02  0.10719227637E+02 -0.13245710882E+02  0.22251713037E+02  0.51100000000E-03 0.  1.
        -11    1    4    4    0    0  0.16767746426E+01 -0.73096262162E+01  0.48858771638E+01  0.89506426888E+01  0.51100000000E-03 0. -1.
         12    1    4    4    0    0  0.20701073920E+02 -0.10017215982E+01  0.10347389334E+02  0.23164765780E+02  0.00000000000E+00 0. -1.
</event>
<event>
 8    1  0.2401680E-006  0.9118800E+02  0.7816164E-02  0.1184000E+00
        -11   -1    0    0    0    0  0.00000000000E+00  0.00000000000E+00  0.45593999997E+02  0.45594000000E+02  0.51100000000E-03 0.  1.
         11   -1    0    0    0    0 -0.00000000000E+00 -0.00000000000E+00 -0.45593999997E+02  0.45594000000E+02  0.51100000000E-03 0. -1.
         23    2    1    2    0    0  0.00000000000E+00  0.00000000000E+00  0.00000000000E+00  0.91188000000E+02  0.91188000000E+02 0.  0.
    9900012    2    3    3    0    0  0.23860104279E+02  0.16338151654E+02 -0.22793795557E+02  0.54366852659E+02  0.39999472202E+02 0.  0.
        -12    1    3    3    0    0 -0.23860104279E+02 -0.16338151654E+02  0.22793795557E+02  0.36821147341E+02  0.00000000000E+00 0.  1.
         11    1    4    4    0    0 -0.23289680160E+01 -0.13088885478E+01 -0.12102198917E+02  0.12393566885E+02  0.51100000000E-03 0. -1.
        -11    1    4    4    0    0 -0.51132687754E+01  0.14288676985E+01 -0.90427421786E+00  0.53856190537E+01  0.51100000000E-03 0.  1.
         12    1    4    4    0    0  0.31302341070E+02  0.16218172503E+02 -0.97873224220E+01  0.36587666720E+02  0.00000000000E+00 0. -1.
</event>
<event>
 8    1  0.2401680E-006  0.9118800E+02  0.7816164E-02  0.1184000E+00
        -11   -1    0    0    0    0  0.00000000000E+00  0.00000000000E+00  0.45593999997E+02  0.45594000000E+02  0.51100000000E-03 0.  1.
         11   -1    0    0    0    0 -0.00000000000E+00 -0.00000000000E+00 -0.45593999997E+02  0.45594000000E+02  0.51100000000E-03 0. -1.
         23    2    1    2    0    0 -0.88817841970E-15  0.00000000000E+00  0.00000000000E+00  0.91188000000E+02  0.91188000000E+02 0.  0.
    9900012    2    3    3    0    0  0.12647034902E+01 -0.25966434277E+02  0.26075341242E+02  0.54367100977E+02  0.40000038298E+02 0.  0.
         12    1    3    3    0    0 -0.12647034902E+01  0.25966434277E+02 -0.26075341242E+02  0.36820899023E+02  0.00000000000E+00 0. -1.
         11    1    4    4    0    0 -0.18525984121E+01  0.27288144120E+00 -0.84686809584E+01  0.86732429110E+01  0.51100000000E-03 0. -1.
        -11    1    4    4    0    0  0.84245110200E+01 -0.19309703298E+02  0.22549647341E+02  0.30859741134E+02  0.51100000000E-03 0.  1.
        -12    1    4    4    0    0 -0.53072091177E+01 -0.69296124204E+01  0.11994374859E+02  0.14834116932E+02  0.00000000000E+00 0.  1.
</event>
<event>
 8    1  0.2401680E-006  0.9118800E+02  0.7816164E-02  0.1184000E+00
        -11   -1    0    0    0    0  0.00000000000E+00  0.00000000000E+00  0.45593999997E+02  0.45594000000E+02  0.51100000000E-03 0.  1.
         11   -1    0    0    0    0 -0.00000000000E+00 -0.00000000000E+00 -0.45593999997E+02  0.45594000000E+02  0.51100000000E-03 0. -1.
         23    2    1    2    0    0  0.00000000000E+00  0.35527136788E-14  0.00000000000E+00  0.91188000000E+02  0.91188000000E+02 0.  0.
    9900012    2    3    3    0    0 -0.24064109561E+02  0.23671183085E+02  0.14709647918E+02  0.54367081768E+02  0.39999994506E+02 0.  0.
        -12    1    3    3    0    0  0.24064109561E+02 -0.23671183085E+02 -0.14709647918E+02  0.36820918232E+02  0.00000000000E+00 0.  1.
         11    1    4    4    0    0 -0.21921257979E+02  0.12452000708E+02  0.12179189714E+00  0.25211281335E+02  0.51100000000E-03 0. -1.
        -11    1    4    4    0    0 -0.83019901057E+01  0.93252989985E+01 -0.76168441336E+00  0.12508573241E+02  0.51100000000E-03 0.  1.
        -12    1    4    4    0    0  0.61591385240E+01  0.18938833782E+01  0.15349540435E+02  0.16647227191E+02  0.00000000000E+00 0.  1.
</event>
<event>
 8    1  0.2401680E-006  0.9118800E+02  0.7816164E-02  0.1184000E+00
        -11   -1    0    0    0    0  0.00000000000E+00  0.00000000000E+00  0.45593999997E+02  0.45594000000E+02  0.51100000000E-03 0.  1.
         11   -1    0    0    0    0 -0.00000000000E+00 -0.00000000000E+00 -0.45593999997E+02  0.45594000000E+02  0.51100000000E-03 0. -1.
         23    2    1    2    0    0  0.00000000000E+00  0.35527136788E-14  0.00000000000E+00  0.91188000000E+02  0.91188000000E+02 0.  0.
    9900012    2    3    3    0    0  0.29508867148E+02  0.20182733404E+02  0.88126865493E+01  0.54367090013E+02  0.40000013303E+02 0.  0.
         12    1    3    3    0    0 -0.29508867148E+02 -0.20182733404E+02 -0.88126865493E+01  0.36820909987E+02  0.00000000000E+00 0. -1.
         11    1    4    4    0    0  0.30535491087E+01 -0.73129377340E+01 -0.53728469455E+01  0.95744819714E+01  0.51100000000E-03 0. -1.
        -11    1    4    4    0    0  0.18502134593E+02  0.58679768482E+01  0.56071781828E+01  0.20204023962E+02  0.51100000000E-03 0.  1.
        -12    1    4    4    0    0  0.79531834461E+01  0.21627694290E+02  0.85783553120E+01  0.24588584080E+02  0.00000000000E+00 0.  1.
</event>
<event>
 8    1  0.2401680E-006  0.9118800E+02  0.7816164E-02  0.1184000E+00
        -11   -1    0    0    0    0  0.00000000000E+00  0.00000000000E+00  0.45593999997E+02  0.45594000000E+02  0.51100000000E-03 0. -1.
         11   -1    0    0    0    0 -0.00000000000E+00 -0.00000000000E+00 -0.45593999997E+02  0.45594000000E+02  0.51100000000E-03 0.  1.
         23    2    1    2    0    0  0.17763568394E-14  0.00000000000E+00  0.00000000000E+00  0.91188000000E+02  0.91188000000E+02 0.  0.
    9900012    2    3    3    0    0  0.45752235614E+01 -0.29279597205E+02 -0.21852980841E+02  0.54367078573E+02  0.39999987222E+02 0.  0.
         12    1    3    3    0    0 -0.45752235614E+01  0.29279597205E+02  0.21852980841E+02  0.36820921427E+02  0.00000000000E+00 0. -1.
         11    1    4    4    0    0 -0.11542256256E+02 -0.98442936988E+01 -0.98786878253E+00  0.15202292028E+02  0.51100000000E-03 0. -1.
        -11    1    4    4    0    0  0.14006036500E+02 -0.20318109626E+02 -0.77713733446E+01  0.25872550727E+02  0.51100000000E-03 0.  1.
         12    1    4    4    0    0  0.21114433178E+01  0.88280611990E+00 -0.13093738714E+02  0.13292235818E+02  0.00000000000E+00 0. -1.
</event>
<event>
 8    1  0.2401680E-006  0.9118800E+02  0.7816164E-02  0.1184000E+00
        -11   -1    0    0    0    0  0.00000000000E+00  0.00000000000E+00  0.45593999997E+02  0.45594000000E+02  0.51100000000E-03 0.  1.
         11   -1    0    0    0    0 -0.00000000000E+00 -0.00000000000E+00 -0.45593999997E+02  0.45594000000E+02  0.51100000000E-03 0. -1.
         23    2    1    2    0    0  0.88817841970E-15  0.71054273576E-14  0.00000000000E+00  0.91188000000E+02  0.91188000000E+02 0.  0.
    9900012    2    3    3    0    0  0.79373898257E+01  0.28259137405E+02 -0.22230526531E+02  0.54367118507E+02  0.40000078259E+02 0.  0.
        -12    1    3    3    0    0 -0.79373898257E+01 -0.28259137405E+02  0.22230526531E+02  0.36820881493E+02  0.00000000000E+00 0.  1.
         11    1    4    4    0    0  0.88194437138E+01  0.25319938090E+01 -0.48100042039E+01  0.10360005829E+02  0.51100000000E-03 0. -1.
        -11    1    4    4    0    0  0.92095955318E+01  0.80235666555E+01  0.54499071212E+01  0.13375191947E+02  0.51100000000E-03 0.  1.
        -12    1    4    4    0    0 -0.10091649420E+02  0.17703576940E+02 -0.22870429448E+02  0.30631920731E+02  0.00000000000E+00 0.  1.
</event>
<event>
 8    1  0.2401680E-006  0.9118800E+02  0.7816164E-02  0.1184000E+00
        -11   -1    0    0    0    0  0.00000000000E+00  0.00000000000E+00  0.45593999997E+02  0.45594000000E+02  0.51100000000E-03 0.  1.
         11   -1    0    0    0    0 -0.00000000000E+00 -0.00000000000E+00 -0.45593999997E+02  0.45594000000E+02  0.51100000000E-03 0. -1.
         23    2    1    2    0    0  0.00000000000E+00  0.00000000000E+00  0.00000000000E+00  0.91188000000E+02  0.91188000000E+02 0.  0.
    9900012    2    3    3    0    0  0.23382430787E+02  0.18577353851E+02 -0.21538893360E+02  0.54367081044E+02  0.39999992855E+02 0.  0.
        -12    1    3    3    0    0 -0.23382430787E+02 -0.18577353851E+02  0.21538893360E+02  0.36820918956E+02  0.00000000000E+00 0.  1.
         11    1    4    4    0    0  0.21944509009E+02  0.20674484387E+02 -0.22208001428E+02  0.37445842333E+02  0.51100000000E-03 0. -1.
        -11    1    4    4    0    0 -0.18063848867E-01  0.52289347158E+01 -0.52358186406E+01  0.73997217287E+01  0.51100000000E-03 0.  1.
         12    1    4    4    0    0  0.14559856264E+01 -0.73260652516E+01  0.59049267084E+01  0.95215169824E+01  0.00000000000E+00 0. -1.
</event>
<event>
 8    1  0.2401680E-006  0.9118800E+02  0.7816164E-02  0.1184000E+00
        -11   -1    0    0    0    0  0.00000000000E+00  0.00000000000E+00  0.45593999997E+02  0.45594000000E+02  0.51100000000E-03 0. -1.
         11   -1    0    0    0    0 -0.00000000000E+00 -0.00000000000E+00 -0.45593999997E+02  0.45594000000E+02  0.51100000000E-03 0.  1.
         23    2    1    2    0    0 -0.22204460493E-15  0.00000000000E+00 -0.35527136788E-14  0.91188000000E+02  0.91188000000E+02 0.  0.
    9900012    2    3    3    0    0  0.12539714998E+01 -0.27723684523E+02  0.24199270516E+02  0.54367084455E+02  0.40000000631E+02 0.  0.
        -12    1    3    3    0    0 -0.12539714998E+01  0.27723684523E+02 -0.24199270516E+02  0.36820915545E+02  0.00000000000E+00 0.  1.
         11    1    4    4    0    0 -0.30813331917E+01 -0.41368990005E+00  0.11376583297E+02  0.11793744161E+02  0.51100000000E-03 0. -1.
        -11    1    4    4    0    0 -0.84166016713E+01  0.19655501373E+01  0.32971320223E+01  0.92506027300E+01  0.51100000000E-03 0.  1.
        -12    1    4    4    0    0  0.12751906363E+02 -0.29275544760E+02  0.95255551974E+01  0.33322737563E+02  0.00000000000E+00 0.  1.
</event>
<event>
 8    1  0.2401680E-006  0.9118800E+02  0.7816164E-02  0.1184000E+00
        -11   -1    0    0    0    0  0.00000000000E+00  0.00000000000E+00  0.45593999997E+02  0.45594000000E+02  0.51100000000E-03 0.  1.
         11   -1    0    0    0    0 -0.00000000000E+00 -0.00000000000E+00 -0.45593999997E+02  0.45594000000E+02  0.51100000000E-03 0. -1.
         23    2    1    2    0    0  0.00000000000E+00 -0.88817841970E-15  0.44408920985E-15  0.91188000000E+02  0.91188000000E+02 0.  0.
    9900012    2    3    3    0    0  0.36010177806E+02 -0.71934086345E+01  0.27020166719E+01  0.54367096596E+02  0.40000028310E+02 0.  0.
         12    1    3    3    0    0 -0.36010177806E+02  0.71934086345E+01 -0.27020166719E+01  0.36820903404E+02  0.00000000000E+00 0. -1.
         11    1    4    4    0    0  0.10478651037E+02 -0.62344839437E+01 -0.81590012262E+01  0.14671067407E+02  0.51100000000E-03 0. -1.
        -11    1    4    4    0    0  0.13362456883E+02 -0.87586485874E+01 -0.63745654072E+01  0.17201868021E+02  0.51100000000E-03 0.  1.
        -12    1    4    4    0    0  0.12169069886E+02  0.77997238966E+01  0.17235583305E+02  0.22494161167E+02  0.00000000000E+00 0.  1.
</event>
<event>
 8    1  0.2401680E-006  0.9118800E+02  0.7816164E-02  0.1184000E+00
        -11   -1    0    0    0    0  0.00000000000E+00  0.00000000000E+00  0.45593999997E+02  0.45594000000E+02  0.51100000000E-03 0.  1.
         11   -1    0    0    0    0 -0.00000000000E+00 -0.00000000000E+00 -0.45593999997E+02  0.45594000000E+02  0.51100000000E-03 0. -1.
         23    2    1    2    0    0  0.00000000000E+00  0.00000000000E+00  0.00000000000E+00  0.91188000000E+02  0.91188000000E+02 0.  0.
    9900012    2    3    3    0    0  0.24323649728E+02  0.26333823820E+02 -0.84065326689E+01  0.54367081970E+02  0.39999994967E+02 0.  0.
         12    1    3    3    0    0 -0.24323649728E+02 -0.26333823820E+02  0.84065326689E+01  0.36820918030E+02  0.00000000000E+00 0. -1.
         11    1    4    4    0    0  0.23413071186E+02  0.40747920087E+01  0.47614353943E+01  0.24237308010E+02  0.51100000000E-03 0. -1.
        -11    1    4    4    0    0  0.55280089261E+01  0.14765978895E+02 -0.14262374922E+02  0.21260488097E+02  0.51100000000E-03 0.  1.
         12    1    4    4    0    0 -0.46174303841E+01  0.74930529161E+01  0.10944068592E+01  0.88692858635E+01  0.00000000000E+00 0. -1.
</event>
<event>
 8    1  0.2401680E-006  0.9118800E+02  0.7816164E-02  0.1184000E+00
        -11   -1    0    0    0    0  0.00000000000E+00  0.00000000000E+00  0.45593999997E+02  0.45594000000E+02  0.51100000000E-03 0. -1.
         11   -1    0    0    0    0 -0.00000000000E+00 -0.00000000000E+00 -0.45593999997E+02  0.45594000000E+02  0.51100000000E-03 0.  1.
         23    2    1    2    0    0 -0.17763568394E-14 -0.88817841970E-15 -0.71054273576E-14  0.91188000000E+02  0.91188000000E+02 0.  0.
    9900012    2    3    3    0    0  0.14753861568E+02 -0.35837392201E+01 -0.33544893306E+02  0.54367089027E+02  0.40000011056E+02 0.  0.
         12    1    3    3    0    0 -0.14753861568E+02  0.35837392201E+01  0.33544893306E+02  0.36820910973E+02  0.00000000000E+00 0. -1.
         11    1    4    4    0    0 -0.25287204523E+01 -0.15593483454E+01  0.46420777510E+01  0.55113410796E+01  0.51100000000E-03 0. -1.
        -11    1    4    4    0    0  0.19272138065E+02 -0.93676659408E+01 -0.20736737854E+02  0.29819134258E+02  0.51100000000E-03 0.  1.
        -12    1    4    4    0    0 -0.19895560454E+01  0.73432750661E+01 -0.17450233202E+02  0.19036613690E+02  0.00000000000E+00 0.  1.
</event>
<event>
 8    1  0.2401680E-006  0.9118800E+02  0.7816164E-02  0.1184000E+00
        -11   -1    0    0    0    0  0.00000000000E+00  0.00000000000E+00  0.45593999997E+02  0.45594000000E+02  0.51100000000E-03 0. -1.
         11   -1    0    0    0    0 -0.00000000000E+00 -0.00000000000E+00 -0.45593999997E+02  0.45594000000E+02  0.51100000000E-03 0.  1.
         23    2    1    2    0    0 -0.71054273576E-14  0.00000000000E+00  0.00000000000E+00  0.91188000000E+02  0.91188000000E+02 0.  0.
    9900012    2    3    3    0    0  0.32019282283E+02  0.53190600494E+01  0.17385433994E+02  0.54367079956E+02  0.39999990375E+02 0.  0.
        -12    1    3    3    0    0 -0.32019282283E+02 -0.53190600494E+01 -0.17385433994E+02  0.36820920044E+02  0.00000000000E+00 0.  1.
         11    1    4    4    0    0  0.86534568605E+01 -0.45004080573E+01 -0.40997324918E+00  0.97623801731E+01  0.51100000000E-03 0. -1.
        -11    1    4    4    0    0  0.10341895544E+01 -0.92599602978E+01 -0.15339027688E+01  0.94429482004E+01  0.51100000000E-03 0.  1.
         12    1    4    4    0    0  0.22331635869E+02  0.19079428404E+02  0.19329310012E+02  0.35161751582E+02  0.00000000000E+00 0. -1.
</event>
<event>
 8    1  0.2401680E-006  0.9118800E+02  0.7816164E-02  0.1184000E+00
        -11   -1    0    0    0    0  0.00000000000E+00  0.00000000000E+00  0.45593999997E+02  0.45594000000E+02  0.51100000000E-03 0.  1.
         11   -1    0    0    0    0 -0.00000000000E+00 -0.00000000000E+00 -0.45593999997E+02  0.45594000000E+02  0.51100000000E-03 0. -1.
         23    2    1    2    0    0  0.00000000000E+00  0.00000000000E+00  0.88817841970E-15  0.91188000000E+02  0.91188000000E+02 0.  0.
    9900012    2    3    3    0    0 -0.20848391629E+02  0.29554364960E+02 -0.69047511560E+01  0.54366925732E+02  0.39999638790E+02 0.  0.
        -12    1    3    3    0    0  0.20848391629E+02 -0.29554364960E+02  0.69047511560E+01  0.36821074268E+02  0.00000000000E+00 0.  1.
         11    1    4    4    0    0 -0.18893808540E+02  0.64092970146E+01 -0.64107450480E+01  0.20955971505E+02  0.51100000000E-03 0. -1.
        -11    1    4    4    0    0  0.89912511779E+01  0.15774143433E+02  0.54223689185E+01  0.18949097175E+02  0.51100000000E-03 0.  1.
        -12    1    4    4    0    0 -0.10945834267E+02  0.73709245128E+01 -0.59163750265E+01  0.14461857053E+02  0.00000000000E+00 0.  1.
</event>
<event>
 8    1  0.2401680E-006  0.9118800E+02  0.7816164E-02  0.1184000E+00
        -11   -1    0    0    0    0  0.00000000000E+00  0.00000000000E+00  0.45593999997E+02  0.45594000000E+02  0.51100000000E-03 0. -1.
         11   -1    0    0    0    0 -0.00000000000E+00 -0.00000000000E+00 -0.45593999997E+02  0.45594000000E+02  0.51100000000E-03 0.  1.
         23    2    1    2    0    0  0.00000000000E+00  0.00000000000E+00  0.35527136788E-14  0.91188000000E+02  0.91188000000E+02 0.  0.
    9900012    2    3    3    0    0  0.81862142932E+01  0.30946859773E+02 -0.18194996399E+02  0.54367080291E+02  0.39999991139E+02 0.  0.
         12    1    3    3    0    0 -0.81862142932E+01 -0.30946859773E+02  0.18194996399E+02  0.36820919709E+02  0.00000000000E+00 0. -1.
         11    1    4    4    0    0  0.93466169758E+01  0.12645845752E+02  0.20974058790E+01  0.15864292463E+02  0.51100000000E-03 0. -1.
        -11    1    4    4    0    0 -0.11418114781E+02  0.26049102016E+01 -0.14978760863E+02  0.19013736602E+02  0.51100000000E-03 0.  1.
        -12    1    4    4    0    0  0.10257712098E+02  0.15696103819E+02 -0.53136414150E+01  0.19489051226E+02  0.00000000000E+00 0.  1.
</event>
<event>
 8    1  0.2401680E-006  0.9118800E+02  0.7816164E-02  0.1184000E+00
        -11   -1    0    0    0    0  0.00000000000E+00  0.00000000000E+00  0.45593999997E+02  0.45594000000E+02  0.51100000000E-03 0.  1.
         11   -1    0    0    0    0 -0.00000000000E+00 -0.00000000000E+00 -0.45593999997E+02  0.45594000000E+02  0.51100000000E-03 0. -1.
         23    2    1    2    0    0 -0.17763568394E-14  0.88817841970E-15  0.71054273576E-14  0.91188000000E+02  0.91188000000E+02 0.  0.
    9900012    2    3    3    0    0  0.11999838431E+02  0.79490748489E+01 -0.33890935758E+02  0.54367089639E+02  0.40000012449E+02 0.  0.
        -12    1    3    3    0    0 -0.11999838431E+02 -0.79490748489E+01  0.33890935758E+02  0.36820910361E+02  0.00000000000E+00 0.  1.
         11    1    4    4    0    0 -0.49106822135E+01  0.15122868146E+02 -0.23673272156E+02  0.28517358847E+02  0.51100000000E-03 0. -1.
        -11    1    4    4    0    0  0.81095566219E+01 -0.93013682603E+01 -0.19353922388E+00  0.12341710490E+02  0.51100000000E-03 0.  1.
         12    1    4    4    0    0  0.88009640225E+01  0.21275749634E+01 -0.10024124377E+02  0.13508020302E+02  0.00000000000E+00 0. -1.
</event>
<event>
 8    1  0.2401680E-006  0.9118800E+02  0.7816164E-02  0.1184000E+00
        -11   -1    0    0    0    0  0.00000000000E+00  0.00000000000E+00  0.45593999997E+02  0.45594000000E+02  0.51100000000E-03 0.  1.
         11   -1    0    0    0    0 -0.00000000000E+00 -0.00000000000E+00 -0.45593999997E+02  0.45594000000E+02  0.51100000000E-03 0. -1.
         23    2    1    2    0    0  0.00000000000E+00  0.00000000000E+00  0.88817841970E-15  0.91188000000E+02  0.91188000000E+02 0.  0.
    9900012    2    3    3    0    0  0.17225332417E+02  0.32379749068E+02  0.32586535446E+01  0.54367094939E+02  0.40000024533E+02 0.  0.
         12    1    3    3    0    0 -0.17225332417E+02 -0.32379749068E+02 -0.32586535446E+01  0.36820905061E+02  0.00000000000E+00 0. -1.
         11    1    4    4    0    0  0.17158171307E+02  0.78302547400E+00  0.66756603621E+01  0.18427707753E+02  0.51100000000E-03 0. -1.
        -11    1    4    4    0    0  0.39733922775E+01  0.29234824697E+02  0.10910828970E+01  0.29523774884E+02  0.51100000000E-03 0.  1.
        -12    1    4    4    0    0 -0.39062311677E+01  0.23618988970E+01 -0.45080897145E+01  0.64156123020E+01  0.00000000000E+00 0.  1.
</event>
<event>
 8    1  0.2401680E-006  0.9118800E+02  0.7816164E-02  0.1184000E+00
        -11   -1    0    0    0    0  0.00000000000E+00  0.00000000000E+00  0.45593999997E+02  0.45594000000E+02  0.51100000000E-03 0. -1.
         11   -1    0    0    0    0 -0.00000000000E+00 -0.00000000000E+00 -0.45593999997E+02  0.45594000000E+02  0.51100000000E-03 0.  1.
         23    2    1    2    0    0  0.00000000000E+00  0.53290705182E-14  0.71054273576E-14  0.91188000000E+02  0.91188000000E+02 0.  0.
    9900012    2    3    3    0    0  0.12676412965E+02  0.11364461567E+02  0.32648655732E+02  0.54367120686E+02  0.40000083227E+02 0.  0.
        -12    1    3    3    0    0 -0.12676412965E+02 -0.11364461567E+02 -0.32648655732E+02  0.36820879314E+02  0.00000000000E+00 0.  1.
         11    1    4    4    0    0  0.15162185140E+02  0.15315912823E+01  0.25946490186E+02  0.30090828890E+02  0.51100000000E-03 0. -1.
        -11    1    4    4    0    0  0.31292499325E+01 -0.52110158114E+01  0.54601980446E+01  0.81707192997E+01  0.51100000000E-03 0.  1.
        -12    1    4    4    0    0 -0.56150221066E+01  0.15043886096E+02  0.12419675008E+01  0.16105572496E+02  0.00000000000E+00 0.  1.
</event>
<event>
 8    1  0.2401680E-006  0.9118800E+02  0.7816164E-02  0.1184000E+00
        -11   -1    0    0    0    0  0.00000000000E+00  0.00000000000E+00  0.45593999997E+02  0.45594000000E+02  0.51100000000E-03 0.  1.
         11   -1    0    0    0    0 -0.00000000000E+00 -0.00000000000E+00 -0.45593999997E+02  0.45594000000E+02  0.51100000000E-03 0. -1.
         23    2    1    2    0    0 -0.35527136788E-14  0.44408920985E-15 -0.35527136788E-14  0.91188000000E+02  0.91188000000E+02 0.  0.
    9900012    2    3    3    0    0  0.28449895911E+02  0.19924971398E+01 -0.23289766711E+02  0.54367083993E+02  0.39999999578E+02 0.  0.
        -12    1    3    3    0    0 -0.28449895911E+02 -0.19924971398E+01  0.23289766711E+02  0.36820916007E+02  0.00000000000E+00 0.  1.
         11    1    4    4    0    0  0.15356709725E+02  0.35165089018E+01 -0.58936700101E+01  0.16820514703E+02  0.51100000000E-03 0. -1.
        -11    1    4    4    0    0 -0.62167618706E+01  0.33022879927E+01  0.41840177474E+01  0.81889705650E+01  0.51100000000E-03 0.  1.
        -12    1    4    4    0    0  0.19309948056E+02 -0.48262997547E+01 -0.21580114448E+02  0.29357598724E+02  0.00000000000E+00 0.  1.
</event>
<event>
 8    1  0.2401680E-006  0.9118800E+02  0.7816164E-02  0.1184000E+00
        -11   -1    0    0    0    0  0.00000000000E+00  0.00000000000E+00  0.45593999997E+02  0.45594000000E+02  0.51100000000E-03 0. -1.
         11   -1    0    0    0    0 -0.00000000000E+00 -0.00000000000E+00 -0.45593999997E+02  0.45594000000E+02  0.51100000000E-03 0.  1.
         23    2    1    2    0    0  0.00000000000E+00  0.00000000000E+00  0.00000000000E+00  0.91188000000E+02  0.91188000000E+02 0.  0.
    9900012    2    3    3    0    0  0.18765022523E+02  0.18367374677E+02 -0.25812665460E+02  0.54367079031E+02  0.39999988268E+02 0.  0.
         12    1    3    3    0    0 -0.18765022523E+02 -0.18367374677E+02  0.25812665460E+02  0.36820920969E+02  0.00000000000E+00 0. -1.
         11    1    4    4    0    0 -0.28129118664E+01  0.17969847977E+02 -0.42355220600E+01  0.18675319458E+02  0.51100000000E-03 0. -1.
        -11    1    4    4    0    0  0.51032898524E+01  0.68402124560E+01 -0.14111254206E+02  0.16491196721E+02  0.51100000000E-03 0.  1.
         12    1    4    4    0    0  0.16474644537E+02 -0.64426857559E+01 -0.74658891940E+01  0.19200562852E+02  0.00000000000E+00 0. -1.
</event>
<event>
 8    1  0.2401680E-006  0.9118800E+02  0.7816164E-02  0.1184000E+00
        -11   -1    0    0    0    0  0.00000000000E+00  0.00000000000E+00  0.45593999997E+02  0.45594000000E+02  0.51100000000E-03 0. -1.
         11   -1    0    0    0    0 -0.00000000000E+00 -0.00000000000E+00 -0.45593999997E+02  0.45594000000E+02  0.51100000000E-03 0.  1.
         23    2    1    2    0    0  0.17763568394E-14  0.00000000000E+00  0.71054273576E-14  0.91188000000E+02  0.91188000000E+02 0.  0.
    9900012    2    3    3    0    0  0.80071259843E+01 -0.16101893581E+02  0.32130920199E+02  0.54367067418E+02  0.39999961793E+02 0.  0.
        -12    1    3    3    0    0 -0.80071259843E+01  0.16101893581E+02 -0.32130920199E+02  0.36820932582E+02  0.00000000000E+00 0.  1.
         11    1    4    4    0    0 -0.44802118885E+00 -0.12834733493E+02  0.12573392848E+02  0.17972793740E+02  0.51100000000E-03 0. -1.
        -11    1    4    4    0    0  0.11378741590E+02 -0.25242163424E+01 -0.42427759928E+01  0.12403571127E+02  0.51100000000E-03 0.  1.
        -12    1    4    4    0    0 -0.29235944164E+01 -0.74294374518E+00  0.23800303343E+02  0.23990702552E+02  0.00000000000E+00 0.  1.
</event>
<event>
 8    1  0.2401680E-006  0.9118800E+02  0.7816164E-02  0.1184000E+00
        -11   -1    0    0    0    0  0.00000000000E+00  0.00000000000E+00  0.45593999997E+02  0.45594000000E+02  0.51100000000E-03 0. -1.
         11   -1    0    0    0    0 -0.00000000000E+00 -0.00000000000E+00 -0.45593999997E+02  0.45594000000E+02  0.51100000000E-03 0.  1.
         23    2    1    2    0    0  0.00000000000E+00  0.00000000000E+00  0.00000000000E+00  0.91188000000E+02  0.91188000000E+02 0.  0.
    9900012    2    3    3    0    0  0.29014569009E+02 -0.13095537473E+02  0.18505143084E+02  0.54367100540E+02  0.40000037300E+02 0.  0.
        -12    1    3    3    0    0 -0.29014569009E+02  0.13095537473E+02 -0.18505143084E+02  0.36820899460E+02  0.00000000000E+00 0.  1.
         11    1    4    4    0    0  0.90573492445E+01  0.47330350988E+01  0.10724749342E+02  0.14814096169E+02  0.51100000000E-03 0. -1.
        -11    1    4    4    0    0  0.11102781062E+02  0.95688609927E+00  0.13981516696E+02  0.17879322909E+02  0.51100000000E-03 0.  1.
        -12    1    4    4    0    0  0.88544387026E+01 -0.18785458671E+02 -0.62011229535E+01  0.21673681462E+02  0.00000000000E+00 0.  1.
</event>
<event>
 8    1  0.2401680E-006  0.9118800E+02  0.7816164E-02  0.1184000E+00
        -11   -1    0    0    0    0  0.00000000000E+00  0.00000000000E+00  0.45593999997E+02  0.45594000000E+02  0.51100000000E-03 0.  1.
         11   -1    0    0    0    0 -0.00000000000E+00 -0.00000000000E+00 -0.45593999997E+02  0.45594000000E+02  0.51100000000E-03 0. -1.
         23    2    1    2    0    0  0.00000000000E+00  0.00000000000E+00  0.00000000000E+00  0.91188000000E+02  0.91188000000E+02 0.  0.
    9900012    2    3    3    0    0 -0.99792580026E+01  0.32840651349E+02  0.13329877625E+02  0.54367087345E+02  0.40000007220E+02 0.  0.
        -12    1    3    3    0    0  0.99792580026E+01 -0.32840651349E+02 -0.13329877625E+02  0.36820912655E+02  0.00000000000E+00 0.  1.
         11    1    4    4    0    0  0.18817464036E+01  0.26489520762E+02  0.16539746837E+02  0.31285762024E+02  0.51100000000E-03 0. -1.
        -11    1    4    4    0    0 -0.36333127211E+01 -0.32710867003E-01 -0.10006524532E+02  0.10645776853E+02  0.51100000000E-03 0.  1.
         12    1    4    4    0    0 -0.82276916851E+01  0.63838414535E+01  0.67966553196E+01  0.12435548468E+02  0.00000000000E+00 0. -1.
</event>
<event>
 8    1  0.2401680E-006  0.9118800E+02  0.7816164E-02  0.1184000E+00
        -11   -1    0    0    0    0  0.00000000000E+00  0.00000000000E+00  0.45593999997E+02  0.45594000000E+02  0.51100000000E-03 0.  1.
         11   -1    0    0    0    0 -0.00000000000E+00 -0.00000000000E+00 -0.45593999997E+02  0.45594000000E+02  0.51100000000E-03 0. -1.
         23    2    1    2    0    0  0.00000000000E+00  0.00000000000E+00  0.00000000000E+00  0.91188000000E+02  0.91188000000E+02 0.  0.
    9900012    2    3    3    0    0 -0.20962355287E+02  0.18388773699E+02  0.24046077734E+02  0.54367065850E+02  0.39999958218E+02 0.  0.
         12    1    3    3    0    0  0.20962355287E+02 -0.18388773699E+02 -0.24046077734E+02  0.36820934150E+02  0.00000000000E+00 0. -1.
         11    1    4    4    0    0  0.24937456980E+01 -0.41741674252E+01 -0.37428696894E+00  0.48767337733E+01  0.51100000000E-03 0. -1.
        -11    1    4    4    0    0 -0.25182557269E+02  0.16820531867E+02  0.70210722712E+01  0.31086764692E+02  0.51100000000E-03 0.  1.
        -12    1    4    4    0    0  0.17264562838E+01  0.57424092567E+01  0.17399292431E+02  0.18403567385E+02  0.00000000000E+00 0.  1.
</event>
<event>
 8    1  0.2401680E-006  0.9118800E+02  0.7816164E-02  0.1184000E+00
        -11   -1    0    0    0    0  0.00000000000E+00  0.00000000000E+00  0.45593999997E+02  0.45594000000E+02  0.51100000000E-03 0. -1.
         11   -1    0    0    0    0 -0.00000000000E+00 -0.00000000000E+00 -0.45593999997E+02  0.45594000000E+02  0.51100000000E-03 0.  1.
         23    2    1    2    0    0  0.00000000000E+00  0.83266726847E-16 -0.35527136788E-14  0.91188000000E+02  0.91188000000E+02 0.  0.
    9900012    2    3    3    0    0  0.28144134094E+02 -0.17775223936E+00 -0.23741440533E+02  0.54367083684E+02  0.39999998874E+02 0.  0.
         12    1    3    3    0    0 -0.28144134094E+02  0.17775223936E+00  0.23741440533E+02  0.36820916316E+02  0.00000000000E+00 0. -1.
         11    1    4    4    0    0  0.45153108225E+01 -0.11222227977E+02  0.44328049349E+01  0.12883174781E+02  0.51100000000E-03 0. -1.
        -11    1    4    4    0    0  0.11549317541E+02  0.86890983619E+01 -0.24830947305E+02  0.28730873818E+02  0.51100000000E-03 0.  1.
         12    1    4    4    0    0  0.12079505731E+02  0.23553773754E+01 -0.33432981625E+01  0.12753035085E+02  0.00000000000E+00 0. -1.
</event>
<event>
 8    1  0.2401680E-006  0.9118800E+02  0.7816164E-02  0.1184000E+00
        -11   -1    0    0    0    0  0.00000000000E+00  0.00000000000E+00  0.45593999997E+02  0.45594000000E+02  0.51100000000E-03 0.  1.
         11   -1    0    0    0    0 -0.00000000000E+00 -0.00000000000E+00 -0.45593999997E+02  0.45594000000E+02  0.51100000000E-03 0. -1.
         23    2    1    2    0    0  0.00000000000E+00  0.00000000000E+00  0.00000000000E+00  0.91188000000E+02  0.91188000000E+02 0.  0.
    9900012    2    3    3    0    0  0.32663272249E+02  0.15625797363E+02  0.66878195129E+01  0.54367057222E+02  0.39999938549E+02 0.  0.
        -12    1    3    3    0    0 -0.32663272249E+02 -0.15625797363E+02 -0.66878195129E+01  0.36820942778E+02  0.00000000000E+00 0.  1.
         11    1    4    4    0    0  0.25327274993E+02  0.73759242877E+01 -0.59174773448E+00  0.26386081242E+02  0.51100000000E-03 0. -1.
        -11    1    4    4    0    0  0.52920956352E+01 -0.64080629180E+01 -0.41426459953E+01  0.92860682033E+01  0.51100000000E-03 0.  1.
         12    1    4    4    0    0  0.20439016206E+01  0.14657935993E+02  0.11422213243E+02  0.18694907777E+02  0.00000000000E+00 0. -1.
</event>
<event>
 8    1  0.2401680E-006  0.9118800E+02  0.7816164E-02  0.1184000E+00
        -11   -1    0    0    0    0  0.00000000000E+00  0.00000000000E+00  0.45593999997E+02  0.45594000000E+02  0.51100000000E-03 0.  1.
         11   -1    0    0    0    0 -0.00000000000E+00 -0.00000000000E+00 -0.45593999997E+02  0.45594000000E+02  0.51100000000E-03 0. -1.
         23    2    1    2    0    0  0.00000000000E+00 -0.11102230246E-14  0.00000000000E+00  0.91188000000E+02  0.91188000000E+02 0.  0.
    9900012    2    3    3    0    0  0.35034795632E+02  0.10170851671E+01  0.11283157348E+02  0.54367068358E+02  0.39999963937E+02 0.  0.
         12    1    3    3    0    0 -0.35034795632E+02 -0.10170851671E+01 -0.11283157348E+02  0.36820931642E+02  0.00000000000E+00 0. -1.
         11    1    4    4    0    0  0.60102507245E+00  0.32351646427E+01  0.40270053485E+01  0.52004128434E+01  0.51100000000E-03 0. -1.
        -11    1    4    4    0    0  0.20921575049E+02  0.93837709387E+01  0.17296612489E+02  0.28721773334E+02  0.51100000000E-03 0.  1.
         12    1    4    4    0    0  0.13512195511E+02 -0.11601850414E+02 -0.10040460490E+02  0.20444882181E+02  0.00000000000E+00 0. -1.
</event>
<event>
 8    1  0.2401680E-006  0.9118800E+02  0.7816164E-02  0.1184000E+00
        -11   -1    0    0    0    0  0.00000000000E+00  0.00000000000E+00  0.45593999997E+02  0.45594000000E+02  0.51100000000E-03 0. -1.
         11   -1    0    0    0    0 -0.00000000000E+00 -0.00000000000E+00 -0.45593999997E+02  0.45594000000E+02  0.51100000000E-03 0.  1.
         23    2    1    2    0    0  0.00000000000E+00  0.00000000000E+00  0.00000000000E+00  0.91188000000E+02  0.91188000000E+02 0.  0.
    9900012    2    3    3    0    0  0.35775566174E+02  0.41591268534E+01 -0.76544061248E+01  0.54367090120E+02  0.40000013548E+02 0.  0.
         12    1    3    3    0    0 -0.35775566174E+02 -0.41591268534E+01  0.76544061248E+01  0.36820909880E+02  0.00000000000E+00 0. -1.
         11    1    4    4    0    0  0.14424598563E+01  0.10531153417E+02 -0.92801129263E+01  0.14110505977E+02  0.51100000000E-03 0. -1.
        -11    1    4    4    0    0  0.30573090331E+02  0.73804565016E-01 -0.41051986190E+01  0.30847559959E+02  0.51100000000E-03 0.  1.
        -12    1    4    4    0    0  0.37600159866E+01 -0.64458311288E+01  0.57309054204E+01  0.94090241842E+01  0.00000000000E+00 0.  1.
</event>
<event>
 8    1  0.2401680E-006  0.9118800E+02  0.7816164E-02  0.1184000E+00
        -11   -1    0    0    0    0  0.00000000000E+00  0.00000000000E+00  0.45593999997E+02  0.45594000000E+02  0.51100000000E-03 0. -1.
         11   -1    0    0    0    0 -0.00000000000E+00 -0.00000000000E+00 -0.45593999997E+02  0.45594000000E+02  0.51100000000E-03 0.  1.
         23    2    1    2    0    0  0.00000000000E+00  0.35527136788E-14 -0.88817841970E-15  0.91188000000E+02  0.91188000000E+02 0.  0.
    9900012    2    3    3    0    0  0.34438070014E+02 -0.12482337253E+02  0.37404819230E+01  0.54367073686E+02  0.39999976082E+02 0.  0.
        -12    1    3    3    0    0 -0.34438070014E+02  0.12482337253E+02 -0.37404819230E+01  0.36820926314E+02  0.00000000000E+00 0.  1.
         11    1    4    4    0    0  0.28921989457E+01 -0.16752608185E+02  0.51924312322E+01  0.17775714841E+02  0.51100000000E-03 0. -1.
        -11    1    4    4    0    0 -0.13910976561E+01 -0.10152081600E+01 -0.27081636112E+01  0.32093536270E+01  0.51100000000E-03 0.  1.
        -12    1    4    4    0    0  0.32936968725E+02  0.52854790921E+01  0.12562143020E+01  0.33382005218E+02  0.00000000000E+00 0.  1.
</event>
<event>
 8    1  0.2401680E-006  0.9118800E+02  0.7816164E-02  0.1184000E+00
        -11   -1    0    0    0    0  0.00000000000E+00  0.00000000000E+00  0.45593999997E+02  0.45594000000E+02  0.51100000000E-03 0. -1.
         11   -1    0    0    0    0 -0.00000000000E+00 -0.00000000000E+00 -0.45593999997E+02  0.45594000000E+02  0.51100000000E-03 0.  1.
         23    2    1    2    0    0  0.00000000000E+00  0.00000000000E+00 -0.17763568394E-14  0.91188000000E+02  0.91188000000E+02 0.  0.
    9900012    2    3    3    0    0 -0.33968008801E+02  0.32349587643E+01  0.13837989097E+02  0.54367074939E+02  0.39999978939E+02 0.  0.
        -12    1    3    3    0    0  0.33968008801E+02 -0.32349587643E+01 -0.13837989097E+02  0.36820925061E+02  0.00000000000E+00 0.  1.
         11    1    4    4    0    0 -0.17256136685E+02  0.67080010266E+01  0.11922294061E+02  0.22020731754E+02  0.51100000000E-03 0. -1.
        -11    1    4    4    0    0 -0.19030455036E+02 -0.87579486597E+01  0.93450481758E+01  0.22938827548E+02  0.51100000000E-03 0.  1.
         12    1    4    4    0    0  0.23185829207E+01  0.52849063973E+01 -0.74293531392E+01  0.94075156368E+01  0.00000000000E+00 0. -1.
</event>
<event>
 8    1  0.2401680E-006  0.9118800E+02  0.7816164E-02  0.1184000E+00
        -11   -1    0    0    0    0  0.00000000000E+00  0.00000000000E+00  0.45593999997E+02  0.45594000000E+02  0.51100000000E-03 0.  1.
         11   -1    0    0    0    0 -0.00000000000E+00 -0.00000000000E+00 -0.45593999997E+02  0.45594000000E+02  0.51100000000E-03 0. -1.
         23    2    1    2    0    0  0.71054273576E-14  0.00000000000E+00  0.00000000000E+00  0.91188000000E+02  0.91188000000E+02 0.  0.
    9900012    2    3    3    0    0 -0.34167356022E+02  0.87801874596E+00  0.13696731982E+02  0.54367087445E+02  0.40000007448E+02 0.  0.
         12    1    3    3    0    0  0.34167356022E+02 -0.87801874596E+00 -0.13696731982E+02  0.36820912555E+02  0.00000000000E+00 0. -1.
         11    1    4    4    0    0  0.39683841378E+01 -0.44200929796E+01  0.54656670015E+01  0.80721007579E+01  0.51100000000E-03 0. -1.
        -11    1    4    4    0    0 -0.26904429866E+02 -0.24394346939E+01  0.15180564714E+02  0.30987880427E+02  0.51100000000E-03 0.  1.
        -12    1    4    4    0    0 -0.11231310293E+02  0.77375464195E+01 -0.69494997344E+01  0.15307106260E+02  0.00000000000E+00 0.  1.
</event>
<event>
 8    1  0.2401680E-006  0.9118800E+02  0.7816164E-02  0.1184000E+00
        -11   -1    0    0    0    0  0.00000000000E+00  0.00000000000E+00  0.45593999997E+02  0.45594000000E+02  0.51100000000E-03 0. -1.
         11   -1    0    0    0    0 -0.00000000000E+00 -0.00000000000E+00 -0.45593999997E+02  0.45594000000E+02  0.51100000000E-03 0.  1.
         23    2    1    2    0    0 -0.35527136788E-14  0.00000000000E+00 -0.35527136788E-14  0.91188000000E+02  0.91188000000E+02 0.  0.
    9900012    2    3    3    0    0  0.15169125088E+02  0.10900778120E+02  0.31730909526E+02  0.54367082862E+02  0.39999996999E+02 0.  0.
        -12    1    3    3    0    0 -0.15169125088E+02 -0.10900778120E+02 -0.31730909526E+02  0.36820917138E+02  0.00000000000E+00 0.  1.
         11    1    4    4    0    0  0.17646113760E+02  0.11271191788E+02  0.27075515171E+02  0.34227308063E+02  0.51100000000E-03 0. -1.
        -11    1    4    4    0    0  0.43606160774E+01  0.33436568892E+01  0.94992338291E+01  0.10974081172E+02  0.51100000000E-03 0.  1.
        -12    1    4    4    0    0 -0.68376047495E+01 -0.37140705563E+01 -0.48438394746E+01  0.91656936269E+01  0.00000000000E+00 0.  1.
</event>
<event>
 8    1  0.2401680E-006  0.9118800E+02  0.7816164E-02  0.1184000E+00
        -11   -1    0    0    0    0  0.00000000000E+00  0.00000000000E+00  0.45593999997E+02  0.45594000000E+02  0.51100000000E-03 0.  1.
         11   -1    0    0    0    0 -0.00000000000E+00 -0.00000000000E+00 -0.45593999997E+02  0.45594000000E+02  0.51100000000E-03 0. -1.
         23    2    1    2    0    0  0.00000000000E+00 -0.35527136788E-14 -0.35527136788E-14  0.91188000000E+02  0.91188000000E+02 0.  0.
    9900012    2    3    3    0    0 -0.21612238750E+02  0.18111779168E+02  0.23678147240E+02  0.54367081147E+02  0.39999993091E+02 0.  0.
         12    1    3    3    0    0  0.21612238750E+02 -0.18111779168E+02 -0.23678147240E+02  0.36820918853E+02  0.00000000000E+00 0. -1.
         11    1    4    4    0    0  0.46648977138E+01 -0.81147347212E+01  0.11058666827E+02  0.14488074493E+02  0.51100000000E-03 0.  1.
        -11    1    4    4    0    0 -0.10865702859E+02  0.63866638574E+01  0.28355700642E+01  0.12918724074E+02  0.51100000000E-03 0. -1.
        -12    1    4    4    0    0 -0.15411433606E+02  0.19839850032E+02  0.97839103496E+01  0.26960282580E+02  0.00000000000E+00 0.  1.
</event>
<event>
 8    1  0.2401680E-006  0.9118800E+02  0.7816164E-02  0.1184000E+00
        -11   -1    0    0    0    0  0.00000000000E+00  0.00000000000E+00  0.45593999997E+02  0.45594000000E+02  0.51100000000E-03 0.  1.
         11   -1    0    0    0    0 -0.00000000000E+00 -0.00000000000E+00 -0.45593999997E+02  0.45594000000E+02  0.51100000000E-03 0. -1.
         23    2    1    2    0    0  0.00000000000E+00 -0.71054273576E-14 -0.88817841970E-15  0.91188000000E+02  0.91188000000E+02 0.  0.
    9900012    2    3    3    0    0 -0.10177923414E+02  0.34488721718E+02 -0.79194296416E+01  0.54367089955E+02  0.40000013169E+02 0.  0.
         12    1    3    3    0    0  0.10177923414E+02 -0.34488721718E+02  0.79194296416E+01  0.36820910045E+02  0.00000000000E+00 0. -1.
         11    1    4    4    0    0 -0.12322979704E+02  0.79321000532E+01  0.88635536952E+01  0.17127072850E+02  0.51100000000E-03 0. -1.
        -11    1    4    4    0    0 -0.22778912359E+01 -0.20775595588E+01  0.10037074572E+01  0.32422941143E+01  0.51100000000E-03 0.  1.
         12    1    4    4    0    0  0.44229475257E+01  0.28634181223E+02 -0.17786690794E+02  0.33997722990E+02  0.00000000000E+00 0. -1.
</event>
<event>
 8    1  0.2401680E-006  0.9118800E+02  0.7816164E-02  0.1184000E+00
        -11   -1    0    0    0    0  0.00000000000E+00  0.00000000000E+00  0.45593999997E+02  0.45594000000E+02  0.51100000000E-03 0.  1.
         11   -1    0    0    0    0 -0.00000000000E+00 -0.00000000000E+00 -0.45593999997E+02  0.45594000000E+02  0.51100000000E-03 0. -1.
         23    2    1    2    0    0 -0.17763568394E-14  0.71054273576E-14 -0.88817841970E-15  0.91188000000E+02  0.91188000000E+02 0.  0.
    9900012    2    3    3    0    0  0.10829438943E+02 -0.35072121553E+02  0.29069033482E+01  0.54367074630E+02  0.39999978233E+02 0.  0.
        -12    1    3    3    0    0 -0.10829438943E+02  0.35072121553E+02 -0.29069033482E+01  0.36820925370E+02  0.00000000000E+00 0.  1.
         11    1    4    4    0    0 -0.13050600841E+02 -0.20630842354E+02  0.47902760401E+01  0.24877632189E+02  0.51100000000E-03 0. -1.
        -11    1    4    4    0    0  0.11777191818E+01 -0.18427958851E+01 -0.27470732566E+01  0.35113146944E+01  0.51100000000E-03 0.  1.
        -12    1    4    4    0    0  0.22702320602E+02 -0.12598483314E+02  0.86370056463E+00  0.25978127746E+02  0.00000000000E+00 0.  1.
</event>
<event>
 8    1  0.2401680E-006  0.9118800E+02  0.7816164E-02  0.1184000E+00
        -11   -1    0    0    0    0  0.00000000000E+00  0.00000000000E+00  0.45593999997E+02  0.45594000000E+02  0.51100000000E-03 0.  1.
         11   -1    0    0    0    0 -0.00000000000E+00 -0.00000000000E+00 -0.45593999997E+02  0.45594000000E+02  0.51100000000E-03 0. -1.
         23    2    1    2    0    0 -0.27755575616E-15  0.00000000000E+00  0.00000000000E+00  0.91188000000E+02  0.91188000000E+02 0.  0.
    9900012    2    3    3    0    0 -0.35923549957E+00 -0.29926471597E+01 -0.36697547038E+02  0.54366879081E+02  0.39999532437E+02 0.  0.
        -12    1    3    3    0    0  0.35923549957E+00  0.29926471597E+01  0.36697547038E+02  0.36821120919E+02  0.00000000000E+00 0.  1.
         11    1    4    4    0    0 -0.20000673491E+01 -0.67314151926E+01 -0.43034324523E+02  0.43603501090E+02  0.51100000000E-03 0. -1.
        -11    1    4    4    0    0 -0.76888526016E-01  0.10685471614E+01  0.73522854743E+01  0.74299264356E+01  0.51100000000E-03 0.  1.
         12    1    4    4    0    0  0.17177203756E+01  0.26702208716E+01 -0.10155079890E+01  0.33334515547E+01  0.00000000000E+00 0. -1.
</event>
<event>
 8    1  0.2401680E-006  0.9118800E+02  0.7816164E-02  0.1184000E+00
        -11   -1    0    0    0    0  0.00000000000E+00  0.00000000000E+00  0.45593999997E+02  0.45594000000E+02  0.51100000000E-03 0.  1.
         11   -1    0    0    0    0 -0.00000000000E+00 -0.00000000000E+00 -0.45593999997E+02  0.45594000000E+02  0.51100000000E-03 0. -1.
         23    2    1    2    0    0  0.17763568394E-14  0.00000000000E+00 -0.71054273576E-14  0.91188000000E+02  0.91188000000E+02 0.  0.
    9900012    2    3    3    0    0  0.53219133422E+01  0.16495018699E+02  0.32486494616E+02  0.54367072039E+02  0.39999972327E+02 0.  0.
         12    1    3    3    0    0 -0.53219133422E+01 -0.16495018699E+02 -0.32486494616E+02  0.36820927961E+02  0.00000000000E+00 0. -1.
         11    1    4    4    0    0  0.34835189775E+01  0.10300124249E+02 -0.35223871303E+00  0.10878949232E+02  0.51100000000E-03 0. -1.
        -11    1    4    4    0    0 -0.49593955832E+01  0.12978746784E+02  0.62818767860E+01  0.15248129356E+02  0.51100000000E-03 0.  1.
        -12    1    4    4    0    0  0.67977899479E+01 -0.67838523348E+01  0.26556856543E+02  0.28239993451E+02  0.00000000000E+00 0.  1.
</event>
<event>
 8    1  0.2401680E-006  0.9118800E+02  0.7816164E-02  0.1184000E+00
        -11   -1    0    0    0    0  0.00000000000E+00  0.00000000000E+00  0.45593999997E+02  0.45594000000E+02  0.51100000000E-03 0.  1.
         11   -1    0    0    0    0 -0.00000000000E+00 -0.00000000000E+00 -0.45593999997E+02  0.45594000000E+02  0.51100000000E-03 0. -1.
         23    2    1    2    0    0 -0.17763568394E-14  0.35527136788E-14  0.00000000000E+00  0.91188000000E+02  0.91188000000E+02 0.  0.
    9900012    2    3    3    0    0 -0.80485202099E+01 -0.49047257667E+01  0.35594166783E+02  0.54367085815E+02  0.40000003733E+02 0.  0.
         12    1    3    3    0    0  0.80485202099E+01  0.49047257667E+01 -0.35594166783E+02  0.36820914185E+02  0.00000000000E+00 0. -1.
         11    1    4    4    0    0 -0.15481784419E+02  0.13525845077E+02  0.21078579853E+02  0.29443856112E+02  0.51100000000E-03 0. -1.
        -11    1    4    4    0    0  0.21550568156E+01 -0.10222399291E+02  0.84130950468E+01  0.13413496400E+02  0.51100000000E-03 0.  1.
         12    1    4    4    0    0  0.52782073940E+01 -0.82081715527E+01  0.61024918833E+01  0.11509733303E+02  0.00000000000E+00 0. -1.
</event>
<event>
 8    1  0.2401680E-006  0.9118800E+02  0.7816164E-02  0.1184000E+00
        -11   -1    0    0    0    0  0.00000000000E+00  0.00000000000E+00  0.45593999997E+02  0.45594000000E+02  0.51100000000E-03 0.  1.
         11   -1    0    0    0    0 -0.00000000000E+00 -0.00000000000E+00 -0.45593999997E+02  0.45594000000E+02  0.51100000000E-03 0. -1.
         23    2    1    2    0    0  0.35527136788E-14 -0.35527136788E-14 -0.35527136788E-14  0.91188000000E+02  0.91188000000E+02 0.  0.
    9900012    2    3    3    0    0  0.16098846236E+02 -0.23393086025E+02 -0.23438707079E+02  0.54367050617E+02  0.39999923491E+02 0.  0.
        -12    1    3    3    0    0 -0.16098846236E+02  0.23393086025E+02  0.23438707079E+02  0.36820949383E+02  0.00000000000E+00 0.  1.
         11    1    4    4    0    0  0.16913315676E+02  0.36386784317E+01 -0.12741761236E+02  0.21486104988E+02  0.51100000000E-03 0. -1.
        -11    1    4    4    0    0  0.11186022156E+01 -0.24868911480E+00  0.26551013785E+01  0.28918300060E+01  0.51100000000E-03 0.  1.
        -12    1    4    4    0    0 -0.19330716558E+01 -0.26783075342E+02 -0.13352047222E+02  0.29989115623E+02  0.00000000000E+00 0.  1.
</event>
<event>
 8    1  0.2401680E-006  0.9118800E+02  0.7816164E-02  0.1184000E+00
        -11   -1    0    0    0    0  0.00000000000E+00  0.00000000000E+00  0.45593999997E+02  0.45594000000E+02  0.51100000000E-03 0.  1.
         11   -1    0    0    0    0 -0.00000000000E+00 -0.00000000000E+00 -0.45593999997E+02  0.45594000000E+02  0.51100000000E-03 0. -1.
         23    2    1    2    0    0  0.00000000000E+00  0.35527136788E-14 -0.35527136788E-14  0.91188000000E+02  0.91188000000E+02 0.  0.
    9900012    2    3    3    0    0 -0.21795801640E+02 -0.26663367338E+02  0.13030276596E+02  0.54367078840E+02  0.39999987831E+02 0.  0.
         12    1    3    3    0    0  0.21795801640E+02  0.26663367338E+02 -0.13030276596E+02  0.36820921160E+02  0.00000000000E+00 0. -1.
         11    1    4    4    0    0 -0.24849807302E+01 -0.16728474872E+02 -0.10450950087E+02  0.19880627725E+02  0.51100000000E-03 0. -1.
        -11    1    4    4    0    0 -0.45827450269E+01  0.27658959462E+01  0.80162267269E+01  0.96390675672E+01  0.51100000000E-03 0.  1.
         12    1    4    4    0    0 -0.14728075882E+02 -0.12700788413E+02  0.15464999956E+02  0.24847383547E+02  0.00000000000E+00 0. -1.
</event>
<event>
 8    1  0.2401680E-006  0.9118800E+02  0.7816164E-02  0.1184000E+00
        -11   -1    0    0    0    0  0.00000000000E+00  0.00000000000E+00  0.45593999997E+02  0.45594000000E+02  0.51100000000E-03 0.  1.
         11   -1    0    0    0    0 -0.00000000000E+00 -0.00000000000E+00 -0.45593999997E+02  0.45594000000E+02  0.51100000000E-03 0. -1.
         23    2    1    2    0    0 -0.35527136788E-14  0.00000000000E+00 -0.35527136788E-14  0.91188000000E+02  0.91188000000E+02 0.  0.
    9900012    2    3    3    0    0  0.27051564027E+02  0.17506807583E+02  0.17818663663E+02  0.54367079278E+02  0.39999988830E+02 0.  0.
         12    1    3    3    0    0 -0.27051564027E+02 -0.17506807583E+02 -0.17818663663E+02  0.36820920722E+02  0.00000000000E+00 0. -1.
         11    1    4    4    0    0  0.10325329098E+02 -0.17702678257E+01  0.14674960835E+02  0.18030550322E+02  0.51100000000E-03 0. -1.
        -11    1    4    4    0    0  0.89287788680E+01  0.67892732212E+01  0.14076345556E+02  0.17998911840E+02  0.51100000000E-03 0.  1.
         12    1    4    4    0    0  0.77974560609E+01  0.12487802188E+02 -0.10932642727E+02  0.18337617116E+02  0.00000000000E+00 0. -1.
</event>
<event>
 8    1  0.2401680E-006  0.9118800E+02  0.7816164E-02  0.1184000E+00
        -11   -1    0    0    0    0  0.00000000000E+00  0.00000000000E+00  0.45593999997E+02  0.45594000000E+02  0.51100000000E-03 0.  1.
         11   -1    0    0    0    0 -0.00000000000E+00 -0.00000000000E+00 -0.45593999997E+02  0.45594000000E+02  0.51100000000E-03 0. -1.
         23    2    1    2    0    0  0.00000000000E+00  0.00000000000E+00 -0.35527136788E-14  0.91188000000E+02  0.91188000000E+02 0.  0.
    9900012    2    3    3    0    0  0.59930259256E+01 -0.31508855615E+02 -0.18084670513E+02  0.54367086792E+02  0.40000005959E+02 0.  0.
        -12    1    3    3    0    0 -0.59930259256E+01  0.31508855615E+02  0.18084670513E+02  0.36820913208E+02  0.00000000000E+00 0.  1.
         11    1    4    4    0    0  0.72212434019E+01 -0.62595172133E+01  0.10328796651E+00  0.95571219872E+01  0.51100000000E-03 0. -1.
        -11    1    4    4    0    0 -0.71839163331E+01 -0.27440049558E+02 -0.23263101957E+02  0.36684286644E+02  0.51100000000E-03 0.  1.
        -12    1    4    4    0    0  0.59556988567E+01  0.21907111564E+01  0.50751434779E+01  0.81256781602E+01  0.00000000000E+00 0.  1.
</event>
<event>
 8    1  0.2401680E-006  0.9118800E+02  0.7816164E-02  0.1184000E+00
        -11   -1    0    0    0    0  0.00000000000E+00  0.00000000000E+00  0.45593999997E+02  0.45594000000E+02  0.51100000000E-03 0.  1.
         11   -1    0    0    0    0 -0.00000000000E+00 -0.00000000000E+00 -0.45593999997E+02  0.45594000000E+02  0.51100000000E-03 0. -1.
         23    2    1    2    0    0  0.88817841970E-15  0.00000000000E+00  0.00000000000E+00  0.91188000000E+02  0.91188000000E+02 0.  0.
    9900012    2    3    3    0    0  0.53021609416E+01 -0.31836915264E+02 -0.17722233384E+02  0.54367086917E+02  0.40000006244E+02 0.  0.
         12    1    3    3    0    0 -0.53021609416E+01  0.31836915264E+02  0.17722233384E+02  0.36820913083E+02  0.00000000000E+00 0. -1.
         11    1    4    4    0    0  0.54679491163E+01 -0.50665284604E+01 -0.22849531796E+02  0.24034751543E+02  0.51100000000E-03 0. -1.
        -11    1    4    4    0    0  0.39161460299E+01 -0.21383373518E+02 -0.17840044635E+00  0.21739749072E+02  0.51100000000E-03 0.  1.
        -12    1    4    4    0    0 -0.40819342047E+01 -0.53870132857E+01  0.53056988575E+01  0.85925863021E+01  0.00000000000E+00 0.  1.
</event>
<event>
 8    1  0.2401680E-006  0.9118800E+02  0.7816164E-02  0.1184000E+00
        -11   -1    0    0    0    0  0.00000000000E+00  0.00000000000E+00  0.45593999997E+02  0.45594000000E+02  0.51100000000E-03 0.  1.
         11   -1    0    0    0    0 -0.00000000000E+00 -0.00000000000E+00 -0.45593999997E+02  0.45594000000E+02  0.51100000000E-03 0. -1.
         23    2    1    2    0    0  0.35527136788E-14 -0.44408920985E-15 -0.35527136788E-14  0.91188000000E+02  0.91188000000E+02 0.  0.
    9900012    2    3    3    0    0 -0.25014528824E+02 -0.22752779095E+01 -0.26923527613E+02  0.54367083648E+02  0.39999998792E+02 0.  0.
        -12    1    3    3    0    0  0.25014528824E+02  0.22752779095E+01  0.26923527613E+02  0.36820916352E+02  0.00000000000E+00 0.  1.
         11    1    4    4    0    0 -0.24515281672E+01  0.67675212209E+01 -0.18714112096E+02  0.20050619084E+02  0.51100000000E-03 0. -1.
        -11    1    4    4    0    0  0.40516807753E+01 -0.13120643464E+01 -0.47612842494E+01  0.63880715337E+01  0.51100000000E-03 0.  1.
        -12    1    4    4    0    0 -0.26614681432E+02 -0.77307347840E+01 -0.34481312677E+01  0.27928393031E+02  0.00000000000E+00 0.  1.
</event>
<event>
 8    1  0.2401680E-006  0.9118800E+02  0.7816164E-02  0.1184000E+00
        -11   -1    0    0    0    0  0.00000000000E+00  0.00000000000E+00  0.45593999997E+02  0.45594000000E+02  0.51100000000E-03 0. -1.
         11   -1    0    0    0    0 -0.00000000000E+00 -0.00000000000E+00 -0.45593999997E+02  0.45594000000E+02  0.51100000000E-03 0.  1.
         23    2    1    2    0    0 -0.17763568394E-14  0.35527136788E-14  0.71054273576E-14  0.91188000000E+02  0.91188000000E+02 0.  0.
    9900012    2    3    3    0    0 -0.10716241094E+02 -0.11984699450E+02 -0.33125645911E+02  0.54367092065E+02  0.40000017981E+02 0.  0.
         12    1    3    3    0    0  0.10716241094E+02  0.11984699450E+02  0.33125645911E+02  0.36820907935E+02  0.00000000000E+00 0. -1.
         11    1    4    4    0    0 -0.19265153125E+02  0.51724920194E+01 -0.65432552232E+01  0.20993212898E+02  0.51100000000E-03 0. -1.
        -11    1    4    4    0    0  0.41197438854E+01 -0.14167922706E+02 -0.18146066555E+02  0.23387647491E+02  0.51100000000E-03 0.  1.
         12    1    4    4    0    0  0.44291681457E+01 -0.29892687636E+01 -0.84363241335E+01  0.99862316762E+01  0.00000000000E+00 0. -1.
</event>
<event>
 8    1  0.2401680E-006  0.9118800E+02  0.7816164E-02  0.1184000E+00
        -11   -1    0    0    0    0  0.00000000000E+00  0.00000000000E+00  0.45593999997E+02  0.45594000000E+02  0.51100000000E-03 0.  1.
         11   -1    0    0    0    0 -0.00000000000E+00 -0.00000000000E+00 -0.45593999997E+02  0.45594000000E+02  0.51100000000E-03 0. -1.
         23    2    1    2    0    0  0.17763568394E-14 -0.35527136788E-14 -0.71054273576E-14  0.91188000000E+02  0.91188000000E+02 0.  0.
    9900012    2    3    3    0    0 -0.15274497306E+02  0.12077299127E+02  0.31250735477E+02  0.54367083526E+02  0.39999998513E+02 0.  0.
         12    1    3    3    0    0  0.15274497306E+02 -0.12077299127E+02 -0.31250735477E+02  0.36820916474E+02  0.00000000000E+00 0. -1.
         11    1    4    4    0    0  0.28267610376E+01 -0.88500584417E+01  0.11220737361E+02  0.14567740373E+02  0.51100000000E-03 0. -1.
        -11    1    4    4    0    0 -0.19017433096E+02  0.10723262350E+02  0.19918938397E+02  0.29553599174E+02  0.51100000000E-03 0.  1.
         12    1    4    4    0    0  0.91617475217E+00  0.10204095219E+02  0.11105971836E+00  0.10245743979E+02  0.00000000000E+00 0. -1.
</event>
<event>
 8    1  0.2401680E-006  0.9118800E+02  0.7816164E-02  0.1184000E+00
        -11   -1    0    0    0    0  0.00000000000E+00  0.00000000000E+00  0.45593999997E+02  0.45594000000E+02  0.51100000000E-03 0.  1.
         11   -1    0    0    0    0 -0.00000000000E+00 -0.00000000000E+00 -0.45593999997E+02  0.45594000000E+02  0.51100000000E-03 0. -1.
         23    2    1    2    0    0  0.88817841970E-15  0.17763568394E-14  0.00000000000E+00  0.91188000000E+02  0.91188000000E+02 0.  0.
    9900012    2    3    3    0    0  0.73628118669E+01 -0.12615452490E+02 -0.33799682324E+02  0.54367093367E+02  0.40000020949E+02 0.  0.
        -12    1    3    3    0    0 -0.73628118669E+01  0.12615452490E+02  0.33799682324E+02  0.36820906633E+02  0.00000000000E+00 0.  1.
         11    1    4    4    0    0  0.89741534391E+01  0.88982629619E+00 -0.18961705549E+02  0.20996987841E+02  0.51100000000E-03 0. -1.
        -11    1    4    4    0    0  0.94957595556E+01 -0.25016624610E+01  0.23888624302E+01  0.10106157953E+02  0.51100000000E-03 0.  1.
         12    1    4    4    0    0 -0.11107101128E+02 -0.11003616325E+02 -0.17226839205E+02  0.23263947573E+02  0.00000000000E+00 0. -1.
</event>
<event>
 8    1  0.2401680E-006  0.9118800E+02  0.7816164E-02  0.1184000E+00
        -11   -1    0    0    0    0  0.00000000000E+00  0.00000000000E+00  0.45593999997E+02  0.45594000000E+02  0.51100000000E-03 0.  1.
         11   -1    0    0    0    0 -0.00000000000E+00 -0.00000000000E+00 -0.45593999997E+02  0.45594000000E+02  0.51100000000E-03 0. -1.
         23    2    1    2    0    0  0.00000000000E+00  0.22204460493E-15  0.00000000000E+00  0.91188000000E+02  0.91188000000E+02 0.  0.
    9900012    2    3    3    0    0  0.18113358329E+02  0.52483973466E+00 -0.32053214871E+02  0.54367112038E+02  0.40000063514E+02 0.  0.
        -12    1    3    3    0    0 -0.18113358329E+02 -0.52483973466E+00  0.32053214871E+02  0.36820887962E+02  0.00000000000E+00 0.  1.
         11    1    4    4    0    0  0.85314879685E+01 -0.12180261958E+02 -0.32860710482E+01  0.15229685864E+02  0.51100000000E-03 0. -1.
        -11    1    4    4    0    0  0.11771816416E+02  0.17267289632E+02 -0.19522439974E+02  0.28598262461E+02  0.51100000000E-03 0.  1.
        -12    1    4    4    0    0 -0.21899460552E+01 -0.45621879393E+01 -0.92447038486E+01  0.10539163713E+02  0.00000000000E+00 0.  1.
</event>
<event>
 8    1  0.2401680E-006  0.9118800E+02  0.7816164E-02  0.1184000E+00
        -11   -1    0    0    0    0  0.00000000000E+00  0.00000000000E+00  0.45593999997E+02  0.45594000000E+02  0.51100000000E-03 0.  1.
         11   -1    0    0    0    0 -0.00000000000E+00 -0.00000000000E+00 -0.45593999997E+02  0.45594000000E+02  0.51100000000E-03 0. -1.
         23    2    1    2    0    0  0.00000000000E+00  0.00000000000E+00  0.00000000000E+00  0.91188000000E+02  0.91188000000E+02 0.  0.
    9900012    2    3    3    0    0  0.85201622750E+01  0.14176576044E+02 -0.32896998299E+02  0.54367068852E+02  0.39999965062E+02 0.  0.
        -12    1    3    3    0    0 -0.85201622750E+01 -0.14176576044E+02  0.32896998299E+02  0.36820931148E+02  0.00000000000E+00 0.  1.
         11    1    4    4    0    0  0.13353555238E+02  0.77812036350E+01 -0.23999351015E+02  0.28545287122E+02  0.51100000000E-03 0. -1.
        -11    1    4    4    0    0 -0.40639043798E+01  0.13298036492E+02  0.76014381234E+00  0.13925907950E+02  0.51100000000E-03 0.  1.
         12    1    4    4    0    0 -0.76948858340E+00 -0.69026640830E+01 -0.96577910965E+01  0.11895873780E+02  0.00000000000E+00 0. -1.
</event>
<event>
 8    1  0.2401680E-006  0.9118800E+02  0.7816164E-02  0.1184000E+00
        -11   -1    0    0    0    0  0.00000000000E+00  0.00000000000E+00  0.45593999997E+02  0.45594000000E+02  0.51100000000E-03 0.  1.
         11   -1    0    0    0    0 -0.00000000000E+00 -0.00000000000E+00 -0.45593999997E+02  0.45594000000E+02  0.51100000000E-03 0. -1.
         23    2    1    2    0    0 -0.35527136788E-14  0.00000000000E+00  0.00000000000E+00  0.91188000000E+02  0.91188000000E+02 0.  0.
    9900012    2    3    3    0    0 -0.28123311035E+02  0.22305588455E+02  0.82048185310E+01  0.54367096331E+02  0.40000027707E+02 0.  0.
         12    1    3    3    0    0  0.28123311035E+02 -0.22305588455E+02 -0.82048185310E+01  0.36820903669E+02  0.00000000000E+00 0. -1.
         11    1    4    4    0    0  0.45190304589E+00  0.93935992270E+01  0.47886459395E+01  0.10553437970E+02  0.51100000000E-03 0. -1.
        -11    1    4    4    0    0 -0.28253354868E+02 -0.12854423918E+01 -0.25770025779E+01  0.28399742358E+02  0.51100000000E-03 0.  1.
        -12    1    4    4    0    0 -0.32185921226E+00  0.14197431619E+02  0.59931751694E+01  0.15413916003E+02  0.00000000000E+00 0.  1.
</event>
<event>
 8    1  0.2401680E-006  0.9118800E+02  0.7816164E-02  0.1184000E+00
        -11   -1    0    0    0    0  0.00000000000E+00  0.00000000000E+00  0.45593999997E+02  0.45594000000E+02  0.51100000000E-03 0.  1.
         11   -1    0    0    0    0 -0.00000000000E+00 -0.00000000000E+00 -0.45593999997E+02  0.45594000000E+02  0.51100000000E-03 0. -1.
         23    2    1    2    0    0  0.26645352591E-14  0.35527136788E-14  0.00000000000E+00  0.91188000000E+02  0.91188000000E+02 0.  0.
    9900012    2    3    3    0    0  0.73569415436E+01  0.26919568401E+02 -0.24020645780E+02  0.54367093229E+02  0.40000020633E+02 0.  0.
        -12    1    3    3    0    0 -0.73569415436E+01 -0.26919568401E+02  0.24020645780E+02  0.36820906771E+02  0.00000000000E+00 0.  1.
         11    1    4    4    0    0 -0.10252190485E+02  0.13601701852E+02 -0.19912901449E+02  0.26203765901E+02  0.51100000000E-03 0. -1.
        -11    1    4    4    0    0  0.10108710055E+02  0.12102664855E+02 -0.98912170244E+01  0.18614421561E+02  0.51100000000E-03 0.  1.
         12    1    4    4    0    0  0.75004219742E+01  0.12152016944E+01  0.57834726936E+01  0.95489057670E+01  0.00000000000E+00 0. -1.
</event>
<event>
 8    1  0.2401680E-006  0.9118800E+02  0.7816164E-02  0.1184000E+00
        -11   -1    0    0    0    0  0.00000000000E+00  0.00000000000E+00  0.45593999997E+02  0.45594000000E+02  0.51100000000E-03 0. -1.
         11   -1    0    0    0    0 -0.00000000000E+00 -0.00000000000E+00 -0.45593999997E+02  0.45594000000E+02  0.51100000000E-03 0.  1.
         23    2    1    2    0    0  0.00000000000E+00  0.00000000000E+00  0.00000000000E+00  0.91188000000E+02  0.91188000000E+02 0.  0.
    9900012    2    3    3    0    0  0.88656087927E+01 -0.32006961530E+02  0.15897562062E+02  0.54367121614E+02  0.40000085342E+02 0.  0.
        -12    1    3    3    0    0 -0.88656087927E+01  0.32006961530E+02 -0.15897562062E+02  0.36820878386E+02  0.00000000000E+00 0.  1.
         11    1    4    4    0    0  0.26375799106E+01 -0.23048173502E+02  0.22904380237E+02  0.32600395149E+02  0.51100000000E-03 0. -1.
        -11    1    4    4    0    0 -0.59598671399E+01 -0.97793121138E+00 -0.20171091595E+01  0.63675030743E+01  0.51100000000E-03 0.  1.
        -12    1    4    4    0    0  0.12187896022E+02 -0.79808568159E+01 -0.49897090152E+01  0.15399223390E+02  0.00000000000E+00 0.  1.
</event>
<event>
 8    1  0.2401680E-006  0.9118800E+02  0.7816164E-02  0.1184000E+00
        -11   -1    0    0    0    0  0.00000000000E+00  0.00000000000E+00  0.45593999997E+02  0.45594000000E+02  0.51100000000E-03 0. -1.
         11   -1    0    0    0    0 -0.00000000000E+00 -0.00000000000E+00 -0.45593999997E+02  0.45594000000E+02  0.51100000000E-03 0.  1.
         23    2    1    2    0    0  0.00000000000E+00  0.00000000000E+00  0.35527136788E-14  0.91188000000E+02  0.91188000000E+02 0.  0.
    9900012    2    3    3    0    0  0.18811885810E+02 -0.16811721969E+02 -0.26819031720E+02  0.54367061586E+02  0.39999948498E+02 0.  0.
         12    1    3    3    0    0 -0.18811885810E+02  0.16811721969E+02  0.26819031720E+02  0.36820938414E+02  0.00000000000E+00 0. -1.
         11    1    4    4    0    0  0.14467809214E+02 -0.18779202454E+02 -0.23016081113E+01  0.23817500885E+02  0.51100000000E-03 0. -1.
        -11    1    4    4    0    0  0.38694341700E+01 -0.74390216012E+01 -0.14842161635E+02  0.17047032746E+02  0.51100000000E-03 0.  1.
         12    1    4    4    0    0  0.47464242653E+00  0.94065020861E+01 -0.96752619737E+01  0.13502527955E+02  0.00000000000E+00 0. -1.
</event>
<event>
 8    1  0.2401680E-006  0.9118800E+02  0.7816164E-02  0.1184000E+00
        -11   -1    0    0    0    0  0.00000000000E+00  0.00000000000E+00  0.45593999997E+02  0.45594000000E+02  0.51100000000E-03 0. -1.
         11   -1    0    0    0    0 -0.00000000000E+00 -0.00000000000E+00 -0.45593999997E+02  0.45594000000E+02  0.51100000000E-03 0.  1.
         23    2    1    2    0    0  0.00000000000E+00  0.00000000000E+00  0.00000000000E+00  0.91188000000E+02  0.91188000000E+02 0.  0.
    9900012    2    3    3    0    0 -0.25527845989E+02 -0.21196603754E+02 -0.15962861894E+02  0.54367083507E+02  0.39999998472E+02 0.  0.
         12    1    3    3    0    0  0.25527845989E+02  0.21196603754E+02  0.15962861894E+02  0.36820916493E+02  0.00000000000E+00 0. -1.
         11    1    4    4    0    0 -0.16407774286E+02 -0.18199620765E+02 -0.34010373732E+01  0.24738801678E+02  0.51100000000E-03 0. -1.
        -11    1    4    4    0    0 -0.13275021700E+02 -0.18618915638E+01  0.27826699251E+01  0.13690730204E+02  0.51100000000E-03 0.  1.
         12    1    4    4    0    0  0.41549499972E+01 -0.11350914247E+01 -0.15344494446E+02  0.15937551625E+02  0.00000000000E+00 0. -1.
</event>
<event>
 8    1  0.2401680E-006  0.9118800E+02  0.7816164E-02  0.1184000E+00
        -11   -1    0    0    0    0  0.00000000000E+00  0.00000000000E+00  0.45593999997E+02  0.45594000000E+02  0.51100000000E-03 0. -1.
         11   -1    0    0    0    0 -0.00000000000E+00 -0.00000000000E+00 -0.45593999997E+02  0.45594000000E+02  0.51100000000E-03 0.  1.
         23    2    1    2    0    0  0.00000000000E+00  0.00000000000E+00 -0.35527136788E-14  0.91188000000E+02  0.91188000000E+02 0.  0.
    9900012    2    3    3    0    0  0.78611951737E+01  0.27615386923E+02  0.23051537292E+02  0.54367063619E+02  0.39999953132E+02 0.  0.
        -12    1    3    3    0    0 -0.78611951737E+01 -0.27615386923E+02 -0.23051537292E+02  0.36820936381E+02  0.00000000000E+00 0.  1.
         11    1    4    4    0    0 -0.38194708270E+01  0.86767551418E+00 -0.41545154439E+01  0.57097475453E+01  0.51100000000E-03 0. -1.
        -11    1    4    4    0    0 -0.38026403454E+01  0.36061187965E+01 -0.41780401893E+01  0.67022523419E+01  0.51100000000E-03 0.  1.
         12    1    4    4    0    0  0.15483306346E+02  0.23141592612E+02  0.31384092925E+02  0.41955063732E+02  0.00000000000E+00 0. -1.
</event>
<event>
 8    1  0.2401680E-006  0.9118800E+02  0.7816164E-02  0.1184000E+00
        -11   -1    0    0    0    0  0.00000000000E+00  0.00000000000E+00  0.45593999997E+02  0.45594000000E+02  0.51100000000E-03 0. -1.
         11   -1    0    0    0    0 -0.00000000000E+00 -0.00000000000E+00 -0.45593999997E+02  0.45594000000E+02  0.51100000000E-03 0.  1.
         23    2    1    2    0    0  0.00000000000E+00  0.00000000000E+00  0.35527136788E-14  0.91188000000E+02  0.91188000000E+02 0.  0.
    9900012    2    3    3    0    0  0.16348063113E+02  0.22337949919E+02 -0.24280378911E+02  0.54367082382E+02  0.39999995907E+02 0.  0.
        -12    1    3    3    0    0 -0.16348063113E+02 -0.22337949919E+02  0.24280378911E+02  0.36820917618E+02  0.00000000000E+00 0.  1.
         11    1    4    4    0    0  0.20050020903E+02  0.25682089140E+02 -0.19087455381E+02  0.37761143971E+02  0.51100000000E-03 0. -1.
        -11    1    4    4    0    0 -0.86746394327E+01 -0.19906290538E+01 -0.68077818381E+01  0.11205260690E+02  0.51100000000E-03 0.  1.
         12    1    4    4    0    0  0.49726816430E+01 -0.13535101670E+01  0.16148583081E+01  0.54006777213E+01  0.00000000000E+00 0. -1.
</event>
<event>
 8    1  0.2401680E-006  0.9118800E+02  0.7816164E-02  0.1184000E+00
        -11   -1    0    0    0    0  0.00000000000E+00  0.00000000000E+00  0.45593999997E+02  0.45594000000E+02  0.51100000000E-03 0. -1.
         11   -1    0    0    0    0 -0.00000000000E+00 -0.00000000000E+00 -0.45593999997E+02  0.45594000000E+02  0.51100000000E-03 0.  1.
         23    2    1    2    0    0 -0.44408920985E-15  0.00000000000E+00 -0.88817841970E-15  0.91188000000E+02  0.91188000000E+02 0.  0.
    9900012    2    3    3    0    0  0.38834339139E+01  0.36314046362E+02 -0.46891969820E+01  0.54367087593E+02  0.40000007785E+02 0.  0.
         12    1    3    3    0    0 -0.38834339139E+01 -0.36314046362E+02  0.46891969820E+01  0.36820912407E+02  0.00000000000E+00 0. -1.
         11    1    4    4    0    0  0.14505013537E+02  0.91040392447E+01 -0.96668914881E+01  0.19665394468E+02  0.51100000000E-03 0. -1.
        -11    1    4    4    0    0 -0.82057673322E+00  0.14126166315E+02 -0.56137182627E+01  0.15222869438E+02  0.51100000000E-03 0.  1.
         12    1    4    4    0    0 -0.98010028897E+01  0.13083840803E+02  0.10591412769E+02  0.19478823687E+02  0.00000000000E+00 0. -1.
</event>
<event>
 8    1  0.2401680E-006  0.9118800E+02  0.7816164E-02  0.1184000E+00
        -11   -1    0    0    0    0  0.00000000000E+00  0.00000000000E+00  0.45593999997E+02  0.45594000000E+02  0.51100000000E-03 0.  1.
         11   -1    0    0    0    0 -0.00000000000E+00 -0.00000000000E+00 -0.45593999997E+02  0.45594000000E+02  0.51100000000E-03 0. -1.
         23    2    1    2    0    0  0.00000000000E+00  0.44408920985E-15 -0.71054273576E-14  0.91188000000E+02  0.91188000000E+02 0.  0.
    9900012    2    3    3    0    0  0.17600788976E+02 -0.27346143675E+01  0.32225997898E+02  0.54367070777E+02  0.39999969449E+02 0.  0.
         12    1    3    3    0    0 -0.17600788976E+02  0.27346143675E+01 -0.32225997898E+02  0.36820929223E+02  0.00000000000E+00 0. -1.
         11    1    4    4    0    0  0.37078172533E+01  0.36238748193E+01 -0.15997791429E+01  0.54258336739E+01  0.51100000000E-03 0. -1.
        -11    1    4    4    0    0  0.46308146469E+01  0.23735203198E+01 -0.55208943937E+01  0.75867198558E+01  0.51100000000E-03 0.  1.
        -12    1    4    4    0    0  0.92621570760E+01 -0.87320095066E+01  0.39346671435E+02  0.41354517247E+02  0.00000000000E+00 0.  1.
</event>
<event>
 8    1  0.2401680E-006  0.9118800E+02  0.7816164E-02  0.1184000E+00
        -11   -1    0    0    0    0  0.00000000000E+00  0.00000000000E+00  0.45593999997E+02  0.45594000000E+02  0.51100000000E-03 0. -1.
         11   -1    0    0    0    0 -0.00000000000E+00 -0.00000000000E+00 -0.45593999997E+02  0.45594000000E+02  0.51100000000E-03 0.  1.
         23    2    1    2    0    0  0.00000000000E+00 -0.13322676296E-14  0.00000000000E+00  0.91188000000E+02  0.91188000000E+02 0.  0.
    9900012    2    3    3    0    0 -0.13354750734E+02  0.35581646330E+01 -0.34128729687E+02  0.54367080772E+02  0.39999992237E+02 0.  0.
         12    1    3    3    0    0  0.13354750734E+02 -0.35581646330E+01  0.34128729687E+02  0.36820919228E+02  0.00000000000E+00 0. -1.
         11    1    4    4    0    0  0.71402908745E+01 -0.84652803100E+01 -0.53668674974E+01  0.12306420743E+02  0.51100000000E-03 0. -1.
        -11    1    4    4    0    0 -0.17008116603E+01 -0.45780687129E+01 -0.85756016118E+01  0.98687596338E+01  0.51100000000E-03 0.  1.
        -12    1    4    4    0    0 -0.18794229948E+02  0.16601513656E+02 -0.20186260578E+02  0.32191900396E+02  0.00000000000E+00 0.  1.
</event>
<event>
 8    1  0.2401680E-006  0.9118800E+02  0.7816164E-02  0.1184000E+00
        -11   -1    0    0    0    0  0.00000000000E+00  0.00000000000E+00  0.45593999997E+02  0.45594000000E+02  0.51100000000E-03 0. -1.
         11   -1    0    0    0    0 -0.00000000000E+00 -0.00000000000E+00 -0.45593999997E+02  0.45594000000E+02  0.51100000000E-03 0.  1.
         23    2    1    2    0    0  0.88817841970E-15  0.35527136788E-14  0.35527136788E-14  0.91188000000E+02  0.91188000000E+02 0.  0.
    9900012    2    3    3    0    0  0.46463423992E+01 -0.20444930313E+02  0.30268730365E+02  0.54367085955E+02  0.40000004053E+02 0.  0.
        -12    1    3    3    0    0 -0.46463423992E+01  0.20444930313E+02 -0.30268730365E+02  0.36820914045E+02  0.00000000000E+00 0.  1.
         11    1    4    4    0    0  0.11409180018E+00 -0.11659399172E+02  0.20831887916E+02  0.23873042546E+02  0.51100000000E-03 0. -1.
        -11    1    4    4    0    0 -0.53901447546E+01 -0.25363630683E+01  0.15988081034E+02  0.17061815070E+02  0.51100000000E-03 0.  1.
        -12    1    4    4    0    0  0.99223953536E+01 -0.62491680723E+01 -0.65512385854E+01  0.13432228339E+02  0.00000000000E+00 0.  1.
</event>
<event>
 8    1  0.2401680E-006  0.9118800E+02  0.7816164E-02  0.1184000E+00
        -11   -1    0    0    0    0  0.00000000000E+00  0.00000000000E+00  0.45593999997E+02  0.45594000000E+02  0.51100000000E-03 0.  1.
         11   -1    0    0    0    0 -0.00000000000E+00 -0.00000000000E+00 -0.45593999997E+02  0.45594000000E+02  0.51100000000E-03 0. -1.
         23    2    1    2    0    0 -0.88817841970E-15 -0.35527136788E-14  0.00000000000E+00  0.91188000000E+02  0.91188000000E+02 0.  0.
    9900012    2    3    3    0    0  0.51672367409E+01  0.19354701684E+02  0.30894581891E+02  0.54367081991E+02  0.39999995016E+02 0.  0.
         12    1    3    3    0    0 -0.51672367409E+01 -0.19354701684E+02 -0.30894581891E+02  0.36820918009E+02  0.00000000000E+00 0. -1.
         11    1    4    4    0    0  0.10848951460E+02  0.25414981750E+02  0.34568782175E+02  0.44256318718E+02  0.51100000000E-03 0. -1.
        -11    1    4    4    0    0 -0.28132004274E+01 -0.13595126812E+01  0.54721437638E+00  0.31720364452E+01  0.51100000000E-03 0.  1.
         12    1    4    4    0    0 -0.28685142920E+01 -0.47007673856E+01 -0.42214146607E+01  0.69387268281E+01  0.00000000000E+00 0. -1.
</event>
<event>
 8    1  0.2401680E-006  0.9118800E+02  0.7816164E-02  0.1184000E+00
        -11   -1    0    0    0    0  0.00000000000E+00  0.00000000000E+00  0.45593999997E+02  0.45594000000E+02  0.51100000000E-03 0. -1.
         11   -1    0    0    0    0 -0.00000000000E+00 -0.00000000000E+00 -0.45593999997E+02  0.45594000000E+02  0.51100000000E-03 0.  1.
         23    2    1    2    0    0  0.17763568394E-14  0.00000000000E+00  0.44408920985E-15  0.91188000000E+02  0.91188000000E+02 0.  0.
    9900012    2    3    3    0    0  0.95821586849E+01 -0.35370993578E+02 -0.35851875998E+01  0.54367102104E+02  0.40000040866E+02 0.  0.
         12    1    3    3    0    0 -0.95821586849E+01  0.35370993578E+02  0.35851875998E+01  0.36820897896E+02  0.00000000000E+00 0. -1.
         11    1    4    4    0    0 -0.92232949309E+01 -0.10549139038E+02  0.52706012175E+01  0.14971063465E+02  0.51100000000E-03 0. -1.
        -11    1    4    4    0    0  0.78996262209E+01  0.30424657395E+01 -0.19421031814E+01  0.86851860794E+01  0.51100000000E-03 0.  1.
         12    1    4    4    0    0  0.10905827395E+02 -0.27864320280E+02 -0.69136856359E+01  0.30710852559E+02  0.00000000000E+00 0. -1.
</event>
<event>
 8    1  0.2401680E-006  0.9118800E+02  0.7816164E-02  0.1184000E+00
        -11   -1    0    0    0    0  0.00000000000E+00  0.00000000000E+00  0.45593999997E+02  0.45594000000E+02  0.51100000000E-03 0.  1.
         11   -1    0    0    0    0 -0.00000000000E+00 -0.00000000000E+00 -0.45593999997E+02  0.45594000000E+02  0.51100000000E-03 0. -1.
         23    2    1    2    0    0  0.00000000000E+00  0.44408920985E-15  0.35527136788E-14  0.91188000000E+02  0.91188000000E+02 0.  0.
    9900012    2    3    3    0    0  0.29561976981E+02  0.37506129435E+01 -0.21628743208E+02  0.54367080494E+02  0.39999991602E+02 0.  0.
        -12    1    3    3    0    0 -0.29561976981E+02 -0.37506129435E+01  0.21628743208E+02  0.36820919506E+02  0.00000000000E+00 0.  1.
         11    1    4    4    0    0  0.22903244355E+02  0.69463121040E+01 -0.14413184683E+02  0.27938320400E+02  0.51100000000E-03 0. -1.
        -11    1    4    4    0    0  0.13575523206E+01  0.60229387225E+01  0.65716186269E+01  0.90169235772E+01  0.51100000000E-03 0.  1.
        -12    1    4    4    0    0  0.53011803061E+01 -0.92186378830E+01 -0.13787177152E+02  0.17411836517E+02  0.00000000000E+00 0.  1.
</event>
<event>
 8    1  0.2401680E-006  0.9118800E+02  0.7816164E-02  0.1184000E+00
        -11   -1    0    0    0    0  0.00000000000E+00  0.00000000000E+00  0.45593999997E+02  0.45594000000E+02  0.51100000000E-03 0. -1.
         11   -1    0    0    0    0 -0.00000000000E+00 -0.00000000000E+00 -0.45593999997E+02  0.45594000000E+02  0.51100000000E-03 0.  1.
         23    2    1    2    0    0  0.00000000000E+00  0.00000000000E+00  0.00000000000E+00  0.91188000000E+02  0.91188000000E+02 0.  0.
    9900012    2    3    3    0    0  0.69770386374E+01  0.35367581456E+02 -0.74992386415E+01  0.54367034961E+02  0.39999887800E+02 0.  0.
         12    1    3    3    0    0 -0.69770386374E+01 -0.35367581456E+02  0.74992386415E+01  0.36820965039E+02  0.00000000000E+00 0. -1.
         11    1    4    4    0    0  0.12220688066E+02  0.83374451288E+00  0.27679852605E+01  0.12557949251E+02  0.51100000000E-03 0. -1.
        -11    1    4    4    0    0 -0.37134563658E+01  0.36194595383E+02 -0.58551798392E+01  0.36852701724E+02  0.51100000000E-03 0.  1.
        -12    1    4    4    0    0 -0.15301930631E+01 -0.16607584394E+01 -0.44120440627E+01  0.49563839859E+01  0.00000000000E+00 0.  1.
</event>
<event>
 8    1  0.2401680E-006  0.9118800E+02  0.7816164E-02  0.1184000E+00
        -11   -1    0    0    0    0  0.00000000000E+00  0.00000000000E+00  0.45593999997E+02  0.45594000000E+02  0.51100000000E-03 0. -1.
         11   -1    0    0    0    0 -0.00000000000E+00 -0.00000000000E+00 -0.45593999997E+02  0.45594000000E+02  0.51100000000E-03 0.  1.
         23    2    1    2    0    0  0.00000000000E+00  0.00000000000E+00 -0.44408920985E-15  0.91188000000E+02  0.91188000000E+02 0.  0.
    9900012    2    3    3    0    0  0.36604883075E+02  0.32186955961E+01 -0.23460960935E+01  0.54367059855E+02  0.39999944551E+02 0.  0.
         12    1    3    3    0    0 -0.36604883075E+02 -0.32186955961E+01  0.23460960935E+01  0.36820940145E+02  0.00000000000E+00 0. -1.
         11    1    4    4    0    0  0.33331969301E+02  0.13861755735E+02  0.38520657981E+01  0.36304364210E+02  0.51100000000E-03 0. -1.
        -11    1    4    4    0    0  0.76818319033E+01 -0.51314636397E+01 -0.59733320704E+01  0.11001052530E+02  0.51100000000E-03 0.  1.
         12    1    4    4    0    0 -0.44089181285E+01 -0.55115964994E+01 -0.22482982123E+00  0.70616431151E+01  0.00000000000E+00 0. -1.
</event>
<event>
 8    1  0.2401680E-006  0.9118800E+02  0.7816164E-02  0.1184000E+00
        -11   -1    0    0    0    0  0.00000000000E+00  0.00000000000E+00  0.45593999997E+02  0.45594000000E+02  0.51100000000E-03 0.  1.
         11   -1    0    0    0    0 -0.00000000000E+00 -0.00000000000E+00 -0.45593999997E+02  0.45594000000E+02  0.51100000000E-03 0. -1.
         23    2    1    2    0    0 -0.88817841970E-15  0.00000000000E+00  0.00000000000E+00  0.91188000000E+02  0.91188000000E+02 0.  0.
    9900012    2    3    3    0    0 -0.69856286239E+01  0.18720137352E+02  0.30927939327E+02  0.54367082293E+02  0.39999995703E+02 0.  0.
         12    1    3    3    0    0  0.69856286239E+01 -0.18720137352E+02 -0.30927939327E+02  0.36820917707E+02  0.00000000000E+00 0. -1.
         11    1    4    4    0    0 -0.17331149714E+01 -0.25244408310E+01  0.11973307344E+02  0.12358664088E+02  0.51100000000E-03 0. -1.
        -11    1    4    4    0    0 -0.11316167804E+02  0.26807367020E+02  0.13108151175E+02  0.31914169389E+02  0.51100000000E-03 0.  1.
        -12    1    4    4    0    0  0.60636541518E+01 -0.55627888370E+01  0.58464808078E+01  0.10094248816E+02  0.00000000000E+00 0.  1.
</event>
<event>
 8    1  0.2401680E-006  0.9118800E+02  0.7816164E-02  0.1184000E+00
        -11   -1    0    0    0    0  0.00000000000E+00  0.00000000000E+00  0.45593999997E+02  0.45594000000E+02  0.51100000000E-03 0. -1.
         11   -1    0    0    0    0 -0.00000000000E+00 -0.00000000000E+00 -0.45593999997E+02  0.45594000000E+02  0.51100000000E-03 0.  1.
         23    2    1    2    0    0 -0.71054273576E-14  0.00000000000E+00  0.17763568394E-14  0.91188000000E+02  0.91188000000E+02 0.  0.
    9900012    2    3    3    0    0 -0.24082629628E+02 -0.23295116919E+02  0.15269069780E+02  0.54367081842E+02  0.39999994674E+02 0.  0.
        -12    1    3    3    0    0  0.24082629628E+02  0.23295116919E+02 -0.15269069780E+02  0.36820918158E+02  0.00000000000E+00 0.  1.
         11    1    4    4    0    0  0.19956694074E-01 -0.12515734719E+02  0.99697485811E+01  0.16001246853E+02  0.51100000000E-03 0. -1.
        -11    1    4    4    0    0  0.45477790844E+01 -0.57438970986E+01  0.56857678486E+01  0.92737589342E+01  0.51100000000E-03 0.  1.
        -12    1    4    4    0    0 -0.28650365406E+02 -0.50354851013E+01 -0.38644664953E+00  0.29092076054E+02  0.00000000000E+00 0.  1.
</event>
<event>
 8    1  0.2401680E-006  0.9118800E+02  0.7816164E-02  0.1184000E+00
        -11   -1    0    0    0    0  0.00000000000E+00  0.00000000000E+00  0.45593999997E+02  0.45594000000E+02  0.51100000000E-03 0. -1.
         11   -1    0    0    0    0 -0.00000000000E+00 -0.00000000000E+00 -0.45593999997E+02  0.45594000000E+02  0.51100000000E-03 0.  1.
         23    2    1    2    0    0  0.00000000000E+00  0.00000000000E+00  0.00000000000E+00  0.91188000000E+02  0.91188000000E+02 0.  0.
    9900012    2    3    3    0    0  0.41516168646E+01 -0.16468496302E+02  0.32670071505E+02  0.54367070284E+02  0.39999968326E+02 0.  0.
        -12    1    3    3    0    0 -0.41516168646E+01  0.16468496302E+02 -0.32670071505E+02  0.36820929716E+02  0.00000000000E+00 0.  1.
         11    1    4    4    0    0  0.77763693651E+01 -0.10416243560E+02 -0.22659851767E+01  0.13194875501E+02  0.51100000000E-03 0. -1.
        -11    1    4    4    0    0 -0.57244803861E+01 -0.69519169576E+01  0.35133489365E+01  0.96665633028E+01  0.51100000000E-03 0.  1.
         12    1    4    4    0    0  0.20997278855E+01  0.89966421610E+00  0.31422707745E+02  0.31505631480E+02  0.00000000000E+00 0. -1.
</event>
<event>
 8    1  0.2401680E-006  0.9118800E+02  0.7816164E-02  0.1184000E+00
        -11   -1    0    0    0    0  0.00000000000E+00  0.00000000000E+00  0.45593999997E+02  0.45594000000E+02  0.51100000000E-03 0.  1.
         11   -1    0    0    0    0 -0.00000000000E+00 -0.00000000000E+00 -0.45593999997E+02  0.45594000000E+02  0.51100000000E-03 0. -1.
         23    2    1    2    0    0  0.17763568394E-14 -0.35527136788E-14  0.00000000000E+00  0.91188000000E+02  0.91188000000E+02 0.  0.
    9900012    2    3    3    0    0  0.15656850746E+02  0.14243289550E+02  0.30129236557E+02  0.54367093330E+02  0.40000020865E+02 0.  0.
         12    1    3    3    0    0 -0.15656850746E+02 -0.14243289550E+02 -0.30129236557E+02  0.36820906670E+02  0.00000000000E+00 0. -1.
         11    1    4    4    0    0 -0.48710748652E+00 -0.56458035123E+01  0.10141321437E+02  0.11617175722E+02  0.51100000000E-03 0. -1.
        -11    1    4    4    0    0  0.23609899521E+01 -0.52160095129E+01  0.11552923173E+02  0.12893838176E+02  0.51100000000E-03 0.  1.
         12    1    4    4    0    0  0.13782968280E+02  0.25105102575E+02  0.84349919466E+01  0.29856079432E+02  0.00000000000E+00 0. -1.
</event>
<event>
 8    1  0.2401680E-006  0.9118800E+02  0.7816164E-02  0.1184000E+00
        -11   -1    0    0    0    0  0.00000000000E+00  0.00000000000E+00  0.45593999997E+02  0.45594000000E+02  0.51100000000E-03 0. -1.
         11   -1    0    0    0    0 -0.00000000000E+00 -0.00000000000E+00 -0.45593999997E+02  0.45594000000E+02  0.51100000000E-03 0.  1.
         23    2    1    2    0    0  0.00000000000E+00 -0.17763568394E-14  0.00000000000E+00  0.91188000000E+02  0.91188000000E+02 0.  0.
    9900012    2    3    3    0    0 -0.34094440350E+02 -0.95759666782E+01  0.10082083652E+02  0.54367103604E+02  0.40000044287E+02 0.  0.
        -12    1    3    3    0    0  0.34094440350E+02  0.95759666782E+01 -0.10082083652E+02  0.36820896396E+02  0.00000000000E+00 0.  1.
         11    1    4    4    0    0 -0.38344607210E+02 -0.53930436779E+01  0.78711458422E+01  0.39513905898E+02  0.51100000000E-03 0. -1.
        -11    1    4    4    0    0 -0.11848832353E+01 -0.64335005637E+01 -0.28095332690E+01  0.71195052661E+01  0.51100000000E-03 0.  1.
        -12    1    4    4    0    0  0.54350500951E+01  0.22505775633E+01  0.50204710788E+01  0.77336924401E+01  0.00000000000E+00 0.  1.
</event>
<event>
 8    1  0.2401680E-006  0.9118800E+02  0.7816164E-02  0.1184000E+00
        -11   -1    0    0    0    0  0.00000000000E+00  0.00000000000E+00  0.45593999997E+02  0.45594000000E+02  0.51100000000E-03 0.  1.
         11   -1    0    0    0    0 -0.00000000000E+00 -0.00000000000E+00 -0.45593999997E+02  0.45594000000E+02  0.51100000000E-03 0. -1.
         23    2    1    2    0    0  0.00000000000E+00  0.22204460493E-15  0.00000000000E+00  0.91188000000E+02  0.91188000000E+02 0.  0.
    9900012    2    3    3    0    0  0.34641750067E+02 -0.47797253537E+00 -0.12469937386E+02  0.54367100447E+02  0.40000037090E+02 0.  0.
        -12    1    3    3    0    0 -0.34641750067E+02  0.47797253537E+00  0.12469937386E+02  0.36820899553E+02  0.00000000000E+00 0.  1.
         11    1    4    4    0    0  0.40732920395E+02  0.47458760102E+01 -0.14435435738E+02  0.43475003717E+02  0.51100000000E-03 0. -1.
        -11    1    4    4    0    0 -0.54852132863E+01 -0.13317876138E+01 -0.12805013210E+01  0.57879967984E+01  0.51100000000E-03 0.  1.
         12    1    4    4    0    0 -0.60595704193E+00 -0.38920609318E+01  0.32459996730E+01  0.51040999315E+01  0.00000000000E+00 0. -1.
</event>
<event>
 8    1  0.2401680E-006  0.9118800E+02  0.7816164E-02  0.1184000E+00
        -11   -1    0    0    0    0  0.00000000000E+00  0.00000000000E+00  0.45593999997E+02  0.45594000000E+02  0.51100000000E-03 0. -1.
         11   -1    0    0    0    0 -0.00000000000E+00 -0.00000000000E+00 -0.45593999997E+02  0.45594000000E+02  0.51100000000E-03 0.  1.
         23    2    1    2    0    0  0.00000000000E+00 -0.17763568394E-14  0.35527136788E-14  0.91188000000E+02  0.91188000000E+02 0.  0.
    9900012    2    3    3    0    0  0.28040851014E+02  0.40225961858E+01 -0.23522548527E+02  0.54367069881E+02  0.39999967407E+02 0.  0.
         12    1    3    3    0    0 -0.28040851014E+02 -0.40225961858E+01  0.23522548527E+02  0.36820930119E+02  0.00000000000E+00 0. -1.
         11    1    4    4    0    0  0.20624016084E+01  0.14965768737E+02 -0.25048588464E+01  0.15313459843E+02  0.51100000000E-03 0. -1.
        -11    1    4    4    0    0  0.17731558061E+02 -0.82615897690E+01 -0.22963630638E+02  0.30166046296E+02  0.51100000000E-03 0.  1.
         12    1    4    4    0    0  0.82468913440E+01 -0.26815827817E+01  0.19459409566E+01  0.88875637416E+01  0.00000000000E+00 0. -1.
</event>
<event>
 8    1  0.2401680E-006  0.9118800E+02  0.7816164E-02  0.1184000E+00
        -11   -1    0    0    0    0  0.00000000000E+00  0.00000000000E+00  0.45593999997E+02  0.45594000000E+02  0.51100000000E-03 0. -1.
         11   -1    0    0    0    0 -0.00000000000E+00 -0.00000000000E+00 -0.45593999997E+02  0.45594000000E+02  0.51100000000E-03 0.  1.
         23    2    1    2    0    0  0.00000000000E+00 -0.35527136788E-14  0.00000000000E+00  0.91188000000E+02  0.91188000000E+02 0.  0.
    9900012    2    3    3    0    0  0.16033204324E+02  0.21819088976E+02 -0.24952856674E+02  0.54367063825E+02  0.39999953601E+02 0.  0.
         12    1    3    3    0    0 -0.16033204324E+02 -0.21819088976E+02  0.24952856674E+02  0.36820936175E+02  0.00000000000E+00 0. -1.
         11    1    4    4    0    0  0.68520033967E+01 -0.85889037535E+01 -0.18460959282E+02  0.21483161688E+02  0.51100000000E-03 0. -1.
        -11    1    4    4    0    0  0.66976759328E+01  0.20817129484E+02 -0.70072697561E+01  0.22963309268E+02  0.51100000000E-03 0.  1.
         12    1    4    4    0    0  0.24835249943E+01  0.95908632456E+01  0.51537236398E+00  0.99205928687E+01  0.00000000000E+00 0. -1.
</event>
<event>
 8    1  0.2401680E-006  0.9118800E+02  0.7816164E-02  0.1184000E+00
        -11   -1    0    0    0    0  0.00000000000E+00  0.00000000000E+00  0.45593999997E+02  0.45594000000E+02  0.51100000000E-03 0.  1.
         11   -1    0    0    0    0 -0.00000000000E+00 -0.00000000000E+00 -0.45593999997E+02  0.45594000000E+02  0.51100000000E-03 0. -1.
         23    2    1    2    0    0  0.88817841970E-15  0.26645352591E-14  0.00000000000E+00  0.91188000000E+02  0.91188000000E+02 0.  0.
    9900012    2    3    3    0    0 -0.48338746286E+01 -0.42175267115E+01  0.36257778467E+02  0.54367076942E+02  0.39999983504E+02 0.  0.
         12    1    3    3    0    0  0.48338746286E+01  0.42175267115E+01 -0.36257778467E+02  0.36820923058E+02  0.00000000000E+00 0. -1.
         11    1    4    4    0    0 -0.19130701475E+01  0.49700225249E+01 -0.45605726445E+01  0.70114038818E+01  0.51100000000E-03 0. -1.
        -11    1    4    4    0    0 -0.48389259835E+01  0.60929319859E+01  0.83102304247E+01  0.11384153672E+02  0.51100000000E-03 0.  1.
        -12    1    4    4    0    0  0.19181215025E+01 -0.15280481222E+02  0.32508120687E+02  0.35971519388E+02  0.00000000000E+00 0.  1.
</event>
<event>
 8    1  0.2401680E-006  0.9118800E+02  0.7816164E-02  0.1184000E+00
        -11   -1    0    0    0    0  0.00000000000E+00  0.00000000000E+00  0.45593999997E+02  0.45594000000E+02  0.51100000000E-03 0. -1.
         11   -1    0    0    0    0 -0.00000000000E+00 -0.00000000000E+00 -0.45593999997E+02  0.45594000000E+02  0.51100000000E-03 0.  1.
         23    2    1    2    0    0  0.17763568394E-14  0.88817841970E-15  0.00000000000E+00  0.91188000000E+02  0.91188000000E+02 0.  0.
    9900012    2    3    3    0    0 -0.88555508948E+01  0.37600274846E+01 -0.35541824040E+02  0.54367084145E+02  0.39999999925E+02 0.  0.
         12    1    3    3    0    0  0.88555508948E+01 -0.37600274846E+01  0.35541824040E+02  0.36820915855E+02  0.00000000000E+00 0. -1.
         11    1    4    4    0    0 -0.13820982359E+01  0.54230997441E+01  0.45500873113E+01  0.72127318798E+01  0.51100000000E-03 0. -1.
        -11    1    4    4    0    0  0.72486660638E+01 -0.43276264203E+00 -0.25007749019E+02  0.26040698041E+02  0.51100000000E-03 0.  1.
        -12    1    4    4    0    0 -0.14722118723E+02 -0.12303096175E+01 -0.15084162331E+02  0.21113654224E+02  0.00000000000E+00 0.  1.
</event>
<event>
 8    1  0.2401680E-006  0.9118800E+02  0.7816164E-02  0.1184000E+00
        -11   -1    0    0    0    0  0.00000000000E+00  0.00000000000E+00  0.45593999997E+02  0.45594000000E+02  0.51100000000E-03 0.  1.
         11   -1    0    0    0    0 -0.00000000000E+00 -0.00000000000E+00 -0.45593999997E+02  0.45594000000E+02  0.51100000000E-03 0. -1.
         23    2    1    2    0    0  0.00000000000E+00  0.17763568394E-14  0.17763568394E-14  0.91188000000E+02  0.91188000000E+02 0.  0.
    9900012    2    3    3    0    0  0.32810687774E+02  0.10015902581E+02  0.13376169569E+02  0.54367062355E+02  0.39999950251E+02 0.  0.
         12    1    3    3    0    0 -0.32810687774E+02 -0.10015902581E+02 -0.13376169569E+02  0.36820937645E+02  0.00000000000E+00 0. -1.
         11    1    4    4    0    0  0.11206650318E+02 -0.36415626249E+01 -0.67787139194E+01  0.13594151403E+02  0.51100000000E-03 0. -1.
        -11    1    4    4    0    0 -0.48638953525E+01 -0.12364596620E+01  0.36643887793E+01  0.62140209111E+01  0.51100000000E-03 0.  1.
        -12    1    4    4    0    0  0.26467932809E+02  0.14893924868E+02  0.16490494709E+02  0.34558890041E+02  0.00000000000E+00 0.  1.
</event>
<event>
 8    1  0.2401680E-006  0.9118800E+02  0.7816164E-02  0.1184000E+00
        -11   -1    0    0    0    0  0.00000000000E+00  0.00000000000E+00  0.45593999997E+02  0.45594000000E+02  0.51100000000E-03 0. -1.
         11   -1    0    0    0    0 -0.00000000000E+00 -0.00000000000E+00 -0.45593999997E+02  0.45594000000E+02  0.51100000000E-03 0.  1.
         23    2    1    2    0    0  0.00000000000E+00  0.00000000000E+00  0.00000000000E+00  0.91188000000E+02  0.91188000000E+02 0.  0.
    9900012    2    3    3    0    0  0.23928408345E+02 -0.12881485966E+02 -0.24845098831E+02  0.54367077381E+02  0.39999984505E+02 0.  0.
         12    1    3    3    0    0 -0.23928408345E+02  0.12881485966E+02  0.24845098831E+02  0.36820922619E+02  0.00000000000E+00 0. -1.
         11    1    4    4    0    0  0.58066143663E+01  0.67407495103E+01 -0.63814595356E+01  0.10948858407E+02  0.51100000000E-03 0. -1.
        -11    1    4    4    0    0  0.12809933622E+02  0.10942259553E+01  0.29103741538E+01  0.13181881801E+02  0.51100000000E-03 0.  1.
        -12    1    4    4    0    0  0.53118603565E+01 -0.20716461431E+02 -0.21374013449E+02  0.30236337172E+02  0.00000000000E+00 0.  1.
</event>
<event>
 8    1  0.2401680E-006  0.9118800E+02  0.7816164E-02  0.1184000E+00
        -11   -1    0    0    0    0  0.00000000000E+00  0.00000000000E+00  0.45593999997E+02  0.45594000000E+02  0.51100000000E-03 0. -1.
         11   -1    0    0    0    0 -0.00000000000E+00 -0.00000000000E+00 -0.45593999997E+02  0.45594000000E+02  0.51100000000E-03 0.  1.
         23    2    1    2    0    0  0.35527136788E-14  0.00000000000E+00  0.00000000000E+00  0.91188000000E+02  0.91188000000E+02 0.  0.
    9900012    2    3    3    0    0 -0.17808999623E+02  0.23047945330E+02  0.22525776448E+02  0.54367097565E+02  0.40000030520E+02 0.  0.
        -12    1    3    3    0    0  0.17808999623E+02 -0.23047945330E+02 -0.22525776448E+02  0.36820902435E+02  0.00000000000E+00 0.  1.
         11    1    4    4    0    0  0.39765421890E+01  0.56843181564E+01  0.37549672486E+01  0.78882279368E+01  0.51100000000E-03 0. -1.
        -11    1    4    4    0    0 -0.15818084838E+02  0.26880283975E+02  0.12388394565E+02  0.33559406948E+02  0.51100000000E-03 0.  1.
         12    1    4    4    0    0 -0.59674569737E+01 -0.95166568009E+01  0.63824146346E+01  0.12919462681E+02  0.00000000000E+00 0. -1.
</event>
<event>
 8    1  0.2401680E-006  0.9118800E+02  0.7816164E-02  0.1184000E+00
        -11   -1    0    0    0    0  0.00000000000E+00  0.00000000000E+00  0.45593999997E+02  0.45594000000E+02  0.51100000000E-03 0.  1.
         11   -1    0    0    0    0 -0.00000000000E+00 -0.00000000000E+00 -0.45593999997E+02  0.45594000000E+02  0.51100000000E-03 0. -1.
         23    2    1    2    0    0 -0.17763568394E-14  0.00000000000E+00  0.00000000000E+00  0.91188000000E+02  0.91188000000E+02 0.  0.
    9900012    2    3    3    0    0  0.88852721574E+01  0.13944638994E+02 -0.32899433793E+02  0.54367166741E+02  0.40000188220E+02 0.  0.
        -12    1    3    3    0    0 -0.88852721574E+01 -0.13944638994E+02  0.32899433793E+02  0.36820833259E+02  0.00000000000E+00 0.  1.
         11    1    4    4    0    0  0.61276596764E+01  0.76736078769E+01 -0.15848852787E+02  0.18644532869E+02  0.51100000000E-03 0. -1.
        -11    1    4    4    0    0  0.16340961836E+02  0.51266948757E+01 -0.13002144716E+02  0.21502692891E+02  0.51100000000E-03 0.  1.
         12    1    4    4    0    0 -0.13583349355E+02  0.11443362410E+01 -0.40484362898E+01  0.14219940982E+02  0.00000000000E+00 0. -1.
</event>
<event>
 8    1  0.2401680E-006  0.9118800E+02  0.7816164E-02  0.1184000E+00
        -11   -1    0    0    0    0  0.00000000000E+00  0.00000000000E+00  0.45593999997E+02  0.45594000000E+02  0.51100000000E-03 0.  1.
         11   -1    0    0    0    0 -0.00000000000E+00 -0.00000000000E+00 -0.45593999997E+02  0.45594000000E+02  0.51100000000E-03 0. -1.
         23    2    1    2    0    0  0.00000000000E+00  0.00000000000E+00  0.00000000000E+00  0.91188000000E+02  0.91188000000E+02 0.  0.
    9900012    2    3    3    0    0 -0.13813064025E+02  0.20049432469E+02 -0.27622445983E+02  0.54367082003E+02  0.39999995041E+02 0.  0.
        -12    1    3    3    0    0  0.13813064025E+02 -0.20049432469E+02  0.27622445983E+02  0.36820917997E+02  0.00000000000E+00 0.  1.
         11    1    4    4    0    0 -0.14029162942E+02  0.53773856994E+01 -0.68961235009E+01  0.16531491446E+02  0.51100000000E-03 0. -1.
        -11    1    4    4    0    0  0.13540289041E+02  0.11936365588E+02 -0.11975874370E+02  0.21661897839E+02  0.51100000000E-03 0.  1.
        -12    1    4    4    0    0 -0.13324190124E+02  0.27356811815E+01 -0.87504481114E+01  0.16173692718E+02  0.00000000000E+00 0.  1.
</event>
<event>
 8    1  0.2401680E-006  0.9118800E+02  0.7816164E-02  0.1184000E+00
        -11   -1    0    0    0    0  0.00000000000E+00  0.00000000000E+00  0.45593999997E+02  0.45594000000E+02  0.51100000000E-03 0. -1.
         11   -1    0    0    0    0 -0.00000000000E+00 -0.00000000000E+00 -0.45593999997E+02  0.45594000000E+02  0.51100000000E-03 0.  1.
         23    2    1    2    0    0  0.35527136788E-14  0.35527136788E-14  0.44408920985E-15  0.91188000000E+02  0.91188000000E+02 0.  0.
    9900012    2    3    3    0    0 -0.27285139914E+02 -0.24713740391E+02 -0.72517577098E+00  0.54367167525E+02  0.40000190007E+02 0.  0.
        -12    1    3    3    0    0  0.27285139914E+02  0.24713740391E+02  0.72517577098E+00  0.36820832475E+02  0.00000000000E+00 0.  1.
         11    1    4    4    0    0  0.54596074610E+01 -0.10863786080E+02 -0.62605479230E+01  0.13675658016E+02  0.51100000000E-03 0.  1.
        -11    1    4    4    0    0 -0.30470731655E+02 -0.65057063837E+01  0.87430515937E+01  0.32360943351E+02  0.51100000000E-03 0. -1.
        -12    1    4    4    0    0 -0.22740157200E+01 -0.73442479276E+01 -0.32076794417E+01  0.83305661583E+01  0.00000000000E+00 0.  1.
</event>
<event>
 8    1  0.2401680E-006  0.9118800E+02  0.7816164E-02  0.1184000E+00
        -11   -1    0    0    0    0  0.00000000000E+00  0.00000000000E+00  0.45593999997E+02  0.45594000000E+02  0.51100000000E-03 0.  1.
         11   -1    0    0    0    0 -0.00000000000E+00 -0.00000000000E+00 -0.45593999997E+02  0.45594000000E+02  0.51100000000E-03 0. -1.
         23    2    1    2    0    0 -0.35527136788E-14  0.35527136788E-14  0.35527136788E-14  0.91188000000E+02  0.91188000000E+02 0.  0.
    9900012    2    3    3    0    0  0.27315373314E+02 -0.18441201518E+02  0.16418613388E+02  0.54367103782E+02  0.40000044692E+02 0.  0.
         12    1    3    3    0    0 -0.27315373314E+02  0.18441201518E+02 -0.16418613388E+02  0.36820896218E+02  0.00000000000E+00 0. -1.
         11    1    4    4    0    0 -0.41088452476E+00  0.19410004185E+01  0.36541482336E+01  0.41580173510E+01  0.51100000000E-03 0.  1.
        -11    1    4    4    0    0 -0.68592503247E+01 -0.24074152214E+01 -0.33843227629E+01  0.80186410251E+01  0.51100000000E-03 0. -1.
         12    1    4    4    0    0  0.34585508163E+02 -0.17974786715E+02  0.16148787917E+02  0.42190445406E+02  0.00000000000E+00 0. -1.
</event>
<event>
 8    1  0.2401680E-006  0.9118800E+02  0.7816164E-02  0.1184000E+00
        -11   -1    0    0    0    0  0.00000000000E+00  0.00000000000E+00  0.45593999997E+02  0.45594000000E+02  0.51100000000E-03 0. -1.
         11   -1    0    0    0    0 -0.00000000000E+00 -0.00000000000E+00 -0.45593999997E+02  0.45594000000E+02  0.51100000000E-03 0.  1.
         23    2    1    2    0    0  0.00000000000E+00  0.35527136788E-14  0.00000000000E+00  0.91188000000E+02  0.91188000000E+02 0.  0.
    9900012    2    3    3    0    0  0.19222233312E+02 -0.28687466864E+02 -0.12779471626E+02  0.54367083341E+02  0.39999998092E+02 0.  0.
         12    1    3    3    0    0 -0.19222233312E+02  0.28687466864E+02  0.12779471626E+02  0.36820916659E+02  0.00000000000E+00 0. -1.
         11    1    4    4    0    0  0.21166886816E+02  0.24257393663E+01 -0.83097152365E+01  0.22868595859E+02  0.51100000000E-03 0. -1.
        -11    1    4    4    0    0 -0.81072507825E+00 -0.86472502217E+01 -0.12567170469E+01  0.87756224592E+01  0.51100000000E-03 0.  1.
         12    1    4    4    0    0 -0.11339284260E+01 -0.22465956008E+02 -0.32130393431E+01  0.22722865023E+02  0.00000000000E+00 0. -1.
</event>
<event>
 8    1  0.2401680E-006  0.9118800E+02  0.7816164E-02  0.1184000E+00
        -11   -1    0    0    0    0  0.00000000000E+00  0.00000000000E+00  0.45593999997E+02  0.45594000000E+02  0.51100000000E-03 0. -1.
         11   -1    0    0    0    0 -0.00000000000E+00 -0.00000000000E+00 -0.45593999997E+02  0.45594000000E+02  0.51100000000E-03 0.  1.
         23    2    1    2    0    0  0.00000000000E+00  0.00000000000E+00  0.35527136788E-14  0.91188000000E+02  0.91188000000E+02 0.  0.
    9900012    2    3    3    0    0 -0.16763821972E+02 -0.24825479139E+02 -0.21411445168E+02  0.54367080324E+02  0.39999991215E+02 0.  0.
         12    1    3    3    0    0  0.16763821972E+02  0.24825479139E+02  0.21411445168E+02  0.36820919676E+02  0.00000000000E+00 0. -1.
         11    1    4    4    0    0  0.53961170380E+01 -0.15912008248E+02 -0.19366730195E+02  0.25639429094E+02  0.51100000000E-03 0. -1.
        -11    1    4    4    0    0 -0.76019641995E+01  0.44209382666E+01  0.57473087403E+00  0.88127674817E+01  0.51100000000E-03 0.  1.
        -12    1    4    4    0    0 -0.14557974810E+02 -0.13334409158E+02 -0.26194458465E+01  0.19914883748E+02  0.00000000000E+00 0.  1.
</event>
<event>
 8    1  0.2401680E-006  0.9118800E+02  0.7816164E-02  0.1184000E+00
        -11   -1    0    0    0    0  0.00000000000E+00  0.00000000000E+00  0.45593999997E+02  0.45594000000E+02  0.51100000000E-03 0.  1.
         11   -1    0    0    0    0 -0.00000000000E+00 -0.00000000000E+00 -0.45593999997E+02  0.45594000000E+02  0.51100000000E-03 0. -1.
         23    2    1    2    0    0  0.00000000000E+00  0.44408920985E-15  0.35527136788E-14  0.91188000000E+02  0.91188000000E+02 0.  0.
    9900012    2    3    3    0    0 -0.22447864163E+02  0.15082117733E+01 -0.29147872540E+02  0.54367084995E+02  0.40000001862E+02 0.  0.
        -12    1    3    3    0    0  0.22447864163E+02 -0.15082117733E+01  0.29147872540E+02  0.36820915005E+02  0.00000000000E+00 0.  1.
         11    1    4    4    0    0 -0.26277936195E+02  0.30877685792E+01 -0.11498477982E+02  0.28849250278E+02  0.51100000000E-03 0. -1.
        -11    1    4    4    0    0  0.25494123118E+01 -0.63881050486E+01  0.30680018166E+00  0.68848758783E+01  0.51100000000E-03 0.  1.
         12    1    4    4    0    0  0.12806597201E+01  0.48085482427E+01 -0.17956194740E+02  0.18632958838E+02  0.00000000000E+00 0. -1.
</event>
<event>
 8    1  0.2401680E-006  0.9118800E+02  0.7816164E-02  0.1184000E+00
        -11   -1    0    0    0    0  0.00000000000E+00  0.00000000000E+00  0.45593999997E+02  0.45594000000E+02  0.51100000000E-03 0.  1.
         11   -1    0    0    0    0 -0.00000000000E+00 -0.00000000000E+00 -0.45593999997E+02  0.45594000000E+02  0.51100000000E-03 0. -1.
         23    2    1    2    0    0  0.88817841970E-15  0.00000000000E+00  0.00000000000E+00  0.91188000000E+02  0.91188000000E+02 0.  0.
    9900012    2    3    3    0    0 -0.53931440534E+01 -0.28975140893E+02 -0.22071136482E+02  0.54367083958E+02  0.39999999499E+02 0.  0.
        -12    1    3    3    0    0  0.53931440534E+01  0.28975140893E+02  0.22071136482E+02  0.36820916042E+02  0.00000000000E+00 0.  1.
         11    1    4    4    0    0  0.19788348312E+01  0.14820406521E+01 -0.91682419241E+01  0.94957301995E+01  0.51100000000E-03 0. -1.
        -11    1    4    4    0    0 -0.10498367600E+02 -0.57219522152E+01  0.61943693987E+01  0.13465759240E+02  0.51100000000E-03 0.  1.
         12    1    4    4    0    0  0.31263887150E+01 -0.24735229330E+02 -0.19097263957E+02  0.31405594518E+02  0.00000000000E+00 0. -1.
</event>
<event>
 8    1  0.2401680E-006  0.9118800E+02  0.7816164E-02  0.1184000E+00
        -11   -1    0    0    0    0  0.00000000000E+00  0.00000000000E+00  0.45593999997E+02  0.45594000000E+02  0.51100000000E-03 0.  1.
         11   -1    0    0    0    0 -0.00000000000E+00 -0.00000000000E+00 -0.45593999997E+02  0.45594000000E+02  0.51100000000E-03 0. -1.
         23    2    1    2    0    0  0.00000000000E+00  0.00000000000E+00  0.00000000000E+00  0.91188000000E+02  0.91188000000E+02 0.  0.
    9900012    2    3    3    0    0 -0.30518525707E+02 -0.20353365510E+02  0.31844753722E+01  0.54367071409E+02  0.39999970891E+02 0.  0.
        -12    1    3    3    0    0  0.30518525707E+02  0.20353365510E+02 -0.31844753722E+01  0.36820928591E+02  0.00000000000E+00 0.  1.
         11    1    4    4    0    0 -0.13266847403E+02 -0.15418089210E+02 -0.54652541602E+01  0.21061712138E+02  0.51100000000E-03 0. -1.
        -11    1    4    4    0    0 -0.64887943175E+01  0.10724053579E+02  0.26747057694E+00  0.12537197360E+02  0.51100000000E-03 0.  1.
         12    1    4    4    0    0 -0.10762883987E+02 -0.15659329878E+02  0.83822589555E+01  0.20768161911E+02  0.00000000000E+00 0. -1.
</event>
<event>
 8    1  0.2401680E-006  0.9118800E+02  0.7816164E-02  0.1184000E+00
        -11   -1    0    0    0    0  0.00000000000E+00  0.00000000000E+00  0.45593999997E+02  0.45594000000E+02  0.51100000000E-03 0.  1.
         11   -1    0    0    0    0 -0.00000000000E+00 -0.00000000000E+00 -0.45593999997E+02  0.45594000000E+02  0.51100000000E-03 0. -1.
         23    2    1    2    0    0  0.00000000000E+00 -0.17763568394E-14  0.00000000000E+00  0.91188000000E+02  0.91188000000E+02 0.  0.
    9900012    2    3    3    0    0  0.31555653721E+02  0.13300828962E+02  0.13531756828E+02  0.54367085078E+02  0.40000002053E+02 0.  0.
         12    1    3    3    0    0 -0.31555653721E+02 -0.13300828962E+02 -0.13531756828E+02  0.36820914922E+02  0.00000000000E+00 0. -1.
         11    1    4    4    0    0  0.28091859600E+02  0.11614149115E+02  0.61301056980E+01  0.31009985998E+02  0.51100000000E-03 0. -1.
        -11    1    4    4    0    0  0.64434185403E+01  0.76394175182E+00  0.14345587847E+02  0.15744749614E+02  0.51100000000E-03 0.  1.
         12    1    4    4    0    0 -0.29796244196E+01  0.92273809509E+00 -0.69439367168E+01  0.76123494666E+01  0.00000000000E+00 0. -1.
</event>
<event>
 8    1  0.2401680E-006  0.9118800E+02  0.7816164E-02  0.1184000E+00
        -11   -1    0    0    0    0  0.00000000000E+00  0.00000000000E+00  0.45593999997E+02  0.45594000000E+02  0.51100000000E-03 0.  1.
         11   -1    0    0    0    0 -0.00000000000E+00 -0.00000000000E+00 -0.45593999997E+02  0.45594000000E+02  0.51100000000E-03 0. -1.
         23    2    1    2    0    0 -0.22204460493E-14 -0.71054273576E-14  0.44408920985E-14  0.91188000000E+02  0.91188000000E+02 0.  0.
    9900012    2    3    3    0    0  0.30769218625E+01  0.36040611830E+02 -0.68836973755E+01  0.54367103232E+02  0.40000043437E+02 0.  0.
        -12    1    3    3    0    0 -0.30769218625E+01 -0.36040611830E+02  0.68836973755E+01  0.36820896768E+02  0.00000000000E+00 0.  1.
         11    1    4    4    0    0 -0.71383491587E+01  0.10374363005E+02  0.78667089867E+01  0.14848183290E+02  0.51100000000E-03 0.  1.
        -11    1    4    4    0    0 -0.11930511825E-02 -0.73735096330E+00  0.49649045231E+01  0.50193590279E+01  0.51100000000E-03 0. -1.
         12    1    4    4    0    0  0.10216464072E+02  0.26403599789E+02 -0.19715310885E+02  0.34499560914E+02  0.00000000000E+00 0. -1.
</event>
<event>
 8    1  0.2401680E-006  0.9118800E+02  0.7816164E-02  0.1184000E+00
        -11   -1    0    0    0    0  0.00000000000E+00  0.00000000000E+00  0.45593999997E+02  0.45594000000E+02  0.51100000000E-03 0.  1.
         11   -1    0    0    0    0 -0.00000000000E+00 -0.00000000000E+00 -0.45593999997E+02  0.45594000000E+02  0.51100000000E-03 0. -1.
         23    2    1    2    0    0  0.88817841970E-15  0.17763568394E-14  0.00000000000E+00  0.91188000000E+02  0.91188000000E+02 0.  0.
    9900012    2    3    3    0    0 -0.48363397866E+01  0.13212860448E+02 -0.34026852439E+02  0.54366857287E+02  0.39999482754E+02 0.  0.
        -12    1    3    3    0    0  0.48363397866E+01 -0.13212860448E+02  0.34026852439E+02  0.36821142713E+02  0.00000000000E+00 0.  1.
         11    1    4    4    0    0 -0.67867146627E+01 -0.29080990208E+01 -0.24549822823E+02  0.25636113916E+02  0.51100000000E-03 0. -1.
        -11    1    4    4    0    0 -0.57670177248E+01 -0.29061056322E+01 -0.35027815900E+01  0.73466606368E+01  0.51100000000E-03 0.  1.
         12    1    4    4    0    0  0.77173926010E+01  0.19027065101E+02 -0.59742480266E+01  0.21384082735E+02  0.00000000000E+00 0. -1.
</event>
<event>
 8    1  0.2401680E-006  0.9118800E+02  0.7816164E-02  0.1184000E+00
        -11   -1    0    0    0    0  0.00000000000E+00  0.00000000000E+00  0.45593999997E+02  0.45594000000E+02  0.51100000000E-03 0.  1.
         11   -1    0    0    0    0 -0.00000000000E+00 -0.00000000000E+00 -0.45593999997E+02  0.45594000000E+02  0.51100000000E-03 0. -1.
         23    2    1    2    0    0  0.00000000000E+00 -0.17763568394E-14  0.00000000000E+00  0.91188000000E+02  0.91188000000E+02 0.  0.
    9900012    2    3    3    0    0  0.10632567770E+02 -0.93861518308E+01 -0.33979823586E+02  0.54367085366E+02  0.40000002709E+02 0.  0.
        -12    1    3    3    0    0 -0.10632567770E+02  0.93861518308E+01  0.33979823586E+02  0.36820914634E+02  0.00000000000E+00 0.  1.
         11    1    4    4    0    0 -0.44461670306E+01 -0.16838533359E+02 -0.24874366342E+02  0.30365090287E+02  0.51100000000E-03 0. -1.
        -11    1    4    4    0    0  0.10207860546E+02  0.36994643423E+01  0.22503215772E+01  0.11088300176E+02  0.51100000000E-03 0.  1.
        -12    1    4    4    0    0  0.48708742555E+01  0.37529171859E+01 -0.11355778821E+02  0.12913694903E+02  0.00000000000E+00 0.  1.
</event>
<event>
 8    1  0.2401680E-006  0.9118800E+02  0.7816164E-02  0.1184000E+00
        -11   -1    0    0    0    0  0.00000000000E+00  0.00000000000E+00  0.45593999997E+02  0.45594000000E+02  0.51100000000E-03 0.  1.
         11   -1    0    0    0    0 -0.00000000000E+00 -0.00000000000E+00 -0.45593999997E+02  0.45594000000E+02  0.51100000000E-03 0. -1.
         23    2    1    2    0    0  0.00000000000E+00 -0.17763568394E-14  0.00000000000E+00  0.91188000000E+02  0.91188000000E+02 0.  0.
    9900012    2    3    3    0    0 -0.27658700918E+02  0.81248324045E+01  0.22907708224E+02  0.54367085642E+02  0.40000003338E+02 0.  0.
         12    1    3    3    0    0  0.27658700918E+02 -0.81248324045E+01 -0.22907708224E+02  0.36820914358E+02  0.00000000000E+00 0. -1.
         11    1    4    4    0    0 -0.47008080790E+01  0.42371064506E+01 -0.33270559024E+01  0.71498229984E+01  0.51100000000E-03 0. -1.
        -11    1    4    4    0    0 -0.28793311252E+02 -0.39353018211E+01  0.16434002071E+02  0.33385892194E+02  0.51100000000E-03 0.  1.
        -12    1    4    4    0    0  0.58354184131E+01  0.78230277750E+01  0.98007620558E+01  0.13831370449E+02  0.00000000000E+00 0.  1.
</event>
<event>
 8    1  0.2401680E-006  0.9118800E+02  0.7816164E-02  0.1184000E+00
        -11   -1    0    0    0    0  0.00000000000E+00  0.00000000000E+00  0.45593999997E+02  0.45594000000E+02  0.51100000000E-03 0.  1.
         11   -1    0    0    0    0 -0.00000000000E+00 -0.00000000000E+00 -0.45593999997E+02  0.45594000000E+02  0.51100000000E-03 0. -1.
         23    2    1    2    0    0  0.00000000000E+00  0.00000000000E+00  0.71054273576E-14  0.91188000000E+02  0.91188000000E+02 0.  0.
    9900012    2    3    3    0    0 -0.97101969727E+00  0.13276963927E+02 -0.34330141303E+02  0.54367092186E+02  0.40000018257E+02 0.  0.
        -12    1    3    3    0    0  0.97101969727E+00 -0.13276963927E+02  0.34330141303E+02  0.36820907814E+02  0.00000000000E+00 0.  1.
         11    1    4    4    0    0 -0.74580062365E+00  0.16544534622E+02 -0.12206335178E+02  0.20573586541E+02  0.51100000000E-03 0. -1.
        -11    1    4    4    0    0 -0.22947298971E+01 -0.14217217965E+02 -0.12424009000E+02  0.19019754779E+02  0.51100000000E-03 0.  1.
        -12    1    4    4    0    0  0.20695108235E+01  0.10949647270E+02 -0.96997971255E+01  0.14773750866E+02  0.00000000000E+00 0.  1.
</event>
<event>
 8    1  0.2401680E-006  0.9118800E+02  0.7816164E-02  0.1184000E+00
        -11   -1    0    0    0    0  0.00000000000E+00  0.00000000000E+00  0.45593999997E+02  0.45594000000E+02  0.51100000000E-03 0.  1.
         11   -1    0    0    0    0 -0.00000000000E+00 -0.00000000000E+00 -0.45593999997E+02  0.45594000000E+02  0.51100000000E-03 0. -1.
         23    2    1    2    0    0 -0.35527136788E-14  0.00000000000E+00  0.00000000000E+00  0.91188000000E+02  0.91188000000E+02 0.  0.
    9900012    2    3    3    0    0  0.26944262041E+02  0.22687869202E+02  0.10726026747E+02  0.54367077746E+02  0.39999985338E+02 0.  0.
         12    1    3    3    0    0 -0.26944262041E+02 -0.22687869202E+02 -0.10726026747E+02  0.36820922254E+02  0.00000000000E+00 0. -1.
         11    1    4    4    0    0 -0.28286415174E+01 -0.54758930605E+00 -0.80496396037E+01  0.85497230886E+01  0.51100000000E-03 0. -1.
        -11    1    4    4    0    0  0.15864420191E+02  0.17501461878E+01  0.48571900907E+01  0.16683379019E+02  0.51100000000E-03 0.  1.
         12    1    4    4    0    0  0.13908483368E+02  0.21485312320E+02  0.13918476260E+02  0.29133975638E+02  0.00000000000E+00 0. -1.
</event>
<event>
 8    1  0.2401680E-006  0.9118800E+02  0.7816164E-02  0.1184000E+00
        -11   -1    0    0    0    0  0.00000000000E+00  0.00000000000E+00  0.45593999997E+02  0.45594000000E+02  0.51100000000E-03 0.  1.
         11   -1    0    0    0    0 -0.00000000000E+00 -0.00000000000E+00 -0.45593999997E+02  0.45594000000E+02  0.51100000000E-03 0. -1.
         23    2    1    2    0    0  0.44408920985E-15  0.00000000000E+00  0.00000000000E+00  0.91188000000E+02  0.91188000000E+02 0.  0.
    9900012    2    3    3    0    0  0.24809259870E+01  0.34135566167E+02 -0.13579034612E+02  0.54367054164E+02  0.39999931578E+02 0.  0.
         12    1    3    3    0    0 -0.24809259870E+01 -0.34135566167E+02  0.13579034612E+02  0.36820945836E+02  0.00000000000E+00 0. -1.
         11    1    4    4    0    0  0.23772670903E+01  0.17762807500E+02  0.93015244873E+01  0.20191262644E+02  0.51100000000E-03 0. -1.
        -11    1    4    4    0    0 -0.47653659522E+01  0.14375968705E+02 -0.56586816622E+01  0.16167803416E+02  0.51100000000E-03 0.  1.
         12    1    4    4    0    0  0.48690248489E+01  0.19967899613E+01 -0.17221877437E+02  0.18007988105E+02  0.00000000000E+00 0. -1.
</event>
<event>
 8    1  0.2401680E-006  0.9118800E+02  0.7816164E-02  0.1184000E+00
        -11   -1    0    0    0    0  0.00000000000E+00  0.00000000000E+00  0.45593999997E+02  0.45594000000E+02  0.51100000000E-03 0. -1.
         11   -1    0    0    0    0 -0.00000000000E+00 -0.00000000000E+00 -0.45593999997E+02  0.45594000000E+02  0.51100000000E-03 0.  1.
         23    2    1    2    0    0  0.00000000000E+00 -0.71054273576E-14  0.00000000000E+00  0.91188000000E+02  0.91188000000E+02 0.  0.
    9900012    2    3    3    0    0 -0.14503346892E+02 -0.33200133003E+02  0.65714642079E+01  0.54367081430E+02  0.39999993736E+02 0.  0.
        -12    1    3    3    0    0  0.14503346892E+02  0.33200133003E+02 -0.65714642079E+01  0.36820918570E+02  0.00000000000E+00 0.  1.
         11    1    4    4    0    0 -0.80899872105E+01 -0.16674697688E+02  0.15690646697E+02  0.24283530017E+02  0.51100000000E-03 0. -1.
        -11    1    4    4    0    0 -0.56487982754E+01 -0.20360231116E+02 -0.12807793553E+02  0.24708045431E+02  0.51100000000E-03 0.  1.
         12    1    4    4    0    0 -0.76456140658E+00  0.38347958011E+01  0.36886110643E+01  0.53755059822E+01  0.00000000000E+00 0. -1.
</event>
<event>
 8    1  0.2401680E-006  0.9118800E+02  0.7816164E-02  0.1184000E+00
        -11   -1    0    0    0    0  0.00000000000E+00  0.00000000000E+00  0.45593999997E+02  0.45594000000E+02  0.51100000000E-03 0. -1.
         11   -1    0    0    0    0 -0.00000000000E+00 -0.00000000000E+00 -0.45593999997E+02  0.45594000000E+02  0.51100000000E-03 0.  1.
         23    2    1    2    0    0 -0.35527136788E-14  0.71054273576E-14  0.00000000000E+00  0.91188000000E+02  0.91188000000E+02 0.  0.
    9900012    2    3    3    0    0 -0.19565811267E+02  0.30945616740E+02  0.39150816645E+01  0.54367081619E+02  0.39999994167E+02 0.  0.
        -12    1    3    3    0    0  0.19565811267E+02 -0.30945616740E+02 -0.39150816645E+01  0.36820918381E+02  0.00000000000E+00 0.  1.
         11    1    4    4    0    0  0.73552670012E+01  0.12483092498E+02 -0.33029940093E+01  0.14860596242E+02  0.51100000000E-03 0.  1.
        -11    1    4    4    0    0 -0.14822733058E+02  0.10205153551E+02  0.14535205107E+02  0.23132893509E+02  0.51100000000E-03 0. -1.
         12    1    4    4    0    0 -0.12098345210E+02  0.82573706909E+01 -0.73171294331E+01  0.16373591869E+02  0.00000000000E+00 0. -1.
</event>
<event>
 8    1  0.2401680E-006  0.9118800E+02  0.7816164E-02  0.1184000E+00
        -11   -1    0    0    0    0  0.00000000000E+00  0.00000000000E+00  0.45593999997E+02  0.45594000000E+02  0.51100000000E-03 0. -1.
         11   -1    0    0    0    0 -0.00000000000E+00 -0.00000000000E+00 -0.45593999997E+02  0.45594000000E+02  0.51100000000E-03 0.  1.
         23    2    1    2    0    0  0.35527136788E-14  0.35527136788E-14  0.17763568394E-14  0.91188000000E+02  0.91188000000E+02 0.  0.
    9900012    2    3    3    0    0 -0.28029093062E+02 -0.21560867916E+02 -0.10260487612E+02  0.54367099832E+02  0.40000035686E+02 0.  0.
        -12    1    3    3    0    0  0.28029093062E+02  0.21560867916E+02  0.10260487612E+02  0.36820900168E+02  0.00000000000E+00 0.  1.
         11    1    4    4    0    0 -0.10608070404E+02  0.22000719228E+01  0.36173118252E-03  0.10833811636E+02  0.51100000000E-03 0. -1.
        -11    1    4    4    0    0  0.60344825323E+00  0.90585021202E+00 -0.12828963832E+02  0.12875054472E+02  0.51100000000E-03 0.  1.
         12    1    4    4    0    0 -0.18024470911E+02 -0.24666790051E+02  0.25681144884E+01  0.30658233724E+02  0.00000000000E+00 0. -1.
</event>
<event>
 8    1  0.2401680E-006  0.9118800E+02  0.7816164E-02  0.1184000E+00
        -11   -1    0    0    0    0  0.00000000000E+00  0.00000000000E+00  0.45593999997E+02  0.45594000000E+02  0.51100000000E-03 0. -1.
         11   -1    0    0    0    0 -0.00000000000E+00 -0.00000000000E+00 -0.45593999997E+02  0.45594000000E+02  0.51100000000E-03 0.  1.
         23    2    1    2    0    0 -0.17763568394E-14  0.00000000000E+00  0.00000000000E+00  0.91188000000E+02  0.91188000000E+02 0.  0.
    9900012    2    3    3    0    0 -0.84943041963E+01 -0.34368659071E+02  0.10120516131E+02  0.54367044325E+02  0.39999909146E+02 0.  0.
        -12    1    3    3    0    0  0.84943041963E+01  0.34368659071E+02 -0.10120516131E+02  0.36820955675E+02  0.00000000000E+00 0.  1.
         11    1    4    4    0    0 -0.65988137126E+01 -0.39521511119E+02  0.15979920548E+02  0.43137594329E+02  0.51100000000E-03 0. -1.
        -11    1    4    4    0    0  0.11250255848E+01  0.62344506293E+01 -0.34221564503E+01  0.72003619525E+01  0.51100000000E-03 0.  1.
        -12    1    4    4    0    0 -0.30205160685E+01 -0.10815985813E+01 -0.24372479660E+01  0.40290880431E+01  0.00000000000E+00 0.  1.
</event>
<event>
 8    1  0.2401680E-006  0.9118800E+02  0.7816164E-02  0.1184000E+00
        -11   -1    0    0    0    0  0.00000000000E+00  0.00000000000E+00  0.45593999997E+02  0.45594000000E+02  0.51100000000E-03 0. -1.
         11   -1    0    0    0    0 -0.00000000000E+00 -0.00000000000E+00 -0.45593999997E+02  0.45594000000E+02  0.51100000000E-03 0.  1.
         23    2    1    2    0    0  0.71054273576E-14  0.15543122345E-14  0.88817841970E-15  0.91188000000E+02  0.91188000000E+02 0.  0.
    9900012    2    3    3    0    0 -0.36552149239E+02 -0.14918475300E+01 -0.41827265519E+01  0.54367076269E+02  0.39999981970E+02 0.  0.
        -12    1    3    3    0    0  0.36552149239E+02  0.14918475300E+01  0.41827265519E+01  0.36820923731E+02  0.00000000000E+00 0.  1.
         11    1    4    4    0    0 -0.28409480905E+01  0.10489510365E+02 -0.59717830166E+01  0.12400121225E+02  0.51100000000E-03 0. -1.
        -11    1    4    4    0    0 -0.14954200527E+02  0.56830813322E+01  0.24993471735E+01  0.16191734415E+02  0.51100000000E-03 0.  1.
        -12    1    4    4    0    0 -0.18757000622E+02 -0.17664439227E+02 -0.71029070886E+00  0.25775220628E+02  0.00000000000E+00 0.  1.
</event>
<event>
 8    1  0.2401680E-006  0.9118800E+02  0.7816164E-02  0.1184000E+00
        -11   -1    0    0    0    0  0.00000000000E+00  0.00000000000E+00  0.45593999997E+02  0.45594000000E+02  0.51100000000E-03 0. -1.
         11   -1    0    0    0    0 -0.00000000000E+00 -0.00000000000E+00 -0.45593999997E+02  0.45594000000E+02  0.51100000000E-03 0.  1.
         23    2    1    2    0    0  0.00000000000E+00  0.88817841970E-15  0.00000000000E+00  0.91188000000E+02  0.91188000000E+02 0.  0.
    9900012    2    3    3    0    0  0.32888845448E+02 -0.54561410975E+01 -0.15631208275E+02  0.54367077922E+02  0.39999985738E+02 0.  0.
         12    1    3    3    0    0 -0.32888845448E+02  0.54561410975E+01  0.15631208275E+02  0.36820922078E+02  0.00000000000E+00 0. -1.
         11    1    4    4    0    0 -0.21322345077E+01 -0.63341686845E+01 -0.42762555997E+00  0.66970874864E+01  0.51100000000E-03 0. -1.
        -11    1    4    4    0    0  0.33258542635E+02 -0.95507822597E+01 -0.11784815194E+02  0.36554479471E+02  0.51100000000E-03 0.  1.
         12    1    4    4    0    0  0.17625373200E+01  0.10428809847E+02 -0.34187675219E+01  0.11115510964E+02  0.00000000000E+00 0. -1.
</event>
<event>
 8    1  0.2401680E-006  0.9118800E+02  0.7816164E-02  0.1184000E+00
        -11   -1    0    0    0    0  0.00000000000E+00  0.00000000000E+00  0.45593999997E+02  0.45594000000E+02  0.51100000000E-03 0.  1.
         11   -1    0    0    0    0 -0.00000000000E+00 -0.00000000000E+00 -0.45593999997E+02  0.45594000000E+02  0.51100000000E-03 0. -1.
         23    2    1    2    0    0  0.00000000000E+00  0.00000000000E+00  0.00000000000E+00  0.91188000000E+02  0.91188000000E+02 0.  0.
    9900012    2    3    3    0    0 -0.19545088636E+02 -0.21376201429E+02 -0.22733827739E+02  0.54367090166E+02  0.40000013652E+02 0.  0.
        -12    1    3    3    0    0  0.19545088636E+02  0.21376201429E+02  0.22733827739E+02  0.36820909834E+02  0.00000000000E+00 0.  1.
         11    1    4    4    0    0 -0.13442659308E+02 -0.24838361774E+02 -0.11895784214E+02  0.30645700958E+02  0.51100000000E-03 0. -1.
        -11    1    4    4    0    0 -0.87205143823E+01  0.74281916794E+01  0.45997345018E+00  0.11464596746E+02  0.51100000000E-03 0.  1.
        -12    1    4    4    0    0  0.26180850538E+01 -0.39660313349E+01 -0.11298016975E+02  0.12256792462E+02  0.00000000000E+00 0.  1.
</event>
<event>
 8    1  0.2401680E-006  0.9118800E+02  0.7816164E-02  0.1184000E+00
        -11   -1    0    0    0    0  0.00000000000E+00  0.00000000000E+00  0.45593999997E+02  0.45594000000E+02  0.51100000000E-03 0.  1.
         11   -1    0    0    0    0 -0.00000000000E+00 -0.00000000000E+00 -0.45593999997E+02  0.45594000000E+02  0.51100000000E-03 0. -1.
         23    2    1    2    0    0  0.00000000000E+00  0.17763568394E-14  0.00000000000E+00  0.91188000000E+02  0.91188000000E+02 0.  0.
    9900012    2    3    3    0    0  0.33371829800E+02  0.92343939709E+01 -0.12523061953E+02  0.54367080174E+02  0.39999990872E+02 0.  0.
        -12    1    3    3    0    0 -0.33371829800E+02 -0.92343939709E+01  0.12523061953E+02  0.36820919826E+02  0.00000000000E+00 0.  1.
         11    1    4    4    0    0  0.13908756684E+02 -0.14173902379E+02 -0.19096902278E+01  0.19949935794E+02  0.51100000000E-03 0. -1.
        -11    1    4    4    0    0  0.34540977086E-01  0.58909616975E+01  0.66767873729E+00  0.59287787915E+01  0.51100000000E-03 0.  1.
        -12    1    4    4    0    0  0.19428532138E+02  0.17517334652E+02 -0.11281050462E+02  0.28488365588E+02  0.00000000000E+00 0.  1.
</event>
<event>
 8    1  0.2401680E-006  0.9118800E+02  0.7816164E-02  0.1184000E+00
        -11   -1    0    0    0    0  0.00000000000E+00  0.00000000000E+00  0.45593999997E+02  0.45594000000E+02  0.51100000000E-03 0.  1.
         11   -1    0    0    0    0 -0.00000000000E+00 -0.00000000000E+00 -0.45593999997E+02  0.45594000000E+02  0.51100000000E-03 0. -1.
         23    2    1    2    0    0 -0.35527136788E-14  0.00000000000E+00  0.00000000000E+00  0.91188000000E+02  0.91188000000E+02 0.  0.
    9900012    2    3    3    0    0 -0.28786048831E+02 -0.14214446056E+02  0.18030389990E+02  0.54367054232E+02  0.39999931734E+02 0.  0.
         12    1    3    3    0    0  0.28786048831E+02  0.14214446056E+02 -0.18030389990E+02  0.36820945768E+02  0.00000000000E+00 0. -1.
         11    1    4    4    0    0 -0.59004849295E+01  0.27231298548E+01 -0.70494638719E+01  0.95878099559E+01  0.51100000000E-03 0. -1.
        -11    1    4    4    0    0 -0.19695147989E+02 -0.64810256899E+01  0.41198309215E+01  0.21139431293E+02  0.51100000000E-03 0.  1.
         12    1    4    4    0    0 -0.31904159129E+01 -0.10456550221E+02  0.20960022941E+02  0.23639812984E+02  0.00000000000E+00 0. -1.
</event>
<event>
 8    1  0.2401680E-006  0.9118800E+02  0.7816164E-02  0.1184000E+00
        -11   -1    0    0    0    0  0.00000000000E+00  0.00000000000E+00  0.45593999997E+02  0.45594000000E+02  0.51100000000E-03 0.  1.
         11   -1    0    0    0    0 -0.00000000000E+00 -0.00000000000E+00 -0.45593999997E+02  0.45594000000E+02  0.51100000000E-03 0. -1.
         23    2    1    2    0    0  0.44408920985E-15  0.00000000000E+00  0.71054273576E-14  0.91188000000E+02  0.91188000000E+02 0.  0.
    9900012    2    3    3    0    0  0.17177954771E+01  0.16602606594E+02  0.32820451659E+02  0.54367089988E+02  0.40000013246E+02 0.  0.
         12    1    3    3    0    0 -0.17177954771E+01 -0.16602606594E+02 -0.32820451659E+02  0.36820910012E+02  0.00000000000E+00 0. -1.
         11    1    4    4    0    0 -0.12159466791E+01  0.11762337181E+02 -0.54724973217E+01  0.13029939735E+02  0.51100000000E-03 0. -1.
        -11    1    4    4    0    0  0.34262001287E+01  0.94923874820E+01  0.19331436200E+02  0.21807078971E+02  0.51100000000E-03 0.  1.
         12    1    4    4    0    0 -0.49245797251E+00 -0.46521180688E+01  0.18961512780E+02  0.19530071282E+02  0.00000000000E+00 0. -1.
</event>
<event>
 8    1  0.2401680E-006  0.9118800E+02  0.7816164E-02  0.1184000E+00
        -11   -1    0    0    0    0  0.00000000000E+00  0.00000000000E+00  0.45593999997E+02  0.45594000000E+02  0.51100000000E-03 0. -1.
         11   -1    0    0    0    0 -0.00000000000E+00 -0.00000000000E+00 -0.45593999997E+02  0.45594000000E+02  0.51100000000E-03 0.  1.
         23    2    1    2    0    0  0.00000000000E+00  0.44408920985E-15  0.35527136788E-14  0.91188000000E+02  0.91188000000E+02 0.  0.
    9900012    2    3    3    0    0  0.18778718812E+02  0.29957903237E+01  0.31530372234E+02  0.54367090002E+02  0.40000013277E+02 0.  0.
        -12    1    3    3    0    0 -0.18778718812E+02 -0.29957903237E+01 -0.31530372234E+02  0.36820909998E+02  0.00000000000E+00 0.  1.
         11    1    4    4    0    0  0.19607609508E+02  0.63988116638E+01  0.12020714115E+02  0.23872593270E+02  0.51100000000E-03 0. -1.
        -11    1    4    4    0    0 -0.82900586528E+01 -0.88082152421E+01  0.45460299366E+01  0.12921923876E+02  0.51100000000E-03 0.  1.
        -12    1    4    4    0    0  0.74611679560E+01  0.54051939020E+01  0.14963628182E+02  0.17572572856E+02  0.00000000000E+00 0.  1.
</event>
<event>
 8    1  0.2401680E-006  0.9118800E+02  0.7816164E-02  0.1184000E+00
        -11   -1    0    0    0    0  0.00000000000E+00  0.00000000000E+00  0.45593999997E+02  0.45594000000E+02  0.51100000000E-03 0. -1.
         11   -1    0    0    0    0 -0.00000000000E+00 -0.00000000000E+00 -0.45593999997E+02  0.45594000000E+02  0.51100000000E-03 0.  1.
         23    2    1    2    0    0  0.35527136788E-14 -0.88817841970E-15  0.00000000000E+00  0.91188000000E+02  0.91188000000E+02 0.  0.
    9900012    2    3    3    0    0  0.21540198177E+02  0.50877145669E+01 -0.29426434474E+02  0.54367081722E+02  0.39999994401E+02 0.  0.
         12    1    3    3    0    0 -0.21540198177E+02 -0.50877145669E+01  0.29426434474E+02  0.36820918278E+02  0.00000000000E+00 0. -1.
         11    1    4    4    0    0  0.96793411647E+01  0.17582959157E+02 -0.14559078946E+02  0.24795501167E+02  0.51100000000E-03 0. -1.
        -11    1    4    4    0    0  0.37970982056E+01  0.34799422593E+01  0.14535401445E+01  0.53517036656E+01  0.51100000000E-03 0.  1.
        -12    1    4    4    0    0  0.80637588062E+01 -0.15975186849E+02 -0.16320895673E+02  0.24219876889E+02  0.00000000000E+00 0.  1.
</event>
<event>
 8    1  0.2401680E-006  0.9118800E+02  0.7816164E-02  0.1184000E+00
        -11   -1    0    0    0    0  0.00000000000E+00  0.00000000000E+00  0.45593999997E+02  0.45594000000E+02  0.51100000000E-03 0. -1.
         11   -1    0    0    0    0 -0.00000000000E+00 -0.00000000000E+00 -0.45593999997E+02  0.45594000000E+02  0.51100000000E-03 0.  1.
         23    2    1    2    0    0  0.00000000000E+00  0.00000000000E+00  0.35527136788E-14  0.91188000000E+02  0.91188000000E+02 0.  0.
    9900012    2    3    3    0    0 -0.10157687326E+02 -0.27332326500E+02 -0.22484310590E+02  0.54367096882E+02  0.40000028962E+02 0.  0.
         12    1    3    3    0    0  0.10157687326E+02  0.27332326500E+02  0.22484310590E+02  0.36820903118E+02  0.00000000000E+00 0. -1.
         11    1    4    4    0    0  0.11874290820E+01 -0.95161290059E+01  0.98259446997E+01  0.13730108834E+02  0.51100000000E-03 0. -1.
        -11    1    4    4    0    0 -0.31132776228E+01 -0.13337641637E+02 -0.25851742703E+02  0.29255730773E+02  0.51100000000E-03 0.  1.
        -12    1    4    4    0    0 -0.82318387849E+01 -0.44785558572E+01 -0.64585125862E+01  0.11381257276E+02  0.00000000000E+00 0.  1.
</event>
<event>
 8    1  0.2401680E-006  0.9118800E+02  0.7816164E-02  0.1184000E+00
        -11   -1    0    0    0    0  0.00000000000E+00  0.00000000000E+00  0.45593999997E+02  0.45594000000E+02  0.51100000000E-03 0.  1.
         11   -1    0    0    0    0 -0.00000000000E+00 -0.00000000000E+00 -0.45593999997E+02  0.45594000000E+02  0.51100000000E-03 0. -1.
         23    2    1    2    0    0  0.00000000000E+00  0.17763568394E-14  0.22204460493E-14  0.91188000000E+02  0.91188000000E+02 0.  0.
    9900012    2    3    3    0    0  0.33620342664E+02 -0.14780189519E+02  0.26454143330E+01  0.54367086648E+02  0.40000005632E+02 0.  0.
        -12    1    3    3    0    0 -0.33620342664E+02  0.14780189519E+02 -0.26454143330E+01  0.36820913352E+02  0.00000000000E+00 0.  1.
         11    1    4    4    0    0  0.18750490203E+02  0.25604738274E+01 -0.63369753063E+01  0.19957308570E+02  0.51100000000E-03 0. -1.
        -11    1    4    4    0    0  0.75437115762E+01 -0.86665469576E+01 -0.79863901579E+01  0.13992821321E+02  0.51100000000E-03 0.  1.
        -12    1    4    4    0    0  0.73261408850E+01 -0.86741163885E+01  0.16968779797E+02  0.20416956756E+02  0.00000000000E+00 0.  1.
</event>
<event>
 8    1  0.2401680E-006  0.9118800E+02  0.7816164E-02  0.1184000E+00
        -11   -1    0    0    0    0  0.00000000000E+00  0.00000000000E+00  0.45593999997E+02  0.45594000000E+02  0.51100000000E-03 0.  1.
         11   -1    0    0    0    0 -0.00000000000E+00 -0.00000000000E+00 -0.45593999997E+02  0.45594000000E+02  0.51100000000E-03 0. -1.
         23    2    1    2    0    0 -0.35527136788E-14  0.00000000000E+00  0.26645352591E-14  0.91188000000E+02  0.91188000000E+02 0.  0.
    9900012    2    3    3    0    0 -0.30004446584E+02  0.20350419533E+02  0.64321987303E+01  0.54367087865E+02  0.40000008406E+02 0.  0.
         12    1    3    3    0    0  0.30004446584E+02 -0.20350419533E+02 -0.64321987303E+01  0.36820912135E+02  0.00000000000E+00 0. -1.
         11    1    4    4    0    0 -0.73896477908E+01  0.13477538989E+01 -0.14272610524E+02  0.16128569263E+02  0.51100000000E-03 0. -1.
        -11    1    4    4    0    0 -0.18993767429E+02  0.13316150913E+02  0.93025822327E+01  0.24992421106E+02  0.51100000000E-03 0.  1.
         12    1    4    4    0    0 -0.36210313642E+01  0.56865147212E+01  0.11402227022E+02  0.13246097496E+02  0.00000000000E+00 0. -1.
</event>
<event>
 8    1  0.2401680E-006  0.9118800E+02  0.7816164E-02  0.1184000E+00
        -11   -1    0    0    0    0  0.00000000000E+00  0.00000000000E+00  0.45593999997E+02  0.45594000000E+02  0.51100000000E-03 0. -1.
         11   -1    0    0    0    0 -0.00000000000E+00 -0.00000000000E+00 -0.45593999997E+02  0.45594000000E+02  0.51100000000E-03 0.  1.
         23    2    1    2    0    0  0.00000000000E+00  0.00000000000E+00  0.17763568394E-14  0.91188000000E+02  0.91188000000E+02 0.  0.
    9900012    2    3    3    0    0 -0.89006884878E+01 -0.35456659390E+02  0.44025461621E+01  0.54367090677E+02  0.40000014816E+02 0.  0.
         12    1    3    3    0    0  0.89006884878E+01  0.35456659390E+02 -0.44025461621E+01  0.36820909323E+02  0.00000000000E+00 0. -1.
         11    1    4    4    0    0 -0.13046463654E+02  0.53521838876E-01 -0.36297182928E+01  0.13542080107E+02  0.51100000000E-03 0. -1.
        -11    1    4    4    0    0 -0.33970911249E+01 -0.22594838134E+02  0.11338324060E+02  0.25507342691E+02  0.51100000000E-03 0.  1.
        -12    1    4    4    0    0  0.75428662913E+01 -0.12915343095E+02 -0.33060596046E+01  0.15317667879E+02  0.00000000000E+00 0.  1.
</event>
<event>
 8    1  0.2401680E-006  0.9118800E+02  0.7816164E-02  0.1184000E+00
        -11   -1    0    0    0    0  0.00000000000E+00  0.00000000000E+00  0.45593999997E+02  0.45594000000E+02  0.51100000000E-03 0. -1.
         11   -1    0    0    0    0 -0.00000000000E+00 -0.00000000000E+00 -0.45593999997E+02  0.45594000000E+02  0.51100000000E-03 0.  1.
         23    2    1    2    0    0  0.00000000000E+00 -0.35527136788E-14  0.00000000000E+00  0.91188000000E+02  0.91188000000E+02 0.  0.
    9900012    2    3    3    0    0  0.35610165209E+01  0.29426373349E+02 -0.21844638915E+02  0.54367074748E+02  0.39999978502E+02 0.  0.
         12    1    3    3    0    0 -0.35610165209E+01 -0.29426373349E+02  0.21844638915E+02  0.36820925252E+02  0.00000000000E+00 0. -1.
         11    1    4    4    0    0 -0.23629485791E+01 -0.48987683148E+01  0.39769207817E+01  0.67377560177E+01  0.51100000000E-03 0. -1.
        -11    1    4    4    0    0  0.57372546545E+01  0.14182861831E+02 -0.54604269789E+00  0.15309076509E+02  0.51100000000E-03 0.  1.
        -12    1    4    4    0    0  0.18671044550E+00  0.20142279833E+02 -0.25275516999E+02  0.32320242221E+02  0.00000000000E+00 0.  1.
</event>
<event>
 8    1  0.2401680E-006  0.9118800E+02  0.7816164E-02  0.1184000E+00
        -11   -1    0    0    0    0  0.00000000000E+00  0.00000000000E+00  0.45593999997E+02  0.45594000000E+02  0.51100000000E-03 0.  1.
         11   -1    0    0    0    0 -0.00000000000E+00 -0.00000000000E+00 -0.45593999997E+02  0.45594000000E+02  0.51100000000E-03 0. -1.
         23    2    1    2    0    0  0.35527136788E-14  0.00000000000E+00  0.00000000000E+00  0.91188000000E+02  0.91188000000E+02 0.  0.
    9900012    2    3    3    0    0  0.30482336955E+02 -0.18712119018E+02 -0.87443813165E+01  0.54367075664E+02  0.39999980591E+02 0.  0.
        -12    1    3    3    0    0 -0.30482336955E+02  0.18712119018E+02  0.87443813165E+01  0.36820924336E+02  0.00000000000E+00 0.  1.
         11    1    4    4    0    0  0.72113921177E+01 -0.10546924656E+02  0.17918973672E+01  0.12901654639E+02  0.51100000000E-03 0. -1.
        -11    1    4    4    0    0 -0.15571619416E+01 -0.10190034746E+02 -0.12820082921E+02  0.16450412998E+02  0.51100000000E-03 0.  1.
        -12    1    4    4    0    0  0.24828106779E+02  0.20248403850E+01  0.22838042375E+01  0.25015008027E+02  0.00000000000E+00 0.  1.
</event>
<event>
 8    1  0.2401680E-006  0.9118800E+02  0.7816164E-02  0.1184000E+00
        -11   -1    0    0    0    0  0.00000000000E+00  0.00000000000E+00  0.45593999997E+02  0.45594000000E+02  0.51100000000E-03 0.  1.
         11   -1    0    0    0    0 -0.00000000000E+00 -0.00000000000E+00 -0.45593999997E+02  0.45594000000E+02  0.51100000000E-03 0. -1.
         23    2    1    2    0    0  0.00000000000E+00 -0.35527136788E-14  0.00000000000E+00  0.91188000000E+02  0.91188000000E+02 0.  0.
    9900012    2    3    3    0    0  0.25730898241E+02 -0.19156118605E+02  0.18076057659E+02  0.54367083868E+02  0.39999999294E+02 0.  0.
         12    1    3    3    0    0 -0.25730898241E+02  0.19156118605E+02 -0.18076057659E+02  0.36820916132E+02  0.00000000000E+00 0. -1.
         11    1    4    4    0    0 -0.67305483426E+01  0.50628329284E+00  0.11020130377E+02  0.12922843246E+02  0.51100000000E-03 0. -1.
        -11    1    4    4    0    0  0.93889878181E+01 -0.31845528010E+01  0.84940615532E+01  0.13055403124E+02  0.51100000000E-03 0.  1.
         12    1    4    4    0    0  0.23072458765E+02 -0.16477849097E+02 -0.14381342713E+01  0.28388837499E+02  0.00000000000E+00 0. -1.
</event>
<event>
 8    1  0.2401680E-006  0.9118800E+02  0.7816164E-02  0.1184000E+00
        -11   -1    0    0    0    0  0.00000000000E+00  0.00000000000E+00  0.45593999997E+02  0.45594000000E+02  0.51100000000E-03 0.  1.
         11   -1    0    0    0    0 -0.00000000000E+00 -0.00000000000E+00 -0.45593999997E+02  0.45594000000E+02  0.51100000000E-03 0. -1.
         23    2    1    2    0    0 -0.35527136788E-14  0.22204460493E-15  0.71054273576E-14  0.91188000000E+02  0.91188000000E+02 0.  0.
    9900012    2    3    3    0    0  0.20795539631E+02 -0.17896226385E+01 -0.30333510260E+02  0.54367094764E+02  0.40000024133E+02 0.  0.
        -12    1    3    3    0    0 -0.20795539631E+02  0.17896226385E+01  0.30333510260E+02  0.36820905236E+02  0.00000000000E+00 0.  1.
         11    1    4    4    0    0  0.30335164139E+01  0.90662316630E+01 -0.20381299071E+02  0.22512132962E+02  0.51100000000E-03 0. -1.
        -11    1    4    4    0    0 -0.50820492968E+01 -0.31244485371E+01 -0.33882204449E+01  0.68607172920E+01  0.51100000000E-03 0.  1.
         12    1    4    4    0    0  0.22844072514E+02 -0.77314057644E+01 -0.65639907437E+01  0.24994244510E+02  0.00000000000E+00 0. -1.
</event>
<event>
 8    1  0.2401680E-006  0.9118800E+02  0.7816164E-02  0.1184000E+00
        -11   -1    0    0    0    0  0.00000000000E+00  0.00000000000E+00  0.45593999997E+02  0.45594000000E+02  0.51100000000E-03 0.  1.
         11   -1    0    0    0    0 -0.00000000000E+00 -0.00000000000E+00 -0.45593999997E+02  0.45594000000E+02  0.51100000000E-03 0. -1.
         23    2    1    2    0    0 -0.71054273576E-14  0.17763568394E-14  0.71054273576E-14  0.91188000000E+02  0.91188000000E+02 0.  0.
    9900012    2    3    3    0    0  0.30135404831E+02 -0.11771097549E+02 -0.17580619908E+02  0.54367088031E+02  0.40000008785E+02 0.  0.
         12    1    3    3    0    0 -0.30135404831E+02  0.11771097549E+02  0.17580619908E+02  0.36820911969E+02  0.00000000000E+00 0. -1.
         11    1    4    4    0    0  0.59203431633E+01  0.19393828228E+00  0.32147296523E+01  0.67396262676E+01  0.51100000000E-03 0. -1.
        -11    1    4    4    0    0  0.31193446640E+02 -0.99099938281E+01 -0.93031206718E+01  0.34026271401E+02  0.51100000000E-03 0.  1.
         12    1    4    4    0    0 -0.69783849722E+01 -0.20550420033E+01 -0.11492228889E+02  0.13601190363E+02  0.00000000000E+00 0. -1.
</event>
<event>
 8    1  0.2401680E-006  0.9118800E+02  0.7816164E-02  0.1184000E+00
        -11   -1    0    0    0    0  0.00000000000E+00  0.00000000000E+00  0.45593999997E+02  0.45594000000E+02  0.51100000000E-03 0.  1.
         11   -1    0    0    0    0 -0.00000000000E+00 -0.00000000000E+00 -0.45593999997E+02  0.45594000000E+02  0.51100000000E-03 0. -1.
         23    2    1    2    0    0 -0.17763568394E-14  0.00000000000E+00  0.00000000000E+00  0.91188000000E+02  0.91188000000E+02 0.  0.
    9900012    2    3    3    0    0  0.14805947189E+02  0.30912047764E+02  0.13453940154E+02  0.54367091880E+02  0.40000017558E+02 0.  0.
         12    1    3    3    0    0 -0.14805947189E+02 -0.30912047764E+02 -0.13453940154E+02  0.36820908120E+02  0.00000000000E+00 0. -1.
         11    1    4    4    0    0  0.12011873551E+02  0.16593849130E+02 -0.36514392695E+01  0.20808025955E+02  0.51100000000E-03 0. -1.
        -11    1    4    4    0    0  0.18699661548E+01  0.20911551392E+02  0.84318807112E+01  0.22624905914E+02  0.51100000000E-03 0.  1.
         12    1    4    4    0    0  0.92410748387E+00 -0.65933527576E+01  0.86734987119E+01  0.10934160010E+02  0.00000000000E+00 0. -1.
</event>
<event>
 8    1  0.2401680E-006  0.9118800E+02  0.7816164E-02  0.1184000E+00
        -11   -1    0    0    0    0  0.00000000000E+00  0.00000000000E+00  0.45593999997E+02  0.45594000000E+02  0.51100000000E-03 0.  1.
         11   -1    0    0    0    0 -0.00000000000E+00 -0.00000000000E+00 -0.45593999997E+02  0.45594000000E+02  0.51100000000E-03 0. -1.
         23    2    1    2    0    0 -0.88817841970E-15  0.00000000000E+00 -0.88817841970E-15  0.91188000000E+02  0.91188000000E+02 0.  0.
    9900012    2    3    3    0    0  0.65472987568E+01 -0.35589167847E+02  0.68061620769E+01  0.54367084323E+02  0.40000000332E+02 0.  0.
         12    1    3    3    0    0 -0.65472987568E+01  0.35589167847E+02 -0.68061620769E+01  0.36820915677E+02  0.00000000000E+00 0. -1.
         11    1    4    4    0    0 -0.99913380514E+01 -0.11489846784E+02 -0.37915339285E+01  0.15691371673E+02  0.51100000000E-03 0. -1.
        -11    1    4    4    0    0 -0.25307378429E+01 -0.16215264100E+02  0.29818888978E+01  0.16680260355E+02  0.51100000000E-03 0.  1.
         12    1    4    4    0    0  0.19069374651E+02 -0.78840569624E+01  0.76158071076E+01  0.21995452295E+02  0.00000000000E+00 0. -1.
</event>
<event>
 8    1  0.2401680E-006  0.9118800E+02  0.7816164E-02  0.1184000E+00
        -11   -1    0    0    0    0  0.00000000000E+00  0.00000000000E+00  0.45593999997E+02  0.45594000000E+02  0.51100000000E-03 0. -1.
         11   -1    0    0    0    0 -0.00000000000E+00 -0.00000000000E+00 -0.45593999997E+02  0.45594000000E+02  0.51100000000E-03 0.  1.
         23    2    1    2    0    0  0.00000000000E+00 -0.95756735874E-15  0.44408920985E-15  0.91188000000E+02  0.91188000000E+02 0.  0.
    9900012    2    3    3    0    0 -0.36729655818E+02 -0.64917261598E-01 -0.25900059652E+01  0.54367082553E+02  0.39999996295E+02 0.  0.
        -12    1    3    3    0    0  0.36729655818E+02  0.64917261598E-01  0.25900059652E+01  0.36820917447E+02  0.00000000000E+00 0.  1.
         11    1    4    4    0    0 -0.41369986705E+01  0.51643192296E+01  0.35630609386E+01  0.75153412843E+01  0.51100000000E-03 0. -1.
        -11    1    4    4    0    0 -0.20726127571E+02  0.13165105913E+02 -0.30250859919E+01  0.24739513401E+02  0.51100000000E-03 0.  1.
        -12    1    4    4    0    0 -0.11866529576E+02 -0.18394342404E+02 -0.31279809120E+01  0.22112227868E+02  0.00000000000E+00 0.  1.
</event>
<event>
 8    1  0.2401680E-006  0.9118800E+02  0.7816164E-02  0.1184000E+00
        -11   -1    0    0    0    0  0.00000000000E+00  0.00000000000E+00  0.45593999997E+02  0.45594000000E+02  0.51100000000E-03 0. -1.
         11   -1    0    0    0    0 -0.00000000000E+00 -0.00000000000E+00 -0.45593999997E+02  0.45594000000E+02  0.51100000000E-03 0.  1.
         23    2    1    2    0    0 -0.88817841970E-15  0.00000000000E+00  0.00000000000E+00  0.91188000000E+02  0.91188000000E+02 0.  0.
    9900012    2    3    3    0    0  0.57240614195E+01 -0.28259232497E+02  0.22900438447E+02  0.54367093147E+02  0.40000020447E+02 0.  0.
         12    1    3    3    0    0 -0.57240614195E+01  0.28259232497E+02 -0.22900438447E+02  0.36820906853E+02  0.00000000000E+00 0. -1.
         11    1    4    4    0    0  0.22632874377E+01 -0.14972161310E+01  0.12707344025E+02  0.12993872348E+02  0.51100000000E-03 0. -1.
        -11    1    4    4    0    0  0.38995121704E+01 -0.31947267645E+02  0.27639286484E+01  0.32302838992E+02  0.51100000000E-03 0.  1.
         12    1    4    4    0    0 -0.43873818851E+00  0.51852512789E+01  0.74291657741E+01  0.90703818069E+01  0.00000000000E+00 0. -1.
</event>
<event>
 8    1  0.2401680E-006  0.9118800E+02  0.7816164E-02  0.1184000E+00
        -11   -1    0    0    0    0  0.00000000000E+00  0.00000000000E+00  0.45593999997E+02  0.45594000000E+02  0.51100000000E-03 0.  1.
         11   -1    0    0    0    0 -0.00000000000E+00 -0.00000000000E+00 -0.45593999997E+02  0.45594000000E+02  0.51100000000E-03 0. -1.
         23    2    1    2    0    0 -0.35527136788E-14  0.00000000000E+00  0.00000000000E+00  0.91188000000E+02  0.91188000000E+02 0.  0.
    9900012    2    3    3    0    0 -0.20040919333E+02 -0.17509649713E+02 -0.25447084760E+02  0.54367076552E+02  0.39999982616E+02 0.  0.
         12    1    3    3    0    0  0.20040919333E+02  0.17509649713E+02  0.25447084760E+02  0.36820923448E+02  0.00000000000E+00 0. -1.
         11    1    4    4    0    0 -0.10353700112E+02  0.74854893044E+01 -0.20831677420E+01  0.12944931218E+02  0.51100000000E-03 0. -1.
        -11    1    4    4    0    0 -0.12683441998E+02 -0.22238240198E+02 -0.26065988461E+02  0.36535527678E+02  0.51100000000E-03 0.  1.
         12    1    4    4    0    0  0.29962227766E+01 -0.27568988191E+01  0.27020714433E+01  0.48866176555E+01  0.00000000000E+00 0. -1.
</event>
<event>
 8    1  0.2401680E-006  0.9118800E+02  0.7816164E-02  0.1184000E+00
        -11   -1    0    0    0    0  0.00000000000E+00  0.00000000000E+00  0.45593999997E+02  0.45594000000E+02  0.51100000000E-03 0. -1.
         11   -1    0    0    0    0 -0.00000000000E+00 -0.00000000000E+00 -0.45593999997E+02  0.45594000000E+02  0.51100000000E-03 0.  1.
         23    2    1    2    0    0 -0.88817841970E-15  0.22204460493E-15  0.00000000000E+00  0.91188000000E+02  0.91188000000E+02 0.  0.
    9900012    2    3    3    0    0 -0.42067525238E+01  0.14378068902E+01  0.36551550865E+02  0.54367083036E+02  0.39999997397E+02 0.  0.
        -12    1    3    3    0    0  0.42067525238E+01 -0.14378068902E+01 -0.36551550865E+02  0.36820916964E+02  0.00000000000E+00 0.  1.
         11    1    4    4    0    0  0.43430314009E+01 -0.66405720564E+01  0.30125194584E+02  0.31152631798E+02  0.51100000000E-03 0. -1.
        -11    1    4    4    0    0 -0.17103868907E+01  0.52605204272E+01 -0.63683700128E+01  0.84353207030E+01  0.51100000000E-03 0.  1.
         12    1    4    4    0    0 -0.68393970339E+01  0.28178585194E+01  0.12794726294E+02  0.14779130535E+02  0.00000000000E+00 0. -1.
</event>
<event>
 8    1  0.2401680E-006  0.9118800E+02  0.7816164E-02  0.1184000E+00
        -11   -1    0    0    0    0  0.00000000000E+00  0.00000000000E+00  0.45593999997E+02  0.45594000000E+02  0.51100000000E-03 0.  1.
         11   -1    0    0    0    0 -0.00000000000E+00 -0.00000000000E+00 -0.45593999997E+02  0.45594000000E+02  0.51100000000E-03 0. -1.
         23    2    1    2    0    0  0.00000000000E+00  0.00000000000E+00 -0.88817841970E-15  0.91188000000E+02  0.91188000000E+02 0.  0.
    9900012    2    3    3    0    0 -0.24420413094E+02  0.27044187536E+02  0.52941661270E+01  0.54367179122E+02  0.40000216443E+02 0.  0.
         12    1    3    3    0    0  0.24420413094E+02 -0.27044187536E+02 -0.52941661270E+01  0.36820820878E+02  0.00000000000E+00 0. -1.
         11    1    4    4    0    0 -0.28815271868E+01 -0.71416917149E+01 -0.48415431641E+01  0.90965652831E+01  0.51100000000E-03 0. -1.
        -11    1    4    4    0    0 -0.77677466628E+00 -0.12346167140E+01  0.33537872740E+01  0.36572594457E+01  0.51100000000E-03 0.  1.
         12    1    4    4    0    0 -0.20762111241E+02  0.35420495965E+02  0.67819220170E+01  0.41613354393E+02  0.00000000000E+00 0. -1.
</event>
<event>
 8    1  0.2401680E-006  0.9118800E+02  0.7816164E-02  0.1184000E+00
        -11   -1    0    0    0    0  0.00000000000E+00  0.00000000000E+00  0.45593999997E+02  0.45594000000E+02  0.51100000000E-03 0. -1.
         11   -1    0    0    0    0 -0.00000000000E+00 -0.00000000000E+00 -0.45593999997E+02  0.45594000000E+02  0.51100000000E-03 0.  1.
         23    2    1    2    0    0  0.88817841970E-15  0.00000000000E+00  0.00000000000E+00  0.91188000000E+02  0.91188000000E+02 0.  0.
    9900012    2    3    3    0    0  0.54214642163E+01 -0.11256578546E+02  0.34636374507E+02  0.54367064735E+02  0.39999955676E+02 0.  0.
        -12    1    3    3    0    0 -0.54214642163E+01  0.11256578546E+02 -0.34636374507E+02  0.36820935265E+02  0.00000000000E+00 0.  1.
         11    1    4    4    0    0  0.75403248981E+01 -0.99091205880E+01  0.93879765638E+01  0.15594270570E+02  0.51100000000E-03 0. -1.
        -11    1    4    4    0    0  0.12680498295E+02 -0.45275780057E+01  0.73795365472E+01  0.15354203318E+02  0.51100000000E-03 0.  1.
         12    1    4    4    0    0 -0.14799358977E+02  0.31801200478E+01  0.17868861396E+02  0.23418590847E+02  0.00000000000E+00 0. -1.
</event>
<event>
 8    1  0.2401680E-006  0.9118800E+02  0.7816164E-02  0.1184000E+00
        -11   -1    0    0    0    0  0.00000000000E+00  0.00000000000E+00  0.45593999997E+02  0.45594000000E+02  0.51100000000E-03 0.  1.
         11   -1    0    0    0    0 -0.00000000000E+00 -0.00000000000E+00 -0.45593999997E+02  0.45594000000E+02  0.51100000000E-03 0. -1.
         23    2    1    2    0    0 -0.71054273576E-14  0.17763568394E-14  0.00000000000E+00  0.91188000000E+02  0.91188000000E+02 0.  0.
    9900012    2    3    3    0    0 -0.30520661408E+02  0.93092678693E+01 -0.18374081454E+02  0.54367080534E+02  0.39999991693E+02 0.  0.
        -12    1    3    3    0    0  0.30520661408E+02 -0.93092678693E+01  0.18374081454E+02  0.36820919466E+02  0.00000000000E+00 0.  1.
         11    1    4    4    0    0 -0.93294236960E+01  0.14459043567E+02 -0.40856860783E+01  0.17686009113E+02  0.51100000000E-03 0. -1.
        -11    1    4    4    0    0 -0.64957518423E+00  0.68124792423E+01  0.28117277355E+01  0.73984886610E+01  0.51100000000E-03 0.  1.
         12    1    4    4    0    0 -0.20541662528E+02 -0.11962254940E+02 -0.17100123112E+02  0.29282582760E+02  0.00000000000E+00 0. -1.
</event>
<event>
 8    1  0.2401680E-006  0.9118800E+02  0.7816164E-02  0.1184000E+00
        -11   -1    0    0    0    0  0.00000000000E+00  0.00000000000E+00  0.45593999997E+02  0.45594000000E+02  0.51100000000E-03 0. -1.
         11   -1    0    0    0    0 -0.00000000000E+00 -0.00000000000E+00 -0.45593999997E+02  0.45594000000E+02  0.51100000000E-03 0.  1.
         23    2    1    2    0    0  0.00000000000E+00  0.17763568394E-14  0.71054273576E-14  0.91188000000E+02  0.91188000000E+02 0.  0.
    9900012    2    3    3    0    0 -0.30679711488E+01  0.10366479190E+02  0.35198057635E+02  0.54367087477E+02  0.40000007521E+02 0.  0.
        -12    1    3    3    0    0  0.30679711488E+01 -0.10366479190E+02 -0.35198057635E+02  0.36820912523E+02  0.00000000000E+00 0.  1.
         11    1    4    4    0    0 -0.30797454653E+01  0.20905353016E+02  0.14711286365E+02  0.25747632195E+02  0.51100000000E-03 0. -1.
        -11    1    4    4    0    0  0.24300830865E+01 -0.66229092446E+01  0.22511699037E+02  0.23591202268E+02  0.51100000000E-03 0.  1.
         12    1    4    4    0    0 -0.24183087700E+01 -0.39159645814E+01 -0.20249277668E+01  0.50282530138E+01  0.00000000000E+00 0. -1.
</event>
<event>
 8    1  0.2401680E-006  0.9118800E+02  0.7816164E-02  0.1184000E+00
        -11   -1    0    0    0    0  0.00000000000E+00  0.00000000000E+00  0.45593999997E+02  0.45594000000E+02  0.51100000000E-03 0. -1.
         11   -1    0    0    0    0 -0.00000000000E+00 -0.00000000000E+00 -0.45593999997E+02  0.45594000000E+02  0.51100000000E-03 0.  1.
         23    2    1    2    0    0  0.00000000000E+00 -0.11102230246E-14 -0.35527136788E-14  0.91188000000E+02  0.91188000000E+02 0.  0.
    9900012    2    3    3    0    0  0.22812881046E+02 -0.85572169481E+00  0.28889775548E+02  0.54367096529E+02  0.40000028156E+02 0.  0.
        -12    1    3    3    0    0 -0.22812881046E+02  0.85572169481E+00 -0.28889775548E+02  0.36820903471E+02  0.00000000000E+00 0.  1.
         11    1    4    4    0    0  0.13568191178E+02 -0.88629020680E-01  0.15384654613E+02  0.20513197331E+02  0.51100000000E-03 0. -1.
        -11    1    4    4    0    0  0.87282812199E+01  0.53731828974E+01 -0.70204170668E+01  0.12423374886E+02  0.51100000000E-03 0.  1.
        -12    1    4    4    0    0  0.51640864827E+00 -0.61402755715E+01  0.20525538002E+02  0.21430524311E+02  0.00000000000E+00 0.  1.
</event>
<event>
 8    1  0.2401680E-006  0.9118800E+02  0.7816164E-02  0.1184000E+00
        -11   -1    0    0    0    0  0.00000000000E+00  0.00000000000E+00  0.45593999997E+02  0.45594000000E+02  0.51100000000E-03 0. -1.
         11   -1    0    0    0    0 -0.00000000000E+00 -0.00000000000E+00 -0.45593999997E+02  0.45594000000E+02  0.51100000000E-03 0.  1.
         23    2    1    2    0    0  0.00000000000E+00 -0.71054273576E-14  0.13322676296E-14  0.91188000000E+02  0.91188000000E+02 0.  0.
    9900012    2    3    3    0    0 -0.37099369078E+01 -0.36601060599E+02  0.15429412313E+01  0.54367055736E+02  0.39999935162E+02 0.  0.
         12    1    3    3    0    0  0.37099369078E+01  0.36601060599E+02 -0.15429412313E+01  0.36820944264E+02  0.00000000000E+00 0. -1.
         11    1    4    4    0    0  0.36110894906E+01 -0.36739133416E+02  0.27124940121E+01  0.37015692827E+02  0.51100000000E-03 0. -1.
        -11    1    4    4    0    0 -0.88246890549E+01 -0.45645486653E+01 -0.49811616996E+01  0.11114054776E+02  0.51100000000E-03 0.  1.
        -12    1    4    4    0    0  0.15036626565E+01  0.47026214825E+01  0.38116089188E+01  0.62373081327E+01  0.00000000000E+00 0.  1.
</event>
<event>
 8    1  0.2401680E-006  0.9118800E+02  0.7816164E-02  0.1184000E+00
        -11   -1    0    0    0    0  0.00000000000E+00  0.00000000000E+00  0.45593999997E+02  0.45594000000E+02  0.51100000000E-03 0.  1.
         11   -1    0    0    0    0 -0.00000000000E+00 -0.00000000000E+00 -0.45593999997E+02  0.45594000000E+02  0.51100000000E-03 0. -1.
         23    2    1    2    0    0 -0.88817841970E-15  0.17763568394E-14  0.71054273576E-14  0.91188000000E+02  0.91188000000E+02 0.  0.
    9900012    2    3    3    0    0  0.63394327295E+01 -0.10918970281E+02 -0.34588555627E+02  0.54367075247E+02  0.39999979640E+02 0.  0.
        -12    1    3    3    0    0 -0.63394327295E+01  0.10918970281E+02  0.34588555627E+02  0.36820924753E+02  0.00000000000E+00 0.  1.
         11    1    4    4    0    0 -0.85703044867E+01 -0.11774587008E+02 -0.11297840093E+01  0.14607102053E+02  0.51100000000E-03 0. -1.
        -11    1    4    4    0    0  0.20320687981E+01 -0.60156019547E+01 -0.14532682483E+02  0.15859244335E+02  0.51100000000E-03 0.  1.
        -12    1    4    4    0    0  0.12877668418E+02  0.68712186817E+01 -0.18926089135E+02  0.23900728859E+02  0.00000000000E+00 0.  1.
</event>
<event>
 8    1  0.2401680E-006  0.9118800E+02  0.7816164E-02  0.1184000E+00
        -11   -1    0    0    0    0  0.00000000000E+00  0.00000000000E+00  0.45593999997E+02  0.45594000000E+02  0.51100000000E-03 0.  1.
         11   -1    0    0    0    0 -0.00000000000E+00 -0.00000000000E+00 -0.45593999997E+02  0.45594000000E+02  0.51100000000E-03 0. -1.
         23    2    1    2    0    0  0.00000000000E+00  0.00000000000E+00  0.00000000000E+00  0.91188000000E+02  0.91188000000E+02 0.  0.
    9900012    2    3    3    0    0 -0.13987925285E+02  0.31572093505E+02 -0.12779700548E+02  0.54367083550E+02  0.39999998570E+02 0.  0.
        -12    1    3    3    0    0  0.13987925285E+02 -0.31572093505E+02  0.12779700548E+02  0.36820916450E+02  0.00000000000E+00 0.  1.
         11    1    4    4    0    0 -0.52266294320E+01  0.15953855329E+02 -0.23743976449E+01  0.16955262295E+02  0.51100000000E-03 0. -1.
        -11    1    4    4    0    0  0.60666913493E+01 -0.61635850609E+01 -0.64007280991E+01  0.10759360817E+02  0.51100000000E-03 0.  1.
        -12    1    4    4    0    0 -0.14827987202E+02  0.21781823238E+02 -0.40045748040E+01  0.26652460438E+02  0.00000000000E+00 0.  1.
</event>
<event>
 8    1  0.2401680E-006  0.9118800E+02  0.7816164E-02  0.1184000E+00
        -11   -1    0    0    0    0  0.00000000000E+00  0.00000000000E+00  0.45593999997E+02  0.45594000000E+02  0.51100000000E-03 0.  1.
         11   -1    0    0    0    0 -0.00000000000E+00 -0.00000000000E+00 -0.45593999997E+02  0.45594000000E+02  0.51100000000E-03 0. -1.
         23    2    1    2    0    0 -0.35527136788E-14 -0.88817841970E-15  0.00000000000E+00  0.91188000000E+02  0.91188000000E+02 0.  0.
    9900012    2    3    3    0    0  0.23608628760E+02 -0.54855156334E+01 -0.27718610539E+02  0.54367087411E+02  0.40000007371E+02 0.  0.
        -12    1    3    3    0    0 -0.23608628760E+02  0.54855156334E+01  0.27718610539E+02  0.36820912589E+02  0.00000000000E+00 0.  1.
         11    1    4    4    0    0  0.91927399065E+01  0.67745565562E+01 -0.95080178884E+01  0.14859457862E+02  0.51100000000E-03 0. -1.
        -11    1    4    4    0    0  0.11630562357E+02  0.54745413252E+01 -0.17272799358E+02  0.21531144451E+02  0.51100000000E-03 0.  1.
        -12    1    4    4    0    0  0.27853264957E+01 -0.17734613515E+02 -0.93779329255E+00  0.17976485098E+02  0.00000000000E+00 0.  1.
</event>
<event>
 8    1  0.2401680E-006  0.9118800E+02  0.7816164E-02  0.1184000E+00
        -11   -1    0    0    0    0  0.00000000000E+00  0.00000000000E+00  0.45593999997E+02  0.45594000000E+02  0.51100000000E-03 0. -1.
         11   -1    0    0    0    0 -0.00000000000E+00 -0.00000000000E+00 -0.45593999997E+02  0.45594000000E+02  0.51100000000E-03 0.  1.
         23    2    1    2    0    0  0.35527136788E-14 -0.35527136788E-14  0.35527136788E-14  0.91188000000E+02  0.91188000000E+02 0.  0.
    9900012    2    3    3    0    0  0.18978611105E+02 -0.29943429372E+02  0.99490805540E+01  0.54367070545E+02  0.39999968921E+02 0.  0.
        -12    1    3    3    0    0 -0.18978611105E+02  0.29943429372E+02 -0.99490805540E+01  0.36820929455E+02  0.00000000000E+00 0.  1.
         11    1    4    4    0    0  0.49200028353E+01 -0.26073064936E+02  0.17043560019E+02  0.31535600224E+02  0.51100000000E-03 0. -1.
        -11    1    4    4    0    0  0.57955256774E+01  0.38973128250E+01  0.30448399048E+01  0.76189379470E+01  0.51100000000E-03 0.  1.
        -12    1    4    4    0    0  0.82630825925E+01 -0.77676772610E+01 -0.10139319370E+02  0.15212532374E+02  0.00000000000E+00 0.  1.
</event>
<event>
 8    1  0.2401680E-006  0.9118800E+02  0.7816164E-02  0.1184000E+00
        -11   -1    0    0    0    0  0.00000000000E+00  0.00000000000E+00  0.45593999997E+02  0.45594000000E+02  0.51100000000E-03 0.  1.
         11   -1    0    0    0    0 -0.00000000000E+00 -0.00000000000E+00 -0.45593999997E+02  0.45594000000E+02  0.51100000000E-03 0. -1.
         23    2    1    2    0    0  0.00000000000E+00  0.71054273576E-14 -0.88817841970E-15  0.91188000000E+02  0.91188000000E+02 0.  0.
    9900012    2    3    3    0    0 -0.11734171988E+02  0.34187480952E+02  0.70218142368E+01  0.54367074954E+02  0.39999978972E+02 0.  0.
         12    1    3    3    0    0  0.11734171988E+02 -0.34187480952E+02 -0.70218142368E+01  0.36820925046E+02  0.00000000000E+00 0. -1.
         11    1    4    4    0    0 -0.52587321483E+01  0.13715512084E+02 -0.56074536409E+01  0.15723010912E+02  0.51100000000E-03 0. -1.
        -11    1    4    4    0    0 -0.51688801072E+01  0.12250720138E+02 -0.86038787882E+01  0.15837430219E+02  0.51100000000E-03 0.  1.
        -12    1    4    4    0    0 -0.13065597330E+01  0.82212487300E+01  0.21233146666E+02  0.22806633823E+02  0.00000000000E+00 0.  1.
</event>
<event>
 8    1  0.2401680E-006  0.9118800E+02  0.7816164E-02  0.1184000E+00
        -11   -1    0    0    0    0  0.00000000000E+00  0.00000000000E+00  0.45593999997E+02  0.45594000000E+02  0.51100000000E-03 0. -1.
         11   -1    0    0    0    0 -0.00000000000E+00 -0.00000000000E+00 -0.45593999997E+02  0.45594000000E+02  0.51100000000E-03 0.  1.
         23    2    1    2    0    0  0.00000000000E+00  0.00000000000E+00  0.00000000000E+00  0.91188000000E+02  0.91188000000E+02 0.  0.
    9900012    2    3    3    0    0  0.11737896147E+01  0.19602483652E+02 -0.31147142931E+02  0.54367086647E+02  0.40000005629E+02 0.  0.
         12    1    3    3    0    0 -0.11737896147E+01 -0.19602483652E+02  0.31147142931E+02  0.36820913353E+02  0.00000000000E+00 0. -1.
         11    1    4    4    0    0  0.80191894948E+00  0.10165504935E+02  0.44813548253E+01  0.11138361905E+02  0.51100000000E-03 0. -1.
        -11    1    4    4    0    0  0.32898517209E+01  0.98153801159E+01 -0.38040588878E+02  0.39423992867E+02  0.51100000000E-03 0.  1.
        -12    1    4    4    0    0 -0.29179810557E+01 -0.37840139914E+00  0.24120911217E+01  0.38047318749E+01  0.00000000000E+00 0.  1.
</event>
<event>
 8    1  0.2401680E-006  0.9118800E+02  0.7816164E-02  0.1184000E+00
        -11   -1    0    0    0    0  0.00000000000E+00  0.00000000000E+00  0.45593999997E+02  0.45594000000E+02  0.51100000000E-03 0.  1.
         11   -1    0    0    0    0 -0.00000000000E+00 -0.00000000000E+00 -0.45593999997E+02  0.45594000000E+02  0.51100000000E-03 0. -1.
         23    2    1    2    0    0 -0.17763568394E-14  0.00000000000E+00  0.71054273576E-14  0.91188000000E+02  0.91188000000E+02 0.  0.
    9900012    2    3    3    0    0 -0.13550203459E+02 -0.13414937324E+02  0.31499378790E+02  0.54367089890E+02  0.40000013022E+02 0.  0.
         12    1    3    3    0    0  0.13550203459E+02  0.13414937324E+02 -0.31499378790E+02  0.36820910110E+02  0.00000000000E+00 0. -1.
         11    1    4    4    0    0 -0.41594559472E+01  0.97949025011E+01  0.18920666856E+02  0.21707897718E+02  0.51100000000E-03 0.  1.
        -11    1    4    4    0    0  0.24041833860E+01 -0.14691949877E+02  0.28515995161E+01  0.15158004783E+02  0.51100000000E-03 0. -1.
        -12    1    4    4    0    0 -0.11794930898E+02 -0.85178899479E+01  0.97271124180E+01  0.17501187389E+02  0.00000000000E+00 0.  1.
</event>
<event>
 8    1  0.2401680E-006  0.9118800E+02  0.7816164E-02  0.1184000E+00
        -11   -1    0    0    0    0  0.00000000000E+00  0.00000000000E+00  0.45593999997E+02  0.45594000000E+02  0.51100000000E-03 0. -1.
         11   -1    0    0    0    0 -0.00000000000E+00 -0.00000000000E+00 -0.45593999997E+02  0.45594000000E+02  0.51100000000E-03 0.  1.
         23    2    1    2    0    0 -0.35527136788E-14  0.35527136788E-14  0.17763568394E-14  0.91188000000E+02  0.91188000000E+02 0.  0.
    9900012    2    3    3    0    0  0.18333539335E+02 -0.29262128200E+02 -0.12782346412E+02  0.54367093015E+02  0.40000020147E+02 0.  0.
         12    1    3    3    0    0 -0.18333539335E+02  0.29262128200E+02  0.12782346412E+02  0.36820906985E+02  0.00000000000E+00 0. -1.
         11    1    4    4    0    0 -0.58847848850E+01  0.37447718233E+01  0.64597424998E+00  0.70050904451E+01  0.51100000000E-03 0. -1.
        -11    1    4    4    0    0  0.13836976810E+02 -0.29809764623E+02 -0.42446804225E+01  0.33137611656E+02  0.51100000000E-03 0.  1.
        -12    1    4    4    0    0  0.10381347411E+02 -0.31971354005E+01 -0.91836402394E+01  0.14224390914E+02  0.00000000000E+00 0.  1.
</event>
<event>
 8    1  0.2401680E-006  0.9118800E+02  0.7816164E-02  0.1184000E+00
        -11   -1    0    0    0    0  0.00000000000E+00  0.00000000000E+00  0.45593999997E+02  0.45594000000E+02  0.51100000000E-03 0.  1.
         11   -1    0    0    0    0 -0.00000000000E+00 -0.00000000000E+00 -0.45593999997E+02  0.45594000000E+02  0.51100000000E-03 0. -1.
         23    2    1    2    0    0  0.00000000000E+00 -0.17763568394E-14  0.35527136788E-14  0.91188000000E+02  0.91188000000E+02 0.  0.
    9900012    2    3    3    0    0  0.15939594847E+02 -0.14998651829E+02  0.29610164534E+02  0.54366917937E+02  0.39999621018E+02 0.  0.
         12    1    3    3    0    0 -0.15939594847E+02  0.14998651829E+02 -0.29610164534E+02  0.36821082063E+02  0.00000000000E+00 0. -1.
         11    1    4    4    0    0  0.10823940638E+02 -0.25048765062E+02  0.10957795421E+02  0.29405298890E+02  0.51100000000E-03 0. -1.
        -11    1    4    4    0    0  0.43868053728E+01  0.90375437116E+00  0.13950134231E+02  0.14651521377E+02  0.51100000000E-03 0.  1.
         12    1    4    4    0    0  0.72884883590E+00  0.91463588618E+01  0.47022348819E+01  0.10310097669E+02  0.00000000000E+00 0. -1.
</event>
<event>
 8    1  0.2401680E-006  0.9118800E+02  0.7816164E-02  0.1184000E+00
        -11   -1    0    0    0    0  0.00000000000E+00  0.00000000000E+00  0.45593999997E+02  0.45594000000E+02  0.51100000000E-03 0. -1.
         11   -1    0    0    0    0 -0.00000000000E+00 -0.00000000000E+00 -0.45593999997E+02  0.45594000000E+02  0.51100000000E-03 0.  1.
         23    2    1    2    0    0 -0.44408920985E-15 -0.35527136788E-14  0.00000000000E+00  0.91188000000E+02  0.91188000000E+02 0.  0.
    9900012    2    3    3    0    0  0.28300484643E+01  0.29302869271E+02 -0.22115881799E+02  0.54367088148E+02  0.40000009052E+02 0.  0.
         12    1    3    3    0    0 -0.28300484643E+01 -0.29302869271E+02  0.22115881799E+02  0.36820911852E+02  0.00000000000E+00 0. -1.
         11    1    4    4    0    0 -0.78959358481E+01 -0.62367714238E+01 -0.90741664800E+01  0.13549303240E+02  0.51100000000E-03 0. -1.
        -11    1    4    4    0    0  0.18545190806E+01  0.16179497145E+02 -0.10485215729E+02  0.19368921448E+02  0.51100000000E-03 0.  1.
         12    1    4    4    0    0  0.88714652318E+01  0.19360143550E+02 -0.25564995899E+01  0.21448863461E+02  0.00000000000E+00 0. -1.
</event>
<event>
 8    1  0.2401680E-006  0.9118800E+02  0.7816164E-02  0.1184000E+00
        -11   -1    0    0    0    0  0.00000000000E+00  0.00000000000E+00  0.45593999997E+02  0.45594000000E+02  0.51100000000E-03 0.  1.
         11   -1    0    0    0    0 -0.00000000000E+00 -0.00000000000E+00 -0.45593999997E+02  0.45594000000E+02  0.51100000000E-03 0. -1.
         23    2    1    2    0    0  0.00000000000E+00  0.44408920985E-15  0.88817841970E-15  0.91188000000E+02  0.91188000000E+02 0.  0.
    9900012    2    3    3    0    0  0.36255089108E+02  0.38550139302E+01  0.51462998206E+01  0.54367122492E+02  0.40000087344E+02 0.  0.
        -12    1    3    3    0    0 -0.36255089108E+02 -0.38550139302E+01 -0.51462998206E+01  0.36820877508E+02  0.00000000000E+00 0.  1.
         11    1    4    4    0    0  0.96329633337E+01 -0.88051359530E+01 -0.86149229637E+01  0.15637816333E+02  0.51100000000E-03 0. -1.
        -11    1    4    4    0    0  0.15517675033E+02 -0.30539337210E+01  0.14398755165E+01  0.15880742784E+02  0.51100000000E-03 0.  1.
         12    1    4    4    0    0  0.11104450742E+02  0.15714083604E+02  0.12321347268E+02  0.22848563375E+02  0.00000000000E+00 0. -1.
</event>
<event>
 8    1  0.2401680E-006  0.9118800E+02  0.7816164E-02  0.1184000E+00
        -11   -1    0    0    0    0  0.00000000000E+00  0.00000000000E+00  0.45593999997E+02  0.45594000000E+02  0.51100000000E-03 0.  1.
         11   -1    0    0    0    0 -0.00000000000E+00 -0.00000000000E+00 -0.45593999997E+02  0.45594000000E+02  0.51100000000E-03 0. -1.
         23    2    1    2    0    0  0.00000000000E+00  0.17763568394E-14  0.00000000000E+00  0.91188000000E+02  0.91188000000E+02 0.  0.
    9900012    2    3    3    0    0 -0.38361941528E+01  0.14564996075E+02  0.33599488139E+02  0.54367067103E+02  0.39999961074E+02 0.  0.
         12    1    3    3    0    0  0.38361941528E+01 -0.14564996075E+02 -0.33599488139E+02  0.36820932897E+02  0.00000000000E+00 0. -1.
         11    1    4    4    0    0  0.15670448909E+01  0.57419327711E+01  0.97834935295E+01  0.11451732076E+02  0.51100000000E-03 0. -1.
        -11    1    4    4    0    0  0.76300815716E+01  0.18001201968E+02  0.10802762717E+02  0.22337437178E+02  0.51100000000E-03 0.  1.
        -12    1    4    4    0    0 -0.13033320615E+02 -0.91781386644E+01  0.13013231892E+02  0.20577897849E+02  0.00000000000E+00 0.  1.
</event>
<event>
 8    1  0.2401680E-006  0.9118800E+02  0.7816164E-02  0.1184000E+00
        -11   -1    0    0    0    0  0.00000000000E+00  0.00000000000E+00  0.45593999997E+02  0.45594000000E+02  0.51100000000E-03 0.  1.
         11   -1    0    0    0    0 -0.00000000000E+00 -0.00000000000E+00 -0.45593999997E+02  0.45594000000E+02  0.51100000000E-03 0. -1.
         23    2    1    2    0    0  0.00000000000E+00  0.00000000000E+00 -0.35527136788E-14  0.91188000000E+02  0.91188000000E+02 0.  0.
    9900012    2    3    3    0    0 -0.94131344184E+01 -0.16152932189E+02  0.31721529834E+02  0.54367085116E+02  0.40000002140E+02 0.  0.
         12    1    3    3    0    0  0.94131344184E+01  0.16152932189E+02 -0.31721529834E+02  0.36820914884E+02  0.00000000000E+00 0. -1.
         11    1    4    4    0    0  0.67309259661E+01 -0.17783634042E+02  0.31819409542E+02  0.37068016240E+02  0.51100000000E-03 0. -1.
        -11    1    4    4    0    0 -0.12548155644E+02  0.21563791950E+01  0.23095563634E+01  0.12939869866E+02  0.51100000000E-03 0.  1.
         12    1    4    4    0    0 -0.35959047410E+01 -0.52567734181E+00 -0.24074360718E+01  0.43591990106E+01  0.00000000000E+00 0. -1.
</event>
<event>
 8    1  0.2401680E-006  0.9118800E+02  0.7816164E-02  0.1184000E+00
        -11   -1    0    0    0    0  0.00000000000E+00  0.00000000000E+00  0.45593999997E+02  0.45594000000E+02  0.51100000000E-03 0. -1.
         11   -1    0    0    0    0 -0.00000000000E+00 -0.00000000000E+00 -0.45593999997E+02  0.45594000000E+02  0.51100000000E-03 0.  1.
         23    2    1    2    0    0  0.00000000000E+00 -0.35527136788E-14 -0.44408920985E-15  0.91188000000E+02  0.91188000000E+02 0.  0.
    9900012    2    3    3    0    0  0.32940499215E+02  0.16313705268E+02  0.21371063651E+01  0.54367072639E+02  0.39999973696E+02 0.  0.
        -12    1    3    3    0    0 -0.32940499215E+02 -0.16313705268E+02 -0.21371063651E+01  0.36820927361E+02  0.00000000000E+00 0.  1.
         11    1    4    4    0    0  0.17848680844E+02  0.12903162356E+02  0.17133413384E+02  0.27903778617E+02  0.51100000000E-03 0. -1.
        -11    1    4    4    0    0  0.92835810440E+01 -0.48747066269E+01 -0.11946116090E+02  0.15895198382E+02  0.51100000000E-03 0.  1.
        -12    1    4    4    0    0  0.58082373266E+01  0.82852495388E+01 -0.30501909292E+01  0.10568095641E+02  0.00000000000E+00 0.  1.
</event>
<event>
 8    1  0.2401680E-006  0.9118800E+02  0.7816164E-02  0.1184000E+00
        -11   -1    0    0    0    0  0.00000000000E+00  0.00000000000E+00  0.45593999997E+02  0.45594000000E+02  0.51100000000E-03 0.  1.
         11   -1    0    0    0    0 -0.00000000000E+00 -0.00000000000E+00 -0.45593999997E+02  0.45594000000E+02  0.51100000000E-03 0. -1.
         23    2    1    2    0    0 -0.17763568394E-14  0.13322676296E-14  0.00000000000E+00  0.91188000000E+02  0.91188000000E+02 0.  0.
    9900012    2    3    3    0    0 -0.88733493122E+00  0.28115931964E+01  0.36702664985E+02  0.54367108693E+02  0.40000055888E+02 0.  0.
         12    1    3    3    0    0  0.88733493122E+00 -0.28115931964E+01 -0.36702664985E+02  0.36820891307E+02  0.00000000000E+00 0. -1.
         11    1    4    4    0    0  0.62043452640E+01 -0.36192942351E+01 -0.32426066086E+01  0.78808431525E+01  0.51100000000E-03 0. -1.
        -11    1    4    4    0    0 -0.11166235424E+02  0.12089861203E+02  0.31447840336E+02  0.35493889890E+02  0.51100000000E-03 0.  1.
        -12    1    4    4    0    0  0.40745552289E+01 -0.56589737718E+01  0.84974312580E+01  0.10992375651E+02  0.00000000000E+00 0.  1.
</event>
<event>
 8    1  0.2401680E-006  0.9118800E+02  0.7816164E-02  0.1184000E+00
        -11   -1    0    0    0    0  0.00000000000E+00  0.00000000000E+00  0.45593999997E+02  0.45594000000E+02  0.51100000000E-03 0. -1.
         11   -1    0    0    0    0 -0.00000000000E+00 -0.00000000000E+00 -0.45593999997E+02  0.45594000000E+02  0.51100000000E-03 0.  1.
         23    2    1    2    0    0  0.00000000000E+00  0.00000000000E+00  0.00000000000E+00  0.91188000000E+02  0.91188000000E+02 0.  0.
    9900012    2    3    3    0    0  0.25374232590E+01 -0.21534291684E+02 -0.29759292978E+02  0.54367085377E+02  0.40000002733E+02 0.  0.
         12    1    3    3    0    0 -0.25374232590E+01  0.21534291684E+02  0.29759292978E+02  0.36820914623E+02  0.00000000000E+00 0. -1.
         11    1    4    4    0    0  0.25738206880E+01  0.78521797628E+01 -0.41024592823E+01  0.92255868315E+01  0.51100000000E-03 0. -1.
        -11    1    4    4    0    0  0.29921759846E+01  0.29130769331E+01 -0.75233878931E+00  0.42432473715E+01  0.51100000000E-03 0.  1.
        -12    1    4    4    0    0 -0.30285734136E+01 -0.32299548380E+02 -0.24904494907E+02  0.40898251174E+02  0.00000000000E+00 0.  1.
</event>
<event>
 8    1  0.2401680E-006  0.9118800E+02  0.7816164E-02  0.1184000E+00
        -11   -1    0    0    0    0  0.00000000000E+00  0.00000000000E+00  0.45593999997E+02  0.45594000000E+02  0.51100000000E-03 0.  1.
         11   -1    0    0    0    0 -0.00000000000E+00 -0.00000000000E+00 -0.45593999997E+02  0.45594000000E+02  0.51100000000E-03 0. -1.
         23    2    1    2    0    0 -0.44408920985E-15  0.00000000000E+00  0.66613381478E-15  0.91188000000E+02  0.91188000000E+02 0.  0.
    9900012    2    3    3    0    0 -0.26045863408E+01 -0.36686042587E+02  0.17709831241E+01  0.54367000938E+02  0.39999810238E+02 0.  0.
        -12    1    3    3    0    0  0.26045863408E+01  0.36686042587E+02 -0.17709831241E+01  0.36820999062E+02  0.00000000000E+00 0.  1.
         11    1    4    4    0    0 -0.15888987996E+01 -0.18644638749E+02 -0.35006954825E+01  0.19036859578E+02  0.51100000000E-03 0. -1.
        -11    1    4    4    0    0  0.13346263152E+02 -0.11687280954E+02 -0.23118748662E+01  0.17890221962E+02  0.51100000000E-03 0.  1.
        -12    1    4    4    0    0 -0.14361950693E+02 -0.63541228845E+01  0.75835534728E+01  0.17439919398E+02  0.00000000000E+00 0.  1.
</event>
<event>
 8    1  0.2401680E-006  0.9118800E+02  0.7816164E-02  0.1184000E+00
        -11   -1    0    0    0    0  0.00000000000E+00  0.00000000000E+00  0.45593999997E+02  0.45594000000E+02  0.51100000000E-03 0. -1.
         11   -1    0    0    0    0 -0.00000000000E+00 -0.00000000000E+00 -0.45593999997E+02  0.45594000000E+02  0.51100000000E-03 0.  1.
         23    2    1    2    0    0  0.44408920985E-15  0.00000000000E+00  0.00000000000E+00  0.91188000000E+02  0.91188000000E+02 0.  0.
    9900012    2    3    3    0    0  0.10111694137E+01 -0.35130217151E+02  0.10983003271E+02  0.54367068704E+02  0.39999964724E+02 0.  0.
        -12    1    3    3    0    0 -0.10111694137E+01  0.35130217151E+02 -0.10983003271E+02  0.36820931296E+02  0.00000000000E+00 0.  1.
         11    1    4    4    0    0  0.11220549027E+02 -0.29766783702E+02  0.91314427144E+00  0.31824455457E+02  0.51100000000E-03 0. -1.
        -11    1    4    4    0    0 -0.11862446958E+02 -0.58908351328E+01  0.97140518303E+00  0.13280181275E+02  0.51100000000E-03 0.  1.
         12    1    4    4    0    0  0.16530673445E+01  0.52740168341E+00  0.90984538168E+01  0.92624319721E+01  0.00000000000E+00 0. -1.
</event>
<event>
 8    1  0.2401680E-006  0.9118800E+02  0.7816164E-02  0.1184000E+00
        -11   -1    0    0    0    0  0.00000000000E+00  0.00000000000E+00  0.45593999997E+02  0.45594000000E+02  0.51100000000E-03 0.  1.
         11   -1    0    0    0    0 -0.00000000000E+00 -0.00000000000E+00 -0.45593999997E+02  0.45594000000E+02  0.51100000000E-03 0. -1.
         23    2    1    2    0    0  0.13322676296E-14  0.17763568394E-14 -0.71054273576E-14  0.91188000000E+02  0.91188000000E+02 0.  0.
    9900012    2    3    3    0    0  0.21974460707E+01  0.82715321399E+01 -0.35812475588E+02  0.54367076317E+02  0.39999982079E+02 0.  0.
        -12    1    3    3    0    0 -0.21974460707E+01 -0.82715321399E+01  0.35812475588E+02  0.36820923683E+02  0.00000000000E+00 0.  1.
         11    1    4    4    0    0  0.17229656991E+02  0.67085056108E+01 -0.33759187876E+02  0.38490880659E+02  0.51100000000E-03 0. -1.
        -11    1    4    4    0    0 -0.34833389134E+01  0.22938179760E+01 -0.51588176254E+00  0.42025450797E+01  0.51100000000E-03 0.  1.
         12    1    4    4    0    0 -0.11548872007E+02 -0.73079144692E+00 -0.15374059488E+01  0.11673650578E+02  0.00000000000E+00 0. -1.
</event>
<event>
 8    1  0.2401680E-006  0.9118800E+02  0.7816164E-02  0.1184000E+00
        -11   -1    0    0    0    0  0.00000000000E+00  0.00000000000E+00  0.45593999997E+02  0.45594000000E+02  0.51100000000E-03 0. -1.
         11   -1    0    0    0    0 -0.00000000000E+00 -0.00000000000E+00 -0.45593999997E+02  0.45594000000E+02  0.51100000000E-03 0.  1.
         23    2    1    2    0    0  0.00000000000E+00  0.00000000000E+00 -0.19428902931E-14  0.91188000000E+02  0.91188000000E+02 0.  0.
    9900012    2    3    3    0    0  0.32865783899E+02  0.16599846277E+02 -0.25557530923E+00  0.54367082487E+02  0.39999996147E+02 0.  0.
        -12    1    3    3    0    0 -0.32865783899E+02 -0.16599846277E+02  0.25557530923E+00  0.36820917513E+02  0.00000000000E+00 0.  1.
         11    1    4    4    0    0  0.18957821596E+01  0.23564297193E+01  0.40997155106E+01  0.50945479238E+01  0.51100000000E-03 0. -1.
        -11    1    4    4    0    0 -0.26089250808E+01  0.80713249228E+01  0.92224961252E+01  0.12530251838E+02  0.51100000000E-03 0.  1.
        -12    1    4    4    0    0  0.33578926821E+02  0.61720916344E+01 -0.13577786945E+02  0.36742282726E+02  0.00000000000E+00 0.  1.
</event>
<event>
 8    1  0.2401680E-006  0.9118800E+02  0.7816164E-02  0.1184000E+00
        -11   -1    0    0    0    0  0.00000000000E+00  0.00000000000E+00  0.45593999997E+02  0.45594000000E+02  0.51100000000E-03 0.  1.
         11   -1    0    0    0    0 -0.00000000000E+00 -0.00000000000E+00 -0.45593999997E+02  0.45594000000E+02  0.51100000000E-03 0. -1.
         23    2    1    2    0    0 -0.11102230246E-14  0.00000000000E+00 -0.35527136788E-14  0.91188000000E+02  0.91188000000E+02 0.  0.
    9900012    2    3    3    0    0 -0.72275076064E+00 -0.18563940658E+02 -0.31790536553E+02  0.54367075572E+02  0.39999980381E+02 0.  0.
        -12    1    3    3    0    0  0.72275076064E+00  0.18563940658E+02  0.31790536553E+02  0.36820924428E+02  0.00000000000E+00 0.  1.
         11    1    4    4    0    0 -0.10606268014E+02 -0.10680737257E+02 -0.32056414036E+02  0.35414470922E+02  0.51100000000E-03 0. -1.
        -11    1    4    4    0    0 -0.35343918399E+01 -0.62899679089E+00 -0.74280724446E+00  0.36659685630E+01  0.51100000000E-03 0.  1.
         12    1    4    4    0    0  0.13417909093E+02 -0.72542066098E+01  0.10086847280E+01  0.15286636087E+02  0.00000000000E+00 0. -1.
</event>
<event>
 8    1  0.2401680E-006  0.9118800E+02  0.7816164E-02  0.1184000E+00
        -11   -1    0    0    0    0  0.00000000000E+00  0.00000000000E+00  0.45593999997E+02  0.45594000000E+02  0.51100000000E-03 0.  1.
         11   -1    0    0    0    0 -0.00000000000E+00 -0.00000000000E+00 -0.45593999997E+02  0.45594000000E+02  0.51100000000E-03 0. -1.
         23    2    1    2    0    0 -0.17763568394E-14  0.00000000000E+00  0.00000000000E+00  0.91188000000E+02  0.91188000000E+02 0.  0.
    9900012    2    3    3    0    0  0.15476107318E+02  0.51542963308E+01 -0.33010656331E+02  0.54367080677E+02  0.39999992019E+02 0.  0.
        -12    1    3    3    0    0 -0.15476107318E+02 -0.51542963308E+01  0.33010656331E+02  0.36820919323E+02  0.00000000000E+00 0.  1.
         11    1    4    4    0    0 -0.52298327408E+01 -0.31811218414E+00  0.22293035832E+01  0.56940443084E+01  0.51100000000E-03 0. -1.
        -11    1    4    4    0    0  0.13457673354E+02  0.12003954221E+02 -0.79811003822E+01  0.19720594632E+02  0.51100000000E-03 0.  1.
         12    1    4    4    0    0  0.72482667045E+01 -0.65315457060E+01 -0.27258859532E+02  0.28952441737E+02  0.00000000000E+00 0. -1.
</event>
<event>
 8    1  0.2401680E-006  0.9118800E+02  0.7816164E-02  0.1184000E+00
        -11   -1    0    0    0    0  0.00000000000E+00  0.00000000000E+00  0.45593999997E+02  0.45594000000E+02  0.51100000000E-03 0.  1.
         11   -1    0    0    0    0 -0.00000000000E+00 -0.00000000000E+00 -0.45593999997E+02  0.45594000000E+02  0.51100000000E-03 0. -1.
         23    2    1    2    0    0  0.17763568394E-14  0.22204460493E-15  0.00000000000E+00  0.91188000000E+02  0.91188000000E+02 0.  0.
    9900012    2    3    3    0    0  0.97691556192E+01  0.86462750611E+00 -0.35490768494E+02  0.54367100628E+02  0.40000037502E+02 0.  0.
        -12    1    3    3    0    0 -0.97691556192E+01 -0.86462750611E+00  0.35490768494E+02  0.36820899372E+02  0.00000000000E+00 0.  1.
         11    1    4    4    0    0 -0.16295270142E+01  0.33566176186E+01 -0.32486081448E+02  0.32699659451E+02  0.51100000000E-03 0. -1.
        -11    1    4    4    0    0 -0.48902461865E+01  0.42517205033E+00 -0.58658605643E+00  0.49436183611E+01  0.51100000000E-03 0.  1.
         12    1    4    4    0    0  0.16288928820E+02 -0.29171621628E+01 -0.24181009898E+01  0.16723822816E+02  0.00000000000E+00 0. -1.
</event>
<event>
 8    1  0.2401680E-006  0.9118800E+02  0.7816164E-02  0.1184000E+00
        -11   -1    0    0    0    0  0.00000000000E+00  0.00000000000E+00  0.45593999997E+02  0.45594000000E+02  0.51100000000E-03 0. -1.
         11   -1    0    0    0    0 -0.00000000000E+00 -0.00000000000E+00 -0.45593999997E+02  0.45594000000E+02  0.51100000000E-03 0.  1.
         23    2    1    2    0    0  0.17763568394E-14  0.00000000000E+00  0.00000000000E+00  0.91188000000E+02  0.91188000000E+02 0.  0.
    9900012    2    3    3    0    0  0.15874373737E+02 -0.37147702002E+01 -0.33014911338E+02  0.54367087059E+02  0.40000006568E+02 0.  0.
         12    1    3    3    0    0 -0.15874373737E+02  0.37147702002E+01  0.33014911338E+02  0.36820912941E+02  0.00000000000E+00 0. -1.
         11    1    4    4    0    0  0.14859198175E+02  0.32209012471E+01 -0.34785692060E+01  0.15597128557E+02  0.51100000000E-03 0. -1.
        -11    1    4    4    0    0 -0.10873424777E+02 -0.10324697554E+01 -0.82652399240E+01  0.13697136615E+02  0.51100000000E-03 0.  1.
        -12    1    4    4    0    0  0.11888600339E+02 -0.59032016919E+01 -0.21271102208E+02  0.25072821887E+02  0.00000000000E+00 0.  1.
</event>
<event>
 8    1  0.2401680E-006  0.9118800E+02  0.7816164E-02  0.1184000E+00
        -11   -1    0    0    0    0  0.00000000000E+00  0.00000000000E+00  0.45593999997E+02  0.45594000000E+02  0.51100000000E-03 0.  1.
         11   -1    0    0    0    0 -0.00000000000E+00 -0.00000000000E+00 -0.45593999997E+02  0.45594000000E+02  0.51100000000E-03 0. -1.
         23    2    1    2    0    0 -0.17763568394E-14  0.00000000000E+00  0.35527136788E-14  0.91188000000E+02  0.91188000000E+02 0.  0.
    9900012    2    3    3    0    0  0.11520041369E+02 -0.16177494737E+02 -0.31005761339E+02  0.54367083046E+02  0.39999997420E+02 0.  0.
        -12    1    3    3    0    0 -0.11520041369E+02  0.16177494737E+02  0.31005761339E+02  0.36820916954E+02  0.00000000000E+00 0.  1.
         11    1    4    4    0    0  0.10310386342E+02 -0.14583620833E+01 -0.13087240189E+00  0.10413837638E+02  0.51100000000E-03 0. -1.
        -11    1    4    4    0    0 -0.16850482675E+01  0.22190481650E+01  0.41161303136E+01  0.49705222504E+01  0.51100000000E-03 0.  1.
         12    1    4    4    0    0  0.28947032942E+01 -0.16938180819E+02 -0.34991019251E+02  0.38982723158E+02  0.00000000000E+00 0. -1.
</event>
<event>
 8    1  0.2401680E-006  0.9118800E+02  0.7816164E-02  0.1184000E+00
        -11   -1    0    0    0    0  0.00000000000E+00  0.00000000000E+00  0.45593999997E+02  0.45594000000E+02  0.51100000000E-03 0. -1.
         11   -1    0    0    0    0 -0.00000000000E+00 -0.00000000000E+00 -0.45593999997E+02  0.45594000000E+02  0.51100000000E-03 0.  1.
         23    2    1    2    0    0  0.00000000000E+00  0.17763568394E-14  0.00000000000E+00  0.91188000000E+02  0.91188000000E+02 0.  0.
    9900012    2    3    3    0    0  0.26962716634E+02  0.15158187729E+02 -0.19975525261E+02  0.54367077239E+02  0.39999984182E+02 0.  0.
         12    1    3    3    0    0 -0.26962716634E+02 -0.15158187729E+02  0.19975525261E+02  0.36820922761E+02  0.00000000000E+00 0. -1.
         11    1    4    4    0    0 -0.53823435478E+01  0.18905557682E+01  0.42069640669E+01  0.70881852473E+01  0.51100000000E-03 0. -1.
        -11    1    4    4    0    0  0.10393293870E+01  0.81657176943E+01 -0.17131942794E+01  0.84079834644E+01  0.51100000000E-03 0.  1.
        -12    1    4    4    0    0  0.31305730795E+02  0.51019142662E+01 -0.22469295049E+02  0.38870908527E+02  0.00000000000E+00 0.  1.
</event>
<event>
 8    1  0.2401680E-006  0.9118800E+02  0.7816164E-02  0.1184000E+00
        -11   -1    0    0    0    0  0.00000000000E+00  0.00000000000E+00  0.45593999997E+02  0.45594000000E+02  0.51100000000E-03 0.  1.
         11   -1    0    0    0    0 -0.00000000000E+00 -0.00000000000E+00 -0.45593999997E+02  0.45594000000E+02  0.51100000000E-03 0. -1.
         23    2    1    2    0    0  0.00000000000E+00 -0.17763568394E-14  0.00000000000E+00  0.91188000000E+02  0.91188000000E+02 0.  0.
    9900012    2    3    3    0    0  0.26665384253E+02  0.15430707452E+02  0.20165079638E+02  0.54367083572E+02  0.39999998620E+02 0.  0.
         12    1    3    3    0    0 -0.26665384253E+02 -0.15430707452E+02 -0.20165079638E+02  0.36820916428E+02  0.00000000000E+00 0. -1.
         11    1    4    4    0    0  0.10149796377E+02 -0.39306421592E+01  0.18873892175E+02  0.21787430329E+02  0.51100000000E-03 0. -1.
        -11    1    4    4    0    0  0.14901405289E+02  0.12428430205E+02  0.95913535496E+01  0.21645133867E+02  0.51100000000E-03 0.  1.
         12    1    4    4    0    0  0.16141825868E+01  0.69329194061E+01 -0.83001660867E+01  0.10934519376E+02  0.00000000000E+00 0. -1.
</event>
<event>
 8    1  0.2401680E-006  0.9118800E+02  0.7816164E-02  0.1184000E+00
        -11   -1    0    0    0    0  0.00000000000E+00  0.00000000000E+00  0.45593999997E+02  0.45594000000E+02  0.51100000000E-03 0.  1.
         11   -1    0    0    0    0 -0.00000000000E+00 -0.00000000000E+00 -0.45593999997E+02  0.45594000000E+02  0.51100000000E-03 0. -1.
         23    2    1    2    0    0  0.00000000000E+00  0.00000000000E+00 -0.17763568394E-14  0.91188000000E+02  0.91188000000E+02 0.  0.
    9900012    2    3    3    0    0  0.34440691338E+02  0.96037792367E+01  0.87970521103E+01  0.54367055942E+02  0.39999935631E+02 0.  0.
         12    1    3    3    0    0 -0.34440691338E+02 -0.96037792367E+01 -0.87970521103E+01  0.36820944058E+02  0.00000000000E+00 0. -1.
         11    1    4    4    0    0  0.54256056708E+01 -0.39421863766E+01  0.25010933826E+01  0.71577579376E+01  0.51100000000E-03 0. -1.
        -11    1    4    4    0    0  0.73346967175E+01  0.17141473185E+01  0.18269410467E+02  0.19761260994E+02  0.51100000000E-03 0.  1.
         12    1    4    4    0    0  0.21680388950E+02  0.11831818295E+02 -0.11973451740E+02  0.27448037011E+02  0.00000000000E+00 0. -1.
</event>
<event>
 8    1  0.2401680E-006  0.9118800E+02  0.7816164E-02  0.1184000E+00
        -11   -1    0    0    0    0  0.00000000000E+00  0.00000000000E+00  0.45593999997E+02  0.45594000000E+02  0.51100000000E-03 0.  1.
         11   -1    0    0    0    0 -0.00000000000E+00 -0.00000000000E+00 -0.45593999997E+02  0.45594000000E+02  0.51100000000E-03 0. -1.
         23    2    1    2    0    0  0.00000000000E+00  0.00000000000E+00  0.00000000000E+00  0.91188000000E+02  0.91188000000E+02 0.  0.
    9900012    2    3    3    0    0 -0.29732080399E+01 -0.28249586321E+02 -0.23428771384E+02  0.54366994827E+02  0.39999796306E+02 0.  0.
        -12    1    3    3    0    0  0.29732080399E+01  0.28249586321E+02  0.23428771384E+02  0.36821005173E+02  0.00000000000E+00 0.  1.
         11    1    4    4    0    0 -0.12745991206E+02 -0.51515481859E+01 -0.12879537472E+01  0.13807880563E+02  0.51100000000E-03 0. -1.
        -11    1    4    4    0    0 -0.31095623676E+01 -0.15766125209E+02 -0.29958990191E+01  0.16346727300E+02  0.51100000000E-03 0.  1.
         12    1    4    4    0    0  0.12882345533E+02 -0.73319129267E+01 -0.19144918618E+02  0.24212386964E+02  0.00000000000E+00 0. -1.
</event>
<event>
 8    1  0.2401680E-006  0.9118800E+02  0.7816164E-02  0.1184000E+00
        -11   -1    0    0    0    0  0.00000000000E+00  0.00000000000E+00  0.45593999997E+02  0.45594000000E+02  0.51100000000E-03 0.  1.
         11   -1    0    0    0    0 -0.00000000000E+00 -0.00000000000E+00 -0.45593999997E+02  0.45594000000E+02  0.51100000000E-03 0. -1.
         23    2    1    2    0    0  0.00000000000E+00 -0.88817841970E-15  0.00000000000E+00  0.91188000000E+02  0.91188000000E+02 0.  0.
    9900012    2    3    3    0    0 -0.34291854118E+02  0.62453691108E+01  0.11867772856E+02  0.54367083027E+02  0.39999997377E+02 0.  0.
         12    1    3    3    0    0  0.34291854118E+02 -0.62453691108E+01 -0.11867772856E+02  0.36820916973E+02  0.00000000000E+00 0. -1.
         11    1    4    4    0    0  0.49457739336E+01  0.17381654965E+01  0.42340074704E+01  0.67385991583E+01  0.51100000000E-03 0.  1.
        -11    1    4    4    0    0 -0.14020896420E+02 -0.10527780082E+02  0.12091471601E+01  0.17575031351E+02  0.51100000000E-03 0. -1.
        -12    1    4    4    0    0 -0.25216731632E+02  0.15034983696E+02  0.64246182258E+01  0.30053452518E+02  0.00000000000E+00 0.  1.
</event>
<event>
 8    1  0.2401680E-006  0.9118800E+02  0.7816164E-02  0.1184000E+00
        -11   -1    0    0    0    0  0.00000000000E+00  0.00000000000E+00  0.45593999997E+02  0.45594000000E+02  0.51100000000E-03 0.  1.
         11   -1    0    0    0    0 -0.00000000000E+00 -0.00000000000E+00 -0.45593999997E+02  0.45594000000E+02  0.51100000000E-03 0. -1.
         23    2    1    2    0    0  0.00000000000E+00  0.00000000000E+00  0.00000000000E+00  0.91188000000E+02  0.91188000000E+02 0.  0.
    9900012    2    3    3    0    0  0.35237968504E+02 -0.97422074165E+01 -0.43766751204E+01  0.54367077758E+02  0.39999985365E+02 0.  0.
         12    1    3    3    0    0 -0.35237968504E+02  0.97422074165E+01  0.43766751204E+01  0.36820922242E+02  0.00000000000E+00 0. -1.
         11    1    4    4    0    0  0.99934534038E+01 -0.12081108290E+02  0.28662196166E+01  0.15938554000E+02  0.51100000000E-03 0. -1.
        -11    1    4    4    0    0  0.21932453882E+02  0.25575503466E+01  0.74973523513E+01  0.23319174291E+02  0.51100000000E-03 0.  1.
         12    1    4    4    0    0  0.33120612181E+01 -0.21864947261E+00 -0.14740247088E+02  0.15109349467E+02  0.00000000000E+00 0. -1.
</event>
<event>
 8    1  0.2401680E-006  0.9118800E+02  0.7816164E-02  0.1184000E+00
        -11   -1    0    0    0    0  0.00000000000E+00  0.00000000000E+00  0.45593999997E+02  0.45594000000E+02  0.51100000000E-03 0.  1.
         11   -1    0    0    0    0 -0.00000000000E+00 -0.00000000000E+00 -0.45593999997E+02  0.45594000000E+02  0.51100000000E-03 0. -1.
         23    2    1    2    0    0  0.00000000000E+00  0.71054273576E-14 -0.88817841970E-15  0.91188000000E+02  0.91188000000E+02 0.  0.
    9900012    2    3    3    0    0  0.86218091726E+01 -0.35250418247E+02  0.62333064684E+01  0.54367059089E+02  0.39999942806E+02 0.  0.
        -12    1    3    3    0    0 -0.86218091726E+01  0.35250418247E+02 -0.62333064684E+01  0.36820940911E+02  0.00000000000E+00 0.  1.
         11    1    4    4    0    0  0.60817014012E+01 -0.25611271844E+02 -0.25556526815E+01  0.26447224774E+02  0.51100000000E-03 0. -1.
        -11    1    4    4    0    0  0.11208384222E+02  0.50732014986E-01 -0.15415982067E+01  0.11314016789E+02  0.51100000000E-03 0.  1.
        -12    1    4    4    0    0 -0.86682764510E+01 -0.96898784187E+01  0.10330557357E+02  0.16605817526E+02  0.00000000000E+00 0.  1.
</event>
<event>
 8    1  0.2401680E-006  0.9118800E+02  0.7816164E-02  0.1184000E+00
        -11   -1    0    0    0    0  0.00000000000E+00  0.00000000000E+00  0.45593999997E+02  0.45594000000E+02  0.51100000000E-03 0.  1.
         11   -1    0    0    0    0 -0.00000000000E+00 -0.00000000000E+00 -0.45593999997E+02  0.45594000000E+02  0.51100000000E-03 0. -1.
         23    2    1    2    0    0  0.00000000000E+00  0.35527136788E-14  0.00000000000E+00  0.91188000000E+02  0.91188000000E+02 0.  0.
    9900012    2    3    3    0    0 -0.49043939387E+01  0.23127137477E+02  0.28228705268E+02  0.54367117760E+02  0.40000076558E+02 0.  0.
         12    1    3    3    0    0  0.49043939387E+01 -0.23127137477E+02 -0.28228705268E+02  0.36820882240E+02  0.00000000000E+00 0. -1.
         11    1    4    4    0    0 -0.75592211530E+01 -0.93547227090E+01  0.11596086663E+02  0.16706941299E+02  0.51100000000E-03 0. -1.
        -11    1    4    4    0    0 -0.29168103070E+01  0.15637880888E+02  0.95711298703E+01  0.18564956997E+02  0.51100000000E-03 0.  1.
         12    1    4    4    0    0  0.55716375213E+01  0.16843979298E+02  0.70614887349E+01  0.19095219465E+02  0.00000000000E+00 0. -1.
</event>
<event>
 8    1  0.2401680E-006  0.9118800E+02  0.7816164E-02  0.1184000E+00
        -11   -1    0    0    0    0  0.00000000000E+00  0.00000000000E+00  0.45593999997E+02  0.45594000000E+02  0.51100000000E-03 0. -1.
         11   -1    0    0    0    0 -0.00000000000E+00 -0.00000000000E+00 -0.45593999997E+02  0.45594000000E+02  0.51100000000E-03 0.  1.
         23    2    1    2    0    0  0.35527136788E-14  0.35527136788E-14 -0.35527136788E-14  0.91188000000E+02  0.91188000000E+02 0.  0.
    9900012    2    3    3    0    0 -0.27978676955E+02  0.22420113275E+02  0.83852170952E+01  0.54367085981E+02  0.40000004112E+02 0.  0.
        -12    1    3    3    0    0  0.27978676955E+02 -0.22420113275E+02 -0.83852170952E+01  0.36820914019E+02  0.00000000000E+00 0.  1.
         11    1    4    4    0    0 -0.11677298399E+02  0.49349591980E+01 -0.58625398405E+01  0.13967193484E+02  0.51100000000E-03 0.  1.
        -11    1    4    4    0    0 -0.10866280558E+02 -0.25518507274E+01  0.16062177319E+02  0.19559691608E+02  0.51100000000E-03 0. -1.
         12    1    4    4    0    0 -0.54350979985E+01  0.20037004805E+02 -0.18144203833E+01  0.20840200890E+02  0.00000000000E+00 0. -1.
</event>
<event>
 8    1  0.2401680E-006  0.9118800E+02  0.7816164E-02  0.1184000E+00
        -11   -1    0    0    0    0  0.00000000000E+00  0.00000000000E+00  0.45593999997E+02  0.45594000000E+02  0.51100000000E-03 0. -1.
         11   -1    0    0    0    0 -0.00000000000E+00 -0.00000000000E+00 -0.45593999997E+02  0.45594000000E+02  0.51100000000E-03 0.  1.
         23    2    1    2    0    0  0.00000000000E+00  0.00000000000E+00  0.00000000000E+00  0.91188000000E+02  0.91188000000E+02 0.  0.
    9900012    2    3    3    0    0 -0.77868526465E+01  0.84834126664E+01  0.34973916672E+02  0.54367106312E+02  0.40000050459E+02 0.  0.
        -12    1    3    3    0    0  0.77868526465E+01 -0.84834126664E+01 -0.34973916672E+02  0.36820893688E+02  0.00000000000E+00 0.  1.
         11    1    4    4    0    0  0.62270652823E+01 -0.17584165709E+01 -0.42601784244E+01  0.77470956710E+01  0.51100000000E-03 0.  1.
        -11    1    4    4    0    0 -0.65523885139E+01 -0.65450671187E+00  0.29468541205E+02  0.30195315784E+02  0.51100000000E-03 0. -1.
        -12    1    4    4    0    0 -0.74615294148E+01  0.10896335949E+02  0.97655538912E+01  0.16424694856E+02  0.00000000000E+00 0.  1.
</event>
<event>
 8    1  0.2401680E-006  0.9118800E+02  0.7816164E-02  0.1184000E+00
        -11   -1    0    0    0    0  0.00000000000E+00  0.00000000000E+00  0.45593999997E+02  0.45594000000E+02  0.51100000000E-03 0.  1.
         11   -1    0    0    0    0 -0.00000000000E+00 -0.00000000000E+00 -0.45593999997E+02  0.45594000000E+02  0.51100000000E-03 0. -1.
         23    2    1    2    0    0  0.00000000000E+00  0.00000000000E+00 -0.35527136788E-14  0.91188000000E+02  0.91188000000E+02 0.  0.
    9900012    2    3    3    0    0  0.26949481333E+02 -0.17858277272E+02  0.17623958235E+02  0.54366857770E+02  0.39999483854E+02 0.  0.
         12    1    3    3    0    0 -0.26949481333E+02  0.17858277272E+02 -0.17623958235E+02  0.36821142230E+02  0.00000000000E+00 0. -1.
         11    1    4    4    0    0 -0.54895757550E+01 -0.29242528822E+01 -0.28220587972E+01  0.68301327224E+01  0.51100000000E-03 0. -1.
        -11    1    4    4    0    0  0.35976373652E+02 -0.11241996559E+02  0.19070980757E+02  0.42241972670E+02  0.51100000000E-03 0.  1.
        -12    1    4    4    0    0 -0.35373165638E+01 -0.36920278306E+01  0.13750362758E+01  0.52947523770E+01  0.00000000000E+00 0.  1.
</event>
<event>
 8    1  0.2401680E-006  0.9118800E+02  0.7816164E-02  0.1184000E+00
        -11   -1    0    0    0    0  0.00000000000E+00  0.00000000000E+00  0.45593999997E+02  0.45594000000E+02  0.51100000000E-03 0.  1.
         11   -1    0    0    0    0 -0.00000000000E+00 -0.00000000000E+00 -0.45593999997E+02  0.45594000000E+02  0.51100000000E-03 0. -1.
         23    2    1    2    0    0  0.17763568394E-14  0.00000000000E+00  0.88817841970E-15  0.91188000000E+02  0.91188000000E+02 0.  0.
    9900012    2    3    3    0    0  0.13049212941E+02  0.33573514464E+02  0.76365898110E+01  0.54367077472E+02  0.39999984713E+02 0.  0.
         12    1    3    3    0    0 -0.13049212941E+02 -0.33573514464E+02 -0.76365898110E+01  0.36820922528E+02  0.00000000000E+00 0. -1.
         11    1    4    4    0    0 -0.41298016352E+01  0.34307037227E+01  0.26693461713E+01  0.59958651438E+01  0.51100000000E-03 0. -1.
        -11    1    4    4    0    0 -0.10150090479E+02  0.78050185206E+01  0.18529385117E+01  0.12937388926E+02  0.51100000000E-03 0.  1.
         12    1    4    4    0    0  0.27329105055E+02  0.22337792221E+02  0.31143051281E+01  0.35433823402E+02  0.00000000000E+00 0. -1.
</event>
<event>
 8    1  0.2401680E-006  0.9118800E+02  0.7816164E-02  0.1184000E+00
        -11   -1    0    0    0    0  0.00000000000E+00  0.00000000000E+00  0.45593999997E+02  0.45594000000E+02  0.51100000000E-03 0.  1.
         11   -1    0    0    0    0 -0.00000000000E+00 -0.00000000000E+00 -0.45593999997E+02  0.45594000000E+02  0.51100000000E-03 0. -1.
         23    2    1    2    0    0  0.44408920985E-15 -0.71054273576E-14 -0.17763568394E-14  0.91188000000E+02  0.91188000000E+02 0.  0.
    9900012    2    3    3    0    0  0.21824822997E+01 -0.35300617709E+02 -0.10241268142E+02  0.54367076427E+02  0.39999982331E+02 0.  0.
        -12    1    3    3    0    0 -0.21824822997E+01  0.35300617709E+02  0.10241268142E+02  0.36820923573E+02  0.00000000000E+00 0.  1.
         11    1    4    4    0    0 -0.14152094115E+00 -0.18621602115E+02  0.60995163790E-01  0.18622239773E+02  0.51100000000E-03 0. -1.
        -11    1    4    4    0    0 -0.11191950609E+02 -0.16930078030E+02 -0.34398090083E+01  0.20584450122E+02  0.51100000000E-03 0.  1.
        -12    1    4    4    0    0  0.13515953850E+02  0.25106243675E+00 -0.68624542973E+01  0.15160386532E+02  0.00000000000E+00 0.  1.
</event>
<event>
 8    1  0.2401680E-006  0.9118800E+02  0.7816164E-02  0.1184000E+00
        -11   -1    0    0    0    0  0.00000000000E+00  0.00000000000E+00  0.45593999997E+02  0.45594000000E+02  0.51100000000E-03 0.  1.
         11   -1    0    0    0    0 -0.00000000000E+00 -0.00000000000E+00 -0.45593999997E+02  0.45594000000E+02  0.51100000000E-03 0. -1.
         23    2    1    2    0    0  0.17763568394E-14  0.00000000000E+00  0.00000000000E+00  0.91188000000E+02  0.91188000000E+02 0.  0.
    9900012    2    3    3    0    0 -0.13268591166E+02 -0.31132409209E+02  0.14508302894E+02  0.54367173454E+02  0.40000203522E+02 0.  0.
         12    1    3    3    0    0  0.13268591166E+02  0.31132409209E+02 -0.14508302894E+02  0.36820826546E+02  0.00000000000E+00 0. -1.
         11    1    4    4    0    0  0.84209766812E+01 -0.12148369768E+02  0.11267073570E+02  0.18586088437E+02  0.51100000000E-03 0. -1.
        -11    1    4    4    0    0 -0.14823532713E+02 -0.22698252953E+02 -0.52228637313E+00  0.27114951458E+02  0.51100000000E-03 0.  1.
         12    1    4    4    0    0 -0.68660351333E+01  0.37142135120E+01  0.37635156971E+01  0.86661335593E+01  0.00000000000E+00 0. -1.
</event>
<event>
 8    1  0.2401680E-006  0.9118800E+02  0.7816164E-02  0.1184000E+00
        -11   -1    0    0    0    0  0.00000000000E+00  0.00000000000E+00  0.45593999997E+02  0.45594000000E+02  0.51100000000E-03 0.  1.
         11   -1    0    0    0    0 -0.00000000000E+00 -0.00000000000E+00 -0.45593999997E+02  0.45594000000E+02  0.51100000000E-03 0. -1.
         23    2    1    2    0    0  0.00000000000E+00  0.00000000000E+00  0.00000000000E+00  0.91188000000E+02  0.91188000000E+02 0.  0.
    9900012    2    3    3    0    0  0.97813326406E+01 -0.17096738111E+02  0.31109617645E+02  0.54367065299E+02  0.39999956962E+02 0.  0.
         12    1    3    3    0    0 -0.97813326406E+01  0.17096738111E+02 -0.31109617645E+02  0.36820934701E+02  0.00000000000E+00 0. -1.
         11    1    4    4    0    0  0.32981906758E+00 -0.14998122012E+02  0.44741913504E+01  0.15654738357E+02  0.51100000000E-03 0. -1.
        -11    1    4    4    0    0 -0.54355187356E+01 -0.98761333288E+01  0.11474950192E+02  0.16085936579E+02  0.51100000000E-03 0.  1.
         12    1    4    4    0    0  0.14887032309E+02  0.77775172303E+01  0.15160476102E+02  0.22626390363E+02  0.00000000000E+00 0. -1.
</event>
<event>
 8    1  0.2401680E-006  0.9118800E+02  0.7816164E-02  0.1184000E+00
        -11   -1    0    0    0    0  0.00000000000E+00  0.00000000000E+00  0.45593999997E+02  0.45594000000E+02  0.51100000000E-03 0.  1.
         11   -1    0    0    0    0 -0.00000000000E+00 -0.00000000000E+00 -0.45593999997E+02  0.45594000000E+02  0.51100000000E-03 0. -1.
         23    2    1    2    0    0  0.00000000000E+00 -0.17763568394E-14  0.35527136788E-14  0.91188000000E+02  0.91188000000E+02 0.  0.
    9900012    2    3    3    0    0 -0.13994544477E+02  0.15117616850E+02  0.30518706973E+02  0.54367067236E+02  0.39999961377E+02 0.  0.
         12    1    3    3    0    0  0.13994544477E+02 -0.15117616850E+02 -0.30518706973E+02  0.36820932764E+02  0.00000000000E+00 0. -1.
         11    1    4    4    0    0 -0.16038284944E+01  0.74865376873E+01 -0.27029223688E+01  0.81195013379E+01  0.51100000000E-03 0. -1.
        -11    1    4    4    0    0 -0.62774129144E+01 -0.56765475687E+01  0.30108883279E+02  0.31275772696E+02  0.51100000000E-03 0.  1.
        -12    1    4    4    0    0 -0.61133030681E+01  0.13307626731E+02  0.31127460631E+01  0.14971793202E+02  0.00000000000E+00 0.  1.
</event>
<event>
 8    1  0.2401680E-006  0.9118800E+02  0.7816164E-02  0.1184000E+00
        -11   -1    0    0    0    0  0.00000000000E+00  0.00000000000E+00  0.45593999997E+02  0.45594000000E+02  0.51100000000E-03 0. -1.
         11   -1    0    0    0    0 -0.00000000000E+00 -0.00000000000E+00 -0.45593999997E+02  0.45594000000E+02  0.51100000000E-03 0.  1.
         23    2    1    2    0    0  0.00000000000E+00  0.00000000000E+00 -0.17763568394E-14  0.91188000000E+02  0.91188000000E+02 0.  0.
    9900012    2    3    3    0    0  0.20279904567E+02 -0.26838556782E+02 -0.14973232420E+02  0.54367077299E+02  0.39999984319E+02 0.  0.
         12    1    3    3    0    0 -0.20279904567E+02  0.26838556782E+02  0.14973232420E+02  0.36820922701E+02  0.00000000000E+00 0. -1.
         11    1    4    4    0    0 -0.88368527402E+00 -0.87017731247E+00  0.52555960772E+01  0.53999443152E+01  0.51100000000E-03 0. -1.
        -11    1    4    4    0    0 -0.36177833535E+01 -0.50344735841E+01 -0.14839759698E+02  0.16082684751E+02  0.51100000000E-03 0.  1.
        -12    1    4    4    0    0  0.24781373195E+02 -0.20933905886E+02 -0.53890687997E+01  0.32884448233E+02  0.00000000000E+00 0.  1.
</event>
<event>
 8    1  0.2401680E-006  0.9118800E+02  0.7816164E-02  0.1184000E+00
        -11   -1    0    0    0    0  0.00000000000E+00  0.00000000000E+00  0.45593999997E+02  0.45594000000E+02  0.51100000000E-03 0. -1.
         11   -1    0    0    0    0 -0.00000000000E+00 -0.00000000000E+00 -0.45593999997E+02  0.45594000000E+02  0.51100000000E-03 0.  1.
         23    2    1    2    0    0  0.17763568394E-14  0.00000000000E+00  0.00000000000E+00  0.91188000000E+02  0.91188000000E+02 0.  0.
    9900012    2    3    3    0    0 -0.15561028837E+02 -0.46353275147E+01  0.33047755385E+02  0.54367000344E+02  0.39999808884E+02 0.  0.
        -12    1    3    3    0    0  0.15561028837E+02  0.46353275147E+01 -0.33047755385E+02  0.36820999656E+02  0.00000000000E+00 0.  1.
         11    1    4    4    0    0 -0.11821845235E+02 -0.94428016744E+01  0.34596124882E+02  0.37759957433E+02  0.51100000000E-03 0. -1.
        -11    1    4    4    0    0  0.18412225328E+01  0.77470176763E+01  0.33322548298E+01  0.86319352294E+01  0.51100000000E-03 0.  1.
         12    1    4    4    0    0 -0.55804061356E+01 -0.29395435166E+01 -0.48806243264E+01  0.79751076820E+01  0.00000000000E+00 0. -1.
</event>
<event>
 8    1  0.2401680E-006  0.9118800E+02  0.7816164E-02  0.1184000E+00
        -11   -1    0    0    0    0  0.00000000000E+00  0.00000000000E+00  0.45593999997E+02  0.45594000000E+02  0.51100000000E-03 0.  1.
         11   -1    0    0    0    0 -0.00000000000E+00 -0.00000000000E+00 -0.45593999997E+02  0.45594000000E+02  0.51100000000E-03 0. -1.
         23    2    1    2    0    0  0.00000000000E+00  0.00000000000E+00  0.00000000000E+00  0.91188000000E+02  0.91188000000E+02 0.  0.
    9900012    2    3    3    0    0 -0.24020854108E+02 -0.22744396339E+02 -0.16170048689E+02  0.54367089209E+02  0.40000011469E+02 0.  0.
        -12    1    3    3    0    0  0.24020854108E+02  0.22744396339E+02  0.16170048689E+02  0.36820910791E+02  0.00000000000E+00 0.  1.
         11    1    4    4    0    0 -0.10395748046E+02 -0.17635306569E+01  0.75242642957E+01  0.12953616146E+02  0.51100000000E-03 0. -1.
        -11    1    4    4    0    0 -0.14347414644E+02 -0.13842547893E+02 -0.38405403728E+01  0.20303058631E+02  0.51100000000E-03 0.  1.
         12    1    4    4    0    0  0.72230858226E+00 -0.71383177893E+01 -0.19853772612E+02  0.21110414432E+02  0.00000000000E+00 0. -1.
</event>
<event>
 8    1  0.2401680E-006  0.9118800E+02  0.7816164E-02  0.1184000E+00
        -11   -1    0    0    0    0  0.00000000000E+00  0.00000000000E+00  0.45593999997E+02  0.45594000000E+02  0.51100000000E-03 0. -1.
         11   -1    0    0    0    0 -0.00000000000E+00 -0.00000000000E+00 -0.45593999997E+02  0.45594000000E+02  0.51100000000E-03 0.  1.
         23    2    1    2    0    0  0.00000000000E+00  0.00000000000E+00  0.00000000000E+00  0.91188000000E+02  0.91188000000E+02 0.  0.
    9900012    2    3    3    0    0 -0.21592017833E+02 -0.20318001890E+02  0.21834461003E+02  0.54367080373E+02  0.39999991326E+02 0.  0.
        -12    1    3    3    0    0  0.21592017833E+02  0.20318001890E+02 -0.21834461003E+02  0.36820919627E+02  0.00000000000E+00 0.  1.
         11    1    4    4    0    0 -0.11897905067E+02 -0.83484308073E+01  0.21916885811E+02  0.26298409188E+02  0.51100000000E-03 0. -1.
        -11    1    4    4    0    0 -0.51615206192E+01 -0.16889546761E+02 -0.64804093054E+01  0.18812065010E+02  0.51100000000E-03 0.  1.
        -12    1    4    4    0    0 -0.45325921469E+01  0.49199756785E+01  0.63979844975E+01  0.92566061749E+01  0.00000000000E+00 0.  1.
</event>
<event>
 8    1  0.2401680E-006  0.9118800E+02  0.7816164E-02  0.1184000E+00
        -11   -1    0    0    0    0  0.00000000000E+00  0.00000000000E+00  0.45593999997E+02  0.45594000000E+02  0.51100000000E-03 0.  1.
         11   -1    0    0    0    0 -0.00000000000E+00 -0.00000000000E+00 -0.45593999997E+02  0.45594000000E+02  0.51100000000E-03 0. -1.
         23    2    1    2    0    0  0.00000000000E+00  0.00000000000E+00  0.00000000000E+00  0.91188000000E+02  0.91188000000E+02 0.  0.
    9900012    2    3    3    0    0  0.20884735665E+02  0.22528800107E+02  0.20299293039E+02  0.54367077742E+02  0.39999985328E+02 0.  0.
         12    1    3    3    0    0 -0.20884735665E+02 -0.22528800107E+02 -0.20299293039E+02  0.36820922258E+02  0.00000000000E+00 0. -1.
         11    1    4    4    0    0  0.16297256580E+02  0.20085295536E+02  0.15192684787E+02  0.29997288879E+02  0.51100000000E-03 0. -1.
        -11    1    4    4    0    0  0.51220887977E+01 -0.35446280511E+01  0.13019057993E+02  0.14432465242E+02  0.51100000000E-03 0.  1.
         12    1    4    4    0    0 -0.53460971228E+00  0.59881326225E+01 -0.79124497411E+01  0.99373236213E+01  0.00000000000E+00 0. -1.
</event>
<event>
 8    1  0.2401680E-006  0.9118800E+02  0.7816164E-02  0.1184000E+00
        -11   -1    0    0    0    0  0.00000000000E+00  0.00000000000E+00  0.45593999997E+02  0.45594000000E+02  0.51100000000E-03 0.  1.
         11   -1    0    0    0    0 -0.00000000000E+00 -0.00000000000E+00 -0.45593999997E+02  0.45594000000E+02  0.51100000000E-03 0. -1.
         23    2    1    2    0    0 -0.71054273576E-14  0.00000000000E+00  0.00000000000E+00  0.91188000000E+02  0.91188000000E+02 0.  0.
    9900012    2    3    3    0    0 -0.32701448984E+02  0.13704747310E+01 -0.16867615476E+02  0.54367089928E+02  0.40000013110E+02 0.  0.
        -12    1    3    3    0    0  0.32701448984E+02 -0.13704747310E+01  0.16867615476E+02  0.36820910072E+02  0.00000000000E+00 0.  1.
         11    1    4    4    0    0  0.70860094216E+01  0.38876879294E+01 -0.29505098973E+00  0.80878119604E+01  0.51100000000E-03 0.  1.
        -11    1    4    4    0    0 -0.16749622884E+02 -0.15745457858E+01  0.16310955342E+01  0.16902352916E+02  0.51100000000E-03 0. -1.
         12    1    4    4    0    0 -0.23037835521E+02 -0.94266741260E+00 -0.18203660021E+02  0.29376925052E+02  0.00000000000E+00 0. -1.
</event>
<event>
 8    1  0.2401680E-006  0.9118800E+02  0.7816164E-02  0.1184000E+00
        -11   -1    0    0    0    0  0.00000000000E+00  0.00000000000E+00  0.45593999997E+02  0.45594000000E+02  0.51100000000E-03 0.  1.
         11   -1    0    0    0    0 -0.00000000000E+00 -0.00000000000E+00 -0.45593999997E+02  0.45594000000E+02  0.51100000000E-03 0. -1.
         23    2    1    2    0    0  0.00000000000E+00  0.00000000000E+00 -0.88817841970E-15  0.91188000000E+02  0.91188000000E+02 0.  0.
    9900012    2    3    3    0    0 -0.12590331054E+02  0.34325394379E+02 -0.43624724455E+01  0.54367077943E+02  0.39999985787E+02 0.  0.
         12    1    3    3    0    0  0.12590331054E+02 -0.34325394379E+02  0.43624724455E+01  0.36820922057E+02  0.00000000000E+00 0. -1.
         11    1    4    4    0    0  0.57778960652E+01  0.46114097736E+01 -0.10027687630E+02  0.12458077801E+02  0.51100000000E-03 0. -1.
        -11    1    4    4    0    0  0.28064586586E+01 -0.18387109178E+01 -0.56512387930E+00  0.34024158038E+01  0.51100000000E-03 0.  1.
         12    1    4    4    0    0 -0.21174685778E+02  0.31552695523E+02  0.62303390635E+01  0.38506584338E+02  0.00000000000E+00 0. -1.
</event>
<event>
 8    1  0.2401680E-006  0.9118800E+02  0.7816164E-02  0.1184000E+00
        -11   -1    0    0    0    0  0.00000000000E+00  0.00000000000E+00  0.45593999997E+02  0.45594000000E+02  0.51100000000E-03 0. -1.
         11   -1    0    0    0    0 -0.00000000000E+00 -0.00000000000E+00 -0.45593999997E+02  0.45594000000E+02  0.51100000000E-03 0.  1.
         23    2    1    2    0    0  0.44408920985E-15 -0.71054273576E-14 -0.17763568394E-14  0.91188000000E+02  0.91188000000E+02 0.  0.
    9900012    2    3    3    0    0  0.36377928182E+01 -0.35869008504E+02 -0.74806528141E+01  0.54367089172E+02  0.40000011386E+02 0.  0.
         12    1    3    3    0    0 -0.36377928182E+01  0.35869008504E+02  0.74806528141E+01  0.36820910828E+02  0.00000000000E+00 0. -1.
         11    1    4    4    0    0  0.87064515628E+01 -0.21647962267E+02 -0.21129921772E+01  0.23428642840E+02  0.51100000000E-03 0.  1.
        -11    1    4    4    0    0 -0.10516985721E+02 -0.19016601207E+02  0.29431920601E+00  0.21733033248E+02  0.51100000000E-03 0. -1.
         12    1    4    4    0    0  0.54483269765E+01  0.47955549694E+01 -0.56619798429E+01  0.92054130841E+01  0.00000000000E+00 0. -1.
</event>
<event>
 8    1  0.2401680E-006  0.9118800E+02  0.7816164E-02  0.1184000E+00
        -11   -1    0    0    0    0  0.00000000000E+00  0.00000000000E+00  0.45593999997E+02  0.45594000000E+02  0.51100000000E-03 0. -1.
         11   -1    0    0    0    0 -0.00000000000E+00 -0.00000000000E+00 -0.45593999997E+02  0.45594000000E+02  0.51100000000E-03 0.  1.
         23    2    1    2    0    0  0.00000000000E+00  0.00000000000E+00  0.00000000000E+00  0.91188000000E+02  0.91188000000E+02 0.  0.
    9900012    2    3    3    0    0 -0.29273911542E+02  0.12394122223E+02 -0.18579640163E+02  0.54367093014E+02  0.40000020144E+02 0.  0.
         12    1    3    3    0    0  0.29273911542E+02 -0.12394122223E+02  0.18579640163E+02  0.36820906986E+02  0.00000000000E+00 0. -1.
         11    1    4    4    0    0 -0.75584119095E+01 -0.43467291814E+01  0.68659185386E+01  0.11097949487E+02  0.51100000000E-03 0. -1.
        -11    1    4    4    0    0 -0.17100783479E+02  0.23296118313E+01 -0.21614684408E+02  0.27659690331E+02  0.51100000000E-03 0.  1.
         12    1    4    4    0    0 -0.46147161532E+01  0.14411239574E+02 -0.38308742937E+01  0.15609453196E+02  0.00000000000E+00 0. -1.
</event>
<event>
 8    1  0.2401680E-006  0.9118800E+02  0.7816164E-02  0.1184000E+00
        -11   -1    0    0    0    0  0.00000000000E+00  0.00000000000E+00  0.45593999997E+02  0.45594000000E+02  0.51100000000E-03 0. -1.
         11   -1    0    0    0    0 -0.00000000000E+00 -0.00000000000E+00 -0.45593999997E+02  0.45594000000E+02  0.51100000000E-03 0.  1.
         23    2    1    2    0    0  0.00000000000E+00 -0.17763568394E-14 -0.35527136788E-14  0.91188000000E+02  0.91188000000E+02 0.  0.
    9900012    2    3    3    0    0  0.19431541020E+02 -0.11311707917E+02 -0.29158900293E+02  0.54367068606E+02  0.39999964502E+02 0.  0.
         12    1    3    3    0    0 -0.19431541020E+02  0.11311707917E+02  0.29158900293E+02  0.36820931394E+02  0.00000000000E+00 0. -1.
         11    1    4    4    0    0 -0.67810628781E+00  0.59454652232E+01 -0.63790905277E+01  0.87464953599E+01  0.51100000000E-03 0. -1.
        -11    1    4    4    0    0  0.52559996930E+01 -0.44298883580E+01  0.70932720464E+01  0.98774466449E+01  0.51100000000E-03 0.  1.
        -12    1    4    4    0    0  0.14853647615E+02 -0.12827284782E+02 -0.29873081811E+02  0.35743126602E+02  0.00000000000E+00 0.  1.
</event>
<event>
 8    1  0.2401680E-006  0.9118800E+02  0.7816164E-02  0.1184000E+00
        -11   -1    0    0    0    0  0.00000000000E+00  0.00000000000E+00  0.45593999997E+02  0.45594000000E+02  0.51100000000E-03 0.  1.
         11   -1    0    0    0    0 -0.00000000000E+00 -0.00000000000E+00 -0.45593999997E+02  0.45594000000E+02  0.51100000000E-03 0. -1.
         23    2    1    2    0    0  0.11102230246E-14  0.00000000000E+00  0.00000000000E+00  0.91188000000E+02  0.91188000000E+02 0.  0.
    9900012    2    3    3    0    0  0.91372644844E+00 -0.11123945066E+02  0.35088488030E+02  0.54367095040E+02  0.40000024763E+02 0.  0.
         12    1    3    3    0    0 -0.91372644844E+00  0.11123945066E+02 -0.35088488030E+02  0.36820904960E+02  0.00000000000E+00 0. -1.
         11    1    4    4    0    0 -0.10862284812E+02 -0.69833314741E+01  0.91003947202E+00  0.12945436336E+02  0.51100000000E-03 0. -1.
        -11    1    4    4    0    0  0.13791487815E+02  0.20269446433E+01  0.31415671893E+02  0.34369435280E+02  0.51100000000E-03 0.  1.
         12    1    4    4    0    0 -0.20154765548E+01 -0.61675582350E+01  0.27627766652E+01  0.70522234244E+01  0.00000000000E+00 0. -1.
</event>
<event>
 8    1  0.2401680E-006  0.9118800E+02  0.7816164E-02  0.1184000E+00
        -11   -1    0    0    0    0  0.00000000000E+00  0.00000000000E+00  0.45593999997E+02  0.45594000000E+02  0.51100000000E-03 0.  1.
         11   -1    0    0    0    0 -0.00000000000E+00 -0.00000000000E+00 -0.45593999997E+02  0.45594000000E+02  0.51100000000E-03 0. -1.
         23    2    1    2    0    0  0.00000000000E+00 -0.17763568394E-14  0.00000000000E+00  0.91188000000E+02  0.91188000000E+02 0.  0.
    9900012    2    3    3    0    0 -0.10809195137E+02  0.11410270321E+02  0.33297825299E+02  0.54367107317E+02  0.40000052750E+02 0.  0.
         12    1    3    3    0    0  0.10809195137E+02 -0.11410270321E+02 -0.33297825299E+02  0.36820892683E+02  0.00000000000E+00 0. -1.
         11    1    4    4    0    0 -0.23833919222E+01 -0.27619808777E+01  0.17248714569E+01  0.40353782014E+01  0.51100000000E-03 0. -1.
        -11    1    4    4    0    0 -0.19015912186E+02  0.53405886781E+01  0.30712411994E+02  0.36515463224E+02  0.51100000000E-03 0.  1.
         12    1    4    4    0    0  0.10590108972E+02  0.88316625210E+01  0.86054184876E+00  0.13816265892E+02  0.00000000000E+00 0. -1.
</event>
<event>
 8    1  0.2401680E-006  0.9118800E+02  0.7816164E-02  0.1184000E+00
        -11   -1    0    0    0    0  0.00000000000E+00  0.00000000000E+00  0.45593999997E+02  0.45594000000E+02  0.51100000000E-03 0. -1.
         11   -1    0    0    0    0 -0.00000000000E+00 -0.00000000000E+00 -0.45593999997E+02  0.45594000000E+02  0.51100000000E-03 0.  1.
         23    2    1    2    0    0 -0.71054273576E-14  0.35527136788E-14 -0.17763568394E-14  0.91188000000E+02  0.91188000000E+02 0.  0.
    9900012    2    3    3    0    0 -0.32751495950E+02  0.14467364755E+02 -0.85915212591E+01  0.54367090621E+02  0.40000014689E+02 0.  0.
         12    1    3    3    0    0  0.32751495950E+02 -0.14467364755E+02  0.85915212591E+01  0.36820909379E+02  0.00000000000E+00 0. -1.
         11    1    4    4    0    0  0.73664357668E+01 -0.44550135123E+00 -0.46102871345E+01  0.87015857798E+01  0.51100000000E-03 0. -1.
        -11    1    4    4    0    0 -0.19938721579E+02  0.66244454608E+01  0.57431198860E+01  0.21781168981E+02  0.51100000000E-03 0.  1.
        -12    1    4    4    0    0 -0.20179210138E+02  0.82884206457E+01 -0.97243540106E+01  0.23884335861E+02  0.00000000000E+00 0.  1.
</event>
<event>
 8    1  0.2401680E-006  0.9118800E+02  0.7816164E-02  0.1184000E+00
        -11   -1    0    0    0    0  0.00000000000E+00  0.00000000000E+00  0.45593999997E+02  0.45594000000E+02  0.51100000000E-03 0. -1.
         11   -1    0    0    0    0 -0.00000000000E+00 -0.00000000000E+00 -0.45593999997E+02  0.45594000000E+02  0.51100000000E-03 0.  1.
         23    2    1    2    0    0 -0.17763568394E-14  0.35527136788E-14  0.00000000000E+00  0.91188000000E+02  0.91188000000E+02 0.  0.
    9900012    2    3    3    0    0  0.43811739125E+01 -0.28287540323E+02 -0.23160263875E+02  0.54367116725E+02  0.40000074199E+02 0.  0.
         12    1    3    3    0    0 -0.43811739125E+01  0.28287540323E+02  0.23160263875E+02  0.36820883275E+02  0.00000000000E+00 0. -1.
         11    1    4    4    0    0  0.14825337617E+02 -0.35668777460E+00  0.13282802454E+01  0.14888995610E+02  0.51100000000E-03 0. -1.
        -11    1    4    4    0    0 -0.72087802370E+01 -0.81957344562E+01 -0.97462633777E+01  0.14633052514E+02  0.51100000000E-03 0.  1.
         12    1    4    4    0    0 -0.32353834672E+01 -0.19735118092E+02 -0.14742280743E+02  0.24845068601E+02  0.00000000000E+00 0. -1.
</event>
<event>
 8    1  0.2401680E-006  0.9118800E+02  0.7816164E-02  0.1184000E+00
        -11   -1    0    0    0    0  0.00000000000E+00  0.00000000000E+00  0.45593999997E+02  0.45594000000E+02  0.51100000000E-03 0. -1.
         11   -1    0    0    0    0 -0.00000000000E+00 -0.00000000000E+00 -0.45593999997E+02  0.45594000000E+02  0.51100000000E-03 0.  1.
         23    2    1    2    0    0  0.00000000000E+00  0.00000000000E+00  0.00000000000E+00  0.91188000000E+02  0.91188000000E+02 0.  0.
    9900012    2    3    3    0    0 -0.13897095656E+02 -0.26121816761E+02 -0.21915783921E+02  0.54367079812E+02  0.39999990048E+02 0.  0.
         12    1    3    3    0    0  0.13897095656E+02  0.26121816761E+02  0.21915783921E+02  0.36820920188E+02  0.00000000000E+00 0. -1.
         11    1    4    4    0    0 -0.13326616673E+02  0.25213603399E+01  0.22535821184E+01  0.13748985509E+02  0.51100000000E-03 0. -1.
        -11    1    4    4    0    0 -0.53530538793E+01 -0.51833328765E+01 -0.14083430565E+01  0.75832417849E+01  0.51100000000E-03 0.  1.
        -12    1    4    4    0    0  0.47825748955E+01 -0.23459844225E+02 -0.22761022983E+02  0.33034852518E+02  0.00000000000E+00 0.  1.
</event>
<event>
 8    1  0.2401680E-006  0.9118800E+02  0.7816164E-02  0.1184000E+00
        -11   -1    0    0    0    0  0.00000000000E+00  0.00000000000E+00  0.45593999997E+02  0.45594000000E+02  0.51100000000E-03 0.  1.
         11   -1    0    0    0    0 -0.00000000000E+00 -0.00000000000E+00 -0.45593999997E+02  0.45594000000E+02  0.51100000000E-03 0. -1.
         23    2    1    2    0    0  0.17763568394E-14  0.88817841970E-15  0.00000000000E+00  0.91188000000E+02  0.91188000000E+02 0.  0.
    9900012    2    3    3    0    0 -0.15398844226E+02  0.64865732991E+01  0.32811295709E+02  0.54367066242E+02  0.39999959112E+02 0.  0.
         12    1    3    3    0    0  0.15398844226E+02 -0.64865732991E+01 -0.32811295709E+02  0.36820933758E+02  0.00000000000E+00 0. -1.
         11    1    4    4    0    0 -0.10813463284E+02  0.13313158392E+02  0.60083309099E+01  0.18173365543E+02  0.51100000000E-03 0. -1.
        -11    1    4    4    0    0 -0.48190080450E+01  0.49685042264E+01  0.13507670157E-01  0.69216367648E+01  0.51100000000E-03 0.  1.
         12    1    4    4    0    0  0.23362710308E+00 -0.11795089320E+02  0.26789457129E+02  0.29272063934E+02  0.00000000000E+00 0. -1.
</event>
<event>
 8    1  0.2401680E-006  0.9118800E+02  0.7816164E-02  0.1184000E+00
        -11   -1    0    0    0    0  0.00000000000E+00  0.00000000000E+00  0.45593999997E+02  0.45594000000E+02  0.51100000000E-03 0. -1.
         11   -1    0    0    0    0 -0.00000000000E+00 -0.00000000000E+00 -0.45593999997E+02  0.45594000000E+02  0.51100000000E-03 0.  1.
         23    2    1    2    0    0  0.00000000000E+00 -0.35527136788E-14 -0.35527136788E-14  0.91188000000E+02  0.91188000000E+02 0.  0.
    9900012    2    3    3    0    0 -0.38329740504E+01  0.25988842332E+02 -0.25800552014E+02  0.54367080674E+02  0.39999992012E+02 0.  0.
        -12    1    3    3    0    0  0.38329740504E+01 -0.25988842332E+02  0.25800552014E+02  0.36820919326E+02  0.00000000000E+00 0.  1.
         11    1    4    4    0    0 -0.20349412702E+01  0.14994883733E+02 -0.27557965314E+02  0.31439290333E+02  0.51100000000E-03 0. -1.
        -11    1    4    4    0    0  0.79959176332E+01  0.61010610409E+00 -0.17967874987E+01  0.82179908635E+01  0.51100000000E-03 0.  1.
        -12    1    4    4    0    0 -0.97939504135E+01  0.10383852495E+02  0.35542007988E+01  0.14709799477E+02  0.00000000000E+00 0.  1.
</event>
<event>
 8    1  0.2401680E-006  0.9118800E+02  0.7816164E-02  0.1184000E+00
        -11   -1    0    0    0    0  0.00000000000E+00  0.00000000000E+00  0.45593999997E+02  0.45594000000E+02  0.51100000000E-03 0.  1.
         11   -1    0    0    0    0 -0.00000000000E+00 -0.00000000000E+00 -0.45593999997E+02  0.45594000000E+02  0.51100000000E-03 0. -1.
         23    2    1    2    0    0 -0.17763568394E-14  0.00000000000E+00  0.00000000000E+00  0.91188000000E+02  0.91188000000E+02 0.  0.
    9900012    2    3    3    0    0 -0.10566707707E+02 -0.27225042308E+02 -0.22425931669E+02  0.54367073183E+02  0.39999974934E+02 0.  0.
        -12    1    3    3    0    0  0.10566707707E+02  0.27225042308E+02  0.22425931669E+02  0.36820926817E+02  0.00000000000E+00 0.  1.
         11    1    4    4    0    0 -0.19272934201E+02 -0.17338911838E+02 -0.28338858628E+02  0.38408003919E+02  0.51100000000E-03 0. -1.
        -11    1    4    4    0    0  0.17838187864E+01 -0.70046816461E+01  0.38135062668E+01  0.81725396747E+01  0.51100000000E-03 0.  1.
         12    1    4    4    0    0  0.69224077074E+01 -0.28814488235E+01  0.20994206920E+01  0.77865295885E+01  0.00000000000E+00 0. -1.
</event>
<event>
 8    1  0.2401680E-006  0.9118800E+02  0.7816164E-02  0.1184000E+00
        -11   -1    0    0    0    0  0.00000000000E+00  0.00000000000E+00  0.45593999997E+02  0.45594000000E+02  0.51100000000E-03 0. -1.
         11   -1    0    0    0    0 -0.00000000000E+00 -0.00000000000E+00 -0.45593999997E+02  0.45594000000E+02  0.51100000000E-03 0.  1.
         23    2    1    2    0    0  0.00000000000E+00  0.00000000000E+00  0.00000000000E+00  0.91188000000E+02  0.91188000000E+02 0.  0.
    9900012    2    3    3    0    0  0.67699504001E+01  0.33605700910E+02  0.13438951992E+02  0.54367071267E+02  0.39999970567E+02 0.  0.
        -12    1    3    3    0    0 -0.67699504001E+01 -0.33605700910E+02 -0.13438951992E+02  0.36820928733E+02  0.00000000000E+00 0.  1.
         11    1    4    4    0    0  0.57795967013E+01  0.10450862021E+02 -0.46037064267E+01  0.12799154977E+02  0.51100000000E-03 0. -1.
        -11    1    4    4    0    0  0.11052488578E+02  0.82284228530E+01 -0.27654338765E+01  0.14053898790E+02  0.51100000000E-03 0.  1.
         12    1    4    4    0    0 -0.10062134879E+02  0.14926416037E+02  0.20808092296E+02  0.27514017500E+02  0.00000000000E+00 0. -1.
</event>
<event>
 8    1  0.2401680E-006  0.9118800E+02  0.7816164E-02  0.1184000E+00
        -11   -1    0    0    0    0  0.00000000000E+00  0.00000000000E+00  0.45593999997E+02  0.45594000000E+02  0.51100000000E-03 0.  1.
         11   -1    0    0    0    0 -0.00000000000E+00 -0.00000000000E+00 -0.45593999997E+02  0.45594000000E+02  0.51100000000E-03 0. -1.
         23    2    1    2    0    0  0.00000000000E+00 -0.35527136788E-14  0.00000000000E+00  0.91188000000E+02  0.91188000000E+02 0.  0.
    9900012    2    3    3    0    0 -0.21543404831E+02  0.19989388213E+02 -0.22183063790E+02  0.54367051452E+02  0.39999925396E+02 0.  0.
        -12    1    3    3    0    0  0.21543404831E+02 -0.19989388213E+02  0.22183063790E+02  0.36820948548E+02  0.00000000000E+00 0.  1.
         11    1    4    4    0    0  0.13676464842E+01 -0.56111975139E+00 -0.13308361772E+02  0.13390213053E+02  0.51100000000E-03 0. -1.
        -11    1    4    4    0    0  0.46717787825E+01  0.87305228302E+01 -0.34233780508E+01  0.10476977781E+02  0.51100000000E-03 0.  1.
         12    1    4    4    0    0 -0.27582830098E+02  0.11819985134E+02 -0.54513239673E+01  0.30499860619E+02  0.00000000000E+00 0. -1.
</event>
<event>
 8    1  0.2401680E-006  0.9118800E+02  0.7816164E-02  0.1184000E+00
        -11   -1    0    0    0    0  0.00000000000E+00  0.00000000000E+00  0.45593999997E+02  0.45594000000E+02  0.51100000000E-03 0.  1.
         11   -1    0    0    0    0 -0.00000000000E+00 -0.00000000000E+00 -0.45593999997E+02  0.45594000000E+02  0.51100000000E-03 0. -1.
         23    2    1    2    0    0  0.00000000000E+00 -0.66613381478E-15  0.00000000000E+00  0.91188000000E+02  0.91188000000E+02 0.  0.
    9900012    2    3    3    0    0  0.35709099931E+02 -0.64005098133E+00 -0.89571770083E+01  0.54367075201E+02  0.39999979535E+02 0.  0.
        -12    1    3    3    0    0 -0.35709099931E+02  0.64005098133E+00  0.89571770083E+01  0.36820924799E+02  0.00000000000E+00 0.  1.
         11    1    4    4    0    0  0.25215616451E+02 -0.96559771543E+01 -0.34354345640E+01  0.27218879821E+02  0.51100000000E-03 0. -1.
        -11    1    4    4    0    0  0.23461616753E+01 -0.38444910839E+01 -0.10259094459E+02  0.11204178046E+02  0.51100000000E-03 0.  1.
         12    1    4    4    0    0  0.81473218045E+01  0.12860417257E+02  0.47373520151E+01  0.15944017333E+02  0.00000000000E+00 0. -1.
</event>
<event>
 8    1  0.2401680E-006  0.9118800E+02  0.7816164E-02  0.1184000E+00
        -11   -1    0    0    0    0  0.00000000000E+00  0.00000000000E+00  0.45593999997E+02  0.45594000000E+02  0.51100000000E-03 0.  1.
         11   -1    0    0    0    0 -0.00000000000E+00 -0.00000000000E+00 -0.45593999997E+02  0.45594000000E+02  0.51100000000E-03 0. -1.
         23    2    1    2    0    0  0.23592239273E-15  0.00000000000E+00  0.00000000000E+00  0.91188000000E+02  0.91188000000E+02 0.  0.
    9900012    2    3    3    0    0 -0.10445687754E+00 -0.35803509729E+02 -0.85952269256E+01  0.54367080049E+02  0.39999990588E+02 0.  0.
        -12    1    3    3    0    0  0.10445687754E+00  0.35803509729E+02  0.85952269256E+01  0.36820919951E+02  0.00000000000E+00 0.  1.
         11    1    4    4    0    0 -0.62311528590E+01 -0.21267883524E+02 -0.19672876666E+02  0.29633970576E+02  0.51100000000E-03 0. -1.
        -11    1    4    4    0    0  0.53887125310E+01 -0.13515950289E+02  0.10083792459E+01  0.14585470987E+02  0.51100000000E-03 0.  1.
        -12    1    4    4    0    0  0.73798345052E+00 -0.10196759157E+01  0.10069270494E+02  0.10147638486E+02  0.00000000000E+00 0.  1.
</event>
<event>
 8    1  0.2401680E-006  0.9118800E+02  0.7816164E-02  0.1184000E+00
        -11   -1    0    0    0    0  0.00000000000E+00  0.00000000000E+00  0.45593999997E+02  0.45594000000E+02  0.51100000000E-03 0. -1.
         11   -1    0    0    0    0 -0.00000000000E+00 -0.00000000000E+00 -0.45593999997E+02  0.45594000000E+02  0.51100000000E-03 0.  1.
         23    2    1    2    0    0 -0.13322676296E-14  0.35527136788E-14  0.00000000000E+00  0.91188000000E+02  0.91188000000E+02 0.  0.
    9900012    2    3    3    0    0 -0.23419504554E+01 -0.29748622089E+02 -0.21571140770E+02  0.54367090693E+02  0.40000014852E+02 0.  0.
         12    1    3    3    0    0  0.23419504554E+01  0.29748622089E+02  0.21571140770E+02  0.36820909307E+02  0.00000000000E+00 0. -1.
         11    1    4    4    0    0  0.24573483021E+01  0.12299451343E+01  0.31334404517E+01  0.41677062080E+01  0.51100000000E-03 0. -1.
        -11    1    4    4    0    0 -0.94973860016E+01 -0.33767857640E+02 -0.13229297770E+02  0.37489770207E+02  0.51100000000E-03 0.  1.
        -12    1    4    4    0    0  0.46980872441E+01  0.27892904169E+01 -0.11475283452E+02  0.12709614277E+02  0.00000000000E+00 0.  1.
</event>
<event>
 8    1  0.2401680E-006  0.9118800E+02  0.7816164E-02  0.1184000E+00
        -11   -1    0    0    0    0  0.00000000000E+00  0.00000000000E+00  0.45593999997E+02  0.45594000000E+02  0.51100000000E-03 0.  1.
         11   -1    0    0    0    0 -0.00000000000E+00 -0.00000000000E+00 -0.45593999997E+02  0.45594000000E+02  0.51100000000E-03 0. -1.
         23    2    1    2    0    0  0.00000000000E+00  0.00000000000E+00  0.00000000000E+00  0.91188000000E+02  0.91188000000E+02 0.  0.
    9900012    2    3    3    0    0 -0.31788276215E+01 -0.30437730402E+02 -0.20474866824E+02  0.54367074584E+02  0.39999978129E+02 0.  0.
        -12    1    3    3    0    0  0.31788276215E+01  0.30437730402E+02  0.20474866824E+02  0.36820925416E+02  0.00000000000E+00 0.  1.
         11    1    4    4    0    0 -0.85500383040E+01 -0.14574553674E+02 -0.14170806406E+02  0.22052948198E+02  0.51100000000E-03 0. -1.
        -11    1    4    4    0    0  0.13972059428E+02 -0.15466307630E+02  0.12217696965E+01  0.20878645498E+02  0.51100000000E-03 0.  1.
         12    1    4    4    0    0 -0.86008487451E+01 -0.39686909743E+00 -0.75258301147E+01  0.11435480888E+02  0.00000000000E+00 0. -1.
</event>
<event>
 8    1  0.2401680E-006  0.9118800E+02  0.7816164E-02  0.1184000E+00
        -11   -1    0    0    0    0  0.00000000000E+00  0.00000000000E+00  0.45593999997E+02  0.45594000000E+02  0.51100000000E-03 0.  1.
         11   -1    0    0    0    0 -0.00000000000E+00 -0.00000000000E+00 -0.45593999997E+02  0.45594000000E+02  0.51100000000E-03 0. -1.
         23    2    1    2    0    0  0.35527136788E-14  0.00000000000E+00  0.35527136788E-14  0.91188000000E+02  0.91188000000E+02 0.  0.
    9900012    2    3    3    0    0 -0.23149308721E+02  0.21002239672E+02 -0.19462634393E+02  0.54367099645E+02  0.40000035260E+02 0.  0.
        -12    1    3    3    0    0  0.23149308721E+02 -0.21002239672E+02  0.19462634393E+02  0.36820900355E+02  0.00000000000E+00 0.  1.
         11    1    4    4    0    0  0.65961289536E+01  0.13959414957E+02 -0.35889182469E+01  0.15851009986E+02  0.51100000000E-03 0. -1.
        -11    1    4    4    0    0 -0.56464492848E+01  0.81629017576E+00  0.37440828633E+01  0.68239926675E+01  0.51100000000E-03 0.  1.
         12    1    4    4    0    0 -0.24098988389E+02  0.62265345387E+01 -0.19617799009E+02  0.31692096991E+02  0.00000000000E+00 0. -1.
</event>
<event>
 8    1  0.2401680E-006  0.9118800E+02  0.7816164E-02  0.1184000E+00
        -11   -1    0    0    0    0  0.00000000000E+00  0.00000000000E+00  0.45593999997E+02  0.45594000000E+02  0.51100000000E-03 0.  1.
         11   -1    0    0    0    0 -0.00000000000E+00 -0.00000000000E+00 -0.45593999997E+02  0.45594000000E+02  0.51100000000E-03 0. -1.
         23    2    1    2    0    0 -0.71054273576E-14  0.00000000000E+00  0.00000000000E+00  0.91188000000E+02  0.91188000000E+02 0.  0.
    9900012    2    3    3    0    0  0.30426564745E+02  0.97475471300E+01 -0.18302706133E+02  0.54367087884E+02  0.40000008449E+02 0.  0.
        -12    1    3    3    0    0 -0.30426564745E+02 -0.97475471300E+01  0.18302706133E+02  0.36820912116E+02  0.00000000000E+00 0.  1.
         11    1    4    4    0    0  0.25175086378E+02  0.12091959031E+02 -0.99262378987E+01  0.29640017652E+02  0.51100000000E-03 0. -1.
        -11    1    4    4    0    0  0.12718207624E+02  0.36305437877E+01 -0.72906655137E+01  0.15102564592E+02  0.51100000000E-03 0.  1.
        -12    1    4    4    0    0 -0.74667292564E+01 -0.59749556884E+01 -0.10858027206E+01  0.96245056400E+01  0.00000000000E+00 0.  1.
</event>
<event>
 8    1  0.2401680E-006  0.9118800E+02  0.7816164E-02  0.1184000E+00
        -11   -1    0    0    0    0  0.00000000000E+00  0.00000000000E+00  0.45593999997E+02  0.45594000000E+02  0.51100000000E-03 0.  1.
         11   -1    0    0    0    0 -0.00000000000E+00 -0.00000000000E+00 -0.45593999997E+02  0.45594000000E+02  0.51100000000E-03 0. -1.
         23    2    1    2    0    0 -0.35527136788E-14  0.00000000000E+00 -0.17763568394E-14  0.91188000000E+02  0.91188000000E+02 0.  0.
    9900012    2    3    3    0    0  0.28160441709E+02 -0.20117782969E+02 -0.12571557450E+02  0.54367085759E+02  0.40000003604E+02 0.  0.
        -12    1    3    3    0    0 -0.28160441709E+02  0.20117782969E+02  0.12571557450E+02  0.36820914241E+02  0.00000000000E+00 0.  1.
         11    1    4    4    0    0 -0.27569209266E+01  0.25843787726E+01  0.45427106195E+01  0.59089632483E+01  0.51100000000E-03 0. -1.
        -11    1    4    4    0    0 -0.30076286308E+01  0.11045292156E+01 -0.37047587368E+01  0.48980661825E+01  0.51100000000E-03 0.  1.
         12    1    4    4    0    0  0.33924991267E+02 -0.23806690957E+02 -0.13409509333E+02  0.43560056328E+02  0.00000000000E+00 0. -1.
</event>
<event>
 8    1  0.2401680E-006  0.9118800E+02  0.7816164E-02  0.1184000E+00
        -11   -1    0    0    0    0  0.00000000000E+00  0.00000000000E+00  0.45593999997E+02  0.45594000000E+02  0.51100000000E-03 0. -1.
         11   -1    0    0    0    0 -0.00000000000E+00 -0.00000000000E+00 -0.45593999997E+02  0.45594000000E+02  0.51100000000E-03 0.  1.
         23    2    1    2    0    0  0.17763568394E-14  0.00000000000E+00  0.00000000000E+00  0.91188000000E+02  0.91188000000E+02 0.  0.
    9900012    2    3    3    0    0  0.11874883028E+02  0.28330362543E+02 -0.20301689022E+02  0.54367070274E+02  0.39999968304E+02 0.  0.
         12    1    3    3    0    0 -0.11874883028E+02 -0.28330362543E+02  0.20301689022E+02  0.36820929726E+02  0.00000000000E+00 0. -1.
         11    1    4    4    0    0 -0.11231648789E+02  0.32675708369E+01  0.12605893832E+01  0.11765034617E+02  0.51100000000E-03 0. -1.
        -11    1    4    4    0    0  0.81273811894E+01  0.18603855387E+02 -0.13715976503E+02  0.24500730029E+02  0.51100000000E-03 0.  1.
         12    1    4    4    0    0  0.14979150628E+02  0.64589363195E+01 -0.78463019016E+01  0.18101305628E+02  0.00000000000E+00 0. -1.
</event>
<event>
 8    1  0.2401680E-006  0.9118800E+02  0.7816164E-02  0.1184000E+00
        -11   -1    0    0    0    0  0.00000000000E+00  0.00000000000E+00  0.45593999997E+02  0.45594000000E+02  0.51100000000E-03 0. -1.
         11   -1    0    0    0    0 -0.00000000000E+00 -0.00000000000E+00 -0.45593999997E+02  0.45594000000E+02  0.51100000000E-03 0.  1.
         23    2    1    2    0    0  0.00000000000E+00  0.00000000000E+00  0.88817841970E-15  0.91188000000E+02  0.91188000000E+02 0.  0.
    9900012    2    3    3    0    0 -0.20235021276E+02 -0.29726881272E+02 -0.79143036408E+01  0.54367085314E+02  0.40000002590E+02 0.  0.
         12    1    3    3    0    0  0.20235021276E+02  0.29726881272E+02  0.79143036408E+01  0.36820914686E+02  0.00000000000E+00 0. -1.
         11    1    4    4    0    0  0.23446552072E+01  0.16690055818E+01  0.54039091323E+01  0.61225176066E+01  0.51100000000E-03 0. -1.
        -11    1    4    4    0    0 -0.28053361357E+02 -0.26977129642E+02 -0.88582427728E+01  0.39915223567E+02  0.51100000000E-03 0.  1.
        -12    1    4    4    0    0  0.54736848738E+01 -0.44187572123E+01 -0.44599700002E+01  0.83293441400E+01  0.00000000000E+00 0.  1.
</event>
<event>
 8    1  0.2401680E-006  0.9118800E+02  0.7816164E-02  0.1184000E+00
        -11   -1    0    0    0    0  0.00000000000E+00  0.00000000000E+00  0.45593999997E+02  0.45594000000E+02  0.51100000000E-03 0.  1.
         11   -1    0    0    0    0 -0.00000000000E+00 -0.00000000000E+00 -0.45593999997E+02  0.45594000000E+02  0.51100000000E-03 0. -1.
         23    2    1    2    0    0  0.00000000000E+00 -0.35527136788E-14 -0.88817841970E-15  0.91188000000E+02  0.91188000000E+02 0.  0.
    9900012    2    3    3    0    0  0.18089495458E+02  0.31591298880E+02  0.55249395515E+01  0.54367286157E+02  0.40000460449E+02 0.  0.
         12    1    3    3    0    0 -0.18089495458E+02 -0.31591298880E+02 -0.55249395515E+01  0.36820713843E+02  0.00000000000E+00 0. -1.
         11    1    4    4    0    0 -0.60164861944E+01  0.23579652134E+02  0.46775410888E+01  0.24780586995E+02  0.51100000000E-03 0. -1.
        -11    1    4    4    0    0  0.21934805955E+02  0.11947346492E+02  0.16025811423E+01  0.25028844701E+02  0.51100000000E-03 0.  1.
         12    1    4    4    0    0  0.21711756975E+01 -0.39356997463E+01 -0.75518267961E+00  0.45578544604E+01  0.00000000000E+00 0. -1.
</event>
<event>
 8    1  0.2401680E-006  0.9118800E+02  0.7816164E-02  0.1184000E+00
        -11   -1    0    0    0    0  0.00000000000E+00  0.00000000000E+00  0.45593999997E+02  0.45594000000E+02  0.51100000000E-03 0. -1.
         11   -1    0    0    0    0 -0.00000000000E+00 -0.00000000000E+00 -0.45593999997E+02  0.45594000000E+02  0.51100000000E-03 0.  1.
         23    2    1    2    0    0  0.26645352591E-14  0.00000000000E+00  0.00000000000E+00  0.91188000000E+02  0.91188000000E+02 0.  0.
    9900012    2    3    3    0    0 -0.52545848910E+01  0.24004089082E+02 -0.27422133349E+02  0.54367077246E+02  0.39999984198E+02 0.  0.
         12    1    3    3    0    0  0.52545848910E+01 -0.24004089082E+02  0.27422133349E+02  0.36820922754E+02  0.00000000000E+00 0. -1.
         11    1    4    4    0    0  0.31338940583E+01  0.11774076707E+02 -0.73063687391E+01  0.14206801142E+02  0.51100000000E-03 0. -1.
        -11    1    4    4    0    0 -0.18876781288E+02  0.14075954003E+02 -0.17070896053E+02  0.29084030759E+02  0.51100000000E-03 0.  1.
        -12    1    4    4    0    0  0.10488302338E+02 -0.18459416276E+01 -0.30448685567E+01  0.11076245346E+02  0.00000000000E+00 0.  1.
</event>
<event>
 8    1  0.2401680E-006  0.9118800E+02  0.7816164E-02  0.1184000E+00
        -11   -1    0    0    0    0  0.00000000000E+00  0.00000000000E+00  0.45593999997E+02  0.45594000000E+02  0.51100000000E-03 0.  1.
         11   -1    0    0    0    0 -0.00000000000E+00 -0.00000000000E+00 -0.45593999997E+02  0.45594000000E+02  0.51100000000E-03 0. -1.
         23    2    1    2    0    0 -0.88817841970E-15  0.17763568394E-14  0.00000000000E+00  0.91188000000E+02  0.91188000000E+02 0.  0.
    9900012    2    3    3    0    0  0.54919596819E+01  0.69431974436E+01 -0.35740828721E+02  0.54367130245E+02  0.40000105019E+02 0.  0.
        -12    1    3    3    0    0 -0.54919596819E+01 -0.69431974436E+01  0.35740828721E+02  0.36820869755E+02  0.00000000000E+00 0.  1.
         11    1    4    4    0    0 -0.41251776444E+01  0.33452868756E+01 -0.17839982875E+02  0.18613785863E+02  0.51100000000E-03 0. -1.
        -11    1    4    4    0    0  0.30562726984E-01 -0.12288724974E+02 -0.56996151816E+01  0.13546191681E+02  0.51100000000E-03 0.  1.
        -12    1    4    4    0    0  0.95865745993E+01  0.15886635542E+02 -0.12201230664E+02  0.22207152701E+02  0.00000000000E+00 0.  1.
</event>
<event>
 8    1  0.2401680E-006  0.9118800E+02  0.7816164E-02  0.1184000E+00
        -11   -1    0    0    0    0  0.00000000000E+00  0.00000000000E+00  0.45593999997E+02  0.45594000000E+02  0.51100000000E-03 0.  1.
         11   -1    0    0    0    0 -0.00000000000E+00 -0.00000000000E+00 -0.45593999997E+02  0.45594000000E+02  0.51100000000E-03 0. -1.
         23    2    1    2    0    0  0.00000000000E+00  0.17763568394E-14  0.00000000000E+00  0.91188000000E+02  0.91188000000E+02 0.  0.
    9900012    2    3    3    0    0 -0.33060654160E+02  0.95568755524E+01  0.13093601429E+02  0.54367039635E+02  0.39999898456E+02 0.  0.
         12    1    3    3    0    0  0.33060654160E+02 -0.95568755524E+01 -0.13093601429E+02  0.36820960365E+02  0.00000000000E+00 0. -1.
         11    1    4    4    0    0 -0.75729162478E+01  0.89964618982E+01 -0.10990383365E+02  0.16095773170E+02  0.51100000000E-03 0. -1.
        -11    1    4    4    0    0 -0.11745814692E+02 -0.72255807238E+01  0.13202664311E+02  0.19091451615E+02  0.51100000000E-03 0.  1.
         12    1    4    4    0    0 -0.13741923220E+02  0.77859943780E+01  0.10881320483E+02  0.19179814850E+02  0.00000000000E+00 0. -1.
</event>
<event>
 8    1  0.2401680E-006  0.9118800E+02  0.7816164E-02  0.1184000E+00
        -11   -1    0    0    0    0  0.00000000000E+00  0.00000000000E+00  0.45593999997E+02  0.45594000000E+02  0.51100000000E-03 0.  1.
         11   -1    0    0    0    0 -0.00000000000E+00 -0.00000000000E+00 -0.45593999997E+02  0.45594000000E+02  0.51100000000E-03 0. -1.
         23    2    1    2    0    0 -0.35527136788E-14 -0.35527136788E-14 -0.71054273576E-14  0.91188000000E+02  0.91188000000E+02 0.  0.
    9900012    2    3    3    0    0  0.22255521362E+02  0.17848875061E+02  0.23278501230E+02  0.54367093010E+02  0.40000020135E+02 0.  0.
         12    1    3    3    0    0 -0.22255521362E+02 -0.17848875061E+02 -0.23278501230E+02  0.36820906990E+02  0.00000000000E+00 0. -1.
         11    1    4    4    0    0  0.20847187729E+02  0.14011526586E+02  0.46513353884E+00  0.25122588700E+02  0.51100000000E-03 0. -1.
        -11    1    4    4    0    0  0.61069900025E+01 -0.42751162032E+01  0.45992006398E+01  0.87592575158E+01  0.51100000000E-03 0.  1.
        -12    1    4    4    0    0 -0.46986563702E+01  0.81124646784E+01  0.18214167052E+02  0.20485246795E+02  0.00000000000E+00 0.  1.
</event>
<event>
 8    1  0.2401680E-006  0.9118800E+02  0.7816164E-02  0.1184000E+00
        -11   -1    0    0    0    0  0.00000000000E+00  0.00000000000E+00  0.45593999997E+02  0.45594000000E+02  0.51100000000E-03 0.  1.
         11   -1    0    0    0    0 -0.00000000000E+00 -0.00000000000E+00 -0.45593999997E+02  0.45594000000E+02  0.51100000000E-03 0. -1.
         23    2    1    2    0    0 -0.17763568394E-14  0.00000000000E+00 -0.35527136788E-14  0.91188000000E+02  0.91188000000E+02 0.  0.
    9900012    2    3    3    0    0 -0.85792760661E+01  0.30611491391E+02 -0.18577186814E+02  0.54367092176E+02  0.40000018234E+02 0.  0.
        -12    1    3    3    0    0  0.85792760661E+01 -0.30611491391E+02  0.18577186814E+02  0.36820907824E+02  0.00000000000E+00 0.  1.
         11    1    4    4    0    0 -0.15795099979E-01 -0.56281510401E+01  0.56238628291E+01  0.79563915814E+01  0.51100000000E-03 0.  1.
        -11    1    4    4    0    0 -0.15930911395E+01  0.84317865659E+01 -0.13116905428E+02  0.15674379488E+02  0.51100000000E-03 0. -1.
         12    1    4    4    0    0 -0.69703898266E+01  0.27807855866E+02 -0.11084144216E+02  0.30736321107E+02  0.00000000000E+00 0. -1.
</event>
<event>
 8    1  0.2401680E-006  0.9118800E+02  0.7816164E-02  0.1184000E+00
        -11   -1    0    0    0    0  0.00000000000E+00  0.00000000000E+00  0.45593999997E+02  0.45594000000E+02  0.51100000000E-03 0.  1.
         11   -1    0    0    0    0 -0.00000000000E+00 -0.00000000000E+00 -0.45593999997E+02  0.45594000000E+02  0.51100000000E-03 0. -1.
         23    2    1    2    0    0  0.00000000000E+00 -0.35527136788E-14  0.17763568394E-14  0.91188000000E+02  0.91188000000E+02 0.  0.
    9900012    2    3    3    0    0  0.29713210345E+02  0.18183227527E+02 -0.11927901147E+02  0.54367089391E+02  0.40000011886E+02 0.  0.
        -12    1    3    3    0    0 -0.29713210345E+02 -0.18183227527E+02  0.11927901147E+02  0.36820910609E+02  0.00000000000E+00 0.  1.
         11    1    4    4    0    0  0.59938009455E+01 -0.31231593486E+01 -0.21915453343E+00  0.67622335852E+01  0.51100000000E-03 0. -1.
        -11    1    4    4    0    0 -0.46242640987E+01  0.13492907975E+02  0.32328130653E+01  0.14625097082E+02  0.51100000000E-03 0.  1.
        -12    1    4    4    0    0  0.28343673498E+02  0.78134789006E+01 -0.14941559678E+02  0.32979758724E+02  0.00000000000E+00 0.  1.
</event>
<event>
 8    1  0.2401680E-006  0.9118800E+02  0.7816164E-02  0.1184000E+00
        -11   -1    0    0    0    0  0.00000000000E+00  0.00000000000E+00  0.45593999997E+02  0.45594000000E+02  0.51100000000E-03 0.  1.
         11   -1    0    0    0    0 -0.00000000000E+00 -0.00000000000E+00 -0.45593999997E+02  0.45594000000E+02  0.51100000000E-03 0. -1.
         23    2    1    2    0    0  0.00000000000E+00  0.00000000000E+00  0.35527136788E-14  0.91188000000E+02  0.91188000000E+02 0.  0.
    9900012    2    3    3    0    0 -0.22574698997E+01  0.32051774871E+02  0.17982398333E+02  0.54367094355E+02  0.40000023201E+02 0.  0.
         12    1    3    3    0    0  0.22574698997E+01 -0.32051774871E+02 -0.17982398333E+02  0.36820905645E+02  0.00000000000E+00 0. -1.
         11    1    4    4    0    0  0.67365773390E+00 -0.13836218090E+01 -0.65234961505E+01  0.67025537178E+01  0.51100000000E-03 0. -1.
        -11    1    4    4    0    0  0.76517781297E+00  0.14255222612E+02  0.24237946344E+02  0.28129609170E+02  0.51100000000E-03 0.  1.
        -12    1    4    4    0    0 -0.36963054465E+01  0.19180174068E+02  0.26794813923E+00  0.19534931467E+02  0.00000000000E+00 0.  1.
</event>
<event>
 8    1  0.2401680E-006  0.9118800E+02  0.7816164E-02  0.1184000E+00
        -11   -1    0    0    0    0  0.00000000000E+00  0.00000000000E+00  0.45593999997E+02  0.45594000000E+02  0.51100000000E-03 0.  1.
         11   -1    0    0    0    0 -0.00000000000E+00 -0.00000000000E+00 -0.45593999997E+02  0.45594000000E+02  0.51100000000E-03 0. -1.
         23    2    1    2    0    0  0.35527136788E-14 -0.88817841970E-15  0.00000000000E+00  0.91188000000E+02  0.91188000000E+02 0.  0.
    9900012    2    3    3    0    0  0.25120725291E+02 -0.61124885637E+01 -0.26217675669E+02  0.54367083755E+02  0.39999999037E+02 0.  0.
        -12    1    3    3    0    0 -0.25120725291E+02  0.61124885637E+01  0.26217675669E+02  0.36820916245E+02  0.00000000000E+00 0.  1.
         11    1    4    4    0    0 -0.34646590138E-01 -0.74882649153E+01 -0.87375541040E+01  0.11507396048E+02  0.51100000000E-03 0. -1.
        -11    1    4    4    0    0 -0.19566822000E+01 -0.74886741643E+01  0.23854378430E+01  0.80993308325E+01  0.51100000000E-03 0.  1.
         12    1    4    4    0    0  0.27112054081E+02  0.88644505159E+01 -0.19865559408E+02  0.34760356875E+02  0.00000000000E+00 0. -1.
</event>
<event>
 8    1  0.2401680E-006  0.9118800E+02  0.7816164E-02  0.1184000E+00
        -11   -1    0    0    0    0  0.00000000000E+00  0.00000000000E+00  0.45593999997E+02  0.45594000000E+02  0.51100000000E-03 0. -1.
         11   -1    0    0    0    0 -0.00000000000E+00 -0.00000000000E+00 -0.45593999997E+02  0.45594000000E+02  0.51100000000E-03 0.  1.
         23    2    1    2    0    0  0.00000000000E+00  0.00000000000E+00 -0.22204460493E-15  0.91188000000E+02  0.91188000000E+02 0.  0.
    9900012    2    3    3    0    0 -0.36087114009E+02 -0.73002518130E+01  0.45357481404E+00  0.54367092839E+02  0.40000019745E+02 0.  0.
         12    1    3    3    0    0  0.36087114009E+02  0.73002518130E+01 -0.45357481404E+00  0.36820907161E+02  0.00000000000E+00 0. -1.
         11    1    4    4    0    0 -0.11088100426E+02 -0.10915334086E+02 -0.12905143369E+02  0.20214678204E+02  0.51100000000E-03 0. -1.
        -11    1    4    4    0    0 -0.14956162661E+02 -0.72569284677E+01  0.74253386894E+01  0.18206742356E+02  0.51100000000E-03 0.  1.
         12    1    4    4    0    0 -0.10042850922E+02  0.10872010741E+02  0.59333794932E+01  0.15945672278E+02  0.00000000000E+00 0. -1.
</event>
<event>
 8    1  0.2401680E-006  0.9118800E+02  0.7816164E-02  0.1184000E+00
        -11   -1    0    0    0    0  0.00000000000E+00  0.00000000000E+00  0.45593999997E+02  0.45594000000E+02  0.51100000000E-03 0.  1.
         11   -1    0    0    0    0 -0.00000000000E+00 -0.00000000000E+00 -0.45593999997E+02  0.45594000000E+02  0.51100000000E-03 0. -1.
         23    2    1    2    0    0  0.35527136788E-14  0.00000000000E+00  0.00000000000E+00  0.91188000000E+02  0.91188000000E+02 0.  0.
    9900012    2    3    3    0    0  0.20356531366E+02  0.29000832071E+02  0.10017144149E+02  0.54367084653E+02  0.40000001083E+02 0.  0.
         12    1    3    3    0    0 -0.20356531366E+02 -0.29000832071E+02 -0.10017144149E+02  0.36820915347E+02  0.00000000000E+00 0. -1.
         11    1    4    4    0    0 -0.10997846387E+02  0.13971249420E+02 -0.11586564402E+01  0.17818274902E+02  0.51100000000E-03 0. -1.
        -11    1    4    4    0    0  0.14747961633E+02  0.67194027254E+01  0.45603008547E+01  0.16835946349E+02  0.51100000000E-03 0.  1.
         12    1    4    4    0    0  0.16606416120E+02  0.83101799262E+01  0.66154997347E+01  0.19712863402E+02  0.00000000000E+00 0. -1.
</event>
<event>
 8    1  0.2401680E-006  0.9118800E+02  0.7816164E-02  0.1184000E+00
        -11   -1    0    0    0    0  0.00000000000E+00  0.00000000000E+00  0.45593999997E+02  0.45594000000E+02  0.51100000000E-03 0.  1.
         11   -1    0    0    0    0 -0.00000000000E+00 -0.00000000000E+00 -0.45593999997E+02  0.45594000000E+02  0.51100000000E-03 0. -1.
         23    2    1    2    0    0  0.44408920985E-15  0.00000000000E+00  0.00000000000E+00  0.91188000000E+02  0.91188000000E+02 0.  0.
    9900012    2    3    3    0    0  0.25330681198E+01  0.33501474947E+02 -0.15067014164E+02  0.54367079675E+02  0.39999989735E+02 0.  0.
        -12    1    3    3    0    0 -0.25330681198E+01 -0.33501474947E+02  0.15067014164E+02  0.36820920325E+02  0.00000000000E+00 0.  1.
         11    1    4    4    0    0  0.75318901090E+00  0.12757495651E+02 -0.44292178664E+01  0.13525492972E+02  0.51100000000E-03 0.  1.
        -11    1    4    4    0    0 -0.81548918465E+01  0.24423551439E+02 -0.14517086300E+02  0.29559396490E+02  0.51100000000E-03 0. -1.
         12    1    4    4    0    0  0.99347709553E+01 -0.36795721423E+01  0.38792900024E+01  0.11282190213E+02  0.00000000000E+00 0. -1.
</event>
<event>
 8    1  0.2401680E-006  0.9118800E+02  0.7816164E-02  0.1184000E+00
        -11   -1    0    0    0    0  0.00000000000E+00  0.00000000000E+00  0.45593999997E+02  0.45594000000E+02  0.51100000000E-03 0.  1.
         11   -1    0    0    0    0 -0.00000000000E+00 -0.00000000000E+00 -0.45593999997E+02  0.45594000000E+02  0.51100000000E-03 0. -1.
         23    2    1    2    0    0 -0.35527136788E-14 -0.22204460493E-15  0.00000000000E+00  0.91188000000E+02  0.91188000000E+02 0.  0.
    9900012    2    3    3    0    0  0.17466898207E+02 -0.17047080695E+01 -0.32369453609E+02  0.54367080816E+02  0.39999992337E+02 0.  0.
        -12    1    3    3    0    0 -0.17466898207E+02  0.17047080695E+01  0.32369453609E+02  0.36820919184E+02  0.00000000000E+00 0.  1.
         11    1    4    4    0    0 -0.47058564487E+01 -0.34776755087E+01 -0.17531525748E+01  0.61084250075E+01  0.51100000000E-03 0. -1.
        -11    1    4    4    0    0  0.12177077192E+02  0.14231933174E+02 -0.75347489707E+01  0.20189144933E+02  0.51100000000E-03 0.  1.
         12    1    4    4    0    0  0.99956774634E+01 -0.12458965735E+02 -0.23081552064E+02  0.28069510876E+02  0.00000000000E+00 0. -1.
</event>
<event>
 8    1  0.2401680E-006  0.9118800E+02  0.7816164E-02  0.1184000E+00
        -11   -1    0    0    0    0  0.00000000000E+00  0.00000000000E+00  0.45593999997E+02  0.45594000000E+02  0.51100000000E-03 0. -1.
         11   -1    0    0    0    0 -0.00000000000E+00 -0.00000000000E+00 -0.45593999997E+02  0.45594000000E+02  0.51100000000E-03 0.  1.
         23    2    1    2    0    0  0.35527136788E-14 -0.11102230246E-14 -0.71054273576E-14  0.91188000000E+02  0.91188000000E+02 0.  0.
    9900012    2    3    3    0    0 -0.77062928519E+01 -0.12364454023E+01  0.35984160541E+02  0.54367142370E+02  0.40000132660E+02 0.  0.
        -12    1    3    3    0    0  0.77062928519E+01  0.12364454023E+01 -0.35984160541E+02  0.36820857630E+02  0.00000000000E+00 0.  1.
         11    1    4    4    0    0  0.99695380888E+00  0.11472690710E+02  0.15868817459E+02  0.19607037432E+02  0.51100000000E-03 0. -1.
        -11    1    4    4    0    0  0.44951456566E+01 -0.37338261143E+01  0.17672085118E+02  0.18613177714E+02  0.51100000000E-03 0.  1.
        -12    1    4    4    0    0 -0.13198392317E+02 -0.89753099978E+01  0.24432579641E+01  0.16146927225E+02  0.00000000000E+00 0.  1.
</event>
<event>
 8    1  0.2401680E-006  0.9118800E+02  0.7816164E-02  0.1184000E+00
        -11   -1    0    0    0    0  0.00000000000E+00  0.00000000000E+00  0.45593999997E+02  0.45594000000E+02  0.51100000000E-03 0.  1.
         11   -1    0    0    0    0 -0.00000000000E+00 -0.00000000000E+00 -0.45593999997E+02  0.45594000000E+02  0.51100000000E-03 0. -1.
         23    2    1    2    0    0  0.00000000000E+00  0.00000000000E+00  0.00000000000E+00  0.91188000000E+02  0.91188000000E+02 0.  0.
    9900012    2    3    3    0    0  0.10027390412E+02 -0.74640259948E+01 -0.34634059519E+02  0.54367104828E+02  0.40000047076E+02 0.  0.
        -12    1    3    3    0    0 -0.10027390412E+02  0.74640259948E+01  0.34634059519E+02  0.36820895172E+02  0.00000000000E+00 0.  1.
         11    1    4    4    0    0  0.32480087670E+01 -0.13771378667E+02 -0.20788289396E+02  0.25146638097E+02  0.51100000000E-03 0. -1.
        -11    1    4    4    0    0  0.13247291211E+02 -0.34921232099E+01 -0.96266958995E+01  0.16743921976E+02  0.51100000000E-03 0.  1.
         12    1    4    4    0    0 -0.64679095660E+01  0.97994758817E+01 -0.42190742242E+01  0.12476544755E+02  0.00000000000E+00 0. -1.
</event>
<event>
 8    1  0.2401680E-006  0.9118800E+02  0.7816164E-02  0.1184000E+00
        -11   -1    0    0    0    0  0.00000000000E+00  0.00000000000E+00  0.45593999997E+02  0.45594000000E+02  0.51100000000E-03 0.  1.
         11   -1    0    0    0    0 -0.00000000000E+00 -0.00000000000E+00 -0.45593999997E+02  0.45594000000E+02  0.51100000000E-03 0. -1.
         23    2    1    2    0    0 -0.35527136788E-14  0.00000000000E+00  0.35527136788E-14  0.91188000000E+02  0.91188000000E+02 0.  0.
    9900012    2    3    3    0    0  0.28815566970E+02 -0.40911058238E+01 -0.22554503642E+02  0.54367086361E+02  0.40000004977E+02 0.  0.
        -12    1    3    3    0    0 -0.28815566970E+02  0.40911058238E+01  0.22554503642E+02  0.36820913639E+02  0.00000000000E+00 0.  1.
         11    1    4    4    0    0  0.43298333425E+01 -0.95929455796E+01 -0.91468193273E+01  0.13944044095E+02  0.51100000000E-03 0. -1.
        -11    1    4    4    0    0  0.20600609785E+02 -0.68577860352E+01  0.91884276273E-01  0.21712272931E+02  0.51100000000E-03 0.  1.
        -12    1    4    4    0    0  0.38851238422E+01  0.12359625791E+02 -0.13499568591E+02  0.18710769335E+02  0.00000000000E+00 0.  1.
</event>
<event>
 8    1  0.2401680E-006  0.9118800E+02  0.7816164E-02  0.1184000E+00
        -11   -1    0    0    0    0  0.00000000000E+00  0.00000000000E+00  0.45593999997E+02  0.45594000000E+02  0.51100000000E-03 0. -1.
         11   -1    0    0    0    0 -0.00000000000E+00 -0.00000000000E+00 -0.45593999997E+02  0.45594000000E+02  0.51100000000E-03 0.  1.
         23    2    1    2    0    0  0.00000000000E+00  0.00000000000E+00  0.17763568394E-14  0.91188000000E+02  0.91188000000E+02 0.  0.
    9900012    2    3    3    0    0  0.28917169231E+02  0.22645956412E+02 -0.25964337341E+01  0.54367034691E+02  0.39999887185E+02 0.  0.
        -12    1    3    3    0    0 -0.28917169231E+02 -0.22645956412E+02  0.25964337341E+01  0.36820965309E+02  0.00000000000E+00 0.  1.
         11    1    4    4    0    0  0.29573057807E+02  0.15093864337E+02  0.12947429354E+02  0.35637429984E+02  0.51100000000E-03 0. -1.
        -11    1    4    4    0    0  0.66991268952E+00 -0.12548697477E+01 -0.12800407050E+01  0.19136315117E+01  0.51100000000E-03 0.  1.
         12    1    4    4    0    0 -0.13258012655E+01  0.88069618224E+01 -0.14263822383E+02  0.16815973196E+02  0.00000000000E+00 0. -1.
</event>
<event>
 8    1  0.2401680E-006  0.9118800E+02  0.7816164E-02  0.1184000E+00
        -11   -1    0    0    0    0  0.00000000000E+00  0.00000000000E+00  0.45593999997E+02  0.45594000000E+02  0.51100000000E-03 0.  1.
         11   -1    0    0    0    0 -0.00000000000E+00 -0.00000000000E+00 -0.45593999997E+02  0.45594000000E+02  0.51100000000E-03 0. -1.
         23    2    1    2    0    0  0.88817841970E-15  0.00000000000E+00  0.35527136788E-14  0.91188000000E+02  0.91188000000E+02 0.  0.
    9900012    2    3    3    0    0 -0.75320337425E+01 -0.23973059972E+02  0.26913597368E+02  0.54367070354E+02  0.39999968485E+02 0.  0.
         12    1    3    3    0    0  0.75320337425E+01  0.23973059972E+02 -0.26913597368E+02  0.36820929646E+02  0.00000000000E+00 0. -1.
         11    1    4    4    0    0 -0.63264246035E+01 -0.13307366936E+00  0.11742025784E+02  0.13338535401E+02  0.51100000000E-03 0. -1.
        -11    1    4    4    0    0 -0.83241349862E+01 -0.11399863513E+02  0.21208324546E+02  0.25476285869E+02  0.51100000000E-03 0.  1.
         12    1    4    4    0    0  0.71185258472E+01 -0.12440122789E+02 -0.60367529612E+01  0.15552249084E+02  0.00000000000E+00 0. -1.
</event>
<event>
 8    1  0.2401680E-006  0.9118800E+02  0.7816164E-02  0.1184000E+00
        -11   -1    0    0    0    0  0.00000000000E+00  0.00000000000E+00  0.45593999997E+02  0.45594000000E+02  0.51100000000E-03 0. -1.
         11   -1    0    0    0    0 -0.00000000000E+00 -0.00000000000E+00 -0.45593999997E+02  0.45594000000E+02  0.51100000000E-03 0.  1.
         23    2    1    2    0    0  0.00000000000E+00  0.00000000000E+00  0.00000000000E+00  0.91188000000E+02  0.91188000000E+02 0.  0.
    9900012    2    3    3    0    0  0.45977196022E+01  0.18158936239E+02 -0.31700054201E+02  0.54367089810E+02  0.40000012840E+02 0.  0.
         12    1    3    3    0    0 -0.45977196022E+01 -0.18158936239E+02  0.31700054201E+02  0.36820910190E+02  0.00000000000E+00 0. -1.
         11    1    4    4    0    0  0.26306654373E+01  0.16154929632E+02 -0.28166559193E+02  0.32576942906E+02  0.51100000000E-03 0. -1.
        -11    1    4    4    0    0 -0.87320459427E+01 -0.27123886366E+01 -0.42346813041E+01  0.10076616717E+02  0.51100000000E-03 0.  1.
         12    1    4    4    0    0  0.10699100108E+02  0.47163952427E+01  0.70118629621E+00  0.11713530186E+02  0.00000000000E+00 0. -1.
</event>
<event>
 8    1  0.2401680E-006  0.9118800E+02  0.7816164E-02  0.1184000E+00
        -11   -1    0    0    0    0  0.00000000000E+00  0.00000000000E+00  0.45593999997E+02  0.45594000000E+02  0.51100000000E-03 0.  1.
         11   -1    0    0    0    0 -0.00000000000E+00 -0.00000000000E+00 -0.45593999997E+02  0.45594000000E+02  0.51100000000E-03 0. -1.
         23    2    1    2    0    0  0.00000000000E+00  0.35527136788E-14 -0.35527136788E-14  0.91188000000E+02  0.91188000000E+02 0.  0.
    9900012    2    3    3    0    0 -0.20321361696E+02  0.24090130609E+02 -0.19039118003E+02  0.54367080019E+02  0.39999990520E+02 0.  0.
        -12    1    3    3    0    0  0.20321361696E+02 -0.24090130609E+02  0.19039118003E+02  0.36820919981E+02  0.00000000000E+00 0.  1.
         11    1    4    4    0    0  0.66179740475E+01  0.16988171284E+02 -0.12044895530E+02  0.21851202545E+02  0.51100000000E-03 0. -1.
        -11    1    4    4    0    0 -0.76665503779E+01 -0.47559094032E+01 -0.81376443682E+00  0.90585253639E+01  0.51100000000E-03 0.  1.
         12    1    4    4    0    0 -0.19272785365E+02  0.11857868728E+02 -0.61804580366E+01  0.23457352111E+02  0.00000000000E+00 0. -1.
</event>
<event>
 8    1  0.2401680E-006  0.9118800E+02  0.7816164E-02  0.1184000E+00
        -11   -1    0    0    0    0  0.00000000000E+00  0.00000000000E+00  0.45593999997E+02  0.45594000000E+02  0.51100000000E-03 0. -1.
         11   -1    0    0    0    0 -0.00000000000E+00 -0.00000000000E+00 -0.45593999997E+02  0.45594000000E+02  0.51100000000E-03 0.  1.
         23    2    1    2    0    0  0.00000000000E+00  0.00000000000E+00  0.00000000000E+00  0.91188000000E+02  0.91188000000E+02 0.  0.
    9900012    2    3    3    0    0 -0.22368050271E+02 -0.85290473071E+01  0.27976791078E+02  0.54367147757E+02  0.40000144941E+02 0.  0.
        -12    1    3    3    0    0  0.22368050271E+02  0.85290473071E+01 -0.27976791078E+02  0.36820852243E+02  0.00000000000E+00 0.  1.
         11    1    4    4    0    0 -0.11283113213E+02  0.31790243190E+01  0.19136654792E+02  0.22441621963E+02  0.51100000000E-03 0. -1.
        -11    1    4    4    0    0 -0.47319108441E-02  0.78430008023E+01  0.18895420064E+00  0.78452780656E+01  0.51100000000E-03 0.  1.
         12    1    4    4    0    0 -0.11080205146E+02 -0.19551072428E+02  0.86511820855E+01  0.24080247728E+02  0.00000000000E+00 0. -1.
</event>
<event>
 8    1  0.2401680E-006  0.9118800E+02  0.7816164E-02  0.1184000E+00
        -11   -1    0    0    0    0  0.00000000000E+00  0.00000000000E+00  0.45593999997E+02  0.45594000000E+02  0.51100000000E-03 0. -1.
         11   -1    0    0    0    0 -0.00000000000E+00 -0.00000000000E+00 -0.45593999997E+02  0.45594000000E+02  0.51100000000E-03 0.  1.
         23    2    1    2    0    0  0.35527136788E-14  0.00000000000E+00  0.35527136788E-14  0.91188000000E+02  0.91188000000E+02 0.  0.
    9900012    2    3    3    0    0 -0.28432859690E+02 -0.18010113830E+02  0.14932715871E+02  0.54367113080E+02  0.40000065888E+02 0.  0.
        -12    1    3    3    0    0  0.28432859690E+02  0.18010113830E+02 -0.14932715871E+02  0.36820886920E+02  0.00000000000E+00 0.  1.
         11    1    4    4    0    0 -0.28544648228E+02 -0.16964036758E+02  0.18684837722E+02  0.38101163323E+02  0.51100000000E-03 0. -1.
        -11    1    4    4    0    0  0.26850866301E+01 -0.18848913218E+01  0.56218588547E+01  0.65090554422E+01  0.51100000000E-03 0.  1.
         12    1    4    4    0    0 -0.25732980920E+01  0.83881425036E+00 -0.93739807049E+01  0.97568943149E+01  0.00000000000E+00 0. -1.
</event>
<event>
 8    1  0.2401680E-006  0.9118800E+02  0.7816164E-02  0.1184000E+00
        -11   -1    0    0    0    0  0.00000000000E+00  0.00000000000E+00  0.45593999997E+02  0.45594000000E+02  0.51100000000E-03 0.  1.
         11   -1    0    0    0    0 -0.00000000000E+00 -0.00000000000E+00 -0.45593999997E+02  0.45594000000E+02  0.51100000000E-03 0. -1.
         23    2    1    2    0    0  0.00000000000E+00  0.17763568394E-14  0.00000000000E+00  0.91188000000E+02  0.91188000000E+02 0.  0.
    9900012    2    3    3    0    0  0.14063816715E+02  0.64250450599E+01 -0.33417173512E+02  0.54367087055E+02  0.40000006559E+02 0.  0.
        -12    1    3    3    0    0 -0.14063816715E+02 -0.64250450599E+01  0.33417173512E+02  0.36820912945E+02  0.00000000000E+00 0.  1.
         11    1    4    4    0    0  0.10692921645E+02 -0.59733767486E+01 -0.19792964517E+02  0.23276194872E+02  0.51100000000E-03 0. -1.
        -11    1    4    4    0    0  0.10773188749E+02  0.16688525092E+01  0.16332149369E+01  0.11023341408E+02  0.51100000000E-03 0.  1.
         12    1    4    4    0    0 -0.74022936791E+01  0.10729569299E+02 -0.15257423932E+02  0.20067550775E+02  0.00000000000E+00 0. -1.
</event>
<event>
 8    1  0.2401680E-006  0.9118800E+02  0.7816164E-02  0.1184000E+00
        -11   -1    0    0    0    0  0.00000000000E+00  0.00000000000E+00  0.45593999997E+02  0.45594000000E+02  0.51100000000E-03 0. -1.
         11   -1    0    0    0    0 -0.00000000000E+00 -0.00000000000E+00 -0.45593999997E+02  0.45594000000E+02  0.51100000000E-03 0.  1.
         23    2    1    2    0    0  0.44408920985E-15  0.71054273576E-14  0.00000000000E+00  0.91188000000E+02  0.91188000000E+02 0.  0.
    9900012    2    3    3    0    0  0.22676907322E+01  0.32600672243E+02 -0.16965644624E+02  0.54367090866E+02  0.40000015247E+02 0.  0.
        -12    1    3    3    0    0 -0.22676907322E+01 -0.32600672243E+02  0.16965644624E+02  0.36820909134E+02  0.00000000000E+00 0.  1.
         11    1    4    4    0    0  0.64904154945E+01  0.24933768758E+02  0.55198169995E+00  0.25770584041E+02  0.51100000000E-03 0. -1.
        -11    1    4    4    0    0  0.40416052159E+01 -0.25615920967E+01  0.18972713352E+01  0.51474231972E+01  0.51100000000E-03 0.  1.
        -12    1    4    4    0    0 -0.82643299782E+01  0.10228495582E+02 -0.19414897659E+02  0.23449083628E+02  0.00000000000E+00 0.  1.
</event>
<event>
 8    1  0.2401680E-006  0.9118800E+02  0.7816164E-02  0.1184000E+00
        -11   -1    0    0    0    0  0.00000000000E+00  0.00000000000E+00  0.45593999997E+02  0.45594000000E+02  0.51100000000E-03 0.  1.
         11   -1    0    0    0    0 -0.00000000000E+00 -0.00000000000E+00 -0.45593999997E+02  0.45594000000E+02  0.51100000000E-03 0. -1.
         23    2    1    2    0    0  0.00000000000E+00  0.17763568394E-14 -0.13877787808E-15  0.91188000000E+02  0.91188000000E+02 0.  0.
    9900012    2    3    3    0    0  0.33505541093E+02 -0.15269139231E+02 -0.10586440403E+00  0.54367094198E+02  0.40000022843E+02 0.  0.
         12    1    3    3    0    0 -0.33505541093E+02  0.15269139231E+02  0.10586440403E+00  0.36820905802E+02  0.00000000000E+00 0. -1.
         11    1    4    4    0    0  0.24816875563E+02 -0.51005144656E+01 -0.15227013095E+01  0.25381315570E+02  0.51100000000E-03 0.  1.
        -11    1    4    4    0    0  0.84053831574E+01 -0.87907784535E+01  0.12717883619E+02  0.17597523003E+02  0.51100000000E-03 0. -1.
         12    1    4    4    0    0  0.28328237304E+00 -0.13778463123E+01 -0.11301046714E+02  0.11388255625E+02  0.00000000000E+00 0. -1.
</event>
<event>
 8    1  0.2401680E-006  0.9118800E+02  0.7816164E-02  0.1184000E+00
        -11   -1    0    0    0    0  0.00000000000E+00  0.00000000000E+00  0.45593999997E+02  0.45594000000E+02  0.51100000000E-03 0. -1.
         11   -1    0    0    0    0 -0.00000000000E+00 -0.00000000000E+00 -0.45593999997E+02  0.45594000000E+02  0.51100000000E-03 0.  1.
         23    2    1    2    0    0  0.00000000000E+00  0.00000000000E+00  0.00000000000E+00  0.91188000000E+02  0.91188000000E+02 0.  0.
    9900012    2    3    3    0    0 -0.22793916334E+01  0.35451121048E+02 -0.96852054227E+01  0.54367070980E+02  0.39999969914E+02 0.  0.
         12    1    3    3    0    0  0.22793916334E+01 -0.35451121048E+02  0.96852054227E+01  0.36820929020E+02  0.00000000000E+00 0. -1.
         11    1    4    4    0    0  0.29054290623E+01  0.34998136419E+01  0.64628236359E+01  0.79030565716E+01  0.51100000000E-03 0. -1.
        -11    1    4    4    0    0 -0.72798386181E+01 -0.16551863762E+01  0.26236723167E+01  0.79132388396E+01  0.51100000000E-03 0.  1.
        -12    1    4    4    0    0  0.20950179225E+01  0.33606493783E+02 -0.18771701375E+02  0.38550775569E+02  0.00000000000E+00 0.  1.
</event>
<event>
 8    1  0.2401680E-006  0.9118800E+02  0.7816164E-02  0.1184000E+00
        -11   -1    0    0    0    0  0.00000000000E+00  0.00000000000E+00  0.45593999997E+02  0.45594000000E+02  0.51100000000E-03 0.  1.
         11   -1    0    0    0    0 -0.00000000000E+00 -0.00000000000E+00 -0.45593999997E+02  0.45594000000E+02  0.51100000000E-03 0. -1.
         23    2    1    2    0    0 -0.35527136788E-14  0.00000000000E+00  0.00000000000E+00  0.91188000000E+02  0.91188000000E+02 0.  0.
    9900012    2    3    3    0    0 -0.31040945440E+02 -0.12193525560E+02  0.15606371627E+02  0.54367065808E+02  0.39999958123E+02 0.  0.
         12    1    3    3    0    0  0.31040945440E+02  0.12193525560E+02 -0.15606371627E+02  0.36820934192E+02  0.00000000000E+00 0. -1.
         11    1    4    4    0    0  0.36678523186E+01 -0.36455950776E+01  0.12566321066E+02  0.13588816339E+02  0.51100000000E-03 0. -1.
        -11    1    4    4    0    0 -0.20604216755E+02 -0.41482613257E+00  0.10197049357E+02  0.22993165173E+02  0.51100000000E-03 0.  1.
         12    1    4    4    0    0 -0.14104581003E+02 -0.81331043501E+01 -0.71569987963E+01  0.17785084296E+02  0.00000000000E+00 0. -1.
</event>
<event>
 8    1  0.2401680E-006  0.9118800E+02  0.7816164E-02  0.1184000E+00
        -11   -1    0    0    0    0  0.00000000000E+00  0.00000000000E+00  0.45593999997E+02  0.45594000000E+02  0.51100000000E-03 0. -1.
         11   -1    0    0    0    0 -0.00000000000E+00 -0.00000000000E+00 -0.45593999997E+02  0.45594000000E+02  0.51100000000E-03 0.  1.
         23    2    1    2    0    0 -0.88817841970E-15  0.00000000000E+00 -0.17763568394E-14  0.91188000000E+02  0.91188000000E+02 0.  0.
    9900012    2    3    3    0    0  0.73668304833E+01 -0.33915076761E+02  0.12299575046E+02  0.54367052573E+02  0.39999927951E+02 0.  0.
        -12    1    3    3    0    0 -0.73668304833E+01  0.33915076761E+02 -0.12299575046E+02  0.36820947427E+02  0.00000000000E+00 0.  1.
         11    1    4    4    0    0  0.73617334671E+01 -0.21196866389E+02 -0.18027429695E+01  0.22511156052E+02  0.51100000000E-03 0. -1.
        -11    1    4    4    0    0 -0.11001176558E+01  0.76483432849E+01  0.14737538340E+01  0.78663437812E+01  0.51100000000E-03 0.  1.
         12    1    4    4    0    0  0.11052146720E+01 -0.20366553658E+02  0.12628564182E+02  0.23989552740E+02  0.00000000000E+00 0. -1.
</event>
<event>
 8    1  0.2401680E-006  0.9118800E+02  0.7816164E-02  0.1184000E+00
        -11   -1    0    0    0    0  0.00000000000E+00  0.00000000000E+00  0.45593999997E+02  0.45594000000E+02  0.51100000000E-03 0. -1.
         11   -1    0    0    0    0 -0.00000000000E+00 -0.00000000000E+00 -0.45593999997E+02  0.45594000000E+02  0.51100000000E-03 0.  1.
         23    2    1    2    0    0  0.00000000000E+00 -0.11102230246E-15  0.00000000000E+00  0.91188000000E+02  0.91188000000E+02 0.  0.
    9900012    2    3    3    0    0 -0.35559051788E+02 -0.69694023634E+00 -0.95309033176E+01  0.54367217718E+02  0.40000304432E+02 0.  0.
         12    1    3    3    0    0  0.35559051788E+02  0.69694023634E+00  0.95309033176E+01  0.36820782282E+02  0.00000000000E+00 0. -1.
         11    1    4    4    0    0  0.49208534430E+01 -0.35856306352E+01 -0.77089715764E+01  0.98234305966E+01  0.51100000000E-03 0. -1.
        -11    1    4    4    0    0 -0.17029784840E+02  0.77767133214E+01 -0.70868985461E+01  0.20017866346E+02  0.51100000000E-03 0.  1.
         12    1    4    4    0    0 -0.23450120391E+02 -0.48880229225E+01  0.52649668048E+01  0.24525920776E+02  0.00000000000E+00 0. -1.
</event>
<event>
 8    1  0.2401680E-006  0.9118800E+02  0.7816164E-02  0.1184000E+00
        -11   -1    0    0    0    0  0.00000000000E+00  0.00000000000E+00  0.45593999997E+02  0.45594000000E+02  0.51100000000E-03 0. -1.
         11   -1    0    0    0    0 -0.00000000000E+00 -0.00000000000E+00 -0.45593999997E+02  0.45594000000E+02  0.51100000000E-03 0.  1.
         23    2    1    2    0    0  0.00000000000E+00  0.00000000000E+00  0.35527136788E-14  0.91188000000E+02  0.91188000000E+02 0.  0.
    9900012    2    3    3    0    0 -0.22563804345E+02 -0.17638551903E+02  0.23141655478E+02  0.54367082059E+02  0.39999995170E+02 0.  0.
        -12    1    3    3    0    0  0.22563804345E+02  0.17638551903E+02 -0.23141655478E+02  0.36820917941E+02  0.00000000000E+00 0.  1.
         11    1    4    4    0    0 -0.12539345487E+02 -0.16692835011E+02  0.15177818658E+02  0.25811859782E+02  0.51100000000E-03 0. -1.
        -11    1    4    4    0    0  0.17365576545E+01 -0.77334852569E+01  0.12006729311E+02  0.14386937677E+02  0.51100000000E-03 0.  1.
         12    1    4    4    0    0 -0.11761016513E+02  0.67877683649E+01 -0.40428924914E+01  0.14168284599E+02  0.00000000000E+00 0. -1.
</event>
<event>
 8    1  0.2401680E-006  0.9118800E+02  0.7816164E-02  0.1184000E+00
        -11   -1    0    0    0    0  0.00000000000E+00  0.00000000000E+00  0.45593999997E+02  0.45594000000E+02  0.51100000000E-03 0.  1.
         11   -1    0    0    0    0 -0.00000000000E+00 -0.00000000000E+00 -0.45593999997E+02  0.45594000000E+02  0.51100000000E-03 0. -1.
         23    2    1    2    0    0  0.00000000000E+00  0.00000000000E+00 -0.17763568394E-14  0.91188000000E+02  0.91188000000E+02 0.  0.
    9900012    2    3    3    0    0  0.49394060407E+01  0.35348607765E+02 -0.90475059238E+01  0.54367093352E+02  0.40000020915E+02 0.  0.
        -12    1    3    3    0    0 -0.49394060407E+01 -0.35348607765E+02  0.90475059238E+01  0.36820906648E+02  0.00000000000E+00 0.  1.
         11    1    4    4    0    0  0.57319269193E+01  0.24381280205E+02 -0.90095994769E+00  0.25062193434E+02  0.51100000000E-03 0. -1.
        -11    1    4    4    0    0  0.15570367951E+01  0.19087594459E+02 -0.82463251466E+01  0.20850959318E+02  0.51100000000E-03 0.  1.
        -12    1    4    4    0    0 -0.23495576737E+01 -0.81202668993E+01  0.99779170523E-01  0.84539405996E+01  0.00000000000E+00 0.  1.
</event>
<event>
 8    1  0.2401680E-006  0.9118800E+02  0.7816164E-02  0.1184000E+00
        -11   -1    0    0    0    0  0.00000000000E+00  0.00000000000E+00  0.45593999997E+02  0.45594000000E+02  0.51100000000E-03 0.  1.
         11   -1    0    0    0    0 -0.00000000000E+00 -0.00000000000E+00 -0.45593999997E+02  0.45594000000E+02  0.51100000000E-03 0. -1.
         23    2    1    2    0    0  0.00000000000E+00  0.00000000000E+00 -0.71054273576E-14  0.91188000000E+02  0.91188000000E+02 0.  0.
    9900012    2    3    3    0    0 -0.81186739319E+01 -0.47310958919E+01 -0.35601741239E+02  0.54367080484E+02  0.39999991579E+02 0.  0.
        -12    1    3    3    0    0  0.81186739319E+01  0.47310958919E+01  0.35601741239E+02  0.36820919516E+02  0.00000000000E+00 0.  1.
         11    1    4    4    0    0  0.51365801290E+01 -0.65289961886E+00 -0.13561710243E+02  0.14516567029E+02  0.51100000000E-03 0. -1.
        -11    1    4    4    0    0 -0.51081463210E+01 -0.37255595634E+01 -0.28658707471E+02  0.29347818779E+02  0.51100000000E-03 0.  1.
        -12    1    4    4    0    0 -0.81471077399E+01 -0.35263670967E+00  0.66186764752E+01  0.10502694676E+02  0.00000000000E+00 0.  1.
</event>
<event>
 8    1  0.2401680E-006  0.9118800E+02  0.7816164E-02  0.1184000E+00
        -11   -1    0    0    0    0  0.00000000000E+00  0.00000000000E+00  0.45593999997E+02  0.45594000000E+02  0.51100000000E-03 0.  1.
         11   -1    0    0    0    0 -0.00000000000E+00 -0.00000000000E+00 -0.45593999997E+02  0.45594000000E+02  0.51100000000E-03 0. -1.
         23    2    1    2    0    0  0.00000000000E+00  0.00000000000E+00  0.00000000000E+00  0.91188000000E+02  0.91188000000E+02 0.  0.
    9900012    2    3    3    0    0  0.28591110188E+02  0.13037805127E+02  0.19192293023E+02  0.54367081275E+02  0.39999993382E+02 0.  0.
         12    1    3    3    0    0 -0.28591110188E+02 -0.13037805127E+02 -0.19192293023E+02  0.36820918725E+02  0.00000000000E+00 0. -1.
         11    1    4    4    0    0  0.10608442190E+02 -0.52140410945E+01 -0.28783011514E-01  0.11820579468E+02  0.51100000000E-03 0. -1.
        -11    1    4    4    0    0  0.93205182222E+01  0.21555885528E+02  0.27494001254E+01  0.23645030390E+02  0.51100000000E-03 0.  1.
         12    1    4    4    0    0  0.86621497760E+01 -0.33040393073E+01  0.16471675909E+02  0.18901471417E+02  0.00000000000E+00 0. -1.
</event>
<event>
 8    1  0.2401680E-006  0.9118800E+02  0.7816164E-02  0.1184000E+00
        -11   -1    0    0    0    0  0.00000000000E+00  0.00000000000E+00  0.45593999997E+02  0.45594000000E+02  0.51100000000E-03 0.  1.
         11   -1    0    0    0    0 -0.00000000000E+00 -0.00000000000E+00 -0.45593999997E+02  0.45594000000E+02  0.51100000000E-03 0. -1.
         23    2    1    2    0    0  0.00000000000E+00  0.00000000000E+00  0.35527136788E-14  0.91188000000E+02  0.91188000000E+02 0.  0.
    9900012    2    3    3    0    0  0.21406430527E+02  0.18396908572E+02 -0.23645248645E+02  0.54367091587E+02  0.40000016890E+02 0.  0.
        -12    1    3    3    0    0 -0.21406430527E+02 -0.18396908572E+02  0.23645248645E+02  0.36820908413E+02  0.00000000000E+00 0.  1.
         11    1    4    4    0    0  0.15560808459E+02  0.33547684208E+01  0.17052337004E+01  0.16009405151E+02  0.51100000000E-03 0. -1.
        -11    1    4    4    0    0  0.80460786509E+00 -0.64412053036E+01 -0.38435887636E+01  0.75438514317E+01  0.51100000000E-03 0.  1.
         12    1    4    4    0    0  0.50410142032E+01  0.21483345454E+02 -0.21506893582E+02  0.30813835004E+02  0.00000000000E+00 0. -1.
</event>
<event>
 8    1  0.2401680E-006  0.9118800E+02  0.7816164E-02  0.1184000E+00
        -11   -1    0    0    0    0  0.00000000000E+00  0.00000000000E+00  0.45593999997E+02  0.45594000000E+02  0.51100000000E-03 0.  1.
         11   -1    0    0    0    0 -0.00000000000E+00 -0.00000000000E+00 -0.45593999997E+02  0.45594000000E+02  0.51100000000E-03 0. -1.
         23    2    1    2    0    0  0.00000000000E+00  0.17763568394E-14  0.00000000000E+00  0.91188000000E+02  0.91188000000E+02 0.  0.
    9900012    2    3    3    0    0 -0.92982264466E+01 -0.62943293375E+01 -0.35067143564E+02  0.54367079933E+02  0.39999990322E+02 0.  0.
        -12    1    3    3    0    0  0.92982264466E+01  0.62943293375E+01  0.35067143564E+02  0.36820920067E+02  0.00000000000E+00 0.  1.
         11    1    4    4    0    0 -0.97928023637E+00 -0.11304018697E+02 -0.14282651818E+02  0.18240997004E+02  0.51100000000E-03 0. -1.
        -11    1    4    4    0    0  0.85307181300E+01 -0.49200228728E+01 -0.86673315852E+01  0.13118780963E+02  0.51100000000E-03 0.  1.
         12    1    4    4    0    0 -0.16849664340E+02  0.99297122319E+01 -0.12117160161E+02  0.23007301966E+02  0.00000000000E+00 0. -1.
</event>
<event>
 8    1  0.2401680E-006  0.9118800E+02  0.7816164E-02  0.1184000E+00
        -11   -1    0    0    0    0  0.00000000000E+00  0.00000000000E+00  0.45593999997E+02  0.45594000000E+02  0.51100000000E-03 0. -1.
         11   -1    0    0    0    0 -0.00000000000E+00 -0.00000000000E+00 -0.45593999997E+02  0.45594000000E+02  0.51100000000E-03 0.  1.
         23    2    1    2    0    0  0.17763568394E-14  0.00000000000E+00  0.00000000000E+00  0.91188000000E+02  0.91188000000E+02 0.  0.
    9900012    2    3    3    0    0  0.15499377177E+02 -0.12843991382E+02 -0.30831492508E+02  0.54367085593E+02  0.40000003227E+02 0.  0.
         12    1    3    3    0    0 -0.15499377177E+02  0.12843991382E+02  0.30831492508E+02  0.36820914407E+02  0.00000000000E+00 0. -1.
         11    1    4    4    0    0 -0.68686697190E+01 -0.12882010022E+02  0.14089187667E+01  0.14666623956E+02  0.51100000000E-03 0. -1.
        -11    1    4    4    0    0  0.10554368690E+02 -0.17357055131E+01 -0.19462756323E+02  0.22208247477E+02  0.51100000000E-03 0.  1.
         12    1    4    4    0    0  0.11813678206E+02  0.17737241538E+01 -0.12777654952E+02  0.17492214159E+02  0.00000000000E+00 0. -1.
</event>
<event>
 8    1  0.2401680E-006  0.9118800E+02  0.7816164E-02  0.1184000E+00
        -11   -1    0    0    0    0  0.00000000000E+00  0.00000000000E+00  0.45593999997E+02  0.45594000000E+02  0.51100000000E-03 0. -1.
         11   -1    0    0    0    0 -0.00000000000E+00 -0.00000000000E+00 -0.45593999997E+02  0.45594000000E+02  0.51100000000E-03 0.  1.
         23    2    1    2    0    0  0.00000000000E+00  0.00000000000E+00  0.00000000000E+00  0.91188000000E+02  0.91188000000E+02 0.  0.
    9900012    2    3    3    0    0  0.15104358254E+02  0.16424280945E+02  0.29289597279E+02  0.54367093552E+02  0.40000021371E+02 0.  0.
        -12    1    3    3    0    0 -0.15104358254E+02 -0.16424280945E+02 -0.29289597279E+02  0.36820906448E+02  0.00000000000E+00 0.  1.
         11    1    4    4    0    0  0.33950819027E+01  0.54907110657E+01  0.15471557759E+02  0.16764354711E+02  0.51100000000E-03 0. -1.
        -11    1    4    4    0    0  0.19034608411E+01 -0.20410847146E+01  0.20007666374E+02  0.20201383714E+02  0.51100000000E-03 0.  1.
        -12    1    4    4    0    0  0.98058155105E+01  0.12974654594E+02 -0.61896268535E+01  0.17401355127E+02  0.00000000000E+00 0.  1.
</event>
<event>
 8    1  0.2401680E-006  0.9118800E+02  0.7816164E-02  0.1184000E+00
        -11   -1    0    0    0    0  0.00000000000E+00  0.00000000000E+00  0.45593999997E+02  0.45594000000E+02  0.51100000000E-03 0.  1.
         11   -1    0    0    0    0 -0.00000000000E+00 -0.00000000000E+00 -0.45593999997E+02  0.45594000000E+02  0.51100000000E-03 0. -1.
         23    2    1    2    0    0  0.00000000000E+00  0.00000000000E+00  0.00000000000E+00  0.91188000000E+02  0.91188000000E+02 0.  0.
    9900012    2    3    3    0    0 -0.30316391085E+02 -0.16141751510E+02  0.13271751594E+02  0.54367094245E+02  0.40000022951E+02 0.  0.
         12    1    3    3    0    0  0.30316391085E+02  0.16141751510E+02 -0.13271751594E+02  0.36820905755E+02  0.00000000000E+00 0. -1.
         11    1    4    4    0    0 -0.10163047500E+02  0.51014177004E+00  0.21760339339E+02  0.24022076254E+02  0.51100000000E-03 0. -1.
        -11    1    4    4    0    0 -0.19247580193E+02 -0.13188090017E+02 -0.26313141947E+01  0.23480180499E+02  0.51100000000E-03 0.  1.
         12    1    4    4    0    0 -0.90576339079E+00 -0.34638032634E+01 -0.58572735498E+01  0.68648374930E+01  0.00000000000E+00 0. -1.
</event>
<event>
 8    1  0.2401680E-006  0.9118800E+02  0.7816164E-02  0.1184000E+00
        -11   -1    0    0    0    0  0.00000000000E+00  0.00000000000E+00  0.45593999997E+02  0.45594000000E+02  0.51100000000E-03 0.  1.
         11   -1    0    0    0    0 -0.00000000000E+00 -0.00000000000E+00 -0.45593999997E+02  0.45594000000E+02  0.51100000000E-03 0. -1.
         23    2    1    2    0    0  0.88817841970E-15 -0.17763568394E-14  0.00000000000E+00  0.91188000000E+02  0.91188000000E+02 0.  0.
    9900012    2    3    3    0    0  0.45316789155E+01  0.13942374622E+02 -0.33776534390E+02  0.54367079326E+02  0.39999988940E+02 0.  0.
        -12    1    3    3    0    0 -0.45316789155E+01 -0.13942374622E+02  0.33776534390E+02  0.36820920674E+02  0.00000000000E+00 0.  1.
         11    1    4    4    0    0  0.66186414773E+01 -0.48163563825E+01 -0.28141093257E+02  0.29307419432E+02  0.51100000000E-03 0. -1.
        -11    1    4    4    0    0 -0.73070780165E+01  0.17523359676E+02 -0.51588431870E+01  0.19674226459E+02  0.51100000000E-03 0.  1.
         12    1    4    4    0    0  0.52201154547E+01  0.12353713280E+01 -0.47659794534E+00  0.53854334348E+01  0.00000000000E+00 0. -1.
</event>
<event>
 8    1  0.2401680E-006  0.9118800E+02  0.7816164E-02  0.1184000E+00
        -11   -1    0    0    0    0  0.00000000000E+00  0.00000000000E+00  0.45593999997E+02  0.45594000000E+02  0.51100000000E-03 0.  1.
         11   -1    0    0    0    0 -0.00000000000E+00 -0.00000000000E+00 -0.45593999997E+02  0.45594000000E+02  0.51100000000E-03 0. -1.
         23    2    1    2    0    0  0.00000000000E+00  0.00000000000E+00 -0.17763568394E-14  0.91188000000E+02  0.91188000000E+02 0.  0.
    9900012    2    3    3    0    0 -0.19757026784E+02 -0.26987232321E+02 -0.15398978185E+02  0.54367090929E+02  0.40000015391E+02 0.  0.
        -12    1    3    3    0    0  0.19757026784E+02  0.26987232321E+02  0.15398978185E+02  0.36820909071E+02  0.00000000000E+00 0.  1.
         11    1    4    4    0    0 -0.20037049233E+02 -0.84703857666E+01 -0.21217003453E+02  0.30387366005E+02  0.51100000000E-03 0. -1.
        -11    1    4    4    0    0  0.27590988150E+01 -0.31983991376E+00  0.48501055488E+01  0.55891366003E+01  0.51100000000E-03 0.  1.
         12    1    4    4    0    0 -0.24790763662E+01 -0.18197006640E+02  0.96791971881E+00  0.18390588323E+02  0.00000000000E+00 0. -1.
</event>
<event>
 8    1  0.2401680E-006  0.9118800E+02  0.7816164E-02  0.1184000E+00
        -11   -1    0    0    0    0  0.00000000000E+00  0.00000000000E+00  0.45593999997E+02  0.45594000000E+02  0.51100000000E-03 0.  1.
         11   -1    0    0    0    0 -0.00000000000E+00 -0.00000000000E+00 -0.45593999997E+02  0.45594000000E+02  0.51100000000E-03 0. -1.
         23    2    1    2    0    0  0.00000000000E+00 -0.17763568394E-14  0.00000000000E+00  0.91188000000E+02  0.91188000000E+02 0.  0.
    9900012    2    3    3    0    0  0.35482887722E+02  0.85286301247E+01  0.48997487664E+01  0.54367076725E+02  0.39999983010E+02 0.  0.
        -12    1    3    3    0    0 -0.35482887722E+02 -0.85286301247E+01 -0.48997487664E+01  0.36820923275E+02  0.00000000000E+00 0.  1.
         11    1    4    4    0    0 -0.38639073829E+00  0.27870935932E+01 -0.44618274834E+01  0.52749495972E+01  0.51100000000E-03 0. -1.
        -11    1    4    4    0    0 -0.63879389073E+00  0.11251466544E+02  0.22422944628E+01  0.11490493537E+02  0.51100000000E-03 0.  1.
         12    1    4    4    0    0  0.36508072351E+02 -0.55099300121E+01  0.71192817869E+01  0.37601633590E+02  0.00000000000E+00 0. -1.
</event>
<event>
 8    1  0.2401680E-006  0.9118800E+02  0.7816164E-02  0.1184000E+00
        -11   -1    0    0    0    0  0.00000000000E+00  0.00000000000E+00  0.45593999997E+02  0.45594000000E+02  0.51100000000E-03 0.  1.
         11   -1    0    0    0    0 -0.00000000000E+00 -0.00000000000E+00 -0.45593999997E+02  0.45594000000E+02  0.51100000000E-03 0. -1.
         23    2    1    2    0    0  0.35527136788E-14  0.55511151231E-15 -0.35527136788E-14  0.91188000000E+02  0.91188000000E+02 0.  0.
    9900012    2    3    3    0    0 -0.31518883108E+02  0.55147526948E+00  0.19027221674E+02  0.54367091783E+02  0.40000017337E+02 0.  0.
         12    1    3    3    0    0  0.31518883108E+02 -0.55147526948E+00 -0.19027221674E+02  0.36820908217E+02  0.00000000000E+00 0. -1.
         11    1    4    4    0    0 -0.10078477521E+02 -0.20512071227E+01 -0.35891911934E+01  0.10893367408E+02  0.51100000000E-03 0. -1.
        -11    1    4    4    0    0 -0.85680567502E+01  0.13116832387E+02  0.21783162896E+02  0.26832239459E+02  0.51100000000E-03 0.  1.
         12    1    4    4    0    0 -0.12872348837E+02 -0.10514149995E+02  0.83324997117E+00  0.16641484916E+02  0.00000000000E+00 0. -1.
</event>
<event>
 8    1  0.2401680E-006  0.9118800E+02  0.7816164E-02  0.1184000E+00
        -11   -1    0    0    0    0  0.00000000000E+00  0.00000000000E+00  0.45593999997E+02  0.45594000000E+02  0.51100000000E-03 0. -1.
         11   -1    0    0    0    0 -0.00000000000E+00 -0.00000000000E+00 -0.45593999997E+02  0.45594000000E+02  0.51100000000E-03 0.  1.
         23    2    1    2    0    0  0.00000000000E+00  0.00000000000E+00  0.35527136788E-14  0.91188000000E+02  0.91188000000E+02 0.  0.
    9900012    2    3    3    0    0 -0.35056082871E+02  0.41658025548E+01 -0.10464070656E+02  0.54367087031E+02  0.40000006504E+02 0.  0.
        -12    1    3    3    0    0  0.35056082871E+02 -0.41658025548E+01  0.10464070656E+02  0.36820912969E+02  0.00000000000E+00 0.  1.
         11    1    4    4    0    0  0.58975748827E+01  0.33948499255E+01  0.29853502226E+01  0.74309293986E+01  0.51100000000E-03 0.  1.
        -11    1    4    4    0    0 -0.15600382653E+02  0.87180796764E+01 -0.19237994212E+01  0.17974366655E+02  0.51100000000E-03 0. -1.
         12    1    4    4    0    0 -0.25353275101E+02 -0.79471270471E+01 -0.11525621457E+02  0.28961790978E+02  0.00000000000E+00 0. -1.
</event>
<event>
 8    1  0.2401680E-006  0.9118800E+02  0.7816164E-02  0.1184000E+00
        -11   -1    0    0    0    0  0.00000000000E+00  0.00000000000E+00  0.45593999997E+02  0.45594000000E+02  0.51100000000E-03 0. -1.
         11   -1    0    0    0    0 -0.00000000000E+00 -0.00000000000E+00 -0.45593999997E+02  0.45594000000E+02  0.51100000000E-03 0.  1.
         23    2    1    2    0    0  0.00000000000E+00 -0.35527136788E-14 -0.35527136788E-14  0.91188000000E+02  0.91188000000E+02 0.  0.
    9900012    2    3    3    0    0  0.26523821768E+02  0.17492527212E+02 -0.18608527454E+02  0.54367096651E+02  0.40000028435E+02 0.  0.
         12    1    3    3    0    0 -0.26523821768E+02 -0.17492527212E+02  0.18608527454E+02  0.36820903349E+02  0.00000000000E+00 0. -1.
         11    1    4    4    0    0  0.60072420370E+00  0.78061265859E+01 -0.49710125500E+01  0.92740200494E+01  0.51100000000E-03 0. -1.
        -11    1    4    4    0    0  0.74395896066E+00  0.16368782814E+02 -0.18175550031E+01  0.16486177004E+02  0.51100000000E-03 0.  1.
        -12    1    4    4    0    0  0.25179138603E+02 -0.66823821880E+01 -0.11819959901E+02  0.28606899598E+02  0.00000000000E+00 0.  1.
</event>
<event>
 8    1  0.2401680E-006  0.9118800E+02  0.7816164E-02  0.1184000E+00
        -11   -1    0    0    0    0  0.00000000000E+00  0.00000000000E+00  0.45593999997E+02  0.45594000000E+02  0.51100000000E-03 0. -1.
         11   -1    0    0    0    0 -0.00000000000E+00 -0.00000000000E+00 -0.45593999997E+02  0.45594000000E+02  0.51100000000E-03 0.  1.
         23    2    1    2    0    0 -0.88817841970E-15 -0.35527136788E-14  0.00000000000E+00  0.91188000000E+02  0.91188000000E+02 0.  0.
    9900012    2    3    3    0    0 -0.10436870403E+01 -0.28075082822E+02  0.23800867129E+02  0.54367070705E+02  0.39999969286E+02 0.  0.
        -12    1    3    3    0    0  0.10436870403E+01  0.28075082822E+02 -0.23800867129E+02  0.36820929295E+02  0.00000000000E+00 0.  1.
         11    1    4    4    0    0 -0.51708210501E+01  0.11123984642E+01  0.42380213623E+01  0.67775840831E+01  0.51100000000E-03 0. -1.
        -11    1    4    4    0    0  0.55933849216E+01  0.89277271194E+00 -0.58802565391E+01  0.81645829792E+01  0.51100000000E-03 0.  1.
        -12    1    4    4    0    0 -0.14662509119E+01 -0.30080253998E+02  0.25443102306E+02  0.39424903643E+02  0.00000000000E+00 0.  1.
</event>
<event>
 8    1  0.2401680E-006  0.9118800E+02  0.7816164E-02  0.1184000E+00
        -11   -1    0    0    0    0  0.00000000000E+00  0.00000000000E+00  0.45593999997E+02  0.45594000000E+02  0.51100000000E-03 0. -1.
         11   -1    0    0    0    0 -0.00000000000E+00 -0.00000000000E+00 -0.45593999997E+02  0.45594000000E+02  0.51100000000E-03 0.  1.
         23    2    1    2    0    0  0.00000000000E+00 -0.88817841970E-15  0.17763568394E-14  0.91188000000E+02  0.91188000000E+02 0.  0.
    9900012    2    3    3    0    0  0.35143529193E+02  0.42538668839E+01  0.10129931706E+02  0.54367101804E+02  0.40000040182E+02 0.  0.
         12    1    3    3    0    0 -0.35143529193E+02 -0.42538668839E+01 -0.10129931706E+02  0.36820898196E+02  0.00000000000E+00 0. -1.
         11    1    4    4    0    0  0.19493386933E+02  0.81650489499E+01 -0.83227202378E+01  0.22714044793E+02  0.51100000000E-03 0.  1.
        -11    1    4    4    0    0  0.16544792183E+02 -0.63331159438E+00  0.21467480899E+02  0.27110587754E+02  0.51100000000E-03 0. -1.
         12    1    4    4    0    0 -0.89464992230E+00 -0.32778704717E+01 -0.30148289552E+01  0.45424692560E+01  0.00000000000E+00 0. -1.
</event>
<event>
 8    1  0.2401680E-006  0.9118800E+02  0.7816164E-02  0.1184000E+00
        -11   -1    0    0    0    0  0.00000000000E+00  0.00000000000E+00  0.45593999997E+02  0.45594000000E+02  0.51100000000E-03 0. -1.
         11   -1    0    0    0    0 -0.00000000000E+00 -0.00000000000E+00 -0.45593999997E+02  0.45594000000E+02  0.51100000000E-03 0.  1.
         23    2    1    2    0    0 -0.71054273576E-14 -0.10658141036E-13  0.00000000000E+00  0.91188000000E+02  0.91188000000E+02 0.  0.
    9900012    2    3    3    0    0 -0.24573623969E+02 -0.21592899093E+02 -0.16901628671E+02  0.54367063864E+02  0.39999953690E+02 0.  0.
         12    1    3    3    0    0  0.24573623969E+02  0.21592899093E+02  0.16901628671E+02  0.36820936136E+02  0.00000000000E+00 0. -1.
         11    1    4    4    0    0  0.13110797666E+01  0.44727814600E+01  0.26958993623E+01  0.53844756269E+01  0.51100000000E-03 0. -1.
        -11    1    4    4    0    0 -0.84460464267E+01  0.27010857349E+01 -0.11246331476E+02  0.14321715551E+02  0.51100000000E-03 0.  1.
         12    1    4    4    0    0 -0.17438657309E+02 -0.28766766288E+02 -0.83511965575E+01  0.34660872686E+02  0.00000000000E+00 0. -1.
</event>
<event>
 8    1  0.2401680E-006  0.9118800E+02  0.7816164E-02  0.1184000E+00
        -11   -1    0    0    0    0  0.00000000000E+00  0.00000000000E+00  0.45593999997E+02  0.45594000000E+02  0.51100000000E-03 0.  1.
         11   -1    0    0    0    0 -0.00000000000E+00 -0.00000000000E+00 -0.45593999997E+02  0.45594000000E+02  0.51100000000E-03 0. -1.
         23    2    1    2    0    0  0.35527136788E-14  0.00000000000E+00  0.00000000000E+00  0.91188000000E+02  0.91188000000E+02 0.  0.
    9900012    2    3    3    0    0 -0.23536150448E+02  0.26602529457E+02  0.97023300022E+01  0.54367079875E+02  0.39999990190E+02 0.  0.
         12    1    3    3    0    0  0.23536150448E+02 -0.26602529457E+02 -0.97023300022E+01  0.36820920125E+02  0.00000000000E+00 0. -1.
         11    1    4    4    0    0  0.14715594462E+01  0.43870760824E+01 -0.81064233070E+01  0.93341321423E+01  0.51100000000E-03 0. -1.
        -11    1    4    4    0    0  0.44592876670E+00  0.30019109355E+01  0.12300754253E+02  0.12669604460E+02  0.51100000000E-03 0.  1.
        -12    1    4    4    0    0 -0.25453638661E+02  0.19213542439E+02  0.55079990563E+01  0.32363343272E+02  0.00000000000E+00 0.  1.
</event>
<event>
 8    1  0.2401680E-006  0.9118800E+02  0.7816164E-02  0.1184000E+00
        -11   -1    0    0    0    0  0.00000000000E+00  0.00000000000E+00  0.45593999997E+02  0.45594000000E+02  0.51100000000E-03 0.  1.
         11   -1    0    0    0    0 -0.00000000000E+00 -0.00000000000E+00 -0.45593999997E+02  0.45594000000E+02  0.51100000000E-03 0. -1.
         23    2    1    2    0    0  0.00000000000E+00 -0.35527136788E-14  0.00000000000E+00  0.91188000000E+02  0.91188000000E+02 0.  0.
    9900012    2    3    3    0    0 -0.10166512366E+02 -0.24658943430E+02 -0.25384222611E+02  0.54367079013E+02  0.39999988226E+02 0.  0.
        -12    1    3    3    0    0  0.10166512366E+02  0.24658943430E+02  0.25384222611E+02  0.36820920987E+02  0.00000000000E+00 0.  1.
         11    1    4    4    0    0 -0.83769140675E+01 -0.14988794697E+02 -0.31974813353E+02  0.36293599229E+02  0.51100000000E-03 0. -1.
        -11    1    4    4    0    0 -0.61427192207E+01 -0.91375156368E+01  0.78364902705E+01  0.13514354275E+02  0.51100000000E-03 0.  1.
        -12    1    4    4    0    0  0.43531209218E+01 -0.53263309608E+00 -0.12458995286E+01  0.45591255093E+01  0.00000000000E+00 0.  1.
</event>
<event>
 8    1  0.2401680E-006  0.9118800E+02  0.7816164E-02  0.1184000E+00
        -11   -1    0    0    0    0  0.00000000000E+00  0.00000000000E+00  0.45593999997E+02  0.45594000000E+02  0.51100000000E-03 0. -1.
         11   -1    0    0    0    0 -0.00000000000E+00 -0.00000000000E+00 -0.45593999997E+02  0.45594000000E+02  0.51100000000E-03 0.  1.
         23    2    1    2    0    0  0.24424906542E-14 -0.35527136788E-14  0.35527136788E-14  0.91188000000E+02  0.91188000000E+02 0.  0.
    9900012    2    3    3    0    0  0.17650194351E+01  0.25323350199E+02 -0.26671934610E+02  0.54367089436E+02  0.40000011987E+02 0.  0.
         12    1    3    3    0    0 -0.17650194351E+01 -0.25323350199E+02  0.26671934610E+02  0.36820910564E+02  0.00000000000E+00 0. -1.
         11    1    4    4    0    0 -0.49047486843E+01  0.35751157254E-02  0.42589227534E+00  0.49232059604E+01  0.51100000000E-03 0. -1.
        -11    1    4    4    0    0  0.15275833306E+02  0.76779677451E+01 -0.14662727794E+01  0.17159610368E+02  0.51100000000E-03 0.  1.
        -12    1    4    4    0    0 -0.86060651862E+01  0.17641807338E+02 -0.25631554106E+02  0.32284273107E+02  0.00000000000E+00 0.  1.
</event>
<event>
 8    1  0.2401680E-006  0.9118800E+02  0.7816164E-02  0.1184000E+00
        -11   -1    0    0    0    0  0.00000000000E+00  0.00000000000E+00  0.45593999997E+02  0.45594000000E+02  0.51100000000E-03 0. -1.
         11   -1    0    0    0    0 -0.00000000000E+00 -0.00000000000E+00 -0.45593999997E+02  0.45594000000E+02  0.51100000000E-03 0.  1.
         23    2    1    2    0    0  0.00000000000E+00  0.17763568394E-14  0.00000000000E+00  0.91188000000E+02  0.91188000000E+02 0.  0.
    9900012    2    3    3    0    0 -0.13544405761E+02 -0.10469003755E+02  0.32599682075E+02  0.54366943003E+02  0.39999678162E+02 0.  0.
         12    1    3    3    0    0  0.13544405761E+02  0.10469003755E+02 -0.32599682075E+02  0.36821056997E+02  0.00000000000E+00 0. -1.
         11    1    4    4    0    0 -0.14733299450E+02  0.11538917701E+02  0.12950352512E+02  0.22758039565E+02  0.51100000000E-03 0. -1.
        -11    1    4    4    0    0  0.46031790610E+01 -0.13299128537E+02  0.65763475570E+01  0.15533976463E+02  0.51100000000E-03 0.  1.
         12    1    4    4    0    0 -0.34142853720E+01 -0.87087929191E+01  0.13072982006E+02  0.16074926974E+02  0.00000000000E+00 0. -1.
</event>
<event>
 8    1  0.2401680E-006  0.9118800E+02  0.7816164E-02  0.1184000E+00
        -11   -1    0    0    0    0  0.00000000000E+00  0.00000000000E+00  0.45593999997E+02  0.45594000000E+02  0.51100000000E-03 0.  1.
         11   -1    0    0    0    0 -0.00000000000E+00 -0.00000000000E+00 -0.45593999997E+02  0.45594000000E+02  0.51100000000E-03 0. -1.
         23    2    1    2    0    0  0.00000000000E+00 -0.17763568394E-14  0.00000000000E+00  0.91188000000E+02  0.91188000000E+02 0.  0.
    9900012    2    3    3    0    0  0.31872795407E+02  0.11986272585E+02 -0.14008327789E+02  0.54367094729E+02  0.40000024053E+02 0.  0.
        -12    1    3    3    0    0 -0.31872795407E+02 -0.11986272585E+02  0.14008327789E+02  0.36820905271E+02  0.00000000000E+00 0.  1.
         11    1    4    4    0    0  0.16571326014E+02  0.17054362593E+02 -0.97101996942E+01  0.25685562241E+02  0.51100000000E-03 0. -1.
        -11    1    4    4    0    0  0.16004829806E+02 -0.61602930003E+01 -0.11961468291E+02  0.20908862019E+02  0.51100000000E-03 0.  1.
        -12    1    4    4    0    0 -0.70336041250E+00  0.10922029929E+01  0.76633401965E+01  0.77726704687E+01  0.00000000000E+00 0.  1.
</event>
<event>
 8    1  0.2401680E-006  0.9118800E+02  0.7816164E-02  0.1184000E+00
        -11   -1    0    0    0    0  0.00000000000E+00  0.00000000000E+00  0.45593999997E+02  0.45594000000E+02  0.51100000000E-03 0.  1.
         11   -1    0    0    0    0 -0.00000000000E+00 -0.00000000000E+00 -0.45593999997E+02  0.45594000000E+02  0.51100000000E-03 0. -1.
         23    2    1    2    0    0  0.00000000000E+00  0.44408920985E-15 -0.71054273576E-14  0.91188000000E+02  0.91188000000E+02 0.  0.
    9900012    2    3    3    0    0  0.11192500468E+02  0.21794532046E+01  0.35010820885E+02  0.54367086621E+02  0.40000005570E+02 0.  0.
         12    1    3    3    0    0 -0.11192500468E+02 -0.21794532046E+01 -0.35010820885E+02  0.36820913379E+02  0.00000000000E+00 0. -1.
         11    1    4    4    0    0 -0.10056249731E+02  0.97832642917E+01  0.84841532086E+01  0.16395770027E+02  0.51100000000E-03 0. -1.
        -11    1    4    4    0    0  0.73175640526E+01  0.30891353740E+01  0.14974359680E+02  0.16950544212E+02  0.51100000000E-03 0.  1.
         12    1    4    4    0    0  0.13931186146E+02 -0.10692946461E+02  0.11552307997E+02  0.21020772382E+02  0.00000000000E+00 0. -1.
</event>
<event>
 8    1  0.2401680E-006  0.9118800E+02  0.7816164E-02  0.1184000E+00
        -11   -1    0    0    0    0  0.00000000000E+00  0.00000000000E+00  0.45593999997E+02  0.45594000000E+02  0.51100000000E-03 0.  1.
         11   -1    0    0    0    0 -0.00000000000E+00 -0.00000000000E+00 -0.45593999997E+02  0.45594000000E+02  0.51100000000E-03 0. -1.
         23    2    1    2    0    0  0.17763568394E-14  0.35527136788E-14  0.00000000000E+00  0.91188000000E+02  0.91188000000E+02 0.  0.
    9900012    2    3    3    0    0  0.10764298468E+02  0.16551956752E+02  0.31079627101E+02  0.54367073687E+02  0.39999976084E+02 0.  0.
         12    1    3    3    0    0 -0.10764298468E+02 -0.16551956752E+02 -0.31079627101E+02  0.36820926313E+02  0.00000000000E+00 0. -1.
         11    1    4    4    0    0  0.18859227453E+02  0.97544961165E+01  0.56540762973E+01  0.21972465352E+02  0.51100000000E-03 0. -1.
        -11    1    4    4    0    0  0.40388246199E+01  0.43892890803E+01  0.27585016560E+01  0.65717040856E+01  0.51100000000E-03 0.  1.
         12    1    4    4    0    0 -0.12133753606E+02  0.24081715547E+01  0.22667049148E+02  0.25822904249E+02  0.00000000000E+00 0. -1.
</event>
<event>
 8    1  0.2401680E-006  0.9118800E+02  0.7816164E-02  0.1184000E+00
        -11   -1    0    0    0    0  0.00000000000E+00  0.00000000000E+00  0.45593999997E+02  0.45594000000E+02  0.51100000000E-03 0.  1.
         11   -1    0    0    0    0 -0.00000000000E+00 -0.00000000000E+00 -0.45593999997E+02  0.45594000000E+02  0.51100000000E-03 0. -1.
         23    2    1    2    0    0  0.17763568394E-14  0.00000000000E+00  0.00000000000E+00  0.91188000000E+02  0.91188000000E+02 0.  0.
    9900012    2    3    3    0    0 -0.15161676536E+02 -0.58225587937E+01  0.33045448563E+02  0.54367077998E+02  0.39999985913E+02 0.  0.
         12    1    3    3    0    0  0.15161676536E+02  0.58225587937E+01 -0.33045448563E+02  0.36820922002E+02  0.00000000000E+00 0. -1.
         11    1    4    4    0    0  0.19279831839E+01  0.98177440425E+00  0.89014786932E+01  0.91606398971E+01  0.51100000000E-03 0. -1.
        -11    1    4    4    0    0 -0.15218275200E+02  0.10983050806E+02  0.18741035891E+02  0.26522626785E+02  0.51100000000E-03 0.  1.
        -12    1    4    4    0    0 -0.18713845194E+01 -0.17787384004E+02  0.54029339795E+01  0.18683811316E+02  0.00000000000E+00 0.  1.
</event>
<event>
 8    1  0.2401680E-006  0.9118800E+02  0.7816164E-02  0.1184000E+00
        -11   -1    0    0    0    0  0.00000000000E+00  0.00000000000E+00  0.45593999997E+02  0.45594000000E+02  0.51100000000E-03 0.  1.
         11   -1    0    0    0    0 -0.00000000000E+00 -0.00000000000E+00 -0.45593999997E+02  0.45594000000E+02  0.51100000000E-03 0. -1.
         23    2    1    2    0    0  0.00000000000E+00 -0.17763568394E-14 -0.44408920985E-15  0.91188000000E+02  0.91188000000E+02 0.  0.
    9900012    2    3    3    0    0  0.35525669708E+02 -0.93820487612E+01  0.23840690122E+01  0.54367084310E+02  0.40000000302E+02 0.  0.
        -12    1    3    3    0    0 -0.35525669708E+02  0.93820487612E+01 -0.23840690122E+01  0.36820915690E+02  0.00000000000E+00 0.  1.
         11    1    4    4    0    0  0.20354835222E+02  0.78829257424E+01  0.21589923634E+01  0.21934472491E+02  0.51100000000E-03 0. -1.
        -11    1    4    4    0    0  0.14260073480E+02 -0.16638333200E+02 -0.85987485741E+01  0.23539802561E+02  0.51100000000E-03 0.  1.
        -12    1    4    4    0    0  0.91076100655E+00 -0.62664130349E+00  0.88238252229E+01  0.88928092580E+01  0.00000000000E+00 0.  1.
</event>
<event>
 8    1  0.2401680E-006  0.9118800E+02  0.7816164E-02  0.1184000E+00
        -11   -1    0    0    0    0  0.00000000000E+00  0.00000000000E+00  0.45593999997E+02  0.45594000000E+02  0.51100000000E-03 0. -1.
         11   -1    0    0    0    0 -0.00000000000E+00 -0.00000000000E+00 -0.45593999997E+02  0.45594000000E+02  0.51100000000E-03 0.  1.
         23    2    1    2    0    0  0.88817841970E-15  0.00000000000E+00 -0.35527136788E-14  0.91188000000E+02  0.91188000000E+02 0.  0.
    9900012    2    3    3    0    0  0.70646809523E+01 -0.27172829409E+02 -0.23822418441E+02  0.54367082094E+02  0.39999995249E+02 0.  0.
         12    1    3    3    0    0 -0.70646809523E+01  0.27172829409E+02  0.23822418441E+02  0.36820917906E+02  0.00000000000E+00 0. -1.
         11    1    4    4    0    0  0.11572597716E+02 -0.26855349295E+02 -0.11344206946E+00  0.29242908081E+02  0.51100000000E-03 0. -1.
        -11    1    4    4    0    0  0.18429641873E+01 -0.29831749274E+00 -0.71307609511E+01  0.73711099791E+01  0.51100000000E-03 0.  1.
         12    1    4    4    0    0 -0.63508809507E+01 -0.19162621177E-01 -0.16578215421E+02  0.17753064034E+02  0.00000000000E+00 0. -1.
</event>
<event>
 8    1  0.2401680E-006  0.9118800E+02  0.7816164E-02  0.1184000E+00
        -11   -1    0    0    0    0  0.00000000000E+00  0.00000000000E+00  0.45593999997E+02  0.45594000000E+02  0.51100000000E-03 0.  1.
         11   -1    0    0    0    0 -0.00000000000E+00 -0.00000000000E+00 -0.45593999997E+02  0.45594000000E+02  0.51100000000E-03 0. -1.
         23    2    1    2    0    0 -0.35527136788E-14  0.22204460493E-15  0.00000000000E+00  0.91188000000E+02  0.91188000000E+02 0.  0.
    9900012    2    3    3    0    0 -0.26134680179E+02  0.11794478797E+01 -0.25910750123E+02  0.54367087773E+02  0.40000008195E+02 0.  0.
        -12    1    3    3    0    0  0.26134680179E+02 -0.11794478797E+01  0.25910750123E+02  0.36820912227E+02  0.00000000000E+00 0.  1.
         11    1    4    4    0    0 -0.39960031715E+01  0.26390574690E+01  0.52736688852E+01  0.71234998030E+01  0.51100000000E-03 0. -1.
        -11    1    4    4    0    0 -0.70105852346E+00  0.69428497112E+01  0.16211009838E+01  0.71639803061E+01  0.51100000000E-03 0.  1.
         12    1    4    4    0    0 -0.21437618484E+02 -0.84024593005E+01 -0.32805519992E+02  0.40079607664E+02  0.00000000000E+00 0. -1.
</event>
<event>
 8    1  0.2401680E-006  0.9118800E+02  0.7816164E-02  0.1184000E+00
        -11   -1    0    0    0    0  0.00000000000E+00  0.00000000000E+00  0.45593999997E+02  0.45594000000E+02  0.51100000000E-03 0. -1.
         11   -1    0    0    0    0 -0.00000000000E+00 -0.00000000000E+00 -0.45593999997E+02  0.45594000000E+02  0.51100000000E-03 0.  1.
         23    2    1    2    0    0 -0.44408920985E-15  0.00000000000E+00  0.35527136788E-14  0.91188000000E+02  0.91188000000E+02 0.  0.
    9900012    2    3    3    0    0  0.33612907101E+01  0.31081248483E+02  0.19453493480E+02  0.54367072648E+02  0.39999973715E+02 0.  0.
        -12    1    3    3    0    0 -0.33612907101E+01 -0.31081248483E+02 -0.19453493480E+02  0.36820927352E+02  0.00000000000E+00 0.  1.
         11    1    4    4    0    0 -0.10251906870E+01  0.28618726268E+01  0.24567387575E+01  0.39085670598E+01  0.51100000000E-03 0. -1.
        -11    1    4    4    0    0  0.14332725352E+02  0.25049375160E+02 -0.18441743084E+01  0.28918837996E+02  0.51100000000E-03 0.  1.
        -12    1    4    4    0    0 -0.99462439544E+01  0.31700006959E+01  0.18840929031E+02  0.21539667592E+02  0.00000000000E+00 0.  1.
</event>
<event>
 8    1  0.2401680E-006  0.9118800E+02  0.7816164E-02  0.1184000E+00
        -11   -1    0    0    0    0  0.00000000000E+00  0.00000000000E+00  0.45593999997E+02  0.45594000000E+02  0.51100000000E-03 0.  1.
         11   -1    0    0    0    0 -0.00000000000E+00 -0.00000000000E+00 -0.45593999997E+02  0.45594000000E+02  0.51100000000E-03 0. -1.
         23    2    1    2    0    0  0.88817841970E-15 -0.22204460493E-15  0.71054273576E-14  0.91188000000E+02  0.91188000000E+02 0.  0.
    9900012    2    3    3    0    0 -0.50566458229E+01  0.95298107530E+00 -0.36459607482E+02  0.54367070929E+02  0.39999969796E+02 0.  0.
        -12    1    3    3    0    0  0.50566458229E+01 -0.95298107530E+00  0.36459607482E+02  0.36820929071E+02  0.00000000000E+00 0.  1.
         11    1    4    4    0    0  0.75427722760E+01 -0.20477507399E+01 -0.23076867600E+02  0.24364492919E+02  0.51100000000E-03 0. -1.
        -11    1    4    4    0    0 -0.35104000708E+01  0.57887023431E+01 -0.18146955138E+02  0.19368633522E+02  0.51100000000E-03 0.  1.
        -12    1    4    4    0    0 -0.90890180280E+01 -0.27879705280E+01  0.47642152552E+01  0.10633944488E+02  0.00000000000E+00 0.  1.
</event>
<event>
 8    1  0.2401680E-006  0.9118800E+02  0.7816164E-02  0.1184000E+00
        -11   -1    0    0    0    0  0.00000000000E+00  0.00000000000E+00  0.45593999997E+02  0.45594000000E+02  0.51100000000E-03 0. -1.
         11   -1    0    0    0    0 -0.00000000000E+00 -0.00000000000E+00 -0.45593999997E+02  0.45594000000E+02  0.51100000000E-03 0.  1.
         23    2    1    2    0    0  0.17763568394E-14  0.00000000000E+00  0.00000000000E+00  0.91188000000E+02  0.91188000000E+02 0.  0.
    9900012    2    3    3    0    0 -0.14626496248E+02 -0.17502503574E+02  0.28905151907E+02  0.54367084333E+02  0.40000000353E+02 0.  0.
        -12    1    3    3    0    0  0.14626496248E+02  0.17502503574E+02 -0.28905151907E+02  0.36820915667E+02  0.00000000000E+00 0.  1.
         11    1    4    4    0    0  0.45522185962E+01 -0.53733320491E+01 -0.51694037242E+01  0.87360246441E+01  0.51100000000E-03 0.  1.
        -11    1    4    4    0    0 -0.12443481527E+02  0.16928498939E+00  0.51138255294E+01  0.13454371101E+02  0.51100000000E-03 0. -1.
         12    1    4    4    0    0 -0.67352333171E+01 -0.12298456514E+02  0.28960730101E+02  0.32176688588E+02  0.00000000000E+00 0. -1.
</event>
<event>
 8    1  0.2401680E-006  0.9118800E+02  0.7816164E-02  0.1184000E+00
        -11   -1    0    0    0    0  0.00000000000E+00  0.00000000000E+00  0.45593999997E+02  0.45594000000E+02  0.51100000000E-03 0.  1.
         11   -1    0    0    0    0 -0.00000000000E+00 -0.00000000000E+00 -0.45593999997E+02  0.45594000000E+02  0.51100000000E-03 0. -1.
         23    2    1    2    0    0  0.00000000000E+00  0.00000000000E+00  0.00000000000E+00  0.91188000000E+02  0.91188000000E+02 0.  0.
    9900012    2    3    3    0    0  0.30493294005E+02 -0.15577198141E+01 -0.20579394354E+02  0.54367096395E+02  0.40000027852E+02 0.  0.
        -12    1    3    3    0    0 -0.30493294005E+02  0.15577198141E+01  0.20579394354E+02  0.36820903605E+02  0.00000000000E+00 0.  1.
         11    1    4    4    0    0  0.76809951675E+01  0.10615609692E+02 -0.11961185014E+02  0.17741443095E+02  0.51100000000E-03 0. -1.
        -11    1    4    4    0    0  0.15396186623E+02 -0.19596616364E+02 -0.77417794675E+01  0.26096074131E+02  0.51100000000E-03 0.  1.
         12    1    4    4    0    0  0.74161122142E+01  0.74232868581E+01 -0.87642987184E+00  0.10529579169E+02  0.00000000000E+00 0. -1.
</event>
<event>
 8    1  0.2401680E-006  0.9118800E+02  0.7816164E-02  0.1184000E+00
        -11   -1    0    0    0    0  0.00000000000E+00  0.00000000000E+00  0.45593999997E+02  0.45594000000E+02  0.51100000000E-03 0.  1.
         11   -1    0    0    0    0 -0.00000000000E+00 -0.00000000000E+00 -0.45593999997E+02  0.45594000000E+02  0.51100000000E-03 0. -1.
         23    2    1    2    0    0  0.00000000000E+00 -0.17763568394E-14  0.00000000000E+00  0.91188000000E+02  0.91188000000E+02 0.  0.
    9900012    2    3    3    0    0  0.16150909560E+02  0.12578645676E+02  0.30605655604E+02  0.54367077122E+02  0.39999983915E+02 0.  0.
         12    1    3    3    0    0 -0.16150909560E+02 -0.12578645676E+02 -0.30605655604E+02  0.36820922878E+02  0.00000000000E+00 0. -1.
         11    1    4    4    0    0  0.16532752484E+02 -0.38268105675E+01  0.91263791855E+01  0.19268294712E+02  0.51100000000E-03 0. -1.
        -11    1    4    4    0    0 -0.67439213382E+01  0.24787630789E+01 -0.16394064736E+01  0.73696943806E+01  0.51100000000E-03 0.  1.
        -12    1    4    4    0    0  0.63620784138E+01  0.13926693164E+02  0.23118682892E+02  0.27729088029E+02  0.00000000000E+00 0.  1.
</event>
<event>
 8    1  0.2401680E-006  0.9118800E+02  0.7816164E-02  0.1184000E+00
        -11   -1    0    0    0    0  0.00000000000E+00  0.00000000000E+00  0.45593999997E+02  0.45594000000E+02  0.51100000000E-03 0.  1.
         11   -1    0    0    0    0 -0.00000000000E+00 -0.00000000000E+00 -0.45593999997E+02  0.45594000000E+02  0.51100000000E-03 0. -1.
         23    2    1    2    0    0  0.00000000000E+00  0.00000000000E+00  0.17763568394E-14  0.91188000000E+02  0.91188000000E+02 0.  0.
    9900012    2    3    3    0    0 -0.19877285230E+02  0.30727052909E+02 -0.40646360641E+01  0.54367088619E+02  0.40000010125E+02 0.  0.
        -12    1    3    3    0    0  0.19877285230E+02 -0.30727052909E+02  0.40646360641E+01  0.36820911381E+02  0.00000000000E+00 0.  1.
         11    1    4    4    0    0 -0.23567901955E+02  0.33368252726E+02 -0.11294188719E+02  0.42384489989E+02  0.51100000000E-03 0. -1.
        -11    1    4    4    0    0  0.24725020311E+01  0.18868325547E+01  0.65416611349E+01  0.72433924406E+01  0.51100000000E-03 0.  1.
        -12    1    4    4    0    0  0.12181146941E+01 -0.45280323715E+01  0.68789152000E+00  0.47392061897E+01  0.00000000000E+00 0.  1.
</event>
<event>
 8    1  0.2401680E-006  0.9118800E+02  0.7816164E-02  0.1184000E+00
        -11   -1    0    0    0    0  0.00000000000E+00  0.00000000000E+00  0.45593999997E+02  0.45594000000E+02  0.51100000000E-03 0.  1.
         11   -1    0    0    0    0 -0.00000000000E+00 -0.00000000000E+00 -0.45593999997E+02  0.45594000000E+02  0.51100000000E-03 0. -1.
         23    2    1    2    0    0 -0.17763568394E-14  0.00000000000E+00  0.00000000000E+00  0.91188000000E+02  0.91188000000E+02 0.  0.
    9900012    2    3    3    0    0 -0.12348802748E+02  0.11110705002E+02  0.32860859308E+02  0.54367125901E+02  0.40000095117E+02 0.  0.
         12    1    3    3    0    0  0.12348802748E+02 -0.11110705002E+02 -0.32860859308E+02  0.36820874099E+02  0.00000000000E+00 0. -1.
         11    1    4    4    0    0 -0.10018094453E+02 -0.42011820561E+01 -0.28462485534E+00  0.10867067623E+02  0.51100000000E-03 0. -1.
        -11    1    4    4    0    0  0.97119727008E+01  0.11856300521E+02  0.14964686361E+02  0.21420460171E+02  0.51100000000E-03 0.  1.
        -12    1    4    4    0    0 -0.12042680995E+02  0.34555865369E+01  0.18180797802E+02  0.22079598107E+02  0.00000000000E+00 0.  1.
</event>
<event>
 8    1  0.2401680E-006  0.9118800E+02  0.7816164E-02  0.1184000E+00
        -11   -1    0    0    0    0  0.00000000000E+00  0.00000000000E+00  0.45593999997E+02  0.45594000000E+02  0.51100000000E-03 0.  1.
         11   -1    0    0    0    0 -0.00000000000E+00 -0.00000000000E+00 -0.45593999997E+02  0.45594000000E+02  0.51100000000E-03 0. -1.
         23    2    1    2    0    0 -0.17763568394E-14  0.00000000000E+00  0.00000000000E+00  0.91188000000E+02  0.91188000000E+02 0.  0.
    9900012    2    3    3    0    0  0.10531556431E+02  0.29348205390E+02 -0.19584430680E+02  0.54367071637E+02  0.39999971411E+02 0.  0.
        -12    1    3    3    0    0 -0.10531556431E+02 -0.29348205390E+02  0.19584430680E+02  0.36820928363E+02  0.00000000000E+00 0.  1.
         11    1    4    4    0    0  0.16859615237E+02  0.21087693468E+02 -0.18415296648E+02  0.32681196316E+02  0.51100000000E-03 0. -1.
        -11    1    4    4    0    0  0.14909150254E+01  0.90676606771E+01  0.60590750411E+01  0.11007165320E+02  0.51100000000E-03 0.  1.
         12    1    4    4    0    0 -0.78189738312E+01 -0.80714875534E+00 -0.72282090731E+01  0.10678710001E+02  0.00000000000E+00 0. -1.
</event>
<event>
 8    1  0.2401680E-006  0.9118800E+02  0.7816164E-02  0.1184000E+00
        -11   -1    0    0    0    0  0.00000000000E+00  0.00000000000E+00  0.45593999997E+02  0.45594000000E+02  0.51100000000E-03 0.  1.
         11   -1    0    0    0    0 -0.00000000000E+00 -0.00000000000E+00 -0.45593999997E+02  0.45594000000E+02  0.51100000000E-03 0. -1.
         23    2    1    2    0    0 -0.16653345369E-15  0.00000000000E+00  0.26645352591E-14  0.91188000000E+02  0.91188000000E+02 0.  0.
    9900012    2    3    3    0    0  0.38242709263E+00  0.36664378236E+02  0.33695090696E+01  0.54367129922E+02  0.40000104284E+02 0.  0.
         12    1    3    3    0    0 -0.38242709263E+00 -0.36664378236E+02 -0.33695090696E+01  0.36820870078E+02  0.00000000000E+00 0. -1.
         11    1    4    4    0    0 -0.12040910925E+02  0.15959144172E+02  0.12298972585E+02  0.23472165335E+02  0.51100000000E-03 0.  1.
        -11    1    4    4    0    0  0.62689885500E+01  0.21168017125E+02 -0.10616466656E+02  0.24496826957E+02  0.51100000000E-03 0. -1.
        -12    1    4    4    0    0  0.61543494676E+01 -0.46278306179E+00  0.16870031411E+01  0.63981376298E+01  0.00000000000E+00 0.  1.
</event>
<event>
 8    1  0.2401680E-006  0.9118800E+02  0.7816164E-02  0.1184000E+00
        -11   -1    0    0    0    0  0.00000000000E+00  0.00000000000E+00  0.45593999997E+02  0.45594000000E+02  0.51100000000E-03 0. -1.
         11   -1    0    0    0    0 -0.00000000000E+00 -0.00000000000E+00 -0.45593999997E+02  0.45594000000E+02  0.51100000000E-03 0.  1.
         23    2    1    2    0    0  0.00000000000E+00 -0.11102230246E-14  0.00000000000E+00  0.91188000000E+02  0.91188000000E+02 0.  0.
    9900012    2    3    3    0    0  0.32671449070E+02 -0.17681122502E+01  0.16888769523E+02  0.54367077398E+02  0.39999984544E+02 0.  0.
        -12    1    3    3    0    0 -0.32671449070E+02  0.17681122502E+01 -0.16888769523E+02  0.36820922602E+02  0.00000000000E+00 0.  1.
         11    1    4    4    0    0  0.74376850639E+01 -0.17545939624E+02  0.10281763681E+02  0.21653956245E+02  0.51100000000E-03 0. -1.
        -11    1    4    4    0    0  0.43634111763E+01 -0.15352507734E+01  0.25875362830E+01  0.53001600266E+01  0.51100000000E-03 0.  1.
        -12    1    4    4    0    0  0.20870352830E+02  0.17313078147E+02  0.40194695589E+01  0.27412961126E+02  0.00000000000E+00 0.  1.
</event>
<event>
 8    1  0.2401680E-006  0.9118800E+02  0.7816164E-02  0.1184000E+00
        -11   -1    0    0    0    0  0.00000000000E+00  0.00000000000E+00  0.45593999997E+02  0.45594000000E+02  0.51100000000E-03 0.  1.
         11   -1    0    0    0    0 -0.00000000000E+00 -0.00000000000E+00 -0.45593999997E+02  0.45594000000E+02  0.51100000000E-03 0. -1.
         23    2    1    2    0    0  0.00000000000E+00 -0.17763568394E-14 -0.35527136788E-14  0.91188000000E+02  0.91188000000E+02 0.  0.
    9900012    2    3    3    0    0 -0.16787588818E+02  0.10499548398E+02 -0.31043770257E+02  0.54367091176E+02  0.40000015953E+02 0.  0.
        -12    1    3    3    0    0  0.16787588818E+02 -0.10499548398E+02  0.31043770257E+02  0.36820908824E+02  0.00000000000E+00 0.  1.
         11    1    4    4    0    0  0.32689593801E+00  0.20585529238E+02 -0.10477024246E+02  0.23100625798E+02  0.51100000000E-03 0.  1.
        -11    1    4    4    0    0 -0.14348662101E+02 -0.79949287181E+01 -0.80765354110E+01  0.18303917990E+02  0.51100000000E-03 0. -1.
         12    1    4    4    0    0 -0.27658226557E+01 -0.20910521216E+01 -0.12490210600E+02  0.12962547387E+02  0.00000000000E+00 0. -1.
</event>
<event>
 8    1  0.2401680E-006  0.9118800E+02  0.7816164E-02  0.1184000E+00
        -11   -1    0    0    0    0  0.00000000000E+00  0.00000000000E+00  0.45593999997E+02  0.45594000000E+02  0.51100000000E-03 0. -1.
         11   -1    0    0    0    0 -0.00000000000E+00 -0.00000000000E+00 -0.45593999997E+02  0.45594000000E+02  0.51100000000E-03 0.  1.
         23    2    1    2    0    0  0.00000000000E+00  0.35527136788E-14 -0.71054273576E-14  0.91188000000E+02  0.91188000000E+02 0.  0.
    9900012    2    3    3    0    0 -0.14661900021E+02 -0.24442419386E+02  0.23310437973E+02  0.54367086158E+02  0.40000004515E+02 0.  0.
        -12    1    3    3    0    0  0.14661900021E+02  0.24442419386E+02 -0.23310437973E+02  0.36820913842E+02  0.00000000000E+00 0.  1.
         11    1    4    4    0    0 -0.56725796306E+01 -0.99006509824E+01  0.11416918706E+02  0.16141470891E+02  0.51100000000E-03 0. -1.
        -11    1    4    4    0    0  0.24574204831E+01 -0.21697350703E+02  0.29546175751E+01  0.22035056348E+02  0.51100000000E-03 0.  1.
         12    1    4    4    0    0 -0.11446740873E+02  0.71555822998E+01  0.89389016921E+01  0.16190558920E+02  0.00000000000E+00 0. -1.
</event>
<event>
 8    1  0.2401680E-006  0.9118800E+02  0.7816164E-02  0.1184000E+00
        -11   -1    0    0    0    0  0.00000000000E+00  0.00000000000E+00  0.45593999997E+02  0.45594000000E+02  0.51100000000E-03 0.  1.
         11   -1    0    0    0    0 -0.00000000000E+00 -0.00000000000E+00 -0.45593999997E+02  0.45594000000E+02  0.51100000000E-03 0. -1.
         23    2    1    2    0    0  0.00000000000E+00 -0.35527136788E-14  0.00000000000E+00  0.91188000000E+02  0.91188000000E+02 0.  0.
    9900012    2    3    3    0    0 -0.21853175758E+02 -0.24623819793E+02  0.16488969447E+02  0.54367083318E+02  0.39999998040E+02 0.  0.
         12    1    3    3    0    0  0.21853175758E+02  0.24623819793E+02 -0.16488969447E+02  0.36820916682E+02  0.00000000000E+00 0. -1.
         11    1    4    4    0    0 -0.29614669162E+01 -0.44112987691E+01  0.16859895559E+02  0.17677271329E+02  0.51100000000E-03 0. -1.
        -11    1    4    4    0    0 -0.13952621037E+02 -0.17684521593E+02  0.10218137592E+02  0.24735162702E+02  0.51100000000E-03 0.  1.
         12    1    4    4    0    0 -0.49390878044E+01 -0.25279994311E+01 -0.10589063704E+02  0.11954649287E+02  0.00000000000E+00 0. -1.
</event>
<event>
 8    1  0.2401680E-006  0.9118800E+02  0.7816164E-02  0.1184000E+00
        -11   -1    0    0    0    0  0.00000000000E+00  0.00000000000E+00  0.45593999997E+02  0.45594000000E+02  0.51100000000E-03 0. -1.
         11   -1    0    0    0    0 -0.00000000000E+00 -0.00000000000E+00 -0.45593999997E+02  0.45594000000E+02  0.51100000000E-03 0.  1.
         23    2    1    2    0    0 -0.88817841970E-15  0.00000000000E+00 -0.17763568394E-14  0.91188000000E+02  0.91188000000E+02 0.  0.
    9900012    2    3    3    0    0 -0.27824100878E+01 -0.35359910340E+02 -0.98851119492E+01  0.54367075196E+02  0.39999979525E+02 0.  0.
         12    1    3    3    0    0  0.27824100878E+01  0.35359910340E+02  0.98851119492E+01  0.36820924804E+02  0.00000000000E+00 0. -1.
         11    1    4    4    0    0  0.51500917056E+01 -0.25384608651E+02 -0.22339242694E+01  0.25997927203E+02  0.51100000000E-03 0. -1.
        -11    1    4    4    0    0 -0.65175883856E+01 -0.10756419698E+02 -0.15724569893E+02  0.20135580987E+02  0.51100000000E-03 0.  1.
         12    1    4    4    0    0 -0.14149134078E+01  0.78111800931E+00  0.80733822131E+01  0.82335670067E+01  0.00000000000E+00 0. -1.
</event>
<event>
 8    1  0.2401680E-006  0.9118800E+02  0.7816164E-02  0.1184000E+00
        -11   -1    0    0    0    0  0.00000000000E+00  0.00000000000E+00  0.45593999997E+02  0.45594000000E+02  0.51100000000E-03 0.  1.
         11   -1    0    0    0    0 -0.00000000000E+00 -0.00000000000E+00 -0.45593999997E+02  0.45594000000E+02  0.51100000000E-03 0. -1.
         23    2    1    2    0    0  0.00000000000E+00  0.00000000000E+00  0.00000000000E+00  0.91188000000E+02  0.91188000000E+02 0.  0.
    9900012    2    3    3    0    0 -0.20188912665E+02 -0.10293194486E+02  0.29021335954E+02  0.54367082197E+02  0.39999995485E+02 0.  0.
         12    1    3    3    0    0  0.20188912665E+02  0.10293194486E+02 -0.29021335954E+02  0.36820917803E+02  0.00000000000E+00 0. -1.
         11    1    4    4    0    0 -0.21867707060E+01 -0.41497808844E+01  0.91904183336E+01  0.10318257455E+02  0.51100000000E-03 0. -1.
        -11    1    4    4    0    0 -0.87698040090E+01 -0.19699284884E+02  0.16879810794E+02  0.27384289291E+02  0.51100000000E-03 0.  1.
         12    1    4    4    0    0 -0.92323379500E+01  0.13555871283E+02  0.29511068266E+01  0.16664535450E+02  0.00000000000E+00 0. -1.
</event>
<event>
 8    1  0.2401680E-006  0.9118800E+02  0.7816164E-02  0.1184000E+00
        -11   -1    0    0    0    0  0.00000000000E+00  0.00000000000E+00  0.45593999997E+02  0.45594000000E+02  0.51100000000E-03 0. -1.
         11   -1    0    0    0    0 -0.00000000000E+00 -0.00000000000E+00 -0.45593999997E+02  0.45594000000E+02  0.51100000000E-03 0.  1.
         23    2    1    2    0    0  0.88817841970E-15  0.35527136788E-14  0.00000000000E+00  0.91188000000E+02  0.91188000000E+02 0.  0.
    9900012    2    3    3    0    0  0.34954191336E+01 -0.26752352522E+02  0.25057410483E+02  0.54367080125E+02  0.39999990761E+02 0.  0.
        -12    1    3    3    0    0 -0.34954191336E+01  0.26752352522E+02 -0.25057410483E+02  0.36820919875E+02  0.00000000000E+00 0.  1.
         11    1    4    4    0    0  0.16350307522E+02 -0.10409183789E+00  0.13351196047E+02  0.21109188221E+02  0.51100000000E-03 0. -1.
        -11    1    4    4    0    0 -0.30435828027E+01 -0.14775266104E+02  0.24355663428E+01  0.15280833367E+02  0.51100000000E-03 0.  1.
         12    1    4    4    0    0 -0.98113055859E+01 -0.11872994580E+02  0.92706480924E+01  0.17977058537E+02  0.00000000000E+00 0. -1.
</event>
<event>
 8    1  0.2401680E-006  0.9118800E+02  0.7816164E-02  0.1184000E+00
        -11   -1    0    0    0    0  0.00000000000E+00  0.00000000000E+00  0.45593999997E+02  0.45594000000E+02  0.51100000000E-03 0. -1.
         11   -1    0    0    0    0 -0.00000000000E+00 -0.00000000000E+00 -0.45593999997E+02  0.45594000000E+02  0.51100000000E-03 0.  1.
         23    2    1    2    0    0  0.00000000000E+00  0.44408920985E-15 -0.35527136788E-14  0.91188000000E+02  0.91188000000E+02 0.  0.
    9900012    2    3    3    0    0 -0.28368356705E+02 -0.36054424310E+01  0.23195144092E+02  0.54367114803E+02  0.40000069816E+02 0.  0.
        -12    1    3    3    0    0  0.28368356705E+02  0.36054424310E+01 -0.23195144092E+02  0.36820885197E+02  0.00000000000E+00 0.  1.
         11    1    4    4    0    0 -0.65413946231E+01 -0.14891699261E+01 -0.42121317657E+01  0.79214597744E+01  0.51100000000E-03 0. -1.
        -11    1    4    4    0    0 -0.62574434220E+01 -0.13530559993E+01 -0.65021093625E+01  0.91248991852E+01  0.51100000000E-03 0.  1.
         12    1    4    4    0    0 -0.15569518660E+02 -0.76321650565E+00  0.33909385220E+02  0.37320755843E+02  0.00000000000E+00 0. -1.
</event>
<event>
 8    1  0.2401680E-006  0.9118800E+02  0.7816164E-02  0.1184000E+00
        -11   -1    0    0    0    0  0.00000000000E+00  0.00000000000E+00  0.45593999997E+02  0.45594000000E+02  0.51100000000E-03 0. -1.
         11   -1    0    0    0    0 -0.00000000000E+00 -0.00000000000E+00 -0.45593999997E+02  0.45594000000E+02  0.51100000000E-03 0.  1.
         23    2    1    2    0    0  0.00000000000E+00  0.00000000000E+00  0.35527136788E-14  0.91188000000E+02  0.91188000000E+02 0.  0.
    9900012    2    3    3    0    0 -0.94264775388E+01  0.18700194640E+02  0.30285706324E+02  0.54367085211E+02  0.40000002355E+02 0.  0.
        -12    1    3    3    0    0  0.94264775388E+01 -0.18700194640E+02 -0.30285706324E+02  0.36820914789E+02  0.00000000000E+00 0.  1.
         11    1    4    4    0    0  0.32494465052E+01  0.22716493027E+01  0.97436934581E+01  0.10519451298E+02  0.51100000000E-03 0. -1.
        -11    1    4    4    0    0 -0.12767810427E+02 -0.58437510732E+01  0.76595993067E+00  0.14062471496E+02  0.51100000000E-03 0.  1.
        -12    1    4    4    0    0  0.91886382704E-01  0.22272296411E+02  0.19776052935E+02  0.29785162417E+02  0.00000000000E+00 0.  1.
</event>
<event>
 8    1  0.2401680E-006  0.9118800E+02  0.7816164E-02  0.1184000E+00
        -11   -1    0    0    0    0  0.00000000000E+00  0.00000000000E+00  0.45593999997E+02  0.45594000000E+02  0.51100000000E-03 0.  1.
         11   -1    0    0    0    0 -0.00000000000E+00 -0.00000000000E+00 -0.45593999997E+02  0.45594000000E+02  0.51100000000E-03 0. -1.
         23    2    1    2    0    0  0.13322676296E-14 -0.35527136788E-14  0.00000000000E+00  0.91188000000E+02  0.91188000000E+02 0.  0.
    9900012    2    3    3    0    0 -0.12840481096E+01 -0.21458935926E+02 -0.29893903331E+02  0.54367079765E+02  0.39999989939E+02 0.  0.
        -12    1    3    3    0    0  0.12840481096E+01  0.21458935926E+02  0.29893903331E+02  0.36820920235E+02  0.00000000000E+00 0.  1.
         11    1    4    4    0    0 -0.28825800124E+01  0.89129403852E+00 -0.20874842515E+02  0.21091769079E+02  0.51100000000E-03 0. -1.
        -11    1    4    4    0    0 -0.99044285843E+01 -0.15945756831E+02 -0.40514806475E+01  0.19203628881E+02  0.51100000000E-03 0.  1.
         12    1    4    4    0    0  0.11502960487E+02 -0.64044731341E+01 -0.49675801680E+01  0.14071681805E+02  0.00000000000E+00 0. -1.
</event>
<event>
 8    1  0.2401680E-006  0.9118800E+02  0.7816164E-02  0.1184000E+00
        -11   -1    0    0    0    0  0.00000000000E+00  0.00000000000E+00  0.45593999997E+02  0.45594000000E+02  0.51100000000E-03 0.  1.
         11   -1    0    0    0    0 -0.00000000000E+00 -0.00000000000E+00 -0.45593999997E+02  0.45594000000E+02  0.51100000000E-03 0. -1.
         23    2    1    2    0    0  0.00000000000E+00  0.00000000000E+00  0.35527136788E-14  0.91188000000E+02  0.91188000000E+02 0.  0.
    9900012    2    3    3    0    0 -0.27277741302E+02 -0.15780817779E+02 -0.19043960544E+02  0.54367057406E+02  0.39999938968E+02 0.  0.
         12    1    3    3    0    0  0.27277741302E+02  0.15780817779E+02  0.19043960544E+02  0.36820942594E+02  0.00000000000E+00 0. -1.
         11    1    4    4    0    0  0.49446683774E+01  0.65904040078E+01  0.68059281810E+00  0.82671867763E+01  0.51100000000E-03 0. -1.
        -11    1    4    4    0    0 -0.95431042288E+01 -0.11258907130E+02 -0.12567868432E+01  0.14812607519E+02  0.51100000000E-03 0.  1.
        -12    1    4    4    0    0 -0.22679305450E+02 -0.11112314657E+02 -0.18467766519E+02  0.31287263110E+02  0.00000000000E+00 0.  1.
</event>
<event>
 8    1  0.2401680E-006  0.9118800E+02  0.7816164E-02  0.1184000E+00
        -11   -1    0    0    0    0  0.00000000000E+00  0.00000000000E+00  0.45593999997E+02  0.45594000000E+02  0.51100000000E-03 0.  1.
         11   -1    0    0    0    0 -0.00000000000E+00 -0.00000000000E+00 -0.45593999997E+02  0.45594000000E+02  0.51100000000E-03 0. -1.
         23    2    1    2    0    0  0.00000000000E+00  0.00000000000E+00  0.00000000000E+00  0.91188000000E+02  0.91188000000E+02 0.  0.
    9900012    2    3    3    0    0 -0.17906046005E+02 -0.16463263483E+02  0.27642611289E+02  0.54367088999E+02  0.40000010992E+02 0.  0.
         12    1    3    3    0    0  0.17906046005E+02  0.16463263483E+02 -0.27642611289E+02  0.36820911001E+02  0.00000000000E+00 0. -1.
         11    1    4    4    0    0  0.59688954626E+01  0.34141346938E+01  0.55789718869E+01  0.88548831910E+01  0.51100000000E-03 0. -1.
        -11    1    4    4    0    0 -0.59004619436E+00 -0.90069684658E+01  0.17105491213E+02  0.19340927211E+02  0.51100000000E-03 0.  1.
        -12    1    4    4    0    0 -0.23284895273E+02 -0.10870429711E+02  0.49581481890E+01  0.26171278598E+02  0.00000000000E+00 0.  1.
</event>
<event>
 8    1  0.2401680E-006  0.9118800E+02  0.7816164E-02  0.1184000E+00
        -11   -1    0    0    0    0  0.00000000000E+00  0.00000000000E+00  0.45593999997E+02  0.45594000000E+02  0.51100000000E-03 0. -1.
         11   -1    0    0    0    0 -0.00000000000E+00 -0.00000000000E+00 -0.45593999997E+02  0.45594000000E+02  0.51100000000E-03 0.  1.
         23    2    1    2    0    0  0.00000000000E+00  0.00000000000E+00  0.17763568394E-14  0.91188000000E+02  0.91188000000E+02 0.  0.
    9900012    2    3    3    0    0 -0.30790734157E+02  0.12478970592E+02 -0.15874021138E+02  0.54367101532E+02  0.40000039561E+02 0.  0.
         12    1    3    3    0    0  0.30790734157E+02 -0.12478970592E+02  0.15874021138E+02  0.36820898468E+02  0.00000000000E+00 0. -1.
         11    1    4    4    0    0 -0.23286733605E+01 -0.53360459090E+01 -0.46298636043E+01  0.74385309584E+01  0.51100000000E-03 0. -1.
        -11    1    4    4    0    0 -0.21547390713E+01  0.95145470477E+01 -0.16190938250E+02  0.18902803698E+02  0.51100000000E-03 0.  1.
        -12    1    4    4    0    0 -0.26307321725E+02  0.83004694529E+01  0.49467807160E+01  0.28025766875E+02  0.00000000000E+00 0.  1.
</event>
<event>
 8    1  0.2401680E-006  0.9118800E+02  0.7816164E-02  0.1184000E+00
        -11   -1    0    0    0    0  0.00000000000E+00  0.00000000000E+00  0.45593999997E+02  0.45594000000E+02  0.51100000000E-03 0. -1.
         11   -1    0    0    0    0 -0.00000000000E+00 -0.00000000000E+00 -0.45593999997E+02  0.45594000000E+02  0.51100000000E-03 0.  1.
         23    2    1    2    0    0  0.00000000000E+00  0.00000000000E+00  0.00000000000E+00  0.91188000000E+02  0.91188000000E+02 0.  0.
    9900012    2    3    3    0    0  0.34308264584E+02 -0.12115857328E+02  0.56508591746E+01  0.54367038213E+02  0.39999895213E+02 0.  0.
         12    1    3    3    0    0 -0.34308264584E+02  0.12115857328E+02 -0.56508591746E+01  0.36820961787E+02  0.00000000000E+00 0. -1.
         11    1    4    4    0    0  0.37438521831E+02 -0.11583287200E+02  0.22492508346E+01  0.39253975453E+02  0.51100000000E-03 0. -1.
        -11    1    4    4    0    0  0.74262332386E+00  0.55683889244E+01 -0.21347725341E+01  0.60096338198E+01  0.51100000000E-03 0.  1.
         12    1    4    4    0    0 -0.38728805715E+01 -0.61009590527E+01  0.55363808740E+01  0.91034289400E+01  0.00000000000E+00 0. -1.
</event>
<event>
 8    1  0.2401680E-006  0.9118800E+02  0.7816164E-02  0.1184000E+00
        -11   -1    0    0    0    0  0.00000000000E+00  0.00000000000E+00  0.45593999997E+02  0.45594000000E+02  0.51100000000E-03 0. -1.
         11   -1    0    0    0    0 -0.00000000000E+00 -0.00000000000E+00 -0.45593999997E+02  0.45594000000E+02  0.51100000000E-03 0.  1.
         23    2    1    2    0    0 -0.35527136788E-14 -0.35527136788E-14  0.00000000000E+00  0.91188000000E+02  0.91188000000E+02 0.  0.
    9900012    2    3    3    0    0 -0.24250439058E+02 -0.20954540405E+02  0.18127400705E+02  0.54367092700E+02  0.40000019428E+02 0.  0.
        -12    1    3    3    0    0  0.24250439058E+02  0.20954540405E+02 -0.18127400705E+02  0.36820907300E+02  0.00000000000E+00 0.  1.
         11    1    4    4    0    0 -0.21162169524E+02 -0.23182572875E+02  0.15246632955E+02  0.34895972845E+02  0.51100000000E-03 0. -1.
        -11    1    4    4    0    0 -0.20200668738E+01  0.22051980368E+00  0.10924623177E+02  0.11112006614E+02  0.51100000000E-03 0.  1.
         12    1    4    4    0    0 -0.10682026604E+01  0.20075126662E+01 -0.80438554282E+01  0.83591132411E+01  0.00000000000E+00 0. -1.
</event>
<event>
 8    1  0.2401680E-006  0.9118800E+02  0.7816164E-02  0.1184000E+00
        -11   -1    0    0    0    0  0.00000000000E+00  0.00000000000E+00  0.45593999997E+02  0.45594000000E+02  0.51100000000E-03 0.  1.
         11   -1    0    0    0    0 -0.00000000000E+00 -0.00000000000E+00 -0.45593999997E+02  0.45594000000E+02  0.51100000000E-03 0. -1.
         23    2    1    2    0    0  0.35527136788E-14  0.35527136788E-14  0.88817841970E-15  0.91188000000E+02  0.91188000000E+02 0.  0.
    9900012    2    3    3    0    0  0.31285201761E+02  0.18742149402E+02  0.50740066495E+01  0.54367115207E+02  0.40000070738E+02 0.  0.
        -12    1    3    3    0    0 -0.31285201761E+02 -0.18742149402E+02 -0.50740066495E+01  0.36820884793E+02  0.00000000000E+00 0.  1.
         11    1    4    4    0    0  0.13142756193E+00  0.26806901172E+01  0.10441038680E+01  0.28798482350E+01  0.51100000000E-03 0.  1.
        -11    1    4    4    0    0  0.14227722623E+02  0.13138579673E+02 -0.15985923648E+02  0.25111752667E+02  0.51100000000E-03 0. -1.
         12    1    4    4    0    0  0.16926051577E+02  0.29228796120E+01  0.20015826430E+02  0.26375514305E+02  0.00000000000E+00 0. -1.
</event>
<event>
 8    1  0.2401680E-006  0.9118800E+02  0.7816164E-02  0.1184000E+00
        -11   -1    0    0    0    0  0.00000000000E+00  0.00000000000E+00  0.45593999997E+02  0.45594000000E+02  0.51100000000E-03 0.  1.
         11   -1    0    0    0    0 -0.00000000000E+00 -0.00000000000E+00 -0.45593999997E+02  0.45594000000E+02  0.51100000000E-03 0. -1.
         23    2    1    2    0    0 -0.11102230246E-14  0.00000000000E+00 -0.19984014443E-14  0.91188000000E+02  0.91188000000E+02 0.  0.
    9900012    2    3    3    0    0  0.19792840107E+01 -0.36723144862E+02 -0.18091637942E+01  0.54367081932E+02  0.39999994880E+02 0.  0.
         12    1    3    3    0    0 -0.19792840107E+01  0.36723144862E+02  0.18091637942E+01  0.36820918068E+02  0.00000000000E+00 0. -1.
         11    1    4    4    0    0 -0.55738424605E+01 -0.73521249621E+01 -0.10625016326E+02  0.14071689075E+02  0.51100000000E-03 0. -1.
        -11    1    4    4    0    0  0.78764846446E+01 -0.96620511640E+01 -0.76374650123E+01  0.14619340448E+02  0.51100000000E-03 0.  1.
        -12    1    4    4    0    0 -0.32335817340E+00 -0.19708968736E+02  0.16453317544E+02  0.25676052409E+02  0.00000000000E+00 0.  1.
</event>
<event>
 8    1  0.2401680E-006  0.9118800E+02  0.7816164E-02  0.1184000E+00
        -11   -1    0    0    0    0  0.00000000000E+00  0.00000000000E+00  0.45593999997E+02  0.45594000000E+02  0.51100000000E-03 0.  1.
         11   -1    0    0    0    0 -0.00000000000E+00 -0.00000000000E+00 -0.45593999997E+02  0.45594000000E+02  0.51100000000E-03 0. -1.
         23    2    1    2    0    0  0.00000000000E+00 -0.44408920985E-15  0.88817841970E-15  0.91188000000E+02  0.91188000000E+02 0.  0.
    9900012    2    3    3    0    0 -0.35802497584E+02  0.31757711188E+01 -0.79922949064E+01  0.54367066643E+02  0.39999960026E+02 0.  0.
        -12    1    3    3    0    0  0.35802497584E+02 -0.31757711188E+01  0.79922949064E+01  0.36820933357E+02  0.00000000000E+00 0.  1.
         11    1    4    4    0    0  0.16761958156E+01  0.64083966435E+01  0.19292110754E+01  0.68992054316E+01  0.51100000000E-03 0. -1.
        -11    1    4    4    0    0 -0.26444816906E+02 -0.14834351002E+02 -0.51039453975E+01  0.30747952285E+02  0.51100000000E-03 0.  1.
         12    1    4    4    0    0 -0.11033876493E+02  0.11601725477E+02 -0.48175605844E+01  0.16719908926E+02  0.00000000000E+00 0. -1.
</event>
<event>
 8    1  0.2401680E-006  0.9118800E+02  0.7816164E-02  0.1184000E+00
        -11   -1    0    0    0    0  0.00000000000E+00  0.00000000000E+00  0.45593999997E+02  0.45594000000E+02  0.51100000000E-03 0.  1.
         11   -1    0    0    0    0 -0.00000000000E+00 -0.00000000000E+00 -0.45593999997E+02  0.45594000000E+02  0.51100000000E-03 0. -1.
         23    2    1    2    0    0  0.00000000000E+00 -0.17763568394E-14  0.00000000000E+00  0.91188000000E+02  0.91188000000E+02 0.  0.
    9900012    2    3    3    0    0  0.21701004254E+02 -0.15249530262E+02  0.25540121401E+02  0.54367088006E+02  0.40000008728E+02 0.  0.
         12    1    3    3    0    0 -0.21701004254E+02  0.15249530262E+02 -0.25540121401E+02  0.36820911994E+02  0.00000000000E+00 0. -1.
         11    1    4    4    0    0  0.34503130029E+01 -0.15891143179E+02  0.10745893806E+02  0.19491211489E+02  0.51100000000E-03 0. -1.
        -11    1    4    4    0    0  0.64042630684E+01  0.28037492469E+01  0.20420617489E+02  0.21584188986E+02  0.51100000000E-03 0.  1.
        -12    1    4    4    0    0  0.11846428183E+02 -0.21621363297E+01 -0.56263898931E+01  0.13291687531E+02  0.00000000000E+00 0.  1.
</event>
<event>
 8    1  0.2401680E-006  0.9118800E+02  0.7816164E-02  0.1184000E+00
        -11   -1    0    0    0    0  0.00000000000E+00  0.00000000000E+00  0.45593999997E+02  0.45594000000E+02  0.51100000000E-03 0.  1.
         11   -1    0    0    0    0 -0.00000000000E+00 -0.00000000000E+00 -0.45593999997E+02  0.45594000000E+02  0.51100000000E-03 0. -1.
         23    2    1    2    0    0  0.00000000000E+00  0.71054273576E-14  0.88817841970E-15  0.91188000000E+02  0.91188000000E+02 0.  0.
    9900012    2    3    3    0    0 -0.14672900636E+02 -0.32973593943E+02 -0.72958605206E+01  0.54367061781E+02  0.39999948941E+02 0.  0.
        -12    1    3    3    0    0  0.14672900636E+02  0.32973593943E+02  0.72958605206E+01  0.36820938219E+02  0.00000000000E+00 0.  1.
         11    1    4    4    0    0 -0.12816000266E+01  0.21175265279E+01 -0.37198764417E+01  0.44680978310E+01  0.51100000000E-03 0. -1.
        -11    1    4    4    0    0 -0.69825731165E+01  0.52070394580E+01  0.12898237744E+01  0.88052957289E+01  0.51100000000E-03 0.  1.
         12    1    4    4    0    0 -0.64087274927E+01 -0.40298159929E+02 -0.48658078533E+01  0.41093668221E+02  0.00000000000E+00 0. -1.
</event>
<event>
 8    1  0.2401680E-006  0.9118800E+02  0.7816164E-02  0.1184000E+00
        -11   -1    0    0    0    0  0.00000000000E+00  0.00000000000E+00  0.45593999997E+02  0.45594000000E+02  0.51100000000E-03 0. -1.
         11   -1    0    0    0    0 -0.00000000000E+00 -0.00000000000E+00 -0.45593999997E+02  0.45594000000E+02  0.51100000000E-03 0.  1.
         23    2    1    2    0    0  0.17763568394E-14  0.00000000000E+00 -0.35527136788E-14  0.91188000000E+02  0.91188000000E+02 0.  0.
    9900012    2    3    3    0    0  0.13671576878E+02  0.20904495843E+02 -0.27053104349E+02  0.54367076387E+02  0.39999982241E+02 0.  0.
         12    1    3    3    0    0 -0.13671576878E+02 -0.20904495843E+02  0.27053104349E+02  0.36820923613E+02  0.00000000000E+00 0. -1.
         11    1    4    4    0    0  0.42098068467E+01  0.14513005870E+00 -0.53719419436E+01  0.68265142589E+01  0.51100000000E-03 0. -1.
        -11    1    4    4    0    0  0.36025037727E+01  0.30474179966E+02 -0.18180850831E+02  0.35667870909E+02  0.51100000000E-03 0.  1.
         12    1    4    4    0    0  0.58592662581E+01 -0.97148141816E+01 -0.35003115747E+01  0.11872691219E+02  0.00000000000E+00 0. -1.
</event>
<event>
 8    1  0.2401680E-006  0.9118800E+02  0.7816164E-02  0.1184000E+00
        -11   -1    0    0    0    0  0.00000000000E+00  0.00000000000E+00  0.45593999997E+02  0.45594000000E+02  0.51100000000E-03 0. -1.
         11   -1    0    0    0    0 -0.00000000000E+00 -0.00000000000E+00 -0.45593999997E+02  0.45594000000E+02  0.51100000000E-03 0.  1.
         23    2    1    2    0    0  0.00000000000E+00 -0.17763568394E-14  0.00000000000E+00  0.91188000000E+02  0.91188000000E+02 0.  0.
    9900012    2    3    3    0    0  0.13062212575E+02  0.13531838762E+02 -0.31655121160E+02  0.54367098961E+02  0.40000033701E+02 0.  0.
         12    1    3    3    0    0 -0.13062212575E+02 -0.13531838762E+02  0.31655121160E+02  0.36820901039E+02  0.00000000000E+00 0. -1.
         11    1    4    4    0    0  0.14916711387E+02 -0.14219669086E+01  0.24959370260E+01  0.15190785707E+02  0.51100000000E-03 0. -1.
        -11    1    4    4    0    0 -0.17097941887E+01 -0.17082521374E+01 -0.30363445024E+01  0.38808387922E+01  0.51100000000E-03 0.  1.
        -12    1    4    4    0    0 -0.14470462331E+00  0.16662057808E+02 -0.31114713684E+02  0.35295474462E+02  0.00000000000E+00 0.  1.
</event>
<event>
 8    1  0.2401680E-006  0.9118800E+02  0.7816164E-02  0.1184000E+00
        -11   -1    0    0    0    0  0.00000000000E+00  0.00000000000E+00  0.45593999997E+02  0.45594000000E+02  0.51100000000E-03 0. -1.
         11   -1    0    0    0    0 -0.00000000000E+00 -0.00000000000E+00 -0.45593999997E+02  0.45594000000E+02  0.51100000000E-03 0.  1.
         23    2    1    2    0    0 -0.71054273576E-14  0.00000000000E+00 -0.53290705182E-14  0.91188000000E+02  0.91188000000E+02 0.  0.
    9900012    2    3    3    0    0  0.35176667296E+02  0.63445602305E+01  0.88390605496E+01  0.54367077171E+02  0.39999984027E+02 0.  0.
        -12    1    3    3    0    0 -0.35176667296E+02 -0.63445602305E+01 -0.88390605496E+01  0.36820922829E+02  0.00000000000E+00 0.  1.
         11    1    4    4    0    0  0.14069517098E+02  0.48640450931E+00 -0.24694528921E+01  0.14292868801E+02  0.51100000000E-03 0. -1.
        -11    1    4    4    0    0  0.75235083788E+01  0.13843266844E+02  0.17132257241E+02  0.23275597815E+02  0.51100000000E-03 0.  1.
         12    1    4    4    0    0  0.13583641819E+02 -0.79851111230E+01 -0.58237437990E+01  0.16798610554E+02  0.00000000000E+00 0. -1.
</event>
<event>
 8    1  0.2401680E-006  0.9118800E+02  0.7816164E-02  0.1184000E+00
        -11   -1    0    0    0    0  0.00000000000E+00  0.00000000000E+00  0.45593999997E+02  0.45594000000E+02  0.51100000000E-03 0.  1.
         11   -1    0    0    0    0 -0.00000000000E+00 -0.00000000000E+00 -0.45593999997E+02  0.45594000000E+02  0.51100000000E-03 0. -1.
         23    2    1    2    0    0  0.00000000000E+00  0.44408920985E-15  0.00000000000E+00  0.91188000000E+02  0.91188000000E+02 0.  0.
    9900012    2    3    3    0    0 -0.14207112379E+02  0.32419452395E+01 -0.33814593328E+02  0.54367095977E+02  0.40000026900E+02 0.  0.
        -12    1    3    3    0    0  0.14207112379E+02 -0.32419452395E+01  0.33814593328E+02  0.36820904023E+02  0.00000000000E+00 0.  1.
         11    1    4    4    0    0 -0.35870848701E+01 -0.66481832856E+01 -0.16579419843E+02  0.18219294209E+02  0.51100000000E-03 0. -1.
        -11    1    4    4    0    0 -0.31770676313E+01  0.39425646926E+01 -0.23958052151E+02  0.24487258692E+02  0.51100000000E-03 0.  1.
         12    1    4    4    0    0 -0.74429598777E+01  0.59475638325E+01  0.67228786665E+01  0.11660543077E+02  0.00000000000E+00 0. -1.
</event>
<event>
 8    1  0.2401680E-006  0.9118800E+02  0.7816164E-02  0.1184000E+00
        -11   -1    0    0    0    0  0.00000000000E+00  0.00000000000E+00  0.45593999997E+02  0.45594000000E+02  0.51100000000E-03 0.  1.
         11   -1    0    0    0    0 -0.00000000000E+00 -0.00000000000E+00 -0.45593999997E+02  0.45594000000E+02  0.51100000000E-03 0. -1.
         23    2    1    2    0    0  0.00000000000E+00 -0.35527136788E-14  0.22204460493E-15  0.91188000000E+02  0.91188000000E+02 0.  0.
    9900012    2    3    3    0    0 -0.32611957203E+02  0.17030786497E+02  0.14803215169E+01  0.54367098421E+02  0.40000032470E+02 0.  0.
         12    1    3    3    0    0  0.32611957203E+02 -0.17030786497E+02 -0.14803215169E+01  0.36820901579E+02  0.00000000000E+00 0. -1.
         11    1    4    4    0    0 -0.27220269069E+02  0.90744131368E+01 -0.94699082967E+01  0.30215346852E+02  0.51100000000E-03 0. -1.
        -11    1    4    4    0    0 -0.48296331533E+01 -0.53869655266E+01  0.60838691610E+00  0.72605019717E+01  0.51100000000E-03 0.  1.
         12    1    4    4    0    0 -0.56205498034E+00  0.13343338887E+02  0.10341842897E+02  0.16891249597E+02  0.00000000000E+00 0. -1.
</event>
<event>
 8    1  0.2401680E-006  0.9118800E+02  0.7816164E-02  0.1184000E+00
        -11   -1    0    0    0    0  0.00000000000E+00  0.00000000000E+00  0.45593999997E+02  0.45594000000E+02  0.51100000000E-03 0. -1.
         11   -1    0    0    0    0 -0.00000000000E+00 -0.00000000000E+00 -0.45593999997E+02  0.45594000000E+02  0.51100000000E-03 0.  1.
         23    2    1    2    0    0  0.35527136788E-14 -0.53290705182E-14 -0.71054273576E-14  0.91188000000E+02  0.91188000000E+02 0.  0.
    9900012    2    3    3    0    0 -0.18123544403E+02  0.15162012649E+02  0.28238797628E+02  0.54367093156E+02  0.40000020469E+02 0.  0.
        -12    1    3    3    0    0  0.18123544403E+02 -0.15162012649E+02 -0.28238797628E+02  0.36820906844E+02  0.00000000000E+00 0.  1.
         11    1    4    4    0    0 -0.86560946262E+01  0.20950737703E+02  0.15370674543E+02  0.27388300799E+02  0.51100000000E-03 0. -1.
        -11    1    4    4    0    0 -0.22615500450E+01 -0.27804161029E+00 -0.57954923114E+01  0.62273306589E+01  0.51100000000E-03 0.  1.
        -12    1    4    4    0    0 -0.72058997317E+01 -0.55106834439E+01  0.18663615396E+02  0.20751461699E+02  0.00000000000E+00 0.  1.
</event>
<event>
 8    1  0.2401680E-006  0.9118800E+02  0.7816164E-02  0.1184000E+00
        -11   -1    0    0    0    0  0.00000000000E+00  0.00000000000E+00  0.45593999997E+02  0.45594000000E+02  0.51100000000E-03 0.  1.
         11   -1    0    0    0    0 -0.00000000000E+00 -0.00000000000E+00 -0.45593999997E+02  0.45594000000E+02  0.51100000000E-03 0. -1.
         23    2    1    2    0    0  0.00000000000E+00  0.00000000000E+00  0.00000000000E+00  0.91188000000E+02  0.91188000000E+02 0.  0.
    9900012    2    3    3    0    0  0.18749946118E+01  0.29177765268E+02 -0.22381328989E+02  0.54367061960E+02  0.39999949350E+02 0.  0.
         12    1    3    3    0    0 -0.18749946118E+01 -0.29177765268E+02  0.22381328989E+02  0.36820938040E+02  0.00000000000E+00 0. -1.
         11    1    4    4    0    0 -0.28440155094E+01 -0.52938108762E+01 -0.27641771943E+01  0.66146453898E+01  0.51100000000E-03 0. -1.
        -11    1    4    4    0    0  0.57330448354E+00  0.14858403274E+02 -0.23034246459E+02  0.27416734599E+02  0.51100000000E-03 0.  1.
        -12    1    4    4    0    0  0.41457056376E+01  0.19613172870E+02  0.34170946647E+01  0.20335681971E+02  0.00000000000E+00 0.  1.
</event>
<event>
 8    1  0.2401680E-006  0.9118800E+02  0.7816164E-02  0.1184000E+00
        -11   -1    0    0    0    0  0.00000000000E+00  0.00000000000E+00  0.45593999997E+02  0.45594000000E+02  0.51100000000E-03 0. -1.
         11   -1    0    0    0    0 -0.00000000000E+00 -0.00000000000E+00 -0.45593999997E+02  0.45594000000E+02  0.51100000000E-03 0.  1.
         23    2    1    2    0    0 -0.27755575616E-15  0.00000000000E+00  0.00000000000E+00  0.91188000000E+02  0.91188000000E+02 0.  0.
    9900012    2    3    3    0    0  0.41420091372E+00 -0.36385171800E+02  0.56326911091E+01  0.54367088843E+02  0.40000010634E+02 0.  0.
        -12    1    3    3    0    0 -0.41420091372E+00  0.36385171800E+02 -0.56326911091E+01  0.36820911157E+02  0.00000000000E+00 0.  1.
         11    1    4    4    0    0  0.45310386214E+01 -0.76093781319E+00  0.93534057860E+01  0.10420918261E+02  0.51100000000E-03 0. -1.
        -11    1    4    4    0    0  0.64812526145E+01 -0.11527808762E+01  0.30451218989E+01  0.72531584046E+01  0.51100000000E-03 0.  1.
        -12    1    4    4    0    0 -0.10598090322E+02 -0.34471453111E+02 -0.67658365759E+01  0.36693012177E+02  0.00000000000E+00 0.  1.
</event>
<event>
 8    1  0.2401680E-006  0.9118800E+02  0.7816164E-02  0.1184000E+00
        -11   -1    0    0    0    0  0.00000000000E+00  0.00000000000E+00  0.45593999997E+02  0.45594000000E+02  0.51100000000E-03 0.  1.
         11   -1    0    0    0    0 -0.00000000000E+00 -0.00000000000E+00 -0.45593999997E+02  0.45594000000E+02  0.51100000000E-03 0. -1.
         23    2    1    2    0    0 -0.71054273576E-14 -0.17763568394E-14  0.00000000000E+00  0.91188000000E+02  0.91188000000E+02 0.  0.
    9900012    2    3    3    0    0 -0.30025480784E+02 -0.10971532922E+02 -0.18272275077E+02  0.54367081116E+02  0.39999993020E+02 0.  0.
        -12    1    3    3    0    0  0.30025480784E+02  0.10971532922E+02  0.18272275077E+02  0.36820918884E+02  0.00000000000E+00 0.  1.
         11    1    4    4    0    0 -0.85491488353E+01 -0.84419911300E+01  0.83499033199E+01  0.14631337798E+02  0.51100000000E-03 0. -1.
        -11    1    4    4    0    0 -0.13213124910E+02 -0.15999794045E+01 -0.16451726182E+01  0.13410935731E+02  0.51100000000E-03 0.  1.
         12    1    4    4    0    0 -0.82632070390E+01 -0.92956238733E+00 -0.24977005779E+02  0.26324807586E+02  0.00000000000E+00 0. -1.
</event>
<event>
 8    1  0.2401680E-006  0.9118800E+02  0.7816164E-02  0.1184000E+00
        -11   -1    0    0    0    0  0.00000000000E+00  0.00000000000E+00  0.45593999997E+02  0.45594000000E+02  0.51100000000E-03 0. -1.
         11   -1    0    0    0    0 -0.00000000000E+00 -0.00000000000E+00 -0.45593999997E+02  0.45594000000E+02  0.51100000000E-03 0.  1.
         23    2    1    2    0    0 -0.44408920985E-15  0.00000000000E+00  0.35527136788E-14  0.91188000000E+02  0.91188000000E+02 0.  0.
    9900012    2    3    3    0    0  0.17628470872E+01  0.21819890685E+02  0.29606831336E+02  0.54367085819E+02  0.40000003741E+02 0.  0.
        -12    1    3    3    0    0 -0.17628470872E+01 -0.21819890685E+02 -0.29606831336E+02  0.36820914181E+02  0.00000000000E+00 0.  1.
         11    1    4    4    0    0  0.98569343731E+01  0.96865912166E+01  0.15287042357E+02  0.20607835134E+02  0.51100000000E-03 0. -1.
        -11    1    4    4    0    0  0.60334420665E+01  0.12240573120E+02  0.14110042994E+02  0.19629757182E+02  0.51100000000E-03 0.  1.
        -12    1    4    4    0    0 -0.14127529352E+02 -0.10727365109E+00  0.20974598457E+00  0.14129493502E+02  0.00000000000E+00 0.  1.
</event>
<event>
 8    1  0.2401680E-006  0.9118800E+02  0.7816164E-02  0.1184000E+00
        -11   -1    0    0    0    0  0.00000000000E+00  0.00000000000E+00  0.45593999997E+02  0.45594000000E+02  0.51100000000E-03 0. -1.
         11   -1    0    0    0    0 -0.00000000000E+00 -0.00000000000E+00 -0.45593999997E+02  0.45594000000E+02  0.51100000000E-03 0.  1.
         23    2    1    2    0    0  0.00000000000E+00  0.77715611724E-15  0.00000000000E+00  0.91188000000E+02  0.91188000000E+02 0.  0.
    9900012    2    3    3    0    0 -0.32407355088E+02 -0.49487326272E+00  0.17472726864E+02  0.54367112620E+02  0.40000064841E+02 0.  0.
        -12    1    3    3    0    0  0.32407355088E+02  0.49487326272E+00 -0.17472726864E+02  0.36820887380E+02  0.00000000000E+00 0.  1.
         11    1    4    4    0    0 -0.10298459052E+02 -0.16885043850E+02  0.11150519936E+02  0.22704560330E+02  0.51100000000E-03 0. -1.
        -11    1    4    4    0    0 -0.63247050023E+01  0.12319514824E+02 -0.80568396721E+00  0.13871606460E+02  0.51100000000E-03 0.  1.
         12    1    4    4    0    0 -0.15784191033E+02  0.40706557627E+01  0.71278908951E+01  0.17790945830E+02  0.00000000000E+00 0. -1.
</event>
<event>
 8    1  0.2401680E-006  0.9118800E+02  0.7816164E-02  0.1184000E+00
        -11   -1    0    0    0    0  0.00000000000E+00  0.00000000000E+00  0.45593999997E+02  0.45594000000E+02  0.51100000000E-03 0. -1.
         11   -1    0    0    0    0 -0.00000000000E+00 -0.00000000000E+00 -0.45593999997E+02  0.45594000000E+02  0.51100000000E-03 0.  1.
         23    2    1    2    0    0  0.17763568394E-14 -0.88817841970E-15 -0.71054273576E-14  0.91188000000E+02  0.91188000000E+02 0.  0.
    9900012    2    3    3    0    0 -0.14653105208E+02 -0.78588330968E+01  0.32852707718E+02  0.54367147833E+02  0.40000145115E+02 0.  0.
        -12    1    3    3    0    0  0.14653105208E+02  0.78588330968E+01 -0.32852707718E+02  0.36820852167E+02  0.00000000000E+00 0.  1.
         11    1    4    4    0    0  0.71577945089E+01 -0.59533034039E+01  0.31964302268E+01  0.98434247144E+01  0.51100000000E-03 0. -1.
        -11    1    4    4    0    0 -0.88717825906E+01  0.93451481939E+01  0.36837915977E+01  0.13401889490E+02  0.51100000000E-03 0.  1.
         12    1    4    4    0    0 -0.12939117126E+02 -0.11250677887E+02  0.25972485894E+02  0.31121833629E+02  0.00000000000E+00 0. -1.
</event>
<event>
 8    1  0.2401680E-006  0.9118800E+02  0.7816164E-02  0.1184000E+00
        -11   -1    0    0    0    0  0.00000000000E+00  0.00000000000E+00  0.45593999997E+02  0.45594000000E+02  0.51100000000E-03 0.  1.
         11   -1    0    0    0    0 -0.00000000000E+00 -0.00000000000E+00 -0.45593999997E+02  0.45594000000E+02  0.51100000000E-03 0. -1.
         23    2    1    2    0    0 -0.88817841970E-15 -0.71054273576E-14  0.00000000000E+00  0.91188000000E+02  0.91188000000E+02 0.  0.
    9900012    2    3    3    0    0  0.62745990322E+01  0.32098098309E+02 -0.16915132850E+02  0.54367078944E+02  0.39999988069E+02 0.  0.
        -12    1    3    3    0    0 -0.62745990322E+01 -0.32098098309E+02  0.16915132850E+02  0.36820921056E+02  0.00000000000E+00 0.  1.
         11    1    4    4    0    0 -0.58016278345E+00  0.21954671683E+02 -0.19296609901E+02  0.29235310012E+02  0.51100000000E-03 0. -1.
        -11    1    4    4    0    0  0.13608228036E+02  0.36606953420E+01 -0.28942479892E+01  0.14386147238E+02  0.51100000000E-03 0.  1.
         12    1    4    4    0    0 -0.67534662207E+01  0.64827312843E+01  0.52757250399E+01  0.10745621694E+02  0.00000000000E+00 0. -1.
</event>
<event>
 8    1  0.2401680E-006  0.9118800E+02  0.7816164E-02  0.1184000E+00
        -11   -1    0    0    0    0  0.00000000000E+00  0.00000000000E+00  0.45593999997E+02  0.45594000000E+02  0.51100000000E-03 0.  1.
         11   -1    0    0    0    0 -0.00000000000E+00 -0.00000000000E+00 -0.45593999997E+02  0.45594000000E+02  0.51100000000E-03 0. -1.
         23    2    1    2    0    0  0.00000000000E+00  0.00000000000E+00  0.00000000000E+00  0.91188000000E+02  0.91188000000E+02 0.  0.
    9900012    2    3    3    0    0  0.17181372952E+02 -0.13768522673E+02 -0.29512842040E+02  0.54367086943E+02  0.40000006303E+02 0.  0.
        -12    1    3    3    0    0 -0.17181372952E+02  0.13768522673E+02  0.29512842040E+02  0.36820913057E+02  0.00000000000E+00 0.  1.
         11    1    4    4    0    0 -0.46811487429E+01 -0.15502951773E+02 -0.98544057337E+01  0.18956897949E+02  0.51100000000E-03 0. -1.
        -11    1    4    4    0    0  0.61651934126E+01 -0.83234458496E+01 -0.41448870097E+01  0.11156587705E+02  0.51100000000E-03 0.  1.
        -12    1    4    4    0    0  0.15697328282E+02  0.10057874950E+02 -0.15513549296E+02  0.24253601289E+02  0.00000000000E+00 0.  1.
</event>
<event>
 8    1  0.2401680E-006  0.9118800E+02  0.7816164E-02  0.1184000E+00
        -11   -1    0    0    0    0  0.00000000000E+00  0.00000000000E+00  0.45593999997E+02  0.45594000000E+02  0.51100000000E-03 0. -1.
         11   -1    0    0    0    0 -0.00000000000E+00 -0.00000000000E+00 -0.45593999997E+02  0.45594000000E+02  0.51100000000E-03 0.  1.
         23    2    1    2    0    0  0.35527136788E-14  0.35527136788E-14  0.88817841970E-15  0.91188000000E+02  0.91188000000E+02 0.  0.
    9900012    2    3    3    0    0  0.29044739999E+02  0.22211345712E+02 -0.43397553793E+01  0.54367159750E+02  0.40000172282E+02 0.  0.
         12    1    3    3    0    0 -0.29044739999E+02 -0.22211345712E+02  0.43397553793E+01  0.36820840250E+02  0.00000000000E+00 0. -1.
         11    1    4    4    0    0  0.28013142545E+02  0.11238272025E+02 -0.74733570716E-01  0.30183447429E+02  0.51100000000E-03 0. -1.
        -11    1    4    4    0    0  0.24377465655E+01  0.16780065640E+02 -0.59599312557E+01  0.17973146414E+02  0.51100000000E-03 0.  1.
         12    1    4    4    0    0 -0.14061491110E+01 -0.58069919519E+01  0.16949094471E+01  0.62105659070E+01  0.00000000000E+00 0. -1.
</event>
<event>
 8    1  0.2401680E-006  0.9118800E+02  0.7816164E-02  0.1184000E+00
        -11   -1    0    0    0    0  0.00000000000E+00  0.00000000000E+00  0.45593999997E+02  0.45594000000E+02  0.51100000000E-03 0. -1.
         11   -1    0    0    0    0 -0.00000000000E+00 -0.00000000000E+00 -0.45593999997E+02  0.45594000000E+02  0.51100000000E-03 0.  1.
         23    2    1    2    0    0 -0.35527136788E-14 -0.35527136788E-14 -0.35527136788E-14  0.91188000000E+02  0.91188000000E+02 0.  0.
    9900012    2    3    3    0    0 -0.22897431719E+02 -0.16352337390E+02 -0.23750517502E+02  0.54367103772E+02  0.40000044669E+02 0.  0.
         12    1    3    3    0    0  0.22897431719E+02  0.16352337390E+02  0.23750517502E+02  0.36820896228E+02  0.00000000000E+00 0. -1.
         11    1    4    4    0    0 -0.70803322491E+00 -0.19224683556E+01 -0.82810767833E+01  0.85307343516E+01  0.51100000000E-03 0. -1.
        -11    1    4    4    0    0 -0.50434134066E+00 -0.66640018195E+01 -0.21092777788E+02  0.22126196137E+02  0.51100000000E-03 0.  1.
         12    1    4    4    0    0 -0.21685057153E+02 -0.77658672144E+01  0.56233370691E+01  0.23710173283E+02  0.00000000000E+00 0. -1.
</event>
<event>
 8    1  0.2401680E-006  0.9118800E+02  0.7816164E-02  0.1184000E+00
        -11   -1    0    0    0    0  0.00000000000E+00  0.00000000000E+00  0.45593999997E+02  0.45594000000E+02  0.51100000000E-03 0.  1.
         11   -1    0    0    0    0 -0.00000000000E+00 -0.00000000000E+00 -0.45593999997E+02  0.45594000000E+02  0.51100000000E-03 0. -1.
         23    2    1    2    0    0 -0.55511151231E-16  0.00000000000E+00  0.00000000000E+00  0.91188000000E+02  0.91188000000E+02 0.  0.
    9900012    2    3    3    0    0 -0.30229456413E+00  0.53633925973E+01 -0.36426954239E+02  0.54367077181E+02  0.39999984048E+02 0.  0.
        -12    1    3    3    0    0  0.30229456413E+00 -0.53633925973E+01  0.36426954239E+02  0.36820922819E+02  0.00000000000E+00 0.  1.
         11    1    4    4    0    0 -0.35545905311E+01 -0.24534717117E+01 -0.38043027522E+02  0.38287420657E+02  0.51100000000E-03 0. -1.
        -11    1    4    4    0    0 -0.45686763135E+01  0.99343831360E+00 -0.20046772960E+01  0.50870870115E+01  0.51100000000E-03 0.  1.
         12    1    4    4    0    0  0.78209722805E+01  0.68234259954E+01  0.36207505787E+01  0.10992569512E+02  0.00000000000E+00 0. -1.
</event>
<event>
 8    1  0.2401680E-006  0.9118800E+02  0.7816164E-02  0.1184000E+00
        -11   -1    0    0    0    0  0.00000000000E+00  0.00000000000E+00  0.45593999997E+02  0.45594000000E+02  0.51100000000E-03 0. -1.
         11   -1    0    0    0    0 -0.00000000000E+00 -0.00000000000E+00 -0.45593999997E+02  0.45594000000E+02  0.51100000000E-03 0.  1.
         23    2    1    2    0    0  0.71054273576E-14  0.00000000000E+00  0.00000000000E+00  0.91188000000E+02  0.91188000000E+02 0.  0.
    9900012    2    3    3    0    0 -0.27164335913E+02  0.86047741944E+01  0.23320300034E+02  0.54367086402E+02  0.40000005070E+02 0.  0.
        -12    1    3    3    0    0  0.27164335913E+02 -0.86047741944E+01 -0.23320300034E+02  0.36820913598E+02  0.00000000000E+00 0.  1.
         11    1    4    4    0    0 -0.10708400152E+02  0.34348285790E+00  0.68326186359E+01  0.12707182693E+02  0.51100000000E-03 0. -1.
        -11    1    4    4    0    0 -0.84720615937E-01 -0.71385211196E+01  0.17766879298E+02  0.19147523642E+02  0.51100000000E-03 0.  1.
        -12    1    4    4    0    0 -0.16371215145E+02  0.15399812456E+02 -0.12791979003E+01  0.22512380067E+02  0.00000000000E+00 0.  1.
</event>
<event>
 8    1  0.2401680E-006  0.9118800E+02  0.7816164E-02  0.1184000E+00
        -11   -1    0    0    0    0  0.00000000000E+00  0.00000000000E+00  0.45593999997E+02  0.45594000000E+02  0.51100000000E-03 0. -1.
         11   -1    0    0    0    0 -0.00000000000E+00 -0.00000000000E+00 -0.45593999997E+02  0.45594000000E+02  0.51100000000E-03 0.  1.
         23    2    1    2    0    0  0.00000000000E+00 -0.35527136788E-14  0.66613381478E-15  0.91188000000E+02  0.91188000000E+02 0.  0.
    9900012    2    3    3    0    0 -0.30468109451E+02  0.20601739242E+02  0.17440775747E+01  0.54367093440E+02  0.40000021114E+02 0.  0.
        -12    1    3    3    0    0  0.30468109451E+02 -0.20601739242E+02 -0.17440775747E+01  0.36820906560E+02  0.00000000000E+00 0.  1.
         11    1    4    4    0    0 -0.16820224262E+02 -0.59559683494E+01 -0.34704699662E+01  0.18177944473E+02  0.51100000000E-03 0. -1.
        -11    1    4    4    0    0  0.25368628170E+01  0.67313681960E+00 -0.35620724492E+01  0.44246069344E+01  0.51100000000E-03 0.  1.
         12    1    4    4    0    0 -0.16184748006E+02  0.25884570772E+02  0.87766199900E+01  0.31764542032E+02  0.00000000000E+00 0. -1.
</event>
<event>
 8    1  0.2401680E-006  0.9118800E+02  0.7816164E-02  0.1184000E+00
        -11   -1    0    0    0    0  0.00000000000E+00  0.00000000000E+00  0.45593999997E+02  0.45594000000E+02  0.51100000000E-03 0. -1.
         11   -1    0    0    0    0 -0.00000000000E+00 -0.00000000000E+00 -0.45593999997E+02  0.45594000000E+02  0.51100000000E-03 0.  1.
         23    2    1    2    0    0  0.71054273576E-14  0.35527136788E-14  0.00000000000E+00  0.91188000000E+02  0.91188000000E+02 0.  0.
    9900012    2    3    3    0    0  0.25220365567E+02  0.23251677469E+02 -0.13381763372E+02  0.54367096488E+02  0.40000028064E+02 0.  0.
         12    1    3    3    0    0 -0.25220365567E+02 -0.23251677469E+02  0.13381763372E+02  0.36820903512E+02  0.00000000000E+00 0. -1.
         11    1    4    4    0    0 -0.51672061339E+01  0.19429484069E+02 -0.33105499021E+01  0.20375588613E+02  0.51100000000E-03 0. -1.
        -11    1    4    4    0    0  0.55060891943E+01  0.21826267679E+01 -0.65130990033E+01  0.88034843506E+01  0.51100000000E-03 0.  1.
         12    1    4    4    0    0  0.24881482507E+02  0.16395666318E+01 -0.35581144668E+01  0.25188023524E+02  0.00000000000E+00 0. -1.
</event>
<event>
 8    1  0.2401680E-006  0.9118800E+02  0.7816164E-02  0.1184000E+00
        -11   -1    0    0    0    0  0.00000000000E+00  0.00000000000E+00  0.45593999997E+02  0.45594000000E+02  0.51100000000E-03 0.  1.
         11   -1    0    0    0    0 -0.00000000000E+00 -0.00000000000E+00 -0.45593999997E+02  0.45594000000E+02  0.51100000000E-03 0. -1.
         23    2    1    2    0    0  0.13322676296E-14  0.00000000000E+00  0.71054273576E-14  0.91188000000E+02  0.91188000000E+02 0.  0.
    9900012    2    3    3    0    0 -0.34243742913E+01  0.14101760432E+02 -0.33840704271E+02  0.54367092188E+02  0.40000018261E+02 0.  0.
        -12    1    3    3    0    0  0.34243742913E+01 -0.14101760432E+02  0.33840704271E+02  0.36820907812E+02  0.00000000000E+00 0.  1.
         11    1    4    4    0    0  0.32801307968E+01  0.52807962472E+01 -0.79595228726E+01  0.10099508487E+02  0.51100000000E-03 0. -1.
        -11    1    4    4    0    0  0.12547134771E+01  0.79594806217E+01 -0.32745272951E+02  0.33722107565E+02  0.51100000000E-03 0.  1.
        -12    1    4    4    0    0 -0.79592185652E+01  0.86148356293E+00  0.68640915532E+01  0.10545476137E+02  0.00000000000E+00 0.  1.
</event>
<event>
 8    1  0.2401680E-006  0.9118800E+02  0.7816164E-02  0.1184000E+00
        -11   -1    0    0    0    0  0.00000000000E+00  0.00000000000E+00  0.45593999997E+02  0.45594000000E+02  0.51100000000E-03 0.  1.
         11   -1    0    0    0    0 -0.00000000000E+00 -0.00000000000E+00 -0.45593999997E+02  0.45594000000E+02  0.51100000000E-03 0. -1.
         23    2    1    2    0    0  0.00000000000E+00  0.17763568394E-14  0.00000000000E+00  0.91188000000E+02  0.91188000000E+02 0.  0.
    9900012    2    3    3    0    0  0.19632615839E+02  0.15224145169E+02 -0.27176584229E+02  0.54367069388E+02  0.39999966283E+02 0.  0.
        -12    1    3    3    0    0 -0.19632615839E+02 -0.15224145169E+02  0.27176584229E+02  0.36820930612E+02  0.00000000000E+00 0.  1.
         11    1    4    4    0    0  0.11048841200E+02 -0.66583142001E+00 -0.97092336300E+01  0.14723771300E+02  0.51100000000E-03 0. -1.
        -11    1    4    4    0    0  0.29494168339E+01 -0.66101216039E+01  0.37992328492E+01  0.81747744790E+01  0.51100000000E-03 0.  1.
         12    1    4    4    0    0  0.56343578048E+01  0.22500098192E+02 -0.21266583448E+02  0.31468523609E+02  0.00000000000E+00 0. -1.
</event>
<event>
 8    1  0.2401680E-006  0.9118800E+02  0.7816164E-02  0.1184000E+00
        -11   -1    0    0    0    0  0.00000000000E+00  0.00000000000E+00  0.45593999997E+02  0.45594000000E+02  0.51100000000E-03 0. -1.
         11   -1    0    0    0    0 -0.00000000000E+00 -0.00000000000E+00 -0.45593999997E+02  0.45594000000E+02  0.51100000000E-03 0.  1.
         23    2    1    2    0    0  0.00000000000E+00  0.00000000000E+00  0.00000000000E+00  0.91188000000E+02  0.91188000000E+02 0.  0.
    9900012    2    3    3    0    0  0.84655255727E+01  0.19815511204E+02  0.29857310492E+02  0.54367101080E+02  0.40000038531E+02 0.  0.
        -12    1    3    3    0    0 -0.84655255727E+01 -0.19815511204E+02 -0.29857310492E+02  0.36820898920E+02  0.00000000000E+00 0.  1.
         11    1    4    4    0    0  0.10232974861E+02  0.56254151673E+00  0.45522908661E+01  0.11213990363E+02  0.51100000000E-03 0. -1.
        -11    1    4    4    0    0 -0.90568536244E+01  0.77688062110E+01  0.26929015679E+02  0.29454249833E+02  0.51100000000E-03 0.  1.
         12    1    4    4    0    0  0.72894043363E+01  0.11484163477E+02 -0.16239960537E+01  0.13698860884E+02  0.00000000000E+00 0. -1.
</event>
<event>
 8    1  0.2401680E-006  0.9118800E+02  0.7816164E-02  0.1184000E+00
        -11   -1    0    0    0    0  0.00000000000E+00  0.00000000000E+00  0.45593999997E+02  0.45594000000E+02  0.51100000000E-03 0.  1.
         11   -1    0    0    0    0 -0.00000000000E+00 -0.00000000000E+00 -0.45593999997E+02  0.45594000000E+02  0.51100000000E-03 0. -1.
         23    2    1    2    0    0  0.35527136788E-14  0.88817841970E-15  0.35527136788E-14  0.91188000000E+02  0.91188000000E+02 0.  0.
    9900012    2    3    3    0    0 -0.30885042269E+02  0.23330902256E+01 -0.19911061908E+02  0.54367088383E+02  0.40000009587E+02 0.  0.
        -12    1    3    3    0    0  0.30885042269E+02 -0.23330902256E+01  0.19911061908E+02  0.36820911617E+02  0.00000000000E+00 0.  1.
         11    1    4    4    0    0  0.15745212039E+01 -0.18807532107E+01 -0.12850396285E+02  0.13082394070E+02  0.51100000000E-03 0. -1.
        -11    1    4    4    0    0 -0.19280208867E+02  0.77803618913E+01 -0.14864857341E+02  0.25558256379E+02  0.51100000000E-03 0.  1.
        -12    1    4    4    0    0 -0.13179354607E+02 -0.35665184550E+01  0.78041917171E+01  0.15726437934E+02  0.00000000000E+00 0.  1.
</event>
<event>
 8    1  0.2401680E-006  0.9118800E+02  0.7816164E-02  0.1184000E+00
        -11   -1    0    0    0    0  0.00000000000E+00  0.00000000000E+00  0.45593999997E+02  0.45594000000E+02  0.51100000000E-03 0.  1.
         11   -1    0    0    0    0 -0.00000000000E+00 -0.00000000000E+00 -0.45593999997E+02  0.45594000000E+02  0.51100000000E-03 0. -1.
         23    2    1    2    0    0  0.00000000000E+00 -0.17763568394E-14  0.35527136788E-14  0.91188000000E+02  0.91188000000E+02 0.  0.
    9900012    2    3    3    0    0 -0.28530138683E+02 -0.47939766264E+01  0.22777525790E+02  0.54367262551E+02  0.40000406636E+02 0.  0.
        -12    1    3    3    0    0  0.28530138683E+02  0.47939766264E+01 -0.22777525790E+02  0.36820737449E+02  0.00000000000E+00 0.  1.
         11    1    4    4    0    0 -0.84706429599E+01  0.56731713085E+01  0.85918710028E+01  0.13332550860E+02  0.51100000000E-03 0. -1.
        -11    1    4    4    0    0 -0.24363815395E+02  0.20423624458E+01  0.13159141593E+02  0.27765621777E+02  0.51100000000E-03 0.  1.
         12    1    4    4    0    0  0.43043196717E+01 -0.12509510381E+02  0.10265131945E+01  0.13269089914E+02  0.00000000000E+00 0. -1.
</event>
<event>
 8    1  0.2401680E-006  0.9118800E+02  0.7816164E-02  0.1184000E+00
        -11   -1    0    0    0    0  0.00000000000E+00  0.00000000000E+00  0.45593999997E+02  0.45594000000E+02  0.51100000000E-03 0. -1.
         11   -1    0    0    0    0 -0.00000000000E+00 -0.00000000000E+00 -0.45593999997E+02  0.45594000000E+02  0.51100000000E-03 0.  1.
         23    2    1    2    0    0  0.35527136788E-14 -0.88817841970E-15 -0.35527136788E-14  0.91188000000E+02  0.91188000000E+02 0.  0.
    9900012    2    3    3    0    0  0.27129515159E+02 -0.24511729003E+01 -0.24774277202E+02  0.54367032438E+02  0.39999882048E+02 0.  0.
        -12    1    3    3    0    0 -0.27129515159E+02  0.24511729003E+01  0.24774277202E+02  0.36820967562E+02  0.00000000000E+00 0.  1.
         11    1    4    4    0    0  0.22630380310E+02  0.89835085325E+01 -0.20270571075E+02  0.31681754852E+02  0.51100000000E-03 0. -1.
        -11    1    4    4    0    0 -0.24825597939E+01 -0.69783220553E+01 -0.10219835749E+02  0.12621613400E+02  0.51100000000E-03 0.  1.
         12    1    4    4    0    0  0.69816946425E+01 -0.44563593775E+01  0.57161296213E+01  0.10063664185E+02  0.00000000000E+00 0. -1.
</event>
<event>
 8    1  0.2401680E-006  0.9118800E+02  0.7816164E-02  0.1184000E+00
        -11   -1    0    0    0    0  0.00000000000E+00  0.00000000000E+00  0.45593999997E+02  0.45594000000E+02  0.51100000000E-03 0. -1.
         11   -1    0    0    0    0 -0.00000000000E+00 -0.00000000000E+00 -0.45593999997E+02  0.45594000000E+02  0.51100000000E-03 0.  1.
         23    2    1    2    0    0  0.00000000000E+00  0.35527136788E-14  0.00000000000E+00  0.91188000000E+02  0.91188000000E+02 0.  0.
    9900012    2    3    3    0    0 -0.23995720114E+02 -0.24229140719E+02 -0.13890060538E+02  0.54367087117E+02  0.40000006701E+02 0.  0.
         12    1    3    3    0    0  0.23995720114E+02  0.24229140719E+02  0.13890060538E+02  0.36820912883E+02  0.00000000000E+00 0. -1.
         11    1    4    4    0    0  0.59319360332E+01 -0.52793884096E+01 -0.13923884653E+02  0.16029172505E+02  0.51100000000E-03 0. -1.
        -11    1    4    4    0    0 -0.16123407779E+02 -0.22148948622E+01 -0.26136212534E+01  0.16483356878E+02  0.51100000000E-03 0.  1.
         12    1    4    4    0    0 -0.13804248368E+02 -0.16734857447E+02  0.26474453683E+01  0.21854557734E+02  0.00000000000E+00 0. -1.
</event>
<event>
 8    1  0.2401680E-006  0.9118800E+02  0.7816164E-02  0.1184000E+00
        -11   -1    0    0    0    0  0.00000000000E+00  0.00000000000E+00  0.45593999997E+02  0.45594000000E+02  0.51100000000E-03 0. -1.
         11   -1    0    0    0    0 -0.00000000000E+00 -0.00000000000E+00 -0.45593999997E+02  0.45594000000E+02  0.51100000000E-03 0.  1.
         23    2    1    2    0    0 -0.35527136788E-14  0.00000000000E+00  0.00000000000E+00  0.91188000000E+02  0.91188000000E+02 0.  0.
    9900012    2    3    3    0    0 -0.20506392430E+02  0.27260436656E+02  0.13861324279E+02  0.54367084097E+02  0.39999999816E+02 0.  0.
        -12    1    3    3    0    0  0.20506392430E+02 -0.27260436656E+02 -0.13861324279E+02  0.36820915903E+02  0.00000000000E+00 0.  1.
         11    1    4    4    0    0 -0.80109728861E+01 -0.23781219588E+01  0.12664954660E+02  0.15173405269E+02  0.51100000000E-03 0. -1.
        -11    1    4    4    0    0 -0.70573056803E+01  0.10494051597E+02  0.11223505524E+02  0.16908511434E+02  0.51100000000E-03 0.  1.
        -12    1    4    4    0    0 -0.54381138631E+01  0.19144507018E+02 -0.10027135905E+02  0.22285167395E+02  0.00000000000E+00 0.  1.
</event>
<event>
 8    1  0.2401680E-006  0.9118800E+02  0.7816164E-02  0.1184000E+00
        -11   -1    0    0    0    0  0.00000000000E+00  0.00000000000E+00  0.45593999997E+02  0.45594000000E+02  0.51100000000E-03 0.  1.
         11   -1    0    0    0    0 -0.00000000000E+00 -0.00000000000E+00 -0.45593999997E+02  0.45594000000E+02  0.51100000000E-03 0. -1.
         23    2    1    2    0    0  0.00000000000E+00 -0.11102230246E-15  0.71054273576E-14  0.91188000000E+02  0.91188000000E+02 0.  0.
    9900012    2    3    3    0    0 -0.16218548924E+02  0.68493778318E+00 -0.33049514876E+02  0.54367069777E+02  0.39999967170E+02 0.  0.
        -12    1    3    3    0    0  0.16218548924E+02 -0.68493778318E+00  0.33049514876E+02  0.36820930223E+02  0.00000000000E+00 0.  1.
         11    1    4    4    0    0  0.10275747449E+02  0.64426096957E+00 -0.11918017162E+02  0.15749450504E+02  0.51100000000E-03 0. -1.
        -11    1    4    4    0    0  0.51290073397E+00  0.48054764111E+01 -0.23141134579E+01  0.53582452405E+01  0.51100000000E-03 0.  1.
        -12    1    4    4    0    0 -0.27007197107E+02 -0.47647995974E+01 -0.18817384256E+02  0.33259374033E+02  0.00000000000E+00 0.  1.
</event>
<event>
 8    1  0.2401680E-006  0.9118800E+02  0.7816164E-02  0.1184000E+00
        -11   -1    0    0    0    0  0.00000000000E+00  0.00000000000E+00  0.45593999997E+02  0.45594000000E+02  0.51100000000E-03 0.  1.
         11   -1    0    0    0    0 -0.00000000000E+00 -0.00000000000E+00 -0.45593999997E+02  0.45594000000E+02  0.51100000000E-03 0. -1.
         23    2    1    2    0    0  0.00000000000E+00  0.35527136788E-14  0.00000000000E+00  0.91188000000E+02  0.91188000000E+02 0.  0.
    9900012    2    3    3    0    0  0.17461154372E+02 -0.27105757416E+02 -0.17781051721E+02  0.54367084783E+02  0.40000001381E+02 0.  0.
        -12    1    3    3    0    0 -0.17461154372E+02  0.27105757416E+02  0.17781051721E+02  0.36820915217E+02  0.00000000000E+00 0.  1.
         11    1    4    4    0    0  0.27581959468E+01 -0.29205710223E+01 -0.27843058120E+01  0.48877130740E+01  0.51100000000E-03 0. -1.
        -11    1    4    4    0    0  0.26013955300E+02 -0.22155372472E+02 -0.55806788078E+01  0.34622685857E+02  0.51100000000E-03 0.  1.
        -12    1    4    4    0    0 -0.11310996875E+02 -0.20298139217E+01 -0.94160671009E+01  0.14856685852E+02  0.00000000000E+00 0.  1.
</event>
<event>
 8    1  0.2401680E-006  0.9118800E+02  0.7816164E-02  0.1184000E+00
        -11   -1    0    0    0    0  0.00000000000E+00  0.00000000000E+00  0.45593999997E+02  0.45594000000E+02  0.51100000000E-03 0. -1.
         11   -1    0    0    0    0 -0.00000000000E+00 -0.00000000000E+00 -0.45593999997E+02  0.45594000000E+02  0.51100000000E-03 0.  1.
         23    2    1    2    0    0  0.88817841970E-15  0.44408920985E-15  0.00000000000E+00  0.91188000000E+02  0.91188000000E+02 0.  0.
    9900012    2    3    3    0    0  0.57363528042E+01  0.35285876985E+01 -0.36199984236E+02  0.54366871101E+02  0.39999514247E+02 0.  0.
         12    1    3    3    0    0 -0.57363528042E+01 -0.35285876985E+01  0.36199984236E+02  0.36821128899E+02  0.00000000000E+00 0. -1.
         11    1    4    4    0    0 -0.41767043615E+01  0.47989339680E+01  0.40191045313E+01  0.75251463804E+01  0.51100000000E-03 0. -1.
        -11    1    4    4    0    0  0.10477080945E+02 -0.22253231348E+01 -0.42753772004E+02  0.44075007760E+02  0.51100000000E-03 0.  1.
        -12    1    4    4    0    0 -0.56402377927E+00  0.95497686532E+00  0.25346832362E+01  0.27667169615E+01  0.00000000000E+00 0.  1.
</event>
<event>
 8    1  0.2401680E-006  0.9118800E+02  0.7816164E-02  0.1184000E+00
        -11   -1    0    0    0    0  0.00000000000E+00  0.00000000000E+00  0.45593999997E+02  0.45594000000E+02  0.51100000000E-03 0. -1.
         11   -1    0    0    0    0 -0.00000000000E+00 -0.00000000000E+00 -0.45593999997E+02  0.45594000000E+02  0.51100000000E-03 0.  1.
         23    2    1    2    0    0  0.00000000000E+00  0.00000000000E+00  0.00000000000E+00  0.91188000000E+02  0.91188000000E+02 0.  0.
    9900012    2    3    3    0    0  0.27302599584E+02  0.11972123458E+02  0.21610588673E+02  0.54367065371E+02  0.39999957127E+02 0.  0.
        -12    1    3    3    0    0 -0.27302599584E+02 -0.11972123458E+02 -0.21610588673E+02  0.36820934629E+02  0.00000000000E+00 0.  1.
         11    1    4    4    0    0  0.16510333401E+02  0.63103666594E+01  0.10635961398E+02  0.20628512101E+02  0.51100000000E-03 0. -1.
        -11    1    4    4    0    0  0.13657336532E+02  0.39708416933E+01 -0.67224045796E+01  0.15731533571E+02  0.51100000000E-03 0.  1.
        -12    1    4    4    0    0 -0.28650703489E+01  0.16909151056E+01  0.17697031854E+02  0.18007019699E+02  0.00000000000E+00 0.  1.
</event>
<event>
 8    1  0.2401680E-006  0.9118800E+02  0.7816164E-02  0.1184000E+00
        -11   -1    0    0    0    0  0.00000000000E+00  0.00000000000E+00  0.45593999997E+02  0.45594000000E+02  0.51100000000E-03 0. -1.
         11   -1    0    0    0    0 -0.00000000000E+00 -0.00000000000E+00 -0.45593999997E+02  0.45594000000E+02  0.51100000000E-03 0.  1.
         23    2    1    2    0    0 -0.53290705182E-14  0.00000000000E+00  0.35527136788E-14  0.91188000000E+02  0.91188000000E+02 0.  0.
    9900012    2    3    3    0    0  0.98006254379E+01 -0.17451053335E+02 -0.30906143631E+02  0.54367065254E+02  0.39999956858E+02 0.  0.
         12    1    3    3    0    0 -0.98006254379E+01  0.17451053335E+02  0.30906143631E+02  0.36820934746E+02  0.00000000000E+00 0. -1.
         11    1    4    4    0    0  0.19191591063E+02  0.16760407015E+01 -0.15891600965E+02  0.24973371047E+02  0.51100000000E-03 0. -1.
        -11    1    4    4    0    0 -0.10442285741E+02 -0.59369442794E+01 -0.64845980596E+01  0.13650591603E+02  0.51100000000E-03 0.  1.
        -12    1    4    4    0    0  0.10513201160E+01 -0.13190149757E+02 -0.85299446068E+01  0.15743102603E+02  0.00000000000E+00 0.  1.
</event>
<event>
 8    1  0.2401680E-006  0.9118800E+02  0.7816164E-02  0.1184000E+00
        -11   -1    0    0    0    0  0.00000000000E+00  0.00000000000E+00  0.45593999997E+02  0.45594000000E+02  0.51100000000E-03 0. -1.
         11   -1    0    0    0    0 -0.00000000000E+00 -0.00000000000E+00 -0.45593999997E+02  0.45594000000E+02  0.51100000000E-03 0.  1.
         23    2    1    2    0    0 -0.35527136788E-14 -0.44408920985E-15 -0.71054273576E-14  0.91188000000E+02  0.91188000000E+02 0.  0.
    9900012    2    3    3    0    0  0.12589431949E+02 -0.36896523913E+01  0.34404650729E+02  0.54366982587E+02  0.39999768403E+02 0.  0.
        -12    1    3    3    0    0 -0.12589431949E+02  0.36896523913E+01 -0.34404650729E+02  0.36821017413E+02  0.00000000000E+00 0.  1.
         11    1    4    4    0    0 -0.54269322590E+00  0.26771090824E+01  0.62868641977E+01  0.68546400837E+01  0.51100000000E-03 0. -1.
        -11    1    4    4    0    0 -0.10879496277E+02 -0.88858582150E+01  0.12086608232E+02  0.18531271254E+02  0.51100000000E-03 0.  1.
        -12    1    4    4    0    0  0.24011621452E+02  0.25190967413E+01  0.16031178299E+02  0.28981071250E+02  0.00000000000E+00 0.  1.
</event>
<event>
 8    1  0.2401680E-006  0.9118800E+02  0.7816164E-02  0.1184000E+00
        -11   -1    0    0    0    0  0.00000000000E+00  0.00000000000E+00  0.45593999997E+02  0.45594000000E+02  0.51100000000E-03 0. -1.
         11   -1    0    0    0    0 -0.00000000000E+00 -0.00000000000E+00 -0.45593999997E+02  0.45594000000E+02  0.51100000000E-03 0.  1.
         23    2    1    2    0    0  0.00000000000E+00  0.00000000000E+00 -0.33306690739E-15  0.91188000000E+02  0.91188000000E+02 0.  0.
    9900012    2    3    3    0    0  0.70088246997E+01  0.36135459551E+02 -0.93861231087E+00  0.54367135620E+02  0.40000117273E+02 0.  0.
         12    1    3    3    0    0 -0.70088246997E+01 -0.36135459551E+02  0.93861231087E+00  0.36820864380E+02  0.00000000000E+00 0. -1.
         11    1    4    4    0    0  0.25143566043E+00  0.79004576881E-01  0.48151148083E+01  0.48223223132E+01  0.51100000000E-03 0. -1.
        -11    1    4    4    0    0 -0.42933947077E+01  0.37608587700E+02 -0.25686425852E+01  0.37939913441E+02  0.51100000000E-03 0.  1.
        -12    1    4    4    0    0  0.11050783747E+02 -0.15521327260E+01 -0.31850845340E+01  0.11604899867E+02  0.00000000000E+00 0.  1.
</event>
<event>
 8    1  0.2401680E-006  0.9118800E+02  0.7816164E-02  0.1184000E+00
        -11   -1    0    0    0    0  0.00000000000E+00  0.00000000000E+00  0.45593999997E+02  0.45594000000E+02  0.51100000000E-03 0.  1.
         11   -1    0    0    0    0 -0.00000000000E+00 -0.00000000000E+00 -0.45593999997E+02  0.45594000000E+02  0.51100000000E-03 0. -1.
         23    2    1    2    0    0  0.00000000000E+00  0.00000000000E+00  0.00000000000E+00  0.91188000000E+02  0.91188000000E+02 0.  0.
    9900012    2    3    3    0    0 -0.20903329986E+02 -0.24656524811E+02  0.17631990113E+02  0.54367075302E+02  0.39999979766E+02 0.  0.
         12    1    3    3    0    0  0.20903329986E+02  0.24656524811E+02 -0.17631990113E+02  0.36820924698E+02  0.00000000000E+00 0. -1.
         11    1    4    4    0    0  0.24549762960E+01  0.18729767987E+01 -0.16576426950E+01  0.35046726335E+01  0.51100000000E-03 0. -1.
        -11    1    4    4    0    0 -0.80869204629E+01 -0.29011527111E+02  0.65523085403E+01  0.30822065721E+02  0.51100000000E-03 0.  1.
        -12    1    4    4    0    0 -0.15271385820E+02  0.24820255014E+01  0.12737324268E+02  0.20040336947E+02  0.00000000000E+00 0.  1.
</event>
<event>
 8    1  0.2401680E-006  0.9118800E+02  0.7816164E-02  0.1184000E+00
        -11   -1    0    0    0    0  0.00000000000E+00  0.00000000000E+00  0.45593999997E+02  0.45594000000E+02  0.51100000000E-03 0.  1.
         11   -1    0    0    0    0 -0.00000000000E+00 -0.00000000000E+00 -0.45593999997E+02  0.45594000000E+02  0.51100000000E-03 0. -1.
         23    2    1    2    0    0  0.00000000000E+00  0.00000000000E+00  0.35527136788E-14  0.91188000000E+02  0.91188000000E+02 0.  0.
    9900012    2    3    3    0    0 -0.10689473467E+02 -0.26216524350E+02  0.23541633934E+02  0.54367088546E+02  0.40000009959E+02 0.  0.
         12    1    3    3    0    0  0.10689473467E+02  0.26216524350E+02 -0.23541633934E+02  0.36820911454E+02  0.00000000000E+00 0. -1.
         11    1    4    4    0    0 -0.90343896202E+01 -0.10933573334E+02  0.59013135579E+01  0.15361924477E+02  0.51100000000E-03 0. -1.
        -11    1    4    4    0    0  0.34454338286E+01 -0.21307735843E+02  0.22410654308E+01  0.21700529845E+02  0.51100000000E-03 0.  1.
         12    1    4    4    0    0 -0.51005176756E+01  0.60247848274E+01  0.15399254946E+02  0.17304634225E+02  0.00000000000E+00 0. -1.
</event>
<event>
 8    1  0.2401680E-006  0.9118800E+02  0.7816164E-02  0.1184000E+00
        -11   -1    0    0    0    0  0.00000000000E+00  0.00000000000E+00  0.45593999997E+02  0.45594000000E+02  0.51100000000E-03 0. -1.
         11   -1    0    0    0    0 -0.00000000000E+00 -0.00000000000E+00 -0.45593999997E+02  0.45594000000E+02  0.51100000000E-03 0.  1.
         23    2    1    2    0    0  0.00000000000E+00  0.00000000000E+00 -0.88817841970E-15  0.91188000000E+02  0.91188000000E+02 0.  0.
    9900012    2    3    3    0    0  0.21761781931E+02  0.29242891969E+02  0.52012162853E+01  0.54367156251E+02  0.40000164305E+02 0.  0.
        -12    1    3    3    0    0 -0.21761781931E+02 -0.29242891969E+02 -0.52012162853E+01  0.36820843749E+02  0.00000000000E+00 0.  1.
         11    1    4    4    0    0  0.94055716070E+01 -0.11995088580E+01  0.86070991705E+01  0.12805692295E+02  0.51100000000E-03 0. -1.
        -11    1    4    4    0    0 -0.11523875477E+01  0.27559156001E+02 -0.15801954705E+01  0.27628465294E+02  0.51100000000E-03 0.  1.
        -12    1    4    4    0    0  0.13508597871E+02  0.28832448268E+01 -0.18256874147E+01  0.13932998662E+02  0.00000000000E+00 0.  1.
</event>
<event>
 8    1  0.2401680E-006  0.9118800E+02  0.7816164E-02  0.1184000E+00
        -11   -1    0    0    0    0  0.00000000000E+00  0.00000000000E+00  0.45593999997E+02  0.45594000000E+02  0.51100000000E-03 0. -1.
         11   -1    0    0    0    0 -0.00000000000E+00 -0.00000000000E+00 -0.45593999997E+02  0.45594000000E+02  0.51100000000E-03 0.  1.
         23    2    1    2    0    0  0.00000000000E+00  0.17763568394E-14  0.00000000000E+00  0.91188000000E+02  0.91188000000E+02 0.  0.
    9900012    2    3    3    0    0  0.35168961484E+02 -0.93826403241E+01  0.55578991521E+01  0.54367081567E+02  0.39999994048E+02 0.  0.
         12    1    3    3    0    0 -0.35168961484E+02  0.93826403241E+01 -0.55578991521E+01  0.36820918433E+02  0.00000000000E+00 0. -1.
         11    1    4    4    0    0  0.30019824602E+02 -0.41078275940E+01  0.94195415375E+01  0.31729983922E+02  0.51100000000E-03 0. -1.
        -11    1    4    4    0    0 -0.78981773756E+01 -0.32144572228E+01 -0.40196290395E+01  0.94271607056E+01  0.51100000000E-03 0.  1.
        -12    1    4    4    0    0  0.13047314258E+02 -0.20603555073E+01  0.15798665408E+00  0.13209936939E+02  0.00000000000E+00 0.  1.
</event>
<event>
 8    1  0.2401680E-006  0.9118800E+02  0.7816164E-02  0.1184000E+00
        -11   -1    0    0    0    0  0.00000000000E+00  0.00000000000E+00  0.45593999997E+02  0.45594000000E+02  0.51100000000E-03 0.  1.
         11   -1    0    0    0    0 -0.00000000000E+00 -0.00000000000E+00 -0.45593999997E+02  0.45594000000E+02  0.51100000000E-03 0. -1.
         23    2    1    2    0    0  0.12212453271E-14  0.00000000000E+00  0.00000000000E+00  0.91188000000E+02  0.91188000000E+02 0.  0.
    9900012    2    3    3    0    0  0.57871827669E+00  0.32931239684E+02  0.16461505182E+02  0.54367046525E+02  0.39999914163E+02 0.  0.
         12    1    3    3    0    0 -0.57871827669E+00 -0.32931239684E+02 -0.16461505182E+02  0.36820953475E+02  0.00000000000E+00 0. -1.
         11    1    4    4    0    0  0.16289262276E+01  0.16300361137E+02 -0.10465059128E+02  0.19438946387E+02  0.51100000000E-03 0. -1.
        -11    1    4    4    0    0  0.67134748089E+01  0.63423705783E+01  0.13069047824E+02  0.16003012837E+02  0.51100000000E-03 0.  1.
        -12    1    4    4    0    0 -0.77636827598E+01  0.10288507969E+02  0.13857516485E+02  0.18925087301E+02  0.00000000000E+00 0.  1.
</event>
<event>
 8    1  0.2401680E-006  0.9118800E+02  0.7816164E-02  0.1184000E+00
        -11   -1    0    0    0    0  0.00000000000E+00  0.00000000000E+00  0.45593999997E+02  0.45594000000E+02  0.51100000000E-03 0.  1.
         11   -1    0    0    0    0 -0.00000000000E+00 -0.00000000000E+00 -0.45593999997E+02  0.45594000000E+02  0.51100000000E-03 0. -1.
         23    2    1    2    0    0 -0.88817841970E-15 -0.35527136788E-14  0.71054273576E-14  0.91188000000E+02  0.91188000000E+02 0.  0.
    9900012    2    3    3    0    0 -0.63776356770E+01 -0.21829485525E+02  0.28958233504E+02  0.54367082537E+02  0.39999996260E+02 0.  0.
         12    1    3    3    0    0  0.63776356770E+01  0.21829485525E+02 -0.28958233504E+02  0.36820917463E+02  0.00000000000E+00 0. -1.
         11    1    4    4    0    0 -0.13211888315E+02 -0.22611027909E+02  0.25600898416E+02  0.36622651132E+02  0.51100000000E-03 0. -1.
        -11    1    4    4    0    0 -0.24592017496E+01 -0.56176978811E+01  0.92610188736E+00  0.62019245155E+01  0.51100000000E-03 0.  1.
        -12    1    4    4    0    0  0.92934543881E+01  0.63992402643E+01  0.24312332004E+01  0.11542506890E+02  0.00000000000E+00 0.  1.
</event>
<event>
 8    1  0.2401680E-006  0.9118800E+02  0.7816164E-02  0.1184000E+00
        -11   -1    0    0    0    0  0.00000000000E+00  0.00000000000E+00  0.45593999997E+02  0.45594000000E+02  0.51100000000E-03 0. -1.
         11   -1    0    0    0    0 -0.00000000000E+00 -0.00000000000E+00 -0.45593999997E+02  0.45594000000E+02  0.51100000000E-03 0.  1.
         23    2    1    2    0    0  0.88817841970E-15  0.00000000000E+00  0.00000000000E+00  0.91188000000E+02  0.91188000000E+02 0.  0.
    9900012    2    3    3    0    0  0.55076245068E+01  0.35126406614E+02  0.95698415789E+01  0.54367078811E+02  0.39999987766E+02 0.  0.
        -12    1    3    3    0    0 -0.55076245068E+01 -0.35126406614E+02 -0.95698415789E+01  0.36820921189E+02  0.00000000000E+00 0.  1.
         11    1    4    4    0    0  0.65386514181E+00 -0.51040739423E+01  0.68448839750E+01  0.85633841047E+01  0.51100000000E-03 0. -1.
        -11    1    4    4    0    0 -0.15802987149E+01  0.14528268631E+02 -0.86364842431E+01  0.16975181701E+02  0.51100000000E-03 0.  1.
         12    1    4    4    0    0  0.64340580800E+01  0.25702211926E+02  0.11361441847E+02  0.28828513005E+02  0.00000000000E+00 0. -1.
</event>
<event>
 8    1  0.2401680E-006  0.9118800E+02  0.7816164E-02  0.1184000E+00
        -11   -1    0    0    0    0  0.00000000000E+00  0.00000000000E+00  0.45593999997E+02  0.45594000000E+02  0.51100000000E-03 0.  1.
         11   -1    0    0    0    0 -0.00000000000E+00 -0.00000000000E+00 -0.45593999997E+02  0.45594000000E+02  0.51100000000E-03 0. -1.
         23    2    1    2    0    0  0.26645352591E-14  0.00000000000E+00  0.00000000000E+00  0.91188000000E+02  0.91188000000E+02 0.  0.
    9900012    2    3    3    0    0  0.75870300328E+01 -0.45554680604E+01 -0.35741636412E+02  0.54367083561E+02  0.39999998595E+02 0.  0.
        -12    1    3    3    0    0 -0.75870300328E+01  0.45554680604E+01  0.35741636412E+02  0.36820916439E+02  0.00000000000E+00 0.  1.
         11    1    4    4    0    0  0.16780935197E+02 -0.21888112188E+01 -0.66366847945E+01  0.18177905984E+02  0.51100000000E-03 0. -1.
        -11    1    4    4    0    0 -0.98019260288E+01  0.70475312332E+01 -0.16498405588E+02  0.20443650300E+02  0.51100000000E-03 0.  1.
         12    1    4    4    0    0  0.60802086482E+00 -0.94141880748E+01 -0.12606546029E+02  0.15745527278E+02  0.00000000000E+00 0. -1.
</event>
<event>
 8    1  0.2401680E-006  0.9118800E+02  0.7816164E-02  0.1184000E+00
        -11   -1    0    0    0    0  0.00000000000E+00  0.00000000000E+00  0.45593999997E+02  0.45594000000E+02  0.51100000000E-03 0. -1.
         11   -1    0    0    0    0 -0.00000000000E+00 -0.00000000000E+00 -0.45593999997E+02  0.45594000000E+02  0.51100000000E-03 0.  1.
         23    2    1    2    0    0  0.17763568394E-14  0.00000000000E+00 -0.35527136788E-14  0.91188000000E+02  0.91188000000E+02 0.  0.
    9900012    2    3    3    0    0 -0.12515111207E+02 -0.13573092147E+02  0.31857839078E+02  0.54367099010E+02  0.40000033814E+02 0.  0.
        -12    1    3    3    0    0  0.12515111207E+02  0.13573092147E+02 -0.31857839078E+02  0.36820900990E+02  0.00000000000E+00 0.  1.
         11    1    4    4    0    0 -0.15532000366E+02 -0.62274232293E+01  0.28303636908E+02  0.32880384698E+02  0.51100000000E-03 0. -1.
        -11    1    4    4    0    0  0.12931331118E+01 -0.23074346659E+01 -0.81820300242E+01  0.85989571205E+01  0.51100000000E-03 0.  1.
        -12    1    4    4    0    0  0.17237560478E+01 -0.50382342521E+01  0.11736232195E+02  0.12887757191E+02  0.00000000000E+00 0.  1.
</event>
<event>
 8    1  0.2401680E-006  0.9118800E+02  0.7816164E-02  0.1184000E+00
        -11   -1    0    0    0    0  0.00000000000E+00  0.00000000000E+00  0.45593999997E+02  0.45594000000E+02  0.51100000000E-03 0. -1.
         11   -1    0    0    0    0 -0.00000000000E+00 -0.00000000000E+00 -0.45593999997E+02  0.45594000000E+02  0.51100000000E-03 0.  1.
         23    2    1    2    0    0  0.71054273576E-14  0.13322676296E-14 -0.10824674490E-14  0.91188000000E+02  0.91188000000E+02 0.  0.
    9900012    2    3    3    0    0 -0.36782409218E+02  0.16750758439E+01 -0.16194322453E+00  0.54367112822E+02  0.40000065300E+02 0.  0.
         12    1    3    3    0    0  0.36782409218E+02 -0.16750758439E+01  0.16194322453E+00  0.36820887178E+02  0.00000000000E+00 0. -1.
         11    1    4    4    0    0 -0.21261432866E+02 -0.11873136646E+01 -0.58032476565E+01  0.22071155948E+02  0.51100000000E-03 0. -1.
        -11    1    4    4    0    0 -0.67854454714E+01 -0.80428461787E+01 -0.76513698252E+01  0.13010499812E+02  0.51100000000E-03 0.  1.
         12    1    4    4    0    0 -0.87355308805E+01  0.10905235687E+02  0.13292674257E+02  0.19285457061E+02  0.00000000000E+00 0. -1.
</event>
<event>
 8    1  0.2401680E-006  0.9118800E+02  0.7816164E-02  0.1184000E+00
        -11   -1    0    0    0    0  0.00000000000E+00  0.00000000000E+00  0.45593999997E+02  0.45594000000E+02  0.51100000000E-03 0.  1.
         11   -1    0    0    0    0 -0.00000000000E+00 -0.00000000000E+00 -0.45593999997E+02  0.45594000000E+02  0.51100000000E-03 0. -1.
         23    2    1    2    0    0 -0.35527136788E-14 -0.35527136788E-14  0.00000000000E+00  0.91188000000E+02  0.91188000000E+02 0.  0.
    9900012    2    3    3    0    0 -0.26102834566E+02 -0.25432341347E+02 -0.52552690449E+01  0.54367084592E+02  0.40000000944E+02 0.  0.
        -12    1    3    3    0    0  0.26102834566E+02  0.25432341347E+02  0.52552690449E+01  0.36820915408E+02  0.00000000000E+00 0.  1.
         11    1    4    4    0    0 -0.10299688192E+02  0.25243824931E+01  0.25524201816E+01  0.10907379743E+02  0.51100000000E-03 0. -1.
        -11    1    4    4    0    0 -0.23558273173E+01 -0.28895411106E+02 -0.29919020340E+01  0.29145260050E+02  0.51100000000E-03 0.  1.
         12    1    4    4    0    0 -0.13447319057E+02  0.93868726622E+00 -0.48157871925E+01  0.14314444798E+02  0.00000000000E+00 0. -1.
</event>
<event>
 8    1  0.2401680E-006  0.9118800E+02  0.7816164E-02  0.1184000E+00
        -11   -1    0    0    0    0  0.00000000000E+00  0.00000000000E+00  0.45593999997E+02  0.45594000000E+02  0.51100000000E-03 0.  1.
         11   -1    0    0    0    0 -0.00000000000E+00 -0.00000000000E+00 -0.45593999997E+02  0.45594000000E+02  0.51100000000E-03 0. -1.
         23    2    1    2    0    0  0.35527136788E-14  0.00000000000E+00 -0.88817841970E-15  0.91188000000E+02  0.91188000000E+02 0.  0.
    9900012    2    3    3    0    0 -0.15674931267E+02 -0.32847497942E+02  0.55784599281E+01  0.54367071082E+02  0.39999970145E+02 0.  0.
        -12    1    3    3    0    0  0.15674931267E+02  0.32847497942E+02 -0.55784599281E+01  0.36820928918E+02  0.00000000000E+00 0.  1.
         11    1    4    4    0    0  0.12382483071E+01  0.79911031461E+01 -0.17671312033E+01  0.82773027800E+01  0.51100000000E-03 0. -1.
        -11    1    4    4    0    0  0.55459654336E+00 -0.39864574496E+01  0.31131624652E+01  0.50883397212E+01  0.51100000000E-03 0.  1.
         12    1    4    4    0    0 -0.17467776117E+02 -0.36852143638E+02  0.42324286663E+01  0.41001428580E+02  0.00000000000E+00 0. -1.
</event>
<event>
 8    1  0.2401680E-006  0.9118800E+02  0.7816164E-02  0.1184000E+00
        -11   -1    0    0    0    0  0.00000000000E+00  0.00000000000E+00  0.45593999997E+02  0.45594000000E+02  0.51100000000E-03 0.  1.
         11   -1    0    0    0    0 -0.00000000000E+00 -0.00000000000E+00 -0.45593999997E+02  0.45594000000E+02  0.51100000000E-03 0. -1.
         23    2    1    2    0    0 -0.71054273576E-14 -0.35527136788E-14 -0.17763568394E-14  0.91188000000E+02  0.91188000000E+02 0.  0.
    9900012    2    3    3    0    0  0.29954591725E+02  0.19884301481E+02  0.79446553433E+01  0.54367074437E+02  0.39999977794E+02 0.  0.
         12    1    3    3    0    0 -0.29954591725E+02 -0.19884301481E+02 -0.79446553433E+01  0.36820925563E+02  0.00000000000E+00 0. -1.
         11    1    4    4    0    0 -0.46276230837E+00  0.42489572900E+01 -0.15816755209E+01  0.45573550137E+01  0.51100000000E-03 0. -1.
        -11    1    4    4    0    0  0.11426798674E+02  0.24932723851E+02  0.25524588057E+01  0.27545008491E+02  0.51100000000E-03 0.  1.
         12    1    4    4    0    0  0.18990555360E+02 -0.92973796599E+01  0.69738720585E+01  0.22264710932E+02  0.00000000000E+00 0. -1.
</event>
<event>
 8    1  0.2401680E-006  0.9118800E+02  0.7816164E-02  0.1184000E+00
        -11   -1    0    0    0    0  0.00000000000E+00  0.00000000000E+00  0.45593999997E+02  0.45594000000E+02  0.51100000000E-03 0. -1.
         11   -1    0    0    0    0 -0.00000000000E+00 -0.00000000000E+00 -0.45593999997E+02  0.45594000000E+02  0.51100000000E-03 0.  1.
         23    2    1    2    0    0  0.35527136788E-14  0.00000000000E+00  0.35527136788E-14  0.91188000000E+02  0.91188000000E+02 0.  0.
    9900012    2    3    3    0    0  0.28782759264E+02 -0.39787188747E+01  0.22616220890E+02  0.54367205847E+02  0.40000277368E+02 0.  0.
        -12    1    3    3    0    0 -0.28782759264E+02  0.39787188747E+01 -0.22616220890E+02  0.36820794153E+02  0.00000000000E+00 0.  1.
         11    1    4    4    0    0  0.15653479914E+02 -0.54870667859E+01  0.18085336153E+01  0.16685626432E+02  0.51100000000E-03 0. -1.
        -11    1    4    4    0    0  0.17590094454E+02  0.16840242790E+01  0.13541032683E+01  0.17722329322E+02  0.51100000000E-03 0.  1.
         12    1    4    4    0    0 -0.44608151043E+01 -0.17567636770E+00  0.19453584006E+02  0.19959250093E+02  0.00000000000E+00 0. -1.
</event>
<event>
 8    1  0.2401680E-006  0.9118800E+02  0.7816164E-02  0.1184000E+00
        -11   -1    0    0    0    0  0.00000000000E+00  0.00000000000E+00  0.45593999997E+02  0.45594000000E+02  0.51100000000E-03 0. -1.
         11   -1    0    0    0    0 -0.00000000000E+00 -0.00000000000E+00 -0.45593999997E+02  0.45594000000E+02  0.51100000000E-03 0.  1.
         23    2    1    2    0    0  0.00000000000E+00  0.00000000000E+00  0.00000000000E+00  0.91188000000E+02  0.91188000000E+02 0.  0.
    9900012    2    3    3    0    0 -0.30696063626E+02  0.19973736082E+02 -0.38186350696E+01  0.54367076206E+02  0.39999981827E+02 0.  0.
         12    1    3    3    0    0  0.30696063626E+02 -0.19973736082E+02  0.38186350696E+01  0.36820923794E+02  0.00000000000E+00 0. -1.
         11    1    4    4    0    0 -0.17152739160E+01  0.59195445729E+01  0.29656858469E+01  0.68394784422E+01  0.51100000000E-03 0.  1.
        -11    1    4    4    0    0 -0.20335496082E+01  0.19263875233E+02 -0.53184949224E+00  0.19378211403E+02  0.51100000000E-03 0. -1.
         12    1    4    4    0    0 -0.26947240102E+02 -0.52096837241E+01 -0.62524714242E+01  0.28149386361E+02  0.00000000000E+00 0. -1.
</event>
<event>
 8    1  0.2401680E-006  0.9118800E+02  0.7816164E-02  0.1184000E+00
        -11   -1    0    0    0    0  0.00000000000E+00  0.00000000000E+00  0.45593999997E+02  0.45594000000E+02  0.51100000000E-03 0.  1.
         11   -1    0    0    0    0 -0.00000000000E+00 -0.00000000000E+00 -0.45593999997E+02  0.45594000000E+02  0.51100000000E-03 0. -1.
         23    2    1    2    0    0  0.00000000000E+00  0.35527136788E-14 -0.71054273576E-14  0.91188000000E+02  0.91188000000E+02 0.  0.
    9900012    2    3    3    0    0  0.12300714593E+02  0.26055089524E+02 -0.22926052184E+02  0.54367093732E+02  0.40000021782E+02 0.  0.
        -12    1    3    3    0    0 -0.12300714593E+02 -0.26055089524E+02  0.22926052184E+02  0.36820906268E+02  0.00000000000E+00 0.  1.
         11    1    4    4    0    0 -0.89338524972E+01  0.12401527990E+02  0.84118013951E+00  0.15307488403E+02  0.51100000000E-03 0.  1.
        -11    1    4    4    0    0 -0.22515938765E+01  0.44082428328E+01 -0.76516939399E+01  0.91132156931E+01  0.51100000000E-03 0. -1.
        -12    1    4    4    0    0  0.23486160966E+02  0.92453187017E+01 -0.16115538384E+02  0.29946389636E+02  0.00000000000E+00 0.  1.
</event>
<event>
 8    1  0.2401680E-006  0.9118800E+02  0.7816164E-02  0.1184000E+00
        -11   -1    0    0    0    0  0.00000000000E+00  0.00000000000E+00  0.45593999997E+02  0.45594000000E+02  0.51100000000E-03 0.  1.
         11   -1    0    0    0    0 -0.00000000000E+00 -0.00000000000E+00 -0.45593999997E+02  0.45594000000E+02  0.51100000000E-03 0. -1.
         23    2    1    2    0    0  0.00000000000E+00 -0.22204460493E-15 -0.35527136788E-14  0.91188000000E+02  0.91188000000E+02 0.  0.
    9900012    2    3    3    0    0  0.35515761554E+02  0.14657100224E+01 -0.96053632862E+01  0.54367073498E+02  0.39999975653E+02 0.  0.
        -12    1    3    3    0    0 -0.35515761554E+02 -0.14657100224E+01  0.96053632862E+01  0.36820926502E+02  0.00000000000E+00 0.  1.
         11    1    4    4    0    0  0.32109927314E+01 -0.99246093487E+00  0.84520276854E+01  0.90957256601E+01  0.51100000000E-03 0. -1.
        -11    1    4    4    0    0 -0.35784835670E+01  0.35968986696E+01 -0.48464406808E+01  0.70164957217E+01  0.51100000000E-03 0.  1.
         12    1    4    4    0    0  0.35883252389E+02 -0.11387277123E+01 -0.13210950291E+02  0.38254852116E+02  0.00000000000E+00 0. -1.
</event>
<event>
 8    1  0.2401680E-006  0.9118800E+02  0.7816164E-02  0.1184000E+00
        -11   -1    0    0    0    0  0.00000000000E+00  0.00000000000E+00  0.45593999997E+02  0.45594000000E+02  0.51100000000E-03 0. -1.
         11   -1    0    0    0    0 -0.00000000000E+00 -0.00000000000E+00 -0.45593999997E+02  0.45594000000E+02  0.51100000000E-03 0.  1.
         23    2    1    2    0    0  0.00000000000E+00  0.35527136788E-14 -0.17763568394E-14  0.91188000000E+02  0.91188000000E+02 0.  0.
    9900012    2    3    3    0    0  0.16711645055E+02  0.30331581714E+02 -0.12509848055E+02  0.54367078935E+02  0.39999988048E+02 0.  0.
         12    1    3    3    0    0 -0.16711645055E+02 -0.30331581714E+02  0.12509848055E+02  0.36820921065E+02  0.00000000000E+00 0. -1.
         11    1    4    4    0    0  0.91500658689E+01 -0.41238969389E+01 -0.32815644731E+01  0.10559303813E+02  0.51100000000E-03 0. -1.
        -11    1    4    4    0    0  0.14481040217E+02  0.32532381848E+02 -0.70293295875E+01  0.36296940218E+02  0.51100000000E-03 0.  1.
         12    1    4    4    0    0 -0.69194610313E+01  0.19230968056E+01 -0.21989539941E+01  0.75108349040E+01  0.00000000000E+00 0. -1.
</event>
<event>
 8    1  0.2401680E-006  0.9118800E+02  0.7816164E-02  0.1184000E+00
        -11   -1    0    0    0    0  0.00000000000E+00  0.00000000000E+00  0.45593999997E+02  0.45594000000E+02  0.51100000000E-03 0. -1.
         11   -1    0    0    0    0 -0.00000000000E+00 -0.00000000000E+00 -0.45593999997E+02  0.45594000000E+02  0.51100000000E-03 0.  1.
         23    2    1    2    0    0  0.00000000000E+00 -0.35527136788E-14  0.00000000000E+00  0.91188000000E+02  0.91188000000E+02 0.  0.
    9900012    2    3    3    0    0  0.17423244257E+02  0.30980044038E+02 -0.96149477866E+01  0.54367084885E+02  0.40000001611E+02 0.  0.
         12    1    3    3    0    0 -0.17423244257E+02 -0.30980044038E+02  0.96149477866E+01  0.36820915115E+02  0.00000000000E+00 0. -1.
         11    1    4    4    0    0 -0.17386265913E+01  0.14213907786E+02  0.53926329617E+01  0.15301584477E+02  0.51100000000E-03 0. -1.
        -11    1    4    4    0    0 -0.10822528937E+01  0.12304914163E+02 -0.13473616500E+02  0.18278964023E+02  0.51100000000E-03 0.  1.
         12    1    4    4    0    0  0.20244123741E+02  0.44612220880E+01 -0.15339642486E+01  0.20786536385E+02  0.00000000000E+00 0. -1.
</event>
<event>
 8    1  0.2401680E-006  0.9118800E+02  0.7816164E-02  0.1184000E+00
        -11   -1    0    0    0    0  0.00000000000E+00  0.00000000000E+00  0.45593999997E+02  0.45594000000E+02  0.51100000000E-03 0.  1.
         11   -1    0    0    0    0 -0.00000000000E+00 -0.00000000000E+00 -0.45593999997E+02  0.45594000000E+02  0.51100000000E-03 0. -1.
         23    2    1    2    0    0 -0.17763568394E-14  0.00000000000E+00  0.44408920985E-15  0.91188000000E+02  0.91188000000E+02 0.  0.
    9900012    2    3    3    0    0  0.54444174150E+01 -0.36367739415E+02 -0.18776754861E+01  0.54367084526E+02  0.40000000794E+02 0.  0.
         12    1    3    3    0    0 -0.54444174150E+01  0.36367739415E+02  0.18776754861E+01  0.36820915474E+02  0.00000000000E+00 0. -1.
         11    1    4    4    0    0  0.62960357693E+01 -0.97170011802E+01 -0.65347379155E+01  0.13295223888E+02  0.51100000000E-03 0. -1.
        -11    1    4    4    0    0 -0.11930945317E+02 -0.42407554950E+00  0.40090373246E+01  0.12593636359E+02  0.51100000000E-03 0.  1.
        -12    1    4    4    0    0  0.11079326962E+02 -0.26226662685E+02  0.64802510470E+00  0.28478224279E+02  0.00000000000E+00 0.  1.
</event>
<event>
 8    1  0.2401680E-006  0.9118800E+02  0.7816164E-02  0.1184000E+00
        -11   -1    0    0    0    0  0.00000000000E+00  0.00000000000E+00  0.45593999997E+02  0.45594000000E+02  0.51100000000E-03 0.  1.
         11   -1    0    0    0    0 -0.00000000000E+00 -0.00000000000E+00 -0.45593999997E+02  0.45594000000E+02  0.51100000000E-03 0. -1.
         23    2    1    2    0    0  0.71054273576E-14  0.17763568394E-14 -0.17763568394E-14  0.91188000000E+02  0.91188000000E+02 0.  0.
    9900012    2    3    3    0    0 -0.32220595815E+02 -0.13219418337E+02  0.11952415123E+02  0.54367081446E+02  0.39999993773E+02 0.  0.
         12    1    3    3    0    0  0.32220595815E+02  0.13219418337E+02 -0.11952415123E+02  0.36820918554E+02  0.00000000000E+00 0. -1.
         11    1    4    4    0    0  0.25844158030E+01  0.48221287131E+01 -0.84061212422E+00  0.55352289359E+01  0.51100000000E-03 0. -1.
        -11    1    4    4    0    0 -0.15803978892E+02  0.49102821605E+01  0.38094664068E+00  0.16553602034E+02  0.51100000000E-03 0.  1.
        -12    1    4    4    0    0 -0.19001032726E+02 -0.22951829211E+02  0.12412080606E+02  0.32278250476E+02  0.00000000000E+00 0.  1.
</event>
<event>
 8    1  0.2401680E-006  0.9118800E+02  0.7816164E-02  0.1184000E+00
        -11   -1    0    0    0    0  0.00000000000E+00  0.00000000000E+00  0.45593999997E+02  0.45594000000E+02  0.51100000000E-03 0. -1.
         11   -1    0    0    0    0 -0.00000000000E+00 -0.00000000000E+00 -0.45593999997E+02  0.45594000000E+02  0.51100000000E-03 0.  1.
         23    2    1    2    0    0  0.17763568394E-14  0.00000000000E+00  0.00000000000E+00  0.91188000000E+02  0.91188000000E+02 0.  0.
    9900012    2    3    3    0    0 -0.13868803226E+02 -0.23692438871E+02  0.24537801080E+02  0.54367095008E+02  0.40000024691E+02 0.  0.
        -12    1    3    3    0    0  0.13868803226E+02  0.23692438871E+02 -0.24537801080E+02  0.36820904992E+02  0.00000000000E+00 0.  1.
         11    1    4    4    0    0  0.41498351799E+01 -0.97780332629E+01  0.25193841700E+01  0.10916884325E+02  0.51100000000E-03 0. -1.
        -11    1    4    4    0    0 -0.21085648020E+02 -0.20889652560E+02  0.19071982870E+02  0.35280627366E+02  0.51100000000E-03 0.  1.
        -12    1    4    4    0    0  0.30670096144E+01  0.69752469524E+01  0.29464340404E+01  0.81695833172E+01  0.00000000000E+00 0.  1.
</event>
<event>
 8    1  0.2401680E-006  0.9118800E+02  0.7816164E-02  0.1184000E+00
        -11   -1    0    0    0    0  0.00000000000E+00  0.00000000000E+00  0.45593999997E+02  0.45594000000E+02  0.51100000000E-03 0.  1.
         11   -1    0    0    0    0 -0.00000000000E+00 -0.00000000000E+00 -0.45593999997E+02  0.45594000000E+02  0.51100000000E-03 0. -1.
         23    2    1    2    0    0  0.00000000000E+00  0.00000000000E+00  0.00000000000E+00  0.91188000000E+02  0.91188000000E+02 0.  0.
    9900012    2    3    3    0    0  0.23698219332E+02 -0.18287122341E+02 -0.21441914871E+02  0.54367079909E+02  0.39999990268E+02 0.  0.
        -12    1    3    3    0    0 -0.23698219332E+02  0.18287122341E+02  0.21441914871E+02  0.36820920091E+02  0.00000000000E+00 0.  1.
         11    1    4    4    0    0  0.17444303241E+02 -0.14488117319E+02 -0.82755480190E+00  0.22691278197E+02  0.51100000000E-03 0. -1.
        -11    1    4    4    0    0 -0.19610092798E+01 -0.55775420349E+01  0.29858957070E+01  0.66234512137E+01  0.51100000000E-03 0.  1.
         12    1    4    4    0    0  0.82149253703E+01  0.17785370128E+01 -0.23600255776E+02  0.25052350498E+02  0.00000000000E+00 0. -1.
</event>
<event>
 8    1  0.2401680E-006  0.9118800E+02  0.7816164E-02  0.1184000E+00
        -11   -1    0    0    0    0  0.00000000000E+00  0.00000000000E+00  0.45593999997E+02  0.45594000000E+02  0.51100000000E-03 0. -1.
         11   -1    0    0    0    0 -0.00000000000E+00 -0.00000000000E+00 -0.45593999997E+02  0.45594000000E+02  0.51100000000E-03 0.  1.
         23    2    1    2    0    0  0.71054273576E-14 -0.17763568394E-14  0.00000000000E+00  0.91188000000E+02  0.91188000000E+02 0.  0.
    9900012    2    3    3    0    0  0.33849102514E+02 -0.12415572756E+02  0.74747468783E+01  0.54367081642E+02  0.39999994218E+02 0.  0.
        -12    1    3    3    0    0 -0.33849102514E+02  0.12415572756E+02 -0.74747468783E+01  0.36820918358E+02  0.00000000000E+00 0.  1.
         11    1    4    4    0    0  0.92129419872E+01 -0.55970925150E+01 -0.19884295931E+01  0.10961733311E+02  0.51100000000E-03 0. -1.
        -11    1    4    4    0    0  0.19256857664E+02 -0.18630738030E+02 -0.88007989638E+00  0.26808683435E+02  0.51100000000E-03 0.  1.
         12    1    4    4    0    0  0.53793028626E+01  0.11812257789E+02  0.10343256368E+02  0.16596664895E+02  0.00000000000E+00 0. -1.
</event>
<event>
 8    1  0.2401680E-006  0.9118800E+02  0.7816164E-02  0.1184000E+00
        -11   -1    0    0    0    0  0.00000000000E+00  0.00000000000E+00  0.45593999997E+02  0.45594000000E+02  0.51100000000E-03 0. -1.
         11   -1    0    0    0    0 -0.00000000000E+00 -0.00000000000E+00 -0.45593999997E+02  0.45594000000E+02  0.51100000000E-03 0.  1.
         23    2    1    2    0    0  0.00000000000E+00  0.35527136788E-14  0.00000000000E+00  0.91188000000E+02  0.91188000000E+02 0.  0.
    9900012    2    3    3    0    0 -0.18416210591E+01  0.30922253398E+02 -0.19904901328E+02  0.54367049168E+02  0.39999920188E+02 0.  0.
         12    1    3    3    0    0  0.18416210591E+01 -0.30922253398E+02  0.19904901328E+02  0.36820950832E+02  0.00000000000E+00 0. -1.
         11    1    4    4    0    0  0.41854675948E+00 -0.10332776840E+01  0.10425698197E+01  0.15263670110E+01  0.51100000000E-03 0. -1.
        -11    1    4    4    0    0 -0.59042066201E+01  0.18796264106E+02  0.76624651296E+01  0.21139360735E+02  0.51100000000E-03 0.  1.
        -12    1    4    4    0    0  0.36440388016E+01  0.13159266975E+02 -0.28609936277E+02  0.31701321422E+02  0.00000000000E+00 0.  1.
</event>
<event>
 8    1  0.2401680E-006  0.9118800E+02  0.7816164E-02  0.1184000E+00
        -11   -1    0    0    0    0  0.00000000000E+00  0.00000000000E+00  0.45593999997E+02  0.45594000000E+02  0.51100000000E-03 0.  1.
         11   -1    0    0    0    0 -0.00000000000E+00 -0.00000000000E+00 -0.45593999997E+02  0.45594000000E+02  0.51100000000E-03 0. -1.
         23    2    1    2    0    0 -0.71054273576E-14 -0.17763568394E-14  0.88817841970E-15  0.91188000000E+02  0.91188000000E+02 0.  0.
    9900012    2    3    3    0    0  0.35726934742E+02  0.80255983302E+01 -0.38672978564E+01  0.54367080846E+02  0.39999992404E+02 0.  0.
        -12    1    3    3    0    0 -0.35726934742E+02 -0.80255983302E+01  0.38672978564E+01  0.36820919154E+02  0.00000000000E+00 0.  1.
         11    1    4    4    0    0  0.58531875239E+01  0.97660233719E+01 -0.96659216151E+01  0.14935362654E+02  0.51100000000E-03 0. -1.
        -11    1    4    4    0    0  0.20066212584E+02 -0.11304244074E+02 -0.28870535761E+01  0.23211503617E+02  0.51100000000E-03 0.  1.
        -12    1    4    4    0    0  0.98075346342E+01  0.95638190320E+01  0.86856773347E+01  0.16220214574E+02  0.00000000000E+00 0.  1.
</event>
<event>
 8    1  0.2401680E-006  0.9118800E+02  0.7816164E-02  0.1184000E+00
        -11   -1    0    0    0    0  0.00000000000E+00  0.00000000000E+00  0.45593999997E+02  0.45594000000E+02  0.51100000000E-03 0.  1.
         11   -1    0    0    0    0 -0.00000000000E+00 -0.00000000000E+00 -0.45593999997E+02  0.45594000000E+02  0.51100000000E-03 0. -1.
         23    2    1    2    0    0  0.88817841970E-15  0.00000000000E+00  0.88817841970E-15  0.91188000000E+02  0.91188000000E+02 0.  0.
    9900012    2    3    3    0    0 -0.26224280630E+01  0.36036725428E+02  0.70891593283E+01  0.54367097125E+02  0.40000029517E+02 0.  0.
        -12    1    3    3    0    0  0.26224280630E+01 -0.36036725428E+02 -0.70891593283E+01  0.36820902875E+02  0.00000000000E+00 0.  1.
         11    1    4    4    0    0 -0.59824159349E+01  0.94471625241E+01  0.13502898181E+01  0.11263279408E+02  0.51100000000E-03 0. -1.
        -11    1    4    4    0    0 -0.74783324615E+01  0.65363110347E+00  0.12141164781E+02  0.14274472759E+02  0.51100000000E-03 0.  1.
         12    1    4    4    0    0  0.10838320333E+02  0.25935931800E+02 -0.64022952713E+01  0.28829344959E+02  0.00000000000E+00 0. -1.
</event>
<event>
 8    1  0.2401680E-006  0.9118800E+02  0.7816164E-02  0.1184000E+00
        -11   -1    0    0    0    0  0.00000000000E+00  0.00000000000E+00  0.45593999997E+02  0.45594000000E+02  0.51100000000E-03 0.  1.
         11   -1    0    0    0    0 -0.00000000000E+00 -0.00000000000E+00 -0.45593999997E+02  0.45594000000E+02  0.51100000000E-03 0. -1.
         23    2    1    2    0    0 -0.19984014443E-14  0.35527136788E-14  0.00000000000E+00  0.91188000000E+02  0.91188000000E+02 0.  0.
    9900012    2    3    3    0    0 -0.12463589875E+01  0.29045156249E+02  0.22596622523E+02  0.54367056752E+02  0.39999937477E+02 0.  0.
         12    1    3    3    0    0  0.12463589875E+01 -0.29045156249E+02 -0.22596622523E+02  0.36820943248E+02  0.00000000000E+00 0. -1.
         11    1    4    4    0    0  0.14592917068E+02  0.22244190342E+02  0.88778350896E+01  0.28045912156E+02  0.51100000000E-03 0. -1.
        -11    1    4    4    0    0 -0.12233585848E+02  0.10873297783E+02  0.73388853317E+01  0.17937348342E+02  0.51100000000E-03 0.  1.
         12    1    4    4    0    0 -0.36056902079E+01 -0.40723318764E+01  0.63799021016E+01  0.83837962531E+01  0.00000000000E+00 0. -1.
</event>
<event>
 8    1  0.2401680E-006  0.9118800E+02  0.7816164E-02  0.1184000E+00
        -11   -1    0    0    0    0  0.00000000000E+00  0.00000000000E+00  0.45593999997E+02  0.45594000000E+02  0.51100000000E-03 0. -1.
         11   -1    0    0    0    0 -0.00000000000E+00 -0.00000000000E+00 -0.45593999997E+02  0.45594000000E+02  0.51100000000E-03 0.  1.
         23    2    1    2    0    0  0.00000000000E+00  0.00000000000E+00  0.00000000000E+00  0.91188000000E+02  0.91188000000E+02 0.  0.
    9900012    2    3    3    0    0 -0.25160246617E+02 -0.20116874117E+02 -0.17834033826E+02  0.54367090226E+02  0.40000013789E+02 0.  0.
         12    1    3    3    0    0  0.25160246617E+02  0.20116874117E+02  0.17834033826E+02  0.36820909774E+02  0.00000000000E+00 0. -1.
         11    1    4    4    0    0 -0.11004427791E+01  0.32471400579E+01  0.53485716307E+01  0.63531182592E+01  0.51100000000E-03 0.  1.
        -11    1    4    4    0    0  0.33967718018E+00 -0.93254384620E+01 -0.16695324011E+02  0.19126239232E+02  0.51100000000E-03 0. -1.
        -12    1    4    4    0    0 -0.24399481018E+02 -0.14038575713E+02 -0.64872814465E+01  0.28887732735E+02  0.00000000000E+00 0.  1.
</event>
<event>
 8    1  0.2401680E-006  0.9118800E+02  0.7816164E-02  0.1184000E+00
        -11   -1    0    0    0    0  0.00000000000E+00  0.00000000000E+00  0.45593999997E+02  0.45594000000E+02  0.51100000000E-03 0. -1.
         11   -1    0    0    0    0 -0.00000000000E+00 -0.00000000000E+00 -0.45593999997E+02  0.45594000000E+02  0.51100000000E-03 0.  1.
         23    2    1    2    0    0  0.00000000000E+00  0.00000000000E+00 -0.71054273576E-14  0.91188000000E+02  0.91188000000E+02 0.  0.
    9900012    2    3    3    0    0 -0.58998131428E+01  0.10248161217E+02 -0.34870412428E+02  0.54367105574E+02  0.40000048777E+02 0.  0.
         12    1    3    3    0    0  0.58998131428E+01 -0.10248161217E+02  0.34870412428E+02  0.36820894426E+02  0.00000000000E+00 0. -1.
         11    1    4    4    0    0 -0.61730282272E+01  0.99741804028E+00 -0.24494679869E+02  0.25280238574E+02  0.51100000000E-03 0. -1.
        -11    1    4    4    0    0  0.75706521130E+01 -0.43275325177E+01 -0.10528860327E+02  0.13671108630E+02  0.51100000000E-03 0.  1.
         12    1    4    4    0    0 -0.72974370286E+01  0.13578275695E+02  0.15312776826E+00  0.15415758370E+02  0.00000000000E+00 0. -1.
</event>
<event>
 8    1  0.2401680E-006  0.9118800E+02  0.7816164E-02  0.1184000E+00
        -11   -1    0    0    0    0  0.00000000000E+00  0.00000000000E+00  0.45593999997E+02  0.45594000000E+02  0.51100000000E-03 0.  1.
         11   -1    0    0    0    0 -0.00000000000E+00 -0.00000000000E+00 -0.45593999997E+02  0.45594000000E+02  0.51100000000E-03 0. -1.
         23    2    1    2    0    0 -0.17763568394E-14  0.00000000000E+00  0.00000000000E+00  0.91188000000E+02  0.91188000000E+02 0.  0.
    9900012    2    3    3    0    0 -0.14926215917E+02  0.10064432109E+02 -0.32120015652E+02  0.54367080393E+02  0.39999991371E+02 0.  0.
        -12    1    3    3    0    0  0.14926215917E+02 -0.10064432109E+02  0.32120015652E+02  0.36820919607E+02  0.00000000000E+00 0.  1.
         11    1    4    4    0    0 -0.10555139909E+02 -0.10735234176E+02 -0.16897468020E+02  0.22631408641E+02  0.51100000000E-03 0. -1.
        -11    1    4    4    0    0  0.54882429304E+01  0.82695320258E+01 -0.11817035278E+02  0.15432054089E+02  0.51100000000E-03 0.  1.
         12    1    4    4    0    0 -0.98593189382E+01  0.12530134260E+02 -0.34055123534E+01  0.16303617662E+02  0.00000000000E+00 0. -1.
</event>
<event>
 8    1  0.2401680E-006  0.9118800E+02  0.7816164E-02  0.1184000E+00
        -11   -1    0    0    0    0  0.00000000000E+00  0.00000000000E+00  0.45593999997E+02  0.45594000000E+02  0.51100000000E-03 0. -1.
         11   -1    0    0    0    0 -0.00000000000E+00 -0.00000000000E+00 -0.45593999997E+02  0.45594000000E+02  0.51100000000E-03 0.  1.
         23    2    1    2    0    0 -0.44408920985E-15 -0.35527136788E-14  0.00000000000E+00  0.91188000000E+02  0.91188000000E+02 0.  0.
    9900012    2    3    3    0    0 -0.17343880011E+01 -0.21525356226E+02  0.29823326855E+02  0.54367083566E+02  0.39999998605E+02 0.  0.
        -12    1    3    3    0    0  0.17343880011E+01  0.21525356226E+02 -0.29823326855E+02  0.36820916434E+02  0.00000000000E+00 0.  1.
         11    1    4    4    0    0 -0.72834423147E+00 -0.75055166459E+01 -0.19853663906E+01  0.77977525869E+01  0.51100000000E-03 0. -1.
        -11    1    4    4    0    0 -0.90440526300E+01  0.41301476745E+01  0.10994354670E+01  0.10003087843E+02  0.51100000000E-03 0.  1.
         12    1    4    4    0    0  0.80380088603E+01 -0.18149987255E+02  0.30709257778E+02  0.36566243136E+02  0.00000000000E+00 0. -1.
</event>
<event>
 8    1  0.2401680E-006  0.9118800E+02  0.7816164E-02  0.1184000E+00
        -11   -1    0    0    0    0  0.00000000000E+00  0.00000000000E+00  0.45593999997E+02  0.45594000000E+02  0.51100000000E-03 0. -1.
         11   -1    0    0    0    0 -0.00000000000E+00 -0.00000000000E+00 -0.45593999997E+02  0.45594000000E+02  0.51100000000E-03 0.  1.
         23    2    1    2    0    0  0.00000000000E+00  0.00000000000E+00  0.17763568394E-14  0.91188000000E+02  0.91188000000E+02 0.  0.
    9900012    2    3    3    0    0 -0.24268121082E+02 -0.24178267485E+02  0.13499981605E+02  0.54367084439E+02  0.40000000595E+02 0.  0.
        -12    1    3    3    0    0  0.24268121082E+02  0.24178267485E+02 -0.13499981605E+02  0.36820915561E+02  0.00000000000E+00 0.  1.
         11    1    4    4    0    0 -0.91129997872E+01 -0.22386829426E+01  0.15469826511E+02  0.18093479460E+02  0.51100000000E-03 0. -1.
        -11    1    4    4    0    0  0.18368552164E+01 -0.18327445690E+02  0.17694105222E+01  0.18504056756E+02  0.51100000000E-03 0.  1.
        -12    1    4    4    0    0 -0.16991976512E+02 -0.36121388529E+01 -0.37392554280E+01  0.17769548222E+02  0.00000000000E+00 0.  1.
</event>
<event>
 8    1  0.2401680E-006  0.9118800E+02  0.7816164E-02  0.1184000E+00
        -11   -1    0    0    0    0  0.00000000000E+00  0.00000000000E+00  0.45593999997E+02  0.45594000000E+02  0.51100000000E-03 0.  1.
         11   -1    0    0    0    0 -0.00000000000E+00 -0.00000000000E+00 -0.45593999997E+02  0.45594000000E+02  0.51100000000E-03 0. -1.
         23    2    1    2    0    0  0.00000000000E+00  0.00000000000E+00  0.35527136788E-14  0.91188000000E+02  0.91188000000E+02 0.  0.
    9900012    2    3    3    0    0 -0.10711768134E+02  0.25391367891E+02 -0.24419586479E+02  0.54367085512E+02  0.40000003041E+02 0.  0.
        -12    1    3    3    0    0  0.10711768134E+02 -0.25391367891E+02  0.24419586479E+02  0.36820914488E+02  0.00000000000E+00 0.  1.
         11    1    4    4    0    0  0.30273287704E+01  0.18521238661E+02  0.96586403956E+00  0.18791857136E+02  0.51100000000E-03 0. -1.
        -11    1    4    4    0    0 -0.71291281974E+00 -0.25207758901E+01  0.23546847591E+01  0.35223708426E+01  0.51100000000E-03 0.  1.
         12    1    4    4    0    0 -0.13026184085E+02  0.93909051199E+01 -0.27740135278E+02  0.32052857533E+02  0.00000000000E+00 0. -1.
</event>
<event>
 8    1  0.2401680E-006  0.9118800E+02  0.7816164E-02  0.1184000E+00
        -11   -1    0    0    0    0  0.00000000000E+00  0.00000000000E+00  0.45593999997E+02  0.45594000000E+02  0.51100000000E-03 0. -1.
         11   -1    0    0    0    0 -0.00000000000E+00 -0.00000000000E+00 -0.45593999997E+02  0.45594000000E+02  0.51100000000E-03 0.  1.
         23    2    1    2    0    0 -0.35527136788E-14  0.88817841970E-15  0.35527136788E-14  0.91188000000E+02  0.91188000000E+02 0.  0.
    9900012    2    3    3    0    0 -0.19785603509E+02  0.79141753834E+01  0.30027882017E+02  0.54367109508E+02  0.40000057745E+02 0.  0.
        -12    1    3    3    0    0  0.19785603509E+02 -0.79141753834E+01 -0.30027882017E+02  0.36820890492E+02  0.00000000000E+00 0.  1.
         11    1    4    4    0    0 -0.17184766631E+02  0.11945444064E+02  0.49910609178E+01  0.21515588009E+02  0.51100000000E-03 0. -1.
        -11    1    4    4    0    0 -0.28386207749E+01  0.34687697996E+01 -0.19153350759E+01  0.48742835926E+01  0.51100000000E-03 0.  1.
         12    1    4    4    0    0  0.23778389644E+00 -0.75000384805E+01  0.26952156175E+02  0.27977237906E+02  0.00000000000E+00 0. -1.
</event>
<event>
 8    1  0.2401680E-006  0.9118800E+02  0.7816164E-02  0.1184000E+00
        -11   -1    0    0    0    0  0.00000000000E+00  0.00000000000E+00  0.45593999997E+02  0.45594000000E+02  0.51100000000E-03 0. -1.
         11   -1    0    0    0    0 -0.00000000000E+00 -0.00000000000E+00 -0.45593999997E+02  0.45594000000E+02  0.51100000000E-03 0.  1.
         23    2    1    2    0    0  0.88817841970E-15  0.00000000000E+00 -0.35527136788E-14  0.91188000000E+02  0.91188000000E+02 0.  0.
    9900012    2    3    3    0    0 -0.42598604037E+01 -0.27348076701E+02 -0.24284055538E+02  0.54367094752E+02  0.40000024107E+02 0.  0.
         12    1    3    3    0    0  0.42598604037E+01  0.27348076701E+02  0.24284055538E+02  0.36820905248E+02  0.00000000000E+00 0. -1.
         11    1    4    4    0    0 -0.18073221564E+02 -0.22076722880E+01 -0.50110581264E+01  0.18884540197E+02  0.51100000000E-03 0. -1.
        -11    1    4    4    0    0  0.86640640030E+01 -0.13352325562E+02 -0.15149785731E+02  0.21974226060E+02  0.51100000000E-03 0.  1.
         12    1    4    4    0    0  0.51492971571E+01 -0.11788078850E+02 -0.41232116807E+01  0.13508328496E+02  0.00000000000E+00 0. -1.
</event>
<event>
 8    1  0.2401680E-006  0.9118800E+02  0.7816164E-02  0.1184000E+00
        -11   -1    0    0    0    0  0.00000000000E+00  0.00000000000E+00  0.45593999997E+02  0.45594000000E+02  0.51100000000E-03 0.  1.
         11   -1    0    0    0    0 -0.00000000000E+00 -0.00000000000E+00 -0.45593999997E+02  0.45594000000E+02  0.51100000000E-03 0. -1.
         23    2    1    2    0    0  0.00000000000E+00  0.00000000000E+00  0.00000000000E+00  0.91188000000E+02  0.91188000000E+02 0.  0.
    9900012    2    3    3    0    0  0.33373418239E+01 -0.23524982645E+02 -0.28128459955E+02  0.54367178196E+02  0.40000214333E+02 0.  0.
        -12    1    3    3    0    0 -0.33373418239E+01  0.23524982645E+02  0.28128459955E+02  0.36820821804E+02  0.00000000000E+00 0.  1.
         11    1    4    4    0    0  0.15384983087E+00 -0.22128003580E+02 -0.19128018413E+02  0.29249842749E+02  0.51100000000E-03 0. -1.
        -11    1    4    4    0    0  0.11581105702E+02 -0.15231048024E+01  0.13830861248E+01  0.11762431085E+02  0.51100000000E-03 0.  1.
         12    1    4    4    0    0 -0.83976137094E+01  0.12612573752E+00 -0.10383527667E+02  0.13354904362E+02  0.00000000000E+00 0. -1.
</event>
<event>
 8    1  0.2401680E-006  0.9118800E+02  0.7816164E-02  0.1184000E+00
        -11   -1    0    0    0    0  0.00000000000E+00  0.00000000000E+00  0.45593999997E+02  0.45594000000E+02  0.51100000000E-03 0. -1.
         11   -1    0    0    0    0 -0.00000000000E+00 -0.00000000000E+00 -0.45593999997E+02  0.45594000000E+02  0.51100000000E-03 0.  1.
         23    2    1    2    0    0  0.17763568394E-14  0.00000000000E+00  0.00000000000E+00  0.91188000000E+02  0.91188000000E+02 0.  0.
    9900012    2    3    3    0    0  0.12767969581E+02  0.12314306122E+02  0.32266329298E+02  0.54367093047E+02  0.40000020219E+02 0.  0.
        -12    1    3    3    0    0 -0.12767969581E+02 -0.12314306122E+02 -0.32266329298E+02  0.36820906953E+02  0.00000000000E+00 0.  1.
         11    1    4    4    0    0 -0.79985875699E+01 -0.65468102816E+01  0.12618402448E+02  0.16311413445E+02  0.51100000000E-03 0. -1.
        -11    1    4    4    0    0  0.12471841419E+02  0.64711144507E+01  0.18318143899E+02  0.23086284819E+02  0.51100000000E-03 0.  1.
        -12    1    4    4    0    0  0.82947157323E+01  0.12390001953E+02  0.13297829518E+01  0.14969394783E+02  0.00000000000E+00 0.  1.
</event>
<event>
 8    1  0.2401680E-006  0.9118800E+02  0.7816164E-02  0.1184000E+00
        -11   -1    0    0    0    0  0.00000000000E+00  0.00000000000E+00  0.45593999997E+02  0.45594000000E+02  0.51100000000E-03 0.  1.
         11   -1    0    0    0    0 -0.00000000000E+00 -0.00000000000E+00 -0.45593999997E+02  0.45594000000E+02  0.51100000000E-03 0. -1.
         23    2    1    2    0    0  0.00000000000E+00 -0.17763568394E-14  0.00000000000E+00  0.91188000000E+02  0.91188000000E+02 0.  0.
    9900012    2    3    3    0    0  0.34867275201E+02 -0.11095993623E+02 -0.41148239900E+01  0.54367085687E+02  0.40000003440E+02 0.  0.
         12    1    3    3    0    0 -0.34867275201E+02  0.11095993623E+02  0.41148239900E+01  0.36820914313E+02  0.00000000000E+00 0. -1.
         11    1    4    4    0    0 -0.75494136610E+01 -0.20699031513E+01 -0.59850983307E+01  0.98539102883E+01  0.51100000000E-03 0. -1.
        -11    1    4    4    0    0  0.37186613112E+02 -0.57355368457E+01 -0.11319029686E+01  0.37643349775E+02  0.51100000000E-03 0.  1.
         12    1    4    4    0    0  0.52300757493E+01 -0.32905536257E+01  0.30021773093E+01  0.68698256240E+01  0.00000000000E+00 0. -1.
</event>
<event>
 8    1  0.2401680E-006  0.9118800E+02  0.7816164E-02  0.1184000E+00
        -11   -1    0    0    0    0  0.00000000000E+00  0.00000000000E+00  0.45593999997E+02  0.45594000000E+02  0.51100000000E-03 0. -1.
         11   -1    0    0    0    0 -0.00000000000E+00 -0.00000000000E+00 -0.45593999997E+02  0.45594000000E+02  0.51100000000E-03 0.  1.
         23    2    1    2    0    0 -0.35527136788E-14  0.35527136788E-14  0.00000000000E+00  0.91188000000E+02  0.91188000000E+02 0.  0.
    9900012    2    3    3    0    0  0.30531290021E+02  0.39917454503E+01  0.20191230847E+02  0.54367088751E+02  0.40000010426E+02 0.  0.
        -12    1    3    3    0    0 -0.30531290021E+02 -0.39917454503E+01 -0.20191230847E+02  0.36820911249E+02  0.00000000000E+00 0.  1.
         11    1    4    4    0    0  0.20407268327E+02  0.12258382574E+02  0.10839954039E+02  0.26157774135E+02  0.51100000000E-03 0. -1.
        -11    1    4    4    0    0  0.12643809093E+02  0.46310507698E+01  0.43975892154E+01  0.14165144926E+02  0.51100000000E-03 0.  1.
         12    1    4    4    0    0 -0.25197873986E+01 -0.12897687893E+02  0.49536875924E+01  0.14044169690E+02  0.00000000000E+00 0. -1.
</event>
<event>
 8    1  0.2401680E-006  0.9118800E+02  0.7816164E-02  0.1184000E+00
        -11   -1    0    0    0    0  0.00000000000E+00  0.00000000000E+00  0.45593999997E+02  0.45594000000E+02  0.51100000000E-03 0. -1.
         11   -1    0    0    0    0 -0.00000000000E+00 -0.00000000000E+00 -0.45593999997E+02  0.45594000000E+02  0.51100000000E-03 0.  1.
         23    2    1    2    0    0  0.00000000000E+00  0.00000000000E+00  0.35527136788E-14  0.91188000000E+02  0.91188000000E+02 0.  0.
    9900012    2    3    3    0    0  0.23689424797E+02  0.16251119982E+02  0.23032436286E+02  0.54367070230E+02  0.39999968202E+02 0.  0.
         12    1    3    3    0    0 -0.23689424797E+02 -0.16251119982E+02 -0.23032436286E+02  0.36820929770E+02  0.00000000000E+00 0. -1.
         11    1    4    4    0    0  0.72267801458E+01 -0.37385282249E+01 -0.21126395753E+01  0.84063185045E+01  0.51100000000E-03 0. -1.
        -11    1    4    4    0    0  0.12928723805E+02  0.19936571412E+00 -0.10131520023E+01  0.12969892951E+02  0.51100000000E-03 0.  1.
        -12    1    4    4    0    0  0.35339208463E+01  0.19790282493E+02  0.26158227863E+02  0.32990858774E+02  0.00000000000E+00 0.  1.
</event>
<event>
 8    1  0.2401680E-006  0.9118800E+02  0.7816164E-02  0.1184000E+00
        -11   -1    0    0    0    0  0.00000000000E+00  0.00000000000E+00  0.45593999997E+02  0.45594000000E+02  0.51100000000E-03 0. -1.
         11   -1    0    0    0    0 -0.00000000000E+00 -0.00000000000E+00 -0.45593999997E+02  0.45594000000E+02  0.51100000000E-03 0.  1.
         23    2    1    2    0    0  0.00000000000E+00  0.35527136788E-14  0.00000000000E+00  0.91188000000E+02  0.91188000000E+02 0.  0.
    9900012    2    3    3    0    0 -0.21242245931E+02  0.24117019730E+02  0.17969879198E+02  0.54367079163E+02  0.39999988568E+02 0.  0.
        -12    1    3    3    0    0  0.21242245931E+02 -0.24117019730E+02 -0.17969879198E+02  0.36820920837E+02  0.00000000000E+00 0.  1.
         11    1    4    4    0    0  0.14439375602E+01 -0.33240697598E+00 -0.24596883625E+00  0.15019823584E+01  0.51100000000E-03 0. -1.
        -11    1    4    4    0    0  0.41256196518E+01  0.84548967786E+01 -0.78042643322E+01  0.12223443012E+02  0.51100000000E-03 0.  1.
         12    1    4    4    0    0 -0.26811803143E+02  0.15994529928E+02  0.26020112367E+02  0.40641653792E+02  0.00000000000E+00 0. -1.
</event>
<event>
 8    1  0.2401680E-006  0.9118800E+02  0.7816164E-02  0.1184000E+00
        -11   -1    0    0    0    0  0.00000000000E+00  0.00000000000E+00  0.45593999997E+02  0.45594000000E+02  0.51100000000E-03 0.  1.
         11   -1    0    0    0    0 -0.00000000000E+00 -0.00000000000E+00 -0.45593999997E+02  0.45594000000E+02  0.51100000000E-03 0. -1.
         23    2    1    2    0    0  0.00000000000E+00  0.00000000000E+00 -0.17763568394E-14  0.91188000000E+02  0.91188000000E+02 0.  0.
    9900012    2    3    3    0    0  0.12904125029E+02  0.31897529298E+02  0.13107612207E+02  0.54367104901E+02  0.40000047243E+02 0.  0.
         12    1    3    3    0    0 -0.12904125029E+02 -0.31897529298E+02 -0.13107612207E+02  0.36820895099E+02  0.00000000000E+00 0. -1.
         11    1    4    4    0    0  0.18621947022E+02  0.22026651399E+02 -0.21068785804E+01  0.28920394541E+02  0.51100000000E-03 0. -1.
        -11    1    4    4    0    0 -0.52039301096E+01  0.10932189037E+02  0.18413393304E+02  0.22037393198E+02  0.51100000000E-03 0.  1.
        -12    1    4    4    0    0 -0.51389188359E+00 -0.10613111381E+01 -0.31989025173E+01  0.34093171625E+01  0.00000000000E+00 0.  1.
</event>
<event>
 8    1  0.2401680E-006  0.9118800E+02  0.7816164E-02  0.1184000E+00
        -11   -1    0    0    0    0  0.00000000000E+00  0.00000000000E+00  0.45593999997E+02  0.45594000000E+02  0.51100000000E-03 0.  1.
         11   -1    0    0    0    0 -0.00000000000E+00 -0.00000000000E+00 -0.45593999997E+02  0.45594000000E+02  0.51100000000E-03 0. -1.
         23    2    1    2    0    0  0.00000000000E+00 -0.88817841970E-15  0.00000000000E+00  0.91188000000E+02  0.91188000000E+02 0.  0.
    9900012    2    3    3    0    0 -0.19968782220E+02  0.78347512134E+00  0.30925934123E+02  0.54367088849E+02  0.40000010649E+02 0.  0.
         12    1    3    3    0    0  0.19968782220E+02 -0.78347512134E+00 -0.30925934123E+02  0.36820911151E+02  0.00000000000E+00 0. -1.
         11    1    4    4    0    0  0.55046078320E+01 -0.43409748360E+01  0.33180777481E+01  0.77559274181E+01  0.51100000000E-03 0. -1.
        -11    1    4    4    0    0 -0.23255806503E+02  0.14821808203E+02  0.21103792901E+02  0.34725906893E+02  0.51100000000E-03 0.  1.
        -12    1    4    4    0    0 -0.22175835495E+01 -0.96973582460E+01  0.65040634741E+01  0.11885254538E+02  0.00000000000E+00 0.  1.
</event>
<event>
 8    1  0.2401680E-006  0.9118800E+02  0.7816164E-02  0.1184000E+00
        -11   -1    0    0    0    0  0.00000000000E+00  0.00000000000E+00  0.45593999997E+02  0.45594000000E+02  0.51100000000E-03 0. -1.
         11   -1    0    0    0    0 -0.00000000000E+00 -0.00000000000E+00 -0.45593999997E+02  0.45594000000E+02  0.51100000000E-03 0.  1.
         23    2    1    2    0    0 -0.71054273576E-14 -0.61062266354E-15  0.88817841970E-15  0.91188000000E+02  0.91188000000E+02 0.  0.
    9900012    2    3    3    0    0 -0.36179539314E+02  0.37773202383E+00  0.68322199546E+01  0.54367068780E+02  0.39999964897E+02 0.  0.
        -12    1    3    3    0    0  0.36179539314E+02 -0.37773202383E+00 -0.68322199546E+01  0.36820931220E+02  0.00000000000E+00 0.  1.
         11    1    4    4    0    0 -0.23035089309E+02  0.12613519144E+02  0.10226148993E+00  0.26262647664E+02  0.51100000000E-03 0. -1.
        -11    1    4    4    0    0  0.47280321346E+01 -0.22192684314E+01 -0.23096717502E+01  0.57108689436E+01  0.51100000000E-03 0.  1.
         12    1    4    4    0    0 -0.17872482140E+02 -0.10016518688E+02  0.90396302149E+01  0.22393552172E+02  0.00000000000E+00 0. -1.
</event>
<event>
 8    1  0.2401680E-006  0.9118800E+02  0.7816164E-02  0.1184000E+00
        -11   -1    0    0    0    0  0.00000000000E+00  0.00000000000E+00  0.45593999997E+02  0.45594000000E+02  0.51100000000E-03 0. -1.
         11   -1    0    0    0    0 -0.00000000000E+00 -0.00000000000E+00 -0.45593999997E+02  0.45594000000E+02  0.51100000000E-03 0.  1.
         23    2    1    2    0    0  0.88817841970E-15 -0.35527136788E-14  0.71054273576E-14  0.91188000000E+02  0.91188000000E+02 0.  0.
    9900012    2    3    3    0    0  0.54616524158E+01 -0.17350686838E+02  0.32014131510E+02  0.54367073922E+02  0.39999976620E+02 0.  0.
        -12    1    3    3    0    0 -0.54616524158E+01  0.17350686838E+02 -0.32014131510E+02  0.36820926078E+02  0.00000000000E+00 0.  1.
         11    1    4    4    0    0  0.67017739038E+01  0.58228396034E+01  0.31857706075E+01  0.94323045503E+01  0.51100000000E-03 0. -1.
        -11    1    4    4    0    0 -0.29433625144E+01  0.47004168101E+01  0.12469228709E+01  0.56843748986E+01  0.51100000000E-03 0.  1.
         12    1    4    4    0    0  0.17032410265E+01 -0.27873943252E+02  0.27581438032E+02  0.39250394473E+02  0.00000000000E+00 0. -1.
</event>
<event>
 8    1  0.2401680E-006  0.9118800E+02  0.7816164E-02  0.1184000E+00
        -11   -1    0    0    0    0  0.00000000000E+00  0.00000000000E+00  0.45593999997E+02  0.45594000000E+02  0.51100000000E-03 0.  1.
         11   -1    0    0    0    0 -0.00000000000E+00 -0.00000000000E+00 -0.45593999997E+02  0.45594000000E+02  0.51100000000E-03 0. -1.
         23    2    1    2    0    0  0.00000000000E+00  0.00000000000E+00  0.17763568394E-14  0.91188000000E+02  0.91188000000E+02 0.  0.
    9900012    2    3    3    0    0  0.19511276128E+02  0.28617061586E+02 -0.12496136661E+02  0.54367088259E+02  0.40000009304E+02 0.  0.
        -12    1    3    3    0    0 -0.19511276128E+02 -0.28617061586E+02  0.12496136661E+02  0.36820911741E+02  0.00000000000E+00 0.  1.
         11    1    4    4    0    0  0.26079798081E+01 -0.38701333727E+01 -0.95307326868E+01  0.10611991180E+02  0.51100000000E-03 0.  1.
        -11    1    4    4    0    0  0.48498898980E+01  0.18262828873E+02 -0.12655986358E+02  0.22742610699E+02  0.51100000000E-03 0. -1.
        -12    1    4    4    0    0  0.12053406422E+02  0.14224366086E+02  0.96905823828E+01  0.21012486379E+02  0.00000000000E+00 0.  1.
</event>
<event>
 8    1  0.2401680E-006  0.9118800E+02  0.7816164E-02  0.1184000E+00
        -11   -1    0    0    0    0  0.00000000000E+00  0.00000000000E+00  0.45593999997E+02  0.45594000000E+02  0.51100000000E-03 0.  1.
         11   -1    0    0    0    0 -0.00000000000E+00 -0.00000000000E+00 -0.45593999997E+02  0.45594000000E+02  0.51100000000E-03 0. -1.
         23    2    1    2    0    0  0.33306690739E-15  0.00000000000E+00  0.35527136788E-14  0.91188000000E+02  0.91188000000E+02 0.  0.
    9900012    2    3    3    0    0 -0.86186362262E+00 -0.27706553595E+02 -0.24236000235E+02  0.54367087078E+02  0.40000006613E+02 0.  0.
        -12    1    3    3    0    0  0.86186362262E+00  0.27706553595E+02  0.24236000235E+02  0.36820912922E+02  0.00000000000E+00 0.  1.
         11    1    4    4    0    0 -0.70449184466E+01  0.11121499040E+01 -0.12232005692E+02  0.14159439143E+02  0.51100000000E-03 0. -1.
        -11    1    4    4    0    0 -0.19651921641E+01  0.40535642113E+01 -0.15428721252E+01  0.47617032365E+01  0.51100000000E-03 0.  1.
        -12    1    4    4    0    0  0.81482469881E+01 -0.32872267710E+02 -0.10461122418E+02  0.35445944699E+02  0.00000000000E+00 0.  1.
</event>
<event>
 8    1  0.2401680E-006  0.9118800E+02  0.7816164E-02  0.1184000E+00
        -11   -1    0    0    0    0  0.00000000000E+00  0.00000000000E+00  0.45593999997E+02  0.45594000000E+02  0.51100000000E-03 0.  1.
         11   -1    0    0    0    0 -0.00000000000E+00 -0.00000000000E+00 -0.45593999997E+02  0.45594000000E+02  0.51100000000E-03 0. -1.
         23    2    1    2    0    0  0.00000000000E+00  0.17763568394E-14  0.17763568394E-14  0.91188000000E+02  0.91188000000E+02 0.  0.
    9900012    2    3    3    0    0 -0.35066962192E+02  0.61626105305E+01 -0.93867774045E+01  0.54367065792E+02  0.39999958086E+02 0.  0.
         12    1    3    3    0    0  0.35066962192E+02 -0.61626105305E+01  0.93867774045E+01  0.36820934208E+02  0.00000000000E+00 0. -1.
         11    1    4    4    0    0 -0.64966447058E+01  0.10582897003E+02  0.63865039607E+00  0.12434306414E+02  0.51100000000E-03 0.  1.
        -11    1    4    4    0    0 -0.26711990206E+02  0.18476763755E+01  0.34090998679E+01  0.26991967156E+02  0.51100000000E-03 0. -1.
         12    1    4    4    0    0 -0.18583272799E+01 -0.62679628484E+01 -0.13434527669E+02  0.14940792222E+02  0.00000000000E+00 0. -1.
</event>
<event>
 8    1  0.2401680E-006  0.9118800E+02  0.7816164E-02  0.1184000E+00
        -11   -1    0    0    0    0  0.00000000000E+00  0.00000000000E+00  0.45593999997E+02  0.45594000000E+02  0.51100000000E-03 0.  1.
         11   -1    0    0    0    0 -0.00000000000E+00 -0.00000000000E+00 -0.45593999997E+02  0.45594000000E+02  0.51100000000E-03 0. -1.
         23    2    1    2    0    0  0.00000000000E+00  0.00000000000E+00  0.00000000000E+00  0.91188000000E+02  0.91188000000E+02 0.  0.
    9900012    2    3    3    0    0 -0.26627325965E+02  0.12263579189E+02  0.22279367121E+02  0.54367081192E+02  0.39999993193E+02 0.  0.
         12    1    3    3    0    0  0.26627325965E+02 -0.12263579189E+02 -0.22279367121E+02  0.36820918808E+02  0.00000000000E+00 0. -1.
         11    1    4    4    0    0 -0.14731010029E+02  0.99293282828E+01  0.38409157107E+01  0.18175446360E+02  0.51100000000E-03 0. -1.
        -11    1    4    4    0    0 -0.12493026166E+01  0.12528811049E+02  0.17314035060E+02  0.21408121676E+02  0.51100000000E-03 0.  1.
         12    1    4    4    0    0 -0.10647013319E+02 -0.10194560143E+02  0.11244163500E+01  0.14783513156E+02  0.00000000000E+00 0. -1.
</event>
<event>
 8    1  0.2401680E-006  0.9118800E+02  0.7816164E-02  0.1184000E+00
        -11   -1    0    0    0    0  0.00000000000E+00  0.00000000000E+00  0.45593999997E+02  0.45594000000E+02  0.51100000000E-03 0. -1.
         11   -1    0    0    0    0 -0.00000000000E+00 -0.00000000000E+00 -0.45593999997E+02  0.45594000000E+02  0.51100000000E-03 0.  1.
         23    2    1    2    0    0  0.00000000000E+00 -0.88817841970E-15  0.00000000000E+00  0.91188000000E+02  0.91188000000E+02 0.  0.
    9900012    2    3    3    0    0 -0.34721762123E+02 -0.54973525833E+01 -0.10952675796E+02  0.54367044589E+02  0.39999909748E+02 0.  0.
        -12    1    3    3    0    0  0.34721762123E+02  0.54973525833E+01  0.10952675796E+02  0.36820955411E+02  0.00000000000E+00 0.  1.
         11    1    4    4    0    0 -0.15371625786E+02 -0.88997736049E+01 -0.70559046990E+01  0.19112264149E+02  0.51100000000E-03 0. -1.
        -11    1    4    4    0    0 -0.14521039411E+01  0.56381652453E+01 -0.13585261067E+02  0.14780285238E+02  0.51100000000E-03 0.  1.
         12    1    4    4    0    0 -0.17898032395E+02 -0.22357442237E+01  0.96884899703E+01  0.20474495201E+02  0.00000000000E+00 0. -1.
</event>
<event>
 8    1  0.2401680E-006  0.9118800E+02  0.7816164E-02  0.1184000E+00
        -11   -1    0    0    0    0  0.00000000000E+00  0.00000000000E+00  0.45593999997E+02  0.45594000000E+02  0.51100000000E-03 0. -1.
         11   -1    0    0    0    0 -0.00000000000E+00 -0.00000000000E+00 -0.45593999997E+02  0.45594000000E+02  0.51100000000E-03 0.  1.
         23    2    1    2    0    0  0.00000000000E+00  0.17763568394E-14  0.00000000000E+00  0.91188000000E+02  0.91188000000E+02 0.  0.
    9900012    2    3    3    0    0  0.17200296404E+02  0.10460923934E+02 -0.30830223474E+02  0.54367030358E+02  0.39999877306E+02 0.  0.
         12    1    3    3    0    0 -0.17200296404E+02 -0.10460923934E+02  0.30830223474E+02  0.36820969642E+02  0.00000000000E+00 0. -1.
         11    1    4    4    0    0 -0.32631841671E+01  0.41319291363E+01  0.56927066539E+00  0.52957793239E+01  0.51100000000E-03 0. -1.
        -11    1    4    4    0    0  0.88578685619E+01 -0.77189532932E+01 -0.28227914624E+02  0.30575467939E+02  0.51100000000E-03 0.  1.
        -12    1    4    4    0    0  0.11605612009E+02  0.14047948091E+02 -0.31715795152E+01  0.18495783095E+02  0.00000000000E+00 0.  1.
</event>
<event>
 8    1  0.2401680E-006  0.9118800E+02  0.7816164E-02  0.1184000E+00
        -11   -1    0    0    0    0  0.00000000000E+00  0.00000000000E+00  0.45593999997E+02  0.45594000000E+02  0.51100000000E-03 0.  1.
         11   -1    0    0    0    0 -0.00000000000E+00 -0.00000000000E+00 -0.45593999997E+02  0.45594000000E+02  0.51100000000E-03 0. -1.
         23    2    1    2    0    0  0.00000000000E+00  0.00000000000E+00  0.00000000000E+00  0.91188000000E+02  0.91188000000E+02 0.  0.
    9900012    2    3    3    0    0  0.21235498985E+02  0.13754582704E+02 -0.26751546236E+02  0.54367079472E+02  0.39999989273E+02 0.  0.
        -12    1    3    3    0    0 -0.21235498985E+02 -0.13754582704E+02  0.26751546236E+02  0.36820920528E+02  0.00000000000E+00 0.  1.
         11    1    4    4    0    0 -0.69117317360E+00 -0.45617241827E+01 -0.50697420565E+01  0.68548765601E+01  0.51100000000E-03 0. -1.
        -11    1    4    4    0    0 -0.50916775897E+01 -0.11724016314E+01  0.30242438092E+01  0.60370321468E+01  0.51100000000E-03 0.  1.
         12    1    4    4    0    0  0.27018349748E+02  0.19488708518E+02 -0.24706047989E+02  0.41475170765E+02  0.00000000000E+00 0. -1.
</event>
<event>
 8    1  0.2401680E-006  0.9118800E+02  0.7816164E-02  0.1184000E+00
        -11   -1    0    0    0    0  0.00000000000E+00  0.00000000000E+00  0.45593999997E+02  0.45594000000E+02  0.51100000000E-03 0. -1.
         11   -1    0    0    0    0 -0.00000000000E+00 -0.00000000000E+00 -0.45593999997E+02  0.45594000000E+02  0.51100000000E-03 0.  1.
         23    2    1    2    0    0  0.35527136788E-14 -0.17763568394E-14  0.35527136788E-14  0.91188000000E+02  0.91188000000E+02 0.  0.
    9900012    2    3    3    0    0 -0.23317784891E+02  0.12766324880E+02 -0.25477090682E+02  0.54367078057E+02  0.39999986046E+02 0.  0.
         12    1    3    3    0    0  0.23317784891E+02 -0.12766324880E+02  0.25477090682E+02  0.36820921943E+02  0.00000000000E+00 0. -1.
         11    1    4    4    0    0 -0.12336625399E+02  0.11005219362E+02 -0.13033824383E+01  0.16583304420E+02  0.51100000000E-03 0.  1.
        -11    1    4    4    0    0  0.86092206272E+01  0.26889271759E+01 -0.10674136038E+02  0.13974483517E+02  0.51100000000E-03 0. -1.
         12    1    4    4    0    0 -0.19590380119E+02 -0.92782165791E+00 -0.13499572206E+02  0.23809290119E+02  0.00000000000E+00 0. -1.
</event>
<event>
 8    1  0.2401680E-006  0.9118800E+02  0.7816164E-02  0.1184000E+00
        -11   -1    0    0    0    0  0.00000000000E+00  0.00000000000E+00  0.45593999997E+02  0.45594000000E+02  0.51100000000E-03 0.  1.
         11   -1    0    0    0    0 -0.00000000000E+00 -0.00000000000E+00 -0.45593999997E+02  0.45594000000E+02  0.51100000000E-03 0. -1.
         23    2    1    2    0    0  0.35527136788E-14  0.17763568394E-14  0.00000000000E+00  0.91188000000E+02  0.91188000000E+02 0.  0.
    9900012    2    3    3    0    0  0.31485430340E+02 -0.13846694463E+02 -0.13142223654E+02  0.54367064191E+02  0.39999954437E+02 0.  0.
         12    1    3    3    0    0 -0.31485430340E+02  0.13846694463E+02  0.13142223654E+02  0.36820935809E+02  0.00000000000E+00 0. -1.
         11    1    4    4    0    0  0.16295899644E+02 -0.64503457304E+01 -0.16825945193E+02  0.24295590899E+02  0.51100000000E-03 0. -1.
        -11    1    4    4    0    0 -0.82405457328E+00 -0.36850527404E+01 -0.87043748674E+01  0.94881411105E+01  0.51100000000E-03 0.  1.
        -12    1    4    4    0    0  0.16013585270E+02 -0.37112959918E+01  0.12388096406E+02  0.20583332181E+02  0.00000000000E+00 0.  1.
</event>
<event>
 8    1  0.2401680E-006  0.9118800E+02  0.7816164E-02  0.1184000E+00
        -11   -1    0    0    0    0  0.00000000000E+00  0.00000000000E+00  0.45593999997E+02  0.45594000000E+02  0.51100000000E-03 0.  1.
         11   -1    0    0    0    0 -0.00000000000E+00 -0.00000000000E+00 -0.45593999997E+02  0.45594000000E+02  0.51100000000E-03 0. -1.
         23    2    1    2    0    0  0.00000000000E+00  0.00000000000E+00  0.88817841970E-15  0.91188000000E+02  0.91188000000E+02 0.  0.
    9900012    2    3    3    0    0 -0.22430992827E+01 -0.35918443966E+02 -0.77854353802E+01  0.54367094044E+02  0.40000022493E+02 0.  0.
        -12    1    3    3    0    0  0.22430992827E+01  0.35918443966E+02  0.77854353802E+01  0.36820905956E+02  0.00000000000E+00 0.  1.
         11    1    4    4    0    0 -0.59128086811E+01 -0.19566967440E+01 -0.37780820262E+01  0.72844953639E+01  0.51100000000E-03 0. -1.
        -11    1    4    4    0    0 -0.48039190359E+01 -0.31341867273E+01 -0.12713426995E+02  0.13947472558E+02  0.51100000000E-03 0.  1.
        -12    1    4    4    0    0  0.84736284343E+01 -0.30827560495E+02  0.87060736410E+01  0.33135126122E+02  0.00000000000E+00 0.  1.
</event>
<event>
 8    1  0.2401680E-006  0.9118800E+02  0.7816164E-02  0.1184000E+00
        -11   -1    0    0    0    0  0.00000000000E+00  0.00000000000E+00  0.45593999997E+02  0.45594000000E+02  0.51100000000E-03 0. -1.
         11   -1    0    0    0    0 -0.00000000000E+00 -0.00000000000E+00 -0.45593999997E+02  0.45594000000E+02  0.51100000000E-03 0.  1.
         23    2    1    2    0    0  0.00000000000E+00  0.00000000000E+00  0.00000000000E+00  0.91188000000E+02  0.91188000000E+02 0.  0.
    9900012    2    3    3    0    0 -0.25423481603E+02 -0.10411989119E+02 -0.24515695976E+02  0.54367051025E+02  0.39999924421E+02 0.  0.
         12    1    3    3    0    0  0.25423481603E+02  0.10411989119E+02  0.24515695976E+02  0.36820948975E+02  0.00000000000E+00 0. -1.
         11    1    4    4    0    0 -0.32939175128E+02 -0.27593569744E+01 -0.26023621781E+02  0.42069373657E+02  0.51100000000E-03 0.  1.
        -11    1    4    4    0    0  0.30573132229E+01  0.31563097303E+00  0.32789612283E+00  0.30910035883E+01  0.51100000000E-03 0. -1.
        -12    1    4    4    0    0  0.44583803024E+01 -0.79682631178E+01  0.11800296815E+01  0.92066737797E+01  0.00000000000E+00 0.  1.
</event>
<event>
 8    1  0.2401680E-006  0.9118800E+02  0.7816164E-02  0.1184000E+00
        -11   -1    0    0    0    0  0.00000000000E+00  0.00000000000E+00  0.45593999997E+02  0.45594000000E+02  0.51100000000E-03 0.  1.
         11   -1    0    0    0    0 -0.00000000000E+00 -0.00000000000E+00 -0.45593999997E+02  0.45594000000E+02  0.51100000000E-03 0. -1.
         23    2    1    2    0    0  0.00000000000E+00  0.00000000000E+00 -0.35527136788E-14  0.91188000000E+02  0.91188000000E+02 0.  0.
    9900012    2    3    3    0    0 -0.24779726541E+02  0.53733925084E+01 -0.26699654966E+02  0.54367085158E+02  0.40000002235E+02 0.  0.
        -12    1    3    3    0    0  0.24779726541E+02 -0.53733925084E+01  0.26699654966E+02  0.36820914842E+02  0.00000000000E+00 0.  1.
         11    1    4    4    0    0 -0.65729785156E+01  0.10360588786E+01  0.23493089669E+01  0.70566789249E+01  0.51100000000E-03 0. -1.
        -11    1    4    4    0    0  0.65173004245E+00  0.14983415720E+02 -0.75332313145E+01  0.16783237858E+02  0.51100000000E-03 0.  1.
         12    1    4    4    0    0 -0.18858478068E+02 -0.10646082091E+02 -0.21515732618E+02  0.30527168375E+02  0.00000000000E+00 0. -1.
</event>
<event>
 8    1  0.2401680E-006  0.9118800E+02  0.7816164E-02  0.1184000E+00
        -11   -1    0    0    0    0  0.00000000000E+00  0.00000000000E+00  0.45593999997E+02  0.45594000000E+02  0.51100000000E-03 0.  1.
         11   -1    0    0    0    0 -0.00000000000E+00 -0.00000000000E+00 -0.45593999997E+02  0.45594000000E+02  0.51100000000E-03 0. -1.
         23    2    1    2    0    0  0.00000000000E+00 -0.35527136788E-14  0.17763568394E-14  0.91188000000E+02  0.91188000000E+02 0.  0.
    9900012    2    3    3    0    0  0.20457279043E+02  0.27292012074E+02 -0.13871827185E+02  0.54367057883E+02  0.39999940057E+02 0.  0.
        -12    1    3    3    0    0 -0.20457279043E+02 -0.27292012074E+02  0.13871827185E+02  0.36820942117E+02  0.00000000000E+00 0.  1.
         11    1    4    4    0    0  0.25119364685E+02  0.24217127320E+02 -0.62281503876E+00  0.34897559179E+02  0.51100000000E-03 0. -1.
        -11    1    4    4    0    0 -0.31525131665E+01 -0.50008791990E+01 -0.69027102408E+01  0.90881538805E+01  0.51100000000E-03 0.  1.
         12    1    4    4    0    0 -0.15095724753E+01  0.80757639532E+01 -0.63463019050E+01  0.10381344824E+02  0.00000000000E+00 0. -1.
</event>
<event>
 8    1  0.2401680E-006  0.9118800E+02  0.7816164E-02  0.1184000E+00
        -11   -1    0    0    0    0  0.00000000000E+00  0.00000000000E+00  0.45593999997E+02  0.45594000000E+02  0.51100000000E-03 0.  1.
         11   -1    0    0    0    0 -0.00000000000E+00 -0.00000000000E+00 -0.45593999997E+02  0.45594000000E+02  0.51100000000E-03 0. -1.
         23    2    1    2    0    0  0.35527136788E-14  0.00000000000E+00  0.35527136788E-14  0.91188000000E+02  0.91188000000E+02 0.  0.
    9900012    2    3    3    0    0  0.22577739943E+02 -0.21408543664E+02  0.19690071277E+02  0.54367095752E+02  0.40000026386E+02 0.  0.
         12    1    3    3    0    0 -0.22577739943E+02  0.21408543664E+02 -0.19690071277E+02  0.36820904248E+02  0.00000000000E+00 0. -1.
         11    1    4    4    0    0 -0.45653295979E+01 -0.84897365369E+01  0.96426768315E+01  0.13634481198E+02  0.51100000000E-03 0. -1.
        -11    1    4    4    0    0  0.23930799981E+02 -0.14608248154E+02  0.17071943841E+02  0.32825833861E+02  0.51100000000E-03 0.  1.
         12    1    4    4    0    0  0.32122695604E+01  0.16894410278E+01 -0.70245493958E+01  0.79067806931E+01  0.00000000000E+00 0. -1.
</event>
<event>
 8    1  0.2401680E-006  0.9118800E+02  0.7816164E-02  0.1184000E+00
        -11   -1    0    0    0    0  0.00000000000E+00  0.00000000000E+00  0.45593999997E+02  0.45594000000E+02  0.51100000000E-03 0.  1.
         11   -1    0    0    0    0 -0.00000000000E+00 -0.00000000000E+00 -0.45593999997E+02  0.45594000000E+02  0.51100000000E-03 0. -1.
         23    2    1    2    0    0  0.00000000000E+00  0.00000000000E+00  0.35527136788E-14  0.91188000000E+02  0.91188000000E+02 0.  0.
    9900012    2    3    3    0    0 -0.11129133854E+02 -0.27409778339E+02 -0.21923239039E+02  0.54367055161E+02  0.39999933850E+02 0.  0.
        -12    1    3    3    0    0  0.11129133854E+02  0.27409778339E+02  0.21923239039E+02  0.36820944839E+02  0.00000000000E+00 0.  1.
         11    1    4    4    0    0 -0.95135256502E+00 -0.59969178311E+01 -0.18637256943E+02  0.19601414281E+02  0.51100000000E-03 0. -1.
        -11    1    4    4    0    0  0.32567089992E+01  0.32702851802E+01  0.35749102797E+01  0.58378850994E+01  0.51100000000E-03 0.  1.
        -12    1    4    4    0    0 -0.13434490288E+02 -0.24683145688E+02 -0.68608923752E+01  0.28927755781E+02  0.00000000000E+00 0.  1.
</event>
<event>
 8    1  0.2401680E-006  0.9118800E+02  0.7816164E-02  0.1184000E+00
        -11   -1    0    0    0    0  0.00000000000E+00  0.00000000000E+00  0.45593999997E+02  0.45594000000E+02  0.51100000000E-03 0.  1.
         11   -1    0    0    0    0 -0.00000000000E+00 -0.00000000000E+00 -0.45593999997E+02  0.45594000000E+02  0.51100000000E-03 0. -1.
         23    2    1    2    0    0  0.00000000000E+00 -0.35527136788E-14  0.88817841970E-15  0.91188000000E+02  0.91188000000E+02 0.  0.
    9900012    2    3    3    0    0  0.18811733738E+02  0.31644213899E+02  0.73615523167E+00  0.54367088495E+02  0.40000009843E+02 0.  0.
        -12    1    3    3    0    0 -0.18811733738E+02 -0.31644213899E+02 -0.73615523167E+00  0.36820911505E+02  0.00000000000E+00 0.  1.
         11    1    4    4    0    0  0.10578057794E+02  0.20911897818E+02  0.58947984248E+01  0.24165086919E+02  0.51100000000E-03 0. -1.
        -11    1    4    4    0    0  0.25792062389E+01  0.17161532032E+02  0.38473181319E+01  0.17775610919E+02  0.51100000000E-03 0.  1.
         12    1    4    4    0    0  0.56544697047E+01 -0.64292159504E+01 -0.90059613250E+01  0.12426390657E+02  0.00000000000E+00 0. -1.
</event>
<event>
 8    1  0.2401680E-006  0.9118800E+02  0.7816164E-02  0.1184000E+00
        -11   -1    0    0    0    0  0.00000000000E+00  0.00000000000E+00  0.45593999997E+02  0.45594000000E+02  0.51100000000E-03 0. -1.
         11   -1    0    0    0    0 -0.00000000000E+00 -0.00000000000E+00 -0.45593999997E+02  0.45594000000E+02  0.51100000000E-03 0.  1.
         23    2    1    2    0    0  0.00000000000E+00 -0.88817841970E-15  0.00000000000E+00  0.91188000000E+02  0.91188000000E+02 0.  0.
    9900012    2    3    3    0    0 -0.26903790939E+02  0.76989449546E+01 -0.23930955465E+02  0.54367104441E+02  0.40000046194E+02 0.  0.
        -12    1    3    3    0    0  0.26903790939E+02 -0.76989449546E+01  0.23930955465E+02  0.36820895559E+02  0.00000000000E+00 0.  1.
         11    1    4    4    0    0 -0.14785117046E+02 -0.46272802187E+00 -0.54434245932E+01  0.15762127865E+02  0.51100000000E-03 0. -1.
        -11    1    4    4    0    0 -0.44832117606E+01  0.68571394992E+01 -0.26334104645E+02  0.27579061215E+02  0.51100000000E-03 0.  1.
        -12    1    4    4    0    0 -0.76354621328E+01  0.13045334773E+01  0.78465737726E+01  0.11025915361E+02  0.00000000000E+00 0.  1.
</event>
<event>
 8    1  0.2401680E-006  0.9118800E+02  0.7816164E-02  0.1184000E+00
        -11   -1    0    0    0    0  0.00000000000E+00  0.00000000000E+00  0.45593999997E+02  0.45594000000E+02  0.51100000000E-03 0.  1.
         11   -1    0    0    0    0 -0.00000000000E+00 -0.00000000000E+00 -0.45593999997E+02  0.45594000000E+02  0.51100000000E-03 0. -1.
         23    2    1    2    0    0  0.35527136788E-14  0.17763568394E-14  0.00000000000E+00  0.91188000000E+02  0.91188000000E+02 0.  0.
    9900012    2    3    3    0    0  0.16388328485E+02  0.96211683913E+01  0.31537836408E+02  0.54367091306E+02  0.40000016251E+02 0.  0.
         12    1    3    3    0    0 -0.16388328485E+02 -0.96211683913E+01 -0.31537836408E+02  0.36820908694E+02  0.00000000000E+00 0. -1.
         11    1    4    4    0    0  0.24919446560E+02 -0.58066848273E+01  0.13267161143E+02  0.28822109059E+02  0.51100000000E-03 0.  1.
        -11    1    4    4    0    0 -0.33503469344E+01  0.69484371102E+01  0.99124463096E+01  0.12560342151E+02  0.51100000000E-03 0. -1.
        -12    1    4    4    0    0 -0.51807711407E+01  0.84794161084E+01  0.83582289558E+01  0.12984640096E+02  0.00000000000E+00 0.  1.
</event>
<event>
 8    1  0.2401680E-006  0.9118800E+02  0.7816164E-02  0.1184000E+00
        -11   -1    0    0    0    0  0.00000000000E+00  0.00000000000E+00  0.45593999997E+02  0.45594000000E+02  0.51100000000E-03 0. -1.
         11   -1    0    0    0    0 -0.00000000000E+00 -0.00000000000E+00 -0.45593999997E+02  0.45594000000E+02  0.51100000000E-03 0.  1.
         23    2    1    2    0    0  0.00000000000E+00  0.17763568394E-14  0.00000000000E+00  0.91188000000E+02  0.91188000000E+02 0.  0.
    9900012    2    3    3    0    0  0.62631558961E+01 -0.13050335408E+02  0.33856155108E+02  0.54367114422E+02  0.40000068949E+02 0.  0.
        -12    1    3    3    0    0 -0.62631558961E+01  0.13050335408E+02 -0.33856155108E+02  0.36820885578E+02  0.00000000000E+00 0.  1.
         11    1    4    4    0    0  0.11169160880E+02  0.44365603364E+01  0.25045910423E+02  0.27780044125E+02  0.51100000000E-03 0. -1.
        -11    1    4    4    0    0 -0.70837002378E+01 -0.12118906517E+02 -0.21394512756E+01  0.14199435068E+02  0.51100000000E-03 0.  1.
         12    1    4    4    0    0  0.21776952534E+01 -0.53679892273E+01  0.10949695960E+02  0.12387635230E+02  0.00000000000E+00 0. -1.
</event>
<event>
 8    1  0.2401680E-006  0.9118800E+02  0.7816164E-02  0.1184000E+00
        -11   -1    0    0    0    0  0.00000000000E+00  0.00000000000E+00  0.45593999997E+02  0.45594000000E+02  0.51100000000E-03 0.  1.
         11   -1    0    0    0    0 -0.00000000000E+00 -0.00000000000E+00 -0.45593999997E+02  0.45594000000E+02  0.51100000000E-03 0. -1.
         23    2    1    2    0    0 -0.35527136788E-14 -0.17763568394E-14 -0.35527136788E-14  0.91188000000E+02  0.91188000000E+02 0.  0.
    9900012    2    3    3    0    0  0.24091177393E+02 -0.13420231938E+02  0.24398709204E+02  0.54367021410E+02  0.39999856909E+02 0.  0.
         12    1    3    3    0    0 -0.24091177393E+02  0.13420231938E+02 -0.24398709204E+02  0.36820978590E+02  0.00000000000E+00 0. -1.
         11    1    4    4    0    0  0.13260086364E+02 -0.39220919988E+01  0.16301253143E+02  0.21376237984E+02  0.51100000000E-03 0. -1.
        -11    1    4    4    0    0 -0.38287489912E+01 -0.13171889150E+02  0.11022744603E+02  0.17597127080E+02  0.51100000000E-03 0.  1.
         12    1    4    4    0    0  0.14659840020E+02  0.36737492106E+01 -0.29252885421E+01  0.15393656347E+02  0.00000000000E+00 0. -1.
</event>
<event>
 8    1  0.2401680E-006  0.9118800E+02  0.7816164E-02  0.1184000E+00
        -11   -1    0    0    0    0  0.00000000000E+00  0.00000000000E+00  0.45593999997E+02  0.45594000000E+02  0.51100000000E-03 0.  1.
         11   -1    0    0    0    0 -0.00000000000E+00 -0.00000000000E+00 -0.45593999997E+02  0.45594000000E+02  0.51100000000E-03 0. -1.
         23    2    1    2    0    0 -0.35527136788E-14 -0.35527136788E-14 -0.35527136788E-14  0.91188000000E+02  0.91188000000E+02 0.  0.
    9900012    2    3    3    0    0 -0.16344998617E+02 -0.29299319051E+02 -0.15172000063E+02  0.54366828610E+02  0.39999417377E+02 0.  0.
        -12    1    3    3    0    0  0.16344998617E+02  0.29299319051E+02  0.15172000063E+02  0.36821171390E+02  0.00000000000E+00 0.  1.
         11    1    4    4    0    0 -0.16110507193E+01 -0.29038592212E+02  0.37661916182E+01  0.29326089437E+02  0.51100000000E-03 0. -1.
        -11    1    4    4    0    0 -0.15548293800E+01  0.80524550136E-02  0.42923221185E+00  0.16130095461E+01  0.51100000000E-03 0.  1.
        -12    1    4    4    0    0 -0.13179118518E+02 -0.26877929395E+00 -0.19367423893E+02  0.23427729627E+02  0.00000000000E+00 0.  1.
</event>
<event>
 8    1  0.2401680E-006  0.9118800E+02  0.7816164E-02  0.1184000E+00
        -11   -1    0    0    0    0  0.00000000000E+00  0.00000000000E+00  0.45593999997E+02  0.45594000000E+02  0.51100000000E-03 0.  1.
         11   -1    0    0    0    0 -0.00000000000E+00 -0.00000000000E+00 -0.45593999997E+02  0.45594000000E+02  0.51100000000E-03 0. -1.
         23    2    1    2    0    0  0.44408920985E-15  0.00000000000E+00  0.00000000000E+00  0.91188000000E+02  0.91188000000E+02 0.  0.
    9900012    2    3    3    0    0  0.17175481981E+01  0.36092703083E+02 -0.70814186192E+01  0.54367086414E+02  0.40000005097E+02 0.  0.
        -12    1    3    3    0    0 -0.17175481981E+01 -0.36092703083E+02  0.70814186192E+01  0.36820913586E+02  0.00000000000E+00 0.  1.
         11    1    4    4    0    0 -0.19226344725E+01  0.18990681136E+01 -0.96516372923E+01  0.10022828228E+02  0.51100000000E-03 0. -1.
        -11    1    4    4    0    0  0.77438454418E+01  0.73122018747E+00  0.68449381559E+01  0.10361225980E+02  0.51100000000E-03 0.  1.
         12    1    4    4    0    0 -0.41036627712E+01  0.33462414782E+02 -0.42747194829E+01  0.33983032205E+02  0.00000000000E+00 0. -1.
</event>
<event>
 8    1  0.2401680E-006  0.9118800E+02  0.7816164E-02  0.1184000E+00
        -11   -1    0    0    0    0  0.00000000000E+00  0.00000000000E+00  0.45593999997E+02  0.45594000000E+02  0.51100000000E-03 0. -1.
         11   -1    0    0    0    0 -0.00000000000E+00 -0.00000000000E+00 -0.45593999997E+02  0.45594000000E+02  0.51100000000E-03 0.  1.
         23    2    1    2    0    0  0.00000000000E+00  0.00000000000E+00 -0.71054273576E-14  0.91188000000E+02  0.91188000000E+02 0.  0.
    9900012    2    3    3    0    0 -0.94443876136E+01 -0.88763188773E+01 -0.34464384378E+02  0.54367091744E+02  0.40000017250E+02 0.  0.
         12    1    3    3    0    0  0.94443876136E+01  0.88763188773E+01  0.34464384378E+02  0.36820908256E+02  0.00000000000E+00 0. -1.
         11    1    4    4    0    0 -0.63619348925E+01 -0.16784091030E+02 -0.10587789345E+02  0.20839414837E+02  0.51100000000E-03 0. -1.
        -11    1    4    4    0    0  0.14198575918E+01 -0.39604052007E+01 -0.19730727722E+02  0.20174301020E+02  0.51100000000E-03 0.  1.
         12    1    4    4    0    0 -0.45023103129E+01  0.11868177353E+02 -0.41458673106E+01  0.13353375887E+02  0.00000000000E+00 0. -1.
</event>
<event>
 8    1  0.2401680E-006  0.9118800E+02  0.7816164E-02  0.1184000E+00
        -11   -1    0    0    0    0  0.00000000000E+00  0.00000000000E+00  0.45593999997E+02  0.45594000000E+02  0.51100000000E-03 0. -1.
         11   -1    0    0    0    0 -0.00000000000E+00 -0.00000000000E+00 -0.45593999997E+02  0.45594000000E+02  0.51100000000E-03 0.  1.
         23    2    1    2    0    0 -0.35527136788E-14  0.17763568394E-14  0.35527136788E-14  0.91188000000E+02  0.91188000000E+02 0.  0.
    9900012    2    3    3    0    0 -0.26735275814E+02 -0.11865435919E+02  0.22365496210E+02  0.54367096112E+02  0.40000027207E+02 0.  0.
        -12    1    3    3    0    0  0.26735275814E+02  0.11865435919E+02 -0.22365496210E+02  0.36820903888E+02  0.00000000000E+00 0.  1.
         11    1    4    4    0    0 -0.67083961539E+00 -0.17452901701E+02  0.16678811777E+02  0.24150291222E+02  0.51100000000E-03 0. -1.
        -11    1    4    4    0    0 -0.10907295647E+02  0.10820182883E+01 -0.40059833581E+01  0.11669951364E+02  0.51100000000E-03 0.  1.
        -12    1    4    4    0    0 -0.15157140552E+02  0.45054474929E+01  0.96926677911E+01  0.18546853526E+02  0.00000000000E+00 0.  1.
</event>
<event>
 8    1  0.2401680E-006  0.9118800E+02  0.7816164E-02  0.1184000E+00
        -11   -1    0    0    0    0  0.00000000000E+00  0.00000000000E+00  0.45593999997E+02  0.45594000000E+02  0.51100000000E-03 0. -1.
         11   -1    0    0    0    0 -0.00000000000E+00 -0.00000000000E+00 -0.45593999997E+02  0.45594000000E+02  0.51100000000E-03 0.  1.
         23    2    1    2    0    0  0.00000000000E+00  0.00000000000E+00  0.00000000000E+00  0.91188000000E+02  0.91188000000E+02 0.  0.
    9900012    2    3    3    0    0 -0.80413364187E+01  0.11424631084E+02  0.34067513639E+02  0.54367071544E+02  0.39999971198E+02 0.  0.
        -12    1    3    3    0    0  0.80413364187E+01 -0.11424631084E+02 -0.34067513639E+02  0.36820928456E+02  0.00000000000E+00 0.  1.
         11    1    4    4    0    0  0.15923555993E+00  0.14489730744E+02  0.25532688542E+02  0.29358062563E+02  0.51100000000E-03 0. -1.
        -11    1    4    4    0    0 -0.13853166024E+02 -0.79979204063E+01  0.61339186232E+01  0.17131897083E+02  0.51100000000E-03 0.  1.
        -12    1    4    4    0    0  0.56525940454E+01  0.49328207467E+01  0.24009064743E+01  0.78771118984E+01  0.00000000000E+00 0.  1.
</event>
<event>
 8    1  0.2401680E-006  0.9118800E+02  0.7816164E-02  0.1184000E+00
        -11   -1    0    0    0    0  0.00000000000E+00  0.00000000000E+00  0.45593999997E+02  0.45594000000E+02  0.51100000000E-03 0.  1.
         11   -1    0    0    0    0 -0.00000000000E+00 -0.00000000000E+00 -0.45593999997E+02  0.45594000000E+02  0.51100000000E-03 0. -1.
         23    2    1    2    0    0  0.00000000000E+00  0.35527136788E-14  0.00000000000E+00  0.91188000000E+02  0.91188000000E+02 0.  0.
    9900012    2    3    3    0    0  0.10246048501E+02  0.25154013725E+02  0.24861089384E+02  0.54367086354E+02  0.40000004960E+02 0.  0.
         12    1    3    3    0    0 -0.10246048501E+02 -0.25154013725E+02 -0.24861089384E+02  0.36820913646E+02  0.00000000000E+00 0. -1.
         11    1    4    4    0    0  0.77274678597E+01 -0.99650957012E+00  0.24085384435E+01  0.81552344259E+01  0.51100000000E-03 0. -1.
        -11    1    4    4    0    0 -0.53821698905E+01  0.21768085133E+02  0.27797515396E+02  0.35714410895E+02  0.51100000000E-03 0.  1.
        -12    1    4    4    0    0  0.79007505321E+01  0.43824381621E+01 -0.53449644553E+01  0.10497441033E+02  0.00000000000E+00 0.  1.
</event>
<event>
 8    1  0.2401680E-006  0.9118800E+02  0.7816164E-02  0.1184000E+00
        -11   -1    0    0    0    0  0.00000000000E+00  0.00000000000E+00  0.45593999997E+02  0.45594000000E+02  0.51100000000E-03 0. -1.
         11   -1    0    0    0    0 -0.00000000000E+00 -0.00000000000E+00 -0.45593999997E+02  0.45594000000E+02  0.51100000000E-03 0.  1.
         23    2    1    2    0    0  0.00000000000E+00  0.00000000000E+00  0.00000000000E+00  0.91188000000E+02  0.91188000000E+02 0.  0.
    9900012    2    3    3    0    0  0.23109156487E+02  0.19640284508E+02 -0.20880779268E+02  0.54367070735E+02  0.39999969355E+02 0.  0.
         12    1    3    3    0    0 -0.23109156487E+02 -0.19640284508E+02  0.20880779268E+02  0.36820929265E+02  0.00000000000E+00 0. -1.
         11    1    4    4    0    0  0.17047819934E+02 -0.19879631804E+01  0.28702728450E+01  0.17401684648E+02  0.51100000000E-03 0. -1.
        -11    1    4    4    0    0  0.11083687264E+02  0.84970667472E+01 -0.91517257120E+01  0.16697375555E+02  0.51100000000E-03 0.  1.
         12    1    4    4    0    0 -0.50223507104E+01  0.13131180941E+02 -0.14599326401E+02  0.20268010532E+02  0.00000000000E+00 0. -1.
</event>
<event>
 8    1  0.2401680E-006  0.9118800E+02  0.7816164E-02  0.1184000E+00
        -11   -1    0    0    0    0  0.00000000000E+00  0.00000000000E+00  0.45593999997E+02  0.45594000000E+02  0.51100000000E-03 0.  1.
         11   -1    0    0    0    0 -0.00000000000E+00 -0.00000000000E+00 -0.45593999997E+02  0.45594000000E+02  0.51100000000E-03 0. -1.
         23    2    1    2    0    0  0.00000000000E+00  0.35527136788E-14  0.00000000000E+00  0.91188000000E+02  0.91188000000E+02 0.  0.
    9900012    2    3    3    0    0  0.27713195230E+02  0.13960544380E+02 -0.19820757703E+02  0.54367076259E+02  0.39999981948E+02 0.  0.
        -12    1    3    3    0    0 -0.27713195230E+02 -0.13960544380E+02  0.19820757703E+02  0.36820923741E+02  0.00000000000E+00 0.  1.
         11    1    4    4    0    0  0.83384584712E+01  0.13028896516E+02 -0.10241332847E+02  0.18551736653E+02  0.51100000000E-03 0. -1.
        -11    1    4    4    0    0 -0.45756353379E+01 -0.12201130177E+01 -0.10742958168E+02  0.11740369031E+02  0.51100000000E-03 0.  1.
        -12    1    4    4    0    0  0.23950372096E+02  0.21517608813E+01  0.11635333111E+01  0.24074970575E+02  0.00000000000E+00 0.  1.
</event>
<event>
 8    1  0.2401680E-006  0.9118800E+02  0.7816164E-02  0.1184000E+00
        -11   -1    0    0    0    0  0.00000000000E+00  0.00000000000E+00  0.45593999997E+02  0.45594000000E+02  0.51100000000E-03 0. -1.
         11   -1    0    0    0    0 -0.00000000000E+00 -0.00000000000E+00 -0.45593999997E+02  0.45594000000E+02  0.51100000000E-03 0.  1.
         23    2    1    2    0    0  0.71054273576E-14  0.00000000000E+00  0.88817841970E-15  0.91188000000E+02  0.91188000000E+02 0.  0.
    9900012    2    3    3    0    0 -0.26106848423E+02  0.25910170484E+02  0.16953890898E+01  0.54367098147E+02  0.40000031847E+02 0.  0.
         12    1    3    3    0    0  0.26106848423E+02 -0.25910170484E+02 -0.16953890898E+01  0.36820901853E+02  0.00000000000E+00 0. -1.
         11    1    4    4    0    0 -0.50343645227E+00  0.62418596275E+01  0.12685991831E+02  0.14147390179E+02  0.51100000000E-03 0. -1.
        -11    1    4    4    0    0  0.14763216866E+00  0.26344334047E+01  0.48477000545E+01  0.55192599777E+01  0.51100000000E-03 0.  1.
        -12    1    4    4    0    0 -0.25751044139E+02  0.17033877451E+02 -0.15838302796E+02  0.34700447991E+02  0.00000000000E+00 0.  1.
</event>
<event>
 8    1  0.2401680E-006  0.9118800E+02  0.7816164E-02  0.1184000E+00
        -11   -1    0    0    0    0  0.00000000000E+00  0.00000000000E+00  0.45593999997E+02  0.45594000000E+02  0.51100000000E-03 0.  1.
         11   -1    0    0    0    0 -0.00000000000E+00 -0.00000000000E+00 -0.45593999997E+02  0.45594000000E+02  0.51100000000E-03 0. -1.
         23    2    1    2    0    0  0.00000000000E+00  0.00000000000E+00  0.00000000000E+00  0.91188000000E+02  0.91188000000E+02 0.  0.
    9900012    2    3    3    0    0 -0.67055284080E+01  0.15560882004E+02 -0.32690585082E+02  0.54367088646E+02  0.40000010186E+02 0.  0.
        -12    1    3    3    0    0  0.67055284080E+01 -0.15560882004E+02  0.32690585082E+02  0.36820911354E+02  0.00000000000E+00 0.  1.
         11    1    4    4    0    0 -0.10626856850E+02  0.17102156150E+02 -0.27885925026E+02  0.34395328844E+02  0.51100000000E-03 0. -1.
        -11    1    4    4    0    0 -0.46902876345E+01 -0.29271009571E+00 -0.91194413573E+01  0.10259078332E+02  0.51100000000E-03 0.  1.
        -12    1    4    4    0    0  0.86116160769E+01 -0.12485640502E+01  0.43147813017E+01  0.97126814693E+01  0.00000000000E+00 0.  1.
</event>
<event>
 8    1  0.2401680E-006  0.9118800E+02  0.7816164E-02  0.1184000E+00
        -11   -1    0    0    0    0  0.00000000000E+00  0.00000000000E+00  0.45593999997E+02  0.45594000000E+02  0.51100000000E-03 0. -1.
         11   -1    0    0    0    0 -0.00000000000E+00 -0.00000000000E+00 -0.45593999997E+02  0.45594000000E+02  0.51100000000E-03 0.  1.
         23    2    1    2    0    0 -0.35527136788E-14 -0.35527136788E-14  0.17763568394E-14  0.91188000000E+02  0.91188000000E+02 0.  0.
    9900012    2    3    3    0    0  0.18796404487E+02  0.29351743744E+02  0.11872241063E+02  0.54367084880E+02  0.40000001600E+02 0.  0.
        -12    1    3    3    0    0 -0.18796404487E+02 -0.29351743744E+02 -0.11872241063E+02  0.36820915120E+02  0.00000000000E+00 0.  1.
         11    1    4    4    0    0 -0.30859458601E+00  0.14714027922E+01  0.21196105382E+00  0.15182834204E+01  0.51100000000E-03 0. -1.
        -11    1    4    4    0    0  0.30385179016E+01  0.27899894957E+02 -0.62872571685E+01  0.28760499520E+02  0.51100000000E-03 0.  1.
        -12    1    4    4    0    0  0.16066481171E+02 -0.19554005157E-01  0.17947537178E+02  0.24088301940E+02  0.00000000000E+00 0.  1.
</event>
<event>
 8    1  0.2401680E-006  0.9118800E+02  0.7816164E-02  0.1184000E+00
        -11   -1    0    0    0    0  0.00000000000E+00  0.00000000000E+00  0.45593999997E+02  0.45594000000E+02  0.51100000000E-03 0.  1.
         11   -1    0    0    0    0 -0.00000000000E+00 -0.00000000000E+00 -0.45593999997E+02  0.45594000000E+02  0.51100000000E-03 0. -1.
         23    2    1    2    0    0 -0.26645352591E-14  0.71054273576E-14 -0.17763568394E-14  0.91188000000E+02  0.91188000000E+02 0.  0.
    9900012    2    3    3    0    0 -0.67004354775E+01  0.34020682142E+02 -0.12388551084E+02  0.54367097690E+02  0.40000030803E+02 0.  0.
        -12    1    3    3    0    0  0.67004354775E+01 -0.34020682142E+02  0.12388551084E+02  0.36820902310E+02  0.00000000000E+00 0.  1.
         11    1    4    4    0    0 -0.87867703162E+01  0.11000344053E+02 -0.16218347806E+02  0.21476724790E+02  0.51100000000E-03 0. -1.
        -11    1    4    4    0    0 -0.45882801076E+01  0.23675250982E+02  0.74871569531E+01  0.25251283986E+02  0.51100000000E-03 0.  1.
        -12    1    4    4    0    0  0.66746149463E+01 -0.65491289317E+00 -0.36573602316E+01  0.76390889145E+01  0.00000000000E+00 0.  1.
</event>
<event>
 8    1  0.2401680E-006  0.9118800E+02  0.7816164E-02  0.1184000E+00
        -11   -1    0    0    0    0  0.00000000000E+00  0.00000000000E+00  0.45593999997E+02  0.45594000000E+02  0.51100000000E-03 0.  1.
         11   -1    0    0    0    0 -0.00000000000E+00 -0.00000000000E+00 -0.45593999997E+02  0.45594000000E+02  0.51100000000E-03 0. -1.
         23    2    1    2    0    0  0.88817841970E-15  0.17763568394E-14  0.00000000000E+00  0.91188000000E+02  0.91188000000E+02 0.  0.
    9900012    2    3    3    0    0  0.64208145034E+01  0.11902713505E+02 -0.34247302628E+02  0.54367093100E+02  0.40000020339E+02 0.  0.
        -12    1    3    3    0    0 -0.64208145034E+01 -0.11902713505E+02  0.34247302628E+02  0.36820906900E+02  0.00000000000E+00 0.  1.
         11    1    4    4    0    0  0.68480902568E+01 -0.23758759634E+01 -0.13399666438E+02  0.15234572120E+02  0.51100000000E-03 0. -1.
        -11    1    4    4    0    0  0.10467501521E+02 -0.27281455519E+01 -0.14238603517E+02  0.17881532278E+02  0.51100000000E-03 0.  1.
         12    1    4    4    0    0 -0.10894777275E+02  0.17006735020E+02 -0.66090326732E+01  0.21250988702E+02  0.00000000000E+00 0. -1.
</event>
<event>
 8    1  0.2401680E-006  0.9118800E+02  0.7816164E-02  0.1184000E+00
        -11   -1    0    0    0    0  0.00000000000E+00  0.00000000000E+00  0.45593999997E+02  0.45594000000E+02  0.51100000000E-03 0. -1.
         11   -1    0    0    0    0 -0.00000000000E+00 -0.00000000000E+00 -0.45593999997E+02  0.45594000000E+02  0.51100000000E-03 0.  1.
         23    2    1    2    0    0  0.00000000000E+00  0.00000000000E+00 -0.88817841970E-15  0.91188000000E+02  0.91188000000E+02 0.  0.
    9900012    2    3    3    0    0  0.31660102584E+02 -0.17124767385E+02 -0.77562787703E+01  0.54367087274E+02  0.40000007059E+02 0.  0.
         12    1    3    3    0    0 -0.31660102584E+02  0.17124767385E+02  0.77562787703E+01  0.36820912726E+02  0.00000000000E+00 0. -1.
         11    1    4    4    0    0  0.15966320638E+02 -0.13117742711E+02 -0.62627922956E+01  0.21592154504E+02  0.51100000000E-03 0. -1.
        -11    1    4    4    0    0  0.22874934527E+02  0.25207711598E+01 -0.16085845064E+01  0.23069557023E+02  0.51100000000E-03 0.  1.
         12    1    4    4    0    0 -0.71811525807E+01 -0.65277958338E+01  0.11509803172E+00  0.97053757471E+01  0.00000000000E+00 0. -1.
</event>
<event>
 8    1  0.2401680E-006  0.9118800E+02  0.7816164E-02  0.1184000E+00
        -11   -1    0    0    0    0  0.00000000000E+00  0.00000000000E+00  0.45593999997E+02  0.45594000000E+02  0.51100000000E-03 0. -1.
         11   -1    0    0    0    0 -0.00000000000E+00 -0.00000000000E+00 -0.45593999997E+02  0.45594000000E+02  0.51100000000E-03 0.  1.
         23    2    1    2    0    0 -0.35527136788E-14 -0.35527136788E-14 -0.17763568394E-14  0.91188000000E+02  0.91188000000E+02 0.  0.
    9900012    2    3    3    0    0  0.19553100036E+02 -0.28489592985E+02 -0.12720036655E+02  0.54367082549E+02  0.39999996286E+02 0.  0.
         12    1    3    3    0    0 -0.19553100036E+02  0.28489592985E+02  0.12720036655E+02  0.36820917451E+02  0.00000000000E+00 0. -1.
         11    1    4    4    0    0 -0.95901620978E+01 -0.93516248284E+01  0.18675337162E+01  0.13524488103E+02  0.51100000000E-03 0. -1.
        -11    1    4    4    0    0  0.29848134565E+02 -0.17223125422E+02 -0.10096013292E+02  0.35909283911E+02  0.51100000000E-03 0.  1.
        -12    1    4    4    0    0 -0.70487243164E+00 -0.19148427337E+01 -0.44915570795E+01  0.49333105353E+01  0.00000000000E+00 0.  1.
</event>
<event>
 8    1  0.2401680E-006  0.9118800E+02  0.7816164E-02  0.1184000E+00
        -11   -1    0    0    0    0  0.00000000000E+00  0.00000000000E+00  0.45593999997E+02  0.45594000000E+02  0.51100000000E-03 0. -1.
         11   -1    0    0    0    0 -0.00000000000E+00 -0.00000000000E+00 -0.45593999997E+02  0.45594000000E+02  0.51100000000E-03 0.  1.
         23    2    1    2    0    0  0.00000000000E+00  0.00000000000E+00  0.00000000000E+00  0.91188000000E+02  0.91188000000E+02 0.  0.
    9900012    2    3    3    0    0 -0.89645314001E+01 -0.12786691710E+02 -0.33345437481E+02  0.54367075121E+02  0.39999979354E+02 0.  0.
         12    1    3    3    0    0  0.89645314001E+01  0.12786691710E+02  0.33345437481E+02  0.36820924879E+02  0.00000000000E+00 0. -1.
         11    1    4    4    0    0 -0.36811182521E+01 -0.30927843656E+01  0.89429431903E+00  0.48903690360E+01  0.51100000000E-03 0. -1.
        -11    1    4    4    0    0  0.63357032068E+01 -0.18732644357E+02 -0.13115193298E+02  0.23728914751E+02  0.51100000000E-03 0.  1.
         12    1    4    4    0    0 -0.11619116355E+02  0.90387370130E+01 -0.21124538502E+02  0.25747791334E+02  0.00000000000E+00 0. -1.
</event>
<event>
 8    1  0.2401680E-006  0.9118800E+02  0.7816164E-02  0.1184000E+00
        -11   -1    0    0    0    0  0.00000000000E+00  0.00000000000E+00  0.45593999997E+02  0.45594000000E+02  0.51100000000E-03 0.  1.
         11   -1    0    0    0    0 -0.00000000000E+00 -0.00000000000E+00 -0.45593999997E+02  0.45594000000E+02  0.51100000000E-03 0. -1.
         23    2    1    2    0    0  0.00000000000E+00  0.17763568394E-14  0.35527136788E-14  0.91188000000E+02  0.91188000000E+02 0.  0.
    9900012    2    3    3    0    0 -0.26301658820E+02 -0.10755921838E+02  0.23416105411E+02  0.54367067042E+02  0.39999960936E+02 0.  0.
        -12    1    3    3    0    0  0.26301658820E+02  0.10755921838E+02 -0.23416105411E+02  0.36820932958E+02  0.00000000000E+00 0.  1.
         11    1    4    4    0    0 -0.92534120405E+01  0.70326088260E+01 -0.56078339646E+01  0.12904689974E+02  0.51100000000E-03 0. -1.
        -11    1    4    4    0    0 -0.49791409760E+01 -0.97825073614E+01  0.25244242885E+01  0.11263303840E+02  0.51100000000E-03 0.  1.
        -12    1    4    4    0    0 -0.12069105803E+02 -0.80060233024E+01  0.26499515087E+02  0.30199073229E+02  0.00000000000E+00 0.  1.
</event>
<event>
 8    1  0.2401680E-006  0.9118800E+02  0.7816164E-02  0.1184000E+00
        -11   -1    0    0    0    0  0.00000000000E+00  0.00000000000E+00  0.45593999997E+02  0.45594000000E+02  0.51100000000E-03 0. -1.
         11   -1    0    0    0    0 -0.00000000000E+00 -0.00000000000E+00 -0.45593999997E+02  0.45594000000E+02  0.51100000000E-03 0.  1.
         23    2    1    2    0    0  0.00000000000E+00  0.00000000000E+00  0.00000000000E+00  0.91188000000E+02  0.91188000000E+02 0.  0.
    9900012    2    3    3    0    0 -0.23118441525E+02  0.24980831158E+02  0.14045488942E+02  0.54367081713E+02  0.39999994381E+02 0.  0.
        -12    1    3    3    0    0  0.23118441525E+02 -0.24980831158E+02 -0.14045488942E+02  0.36820918287E+02  0.00000000000E+00 0.  1.
         11    1    4    4    0    0 -0.91338552706E+01  0.15533342106E+02  0.12141325634E+00  0.18020176762E+02  0.51100000000E-03 0. -1.
        -11    1    4    4    0    0 -0.12127934401E+02  0.17313553471E+02  0.17563444303E+02  0.27483094852E+02  0.51100000000E-03 0.  1.
        -12    1    4    4    0    0 -0.18566518529E+01 -0.78660644183E+01 -0.36393686172E+01  0.88638100988E+01  0.00000000000E+00 0.  1.
</event>
<event>
 8    1  0.2401680E-006  0.9118800E+02  0.7816164E-02  0.1184000E+00
        -11   -1    0    0    0    0  0.00000000000E+00  0.00000000000E+00  0.45593999997E+02  0.45594000000E+02  0.51100000000E-03 0. -1.
         11   -1    0    0    0    0 -0.00000000000E+00 -0.00000000000E+00 -0.45593999997E+02  0.45594000000E+02  0.51100000000E-03 0.  1.
         23    2    1    2    0    0 -0.17763568394E-14  0.00000000000E+00  0.00000000000E+00  0.91188000000E+02  0.91188000000E+02 0.  0.
    9900012    2    3    3    0    0  0.48786798698E+01  0.72714356407E+01 -0.35764591031E+02  0.54367064852E+02  0.39999955943E+02 0.  0.
         12    1    3    3    0    0 -0.48786798698E+01 -0.72714356407E+01  0.35764591031E+02  0.36820935148E+02  0.00000000000E+00 0. -1.
         11    1    4    4    0    0 -0.15403566684E+02  0.40082277026E+01 -0.10103220365E+02  0.18852342505E+02  0.51100000000E-03 0. -1.
        -11    1    4    4    0    0  0.68129545237E+01  0.77571353329E+01 -0.99654618695E+01  0.14349213513E+02  0.51100000000E-03 0.  1.
        -12    1    4    4    0    0  0.13469292030E+02 -0.44939273948E+01 -0.15695908797E+02  0.21165508834E+02  0.00000000000E+00 0.  1.
</event>
<event>
 8    1  0.2401680E-006  0.9118800E+02  0.7816164E-02  0.1184000E+00
        -11   -1    0    0    0    0  0.00000000000E+00  0.00000000000E+00  0.45593999997E+02  0.45594000000E+02  0.51100000000E-03 0.  1.
         11   -1    0    0    0    0 -0.00000000000E+00 -0.00000000000E+00 -0.45593999997E+02  0.45594000000E+02  0.51100000000E-03 0. -1.
         23    2    1    2    0    0 -0.35527136788E-14 -0.17763568394E-14  0.35527136788E-14  0.91188000000E+02  0.91188000000E+02 0.  0.
    9900012    2    3    3    0    0  0.21770537133E+02  0.79463988338E+01 -0.28612556902E+02  0.54367082657E+02  0.39999996533E+02 0.  0.
        -12    1    3    3    0    0 -0.21770537133E+02 -0.79463988338E+01  0.28612556902E+02  0.36820917343E+02  0.00000000000E+00 0.  1.
         11    1    4    4    0    0  0.20281287563E+02  0.88457996848E+01 -0.12488593203E+02  0.25407553163E+02  0.51100000000E-03 0. -1.
        -11    1    4    4    0    0 -0.45658680950E+01  0.36957169365E+01 -0.19701409189E+02  0.20558477557E+02  0.51100000000E-03 0.  1.
        -12    1    4    4    0    0  0.60551176651E+01 -0.45951177874E+01  0.35774454896E+01  0.84010519371E+01  0.00000000000E+00 0.  1.
</event>
<event>
 8    1  0.2401680E-006  0.9118800E+02  0.7816164E-02  0.1184000E+00
        -11   -1    0    0    0    0  0.00000000000E+00  0.00000000000E+00  0.45593999997E+02  0.45594000000E+02  0.51100000000E-03 0.  1.
         11   -1    0    0    0    0 -0.00000000000E+00 -0.00000000000E+00 -0.45593999997E+02  0.45594000000E+02  0.51100000000E-03 0. -1.
         23    2    1    2    0    0  0.00000000000E+00  0.00000000000E+00  0.00000000000E+00  0.91188000000E+02  0.91188000000E+02 0.  0.
    9900012    2    3    3    0    0  0.16125000789E+02  0.26900322300E+02  0.19290699271E+02  0.54367162575E+02  0.40000178722E+02 0.  0.
        -12    1    3    3    0    0 -0.16125000789E+02 -0.26900322300E+02 -0.19290699271E+02  0.36820837425E+02  0.00000000000E+00 0.  1.
         11    1    4    4    0    0  0.82109931593E+00  0.58481049726E+01 -0.10903140540E+02  0.12399718132E+02  0.51100000000E-03 0. -1.
        -11    1    4    4    0    0  0.57433297665E+01  0.27488266177E+01  0.13749802238E+01  0.65140199154E+01  0.51100000000E-03 0.  1.
        -12    1    4    4    0    0  0.95605717071E+01  0.18303390710E+02  0.28818859587E+02  0.35453424528E+02  0.00000000000E+00 0.  1.
</event>
<event>
 8    1  0.2401680E-006  0.9118800E+02  0.7816164E-02  0.1184000E+00
        -11   -1    0    0    0    0  0.00000000000E+00  0.00000000000E+00  0.45593999997E+02  0.45594000000E+02  0.51100000000E-03 0. -1.
         11   -1    0    0    0    0 -0.00000000000E+00 -0.00000000000E+00 -0.45593999997E+02  0.45594000000E+02  0.51100000000E-03 0.  1.
         23    2    1    2    0    0  0.17763568394E-14 -0.17763568394E-14  0.00000000000E+00  0.91188000000E+02  0.91188000000E+02 0.  0.
    9900012    2    3    3    0    0 -0.11405810040E+02  0.12528340989E+02  0.32691405702E+02  0.54367084241E+02  0.40000000144E+02 0.  0.
        -12    1    3    3    0    0  0.11405810040E+02 -0.12528340989E+02 -0.32691405702E+02  0.36820915759E+02  0.00000000000E+00 0.  1.
         11    1    4    4    0    0  0.21263066645E+01  0.37512505803E+01  0.15531688413E+02  0.16119131681E+02  0.51100000000E-03 0. -1.
        -11    1    4    4    0    0 -0.12127309375E+02 -0.58955589859E+01  0.19100772027E+02  0.23380948242E+02  0.51100000000E-03 0.  1.
         12    1    4    4    0    0 -0.14048073296E+01  0.14672649394E+02 -0.19410547378E+01  0.14867004317E+02  0.00000000000E+00 0. -1.
</event>
<event>
 8    1  0.2401680E-006  0.9118800E+02  0.7816164E-02  0.1184000E+00
        -11   -1    0    0    0    0  0.00000000000E+00  0.00000000000E+00  0.45593999997E+02  0.45594000000E+02  0.51100000000E-03 0.  1.
         11   -1    0    0    0    0 -0.00000000000E+00 -0.00000000000E+00 -0.45593999997E+02  0.45594000000E+02  0.51100000000E-03 0. -1.
         23    2    1    2    0    0  0.35527136788E-14 -0.17763568394E-14  0.35527136788E-14  0.91188000000E+02  0.91188000000E+02 0.  0.
    9900012    2    3    3    0    0 -0.21618635197E+02 -0.15398908118E+02 -0.25520355778E+02  0.54367077713E+02  0.39999985263E+02 0.  0.
        -12    1    3    3    0    0  0.21618635197E+02  0.15398908118E+02  0.25520355778E+02  0.36820922287E+02  0.00000000000E+00 0.  1.
         11    1    4    4    0    0  0.29670389045E+01 -0.45561833722E+01 -0.19842335623E+02  0.20573779672E+02  0.51100000000E-03 0. -1.
        -11    1    4    4    0    0 -0.57707803705E+01 -0.29627468572E+00  0.67613951284E+01  0.88941637672E+01  0.51100000000E-03 0.  1.
         12    1    4    4    0    0 -0.18814893731E+02 -0.10546450060E+02 -0.12439415284E+02  0.24899134274E+02  0.00000000000E+00 0. -1.
</event>
<event>
 8    1  0.2401680E-006  0.9118800E+02  0.7816164E-02  0.1184000E+00
        -11   -1    0    0    0    0  0.00000000000E+00  0.00000000000E+00  0.45593999997E+02  0.45594000000E+02  0.51100000000E-03 0.  1.
         11   -1    0    0    0    0 -0.00000000000E+00 -0.00000000000E+00 -0.45593999997E+02  0.45594000000E+02  0.51100000000E-03 0. -1.
         23    2    1    2    0    0  0.00000000000E+00  0.35527136788E-14  0.00000000000E+00  0.91188000000E+02  0.91188000000E+02 0.  0.
    9900012    2    3    3    0    0  0.29656283664E+01 -0.21085406949E+02  0.30039799921E+02  0.54367096737E+02  0.40000028631E+02 0.  0.
         12    1    3    3    0    0 -0.29656283664E+01  0.21085406949E+02 -0.30039799921E+02  0.36820903263E+02  0.00000000000E+00 0. -1.
         11    1    4    4    0    0  0.33414385298E+01  0.44622699832E+01  0.26186409297E+02  0.26773216038E+02  0.51100000000E-03 0. -1.
        -11    1    4    4    0    0 -0.81861769995E-02 -0.12444840203E+02  0.67674319015E+01  0.14165883294E+02  0.51100000000E-03 0.  1.
         12    1    4    4    0    0 -0.36762398643E+00 -0.13102836729E+02 -0.29140412778E+01  0.13427997405E+02  0.00000000000E+00 0. -1.
</event>
<event>
 8    1  0.2401680E-006  0.9118800E+02  0.7816164E-02  0.1184000E+00
        -11   -1    0    0    0    0  0.00000000000E+00  0.00000000000E+00  0.45593999997E+02  0.45594000000E+02  0.51100000000E-03 0.  1.
         11   -1    0    0    0    0 -0.00000000000E+00 -0.00000000000E+00 -0.45593999997E+02  0.45594000000E+02  0.51100000000E-03 0. -1.
         23    2    1    2    0    0  0.00000000000E+00  0.00000000000E+00  0.00000000000E+00  0.91188000000E+02  0.91188000000E+02 0.  0.
    9900012    2    3    3    0    0  0.72016759955E+01 -0.32242471159E+02  0.16258505417E+02  0.54367080919E+02  0.39999992572E+02 0.  0.
        -12    1    3    3    0    0 -0.72016759955E+01  0.32242471159E+02 -0.16258505417E+02  0.36820919081E+02  0.00000000000E+00 0.  1.
         11    1    4    4    0    0  0.17858257736E+02 -0.31085733646E+02  0.66528371072E+01  0.36462315444E+02  0.51100000000E-03 0. -1.
        -11    1    4    4    0    0 -0.16796538345E+00  0.35853092495E+01  0.25634092580E+01  0.44106373768E+01  0.51100000000E-03 0.  1.
         12    1    4    4    0    0 -0.10488616357E+02 -0.47420467620E+01  0.70422590520E+01  0.13494128099E+02  0.00000000000E+00 0. -1.
</event>
<event>
 8    1  0.2401680E-006  0.9118800E+02  0.7816164E-02  0.1184000E+00
        -11   -1    0    0    0    0  0.00000000000E+00  0.00000000000E+00  0.45593999997E+02  0.45594000000E+02  0.51100000000E-03 0. -1.
         11   -1    0    0    0    0 -0.00000000000E+00 -0.00000000000E+00 -0.45593999997E+02  0.45594000000E+02  0.51100000000E-03 0.  1.
         23    2    1    2    0    0 -0.35527136788E-14  0.53290705182E-14 -0.35527136788E-14  0.91188000000E+02  0.91188000000E+02 0.  0.
    9900012    2    3    3    0    0 -0.30380639557E+02  0.13579708491E+02 -0.15760322766E+02  0.54367088601E+02  0.40000010084E+02 0.  0.
        -12    1    3    3    0    0  0.30380639557E+02 -0.13579708491E+02  0.15760322766E+02  0.36820911399E+02  0.00000000000E+00 0.  1.
         11    1    4    4    0    0 -0.11867628603E+02  0.16038155453E+02 -0.93322744948E+01  0.22026220431E+02  0.51100000000E-03 0. -1.
        -11    1    4    4    0    0 -0.15966174665E+02 -0.12427722468E+02 -0.83239822028E+01  0.21878201460E+02  0.51100000000E-03 0.  1.
        -12    1    4    4    0    0 -0.25468362893E+01  0.99692755060E+01  0.18959339321E+01  0.10462666709E+02  0.00000000000E+00 0.  1.
</event>
<event>
 8    1  0.2401680E-006  0.9118800E+02  0.7816164E-02  0.1184000E+00
        -11   -1    0    0    0    0  0.00000000000E+00  0.00000000000E+00  0.45593999997E+02  0.45594000000E+02  0.51100000000E-03 0.  1.
         11   -1    0    0    0    0 -0.00000000000E+00 -0.00000000000E+00 -0.45593999997E+02  0.45594000000E+02  0.51100000000E-03 0. -1.
         23    2    1    2    0    0  0.00000000000E+00  0.17763568394E-14 -0.88817841970E-15  0.91188000000E+02  0.91188000000E+02 0.  0.
    9900012    2    3    3    0    0  0.33042269655E+02  0.14931860607E+02 -0.64052865078E+01  0.54367085557E+02  0.40000003145E+02 0.  0.
        -12    1    3    3    0    0 -0.33042269655E+02 -0.14931860607E+02  0.64052865078E+01  0.36820914443E+02  0.00000000000E+00 0.  1.
         11    1    4    4    0    0  0.38633832734E+02  0.68694245606E+01 -0.36660795382E+01  0.39410685923E+02  0.51100000000E-03 0. -1.
        -11    1    4    4    0    0 -0.28148336702E+01  0.33603803715E+01  0.42373946034E+01  0.60967990059E+01  0.51100000000E-03 0.  1.
        -12    1    4    4    0    0 -0.27767294086E+01  0.47020556751E+01 -0.69766015729E+01  0.88596006280E+01  0.00000000000E+00 0.  1.
</event>
<event>
 8    1  0.2401680E-006  0.9118800E+02  0.7816164E-02  0.1184000E+00
        -11   -1    0    0    0    0  0.00000000000E+00  0.00000000000E+00  0.45593999997E+02  0.45594000000E+02  0.51100000000E-03 0. -1.
         11   -1    0    0    0    0 -0.00000000000E+00 -0.00000000000E+00 -0.45593999997E+02  0.45594000000E+02  0.51100000000E-03 0.  1.
         23    2    1    2    0    0  0.00000000000E+00  0.00000000000E+00  0.17763568394E-14  0.91188000000E+02  0.91188000000E+02 0.  0.
    9900012    2    3    3    0    0 -0.30411742536E+02 -0.16718333074E+02 -0.12304595416E+02  0.54367084569E+02  0.40000000891E+02 0.  0.
         12    1    3    3    0    0  0.30411742536E+02  0.16718333074E+02  0.12304595416E+02  0.36820915431E+02  0.00000000000E+00 0. -1.
         11    1    4    4    0    0  0.55169203121E+01  0.56392140148E+01 -0.45132781107E+01  0.90888296277E+01  0.51100000000E-03 0. -1.
        -11    1    4    4    0    0 -0.16937718252E+02 -0.73366229161E+01 -0.99491755421E+01  0.20968987329E+02  0.51100000000E-03 0.  1.
        -12    1    4    4    0    0 -0.18990944596E+02 -0.15020924173E+02  0.21578582363E+01  0.24309267612E+02  0.00000000000E+00 0.  1.
</event>
<event>
 8    1  0.2401680E-006  0.9118800E+02  0.7816164E-02  0.1184000E+00
        -11   -1    0    0    0    0  0.00000000000E+00  0.00000000000E+00  0.45593999997E+02  0.45594000000E+02  0.51100000000E-03 0. -1.
         11   -1    0    0    0    0 -0.00000000000E+00 -0.00000000000E+00 -0.45593999997E+02  0.45594000000E+02  0.51100000000E-03 0.  1.
         23    2    1    2    0    0  0.88817841970E-15  0.00000000000E+00  0.35527136788E-14  0.91188000000E+02  0.91188000000E+02 0.  0.
    9900012    2    3    3    0    0 -0.34797168691E+01  0.24628561388E+02  0.27149506807E+02  0.54367215307E+02  0.40000298935E+02 0.  0.
        -12    1    3    3    0    0  0.34797168691E+01 -0.24628561388E+02 -0.27149506807E+02  0.36820784693E+02  0.00000000000E+00 0.  1.
         11    1    4    4    0    0  0.14587237069E+02  0.27102217226E+01  0.14569330638E+02  0.20794186269E+02  0.51100000000E-03 0. -1.
        -11    1    4    4    0    0 -0.62208379838E+01  0.10858171205E+02  0.12027591216E+02  0.17356890789E+02  0.51100000000E-03 0.  1.
        -12    1    4    4    0    0 -0.11846115954E+02  0.11060168460E+02  0.55258495266E+00  0.16216138249E+02  0.00000000000E+00 0.  1.
</event>
<event>
 8    1  0.2401680E-006  0.9118800E+02  0.7816164E-02  0.1184000E+00
        -11   -1    0    0    0    0  0.00000000000E+00  0.00000000000E+00  0.45593999997E+02  0.45594000000E+02  0.51100000000E-03 0.  1.
         11   -1    0    0    0    0 -0.00000000000E+00 -0.00000000000E+00 -0.45593999997E+02  0.45594000000E+02  0.51100000000E-03 0. -1.
         23    2    1    2    0    0 -0.35527136788E-14  0.00000000000E+00 -0.35527136788E-14  0.91188000000E+02  0.91188000000E+02 0.  0.
    9900012    2    3    3    0    0 -0.31505341868E+02  0.13963544590E+02  0.12969677010E+02  0.54367086575E+02  0.40000005464E+02 0.  0.
         12    1    3    3    0    0  0.31505341868E+02 -0.13963544590E+02 -0.12969677010E+02  0.36820913425E+02  0.00000000000E+00 0. -1.
         11    1    4    4    0    0 -0.18342560597E+02  0.13726891520E+01  0.59630440008E+01  0.19336279342E+02  0.51100000000E-03 0. -1.
        -11    1    4    4    0    0 -0.43138741472E+01  0.30643616098E+01  0.17525215717E+02  0.18306638370E+02  0.51100000000E-03 0.  1.
        -12    1    4    4    0    0 -0.88489071244E+01  0.95264938277E+01 -0.10518582708E+02  0.16724168862E+02  0.00000000000E+00 0.  1.
</event>
<event>
 8    1  0.2401680E-006  0.9118800E+02  0.7816164E-02  0.1184000E+00
        -11   -1    0    0    0    0  0.00000000000E+00  0.00000000000E+00  0.45593999997E+02  0.45594000000E+02  0.51100000000E-03 0.  1.
         11   -1    0    0    0    0 -0.00000000000E+00 -0.00000000000E+00 -0.45593999997E+02  0.45594000000E+02  0.51100000000E-03 0. -1.
         23    2    1    2    0    0 -0.66613381478E-15  0.00000000000E+00  0.00000000000E+00  0.91188000000E+02  0.91188000000E+02 0.  0.
    9900012    2    3    3    0    0 -0.16750168518E+01  0.32592777795E+02  0.17049615629E+02  0.54367024471E+02  0.39999863885E+02 0.  0.
         12    1    3    3    0    0  0.16750168518E+01 -0.32592777795E+02 -0.17049615629E+02  0.36820975529E+02  0.00000000000E+00 0. -1.
         11    1    4    4    0    0  0.56219912268E+01 -0.24306548010E+01  0.21761696674E+01  0.65000448305E+01  0.51100000000E-03 0. -1.
        -11    1    4    4    0    0 -0.98503401643E+01  0.39297410735E+02  0.13483199186E+02  0.42697919767E+02  0.51100000000E-03 0.  1.
        -12    1    4    4    0    0  0.25533320857E+01 -0.42739781396E+01  0.13902467759E+01  0.51690598734E+01  0.00000000000E+00 0.  1.
</event>
<event>
 8    1  0.2401680E-006  0.9118800E+02  0.7816164E-02  0.1184000E+00
        -11   -1    0    0    0    0  0.00000000000E+00  0.00000000000E+00  0.45593999997E+02  0.45594000000E+02  0.51100000000E-03 0. -1.
         11   -1    0    0    0    0 -0.00000000000E+00 -0.00000000000E+00 -0.45593999997E+02  0.45594000000E+02  0.51100000000E-03 0.  1.
         23    2    1    2    0    0  0.00000000000E+00  0.17763568394E-14  0.35527136788E-14  0.91188000000E+02  0.91188000000E+02 0.  0.
    9900012    2    3    3    0    0 -0.29458340748E+02 -0.14002870418E+02 -0.17085247679E+02  0.54367083284E+02  0.39999997963E+02 0.  0.
         12    1    3    3    0    0  0.29458340748E+02  0.14002870418E+02  0.17085247679E+02  0.36820916716E+02  0.00000000000E+00 0. -1.
         11    1    4    4    0    0  0.51600157802E+00 -0.75713121726E+00  0.16544323374E-01  0.91639472087E+00  0.51100000000E-03 0. -1.
        -11    1    4    4    0    0 -0.54213855096E+01 -0.12873156675E+01 -0.24524592099E+02  0.25149636585E+02  0.51100000000E-03 0.  1.
         12    1    4    4    0    0 -0.24552956816E+02 -0.11958423533E+02  0.74228000966E+01  0.28301051979E+02  0.00000000000E+00 0. -1.
</event>
<event>
 8    1  0.2401680E-006  0.9118800E+02  0.7816164E-02  0.1184000E+00
        -11   -1    0    0    0    0  0.00000000000E+00  0.00000000000E+00  0.45593999997E+02  0.45594000000E+02  0.51100000000E-03 0. -1.
         11   -1    0    0    0    0 -0.00000000000E+00 -0.00000000000E+00 -0.45593999997E+02  0.45594000000E+02  0.51100000000E-03 0.  1.
         23    2    1    2    0    0 -0.88817841970E-15 -0.17763568394E-14  0.00000000000E+00  0.91188000000E+02  0.91188000000E+02 0.  0.
    9900012    2    3    3    0    0  0.79808402943E+01  0.96914819992E+01  0.34614465811E+02  0.54367083682E+02  0.39999998869E+02 0.  0.
        -12    1    3    3    0    0 -0.79808402943E+01 -0.96914819992E+01 -0.34614465811E+02  0.36820916318E+02  0.00000000000E+00 0.  1.
         11    1    4    4    0    0  0.18032838060E+02  0.25112836322E+01  0.37080652909E+01  0.18580622768E+02  0.51100000000E-03 0. -1.
        -11    1    4    4    0    0 -0.23319526687E+01 -0.38617444371E+01  0.65740280311E+01  0.79730118626E+01  0.51100000000E-03 0.  1.
        -12    1    4    4    0    0 -0.77200450969E+01  0.11041942804E+02  0.24332372489E+02  0.27813449051E+02  0.00000000000E+00 0.  1.
</event>
<event>
 8    1  0.2401680E-006  0.9118800E+02  0.7816164E-02  0.1184000E+00
        -11   -1    0    0    0    0  0.00000000000E+00  0.00000000000E+00  0.45593999997E+02  0.45594000000E+02  0.51100000000E-03 0.  1.
         11   -1    0    0    0    0 -0.00000000000E+00 -0.00000000000E+00 -0.45593999997E+02  0.45594000000E+02  0.51100000000E-03 0. -1.
         23    2    1    2    0    0  0.00000000000E+00  0.00000000000E+00  0.35527136788E-14  0.91188000000E+02  0.91188000000E+02 0.  0.
    9900012    2    3    3    0    0  0.21213431023E+01  0.23536120713E+02  0.28237038719E+02  0.54367089766E+02  0.40000012741E+02 0.  0.
         12    1    3    3    0    0 -0.21213431023E+01 -0.23536120713E+02 -0.28237038719E+02  0.36820910234E+02  0.00000000000E+00 0. -1.
         11    1    4    4    0    0 -0.15666004088E+01 -0.29261074150E+01 -0.64398978845E+01  0.72449034824E+01  0.51100000000E-03 0. -1.
        -11    1    4    4    0    0 -0.19774682283E+01  0.14439016684E+02  0.64794933215E+01  0.15949276390E+02  0.51100000000E-03 0.  1.
        -12    1    4    4    0    0  0.56654117393E+01  0.12023211444E+02  0.28197443282E+02  0.31172909894E+02  0.00000000000E+00 0.  1.
</event>
<event>
 8    1  0.2401680E-006  0.9118800E+02  0.7816164E-02  0.1184000E+00
        -11   -1    0    0    0    0  0.00000000000E+00  0.00000000000E+00  0.45593999997E+02  0.45594000000E+02  0.51100000000E-03 0.  1.
         11   -1    0    0    0    0 -0.00000000000E+00 -0.00000000000E+00 -0.45593999997E+02  0.45594000000E+02  0.51100000000E-03 0. -1.
         23    2    1    2    0    0  0.00000000000E+00 -0.71054273576E-14  0.35527136788E-14  0.91188000000E+02  0.91188000000E+02 0.  0.
    9900012    2    3    3    0    0 -0.18937518108E+02 -0.25579279525E+02  0.18516205662E+02  0.54367095540E+02  0.40000025903E+02 0.  0.
         12    1    3    3    0    0  0.18937518108E+02  0.25579279525E+02 -0.18516205662E+02  0.36820904460E+02  0.00000000000E+00 0. -1.
         11    1    4    4    0    0  0.52132602520E+01 -0.67844354275E+01  0.15570048853E+02  0.17766065070E+02  0.51100000000E-03 0. -1.
        -11    1    4    4    0    0 -0.18599137180E+02 -0.22829002066E+02  0.37797114707E+01  0.29688001924E+02  0.51100000000E-03 0.  1.
         12    1    4    4    0    0 -0.55516411804E+01  0.40341579690E+01 -0.83355466117E+00  0.69130285467E+01  0.00000000000E+00 0. -1.
</event>
<event>
 8    1  0.2401680E-006  0.9118800E+02  0.7816164E-02  0.1184000E+00
        -11   -1    0    0    0    0  0.00000000000E+00  0.00000000000E+00  0.45593999997E+02  0.45594000000E+02  0.51100000000E-03 0.  1.
         11   -1    0    0    0    0 -0.00000000000E+00 -0.00000000000E+00 -0.45593999997E+02  0.45594000000E+02  0.51100000000E-03 0. -1.
         23    2    1    2    0    0  0.00000000000E+00  0.00000000000E+00  0.00000000000E+00  0.91188000000E+02  0.91188000000E+02 0.  0.
    9900012    2    3    3    0    0 -0.28660947677E+02  0.22461449354E+02  0.54601096535E+01  0.54367089823E+02  0.40000012870E+02 0.  0.
         12    1    3    3    0    0  0.28660947677E+02 -0.22461449354E+02 -0.54601096535E+01  0.36820910177E+02  0.00000000000E+00 0. -1.
         11    1    4    4    0    0 -0.23633542838E+00  0.10773052976E+02  0.12482841100E+01  0.10847706594E+02  0.51100000000E-03 0. -1.
        -11    1    4    4    0    0 -0.95069697817E+01  0.19430254032E+02  0.73360416847E+01  0.22841513829E+02  0.51100000000E-03 0.  1.
        -12    1    4    4    0    0 -0.18917642467E+02 -0.77418576535E+01 -0.31242161413E+01  0.20677869400E+02  0.00000000000E+00 0.  1.
</event>
<event>
 8    1  0.2401680E-006  0.9118800E+02  0.7816164E-02  0.1184000E+00
        -11   -1    0    0    0    0  0.00000000000E+00  0.00000000000E+00  0.45593999997E+02  0.45594000000E+02  0.51100000000E-03 0.  1.
         11   -1    0    0    0    0 -0.00000000000E+00 -0.00000000000E+00 -0.45593999997E+02  0.45594000000E+02  0.51100000000E-03 0. -1.
         23    2    1    2    0    0  0.53290705182E-14  0.00000000000E+00  0.00000000000E+00  0.91188000000E+02  0.91188000000E+02 0.  0.
    9900012    2    3    3    0    0 -0.46748945710E+01  0.77160202549E+01  0.35698575462E+02  0.54367083419E+02  0.39999998271E+02 0.  0.
         12    1    3    3    0    0  0.46748945710E+01 -0.77160202549E+01 -0.35698575462E+02  0.36820916581E+02  0.00000000000E+00 0. -1.
         11    1    4    4    0    0  0.13082806818E+02  0.43741076985E+01  0.30534786865E+02  0.33506206314E+02  0.51100000000E-03 0. -1.
        -11    1    4    4    0    0 -0.49689579296E+01  0.37894536090E+01  0.50970293431E+01  0.80641310720E+01  0.51100000000E-03 0.  1.
         12    1    4    4    0    0 -0.12788743459E+02 -0.44754105262E+00  0.66759253872E-01  0.12796746034E+02  0.00000000000E+00 0. -1.
</event>
<event>
 8    1  0.2401680E-006  0.9118800E+02  0.7816164E-02  0.1184000E+00
        -11   -1    0    0    0    0  0.00000000000E+00  0.00000000000E+00  0.45593999997E+02  0.45594000000E+02  0.51100000000E-03 0.  1.
         11   -1    0    0    0    0 -0.00000000000E+00 -0.00000000000E+00 -0.45593999997E+02  0.45594000000E+02  0.51100000000E-03 0. -1.
         23    2    1    2    0    0  0.00000000000E+00  0.17763568394E-14  0.00000000000E+00  0.91188000000E+02  0.91188000000E+02 0.  0.
    9900012    2    3    3    0    0  0.11753663679E+02  0.87212706816E+01 -0.33787123930E+02  0.54367096757E+02  0.40000028676E+02 0.  0.
        -12    1    3    3    0    0 -0.11753663679E+02 -0.87212706816E+01  0.33787123930E+02  0.36820903243E+02  0.00000000000E+00 0.  1.
         11    1    4    4    0    0  0.35854137328E+01  0.18023196023E+02 -0.27959133050E+02  0.33457494044E+02  0.51100000000E-03 0. -1.
        -11    1    4    4    0    0  0.11554147738E+02 -0.10723033371E+02 -0.25125679268E+01  0.15962292206E+02  0.51100000000E-03 0.  1.
        -12    1    4    4    0    0 -0.33858977916E+01  0.14211080301E+01 -0.33154229535E+01  0.49473105067E+01  0.00000000000E+00 0.  1.
</event>
<event>
 8    1  0.2401680E-006  0.9118800E+02  0.7816164E-02  0.1184000E+00
        -11   -1    0    0    0    0  0.00000000000E+00  0.00000000000E+00  0.45593999997E+02  0.45594000000E+02  0.51100000000E-03 0.  1.
         11   -1    0    0    0    0 -0.00000000000E+00 -0.00000000000E+00 -0.45593999997E+02  0.45594000000E+02  0.51100000000E-03 0. -1.
         23    2    1    2    0    0  0.00000000000E+00  0.00000000000E+00  0.88817841970E-15  0.91188000000E+02  0.91188000000E+02 0.  0.
    9900012    2    3    3    0    0 -0.25498654381E+02 -0.26182171481E+02 -0.44825491662E+01  0.54367072177E+02  0.39999972643E+02 0.  0.
        -12    1    3    3    0    0  0.25498654381E+02  0.26182171481E+02  0.44825491662E+01  0.36820927823E+02  0.00000000000E+00 0.  1.
         11    1    4    4    0    0 -0.66645568438E+01  0.33524065346E+01 -0.86477570944E+01  0.11420974149E+02  0.51100000000E-03 0. -1.
        -11    1    4    4    0    0 -0.48685219385E+01 -0.26888347385E+02 -0.21132641585E+01  0.27407145357E+02  0.51100000000E-03 0.  1.
        -12    1    4    4    0    0 -0.13965575599E+02 -0.26462306302E+01  0.62784720867E+01  0.15538952671E+02  0.00000000000E+00 0.  1.
</event>
<event>
 8    1  0.2401680E-006  0.9118800E+02  0.7816164E-02  0.1184000E+00
        -11   -1    0    0    0    0  0.00000000000E+00  0.00000000000E+00  0.45593999997E+02  0.45594000000E+02  0.51100000000E-03 0. -1.
         11   -1    0    0    0    0 -0.00000000000E+00 -0.00000000000E+00 -0.45593999997E+02  0.45594000000E+02  0.51100000000E-03 0.  1.
         23    2    1    2    0    0  0.35527136788E-14  0.17763568394E-14  0.00000000000E+00  0.91188000000E+02  0.91188000000E+02 0.  0.
    9900012    2    3    3    0    0  0.30226793466E+02  0.14062654610E+02  0.15632084654E+02  0.54367090607E+02  0.40000014657E+02 0.  0.
         12    1    3    3    0    0 -0.30226793466E+02 -0.14062654610E+02 -0.15632084654E+02  0.36820909393E+02  0.00000000000E+00 0. -1.
         11    1    4    4    0    0 -0.23013216325E+01 -0.11147874001E+00  0.75609977752E+01  0.79042517915E+01  0.51100000000E-03 0. -1.
        -11    1    4    4    0    0  0.11712981743E+02  0.18909419588E+02  0.11173002620E+02  0.24891686931E+02  0.51100000000E-03 0.  1.
        -12    1    4    4    0    0  0.20815133355E+02 -0.47352862386E+01 -0.31019157412E+01  0.21571151884E+02  0.00000000000E+00 0.  1.
</event>
<event>
 8    1  0.2401680E-006  0.9118800E+02  0.7816164E-02  0.1184000E+00
        -11   -1    0    0    0    0  0.00000000000E+00  0.00000000000E+00  0.45593999997E+02  0.45594000000E+02  0.51100000000E-03 0.  1.
         11   -1    0    0    0    0 -0.00000000000E+00 -0.00000000000E+00 -0.45593999997E+02  0.45594000000E+02  0.51100000000E-03 0. -1.
         23    2    1    2    0    0 -0.17763568394E-14  0.00000000000E+00 -0.17763568394E-14  0.91188000000E+02  0.91188000000E+02 0.  0.
    9900012    2    3    3    0    0  0.95990741546E+01  0.32073089842E+02 -0.15327968456E+02  0.54367191568E+02  0.40000244816E+02 0.  0.
        -12    1    3    3    0    0 -0.95990741546E+01 -0.32073089842E+02  0.15327968456E+02  0.36820808432E+02  0.00000000000E+00 0.  1.
         11    1    4    4    0    0  0.30989662448E+01  0.69900230871E+01 -0.10481078756E+02  0.12973705203E+02  0.51100000000E-03 0. -1.
        -11    1    4    4    0    0 -0.56334332393E+01  0.65985864362E+01  0.11131459887E+02  0.14113338106E+02  0.51100000000E-03 0.  1.
        -12    1    4    4    0    0  0.12133541149E+02  0.18484480318E+02 -0.15978349587E+02  0.27280148258E+02  0.00000000000E+00 0.  1.
</event>
<event>
 8    1  0.2401680E-006  0.9118800E+02  0.7816164E-02  0.1184000E+00
        -11   -1    0    0    0    0  0.00000000000E+00  0.00000000000E+00  0.45593999997E+02  0.45594000000E+02  0.51100000000E-03 0.  1.
         11   -1    0    0    0    0 -0.00000000000E+00 -0.00000000000E+00 -0.45593999997E+02  0.45594000000E+02  0.51100000000E-03 0. -1.
         23    2    1    2    0    0  0.00000000000E+00 -0.35527136788E-14  0.00000000000E+00  0.91188000000E+02  0.91188000000E+02 0.  0.
    9900012    2    3    3    0    0 -0.25924130699E+02  0.16685240840E+02 -0.20132574109E+02  0.54367104374E+02  0.40000046042E+02 0.  0.
        -12    1    3    3    0    0  0.25924130699E+02 -0.16685240840E+02  0.20132574109E+02  0.36820895626E+02  0.00000000000E+00 0.  1.
         11    1    4    4    0    0 -0.25767264537E+02  0.15499816000E+02 -0.76533072732E+00  0.30079593567E+02  0.51100000000E-03 0. -1.
        -11    1    4    4    0    0 -0.48930841573E+01  0.66159353490E+00 -0.65832786587E+00  0.49813024819E+01  0.51100000000E-03 0.  1.
        -12    1    4    4    0    0  0.47362179952E+01  0.52383130543E+00 -0.18708915516E+02  0.19306208326E+02  0.00000000000E+00 0.  1.
</event>
<event>
 8    1  0.2401680E-006  0.9118800E+02  0.7816164E-02  0.1184000E+00
        -11   -1    0    0    0    0  0.00000000000E+00  0.00000000000E+00  0.45593999997E+02  0.45594000000E+02  0.51100000000E-03 0. -1.
         11   -1    0    0    0    0 -0.00000000000E+00 -0.00000000000E+00 -0.45593999997E+02  0.45594000000E+02  0.51100000000E-03 0.  1.
         23    2    1    2    0    0  0.00000000000E+00  0.00000000000E+00 -0.71054273576E-14  0.91188000000E+02  0.91188000000E+02 0.  0.
    9900012    2    3    3    0    0  0.14751031352E+02 -0.38841100623E+01 -0.33512737411E+02  0.54367043933E+02  0.39999908255E+02 0.  0.
         12    1    3    3    0    0 -0.14751031352E+02  0.38841100623E+01  0.33512737411E+02  0.36820956067E+02  0.00000000000E+00 0. -1.
         11    1    4    4    0    0 -0.45838723176E+01 -0.12674842581E+02 -0.12377016409E+02  0.18299017879E+02  0.51100000000E-03 0. -1.
        -11    1    4    4    0    0  0.59990907976E+01 -0.19701755172E+01 -0.17426526377E+02  0.18535223328E+02  0.51100000000E-03 0.  1.
        -12    1    4    4    0    0  0.13335812872E+02  0.10760908036E+02 -0.37091946240E+01  0.17532802727E+02  0.00000000000E+00 0.  1.
</event>
<event>
 8    1  0.2401680E-006  0.9118800E+02  0.7816164E-02  0.1184000E+00
        -11   -1    0    0    0    0  0.00000000000E+00  0.00000000000E+00  0.45593999997E+02  0.45594000000E+02  0.51100000000E-03 0. -1.
         11   -1    0    0    0    0 -0.00000000000E+00 -0.00000000000E+00 -0.45593999997E+02  0.45594000000E+02  0.51100000000E-03 0.  1.
         23    2    1    2    0    0 -0.35527136788E-14  0.35527136788E-14  0.00000000000E+00  0.91188000000E+02  0.91188000000E+02 0.  0.
    9900012    2    3    3    0    0  0.22094041893E+02  0.26631628058E+02  0.12585331817E+02  0.54367070122E+02  0.39999967956E+02 0.  0.
         12    1    3    3    0    0 -0.22094041893E+02 -0.26631628058E+02 -0.12585331817E+02  0.36820929878E+02  0.00000000000E+00 0. -1.
         11    1    4    4    0    0 -0.53463420089E+01  0.54058838337E+01 -0.53395481812E+01  0.92907334446E+01  0.51100000000E-03 0. -1.
        -11    1    4    4    0    0  0.31945026093E+01  0.14152389754E+01 -0.51208714094E+01  0.61992800010E+01  0.51100000000E-03 0.  1.
         12    1    4    4    0    0  0.24245881292E+02  0.19810505249E+02  0.23045751408E+02  0.38877056676E+02  0.00000000000E+00 0. -1.
</event>
<event>
 8    1  0.2401680E-006  0.9118800E+02  0.7816164E-02  0.1184000E+00
        -11   -1    0    0    0    0  0.00000000000E+00  0.00000000000E+00  0.45593999997E+02  0.45594000000E+02  0.51100000000E-03 0.  1.
         11   -1    0    0    0    0 -0.00000000000E+00 -0.00000000000E+00 -0.45593999997E+02  0.45594000000E+02  0.51100000000E-03 0. -1.
         23    2    1    2    0    0  0.35527136788E-14  0.00000000000E+00  0.00000000000E+00  0.91188000000E+02  0.91188000000E+02 0.  0.
    9900012    2    3    3    0    0 -0.23461281183E+02 -0.20688861678E+02  0.19424755664E+02  0.54367056981E+02  0.39999937998E+02 0.  0.
         12    1    3    3    0    0  0.23461281183E+02  0.20688861678E+02 -0.19424755664E+02  0.36820943019E+02  0.00000000000E+00 0. -1.
         11    1    4    4    0    0 -0.49688454724E+01  0.42746322139E+01  0.83216464863E+01  0.10593002709E+02  0.51100000000E-03 0.  1.
        -11    1    4    4    0    0  0.73719589981E+01 -0.74689916655E+01  0.61345818453E+01  0.12155850881E+02  0.51100000000E-03 0. -1.
        -12    1    4    4    0    0 -0.25864394708E+02 -0.17494502226E+02  0.49685273319E+01  0.31618203390E+02  0.00000000000E+00 0.  1.
</event>
<event>
 8    1  0.2401680E-006  0.9118800E+02  0.7816164E-02  0.1184000E+00
        -11   -1    0    0    0    0  0.00000000000E+00  0.00000000000E+00  0.45593999997E+02  0.45594000000E+02  0.51100000000E-03 0.  1.
         11   -1    0    0    0    0 -0.00000000000E+00 -0.00000000000E+00 -0.45593999997E+02  0.45594000000E+02  0.51100000000E-03 0. -1.
         23    2    1    2    0    0  0.00000000000E+00 -0.17763568394E-14  0.17763568394E-14  0.91188000000E+02  0.91188000000E+02 0.  0.
    9900012    2    3    3    0    0 -0.32701889857E+02 -0.12120550244E+02 -0.11809191642E+02  0.54367104497E+02  0.40000046321E+02 0.  0.
        -12    1    3    3    0    0  0.32701889857E+02  0.12120550244E+02  0.11809191642E+02  0.36820895503E+02  0.00000000000E+00 0.  1.
         11    1    4    4    0    0 -0.30943058951E+02  0.61358442915E+01 -0.40656817934E+01  0.31806465555E+02  0.51100000000E-03 0. -1.
        -11    1    4    4    0    0  0.30753382986E+01 -0.12965073162E+02 -0.77076295009E+01  0.15393452521E+02  0.51100000000E-03 0.  1.
         12    1    4    4    0    0 -0.48341692049E+01 -0.52913213737E+01 -0.35880347293E-01  0.71671864201E+01  0.00000000000E+00 0. -1.
</event>
<event>
 8    1  0.2401680E-006  0.9118800E+02  0.7816164E-02  0.1184000E+00
        -11   -1    0    0    0    0  0.00000000000E+00  0.00000000000E+00  0.45593999997E+02  0.45594000000E+02  0.51100000000E-03 0.  1.
         11   -1    0    0    0    0 -0.00000000000E+00 -0.00000000000E+00 -0.45593999997E+02  0.45594000000E+02  0.51100000000E-03 0. -1.
         23    2    1    2    0    0  0.35527136788E-14 -0.10658141036E-13  0.00000000000E+00  0.91188000000E+02  0.91188000000E+02 0.  0.
    9900012    2    3    3    0    0 -0.12668357135E+02  0.31410717771E+02  0.14445144547E+02  0.54367045852E+02  0.39999912628E+02 0.  0.
         12    1    3    3    0    0  0.12668357135E+02 -0.31410717771E+02 -0.14445144547E+02  0.36820954148E+02  0.00000000000E+00 0. -1.
         11    1    4    4    0    0  0.27456128910E+01 -0.20298104024E+01  0.15201590569E+01  0.37375666197E+01  0.51100000000E-03 0. -1.
        -11    1    4    4    0    0 -0.17928316853E+02  0.27311006944E+01  0.44548602614E+01  0.18674293465E+02  0.51100000000E-03 0.  1.
         12    1    4    4    0    0  0.25143468268E+01  0.30709427479E+02  0.84701252288E+01  0.31955185768E+02  0.00000000000E+00 0. -1.
</event>
<event>
 8    1  0.2401680E-006  0.9118800E+02  0.7816164E-02  0.1184000E+00
        -11   -1    0    0    0    0  0.00000000000E+00  0.00000000000E+00  0.45593999997E+02  0.45594000000E+02  0.51100000000E-03 0. -1.
         11   -1    0    0    0    0 -0.00000000000E+00 -0.00000000000E+00 -0.45593999997E+02  0.45594000000E+02  0.51100000000E-03 0.  1.
         23    2    1    2    0    0  0.35527136788E-14  0.35527136788E-14  0.00000000000E+00  0.91188000000E+02  0.91188000000E+02 0.  0.
    9900012    2    3    3    0    0  0.24473663562E+02  0.24052932849E+02 -0.13351800238E+02  0.54367158668E+02  0.40000169815E+02 0.  0.
         12    1    3    3    0    0 -0.24473663562E+02 -0.24052932849E+02  0.13351800238E+02  0.36820841332E+02  0.00000000000E+00 0. -1.
         11    1    4    4    0    0  0.11907810055E+02  0.21507041365E+02  0.37709438916E+01  0.24871043136E+02  0.51100000000E-03 0. -1.
        -11    1    4    4    0    0  0.57352656271E+01  0.10096645492E+02 -0.15210498899E+02  0.19136216946E+02  0.51100000000E-03 0.  1.
         12    1    4    4    0    0  0.68305878802E+01 -0.75507540080E+01 -0.19122452309E+01  0.10359898585E+02  0.00000000000E+00 0. -1.
</event>
<event>
 8    1  0.2401680E-006  0.9118800E+02  0.7816164E-02  0.1184000E+00
        -11   -1    0    0    0    0  0.00000000000E+00  0.00000000000E+00  0.45593999997E+02  0.45594000000E+02  0.51100000000E-03 0.  1.
         11   -1    0    0    0    0 -0.00000000000E+00 -0.00000000000E+00 -0.45593999997E+02  0.45594000000E+02  0.51100000000E-03 0. -1.
         23    2    1    2    0    0 -0.35527136788E-14  0.00000000000E+00  0.35527136788E-14  0.91188000000E+02  0.91188000000E+02 0.  0.
    9900012    2    3    3    0    0 -0.28149065206E+02 -0.20438448823E+01 -0.23648112125E+02  0.54367076859E+02  0.39999983315E+02 0.  0.
        -12    1    3    3    0    0  0.28149065206E+02  0.20438448823E+01  0.23648112125E+02  0.36820923141E+02  0.00000000000E+00 0.  1.
         11    1    4    4    0    0 -0.10924058475E+02  0.27701402826E+01 -0.11477048172E+02  0.16085128714E+02  0.51100000000E-03 0. -1.
        -11    1    4    4    0    0  0.13318524657E+00 -0.14561406517E+02  0.69480258059E+00  0.14578581856E+02  0.51100000000E-03 0.  1.
        -12    1    4    4    0    0 -0.17358191977E+02  0.97474213517E+01 -0.12865866534E+02  0.23703366289E+02  0.00000000000E+00 0.  1.
</event>
<event>
 8    1  0.2401680E-006  0.9118800E+02  0.7816164E-02  0.1184000E+00
        -11   -1    0    0    0    0  0.00000000000E+00  0.00000000000E+00  0.45593999997E+02  0.45594000000E+02  0.51100000000E-03 0.  1.
         11   -1    0    0    0    0 -0.00000000000E+00 -0.00000000000E+00 -0.45593999997E+02  0.45594000000E+02  0.51100000000E-03 0. -1.
         23    2    1    2    0    0  0.00000000000E+00  0.00000000000E+00  0.00000000000E+00  0.91188000000E+02  0.91188000000E+02 0.  0.
    9900012    2    3    3    0    0  0.27029745158E+02 -0.75353849720E+01  0.23840951261E+02  0.54367080579E+02  0.39999991796E+02 0.  0.
         12    1    3    3    0    0 -0.27029745158E+02  0.75353849720E+01 -0.23840951261E+02  0.36820919421E+02  0.00000000000E+00 0. -1.
         11    1    4    4    0    0  0.18478516060E+02  0.56726789773E+00  0.25540911879E+01  0.18662816794E+02  0.51100000000E-03 0. -1.
        -11    1    4    4    0    0  0.17450360880E+02 -0.51286394743E+01  0.91408992775E+01  0.20356180329E+02  0.51100000000E-03 0.  1.
        -12    1    4    4    0    0 -0.88991317817E+01 -0.29740133954E+01  0.12145960795E+02  0.15348083456E+02  0.00000000000E+00 0.  1.
</event>
<event>
 8    1  0.2401680E-006  0.9118800E+02  0.7816164E-02  0.1184000E+00
        -11   -1    0    0    0    0  0.00000000000E+00  0.00000000000E+00  0.45593999997E+02  0.45594000000E+02  0.51100000000E-03 0. -1.
         11   -1    0    0    0    0 -0.00000000000E+00 -0.00000000000E+00 -0.45593999997E+02  0.45594000000E+02  0.51100000000E-03 0.  1.
         23    2    1    2    0    0  0.35527136788E-14  0.00000000000E+00  0.35527136788E-14  0.91188000000E+02  0.91188000000E+02 0.  0.
    9900012    2    3    3    0    0  0.29221245530E+02  0.39492235615E+01  0.22052246586E+02  0.54367093758E+02  0.40000021839E+02 0.  0.
         12    1    3    3    0    0 -0.29221245530E+02 -0.39492235615E+01 -0.22052246586E+02  0.36820906242E+02  0.00000000000E+00 0. -1.
         11    1    4    4    0    0  0.12067061453E+02  0.71779628611E+01  0.94300396244E+01  0.16913390273E+02  0.51100000000E-03 0. -1.
        -11    1    4    4    0    0  0.19193455148E+02  0.91692338609E+01  0.12916426051E+02  0.24885691316E+02  0.51100000000E-03 0.  1.
         12    1    4    4    0    0 -0.20392710713E+01 -0.12397973161E+02 -0.29421908966E+00  0.12568012168E+02  0.00000000000E+00 0. -1.
</event>
<event>
 8    1  0.2401680E-006  0.9118800E+02  0.7816164E-02  0.1184000E+00
        -11   -1    0    0    0    0  0.00000000000E+00  0.00000000000E+00  0.45593999997E+02  0.45594000000E+02  0.51100000000E-03 0. -1.
         11   -1    0    0    0    0 -0.00000000000E+00 -0.00000000000E+00 -0.45593999997E+02  0.45594000000E+02  0.51100000000E-03 0.  1.
         23    2    1    2    0    0  0.00000000000E+00  0.00000000000E+00  0.17763568394E-14  0.91188000000E+02  0.91188000000E+02 0.  0.
    9900012    2    3    3    0    0  0.24199635979E+02 -0.23981529671E+02  0.13965819780E+02  0.54367078379E+02  0.39999986781E+02 0.  0.
        -12    1    3    3    0    0 -0.24199635979E+02  0.23981529671E+02 -0.13965819780E+02  0.36820921621E+02  0.00000000000E+00 0.  1.
         11    1    4    4    0    0  0.13590440982E+02 -0.20561635953E+02  0.20666914020E+02  0.32165234252E+02  0.51100000000E-03 0. -1.
        -11    1    4    4    0    0  0.27007548045E+01  0.73100122834E+01 -0.17855025332E+01  0.79948968508E+01  0.51100000000E-03 0.  1.
         12    1    4    4    0    0  0.79084401932E+01 -0.10729906001E+02 -0.49155917066E+01  0.14206947276E+02  0.00000000000E+00 0. -1.
</event>
<event>
 8    1  0.2401680E-006  0.9118800E+02  0.7816164E-02  0.1184000E+00
        -11   -1    0    0    0    0  0.00000000000E+00  0.00000000000E+00  0.45593999997E+02  0.45594000000E+02  0.51100000000E-03 0. -1.
         11   -1    0    0    0    0 -0.00000000000E+00 -0.00000000000E+00 -0.45593999997E+02  0.45594000000E+02  0.51100000000E-03 0.  1.
         23    2    1    2    0    0 -0.35527136788E-14  0.00000000000E+00  0.35527136788E-14  0.91188000000E+02  0.91188000000E+02 0.  0.
    9900012    2    3    3    0    0 -0.19246654201E+02 -0.10146862326E+02  0.29705007204E+02  0.54367082494E+02  0.39999996162E+02 0.  0.
        -12    1    3    3    0    0  0.19246654201E+02  0.10146862326E+02 -0.29705007204E+02  0.36820917506E+02  0.00000000000E+00 0.  1.
         11    1    4    4    0    0  0.84359778271E+01 -0.36026608870E+01  0.51984204143E+00  0.91877703158E+01  0.51100000000E-03 0.  1.
        -11    1    4    4    0    0 -0.17985435747E+02  0.37295486891E+01  0.23792132828E+02  0.30057461922E+02  0.51100000000E-03 0. -1.
         12    1    4    4    0    0 -0.96971962812E+01 -0.10273750128E+02  0.53930323343E+01  0.15121850256E+02  0.00000000000E+00 0. -1.
</event>
<event>
 8    1  0.2401680E-006  0.9118800E+02  0.7816164E-02  0.1184000E+00
        -11   -1    0    0    0    0  0.00000000000E+00  0.00000000000E+00  0.45593999997E+02  0.45594000000E+02  0.51100000000E-03 0.  1.
         11   -1    0    0    0    0 -0.00000000000E+00 -0.00000000000E+00 -0.45593999997E+02  0.45594000000E+02  0.51100000000E-03 0. -1.
         23    2    1    2    0    0  0.35527136788E-14  0.00000000000E+00  0.17763568394E-14  0.91188000000E+02  0.91188000000E+02 0.  0.
    9900012    2    3    3    0    0  0.27390924365E+02 -0.21516835773E+02  0.11939149944E+02  0.54367078493E+02  0.39999987041E+02 0.  0.
         12    1    3    3    0    0 -0.27390924365E+02  0.21516835773E+02 -0.11939149944E+02  0.36820921507E+02  0.00000000000E+00 0. -1.
         11    1    4    4    0    0  0.69888234806E+01 -0.61011657443E+01 -0.86732147382E+01  0.12700099655E+02  0.51100000000E-03 0. -1.
        -11    1    4    4    0    0  0.25800758342E+02 -0.87492867119E+01  0.12950765601E+02  0.30165402018E+02  0.51100000000E-03 0.  1.
         12    1    4    4    0    0 -0.53986574582E+01 -0.66663833168E+01  0.76615990808E+01  0.11501576820E+02  0.00000000000E+00 0. -1.
</event>
<event>
 8    1  0.2401680E-006  0.9118800E+02  0.7816164E-02  0.1184000E+00
        -11   -1    0    0    0    0  0.00000000000E+00  0.00000000000E+00  0.45593999997E+02  0.45594000000E+02  0.51100000000E-03 0. -1.
         11   -1    0    0    0    0 -0.00000000000E+00 -0.00000000000E+00 -0.45593999997E+02  0.45594000000E+02  0.51100000000E-03 0.  1.
         23    2    1    2    0    0  0.00000000000E+00 -0.35527136788E-14 -0.35527136788E-14  0.91188000000E+02  0.91188000000E+02 0.  0.
    9900012    2    3    3    0    0  0.40117507156E+01 -0.23073483674E+02 -0.28413134200E+02  0.54367000723E+02  0.39999809748E+02 0.  0.
         12    1    3    3    0    0 -0.40117507156E+01  0.23073483674E+02  0.28413134200E+02  0.36820999277E+02  0.00000000000E+00 0. -1.
         11    1    4    4    0    0 -0.15961192853E+02 -0.12625883838E+02 -0.65286903378E+01  0.21372796208E+02  0.51100000000E-03 0. -1.
        -11    1    4    4    0    0  0.89824096072E+01 -0.14534459598E+01 -0.14149526310E+02  0.16822760848E+02  0.51100000000E-03 0.  1.
        -12    1    4    4    0    0  0.10990533961E+02 -0.89941538766E+01 -0.77349175528E+01  0.16171443666E+02  0.00000000000E+00 0.  1.
</event>
<event>
 8    1  0.2401680E-006  0.9118800E+02  0.7816164E-02  0.1184000E+00
        -11   -1    0    0    0    0  0.00000000000E+00  0.00000000000E+00  0.45593999997E+02  0.45594000000E+02  0.51100000000E-03 0. -1.
         11   -1    0    0    0    0 -0.00000000000E+00 -0.00000000000E+00 -0.45593999997E+02  0.45594000000E+02  0.51100000000E-03 0.  1.
         23    2    1    2    0    0 -0.17763568394E-14  0.71054273576E-14  0.35527136788E-14  0.91188000000E+02  0.91188000000E+02 0.  0.
    9900012    2    3    3    0    0  0.15887013177E+02 -0.22078834496E+02 -0.24817435894E+02  0.54367119446E+02  0.40000080401E+02 0.  0.
         12    1    3    3    0    0 -0.15887013177E+02  0.22078834496E+02  0.24817435894E+02  0.36820880554E+02  0.00000000000E+00 0. -1.
         11    1    4    4    0    0  0.43734017873E+01  0.12063825285E+01 -0.10392943105E+01  0.46542598685E+01  0.51100000000E-03 0.  1.
        -11    1    4    4    0    0  0.15749220773E+02  0.25918464064E+01 -0.15416185291E+02  0.22190412163E+02  0.51100000000E-03 0. -1.
         12    1    4    4    0    0 -0.42356093831E+01 -0.25877063431E+02 -0.83619562923E+01  0.27522447415E+02  0.00000000000E+00 0. -1.
</event>
<event>
 8    1  0.2401680E-006  0.9118800E+02  0.7816164E-02  0.1184000E+00
        -11   -1    0    0    0    0  0.00000000000E+00  0.00000000000E+00  0.45593999997E+02  0.45594000000E+02  0.51100000000E-03 0. -1.
         11   -1    0    0    0    0 -0.00000000000E+00 -0.00000000000E+00 -0.45593999997E+02  0.45594000000E+02  0.51100000000E-03 0.  1.
         23    2    1    2    0    0 -0.17763568394E-14  0.17763568394E-14  0.71054273576E-14  0.91188000000E+02  0.91188000000E+02 0.  0.
    9900012    2    3    3    0    0 -0.10006527716E+02  0.41181235141E+01  0.35195036765E+02  0.54367079981E+02  0.39999990432E+02 0.  0.
        -12    1    3    3    0    0  0.10006527716E+02 -0.41181235141E+01 -0.35195036765E+02  0.36820920019E+02  0.00000000000E+00 0.  1.
         11    1    4    4    0    0 -0.46022263474E+01  0.12095068880E+02  0.21667321559E+01  0.13121200671E+02  0.51100000000E-03 0.  1.
        -11    1    4    4    0    0  0.42151752258E+01 -0.11843881357E+02  0.10255306398E+02  0.16223949499E+02  0.51100000000E-03 0. -1.
        -12    1    4    4    0    0 -0.96194765945E+01  0.38669359910E+01  0.22772998211E+02  0.25021929810E+02  0.00000000000E+00 0.  1.
</event>
<event>
 8    1  0.2401680E-006  0.9118800E+02  0.7816164E-02  0.1184000E+00
        -11   -1    0    0    0    0  0.00000000000E+00  0.00000000000E+00  0.45593999997E+02  0.45594000000E+02  0.51100000000E-03 0.  1.
         11   -1    0    0    0    0 -0.00000000000E+00 -0.00000000000E+00 -0.45593999997E+02  0.45594000000E+02  0.51100000000E-03 0. -1.
         23    2    1    2    0    0  0.00000000000E+00  0.00000000000E+00  0.17763568394E-14  0.91188000000E+02  0.91188000000E+02 0.  0.
    9900012    2    3    3    0    0  0.26623378238E+01  0.34845810273E+02 -0.11595758888E+02  0.54367079853E+02  0.39999990141E+02 0.  0.
        -12    1    3    3    0    0 -0.26623378238E+01 -0.34845810273E+02  0.11595758888E+02  0.36820920147E+02  0.00000000000E+00 0.  1.
         11    1    4    4    0    0 -0.35778139053E+01  0.87353023657E+01 -0.19012894752E+02  0.21227256697E+02  0.51100000000E-03 0. -1.
        -11    1    4    4    0    0  0.99394188216E+01  0.68957608442E+01 -0.31138309869E+00  0.12101261249E+02  0.51100000000E-03 0.  1.
        -12    1    4    4    0    0 -0.36992670925E+01  0.19214747063E+02  0.77285189635E+01  0.21038561907E+02  0.00000000000E+00 0.  1.
</event>
<event>
 8    1  0.2401680E-006  0.9118800E+02  0.7816164E-02  0.1184000E+00
        -11   -1    0    0    0    0  0.00000000000E+00  0.00000000000E+00  0.45593999997E+02  0.45594000000E+02  0.51100000000E-03 0. -1.
         11   -1    0    0    0    0 -0.00000000000E+00 -0.00000000000E+00 -0.45593999997E+02  0.45594000000E+02  0.51100000000E-03 0.  1.
         23    2    1    2    0    0  0.00000000000E+00  0.00000000000E+00  0.00000000000E+00  0.91188000000E+02  0.91188000000E+02 0.  0.
    9900012    2    3    3    0    0  0.19216542645E+02  0.21161612183E+02  0.23209709961E+02  0.54367082332E+02  0.39999995792E+02 0.  0.
         12    1    3    3    0    0 -0.19216542645E+02 -0.21161612183E+02 -0.23209709961E+02  0.36820917668E+02  0.00000000000E+00 0. -1.
         11    1    4    4    0    0 -0.13159401106E+01  0.19717806575E+01 -0.79488728925E+01  0.82948295859E+01  0.51100000000E-03 0. -1.
        -11    1    4    4    0    0  0.21736344603E+02  0.10033900532E+02  0.26555397465E+02  0.35753838554E+02  0.51100000000E-03 0.  1.
        -12    1    4    4    0    0 -0.12038618475E+01  0.91559309933E+01  0.46031853892E+01  0.10318414192E+02  0.00000000000E+00 0.  1.
</event>
<event>
 8    1  0.2401680E-006  0.9118800E+02  0.7816164E-02  0.1184000E+00
        -11   -1    0    0    0    0  0.00000000000E+00  0.00000000000E+00  0.45593999997E+02  0.45594000000E+02  0.51100000000E-03 0.  1.
         11   -1    0    0    0    0 -0.00000000000E+00 -0.00000000000E+00 -0.45593999997E+02  0.45594000000E+02  0.51100000000E-03 0. -1.
         23    2    1    2    0    0  0.00000000000E+00  0.00000000000E+00  0.35527136788E-14  0.91188000000E+02  0.91188000000E+02 0.  0.
    9900012    2    3    3    0    0 -0.19759589792E+02  0.16833638863E+02  0.26114506806E+02  0.54367078613E+02  0.39999987313E+02 0.  0.
         12    1    3    3    0    0  0.19759589792E+02 -0.16833638863E+02 -0.26114506806E+02  0.36820921387E+02  0.00000000000E+00 0. -1.
         11    1    4    4    0    0 -0.39765426523E+01  0.14533999003E+02  0.12127908474E+02  0.19342600205E+02  0.51100000000E-03 0.  1.
        -11    1    4    4    0    0 -0.23189365672E+02 -0.10888280498E+01  0.68737750983E+01  0.24211175336E+02  0.51100000000E-03 0. -1.
         12    1    4    4    0    0  0.74063185321E+01  0.33884679103E+01  0.71128232332E+01  0.10813303072E+02  0.00000000000E+00 0. -1.
</event>
<event>
 8    1  0.2401680E-006  0.9118800E+02  0.7816164E-02  0.1184000E+00
        -11   -1    0    0    0    0  0.00000000000E+00  0.00000000000E+00  0.45593999997E+02  0.45594000000E+02  0.51100000000E-03 0. -1.
         11   -1    0    0    0    0 -0.00000000000E+00 -0.00000000000E+00 -0.45593999997E+02  0.45594000000E+02  0.51100000000E-03 0.  1.
         23    2    1    2    0    0 -0.35527136788E-14  0.17763568394E-14 -0.17763568394E-14  0.91188000000E+02  0.91188000000E+02 0.  0.
    9900012    2    3    3    0    0 -0.31689738295E+02  0.14387853573E+02 -0.12022124717E+02  0.54367064021E+02  0.39999954049E+02 0.  0.
        -12    1    3    3    0    0  0.31689738295E+02 -0.14387853573E+02  0.12022124717E+02  0.36820935979E+02  0.00000000000E+00 0.  1.
         11    1    4    4    0    0 -0.33263143894E+02  0.20533245584E+02 -0.66106954180E+01  0.39645330243E+02  0.51100000000E-03 0. -1.
        -11    1    4    4    0    0 -0.14701350738E+01 -0.56787526593E+01 -0.85214725269E+01  0.10345289904E+02  0.51100000000E-03 0.  1.
         12    1    4    4    0    0  0.30435406724E+01 -0.46663935208E+00  0.31100432281E+01  0.43764438749E+01  0.00000000000E+00 0. -1.
</event>
<event>
 8    1  0.2401680E-006  0.9118800E+02  0.7816164E-02  0.1184000E+00
        -11   -1    0    0    0    0  0.00000000000E+00  0.00000000000E+00  0.45593999997E+02  0.45594000000E+02  0.51100000000E-03 0. -1.
         11   -1    0    0    0    0 -0.00000000000E+00 -0.00000000000E+00 -0.45593999997E+02  0.45594000000E+02  0.51100000000E-03 0.  1.
         23    2    1    2    0    0 -0.35527136788E-14  0.00000000000E+00 -0.17763568394E-14  0.91188000000E+02  0.91188000000E+02 0.  0.
    9900012    2    3    3    0    0 -0.22992840968E+02  0.24653293934E+02 -0.14809589193E+02  0.54367087876E+02  0.40000008431E+02 0.  0.
         12    1    3    3    0    0  0.22992840968E+02 -0.24653293934E+02  0.14809589193E+02  0.36820912124E+02  0.00000000000E+00 0. -1.
         11    1    4    4    0    0 -0.17254685719E+02  0.30524492518E+02 -0.15534995973E+02  0.38351074599E+02  0.51100000000E-03 0. -1.
        -11    1    4    4    0    0  0.20333451820E+01 -0.75846923899E+01 -0.86655479766E+00  0.79001878938E+01  0.51100000000E-03 0.  1.
        -12    1    4    4    0    0 -0.77715004313E+01  0.17134938059E+01  0.15919615783E+01  0.81158253828E+01  0.00000000000E+00 0.  1.
</event>
<event>
 8    1  0.2401680E-006  0.9118800E+02  0.7816164E-02  0.1184000E+00
        -11   -1    0    0    0    0  0.00000000000E+00  0.00000000000E+00  0.45593999997E+02  0.45594000000E+02  0.51100000000E-03 0.  1.
         11   -1    0    0    0    0 -0.00000000000E+00 -0.00000000000E+00 -0.45593999997E+02  0.45594000000E+02  0.51100000000E-03 0. -1.
         23    2    1    2    0    0  0.00000000000E+00  0.00000000000E+00  0.00000000000E+00  0.91188000000E+02  0.91188000000E+02 0.  0.
    9900012    2    3    3    0    0 -0.88517228609E+01  0.32766417914E+02  0.14275323866E+02  0.54367136186E+02  0.40000118563E+02 0.  0.
         12    1    3    3    0    0  0.88517228609E+01 -0.32766417914E+02 -0.14275323866E+02  0.36820863814E+02  0.00000000000E+00 0. -1.
         11    1    4    4    0    0  0.35633354167E+01 -0.20470931544E+01 -0.26397224461E+01  0.48842690885E+01  0.51100000000E-03 0. -1.
        -11    1    4    4    0    0 -0.71837517089E+01  0.35814447027E+02  0.21559817874E+02  0.42415877351E+02  0.51100000000E-03 0.  1.
        -12    1    4    4    0    0 -0.52313065687E+01 -0.10009359585E+01 -0.46447715621E+01  0.70669897462E+01  0.00000000000E+00 0.  1.
</event>
<event>
 8    1  0.2401680E-006  0.9118800E+02  0.7816164E-02  0.1184000E+00
        -11   -1    0    0    0    0  0.00000000000E+00  0.00000000000E+00  0.45593999997E+02  0.45594000000E+02  0.51100000000E-03 0. -1.
         11   -1    0    0    0    0 -0.00000000000E+00 -0.00000000000E+00 -0.45593999997E+02  0.45594000000E+02  0.51100000000E-03 0.  1.
         23    2    1    2    0    0 -0.22204460493E-14  0.00000000000E+00  0.00000000000E+00  0.91188000000E+02  0.91188000000E+02 0.  0.
    9900012    2    3    3    0    0  0.34312657331E+01  0.17529640238E+02  0.32198112915E+02  0.54367077324E+02  0.39999984375E+02 0.  0.
        -12    1    3    3    0    0 -0.34312657331E+01 -0.17529640238E+02 -0.32198112915E+02  0.36820922676E+02  0.00000000000E+00 0.  1.
         11    1    4    4    0    0  0.61155796728E+01  0.40016343523E+01  0.14536365025E+02  0.16270196699E+02  0.51100000000E-03 0. -1.
        -11    1    4    4    0    0  0.13901932255E+02  0.68600200610E+01  0.53857661893E+01  0.16411278846E+02  0.51100000000E-03 0.  1.
        -12    1    4    4    0    0 -0.16586246195E+02  0.66679858247E+01  0.12275981701E+02  0.21685601779E+02  0.00000000000E+00 0.  1.
</event>
<event>
 8    1  0.2401680E-006  0.9118800E+02  0.7816164E-02  0.1184000E+00
        -11   -1    0    0    0    0  0.00000000000E+00  0.00000000000E+00  0.45593999997E+02  0.45594000000E+02  0.51100000000E-03 0.  1.
         11   -1    0    0    0    0 -0.00000000000E+00 -0.00000000000E+00 -0.45593999997E+02  0.45594000000E+02  0.51100000000E-03 0. -1.
         23    2    1    2    0    0  0.35527136788E-14  0.00000000000E+00  0.00000000000E+00  0.91188000000E+02  0.91188000000E+02 0.  0.
    9900012    2    3    3    0    0 -0.26787540993E+02  0.13930818604E+02 -0.21074680324E+02  0.54367052019E+02  0.39999926688E+02 0.  0.
        -12    1    3    3    0    0  0.26787540993E+02 -0.13930818604E+02  0.21074680324E+02  0.36820947981E+02  0.00000000000E+00 0.  1.
         11    1    4    4    0    0 -0.59296478950E+01  0.10025597598E+02 -0.69647504487E+01  0.13571333038E+02  0.51100000000E-03 0. -1.
        -11    1    4    4    0    0  0.19818327416E+01  0.13084247879E+02 -0.78892026283E+01  0.15406645382E+02  0.51100000000E-03 0.  1.
         12    1    4    4    0    0 -0.22839725839E+02 -0.91790268720E+01 -0.62207272473E+01  0.25389073599E+02  0.00000000000E+00 0. -1.
</event>
<event>
 8    1  0.2401680E-006  0.9118800E+02  0.7816164E-02  0.1184000E+00
        -11   -1    0    0    0    0  0.00000000000E+00  0.00000000000E+00  0.45593999997E+02  0.45594000000E+02  0.51100000000E-03 0.  1.
         11   -1    0    0    0    0 -0.00000000000E+00 -0.00000000000E+00 -0.45593999997E+02  0.45594000000E+02  0.51100000000E-03 0. -1.
         23    2    1    2    0    0 -0.17763568394E-14  0.17763568394E-14  0.35527136788E-14  0.91188000000E+02  0.91188000000E+02 0.  0.
    9900012    2    3    3    0    0 -0.15422957218E+02 -0.11805704762E+02 -0.31281593415E+02  0.54367077132E+02  0.39999983938E+02 0.  0.
        -12    1    3    3    0    0  0.15422957218E+02  0.11805704762E+02  0.31281593415E+02  0.36820922868E+02  0.00000000000E+00 0.  1.
         11    1    4    4    0    0  0.93721403871E+01 -0.99064515504E+01 -0.16946208475E+02  0.21751983351E+02  0.51100000000E-03 0. -1.
        -11    1    4    4    0    0 -0.69750370778E+01 -0.65145705896E+01 -0.44532419754E+00  0.95545322285E+01  0.51100000000E-03 0.  1.
         12    1    4    4    0    0 -0.17820060528E+02  0.46153173776E+01 -0.13890060742E+02  0.23060561553E+02  0.00000000000E+00 0. -1.
</event>
<event>
 8    1  0.2401680E-006  0.9118800E+02  0.7816164E-02  0.1184000E+00
        -11   -1    0    0    0    0  0.00000000000E+00  0.00000000000E+00  0.45593999997E+02  0.45594000000E+02  0.51100000000E-03 0.  1.
         11   -1    0    0    0    0 -0.00000000000E+00 -0.00000000000E+00 -0.45593999997E+02  0.45594000000E+02  0.51100000000E-03 0. -1.
         23    2    1    2    0    0  0.00000000000E+00 -0.71054273576E-14  0.00000000000E+00  0.91188000000E+02  0.91188000000E+02 0.  0.
    9900012    2    3    3    0    0  0.17533959152E+02  0.16372996814E+02  0.27933247122E+02  0.54367067869E+02  0.39999962820E+02 0.  0.
         12    1    3    3    0    0 -0.17533959152E+02 -0.16372996814E+02 -0.27933247122E+02  0.36820932131E+02  0.00000000000E+00 0. -1.
         11    1    4    4    0    0 -0.15915565227E+01  0.17646141054E+01  0.14315397974E+01  0.27742064737E+01  0.51100000000E-03 0. -1.
        -11    1    4    4    0    0 -0.60010206610E+01 -0.82050021820E+01  0.80242576520E+01  0.12950792289E+02  0.51100000000E-03 0.  1.
        -12    1    4    4    0    0  0.25126536336E+02  0.22813384890E+02  0.18477449673E+02  0.38642069106E+02  0.00000000000E+00 0.  1.
</event>
<event>
 8    1  0.2401680E-006  0.9118800E+02  0.7816164E-02  0.1184000E+00
        -11   -1    0    0    0    0  0.00000000000E+00  0.00000000000E+00  0.45593999997E+02  0.45594000000E+02  0.51100000000E-03 0.  1.
         11   -1    0    0    0    0 -0.00000000000E+00 -0.00000000000E+00 -0.45593999997E+02  0.45594000000E+02  0.51100000000E-03 0. -1.
         23    2    1    2    0    0  0.00000000000E+00 -0.17763568394E-14  0.00000000000E+00  0.91188000000E+02  0.91188000000E+02 0.  0.
    9900012    2    3    3    0    0 -0.32167526964E+02  0.76659581123E+01  0.16194600002E+02  0.54367057943E+02  0.39999940192E+02 0.  0.
         12    1    3    3    0    0  0.32167526964E+02 -0.76659581123E+01 -0.16194600002E+02  0.36820942057E+02  0.00000000000E+00 0. -1.
         11    1    4    4    0    0 -0.11985416256E+02  0.12402586165E+02 -0.88593427302E+01  0.19389747298E+02  0.51100000000E-03 0. -1.
        -11    1    4    4    0    0 -0.99139795419E+01 -0.62772853349E+01  0.20539950039E+02  0.23655461302E+02  0.51100000000E-03 0.  1.
        -12    1    4    4    0    0 -0.10268131166E+02  0.15406572823E+01  0.45139926931E+01  0.11321849342E+02  0.00000000000E+00 0.  1.
</event>
<event>
 8    1  0.2401680E-006  0.9118800E+02  0.7816164E-02  0.1184000E+00
        -11   -1    0    0    0    0  0.00000000000E+00  0.00000000000E+00  0.45593999997E+02  0.45594000000E+02  0.51100000000E-03 0.  1.
         11   -1    0    0    0    0 -0.00000000000E+00 -0.00000000000E+00 -0.45593999997E+02  0.45594000000E+02  0.51100000000E-03 0. -1.
         23    2    1    2    0    0 -0.71054273576E-14 -0.35527136788E-14  0.35527136788E-14  0.91188000000E+02  0.91188000000E+02 0.  0.
    9900012    2    3    3    0    0  0.29563485816E+02  0.16379907938E+02 -0.14610865506E+02  0.54367102829E+02  0.40000042520E+02 0.  0.
        -12    1    3    3    0    0 -0.29563485816E+02 -0.16379907938E+02  0.14610865506E+02  0.36820897171E+02  0.00000000000E+00 0.  1.
         11    1    4    4    0    0 -0.58936026244E+00  0.46126095659E+01 -0.23072702725E+01  0.51910508471E+01  0.51100000000E-03 0. -1.
        -11    1    4    4    0    0  0.54999458489E+00  0.12686177853E+02  0.63263817437E+01  0.14186779366E+02  0.51100000000E-03 0.  1.
         12    1    4    4    0    0  0.29602851493E+02 -0.91887948041E+00 -0.18629976977E+02  0.34989272616E+02  0.00000000000E+00 0. -1.
</event>
<event>
 8    1  0.2401680E-006  0.9118800E+02  0.7816164E-02  0.1184000E+00
        -11   -1    0    0    0    0  0.00000000000E+00  0.00000000000E+00  0.45593999997E+02  0.45594000000E+02  0.51100000000E-03 0.  1.
         11   -1    0    0    0    0 -0.00000000000E+00 -0.00000000000E+00 -0.45593999997E+02  0.45594000000E+02  0.51100000000E-03 0. -1.
         23    2    1    2    0    0 -0.17763568394E-14  0.00000000000E+00  0.00000000000E+00  0.91188000000E+02  0.91188000000E+02 0.  0.
    9900012    2    3    3    0    0 -0.14164571970E+02  0.28050790727E+02  0.19191126196E+02  0.54367064594E+02  0.39999955355E+02 0.  0.
         12    1    3    3    0    0  0.14164571970E+02 -0.28050790727E+02 -0.19191126196E+02  0.36820935406E+02  0.00000000000E+00 0. -1.
         11    1    4    4    0    0  0.78852653291E+01 -0.31053846339E+00  0.30702473098E+01  0.84676007377E+01  0.51100000000E-03 0. -1.
        -11    1    4    4    0    0 -0.17472711224E+02  0.18782311224E+02  0.21972996752E+02  0.33776966101E+02  0.51100000000E-03 0.  1.
         12    1    4    4    0    0 -0.45771260744E+01  0.95790179671E+01 -0.58521178660E+01  0.12122497756E+02  0.00000000000E+00 0. -1.
</event>
<event>
 8    1  0.2401680E-006  0.9118800E+02  0.7816164E-02  0.1184000E+00
        -11   -1    0    0    0    0  0.00000000000E+00  0.00000000000E+00  0.45593999997E+02  0.45594000000E+02  0.51100000000E-03 0. -1.
         11   -1    0    0    0    0 -0.00000000000E+00 -0.00000000000E+00 -0.45593999997E+02  0.45594000000E+02  0.51100000000E-03 0.  1.
         23    2    1    2    0    0 -0.35527136788E-14  0.00000000000E+00  0.00000000000E+00  0.91188000000E+02  0.91188000000E+02 0.  0.
    9900012    2    3    3    0    0 -0.24608246787E+02  0.14729337612E+02 -0.23092406622E+02  0.54367103216E+02  0.40000043401E+02 0.  0.
         12    1    3    3    0    0  0.24608246787E+02 -0.14729337612E+02  0.23092406622E+02  0.36820896784E+02  0.00000000000E+00 0. -1.
         11    1    4    4    0    0 -0.90914574863E+01  0.14768703313E+02 -0.57476247911E+01  0.18270314386E+02  0.51100000000E-03 0. -1.
        -11    1    4    4    0    0 -0.69718972038E+01  0.13745777646E+02 -0.77335773654E+01  0.17244186639E+02  0.51100000000E-03 0.  1.
         12    1    4    4    0    0 -0.85448920966E+01 -0.13785143348E+02 -0.96112044654E+01  0.18852602190E+02  0.00000000000E+00 0. -1.
</event>
<event>
 8    1  0.2401680E-006  0.9118800E+02  0.7816164E-02  0.1184000E+00
        -11   -1    0    0    0    0  0.00000000000E+00  0.00000000000E+00  0.45593999997E+02  0.45594000000E+02  0.51100000000E-03 0.  1.
         11   -1    0    0    0    0 -0.00000000000E+00 -0.00000000000E+00 -0.45593999997E+02  0.45594000000E+02  0.51100000000E-03 0. -1.
         23    2    1    2    0    0  0.00000000000E+00  0.00000000000E+00  0.00000000000E+00  0.91188000000E+02  0.91188000000E+02 0.  0.
    9900012    2    3    3    0    0  0.66770059320E+01 -0.31725922250E+02 -0.17454549472E+02  0.54367111253E+02  0.40000061724E+02 0.  0.
        -12    1    3    3    0    0 -0.66770059320E+01  0.31725922250E+02  0.17454549472E+02  0.36820888747E+02  0.00000000000E+00 0.  1.
         11    1    4    4    0    0  0.41645375716E+01 -0.22637768116E+02  0.49864101353E+01  0.23551564805E+02  0.51100000000E-03 0. -1.
        -11    1    4    4    0    0 -0.59409912295E-01 -0.87853638062E+01 -0.58318409086E+00  0.88048992436E+01  0.51100000000E-03 0.  1.
        -12    1    4    4    0    0  0.25718782726E+01 -0.30279032790E+00 -0.21857775517E+02  0.22010647205E+02  0.00000000000E+00 0.  1.
</event>
<event>
 8    1  0.2401680E-006  0.9118800E+02  0.7816164E-02  0.1184000E+00
        -11   -1    0    0    0    0  0.00000000000E+00  0.00000000000E+00  0.45593999997E+02  0.45594000000E+02  0.51100000000E-03 0.  1.
         11   -1    0    0    0    0 -0.00000000000E+00 -0.00000000000E+00 -0.45593999997E+02  0.45594000000E+02  0.51100000000E-03 0. -1.
         23    2    1    2    0    0  0.00000000000E+00  0.35527136788E-14 -0.35527136788E-14  0.91188000000E+02  0.91188000000E+02 0.  0.
    9900012    2    3    3    0    0  0.49999437340E+01  0.28361531436E+02 -0.22943524003E+02  0.54367065785E+02  0.39999958071E+02 0.  0.
        -12    1    3    3    0    0 -0.49999437340E+01 -0.28361531436E+02  0.22943524003E+02  0.36820934215E+02  0.00000000000E+00 0.  1.
         11    1    4    4    0    0 -0.16325234068E+01  0.29718365469E+02 -0.29651806746E+02  0.42012807837E+02  0.51100000000E-03 0. -1.
        -11    1    4    4    0    0  0.43624140248E+01 -0.39771621056E+01  0.14884697972E+01  0.60880224323E+01  0.51100000000E-03 0.  1.
         12    1    4    4    0    0  0.22700531159E+01  0.26203280724E+01  0.52198129450E+01  0.62662355156E+01  0.00000000000E+00 0. -1.
</event>
<event>
 8    1  0.2401680E-006  0.9118800E+02  0.7816164E-02  0.1184000E+00
        -11   -1    0    0    0    0  0.00000000000E+00  0.00000000000E+00  0.45593999997E+02  0.45594000000E+02  0.51100000000E-03 0.  1.
         11   -1    0    0    0    0 -0.00000000000E+00 -0.00000000000E+00 -0.45593999997E+02  0.45594000000E+02  0.51100000000E-03 0. -1.
         23    2    1    2    0    0 -0.44408920985E-15  0.71054273576E-14  0.17763568394E-14  0.91188000000E+02  0.91188000000E+02 0.  0.
    9900012    2    3    3    0    0  0.77882028365E+00  0.33402080446E+02 -0.15474962879E+02  0.54367081825E+02  0.39999994635E+02 0.  0.
        -12    1    3    3    0    0 -0.77882028365E+00 -0.33402080446E+02  0.15474962879E+02  0.36820918175E+02  0.00000000000E+00 0.  1.
         11    1    4    4    0    0  0.11001727908E+02  0.12055415926E+02  0.36446668329E+01  0.16722878541E+02  0.51100000000E-03 0. -1.
        -11    1    4    4    0    0  0.44400206570E+01  0.13836393497E+02 -0.35102263545E+01  0.14949289540E+02  0.51100000000E-03 0.  1.
         12    1    4    4    0    0 -0.14662928282E+02  0.75102710233E+01 -0.15609403357E+02  0.22694913743E+02  0.00000000000E+00 0. -1.
</event>
<event>
 8    1  0.2401680E-006  0.9118800E+02  0.7816164E-02  0.1184000E+00
        -11   -1    0    0    0    0  0.00000000000E+00  0.00000000000E+00  0.45593999997E+02  0.45594000000E+02  0.51100000000E-03 0. -1.
         11   -1    0    0    0    0 -0.00000000000E+00 -0.00000000000E+00 -0.45593999997E+02  0.45594000000E+02  0.51100000000E-03 0.  1.
         23    2    1    2    0    0  0.35527136788E-14  0.17763568394E-14 -0.35527136788E-14  0.91188000000E+02  0.91188000000E+02 0.  0.
    9900012    2    3    3    0    0  0.18318827882E+02  0.10851339991E+02  0.30040734907E+02  0.54367125644E+02  0.40000094531E+02 0.  0.
        -12    1    3    3    0    0 -0.18318827882E+02 -0.10851339991E+02 -0.30040734907E+02  0.36820874356E+02  0.00000000000E+00 0.  1.
         11    1    4    4    0    0  0.12880399868E+02 -0.10969871034E+02  0.17278988326E+02  0.24182766779E+02  0.51100000000E-03 0. -1.
        -11    1    4    4    0    0 -0.53579112652E+01  0.62225857038E+01  0.54403099241E+01  0.98501146338E+01  0.51100000000E-03 0.  1.
         12    1    4    4    0    0  0.10796339279E+02  0.15598625321E+02  0.73214366568E+01  0.20334244231E+02  0.00000000000E+00 0. -1.
</event>
<event>
 8    1  0.2401680E-006  0.9118800E+02  0.7816164E-02  0.1184000E+00
        -11   -1    0    0    0    0  0.00000000000E+00  0.00000000000E+00  0.45593999997E+02  0.45594000000E+02  0.51100000000E-03 0. -1.
         11   -1    0    0    0    0 -0.00000000000E+00 -0.00000000000E+00 -0.45593999997E+02  0.45594000000E+02  0.51100000000E-03 0.  1.
         23    2    1    2    0    0 -0.37470027081E-15  0.00000000000E+00  0.00000000000E+00  0.91188000000E+02  0.91188000000E+02 0.  0.
    9900012    2    3    3    0    0  0.89026779519E-01 -0.80681297199E+01 -0.35925775194E+02  0.54367299759E+02  0.40000491459E+02 0.  0.
         12    1    3    3    0    0 -0.89026779519E-01  0.80681297199E+01  0.35925775194E+02  0.36820700241E+02  0.00000000000E+00 0. -1.
         11    1    4    4    0    0  0.57335145854E+01  0.53410938687E+01 -0.73085951871E+01  0.10715224547E+02  0.51100000000E-03 0. -1.
        -11    1    4    4    0    0 -0.65671205041E+01 -0.44417734203E+01  0.46458315728E+01  0.91891334791E+01  0.51100000000E-03 0.  1.
        -12    1    4    4    0    0  0.92263269817E+00 -0.89674501683E+01 -0.33263011579E+02  0.34462941734E+02  0.00000000000E+00 0.  1.
</event>
<event>
 8    1  0.2401680E-006  0.9118800E+02  0.7816164E-02  0.1184000E+00
        -11   -1    0    0    0    0  0.00000000000E+00  0.00000000000E+00  0.45593999997E+02  0.45594000000E+02  0.51100000000E-03 0. -1.
         11   -1    0    0    0    0 -0.00000000000E+00 -0.00000000000E+00 -0.45593999997E+02  0.45594000000E+02  0.51100000000E-03 0.  1.
         23    2    1    2    0    0  0.00000000000E+00  0.00000000000E+00  0.00000000000E+00  0.91188000000E+02  0.91188000000E+02 0.  0.
    9900012    2    3    3    0    0  0.20917000658E+02  0.27876022687E+02  0.11882191751E+02  0.54367081514E+02  0.39999993926E+02 0.  0.
        -12    1    3    3    0    0 -0.20917000658E+02 -0.27876022687E+02 -0.11882191751E+02  0.36820918486E+02  0.00000000000E+00 0.  1.
         11    1    4    4    0    0 -0.26018000437E+01 -0.15129472097E+01 -0.63734463841E+01  0.70483467423E+01  0.51100000000E-03 0. -1.
        -11    1    4    4    0    0 -0.34095472416E+01  0.11353941724E+01 -0.10918624118E+01  0.37558349414E+01  0.51100000000E-03 0.  1.
         12    1    4    4    0    0  0.26928347944E+02  0.28253575724E+02  0.19347500546E+02  0.43562899830E+02  0.00000000000E+00 0. -1.
</event>
<event>
 8    1  0.2401680E-006  0.9118800E+02  0.7816164E-02  0.1184000E+00
        -11   -1    0    0    0    0  0.00000000000E+00  0.00000000000E+00  0.45593999997E+02  0.45594000000E+02  0.51100000000E-03 0.  1.
         11   -1    0    0    0    0 -0.00000000000E+00 -0.00000000000E+00 -0.45593999997E+02  0.45594000000E+02  0.51100000000E-03 0. -1.
         23    2    1    2    0    0 -0.88817841970E-15  0.17763568394E-14 -0.71054273576E-14  0.91188000000E+02  0.91188000000E+02 0.  0.
    9900012    2    3    3    0    0  0.66322537755E+01 -0.92158346783E+01  0.35026573088E+02  0.54367092606E+02  0.40000019215E+02 0.  0.
         12    1    3    3    0    0 -0.66322537755E+01  0.92158346783E+01 -0.35026573088E+02  0.36820907394E+02  0.00000000000E+00 0. -1.
         11    1    4    4    0    0  0.33873011668E+01  0.16331038708E+01 -0.19450683476E+01  0.42336897129E+01  0.51100000000E-03 0. -1.
        -11    1    4    4    0    0 -0.58733777428E+01 -0.13646361092E+02  0.34102001442E+01  0.15243005033E+02  0.51100000000E-03 0.  1.
        -12    1    4    4    0    0  0.91183303516E+01  0.27974225426E+01  0.33561441292E+02  0.34890397861E+02  0.00000000000E+00 0.  1.
</event>
<event>
 8    1  0.2401680E-006  0.9118800E+02  0.7816164E-02  0.1184000E+00
        -11   -1    0    0    0    0  0.00000000000E+00  0.00000000000E+00  0.45593999997E+02  0.45594000000E+02  0.51100000000E-03 0.  1.
         11   -1    0    0    0    0 -0.00000000000E+00 -0.00000000000E+00 -0.45593999997E+02  0.45594000000E+02  0.51100000000E-03 0. -1.
         23    2    1    2    0    0  0.35527136788E-14  0.00000000000E+00  0.71054273576E-14  0.91188000000E+02  0.91188000000E+02 0.  0.
    9900012    2    3    3    0    0  0.19356091496E+02 -0.16994133486E+02 -0.26311997457E+02  0.54367081202E+02  0.39999993216E+02 0.  0.
        -12    1    3    3    0    0 -0.19356091496E+02  0.16994133486E+02  0.26311997457E+02  0.36820918798E+02  0.00000000000E+00 0.  1.
         11    1    4    4    0    0 -0.11279385812E+02 -0.52728252568E+01 -0.47082893072E+01  0.13311469451E+02  0.51100000000E-03 0. -1.
        -11    1    4    4    0    0  0.79022860288E+01  0.19920049154E+01 -0.32179322501E+01  0.87618089623E+01  0.51100000000E-03 0.  1.
         12    1    4    4    0    0  0.22733191279E+02 -0.13713313145E+02 -0.18385775900E+02  0.32293802789E+02  0.00000000000E+00 0. -1.
</event>
<event>
 8    1  0.2401680E-006  0.9118800E+02  0.7816164E-02  0.1184000E+00
        -11   -1    0    0    0    0  0.00000000000E+00  0.00000000000E+00  0.45593999997E+02  0.45594000000E+02  0.51100000000E-03 0.  1.
         11   -1    0    0    0    0 -0.00000000000E+00 -0.00000000000E+00 -0.45593999997E+02  0.45594000000E+02  0.51100000000E-03 0. -1.
         23    2    1    2    0    0  0.00000000000E+00  0.00000000000E+00 -0.35527136788E-14  0.91188000000E+02  0.91188000000E+02 0.  0.
    9900012    2    3    3    0    0 -0.22940744370E+02  0.13054544783E+02 -0.25672550219E+02  0.54367099325E+02  0.40000034531E+02 0.  0.
        -12    1    3    3    0    0  0.22940744370E+02 -0.13054544783E+02  0.25672550219E+02  0.36820900675E+02  0.00000000000E+00 0.  1.
         11    1    4    4    0    0 -0.11612951505E+02  0.71085293064E+01 -0.64179791260E+01  0.15052650527E+02  0.51100000000E-03 0. -1.
        -11    1    4    4    0    0  0.36470425093E+01  0.11155891054E+02 -0.20274224961E+02  0.23426459875E+02  0.51100000000E-03 0.  1.
         12    1    4    4    0    0 -0.14974835374E+02 -0.52098755765E+01  0.10196538674E+01  0.15887988923E+02  0.00000000000E+00 0. -1.
</event>
<event>
 8    1  0.2401680E-006  0.9118800E+02  0.7816164E-02  0.1184000E+00
        -11   -1    0    0    0    0  0.00000000000E+00  0.00000000000E+00  0.45593999997E+02  0.45594000000E+02  0.51100000000E-03 0. -1.
         11   -1    0    0    0    0 -0.00000000000E+00 -0.00000000000E+00 -0.45593999997E+02  0.45594000000E+02  0.51100000000E-03 0.  1.
         23    2    1    2    0    0  0.00000000000E+00  0.35527136788E-14 -0.22204460493E-15  0.91188000000E+02  0.91188000000E+02 0.  0.
    9900012    2    3    3    0    0  0.25859424680E+02  0.26186978486E+02 -0.11479118305E+01  0.54367008859E+02  0.39999828296E+02 0.  0.
        -12    1    3    3    0    0 -0.25859424680E+02 -0.26186978486E+02  0.11479118305E+01  0.36820991141E+02  0.00000000000E+00 0.  1.
         11    1    4    4    0    0  0.58453993675E+01 -0.27933449652E+01 -0.23048522834E+01  0.68763227215E+01  0.51100000000E-03 0. -1.
        -11    1    4    4    0    0 -0.74979958985E+01  0.14338497426E+02 -0.12722656021E+01  0.16230561017E+02  0.51100000000E-03 0.  1.
        -12    1    4    4    0    0  0.27512021211E+02  0.14641826026E+02  0.24292060550E+01  0.31260125120E+02  0.00000000000E+00 0.  1.
</event>
<event>
 8    1  0.2401680E-006  0.9118800E+02  0.7816164E-02  0.1184000E+00
        -11   -1    0    0    0    0  0.00000000000E+00  0.00000000000E+00  0.45593999997E+02  0.45594000000E+02  0.51100000000E-03 0.  1.
         11   -1    0    0    0    0 -0.00000000000E+00 -0.00000000000E+00 -0.45593999997E+02  0.45594000000E+02  0.51100000000E-03 0. -1.
         23    2    1    2    0    0  0.35527136788E-14  0.00000000000E+00 -0.17763568394E-14  0.91188000000E+02  0.91188000000E+02 0.  0.
    9900012    2    3    3    0    0 -0.30417362490E+02  0.15825230097E+02  0.13421074562E+02  0.54367094377E+02  0.40000023252E+02 0.  0.
         12    1    3    3    0    0  0.30417362490E+02 -0.15825230097E+02 -0.13421074562E+02  0.36820905623E+02  0.00000000000E+00 0. -1.
         11    1    4    4    0    0 -0.19970081088E+02  0.44480357008E+01 -0.69597102797E+00  0.20471285651E+02  0.51100000000E-03 0. -1.
        -11    1    4    4    0    0 -0.99619121871E+01  0.19107708016E+02  0.53611342858E+01  0.22205538974E+02  0.51100000000E-03 0.  1.
        -12    1    4    4    0    0 -0.48536921520E+00 -0.77305136203E+01  0.87559113044E+01  0.11690269752E+02  0.00000000000E+00 0.  1.
</event>
<event>
 8    1  0.2401680E-006  0.9118800E+02  0.7816164E-02  0.1184000E+00
        -11   -1    0    0    0    0  0.00000000000E+00  0.00000000000E+00  0.45593999997E+02  0.45594000000E+02  0.51100000000E-03 0. -1.
         11   -1    0    0    0    0 -0.00000000000E+00 -0.00000000000E+00 -0.45593999997E+02  0.45594000000E+02  0.51100000000E-03 0.  1.
         23    2    1    2    0    0  0.00000000000E+00  0.35527136788E-14  0.35527136788E-14  0.91188000000E+02  0.91188000000E+02 0.  0.
    9900012    2    3    3    0    0  0.15088257415E+02  0.19346109698E+02  0.27456369862E+02  0.54367085858E+02  0.40000003831E+02 0.  0.
        -12    1    3    3    0    0 -0.15088257415E+02 -0.19346109698E+02 -0.27456369862E+02  0.36820914142E+02  0.00000000000E+00 0.  1.
         11    1    4    4    0    0  0.20481399107E+02  0.22208153298E+02  0.11387065519E+02  0.32285523748E+02  0.51100000000E-03 0. -1.
        -11    1    4    4    0    0  0.17653956167E+01 -0.30699320089E+01 -0.90773253071E+00  0.36558286107E+01  0.51100000000E-03 0.  1.
         12    1    4    4    0    0 -0.71585373088E+01  0.20788840830E+00  0.16977036873E+02  0.18425733499E+02  0.00000000000E+00 0. -1.
</event>
<event>
 8    1  0.2401680E-006  0.9118800E+02  0.7816164E-02  0.1184000E+00
        -11   -1    0    0    0    0  0.00000000000E+00  0.00000000000E+00  0.45593999997E+02  0.45594000000E+02  0.51100000000E-03 0. -1.
         11   -1    0    0    0    0 -0.00000000000E+00 -0.00000000000E+00 -0.45593999997E+02  0.45594000000E+02  0.51100000000E-03 0.  1.
         23    2    1    2    0    0  0.00000000000E+00  0.88817841970E-15  0.00000000000E+00  0.91188000000E+02  0.91188000000E+02 0.  0.
    9900012    2    3    3    0    0  0.33727125896E+02 -0.33376381838E+01 -0.14391494691E+02  0.54367163924E+02  0.40000181798E+02 0.  0.
         12    1    3    3    0    0 -0.33727125896E+02  0.33376381838E+01  0.14391494691E+02  0.36820836076E+02  0.00000000000E+00 0. -1.
         11    1    4    4    0    0  0.17261778405E+02  0.11427205924E+02  0.62139042094E+01  0.21613945376E+02  0.51100000000E-03 0. -1.
        -11    1    4    4    0    0  0.97397073903E+01 -0.13867188735E+02 -0.86967396817E+01  0.19047154769E+02  0.51100000000E-03 0.  1.
         12    1    4    4    0    0  0.67256401007E+01 -0.89765537246E+00 -0.11908659218E+02  0.13706063779E+02  0.00000000000E+00 0. -1.
</event>
<event>
 8    1  0.2401680E-006  0.9118800E+02  0.7816164E-02  0.1184000E+00
        -11   -1    0    0    0    0  0.00000000000E+00  0.00000000000E+00  0.45593999997E+02  0.45594000000E+02  0.51100000000E-03 0. -1.
         11   -1    0    0    0    0 -0.00000000000E+00 -0.00000000000E+00 -0.45593999997E+02  0.45594000000E+02  0.51100000000E-03 0.  1.
         23    2    1    2    0    0 -0.71054273576E-14  0.00000000000E+00  0.00000000000E+00  0.91188000000E+02  0.91188000000E+02 0.  0.
    9900012    2    3    3    0    0 -0.35730332793E+02 -0.34293844479E+01 -0.82074995013E+01  0.54367076502E+02  0.39999982501E+02 0.  0.
         12    1    3    3    0    0  0.35730332793E+02  0.34293844479E+01  0.82074995013E+01  0.36820923498E+02  0.00000000000E+00 0. -1.
         11    1    4    4    0    0  0.56119537536E+00 -0.83765518030E+01 -0.66980159717E+01  0.10739877959E+02  0.51100000000E-03 0. -1.
        -11    1    4    4    0    0 -0.67063033771E+01 -0.81584645076E+01 -0.37117671260E+01  0.11194296028E+02  0.51100000000E-03 0.  1.
        -12    1    4    4    0    0 -0.29585224791E+02  0.13105631863E+02  0.22022835964E+01  0.32432902515E+02  0.00000000000E+00 0.  1.
</event>
<event>
 8    1  0.2401680E-006  0.9118800E+02  0.7816164E-02  0.1184000E+00
        -11   -1    0    0    0    0  0.00000000000E+00  0.00000000000E+00  0.45593999997E+02  0.45594000000E+02  0.51100000000E-03 0.  1.
         11   -1    0    0    0    0 -0.00000000000E+00 -0.00000000000E+00 -0.45593999997E+02  0.45594000000E+02  0.51100000000E-03 0. -1.
         23    2    1    2    0    0 -0.35527136788E-14  0.00000000000E+00  0.00000000000E+00  0.91188000000E+02  0.91188000000E+02 0.  0.
    9900012    2    3    3    0    0  0.22335264331E+02 -0.28927445053E+02 -0.44853487117E+01  0.54367089323E+02  0.40000011729E+02 0.  0.
        -12    1    3    3    0    0 -0.22335264331E+02  0.28927445053E+02  0.44853487117E+01  0.36820910677E+02  0.00000000000E+00 0.  1.
         11    1    4    4    0    0  0.37117160634E+01 -0.60721149228E+01 -0.55021642035E+01  0.89956226552E+01  0.51100000000E-03 0. -1.
        -11    1    4    4    0    0  0.81965410799E+01  0.88027997443E+01  0.13541468058E+00  0.12028753319E+02  0.51100000000E-03 0.  1.
        -12    1    4    4    0    0  0.10427007188E+02 -0.31658129874E+02  0.88140081131E+00  0.33342713348E+02  0.00000000000E+00 0.  1.
</event>
<event>
 8    1  0.2401680E-006  0.9118800E+02  0.7816164E-02  0.1184000E+00
        -11   -1    0    0    0    0  0.00000000000E+00  0.00000000000E+00  0.45593999997E+02  0.45594000000E+02  0.51100000000E-03 0. -1.
         11   -1    0    0    0    0 -0.00000000000E+00 -0.00000000000E+00 -0.45593999997E+02  0.45594000000E+02  0.51100000000E-03 0.  1.
         23    2    1    2    0    0 -0.88817841970E-15  0.00000000000E+00  0.00000000000E+00  0.91188000000E+02  0.91188000000E+02 0.  0.
    9900012    2    3    3    0    0 -0.15740614517E+01  0.10954379478E+02  0.35118412372E+02  0.54367095791E+02  0.40000026476E+02 0.  0.
        -12    1    3    3    0    0  0.15740614517E+01 -0.10954379478E+02 -0.35118412372E+02  0.36820904209E+02  0.00000000000E+00 0.  1.
         11    1    4    4    0    0  0.23595082722E+01  0.25499966425E+01  0.16093146692E+01  0.38287930381E+01  0.51100000000E-03 0. -1.
        -11    1    4    4    0    0  0.49897623003E+01 -0.13274099357E+02  0.15239974645E+02  0.20817210884E+02  0.51100000000E-03 0.  1.
         12    1    4    4    0    0 -0.89233320242E+01  0.21678482192E+02  0.18269123058E+02  0.29721091869E+02  0.00000000000E+00 0. -1.
</event>
<event>
 8    1  0.2401680E-006  0.9118800E+02  0.7816164E-02  0.1184000E+00
        -11   -1    0    0    0    0  0.00000000000E+00  0.00000000000E+00  0.45593999997E+02  0.45594000000E+02  0.51100000000E-03 0. -1.
         11   -1    0    0    0    0 -0.00000000000E+00 -0.00000000000E+00 -0.45593999997E+02  0.45594000000E+02  0.51100000000E-03 0.  1.
         23    2    1    2    0    0 -0.88817841970E-15 -0.35527136788E-14  0.35527136788E-14  0.91188000000E+02  0.91188000000E+02 0.  0.
    9900012    2    3    3    0    0  0.25060242070E+01  0.31116577420E+02 -0.19525850839E+02  0.54367076619E+02  0.39999982769E+02 0.  0.
         12    1    3    3    0    0 -0.25060242070E+01 -0.31116577420E+02  0.19525850839E+02  0.36820923381E+02  0.00000000000E+00 0. -1.
         11    1    4    4    0    0 -0.36048511209E-01  0.20229238494E+02 -0.20584163802E+02  0.28860547279E+02  0.51100000000E-03 0. -1.
        -11    1    4    4    0    0 -0.63361266160E+01  0.75673608965E+01 -0.77639740085E+01  0.12557497525E+02  0.51100000000E-03 0.  1.
         12    1    4    4    0    0  0.88781993342E+01  0.33199780293E+01  0.88222869719E+01  0.12949031815E+02  0.00000000000E+00 0. -1.
</event>
<event>
 8    1  0.2401680E-006  0.9118800E+02  0.7816164E-02  0.1184000E+00
        -11   -1    0    0    0    0  0.00000000000E+00  0.00000000000E+00  0.45593999997E+02  0.45594000000E+02  0.51100000000E-03 0. -1.
         11   -1    0    0    0    0 -0.00000000000E+00 -0.00000000000E+00 -0.45593999997E+02  0.45594000000E+02  0.51100000000E-03 0.  1.
         23    2    1    2    0    0  0.00000000000E+00  0.35527136788E-14  0.00000000000E+00  0.91188000000E+02  0.91188000000E+02 0.  0.
    9900012    2    3    3    0    0 -0.45419744117E+01 -0.24267416632E+02 -0.27317445087E+02  0.54367084101E+02  0.39999999826E+02 0.  0.
         12    1    3    3    0    0  0.45419744117E+01  0.24267416632E+02  0.27317445087E+02  0.36820915899E+02  0.00000000000E+00 0. -1.
         11    1    4    4    0    0 -0.99838781356E+00 -0.25640856858E+02 -0.12347191223E+02  0.28476366517E+02  0.51100000000E-03 0. -1.
        -11    1    4    4    0    0 -0.53146933739E+01 -0.90612713107E+01 -0.82031312729E+01  0.13328314461E+02  0.51100000000E-03 0.  1.
        -12    1    4    4    0    0  0.17711067758E+01  0.10434711537E+02 -0.67671225915E+01  0.12562403124E+02  0.00000000000E+00 0.  1.
</event>
<event>
 8    1  0.2401680E-006  0.9118800E+02  0.7816164E-02  0.1184000E+00
        -11   -1    0    0    0    0  0.00000000000E+00  0.00000000000E+00  0.45593999997E+02  0.45594000000E+02  0.51100000000E-03 0. -1.
         11   -1    0    0    0    0 -0.00000000000E+00 -0.00000000000E+00 -0.45593999997E+02  0.45594000000E+02  0.51100000000E-03 0.  1.
         23    2    1    2    0    0 -0.17763568394E-14  0.71054273576E-14 -0.88817841970E-15  0.91188000000E+02  0.91188000000E+02 0.  0.
    9900012    2    3    3    0    0  0.13760864111E+02 -0.33410394574E+02  0.70826711612E+01  0.54367080980E+02  0.39999992711E+02 0.  0.
        -12    1    3    3    0    0 -0.13760864111E+02  0.33410394574E+02 -0.70826711612E+01  0.36820919020E+02  0.00000000000E+00 0.  1.
         11    1    4    4    0    0 -0.22160700932E+01  0.45810060938E+01  0.12768175007E+01  0.52466033470E+01  0.51100000000E-03 0. -1.
        -11    1    4    4    0    0  0.94914997631E+01 -0.15017021470E+02 -0.10099152725E+02  0.20435077382E+02  0.51100000000E-03 0.  1.
         12    1    4    4    0    0  0.64854344414E+01 -0.22974379198E+02  0.15905006386E+02  0.28685400251E+02  0.00000000000E+00 0. -1.
</event>
<event>
 8    1  0.2401680E-006  0.9118800E+02  0.7816164E-02  0.1184000E+00
        -11   -1    0    0    0    0  0.00000000000E+00  0.00000000000E+00  0.45593999997E+02  0.45594000000E+02  0.51100000000E-03 0. -1.
         11   -1    0    0    0    0 -0.00000000000E+00 -0.00000000000E+00 -0.45593999997E+02  0.45594000000E+02  0.51100000000E-03 0.  1.
         23    2    1    2    0    0  0.00000000000E+00 -0.17763568394E-14  0.35527136788E-14  0.91188000000E+02  0.91188000000E+02 0.  0.
    9900012    2    3    3    0    0 -0.10977255853E+02 -0.14610388507E+02 -0.31965877485E+02  0.54367069515E+02  0.39999966573E+02 0.  0.
         12    1    3    3    0    0  0.10977255853E+02  0.14610388507E+02  0.31965877485E+02  0.36820930485E+02  0.00000000000E+00 0. -1.
         11    1    4    4    0    0  0.69000618874E+01  0.45147131408E+01 -0.38774773373E+01  0.91119876841E+01  0.51100000000E-03 0. -1.
        -11    1    4    4    0    0 -0.65526309420E+01 -0.22447220251E+02 -0.21352953039E+02  0.31666437643E+02  0.51100000000E-03 0.  1.
        -12    1    4    4    0    0 -0.11324686798E+02  0.33221186033E+01 -0.67354471093E+01  0.13588644187E+02  0.00000000000E+00 0.  1.
</event>
<event>
 8    1  0.2401680E-006  0.9118800E+02  0.7816164E-02  0.1184000E+00
        -11   -1    0    0    0    0  0.00000000000E+00  0.00000000000E+00  0.45593999997E+02  0.45594000000E+02  0.51100000000E-03 0.  1.
         11   -1    0    0    0    0 -0.00000000000E+00 -0.00000000000E+00 -0.45593999997E+02  0.45594000000E+02  0.51100000000E-03 0. -1.
         23    2    1    2    0    0  0.00000000000E+00 -0.35527136788E-14  0.00000000000E+00  0.91188000000E+02  0.91188000000E+02 0.  0.
    9900012    2    3    3    0    0  0.20627926509E+02 -0.24400665886E+02 -0.18299594888E+02  0.54367095329E+02  0.40000025421E+02 0.  0.
        -12    1    3    3    0    0 -0.20627926509E+02  0.24400665886E+02  0.18299594888E+02  0.36820904671E+02  0.00000000000E+00 0.  1.
         11    1    4    4    0    0 -0.44474492169E+01 -0.15160465461E+02 -0.15548848818E+02  0.22167232966E+02  0.51100000000E-03 0.  1.
        -11    1    4    4    0    0  0.11017621083E+02 -0.10927074694E+02  0.46827170767E+01  0.16208540193E+02  0.51100000000E-03 0. -1.
        -12    1    4    4    0    0  0.14057754643E+02  0.16868742693E+01 -0.74334631463E+01  0.15991322170E+02  0.00000000000E+00 0.  1.
</event>
<event>
 8    1  0.2401680E-006  0.9118800E+02  0.7816164E-02  0.1184000E+00
        -11   -1    0    0    0    0  0.00000000000E+00  0.00000000000E+00  0.45593999997E+02  0.45594000000E+02  0.51100000000E-03 0.  1.
         11   -1    0    0    0    0 -0.00000000000E+00 -0.00000000000E+00 -0.45593999997E+02  0.45594000000E+02  0.51100000000E-03 0. -1.
         23    2    1    2    0    0  0.17763568394E-14  0.35527136788E-14  0.00000000000E+00  0.91188000000E+02  0.91188000000E+02 0.  0.
    9900012    2    3    3    0    0  0.12179005978E+02 -0.10250777390E+02  0.33202218125E+02  0.54366893116E+02  0.39999564435E+02 0.  0.
         12    1    3    3    0    0 -0.12179005978E+02  0.10250777390E+02 -0.33202218125E+02  0.36821106884E+02  0.00000000000E+00 0. -1.
         11    1    4    4    0    0  0.42083110699E+01 -0.22181216083E+02  0.25920227142E+02  0.34374036777E+02  0.51100000000E-03 0.  1.
        -11    1    4    4    0    0  0.60072271150E+00  0.37540402725E+01 -0.30666258917E+01  0.48844529647E+01  0.51100000000E-03 0. -1.
        -12    1    4    4    0    0  0.73699721961E+01  0.81763984204E+01  0.10348616875E+02  0.15108403375E+02  0.00000000000E+00 0.  1.
</event>
<event>
 8    1  0.2401680E-006  0.9118800E+02  0.7816164E-02  0.1184000E+00
        -11   -1    0    0    0    0  0.00000000000E+00  0.00000000000E+00  0.45593999997E+02  0.45594000000E+02  0.51100000000E-03 0. -1.
         11   -1    0    0    0    0 -0.00000000000E+00 -0.00000000000E+00 -0.45593999997E+02  0.45594000000E+02  0.51100000000E-03 0.  1.
         23    2    1    2    0    0  0.00000000000E+00  0.44408920985E-15  0.00000000000E+00  0.91188000000E+02  0.91188000000E+02 0.  0.
    9900012    2    3    3    0    0  0.17033706211E+02  0.26880881320E+01  0.32533167596E+02  0.54367082590E+02  0.39999996381E+02 0.  0.
        -12    1    3    3    0    0 -0.17033706211E+02 -0.26880881320E+01 -0.32533167596E+02  0.36820917410E+02  0.00000000000E+00 0.  1.
         11    1    4    4    0    0  0.96661748129E+01  0.12445570581E+02  0.16484571689E+02  0.22805005297E+02  0.51100000000E-03 0. -1.
        -11    1    4    4    0    0  0.15647240593E+02 -0.46080434548E+01  0.55400020388E+01  0.17226776410E+02  0.51100000000E-03 0.  1.
         12    1    4    4    0    0 -0.82797091948E+01 -0.51494389938E+01  0.10508593869E+02  0.14335300883E+02  0.00000000000E+00 0. -1.
</event>
<event>
 8    1  0.2401680E-006  0.9118800E+02  0.7816164E-02  0.1184000E+00
        -11   -1    0    0    0    0  0.00000000000E+00  0.00000000000E+00  0.45593999997E+02  0.45594000000E+02  0.51100000000E-03 0. -1.
         11   -1    0    0    0    0 -0.00000000000E+00 -0.00000000000E+00 -0.45593999997E+02  0.45594000000E+02  0.51100000000E-03 0.  1.
         23    2    1    2    0    0  0.00000000000E+00  0.00000000000E+00 -0.88817841970E-15  0.91188000000E+02  0.91188000000E+02 0.  0.
    9900012    2    3    3    0    0  0.34076493629E+02 -0.12591514746E+02 -0.60020899943E+01  0.54367099061E+02  0.40000033930E+02 0.  0.
         12    1    3    3    0    0 -0.34076493629E+02  0.12591514746E+02  0.60020899943E+01  0.36820900939E+02  0.00000000000E+00 0. -1.
         11    1    4    4    0    0  0.26147297672E+02 -0.49424097823E+01  0.95675499539E+01  0.28278023311E+02  0.51100000000E-03 0. -1.
        -11    1    4    4    0    0  0.13633577324E+02 -0.50376547900E+01 -0.12149407245E+02  0.18943613517E+02  0.51100000000E-03 0.  1.
         12    1    4    4    0    0 -0.57043813665E+01 -0.26114501732E+01 -0.34202327031E+01  0.71454622331E+01  0.00000000000E+00 0. -1.
</event>
<event>
 8    1  0.2401680E-006  0.9118800E+02  0.7816164E-02  0.1184000E+00
        -11   -1    0    0    0    0  0.00000000000E+00  0.00000000000E+00  0.45593999997E+02  0.45594000000E+02  0.51100000000E-03 0.  1.
         11   -1    0    0    0    0 -0.00000000000E+00 -0.00000000000E+00 -0.45593999997E+02  0.45594000000E+02  0.51100000000E-03 0. -1.
         23    2    1    2    0    0  0.17763568394E-14 -0.71054273576E-14  0.00000000000E+00  0.91188000000E+02  0.91188000000E+02 0.  0.
    9900012    2    3    3    0    0  0.14138804009E+02  0.33578183620E+02 -0.53268458515E+01  0.54367143400E+02  0.40000135009E+02 0.  0.
         12    1    3    3    0    0 -0.14138804009E+02 -0.33578183620E+02  0.53268458515E+01  0.36820856600E+02  0.00000000000E+00 0. -1.
         11    1    4    4    0    0  0.95066128601E+01  0.25364474953E+01 -0.36634961317E+01  0.10499069394E+02  0.51100000000E-03 0. -1.
        -11    1    4    4    0    0  0.16681473388E+02  0.25238439246E+02 -0.31267914004E+01  0.30414259726E+02  0.51100000000E-03 0.  1.
         12    1    4    4    0    0 -0.12049282239E+02  0.58032968787E+01  0.14634416806E+01  0.13453814280E+02  0.00000000000E+00 0. -1.
</event>
<event>
 8    1  0.2401680E-006  0.9118800E+02  0.7816164E-02  0.1184000E+00
        -11   -1    0    0    0    0  0.00000000000E+00  0.00000000000E+00  0.45593999997E+02  0.45594000000E+02  0.51100000000E-03 0.  1.
         11   -1    0    0    0    0 -0.00000000000E+00 -0.00000000000E+00 -0.45593999997E+02  0.45594000000E+02  0.51100000000E-03 0. -1.
         23    2    1    2    0    0  0.00000000000E+00  0.17763568394E-14  0.00000000000E+00  0.91188000000E+02  0.91188000000E+02 0.  0.
    9900012    2    3    3    0    0  0.15701700473E+02  0.44381306481E+01  0.33008166630E+02  0.54367089288E+02  0.40000011650E+02 0.  0.
         12    1    3    3    0    0 -0.15701700473E+02 -0.44381306481E+01 -0.33008166630E+02  0.36820910712E+02  0.00000000000E+00 0. -1.
         11    1    4    4    0    0  0.19911859164E+01  0.82447716893E+01 -0.67645723251E+01  0.10848987076E+02  0.51100000000E-03 0. -1.
        -11    1    4    4    0    0  0.40788298823E+01  0.31720017253E+01  0.73661111201E+01  0.89976686674E+01  0.51100000000E-03 0.  1.
         12    1    4    4    0    0  0.96316846748E+01 -0.69786427665E+01  0.32406627835E+02  0.34520433545E+02  0.00000000000E+00 0. -1.
</event>
<event>
 8    1  0.2401680E-006  0.9118800E+02  0.7816164E-02  0.1184000E+00
        -11   -1    0    0    0    0  0.00000000000E+00  0.00000000000E+00  0.45593999997E+02  0.45594000000E+02  0.51100000000E-03 0.  1.
         11   -1    0    0    0    0 -0.00000000000E+00 -0.00000000000E+00 -0.45593999997E+02  0.45594000000E+02  0.51100000000E-03 0. -1.
         23    2    1    2    0    0 -0.44408920985E-15  0.00000000000E+00 -0.35527136788E-14  0.91188000000E+02  0.91188000000E+02 0.  0.
    9900012    2    3    3    0    0 -0.20488539496E+01  0.30896530571E+02 -0.19924617391E+02  0.54367030675E+02  0.39999878030E+02 0.  0.
        -12    1    3    3    0    0  0.20488539496E+01 -0.30896530571E+02  0.19924617391E+02  0.36820969325E+02  0.00000000000E+00 0.  1.
         11    1    4    4    0    0  0.56676014220E+01  0.10384591288E+02 -0.16624260620E+02  0.20404104576E+02  0.51100000000E-03 0. -1.
        -11    1    4    4    0    0 -0.12867595380E+02  0.18323877269E+02  0.59352699263E+01  0.23163914143E+02  0.51100000000E-03 0.  1.
         12    1    4    4    0    0  0.51511400088E+01  0.21880620139E+01 -0.92356266969E+01  0.10799011957E+02  0.00000000000E+00 0. -1.
</event>
<event>
 8    1  0.2401680E-006  0.9118800E+02  0.7816164E-02  0.1184000E+00
        -11   -1    0    0    0    0  0.00000000000E+00  0.00000000000E+00  0.45593999997E+02  0.45594000000E+02  0.51100000000E-03 0.  1.
         11   -1    0    0    0    0 -0.00000000000E+00 -0.00000000000E+00 -0.45593999997E+02  0.45594000000E+02  0.51100000000E-03 0. -1.
         23    2    1    2    0    0  0.00000000000E+00  0.00000000000E+00  0.35527136788E-14  0.91188000000E+02  0.91188000000E+02 0.  0.
    9900012    2    3    3    0    0  0.18978548697E+02  0.22335308539E+02 -0.22287474834E+02  0.54367043295E+02  0.39999906800E+02 0.  0.
        -12    1    3    3    0    0 -0.18978548697E+02 -0.22335308539E+02  0.22287474834E+02  0.36820956705E+02  0.00000000000E+00 0.  1.
         11    1    4    4    0    0 -0.67108021711E+00  0.21610083895E+01 -0.36092344292E+01  0.42599154151E+01  0.51100000000E-03 0. -1.
        -11    1    4    4    0    0  0.19428910143E+02  0.24481831477E+02 -0.26629991741E+02  0.41060919159E+02  0.51100000000E-03 0.  1.
        -12    1    4    4    0    0  0.22071877126E+00 -0.43075313272E+01  0.79517513364E+01  0.90462087212E+01  0.00000000000E+00 0.  1.
</event>
<event>
 8    1  0.2401680E-006  0.9118800E+02  0.7816164E-02  0.1184000E+00
        -11   -1    0    0    0    0  0.00000000000E+00  0.00000000000E+00  0.45593999997E+02  0.45594000000E+02  0.51100000000E-03 0. -1.
         11   -1    0    0    0    0 -0.00000000000E+00 -0.00000000000E+00 -0.45593999997E+02  0.45594000000E+02  0.51100000000E-03 0.  1.
         23    2    1    2    0    0  0.00000000000E+00 -0.35527136788E-14  0.00000000000E+00  0.91188000000E+02  0.91188000000E+02 0.  0.
    9900012    2    3    3    0    0  0.10912803459E+02  0.29572199573E+02 -0.19031240072E+02  0.54366914117E+02  0.39999612311E+02 0.  0.
         12    1    3    3    0    0 -0.10912803459E+02 -0.29572199573E+02  0.19031240072E+02  0.36821085883E+02  0.00000000000E+00 0. -1.
         11    1    4    4    0    0  0.71196495915E+01 -0.29188741833E+01 -0.10960677070E+02  0.13392000556E+02  0.51100000000E-03 0. -1.
        -11    1    4    4    0    0 -0.64293558883E+01  0.41224986756E+01 -0.76613415068E+01  0.10817937253E+02  0.51100000000E-03 0.  1.
        -12    1    4    4    0    0  0.10222509756E+02  0.28368575080E+02 -0.40922149508E+00  0.30156976308E+02  0.00000000000E+00 0.  1.
</event>
<event>
 8    1  0.2401680E-006  0.9118800E+02  0.7816164E-02  0.1184000E+00
        -11   -1    0    0    0    0  0.00000000000E+00  0.00000000000E+00  0.45593999997E+02  0.45594000000E+02  0.51100000000E-03 0.  1.
         11   -1    0    0    0    0 -0.00000000000E+00 -0.00000000000E+00 -0.45593999997E+02  0.45594000000E+02  0.51100000000E-03 0. -1.
         23    2    1    2    0    0  0.00000000000E+00  0.00000000000E+00  0.00000000000E+00  0.91188000000E+02  0.91188000000E+02 0.  0.
    9900012    2    3    3    0    0  0.18567748011E+02  0.23319678213E+02 -0.21615078046E+02  0.54367078541E+02  0.39999987150E+02 0.  0.
        -12    1    3    3    0    0 -0.18567748011E+02 -0.23319678213E+02  0.21615078046E+02  0.36820921459E+02  0.00000000000E+00 0.  1.
         11    1    4    4    0    0  0.13886572505E+02 -0.46424416692E+00 -0.17144958793E+02  0.22068122504E+02  0.51100000000E-03 0. -1.
        -11    1    4    4    0    0  0.12439544381E+02  0.12411144764E+02  0.71796765541E+00  0.17586763675E+02  0.51100000000E-03 0.  1.
         12    1    4    4    0    0 -0.77583688752E+01  0.11372777617E+02 -0.51880869083E+01  0.14712192362E+02  0.00000000000E+00 0. -1.
</event>
<event>
 8    1  0.2401680E-006  0.9118800E+02  0.7816164E-02  0.1184000E+00
        -11   -1    0    0    0    0  0.00000000000E+00  0.00000000000E+00  0.45593999997E+02  0.45594000000E+02  0.51100000000E-03 0.  1.
         11   -1    0    0    0    0 -0.00000000000E+00 -0.00000000000E+00 -0.45593999997E+02  0.45594000000E+02  0.51100000000E-03 0. -1.
         23    2    1    2    0    0 -0.35527136788E-14 -0.35527136788E-14  0.17763568394E-14  0.91188000000E+02  0.91188000000E+02 0.  0.
    9900012    2    3    3    0    0 -0.20349434796E+02 -0.28999905580E+02  0.10034242100E+02  0.54367081561E+02  0.39999994034E+02 0.  0.
         12    1    3    3    0    0  0.20349434796E+02  0.28999905580E+02 -0.10034242100E+02  0.36820918439E+02  0.00000000000E+00 0. -1.
         11    1    4    4    0    0  0.11400483563E+01 -0.30961596989E+01 -0.46316294768E+01  0.56866428591E+01  0.51100000000E-03 0. -1.
        -11    1    4    4    0    0 -0.27039905454E+01 -0.17449673815E+02 -0.68064354822E+01  0.18924329456E+02  0.51100000000E-03 0.  1.
         12    1    4    4    0    0 -0.18785492607E+02 -0.84540720660E+01  0.21472307059E+02  0.29756109246E+02  0.00000000000E+00 0. -1.
</event>
<event>
 8    1  0.2401680E-006  0.9118800E+02  0.7816164E-02  0.1184000E+00
        -11   -1    0    0    0    0  0.00000000000E+00  0.00000000000E+00  0.45593999997E+02  0.45594000000E+02  0.51100000000E-03 0. -1.
         11   -1    0    0    0    0 -0.00000000000E+00 -0.00000000000E+00 -0.45593999997E+02  0.45594000000E+02  0.51100000000E-03 0.  1.
         23    2    1    2    0    0 -0.71054273576E-14  0.35527136788E-14  0.00000000000E+00  0.91188000000E+02  0.91188000000E+02 0.  0.
    9900012    2    3    3    0    0  0.30504347582E+02 -0.20101855018E+02 -0.46029908607E+01  0.54366982613E+02  0.39999768462E+02 0.  0.
        -12    1    3    3    0    0 -0.30504347582E+02  0.20101855018E+02  0.46029908607E+01  0.36821017387E+02  0.00000000000E+00 0.  1.
         11    1    4    4    0    0  0.48562068973E+01 -0.84793539042E+01 -0.37661832953E+01  0.10472169065E+02  0.51100000000E-03 0. -1.
        -11    1    4    4    0    0 -0.10702460554E+01 -0.12085855392E+02 -0.99185390653E+01  0.15671335126E+02  0.51100000000E-03 0.  1.
         12    1    4    4    0    0  0.26718386740E+02  0.46335427823E+00  0.90817314999E+01  0.28223478422E+02  0.00000000000E+00 0. -1.
</event>
<event>
 8    1  0.2401680E-006  0.9118800E+02  0.7816164E-02  0.1184000E+00
        -11   -1    0    0    0    0  0.00000000000E+00  0.00000000000E+00  0.45593999997E+02  0.45594000000E+02  0.51100000000E-03 0.  1.
         11   -1    0    0    0    0 -0.00000000000E+00 -0.00000000000E+00 -0.45593999997E+02  0.45594000000E+02  0.51100000000E-03 0. -1.
         23    2    1    2    0    0 -0.88817841970E-15  0.17763568394E-14  0.00000000000E+00  0.91188000000E+02  0.91188000000E+02 0.  0.
    9900012    2    3    3    0    0  0.78767815665E+01  0.20786470132E+01  0.35908447145E+02  0.54367067942E+02  0.39999962987E+02 0.  0.
         12    1    3    3    0    0 -0.78767815665E+01 -0.20786470132E+01 -0.35908447145E+02  0.36820932058E+02  0.00000000000E+00 0. -1.
         11    1    4    4    0    0  0.19179492171E+01 -0.33857412108E+01  0.61637889685E+01  0.72893118643E+01  0.51100000000E-03 0. -1.
        -11    1    4    4    0    0 -0.26113790612E+01 -0.13783457911E+02  0.57927856873E+01  0.15177594633E+02  0.51100000000E-03 0.  1.
        -12    1    4    4    0    0  0.85702114106E+01  0.19247846135E+02  0.23951872489E+02  0.31900161444E+02  0.00000000000E+00 0.  1.
</event>
<event>
 8    1  0.2401680E-006  0.9118800E+02  0.7816164E-02  0.1184000E+00
        -11   -1    0    0    0    0  0.00000000000E+00  0.00000000000E+00  0.45593999997E+02  0.45594000000E+02  0.51100000000E-03 0.  1.
         11   -1    0    0    0    0 -0.00000000000E+00 -0.00000000000E+00 -0.45593999997E+02  0.45594000000E+02  0.51100000000E-03 0. -1.
         23    2    1    2    0    0  0.00000000000E+00  0.00000000000E+00  0.00000000000E+00  0.91188000000E+02  0.91188000000E+02 0.  0.
    9900012    2    3    3    0    0  0.33955357037E+02  0.14041843540E+02 -0.23749266471E+01  0.54367083145E+02  0.39999997645E+02 0.  0.
         12    1    3    3    0    0 -0.33955357037E+02 -0.14041843540E+02  0.23749266471E+01  0.36820916855E+02  0.00000000000E+00 0. -1.
         11    1    4    4    0    0 -0.54425142050E+01  0.18196923656E+00 -0.22395154847E+01  0.58880814823E+01  0.51100000000E-03 0. -1.
        -11    1    4    4    0    0  0.28806397261E+02 -0.25774012964E+01 -0.35521528750E+00  0.28923652929E+02  0.51100000000E-03 0.  1.
         12    1    4    4    0    0  0.10591473981E+02  0.16437275599E+02  0.21980412517E+00  0.19555348733E+02  0.00000000000E+00 0. -1.
</event>
<event>
 8    1  0.2401680E-006  0.9118800E+02  0.7816164E-02  0.1184000E+00
        -11   -1    0    0    0    0  0.00000000000E+00  0.00000000000E+00  0.45593999997E+02  0.45594000000E+02  0.51100000000E-03 0.  1.
         11   -1    0    0    0    0 -0.00000000000E+00 -0.00000000000E+00 -0.45593999997E+02  0.45594000000E+02  0.51100000000E-03 0. -1.
         23    2    1    2    0    0  0.00000000000E+00  0.35527136788E-14 -0.35527136788E-14  0.91188000000E+02  0.91188000000E+02 0.  0.
    9900012    2    3    3    0    0  0.19685818315E+02 -0.25097039410E+02  0.18395289863E+02  0.54367088563E+02  0.40000009996E+02 0.  0.
         12    1    3    3    0    0 -0.19685818315E+02  0.25097039410E+02 -0.18395289863E+02  0.36820911437E+02  0.00000000000E+00 0. -1.
         11    1    4    4    0    0  0.44290248458E+00 -0.69242322806E+00  0.86830875489E+01  0.87219047336E+01  0.51100000000E-03 0. -1.
        -11    1    4    4    0    0  0.15867895463E+02 -0.30478745058E+02  0.14406043408E+02  0.37259604046E+02  0.51100000000E-03 0.  1.
         12    1    4    4    0    0  0.33750203684E+01  0.60741288761E+01 -0.46938410930E+01  0.83855797830E+01  0.00000000000E+00 0. -1.
</event>
<event>
 8    1  0.2401680E-006  0.9118800E+02  0.7816164E-02  0.1184000E+00
        -11   -1    0    0    0    0  0.00000000000E+00  0.00000000000E+00  0.45593999997E+02  0.45594000000E+02  0.51100000000E-03 0. -1.
         11   -1    0    0    0    0 -0.00000000000E+00 -0.00000000000E+00 -0.45593999997E+02  0.45594000000E+02  0.51100000000E-03 0.  1.
         23    2    1    2    0    0  0.00000000000E+00 -0.35527136788E-14 -0.11102230246E-14  0.91188000000E+02  0.91188000000E+02 0.  0.
    9900012    2    3    3    0    0  0.19816513867E+02  0.30994667376E+02  0.15541155141E+01  0.54367096934E+02  0.40000029080E+02 0.  0.
        -12    1    3    3    0    0 -0.19816513867E+02 -0.30994667376E+02 -0.15541155141E+01  0.36820903066E+02  0.00000000000E+00 0.  1.
         11    1    4    4    0    0 -0.32089121409E+01  0.23629707591E+02  0.13060273924E+02  0.27188801982E+02  0.51100000000E-03 0. -1.
        -11    1    4    4    0    0  0.92968919481E+01  0.64543901934E+00 -0.38498774584E+01  0.10083171531E+02  0.51100000000E-03 0.  1.
         12    1    4    4    0    0  0.13728534060E+02  0.67195207654E+01 -0.76562809516E+01  0.17095123421E+02  0.00000000000E+00 0. -1.
</event>
<event>
 8    1  0.2401680E-006  0.9118800E+02  0.7816164E-02  0.1184000E+00
        -11   -1    0    0    0    0  0.00000000000E+00  0.00000000000E+00  0.45593999997E+02  0.45594000000E+02  0.51100000000E-03 0.  1.
         11   -1    0    0    0    0 -0.00000000000E+00 -0.00000000000E+00 -0.45593999997E+02  0.45594000000E+02  0.51100000000E-03 0. -1.
         23    2    1    2    0    0 -0.17763568394E-14  0.88817841970E-15  0.00000000000E+00  0.91188000000E+02  0.91188000000E+02 0.  0.
    9900012    2    3    3    0    0  0.13119530089E+02 -0.53667871215E+01  0.33983170608E+02  0.54367077166E+02  0.39999984016E+02 0.  0.
         12    1    3    3    0    0 -0.13119530089E+02  0.53667871215E+01 -0.33983170608E+02  0.36820922834E+02  0.00000000000E+00 0. -1.
         11    1    4    4    0    0 -0.93472500278E+00  0.40499294387E+01  0.11245373871E+01  0.43058360263E+01  0.51100000000E-03 0. -1.
        -11    1    4    4    0    0  0.20175563626E+02 -0.48541485029E+01  0.36201166035E+02  0.41726976261E+02  0.51100000000E-03 0.  1.
         12    1    4    4    0    0 -0.61213085344E+01 -0.45625680572E+01 -0.33425328144E+01  0.83342648785E+01  0.00000000000E+00 0. -1.
</event>
<event>
 8    1  0.2401680E-006  0.9118800E+02  0.7816164E-02  0.1184000E+00
        -11   -1    0    0    0    0  0.00000000000E+00  0.00000000000E+00  0.45593999997E+02  0.45594000000E+02  0.51100000000E-03 0. -1.
         11   -1    0    0    0    0 -0.00000000000E+00 -0.00000000000E+00 -0.45593999997E+02  0.45594000000E+02  0.51100000000E-03 0.  1.
         23    2    1    2    0    0  0.00000000000E+00 -0.35527136788E-14  0.35527136788E-14  0.91188000000E+02  0.91188000000E+02 0.  0.
    9900012    2    3    3    0    0 -0.24443763297E+02  0.22743371183E+02 -0.15524862529E+02  0.54367084022E+02  0.39999999645E+02 0.  0.
         12    1    3    3    0    0  0.24443763297E+02 -0.22743371183E+02  0.15524862529E+02  0.36820915978E+02  0.00000000000E+00 0. -1.
         11    1    4    4    0    0 -0.59633205675E+01  0.14280040893E+01  0.19367425638E+01  0.64305023046E+01  0.51100000000E-03 0.  1.
        -11    1    4    4    0    0 -0.19938739953E+02 -0.26131491000E+01 -0.42112289323E+01  0.20545470268E+02  0.51100000000E-03 0. -1.
         12    1    4    4    0    0  0.14582972235E+01  0.23928516194E+02 -0.13250376161E+02  0.27391111450E+02  0.00000000000E+00 0. -1.
</event>
<event>
 8    1  0.2401680E-006  0.9118800E+02  0.7816164E-02  0.1184000E+00
        -11   -1    0    0    0    0  0.00000000000E+00  0.00000000000E+00  0.45593999997E+02  0.45594000000E+02  0.51100000000E-03 0.  1.
         11   -1    0    0    0    0 -0.00000000000E+00 -0.00000000000E+00 -0.45593999997E+02  0.45594000000E+02  0.51100000000E-03 0. -1.
         23    2    1    2    0    0 -0.44408920985E-15  0.00000000000E+00 -0.35527136788E-14  0.91188000000E+02  0.91188000000E+02 0.  0.
    9900012    2    3    3    0    0  0.29796710444E+01 -0.18470195672E+02  0.31713609553E+02  0.54367087483E+02  0.40000007535E+02 0.  0.
         12    1    3    3    0    0 -0.29796710444E+01  0.18470195672E+02 -0.31713609553E+02  0.36820912517E+02  0.00000000000E+00 0. -1.
         11    1    4    4    0    0  0.11668811071E+02 -0.90229135650E+01  0.59313141330E+01  0.15898258037E+02  0.51100000000E-03 0. -1.
        -11    1    4    4    0    0 -0.14495644446E+02  0.28860103276E+01  0.15297513678E+02  0.21271264385E+02  0.51100000000E-03 0.  1.
        -12    1    4    4    0    0  0.58065044194E+01 -0.12333292435E+02  0.10484781742E+02  0.17197565061E+02  0.00000000000E+00 0.  1.
</event>
<event>
 8    1  0.2401680E-006  0.9118800E+02  0.7816164E-02  0.1184000E+00
        -11   -1    0    0    0    0  0.00000000000E+00  0.00000000000E+00  0.45593999997E+02  0.45594000000E+02  0.51100000000E-03 0.  1.
         11   -1    0    0    0    0 -0.00000000000E+00 -0.00000000000E+00 -0.45593999997E+02  0.45594000000E+02  0.51100000000E-03 0. -1.
         23    2    1    2    0    0  0.16653345369E-14  0.00000000000E+00  0.00000000000E+00  0.91188000000E+02  0.91188000000E+02 0.  0.
    9900012    2    3    3    0    0  0.75704911426E+00  0.96905503472E+01  0.35514695319E+02  0.54367170664E+02  0.40000197163E+02 0.  0.
         12    1    3    3    0    0 -0.75704911426E+00 -0.96905503472E+01 -0.35514695319E+02  0.36820829336E+02  0.00000000000E+00 0. -1.
         11    1    4    4    0    0 -0.26340456403E+01  0.13375806201E+02  0.60970765362E+01  0.14934012538E+02  0.51100000000E-03 0.  1.
        -11    1    4    4    0    0 -0.10763417542E+02 -0.14467095012E+01  0.73242734322E+01  0.13099202538E+02  0.51100000000E-03 0. -1.
        -12    1    4    4    0    0  0.14154512296E+02 -0.22385463521E+01  0.22093345350E+02  0.26333955588E+02  0.00000000000E+00 0.  1.
</event>
<event>
 8    1  0.2401680E-006  0.9118800E+02  0.7816164E-02  0.1184000E+00
        -11   -1    0    0    0    0  0.00000000000E+00  0.00000000000E+00  0.45593999997E+02  0.45594000000E+02  0.51100000000E-03 0.  1.
         11   -1    0    0    0    0 -0.00000000000E+00 -0.00000000000E+00 -0.45593999997E+02  0.45594000000E+02  0.51100000000E-03 0. -1.
         23    2    1    2    0    0  0.00000000000E+00 -0.35527136788E-14 -0.17763568394E-14  0.91188000000E+02  0.91188000000E+02 0.  0.
    9900012    2    3    3    0    0  0.18978051204E+02  0.29472429643E+02  0.11268961516E+02  0.54367081622E+02  0.39999994174E+02 0.  0.
        -12    1    3    3    0    0 -0.18978051204E+02 -0.29472429643E+02 -0.11268961516E+02  0.36820918378E+02  0.00000000000E+00 0.  1.
         11    1    4    4    0    0  0.13036414367E+02  0.20774655882E+02  0.64359928302E+00  0.24534641771E+02  0.51100000000E-03 0. -1.
        -11    1    4    4    0    0  0.79055767436E+01  0.14763749218E+02  0.14685081135E+02  0.22273707433E+02  0.51100000000E-03 0.  1.
         12    1    4    4    0    0 -0.19639399064E+01 -0.60659754564E+01 -0.40597189024E+01  0.75587324176E+01  0.00000000000E+00 0. -1.
</event>
<event>
 8    1  0.2401680E-006  0.9118800E+02  0.7816164E-02  0.1184000E+00
        -11   -1    0    0    0    0  0.00000000000E+00  0.00000000000E+00  0.45593999997E+02  0.45594000000E+02  0.51100000000E-03 0.  1.
         11   -1    0    0    0    0 -0.00000000000E+00 -0.00000000000E+00 -0.45593999997E+02  0.45594000000E+02  0.51100000000E-03 0. -1.
         23    2    1    2    0    0 -0.17763568394E-14 -0.17763568394E-14  0.00000000000E+00  0.91188000000E+02  0.91188000000E+02 0.  0.
    9900012    2    3    3    0    0  0.11158285715E+02  0.10720039031E+02  0.33411874600E+02  0.54367082830E+02  0.39999996927E+02 0.  0.
         12    1    3    3    0    0 -0.11158285715E+02 -0.10720039031E+02 -0.33411874600E+02  0.36820917170E+02  0.00000000000E+00 0. -1.
         11    1    4    4    0    0  0.22895877724E+02  0.61524672361E+01  0.21805370656E+02  0.32210995941E+02  0.51100000000E-03 0. -1.
        -11    1    4    4    0    0 -0.12458961261E+02 -0.16875925115E+01  0.79312649859E+01  0.14865350609E+02  0.51100000000E-03 0.  1.
        -12    1    4    4    0    0  0.72136925220E+00  0.62551643069E+01  0.36752389588E+01  0.72907362803E+01  0.00000000000E+00 0.  1.
</event>
<event>
 8    1  0.2401680E-006  0.9118800E+02  0.7816164E-02  0.1184000E+00
        -11   -1    0    0    0    0  0.00000000000E+00  0.00000000000E+00  0.45593999997E+02  0.45594000000E+02  0.51100000000E-03 0. -1.
         11   -1    0    0    0    0 -0.00000000000E+00 -0.00000000000E+00 -0.45593999997E+02  0.45594000000E+02  0.51100000000E-03 0.  1.
         23    2    1    2    0    0  0.35527136788E-14  0.00000000000E+00  0.00000000000E+00  0.91188000000E+02  0.91188000000E+02 0.  0.
    9900012    2    3    3    0    0 -0.22368375147E+02 -0.27433631363E+02 -0.10140502995E+02  0.54367107323E+02  0.40000052765E+02 0.  0.
        -12    1    3    3    0    0  0.22368375147E+02  0.27433631363E+02  0.10140502995E+02  0.36820892677E+02  0.00000000000E+00 0.  1.
         11    1    4    4    0    0 -0.15283777110E+02 -0.24824001262E+02 -0.44813256620E+01  0.29494188603E+02  0.51100000000E-03 0. -1.
        -11    1    4    4    0    0  0.34247559348E+01  0.19277098363E+01 -0.11406184413E+02  0.12064247243E+02  0.51100000000E-03 0.  1.
         12    1    4    4    0    0 -0.10509353972E+02 -0.45373399370E+01  0.57470070798E+01  0.12808671477E+02  0.00000000000E+00 0. -1.
</event>
<event>
 8    1  0.2401680E-006  0.9118800E+02  0.7816164E-02  0.1184000E+00
        -11   -1    0    0    0    0  0.00000000000E+00  0.00000000000E+00  0.45593999997E+02  0.45594000000E+02  0.51100000000E-03 0.  1.
         11   -1    0    0    0    0 -0.00000000000E+00 -0.00000000000E+00 -0.45593999997E+02  0.45594000000E+02  0.51100000000E-03 0. -1.
         23    2    1    2    0    0 -0.71054273576E-14  0.00000000000E+00 -0.88817841970E-15  0.91188000000E+02  0.91188000000E+02 0.  0.
    9900012    2    3    3    0    0 -0.36387737407E+02 -0.10868138599E+01 -0.55255891536E+01  0.54367072072E+02  0.39999972402E+02 0.  0.
        -12    1    3    3    0    0  0.36387737407E+02  0.10868138599E+01  0.55255891536E+01  0.36820927928E+02  0.00000000000E+00 0.  1.
         11    1    4    4    0    0 -0.16788296214E+02  0.24374797478E+01 -0.21704169696E+02  0.27547398784E+02  0.51100000000E-03 0. -1.
        -11    1    4    4    0    0 -0.49273198058E+00 -0.19335553903E+01  0.51182630773E+00  0.20599484659E+01  0.51100000000E-03 0.  1.
        -12    1    4    4    0    0 -0.19106709213E+02 -0.15907382174E+01  0.15666754235E+02  0.24759724822E+02  0.00000000000E+00 0.  1.
</event>
<event>
 8    1  0.2401680E-006  0.9118800E+02  0.7816164E-02  0.1184000E+00
        -11   -1    0    0    0    0  0.00000000000E+00  0.00000000000E+00  0.45593999997E+02  0.45594000000E+02  0.51100000000E-03 0.  1.
         11   -1    0    0    0    0 -0.00000000000E+00 -0.00000000000E+00 -0.45593999997E+02  0.45594000000E+02  0.51100000000E-03 0. -1.
         23    2    1    2    0    0 -0.88817841970E-15 -0.17763568394E-14  0.71054273576E-14  0.91188000000E+02  0.91188000000E+02 0.  0.
    9900012    2    3    3    0    0 -0.20437575614E+01  0.77184716692E+01 -0.35944788835E+02  0.54367087541E+02  0.40000007668E+02 0.  0.
        -12    1    3    3    0    0  0.20437575614E+01 -0.77184716692E+01  0.35944788835E+02  0.36820912459E+02  0.00000000000E+00 0.  1.
         11    1    4    4    0    0 -0.54601516270E+01  0.56473889270E+01 -0.17410228053E+02  0.19100321950E+02  0.51100000000E-03 0. -1.
        -11    1    4    4    0    0  0.21035033942E+01 -0.24588879000E+01 -0.26128115469E+02  0.26327728243E+02  0.51100000000E-03 0.  1.
        -12    1    4    4    0    0  0.13128906713E+01  0.45299706421E+01  0.75935546865E+01  0.89390373480E+01  0.00000000000E+00 0.  1.
</event>
<event>
 8    1  0.2401680E-006  0.9118800E+02  0.7816164E-02  0.1184000E+00
        -11   -1    0    0    0    0  0.00000000000E+00  0.00000000000E+00  0.45593999997E+02  0.45594000000E+02  0.51100000000E-03 0. -1.
         11   -1    0    0    0    0 -0.00000000000E+00 -0.00000000000E+00 -0.45593999997E+02  0.45594000000E+02  0.51100000000E-03 0.  1.
         23    2    1    2    0    0  0.17763568394E-14  0.00000000000E+00  0.35527136788E-14  0.91188000000E+02  0.91188000000E+02 0.  0.
    9900012    2    3    3    0    0  0.11537466784E+02 -0.18534269285E+02 -0.29650413967E+02  0.54367091182E+02  0.40000015969E+02 0.  0.
         12    1    3    3    0    0 -0.11537466784E+02  0.18534269285E+02  0.29650413967E+02  0.36820908818E+02  0.00000000000E+00 0. -1.
         11    1    4    4    0    0  0.18776457385E+02  0.74836495387E+00 -0.10903293248E+02  0.21725496679E+02  0.51100000000E-03 0. -1.
        -11    1    4    4    0    0 -0.74164233469E+01 -0.19125001820E+02 -0.21594651069E+02  0.29784190184E+02  0.51100000000E-03 0.  1.
         12    1    4    4    0    0  0.17743274609E+00 -0.15763241831E+00  0.28475303489E+01  0.28574043198E+01  0.00000000000E+00 0. -1.
</event>
<event>
 8    1  0.2401680E-006  0.9118800E+02  0.7816164E-02  0.1184000E+00
        -11   -1    0    0    0    0  0.00000000000E+00  0.00000000000E+00  0.45593999997E+02  0.45594000000E+02  0.51100000000E-03 0. -1.
         11   -1    0    0    0    0 -0.00000000000E+00 -0.00000000000E+00 -0.45593999997E+02  0.45594000000E+02  0.51100000000E-03 0.  1.
         23    2    1    2    0    0 -0.35527136788E-14 -0.35527136788E-14  0.35527136788E-14  0.91188000000E+02  0.91188000000E+02 0.  0.
    9900012    2    3    3    0    0 -0.17407059785E+02  0.25220209400E+02  0.20413589960E+02  0.54367090891E+02  0.40000015305E+02 0.  0.
        -12    1    3    3    0    0  0.17407059785E+02 -0.25220209400E+02 -0.20413589960E+02  0.36820909109E+02  0.00000000000E+00 0.  1.
         11    1    4    4    0    0 -0.43712512345E+01  0.30685435428E+01 -0.84117898954E+01  0.99640356450E+01  0.51100000000E-03 0.  1.
        -11    1    4    4    0    0  0.23471469098E+01  0.11097522852E+02  0.21079800493E+02  0.23937880047E+02  0.51100000000E-03 0. -1.
         12    1    4    4    0    0 -0.15382955460E+02  0.11054143005E+02  0.77455793631E+01  0.20465175199E+02  0.00000000000E+00 0. -1.
</event>
<event>
 8    1  0.2401680E-006  0.9118800E+02  0.7816164E-02  0.1184000E+00
        -11   -1    0    0    0    0  0.00000000000E+00  0.00000000000E+00  0.45593999997E+02  0.45594000000E+02  0.51100000000E-03 0.  1.
         11   -1    0    0    0    0 -0.00000000000E+00 -0.00000000000E+00 -0.45593999997E+02  0.45594000000E+02  0.51100000000E-03 0. -1.
         23    2    1    2    0    0  0.00000000000E+00  0.00000000000E+00  0.00000000000E+00  0.91188000000E+02  0.91188000000E+02 0.  0.
    9900012    2    3    3    0    0  0.24615407529E+02  0.99872687973E+01  0.25497297005E+02  0.54367136615E+02  0.40000119541E+02 0.  0.
         12    1    3    3    0    0 -0.24615407529E+02 -0.99872687973E+01 -0.25497297005E+02  0.36820863385E+02  0.00000000000E+00 0. -1.
         11    1    4    4    0    0 -0.34258691632E+01 -0.52636798483E+01  0.74823603391E+01  0.97687574222E+01  0.51100000000E-03 0. -1.
        -11    1    4    4    0    0  0.26221321064E+02  0.71890189994E+01  0.22413120528E+02  0.35236169550E+02  0.51100000000E-03 0.  1.
        -12    1    4    4    0    0  0.18199556285E+01  0.80619296462E+01 -0.43981838616E+01  0.93622096425E+01  0.00000000000E+00 0.  1.
</event>
<event>
 8    1  0.2401680E-006  0.9118800E+02  0.7816164E-02  0.1184000E+00
        -11   -1    0    0    0    0  0.00000000000E+00  0.00000000000E+00  0.45593999997E+02  0.45594000000E+02  0.51100000000E-03 0.  1.
         11   -1    0    0    0    0 -0.00000000000E+00 -0.00000000000E+00 -0.45593999997E+02  0.45594000000E+02  0.51100000000E-03 0. -1.
         23    2    1    2    0    0  0.71054273576E-14 -0.35527136788E-14 -0.35527136788E-14  0.91188000000E+02  0.91188000000E+02 0.  0.
    9900012    2    3    3    0    0  0.15514847835E+02 -0.27698001881E+02  0.18651806935E+02  0.54367085923E+02  0.40000003978E+02 0.  0.
         12    1    3    3    0    0 -0.15514847835E+02  0.27698001881E+02 -0.18651806935E+02  0.36820914077E+02  0.00000000000E+00 0. -1.
         11    1    4    4    0    0 -0.88333194102E+01 -0.93134625345E+01  0.63653462406E+01  0.14327796384E+02  0.51100000000E-03 0. -1.
        -11    1    4    4    0    0  0.26197521580E+02 -0.15608759087E+02  0.16494213375E+02  0.34669908744E+02  0.51100000000E-03 0.  1.
         12    1    4    4    0    0 -0.18493543345E+01 -0.27757802595E+01 -0.42077526810E+01  0.53693807956E+01  0.00000000000E+00 0. -1.
</event>
<event>
 8    1  0.2401680E-006  0.9118800E+02  0.7816164E-02  0.1184000E+00
        -11   -1    0    0    0    0  0.00000000000E+00  0.00000000000E+00  0.45593999997E+02  0.45594000000E+02  0.51100000000E-03 0.  1.
         11   -1    0    0    0    0 -0.00000000000E+00 -0.00000000000E+00 -0.45593999997E+02  0.45594000000E+02  0.51100000000E-03 0. -1.
         23    2    1    2    0    0  0.35527136788E-14  0.00000000000E+00  0.35527136788E-14  0.91188000000E+02  0.91188000000E+02 0.  0.
    9900012    2    3    3    0    0 -0.85408410520E+01  0.19852527700E+02 -0.29811264528E+02  0.54367077758E+02  0.39999985365E+02 0.  0.
        -12    1    3    3    0    0  0.85408410520E+01 -0.19852527700E+02  0.29811264528E+02  0.36820922242E+02  0.00000000000E+00 0.  1.
         11    1    4    4    0    0  0.12213943792E+02  0.10703631706E+02 -0.18224159931E+02  0.24410410895E+02  0.51100000000E-03 0. -1.
        -11    1    4    4    0    0 -0.29893455051E+01 -0.83187652879E+00 -0.88726158311E+01  0.93995487687E+01  0.51100000000E-03 0.  1.
         12    1    4    4    0    0 -0.17765439338E+02  0.99807725236E+01 -0.27144887663E+01  0.20557118094E+02  0.00000000000E+00 0. -1.
</event>
<event>
 8    1  0.2401680E-006  0.9118800E+02  0.7816164E-02  0.1184000E+00
        -11   -1    0    0    0    0  0.00000000000E+00  0.00000000000E+00  0.45593999997E+02  0.45594000000E+02  0.51100000000E-03 0.  1.
         11   -1    0    0    0    0 -0.00000000000E+00 -0.00000000000E+00 -0.45593999997E+02  0.45594000000E+02  0.51100000000E-03 0. -1.
         23    2    1    2    0    0  0.00000000000E+00  0.17763568394E-14  0.71054273576E-14  0.91188000000E+02  0.91188000000E+02 0.  0.
    9900012    2    3    3    0    0 -0.63769309448E+01  0.12543621083E+02  0.34026076351E+02  0.54367060985E+02  0.39999947127E+02 0.  0.
         12    1    3    3    0    0  0.63769309448E+01 -0.12543621083E+02 -0.34026076351E+02  0.36820939015E+02  0.00000000000E+00 0. -1.
         11    1    4    4    0    0 -0.22615588748E+01  0.18205864987E+02  0.95176061675E+01  0.20667679983E+02  0.51100000000E-03 0. -1.
        -11    1    4    4    0    0 -0.11406640396E+02  0.29029643757E+01  0.10880248014E+02  0.16028675691E+02  0.51100000000E-03 0.  1.
        -12    1    4    4    0    0  0.72912683265E+01 -0.85652082798E+01  0.13628222169E+02  0.17670705311E+02  0.00000000000E+00 0.  1.
</event>
<event>
 8    1  0.2401680E-006  0.9118800E+02  0.7816164E-02  0.1184000E+00
        -11   -1    0    0    0    0  0.00000000000E+00  0.00000000000E+00  0.45593999997E+02  0.45594000000E+02  0.51100000000E-03 0. -1.
         11   -1    0    0    0    0 -0.00000000000E+00 -0.00000000000E+00 -0.45593999997E+02  0.45594000000E+02  0.51100000000E-03 0.  1.
         23    2    1    2    0    0 -0.17763568394E-14  0.22204460493E-14  0.00000000000E+00  0.91188000000E+02  0.91188000000E+02 0.  0.
    9900012    2    3    3    0    0 -0.12808870861E+02  0.20026652315E+01 -0.34463054130E+02  0.54367082836E+02  0.39999996942E+02 0.  0.
         12    1    3    3    0    0  0.12808870861E+02 -0.20026652315E+01  0.34463054130E+02  0.36820917164E+02  0.00000000000E+00 0. -1.
         11    1    4    4    0    0 -0.40969678868E+01  0.96435166517E+01 -0.16577143368E+01  0.10608043003E+02  0.51100000000E-03 0. -1.
        -11    1    4    4    0    0  0.71663411500E+01 -0.76238567738E+01 -0.22543558712E+02  0.24853403735E+02  0.51100000000E-03 0.  1.
        -12    1    4    4    0    0 -0.15878244124E+02 -0.16994646428E-01 -0.10261781082E+02  0.18905636098E+02  0.00000000000E+00 0.  1.
</event>
<event>
 8    1  0.2401680E-006  0.9118800E+02  0.7816164E-02  0.1184000E+00
        -11   -1    0    0    0    0  0.00000000000E+00  0.00000000000E+00  0.45593999997E+02  0.45594000000E+02  0.51100000000E-03 0.  1.
         11   -1    0    0    0    0 -0.00000000000E+00 -0.00000000000E+00 -0.45593999997E+02  0.45594000000E+02  0.51100000000E-03 0. -1.
         23    2    1    2    0    0  0.35527136788E-14  0.00000000000E+00  0.35527136788E-14  0.91188000000E+02  0.91188000000E+02 0.  0.
    9900012    2    3    3    0    0  0.19585207039E+02  0.11650997008E+02  0.28921509602E+02  0.54367084970E+02  0.40000001805E+02 0.  0.
         12    1    3    3    0    0 -0.19585207039E+02 -0.11650997008E+02 -0.28921509602E+02  0.36820915030E+02  0.00000000000E+00 0. -1.
         11    1    4    4    0    0  0.17890649443E+02  0.89192370371E+01  0.51845130680E+01  0.20652053235E+02  0.51100000000E-03 0. -1.
        -11    1    4    4    0    0  0.86136696809E+01 -0.76096597853E+01  0.11002409889E+02  0.15910853247E+02  0.51100000000E-03 0.  1.
        -12    1    4    4    0    0 -0.69191120846E+01  0.10341419756E+02  0.12734586644E+02  0.17804178487E+02  0.00000000000E+00 0.  1.
</event>
<event>
 8    1  0.2401680E-006  0.9118800E+02  0.7816164E-02  0.1184000E+00
        -11   -1    0    0    0    0  0.00000000000E+00  0.00000000000E+00  0.45593999997E+02  0.45594000000E+02  0.51100000000E-03 0. -1.
         11   -1    0    0    0    0 -0.00000000000E+00 -0.00000000000E+00 -0.45593999997E+02  0.45594000000E+02  0.51100000000E-03 0.  1.
         23    2    1    2    0    0 -0.17763568394E-14  0.00000000000E+00  0.00000000000E+00  0.91188000000E+02  0.91188000000E+02 0.  0.
    9900012    2    3    3    0    0 -0.88885201755E+01 -0.23931419895E+02 -0.26534101404E+02  0.54367120238E+02  0.40000082207E+02 0.  0.
         12    1    3    3    0    0  0.88885201755E+01  0.23931419895E+02  0.26534101404E+02  0.36820879762E+02  0.00000000000E+00 0. -1.
         11    1    4    4    0    0  0.59796268861E+01  0.75568081489E+00 -0.19266385693E+02  0.20187139697E+02  0.51100000000E-03 0. -1.
        -11    1    4    4    0    0 -0.23259760793E+01 -0.61023481368E+01 -0.96293452417E+01  0.11634994953E+02  0.51100000000E-03 0.  1.
         12    1    4    4    0    0 -0.12542170982E+02 -0.18584752573E+02  0.23616295309E+01  0.22544985589E+02  0.00000000000E+00 0. -1.
</event>
<event>
 8    1  0.2401680E-006  0.9118800E+02  0.7816164E-02  0.1184000E+00
        -11   -1    0    0    0    0  0.00000000000E+00  0.00000000000E+00  0.45593999997E+02  0.45594000000E+02  0.51100000000E-03 0. -1.
         11   -1    0    0    0    0 -0.00000000000E+00 -0.00000000000E+00 -0.45593999997E+02  0.45594000000E+02  0.51100000000E-03 0.  1.
         23    2    1    2    0    0  0.00000000000E+00  0.00000000000E+00  0.35527136788E-14  0.91188000000E+02  0.91188000000E+02 0.  0.
    9900012    2    3    3    0    0 -0.59406975435E+01  0.18822335600E+02  0.31083885765E+02  0.54367079873E+02  0.39999990187E+02 0.  0.
        -12    1    3    3    0    0  0.59406975435E+01 -0.18822335600E+02 -0.31083885765E+02  0.36820920127E+02  0.00000000000E+00 0.  1.
         11    1    4    4    0    0  0.89889251877E+01 -0.26287488184E+01  0.12891021323E+02  0.15933911240E+02  0.51100000000E-03 0. -1.
        -11    1    4    4    0    0 -0.51871066265E+01  0.64470347752E+01 -0.45927694375E+01  0.94638186750E+01  0.51100000000E-03 0.  1.
        -12    1    4    4    0    0 -0.97425161048E+01  0.15004049643E+02  0.22785633880E+02  0.28969349959E+02  0.00000000000E+00 0.  1.
</event>
<event>
 8    1  0.2401680E-006  0.9118800E+02  0.7816164E-02  0.1184000E+00
        -11   -1    0    0    0    0  0.00000000000E+00  0.00000000000E+00  0.45593999997E+02  0.45594000000E+02  0.51100000000E-03 0.  1.
         11   -1    0    0    0    0 -0.00000000000E+00 -0.00000000000E+00 -0.45593999997E+02  0.45594000000E+02  0.51100000000E-03 0. -1.
         23    2    1    2    0    0  0.00000000000E+00  0.00000000000E+00  0.00000000000E+00  0.91188000000E+02  0.91188000000E+02 0.  0.
    9900012    2    3    3    0    0 -0.24131692860E+02  0.11178338394E+02  0.25465380094E+02  0.54367089733E+02  0.40000012664E+02 0.  0.
         12    1    3    3    0    0  0.24131692860E+02 -0.11178338394E+02 -0.25465380094E+02  0.36820910267E+02  0.00000000000E+00 0. -1.
         11    1    4    4    0    0 -0.24898916435E+02  0.10138820650E+01  0.42034222678E+01  0.25271579996E+02  0.51100000000E-03 0. -1.
        -11    1    4    4    0    0 -0.73777672888E+01  0.83859383001E+01  0.14830839232E+02  0.18566346004E+02  0.51100000000E-03 0.  1.
         12    1    4    4    0    0  0.81449908632E+01  0.17785180289E+01  0.64311185947E+01  0.10529163733E+02  0.00000000000E+00 0. -1.
</event>
<event>
 8    1  0.2401680E-006  0.9118800E+02  0.7816164E-02  0.1184000E+00
        -11   -1    0    0    0    0  0.00000000000E+00  0.00000000000E+00  0.45593999997E+02  0.45594000000E+02  0.51100000000E-03 0.  1.
         11   -1    0    0    0    0 -0.00000000000E+00 -0.00000000000E+00 -0.45593999997E+02  0.45594000000E+02  0.51100000000E-03 0. -1.
         23    2    1    2    0    0 -0.35527136788E-14  0.00000000000E+00  0.00000000000E+00  0.91188000000E+02  0.91188000000E+02 0.  0.
    9900012    2    3    3    0    0 -0.27467114280E+02  0.23879275904E+02  0.55783444926E+01  0.54367080513E+02  0.39999991646E+02 0.  0.
         12    1    3    3    0    0  0.27467114280E+02 -0.23879275904E+02 -0.55783444926E+01  0.36820919487E+02  0.00000000000E+00 0. -1.
         11    1    4    4    0    0 -0.56572112982E+00  0.26532783903E+01  0.13071691636E+02  0.13350245283E+02  0.51100000000E-03 0. -1.
        -11    1    4    4    0    0 -0.44756346022E+01  0.24947946352E+00  0.59885805515E+01  0.74804172596E+01  0.51100000000E-03 0.  1.
        -12    1    4    4    0    0 -0.22425758548E+02  0.20976518051E+02 -0.13481927695E+02  0.33536417971E+02  0.00000000000E+00 0.  1.
</event>
<event>
 8    1  0.2401680E-006  0.9118800E+02  0.7816164E-02  0.1184000E+00
        -11   -1    0    0    0    0  0.00000000000E+00  0.00000000000E+00  0.45593999997E+02  0.45594000000E+02  0.51100000000E-03 0.  1.
         11   -1    0    0    0    0 -0.00000000000E+00 -0.00000000000E+00 -0.45593999997E+02  0.45594000000E+02  0.51100000000E-03 0. -1.
         23    2    1    2    0    0  0.00000000000E+00 -0.17763568394E-14  0.00000000000E+00  0.91188000000E+02  0.91188000000E+02 0.  0.
    9900012    2    3    3    0    0  0.28561280182E+02  0.15744690316E+02  0.17092021624E+02  0.54367092869E+02  0.40000019813E+02 0.  0.
         12    1    3    3    0    0 -0.28561280182E+02 -0.15744690316E+02 -0.17092021624E+02  0.36820907131E+02  0.00000000000E+00 0. -1.
         11    1    4    4    0    0 -0.21238385012E+00  0.96515395415E+01 -0.67527709478E+01  0.11781223967E+02  0.51100000000E-03 0. -1.
        -11    1    4    4    0    0  0.12328376381E+02  0.12556897621E+02  0.12559818286E+02  0.21619749714E+02  0.51100000000E-03 0.  1.
         12    1    4    4    0    0  0.16445287651E+02 -0.64637468457E+01  0.11284974285E+02  0.20966119188E+02  0.00000000000E+00 0. -1.
</event>
<event>
 8    1  0.2401680E-006  0.9118800E+02  0.7816164E-02  0.1184000E+00
        -11   -1    0    0    0    0  0.00000000000E+00  0.00000000000E+00  0.45593999997E+02  0.45594000000E+02  0.51100000000E-03 0. -1.
         11   -1    0    0    0    0 -0.00000000000E+00 -0.00000000000E+00 -0.45593999997E+02  0.45594000000E+02  0.51100000000E-03 0.  1.
         23    2    1    2    0    0  0.00000000000E+00  0.88817841970E-15 -0.35527136788E-14  0.91188000000E+02  0.91188000000E+02 0.  0.
    9900012    2    3    3    0    0  0.23029711488E+02  0.16268938717E+01  0.28683889204E+02  0.54367083461E+02  0.39999998366E+02 0.  0.
        -12    1    3    3    0    0 -0.23029711488E+02 -0.16268938717E+01 -0.28683889204E+02  0.36820916539E+02  0.00000000000E+00 0.  1.
         11    1    4    4    0    0  0.12596950291E+02  0.86392929052E+01  0.21646977368E+02  0.26493625044E+02  0.51100000000E-03 0. -1.
        -11    1    4    4    0    0 -0.14741463495E+01  0.75266966447E+01  0.45481431912E+01  0.89168310845E+01  0.51100000000E-03 0.  1.
        -12    1    4    4    0    0  0.11906907546E+02 -0.14539095678E+02  0.24887686446E+01  0.18956627332E+02  0.00000000000E+00 0.  1.
</event>
<event>
 8    1  0.2401680E-006  0.9118800E+02  0.7816164E-02  0.1184000E+00
        -11   -1    0    0    0    0  0.00000000000E+00  0.00000000000E+00  0.45593999997E+02  0.45594000000E+02  0.51100000000E-03 0. -1.
         11   -1    0    0    0    0 -0.00000000000E+00 -0.00000000000E+00 -0.45593999997E+02  0.45594000000E+02  0.51100000000E-03 0.  1.
         23    2    1    2    0    0  0.00000000000E+00 -0.71054273576E-14  0.00000000000E+00  0.91188000000E+02  0.91188000000E+02 0.  0.
    9900012    2    3    3    0    0  0.15980835413E+02 -0.24519823450E+02 -0.22342018265E+02  0.54367155052E+02  0.40000161572E+02 0.  0.
        -12    1    3    3    0    0 -0.15980835413E+02  0.24519823450E+02  0.22342018265E+02  0.36820844948E+02  0.00000000000E+00 0.  1.
         11    1    4    4    0    0 -0.81550821744E+01 -0.76623689279E+01 -0.65854079002E+00  0.11209412968E+02  0.51100000000E-03 0. -1.
        -11    1    4    4    0    0  0.15523664996E+02 -0.21900693391E+02 -0.12566572788E+02  0.29640231069E+02  0.51100000000E-03 0.  1.
         12    1    4    4    0    0  0.86122525916E+01  0.50432388687E+01 -0.91169046862E+01  0.13517511015E+02  0.00000000000E+00 0. -1.
</event>
<event>
 8    1  0.2401680E-006  0.9118800E+02  0.7816164E-02  0.1184000E+00
        -11   -1    0    0    0    0  0.00000000000E+00  0.00000000000E+00  0.45593999997E+02  0.45594000000E+02  0.51100000000E-03 0. -1.
         11   -1    0    0    0    0 -0.00000000000E+00 -0.00000000000E+00 -0.45593999997E+02  0.45594000000E+02  0.51100000000E-03 0.  1.
         23    2    1    2    0    0 -0.35527136788E-14 -0.44408920985E-15  0.35527136788E-14  0.91188000000E+02  0.91188000000E+02 0.  0.
    9900012    2    3    3    0    0  0.24547051749E+02  0.21894692531E+01 -0.27357435968E+02  0.54367070790E+02  0.39999969479E+02 0.  0.
         12    1    3    3    0    0 -0.24547051749E+02 -0.21894692531E+01  0.27357435968E+02  0.36820929210E+02  0.00000000000E+00 0. -1.
         11    1    4    4    0    0 -0.69861169668E+00  0.36792193034E+01  0.24275219729E+01  0.44629111772E+01  0.51100000000E-03 0. -1.
        -11    1    4    4    0    0  0.49796261187E+01  0.93307203717E+01  0.19214369203E+01  0.10749462267E+02  0.51100000000E-03 0.  1.
        -12    1    4    4    0    0  0.20266037327E+02 -0.10820470422E+02 -0.31706394861E+02  0.39154697345E+02  0.00000000000E+00 0.  1.
</event>
<event>
 8    1  0.2401680E-006  0.9118800E+02  0.7816164E-02  0.1184000E+00
        -11   -1    0    0    0    0  0.00000000000E+00  0.00000000000E+00  0.45593999997E+02  0.45594000000E+02  0.51100000000E-03 0. -1.
         11   -1    0    0    0    0 -0.00000000000E+00 -0.00000000000E+00 -0.45593999997E+02  0.45594000000E+02  0.51100000000E-03 0.  1.
         23    2    1    2    0    0  0.71054273576E-14  0.35527136788E-14  0.35527136788E-14  0.91188000000E+02  0.91188000000E+02 0.  0.
    9900012    2    3    3    0    0 -0.18258910826E+02  0.30864125880E+02 -0.83545090698E+01  0.54367083218E+02  0.39999997811E+02 0.  0.
         12    1    3    3    0    0  0.18258910826E+02 -0.30864125880E+02  0.83545090698E+01  0.36820916782E+02  0.00000000000E+00 0. -1.
         11    1    4    4    0    0 -0.18083005695E+02  0.26304932833E+02 -0.16810813862E+02  0.36076973948E+02  0.51100000000E-03 0.  1.
        -11    1    4    4    0    0  0.68165507747E+00  0.82104659264E+01  0.11011034570E+02  0.13752064824E+02  0.51100000000E-03 0. -1.
        -12    1    4    4    0    0 -0.85756020844E+00 -0.36512728791E+01 -0.25547297781E+01  0.45380444453E+01  0.00000000000E+00 0.  1.
</event>
<event>
 8    1  0.2401680E-006  0.9118800E+02  0.7816164E-02  0.1184000E+00
        -11   -1    0    0    0    0  0.00000000000E+00  0.00000000000E+00  0.45593999997E+02  0.45594000000E+02  0.51100000000E-03 0.  1.
         11   -1    0    0    0    0 -0.00000000000E+00 -0.00000000000E+00 -0.45593999997E+02  0.45594000000E+02  0.51100000000E-03 0. -1.
         23    2    1    2    0    0  0.00000000000E+00 -0.14210854715E-13 -0.18873791419E-14  0.91188000000E+02  0.91188000000E+02 0.  0.
    9900012    2    3    3    0    0  0.16183974332E+02 -0.33068066856E+02  0.60205992318E+00  0.54367074605E+02  0.39999978178E+02 0.  0.
         12    1    3    3    0    0 -0.16183974332E+02  0.33068066856E+02 -0.60205992318E+00  0.36820925395E+02  0.00000000000E+00 0. -1.
         11    1    4    4    0    0  0.14050112488E+02  0.13250109125E+01  0.98752211660E+01  0.17224439271E+02  0.51100000000E-03 0. -1.
        -11    1    4    4    0    0 -0.50576342365E+00 -0.16160929894E+01  0.17749567174E+01  0.24531662807E+01  0.51100000000E-03 0.  1.
         12    1    4    4    0    0  0.26396252673E+01 -0.32776984779E+02 -0.11048117960E+02  0.34689469054E+02  0.00000000000E+00 0. -1.
</event>
<event>
 8    1  0.2401680E-006  0.9118800E+02  0.7816164E-02  0.1184000E+00
        -11   -1    0    0    0    0  0.00000000000E+00  0.00000000000E+00  0.45593999997E+02  0.45594000000E+02  0.51100000000E-03 0. -1.
         11   -1    0    0    0    0 -0.00000000000E+00 -0.00000000000E+00 -0.45593999997E+02  0.45594000000E+02  0.51100000000E-03 0.  1.
         23    2    1    2    0    0  0.00000000000E+00  0.00000000000E+00 -0.88817841970E-15  0.91188000000E+02  0.91188000000E+02 0.  0.
    9900012    2    3    3    0    0 -0.34716408034E+02 -0.11382160609E+02  0.45817729995E+01  0.54367147067E+02  0.40000143367E+02 0.  0.
        -12    1    3    3    0    0  0.34716408034E+02  0.11382160609E+02 -0.45817729995E+01  0.36820852933E+02  0.00000000000E+00 0.  1.
         11    1    4    4    0    0  0.66513477935E+01 -0.63221640722E+01  0.68065272343E+00  0.92018190819E+01  0.51100000000E-03 0. -1.
        -11    1    4    4    0    0 -0.15252411042E+02 -0.47556153039E+01 -0.62351525296E+01  0.17150190869E+02  0.51100000000E-03 0.  1.
        -12    1    4    4    0    0 -0.26115344786E+02 -0.30438123247E+00  0.10136272806E+02  0.28015137116E+02  0.00000000000E+00 0.  1.
</event>
<event>
 8    1  0.2401680E-006  0.9118800E+02  0.7816164E-02  0.1184000E+00
        -11   -1    0    0    0    0  0.00000000000E+00  0.00000000000E+00  0.45593999997E+02  0.45594000000E+02  0.51100000000E-03 0. -1.
         11   -1    0    0    0    0 -0.00000000000E+00 -0.00000000000E+00 -0.45593999997E+02  0.45594000000E+02  0.51100000000E-03 0.  1.
         23    2    1    2    0    0  0.00000000000E+00  0.00000000000E+00  0.00000000000E+00  0.91188000000E+02  0.91188000000E+02 0.  0.
    9900012    2    3    3    0    0 -0.23794145843E+01 -0.24758056056E+02  0.27150637382E+02  0.54367081167E+02  0.39999993137E+02 0.  0.
        -12    1    3    3    0    0  0.23794145843E+01  0.24758056056E+02 -0.27150637382E+02  0.36820918833E+02  0.00000000000E+00 0.  1.
         11    1    4    4    0    0 -0.70772841998E+01 -0.12762492196E+02  0.58942929662E+01  0.15738864270E+02  0.51100000000E-03 0. -1.
        -11    1    4    4    0    0  0.75902011249E+01  0.18741391114E+01 -0.46530510217E+01  0.90980456471E+01  0.51100000000E-03 0.  1.
         12    1    4    4    0    0 -0.28923315093E+01 -0.13869702972E+02  0.25909395438E+02  0.29530171250E+02  0.00000000000E+00 0. -1.
</event>
<event>
 8    1  0.2401680E-006  0.9118800E+02  0.7816164E-02  0.1184000E+00
        -11   -1    0    0    0    0  0.00000000000E+00  0.00000000000E+00  0.45593999997E+02  0.45594000000E+02  0.51100000000E-03 0. -1.
         11   -1    0    0    0    0 -0.00000000000E+00 -0.00000000000E+00 -0.45593999997E+02  0.45594000000E+02  0.51100000000E-03 0.  1.
         23    2    1    2    0    0 -0.17763568394E-14  0.00000000000E+00  0.00000000000E+00  0.91188000000E+02  0.91188000000E+02 0.  0.
    9900012    2    3    3    0    0  0.92913590707E+01  0.35550124816E+02  0.23770403315E+01  0.54366932002E+02  0.39999653083E+02 0.  0.
        -12    1    3    3    0    0 -0.92913590707E+01 -0.35550124816E+02 -0.23770403315E+01  0.36821067998E+02  0.00000000000E+00 0.  1.
         11    1    4    4    0    0  0.17310086304E+02  0.33455538483E+02  0.54997386810E+01  0.38067824588E+02  0.51100000000E-03 0. -1.
        -11    1    4    4    0    0 -0.77756698129E+01  0.63208435285E+01  0.13842374181E+01  0.10115839928E+02  0.51100000000E-03 0.  1.
         12    1    4    4    0    0 -0.24305741996E+00 -0.42262571956E+01 -0.45069357676E+01  0.61832674862E+01  0.00000000000E+00 0. -1.
</event>
<event>
 8    1  0.2401680E-006  0.9118800E+02  0.7816164E-02  0.1184000E+00
        -11   -1    0    0    0    0  0.00000000000E+00  0.00000000000E+00  0.45593999997E+02  0.45594000000E+02  0.51100000000E-03 0.  1.
         11   -1    0    0    0    0 -0.00000000000E+00 -0.00000000000E+00 -0.45593999997E+02  0.45594000000E+02  0.51100000000E-03 0. -1.
         23    2    1    2    0    0  0.17763568394E-14  0.00000000000E+00  0.00000000000E+00  0.91188000000E+02  0.91188000000E+02 0.  0.
    9900012    2    3    3    0    0 -0.14776698932E+02  0.33631355731E+02  0.25223127872E+01  0.54367068705E+02  0.39999964727E+02 0.  0.
        -12    1    3    3    0    0  0.14776698932E+02 -0.33631355731E+02 -0.25223127872E+01  0.36820931295E+02  0.00000000000E+00 0.  1.
         11    1    4    4    0    0 -0.62217711538E+00  0.34745243075E+02  0.27852873279E+01  0.34862255327E+02  0.51100000000E-03 0. -1.
        -11    1    4    4    0    0 -0.87862653631E+00 -0.28827791057E+01 -0.45365087302E+01  0.54463117504E+01  0.51100000000E-03 0.  1.
         12    1    4    4    0    0 -0.13275895280E+02  0.17688917612E+01  0.42735341896E+01  0.14058501628E+02  0.00000000000E+00 0. -1.
</event>
<event>
 8    1  0.2401680E-006  0.9118800E+02  0.7816164E-02  0.1184000E+00
        -11   -1    0    0    0    0  0.00000000000E+00  0.00000000000E+00  0.45593999997E+02  0.45594000000E+02  0.51100000000E-03 0.  1.
         11   -1    0    0    0    0 -0.00000000000E+00 -0.00000000000E+00 -0.45593999997E+02  0.45594000000E+02  0.51100000000E-03 0. -1.
         23    2    1    2    0    0  0.00000000000E+00 -0.44408920985E-15 -0.26645352591E-14  0.91188000000E+02  0.91188000000E+02 0.  0.
    9900012    2    3    3    0    0 -0.36473794531E+02  0.34445201926E+01  0.36846037610E+01  0.54367099526E+02  0.40000034990E+02 0.  0.
         12    1    3    3    0    0  0.36473794531E+02 -0.34445201926E+01 -0.36846037610E+01  0.36820900474E+02  0.00000000000E+00 0. -1.
         11    1    4    4    0    0 -0.17814123496E+02 -0.12072315227E+00 -0.17160890255E+02  0.24735677161E+02  0.51100000000E-03 0. -1.
        -11    1    4    4    0    0 -0.71947412877E+01  0.34928930412E+00  0.14376775165E+02  0.16080359748E+02  0.51100000000E-03 0.  1.
         12    1    4    4    0    0 -0.11464929747E+02  0.32159540408E+01  0.64687188503E+01  0.13551062617E+02  0.00000000000E+00 0. -1.
</event>
<event>
 8    1  0.2401680E-006  0.9118800E+02  0.7816164E-02  0.1184000E+00
        -11   -1    0    0    0    0  0.00000000000E+00  0.00000000000E+00  0.45593999997E+02  0.45594000000E+02  0.51100000000E-03 0.  1.
         11   -1    0    0    0    0 -0.00000000000E+00 -0.00000000000E+00 -0.45593999997E+02  0.45594000000E+02  0.51100000000E-03 0. -1.
         23    2    1    2    0    0 -0.17763568394E-14 -0.71054273576E-14  0.00000000000E+00  0.91188000000E+02  0.91188000000E+02 0.  0.
    9900012    2    3    3    0    0 -0.73078020741E+01 -0.35034149587E+02 -0.86593526868E+01  0.54367082068E+02  0.39999995190E+02 0.  0.
        -12    1    3    3    0    0  0.73078020741E+01  0.35034149587E+02  0.86593526868E+01  0.36820917932E+02  0.00000000000E+00 0.  1.
         11    1    4    4    0    0  0.73789203287E+01 -0.32266296341E+02 -0.13124212139E+02  0.35606281599E+02  0.51100000000E-03 0. -1.
        -11    1    4    4    0    0 -0.39319215119E+01  0.14964790725E+01  0.57451275273E+01  0.71208108356E+01  0.51100000000E-03 0.  1.
         12    1    4    4    0    0 -0.10754800891E+02 -0.42643323185E+01 -0.12802680750E+01  0.11639989634E+02  0.00000000000E+00 0. -1.
</event>
<event>
 8    1  0.2401680E-006  0.9118800E+02  0.7816164E-02  0.1184000E+00
        -11   -1    0    0    0    0  0.00000000000E+00  0.00000000000E+00  0.45593999997E+02  0.45594000000E+02  0.51100000000E-03 0.  1.
         11   -1    0    0    0    0 -0.00000000000E+00 -0.00000000000E+00 -0.45593999997E+02  0.45594000000E+02  0.51100000000E-03 0. -1.
         23    2    1    2    0    0  0.00000000000E+00  0.00000000000E+00  0.35527136788E-14  0.91188000000E+02  0.91188000000E+02 0.  0.
    9900012    2    3    3    0    0 -0.13399575928E+02  0.21911431540E+02 -0.26384085154E+02  0.54367089954E+02  0.40000013169E+02 0.  0.
        -12    1    3    3    0    0  0.13399575928E+02 -0.21911431540E+02  0.26384085154E+02  0.36820910046E+02  0.00000000000E+00 0.  1.
         11    1    4    4    0    0 -0.77034630034E+01  0.19221216615E+02 -0.24756728152E+02  0.32275286202E+02  0.51100000000E-03 0. -1.
        -11    1    4    4    0    0  0.77325883860E+00  0.25882716524E+01  0.91395391960E+01  0.95303859499E+01  0.51100000000E-03 0.  1.
        -12    1    4    4    0    0 -0.64693717636E+01  0.10194327221E+00 -0.10766896199E+02  0.12561417802E+02  0.00000000000E+00 0.  1.
</event>
<event>
 8    1  0.2401680E-006  0.9118800E+02  0.7816164E-02  0.1184000E+00
        -11   -1    0    0    0    0  0.00000000000E+00  0.00000000000E+00  0.45593999997E+02  0.45594000000E+02  0.51100000000E-03 0.  1.
         11   -1    0    0    0    0 -0.00000000000E+00 -0.00000000000E+00 -0.45593999997E+02  0.45594000000E+02  0.51100000000E-03 0. -1.
         23    2    1    2    0    0  0.00000000000E+00  0.00000000000E+00  0.17763568394E-14  0.91188000000E+02  0.91188000000E+02 0.  0.
    9900012    2    3    3    0    0 -0.19807318983E+02  0.29343813436E+02 -0.10118919347E+02  0.54367057575E+02  0.39999939355E+02 0.  0.
        -12    1    3    3    0    0  0.19807318983E+02 -0.29343813436E+02  0.10118919347E+02  0.36820942425E+02  0.00000000000E+00 0.  1.
         11    1    4    4    0    0 -0.10908107704E+02  0.22334863040E+01 -0.13723011950E+02  0.17671907990E+02  0.51100000000E-03 0. -1.
        -11    1    4    4    0    0  0.63058077999E+01  0.13550269654E+01  0.19614643788E+01  0.67414132685E+01  0.51100000000E-03 0.  1.
         12    1    4    4    0    0 -0.15205019079E+02  0.25755300167E+02  0.16426282242E+01  0.29953736317E+02  0.00000000000E+00 0. -1.
</event>
<event>
 8    1  0.2401680E-006  0.9118800E+02  0.7816164E-02  0.1184000E+00
        -11   -1    0    0    0    0  0.00000000000E+00  0.00000000000E+00  0.45593999997E+02  0.45594000000E+02  0.51100000000E-03 0. -1.
         11   -1    0    0    0    0 -0.00000000000E+00 -0.00000000000E+00 -0.45593999997E+02  0.45594000000E+02  0.51100000000E-03 0.  1.
         23    2    1    2    0    0  0.00000000000E+00  0.00000000000E+00  0.00000000000E+00  0.91188000000E+02  0.91188000000E+02 0.  0.
    9900012    2    3    3    0    0 -0.34340804122E+02 -0.11505196214E+02 -0.66419754932E+01  0.54367133550E+02  0.40000112554E+02 0.  0.
        -12    1    3    3    0    0  0.34340804122E+02  0.11505196214E+02  0.66419754932E+01  0.36820866450E+02  0.00000000000E+00 0.  1.
         11    1    4    4    0    0 -0.24950208550E+02  0.46363630431E+01 -0.29807631917E+01  0.25551785034E+02  0.51100000000E-03 0. -1.
        -11    1    4    4    0    0 -0.29663464256E+01 -0.13523506631E+01  0.81829544224E+01  0.88084508725E+01  0.51100000000E-03 0.  1.
        -12    1    4    4    0    0 -0.64242491465E+01 -0.14789208594E+02 -0.11844166724E+02  0.20006897644E+02  0.00000000000E+00 0.  1.
</event>
<event>
 8    1  0.2401680E-006  0.9118800E+02  0.7816164E-02  0.1184000E+00
        -11   -1    0    0    0    0  0.00000000000E+00  0.00000000000E+00  0.45593999997E+02  0.45594000000E+02  0.51100000000E-03 0. -1.
         11   -1    0    0    0    0 -0.00000000000E+00 -0.00000000000E+00 -0.45593999997E+02  0.45594000000E+02  0.51100000000E-03 0.  1.
         23    2    1    2    0    0  0.35527136788E-14  0.00000000000E+00  0.00000000000E+00  0.91188000000E+02  0.91188000000E+02 0.  0.
    9900012    2    3    3    0    0 -0.23092127387E+02 -0.54592706598E+01  0.28155431008E+02  0.54367105407E+02  0.40000048396E+02 0.  0.
        -12    1    3    3    0    0  0.23092127387E+02  0.54592706598E+01 -0.28155431008E+02  0.36820894593E+02  0.00000000000E+00 0.  1.
         11    1    4    4    0    0 -0.18859038489E+02 -0.10528984391E+02  0.29814599699E+01  0.21803943424E+02  0.51100000000E-03 0. -1.
        -11    1    4    4    0    0 -0.64136742149E+01  0.10829228283E+02  0.96420610048E+01  0.15854864957E+02  0.51100000000E-03 0.  1.
         12    1    4    4    0    0  0.21805853171E+01 -0.57595145519E+01  0.15531910034E+02  0.16708297025E+02  0.00000000000E+00 0. -1.
</event>
<event>
 8    1  0.2401680E-006  0.9118800E+02  0.7816164E-02  0.1184000E+00
        -11   -1    0    0    0    0  0.00000000000E+00  0.00000000000E+00  0.45593999997E+02  0.45594000000E+02  0.51100000000E-03 0. -1.
         11   -1    0    0    0    0 -0.00000000000E+00 -0.00000000000E+00 -0.45593999997E+02  0.45594000000E+02  0.51100000000E-03 0.  1.
         23    2    1    2    0    0  0.00000000000E+00  0.00000000000E+00  0.44408920985E-15  0.91188000000E+02  0.91188000000E+02 0.  0.
    9900012    2    3    3    0    0  0.82359182310E+01  0.35867805708E+02  0.12032911980E+01  0.54367112651E+02  0.40000064911E+02 0.  0.
        -12    1    3    3    0    0 -0.82359182310E+01 -0.35867805708E+02 -0.12032911980E+01  0.36820887349E+02  0.00000000000E+00 0.  1.
         11    1    4    4    0    0  0.88184345853E+01  0.18036778817E+02  0.10314348664E+02  0.22571574320E+02  0.51100000000E-03 0. -1.
        -11    1    4    4    0    0 -0.63546830967E+01 -0.27187032272E+01  0.26765867083E+01  0.74119809205E+01  0.51100000000E-03 0.  1.
        -12    1    4    4    0    0  0.57721667425E+01  0.20549730118E+02 -0.11787644174E+02  0.24383557411E+02  0.00000000000E+00 0.  1.
</event>
<event>
 8    1  0.2401680E-006  0.9118800E+02  0.7816164E-02  0.1184000E+00
        -11   -1    0    0    0    0  0.00000000000E+00  0.00000000000E+00  0.45593999997E+02  0.45594000000E+02  0.51100000000E-03 0. -1.
         11   -1    0    0    0    0 -0.00000000000E+00 -0.00000000000E+00 -0.45593999997E+02  0.45594000000E+02  0.51100000000E-03 0.  1.
         23    2    1    2    0    0 -0.44408920985E-15  0.71054273576E-14 -0.88817841970E-15  0.91188000000E+02  0.91188000000E+02 0.  0.
    9900012    2    3    3    0    0  0.25587165801E+01 -0.36591136067E+02  0.32128694707E+01  0.54367071176E+02  0.39999970360E+02 0.  0.
        -12    1    3    3    0    0 -0.25587165801E+01  0.36591136067E+02 -0.32128694707E+01  0.36820928824E+02  0.00000000000E+00 0.  1.
         11    1    4    4    0    0  0.59898057240E+01 -0.33722549244E+02 -0.13775496455E+01  0.34278065048E+02  0.51100000000E-03 0. -1.
        -11    1    4    4    0    0 -0.68891910928E+01 -0.37077950518E+01 -0.53851048224E+01  0.94977919681E+01  0.51100000000E-03 0.  1.
         12    1    4    4    0    0  0.34581019488E+01  0.83920822857E+00  0.99755239386E+01  0.10591214160E+02  0.00000000000E+00 0. -1.
</event>
<event>
 8    1  0.2401680E-006  0.9118800E+02  0.7816164E-02  0.1184000E+00
        -11   -1    0    0    0    0  0.00000000000E+00  0.00000000000E+00  0.45593999997E+02  0.45594000000E+02  0.51100000000E-03 0.  1.
         11   -1    0    0    0    0 -0.00000000000E+00 -0.00000000000E+00 -0.45593999997E+02  0.45594000000E+02  0.51100000000E-03 0. -1.
         23    2    1    2    0    0  0.88817841970E-15  0.35527136788E-14 -0.71054273576E-14  0.91188000000E+02  0.91188000000E+02 0.  0.
    9900012    2    3    3    0    0 -0.27860933017E+01  0.15891294694E+02 -0.33098095248E+02  0.54367089202E+02  0.40000011454E+02 0.  0.
         12    1    3    3    0    0  0.27860933017E+01 -0.15891294694E+02  0.33098095248E+02  0.36820910798E+02  0.00000000000E+00 0. -1.
         11    1    4    4    0    0 -0.10862493678E+02  0.27657674219E+01 -0.31207597700E+02  0.33159574678E+02  0.51100000000E-03 0. -1.
        -11    1    4    4    0    0  0.47241508022E+00 -0.25503820826E+01 -0.27284153331E+01  0.37645551219E+01  0.51100000000E-03 0.  1.
        -12    1    4    4    0    0  0.76039852965E+01  0.15675909355E+02  0.83791778556E+00  0.17442959402E+02  0.00000000000E+00 0.  1.
</event>
<event>
 8    1  0.2401680E-006  0.9118800E+02  0.7816164E-02  0.1184000E+00
        -11   -1    0    0    0    0  0.00000000000E+00  0.00000000000E+00  0.45593999997E+02  0.45594000000E+02  0.51100000000E-03 0. -1.
         11   -1    0    0    0    0 -0.00000000000E+00 -0.00000000000E+00 -0.45593999997E+02  0.45594000000E+02  0.51100000000E-03 0.  1.
         23    2    1    2    0    0  0.00000000000E+00  0.35527136788E-14 -0.35527136788E-14  0.91188000000E+02  0.91188000000E+02 0.  0.
    9900012    2    3    3    0    0  0.52993421152E+01 -0.23446091676E+02 -0.27892257769E+02  0.54367078160E+02  0.39999986280E+02 0.  0.
         12    1    3    3    0    0 -0.52993421152E+01  0.23446091676E+02  0.27892257769E+02  0.36820921840E+02  0.00000000000E+00 0. -1.
         11    1    4    4    0    0  0.44593931589E+01 -0.10034817337E+02 -0.57364523469E+01  0.12389133630E+02  0.51100000000E-03 0. -1.
        -11    1    4    4    0    0 -0.15211319664E+02 -0.51209221827E+01 -0.16568657275E+02  0.23067910483E+02  0.51100000000E-03 0.  1.
         12    1    4    4    0    0  0.16051268620E+02 -0.82903521570E+01 -0.55871481469E+01  0.18910034046E+02  0.00000000000E+00 0. -1.
</event>
<event>
 8    1  0.2401680E-006  0.9118800E+02  0.7816164E-02  0.1184000E+00
        -11   -1    0    0    0    0  0.00000000000E+00  0.00000000000E+00  0.45593999997E+02  0.45594000000E+02  0.51100000000E-03 0.  1.
         11   -1    0    0    0    0 -0.00000000000E+00 -0.00000000000E+00 -0.45593999997E+02  0.45594000000E+02  0.51100000000E-03 0. -1.
         23    2    1    2    0    0  0.71054273576E-14  0.17763568394E-14  0.17763568394E-14  0.91188000000E+02  0.91188000000E+02 0.  0.
    9900012    2    3    3    0    0 -0.33149998114E+02 -0.13849727807E+02 -0.80648853170E+01  0.54367085964E+02  0.40000004072E+02 0.  0.
        -12    1    3    3    0    0  0.33149998114E+02  0.13849727807E+02  0.80648853170E+01  0.36820914036E+02  0.00000000000E+00 0.  1.
         11    1    4    4    0    0 -0.89300906341E+01  0.68526779096E+00  0.67303011916E+01  0.11203261359E+02  0.51100000000E-03 0. -1.
        -11    1    4    4    0    0 -0.73152645684E+00 -0.21287797696E+01  0.79068424167E+01  0.82210091551E+01  0.51100000000E-03 0.  1.
         12    1    4    4    0    0 -0.23488381023E+02 -0.12406215829E+02 -0.22702028925E+02  0.34942815450E+02  0.00000000000E+00 0. -1.
</event>
<event>
 8    1  0.2401680E-006  0.9118800E+02  0.7816164E-02  0.1184000E+00
        -11   -1    0    0    0    0  0.00000000000E+00  0.00000000000E+00  0.45593999997E+02  0.45594000000E+02  0.51100000000E-03 0.  1.
         11   -1    0    0    0    0 -0.00000000000E+00 -0.00000000000E+00 -0.45593999997E+02  0.45594000000E+02  0.51100000000E-03 0. -1.
         23    2    1    2    0    0  0.00000000000E+00  0.35527136788E-14  0.35527136788E-14  0.91188000000E+02  0.91188000000E+02 0.  0.
    9900012    2    3    3    0    0 -0.23629810100E+02 -0.17948975460E+02 -0.21800122468E+02  0.54367095814E+02  0.40000026527E+02 0.  0.
        -12    1    3    3    0    0  0.23629810100E+02  0.17948975460E+02  0.21800122468E+02  0.36820904186E+02  0.00000000000E+00 0.  1.
         11    1    4    4    0    0 -0.41009201180E+01 -0.40686686903E+01  0.28717190445E+01  0.64512309877E+01  0.51100000000E-03 0. -1.
        -11    1    4    4    0    0  0.16426185591E+01  0.92878264571E+01 -0.35129679869E+01  0.10064932209E+02  0.51100000000E-03 0.  1.
        -12    1    4    4    0    0 -0.21171508541E+02 -0.23168133227E+02 -0.21158873526E+02  0.37850932618E+02  0.00000000000E+00 0.  1.
</event>
<event>
 8    1  0.2401680E-006  0.9118800E+02  0.7816164E-02  0.1184000E+00
        -11   -1    0    0    0    0  0.00000000000E+00  0.00000000000E+00  0.45593999997E+02  0.45594000000E+02  0.51100000000E-03 0. -1.
         11   -1    0    0    0    0 -0.00000000000E+00 -0.00000000000E+00 -0.45593999997E+02  0.45594000000E+02  0.51100000000E-03 0.  1.
         23    2    1    2    0    0  0.35527136788E-14 -0.88817841970E-15  0.00000000000E+00  0.91188000000E+02  0.91188000000E+02 0.  0.
    9900012    2    3    3    0    0 -0.28713373051E+02  0.31211106844E+01 -0.22838100021E+02  0.54367110054E+02  0.40000058989E+02 0.  0.
         12    1    3    3    0    0  0.28713373051E+02 -0.31211106844E+01  0.22838100021E+02  0.36820889946E+02  0.00000000000E+00 0. -1.
         11    1    4    4    0    0  0.28585949076E+01  0.80977129688E+00  0.74700389693E+00  0.30635452473E+01  0.51100000000E-03 0. -1.
        -11    1    4    4    0    0 -0.10708410943E+02 -0.15008181685E+02 -0.10035033212E+02  0.20990890268E+02  0.51100000000E-03 0.  1.
        -12    1    4    4    0    0 -0.20863557016E+02  0.17319521072E+02 -0.13550070706E+02  0.30312674539E+02  0.00000000000E+00 0.  1.
</event>
<event>
 8    1  0.2401680E-006  0.9118800E+02  0.7816164E-02  0.1184000E+00
        -11   -1    0    0    0    0  0.00000000000E+00  0.00000000000E+00  0.45593999997E+02  0.45594000000E+02  0.51100000000E-03 0.  1.
         11   -1    0    0    0    0 -0.00000000000E+00 -0.00000000000E+00 -0.45593999997E+02  0.45594000000E+02  0.51100000000E-03 0. -1.
         23    2    1    2    0    0  0.00000000000E+00  0.00000000000E+00  0.00000000000E+00  0.91188000000E+02  0.91188000000E+02 0.  0.
    9900012    2    3    3    0    0 -0.57290246066E+01  0.11683939862E+02  0.34444767816E+02  0.54367106427E+02  0.40000050721E+02 0.  0.
         12    1    3    3    0    0  0.57290246066E+01 -0.11683939862E+02 -0.34444767816E+02  0.36820893573E+02  0.00000000000E+00 0. -1.
         11    1    4    4    0    0  0.11300640682E+02  0.72517087976E+01 -0.10617387127E+01  0.13469188901E+02  0.51100000000E-03 0. -1.
        -11    1    4    4    0    0 -0.14272093131E+02 -0.81869143709E+00  0.26585157767E+02  0.30184988185E+02  0.51100000000E-03 0.  1.
         12    1    4    4    0    0 -0.27575721572E+01  0.52509225013E+01  0.89213487618E+01  0.10712929340E+02  0.00000000000E+00 0. -1.
</event>
<event>
 8    1  0.2401680E-006  0.9118800E+02  0.7816164E-02  0.1184000E+00
        -11   -1    0    0    0    0  0.00000000000E+00  0.00000000000E+00  0.45593999997E+02  0.45594000000E+02  0.51100000000E-03 0.  1.
         11   -1    0    0    0    0 -0.00000000000E+00 -0.00000000000E+00 -0.45593999997E+02  0.45594000000E+02  0.51100000000E-03 0. -1.
         23    2    1    2    0    0  0.00000000000E+00 -0.44408920985E-15  0.00000000000E+00  0.91188000000E+02  0.91188000000E+02 0.  0.
    9900012    2    3    3    0    0 -0.35816577012E+02  0.21824761505E+01 -0.82576997256E+01  0.54367082089E+02  0.39999995239E+02 0.  0.
        -12    1    3    3    0    0  0.35816577012E+02 -0.21824761505E+01  0.82576997256E+01  0.36820917911E+02  0.00000000000E+00 0.  1.
         11    1    4    4    0    0 -0.13758454137E+02 -0.89739382609E+01 -0.67393863601E+01  0.17755167049E+02  0.51100000000E-03 0. -1.
        -11    1    4    4    0    0 -0.20758828061E+02 -0.41897405332E+01 -0.10654375386E+01  0.21204198301E+02  0.51100000000E-03 0.  1.
        -12    1    4    4    0    0 -0.12992948139E+01  0.15346154945E+02 -0.45287582694E+00  0.15407716739E+02  0.00000000000E+00 0.  1.
</event>
<event>
 8    1  0.2401680E-006  0.9118800E+02  0.7816164E-02  0.1184000E+00
        -11   -1    0    0    0    0  0.00000000000E+00  0.00000000000E+00  0.45593999997E+02  0.45594000000E+02  0.51100000000E-03 0. -1.
         11   -1    0    0    0    0 -0.00000000000E+00 -0.00000000000E+00 -0.45593999997E+02  0.45594000000E+02  0.51100000000E-03 0.  1.
         23    2    1    2    0    0  0.00000000000E+00 -0.22204460493E-15  0.00000000000E+00  0.91188000000E+02  0.91188000000E+02 0.  0.
    9900012    2    3    3    0    0  0.14658827265E+02  0.16812048818E+01 -0.33735322633E+02  0.54367086652E+02  0.40000005640E+02 0.  0.
         12    1    3    3    0    0 -0.14658827265E+02 -0.16812048818E+01  0.33735322633E+02  0.36820913348E+02  0.00000000000E+00 0. -1.
         11    1    4    4    0    0 -0.73342341162E+01 -0.39780173010E+01  0.39218661442E+01  0.92193625611E+01  0.51100000000E-03 0. -1.
        -11    1    4    4    0    0  0.14945179394E+02 -0.59318578747E+00 -0.18423810915E+02  0.23730719867E+02  0.51100000000E-03 0.  1.
         12    1    4    4    0    0  0.70478819864E+01  0.62524079703E+01 -0.19233377862E+02  0.21417004224E+02  0.00000000000E+00 0. -1.
</event>
<event>
 8    1  0.2401680E-006  0.9118800E+02  0.7816164E-02  0.1184000E+00
        -11   -1    0    0    0    0  0.00000000000E+00  0.00000000000E+00  0.45593999997E+02  0.45594000000E+02  0.51100000000E-03 0.  1.
         11   -1    0    0    0    0 -0.00000000000E+00 -0.00000000000E+00 -0.45593999997E+02  0.45594000000E+02  0.51100000000E-03 0. -1.
         23    2    1    2    0    0 -0.71054273576E-14 -0.22204460493E-15  0.00000000000E+00  0.91188000000E+02  0.91188000000E+02 0.  0.
    9900012    2    3    3    0    0 -0.32074271019E+02  0.57371249103E+00 -0.18074608846E+02  0.54367088926E+02  0.40000010824E+02 0.  0.
        -12    1    3    3    0    0  0.32074271019E+02 -0.57371249103E+00  0.18074608846E+02  0.36820911074E+02  0.00000000000E+00 0.  1.
         11    1    4    4    0    0 -0.30169091460E-01 -0.62265847545E+01 -0.19361718273E+01  0.65207384156E+01  0.51100000000E-03 0. -1.
        -11    1    4    4    0    0 -0.11918117578E+02  0.67543810219E+01  0.84314099782E+01  0.16085765884E+02  0.51100000000E-03 0.  1.
        -12    1    4    4    0    0 -0.20125984349E+02  0.45916223584E-01 -0.24569846997E+02  0.31760584626E+02  0.00000000000E+00 0.  1.
</event>
<event>
 8    1  0.2401680E-006  0.9118800E+02  0.7816164E-02  0.1184000E+00
        -11   -1    0    0    0    0  0.00000000000E+00  0.00000000000E+00  0.45593999997E+02  0.45594000000E+02  0.51100000000E-03 0.  1.
         11   -1    0    0    0    0 -0.00000000000E+00 -0.00000000000E+00 -0.45593999997E+02  0.45594000000E+02  0.51100000000E-03 0. -1.
         23    2    1    2    0    0  0.17763568394E-14  0.00000000000E+00  0.00000000000E+00  0.91188000000E+02  0.91188000000E+02 0.  0.
    9900012    2    3    3    0    0 -0.90720822370E+01  0.35413251100E+02 -0.44022747340E+01  0.54367067741E+02  0.39999962529E+02 0.  0.
        -12    1    3    3    0    0  0.90720822370E+01 -0.35413251100E+02  0.44022747340E+01  0.36820932259E+02  0.00000000000E+00 0.  1.
         11    1    4    4    0    0 -0.12143220982E+02  0.31929760832E+02 -0.15009608103E+02  0.37312943843E+02  0.51100000000E-03 0. -1.
        -11    1    4    4    0    0  0.24645214130E+01  0.50226365501E+01 -0.68928483635E+00  0.56370078550E+01  0.51100000000E-03 0.  1.
         12    1    4    4    0    0  0.60661733207E+00 -0.15391462818E+01  0.11296618205E+02  0.11417116043E+02  0.00000000000E+00 0. -1.
</event>
<event>
 8    1  0.2401680E-006  0.9118800E+02  0.7816164E-02  0.1184000E+00
        -11   -1    0    0    0    0  0.00000000000E+00  0.00000000000E+00  0.45593999997E+02  0.45594000000E+02  0.51100000000E-03 0. -1.
         11   -1    0    0    0    0 -0.00000000000E+00 -0.00000000000E+00 -0.45593999997E+02  0.45594000000E+02  0.51100000000E-03 0.  1.
         23    2    1    2    0    0 -0.44408920985E-15 -0.17763568394E-14 -0.71054273576E-14  0.91188000000E+02  0.91188000000E+02 0.  0.
    9900012    2    3    3    0    0  0.20367400166E+01  0.79623250213E+01  0.35891957565E+02  0.54367088177E+02  0.40000009117E+02 0.  0.
        -12    1    3    3    0    0 -0.20367400166E+01 -0.79623250213E+01 -0.35891957565E+02  0.36820911823E+02  0.00000000000E+00 0.  1.
         11    1    4    4    0    0  0.17102157417E+01  0.11413397144E+02  0.84529695873E+01  0.14305354499E+02  0.51100000000E-03 0. -1.
        -11    1    4    4    0    0 -0.22610965146E+01 -0.70863728419E+01 -0.39054317409E+01  0.84012876898E+01  0.51100000000E-03 0.  1.
         12    1    4    4    0    0  0.25876207894E+01  0.36353007196E+01  0.31344419718E+02  0.31660445988E+02  0.00000000000E+00 0. -1.
</event>
<event>
 8    1  0.2401680E-006  0.9118800E+02  0.7816164E-02  0.1184000E+00
        -11   -1    0    0    0    0  0.00000000000E+00  0.00000000000E+00  0.45593999997E+02  0.45594000000E+02  0.51100000000E-03 0.  1.
         11   -1    0    0    0    0 -0.00000000000E+00 -0.00000000000E+00 -0.45593999997E+02  0.45594000000E+02  0.51100000000E-03 0. -1.
         23    2    1    2    0    0  0.00000000000E+00  0.00000000000E+00  0.00000000000E+00  0.91188000000E+02  0.91188000000E+02 0.  0.
    9900012    2    3    3    0    0  0.21445290632E+02 -0.30064228448E+01 -0.29779878736E+02  0.54367078690E+02  0.39999987489E+02 0.  0.
        -12    1    3    3    0    0 -0.21445290632E+02  0.30064228448E+01  0.29779878736E+02  0.36820921310E+02  0.00000000000E+00 0.  1.
         11    1    4    4    0    0 -0.67486274570E+00  0.98933949926E+01 -0.83159421931E+01  0.12941777275E+02  0.51100000000E-03 0. -1.
        -11    1    4    4    0    0  0.28282942468E+01 -0.12656490822E+02 -0.56296156461E+00  0.12980868009E+02  0.51100000000E-03 0.  1.
        -12    1    4    4    0    0  0.19291859131E+02 -0.24332701525E+00 -0.20900974978E+02  0.28444433406E+02  0.00000000000E+00 0.  1.
</event>
<event>
 8    1  0.2401680E-006  0.9118800E+02  0.7816164E-02  0.1184000E+00
        -11   -1    0    0    0    0  0.00000000000E+00  0.00000000000E+00  0.45593999997E+02  0.45594000000E+02  0.51100000000E-03 0.  1.
         11   -1    0    0    0    0 -0.00000000000E+00 -0.00000000000E+00 -0.45593999997E+02  0.45594000000E+02  0.51100000000E-03 0. -1.
         23    2    1    2    0    0 -0.35527136788E-14  0.35527136788E-14  0.35527136788E-14  0.91188000000E+02  0.91188000000E+02 0.  0.
    9900012    2    3    3    0    0 -0.18575879545E+02  0.10844993730E+02  0.29884826257E+02  0.54367081621E+02  0.39999994171E+02 0.  0.
         12    1    3    3    0    0  0.18575879545E+02 -0.10844993730E+02 -0.29884826257E+02  0.36820918379E+02  0.00000000000E+00 0. -1.
         11    1    4    4    0    0 -0.12802199672E+02 -0.18023659167E+01  0.18274290426E+02  0.22385140835E+02  0.51100000000E-03 0. -1.
        -11    1    4    4    0    0  0.15746609485E+01 -0.33891025651E+01 -0.59919449519E+01  0.70617970707E+01  0.51100000000E-03 0.  1.
        -12    1    4    4    0    0 -0.73483408215E+01  0.16036462211E+02  0.17602480783E+02  0.24920143715E+02  0.00000000000E+00 0.  1.
</event>
<event>
 8    1  0.2401680E-006  0.9118800E+02  0.7816164E-02  0.1184000E+00
        -11   -1    0    0    0    0  0.00000000000E+00  0.00000000000E+00  0.45593999997E+02  0.45594000000E+02  0.51100000000E-03 0.  1.
         11   -1    0    0    0    0 -0.00000000000E+00 -0.00000000000E+00 -0.45593999997E+02  0.45594000000E+02  0.51100000000E-03 0. -1.
         23    2    1    2    0    0 -0.17763568394E-14  0.00000000000E+00 -0.44408920985E-15  0.91188000000E+02  0.91188000000E+02 0.  0.
    9900012    2    3    3    0    0  0.14586332230E+02  0.33732306812E+02  0.22693828458E+01  0.54367085980E+02  0.40000004108E+02 0.  0.
         12    1    3    3    0    0 -0.14586332230E+02 -0.33732306812E+02 -0.22693828458E+01  0.36820914020E+02  0.00000000000E+00 0. -1.
         11    1    4    4    0    0  0.15969143360E+01 -0.19445967466E+01 -0.91112114020E+01  0.94522888961E+01  0.51100000000E-03 0. -1.
        -11    1    4    4    0    0 -0.19337135253E+01  0.17871374318E+02  0.12104519186E+02  0.21671286371E+02  0.51100000000E-03 0.  1.
        -12    1    4    4    0    0  0.14923131419E+02  0.17805529241E+02 -0.72392493774E+00  0.23243510712E+02  0.00000000000E+00 0.  1.
</event>
<event>
 8    1  0.2401680E-006  0.9118800E+02  0.7816164E-02  0.1184000E+00
        -11   -1    0    0    0    0  0.00000000000E+00  0.00000000000E+00  0.45593999997E+02  0.45594000000E+02  0.51100000000E-03 0.  1.
         11   -1    0    0    0    0 -0.00000000000E+00 -0.00000000000E+00 -0.45593999997E+02  0.45594000000E+02  0.51100000000E-03 0. -1.
         23    2    1    2    0    0 -0.35527136788E-14  0.00000000000E+00  0.00000000000E+00  0.91188000000E+02  0.91188000000E+02 0.  0.
    9900012    2    3    3    0    0 -0.26946213346E+02 -0.20170939779E+02  0.14926979662E+02  0.54367082751E+02  0.39999996746E+02 0.  0.
         12    1    3    3    0    0  0.26946213346E+02  0.20170939779E+02 -0.14926979662E+02  0.36820917249E+02  0.00000000000E+00 0. -1.
         11    1    4    4    0    0 -0.46173626429E+01  0.61791923161E+01 -0.11762669184E+01  0.78029519786E+01  0.51100000000E-03 0. -1.
        -11    1    4    4    0    0 -0.17394325351E+02 -0.53720294653E+00  0.68530061645E+01  0.18703337541E+02  0.51100000000E-03 0.  1.
         12    1    4    4    0    0 -0.49345253517E+01 -0.25812929149E+02  0.92502404162E+01  0.27860793231E+02  0.00000000000E+00 0. -1.
</event>
<event>
 8    1  0.2401680E-006  0.9118800E+02  0.7816164E-02  0.1184000E+00
        -11   -1    0    0    0    0  0.00000000000E+00  0.00000000000E+00  0.45593999997E+02  0.45594000000E+02  0.51100000000E-03 0. -1.
         11   -1    0    0    0    0 -0.00000000000E+00 -0.00000000000E+00 -0.45593999997E+02  0.45594000000E+02  0.51100000000E-03 0.  1.
         23    2    1    2    0    0  0.23314683517E-14 -0.88817841970E-15  0.00000000000E+00  0.91188000000E+02  0.91188000000E+02 0.  0.
    9900012    2    3    3    0    0 -0.97624301099E+00  0.72925897497E+01  0.36078330370E+02  0.54367070653E+02  0.39999969168E+02 0.  0.
        -12    1    3    3    0    0  0.97624301099E+00 -0.72925897497E+01 -0.36078330370E+02  0.36820929347E+02  0.00000000000E+00 0.  1.
         11    1    4    4    0    0 -0.57265585362E+01 -0.77759912040E+01  0.13694526007E+02  0.16757074766E+02  0.51100000000E-03 0. -1.
        -11    1    4    4    0    0  0.13023918489E+02  0.47351772937E+00  0.67454683936E+01  0.14674740746E+02  0.51100000000E-03 0.  1.
        -12    1    4    4    0    0 -0.82736029636E+01  0.14595063224E+02  0.15638335969E+02  0.22935255142E+02  0.00000000000E+00 0.  1.
</event>
<event>
 8    1  0.2401680E-006  0.9118800E+02  0.7816164E-02  0.1184000E+00
        -11   -1    0    0    0    0  0.00000000000E+00  0.00000000000E+00  0.45593999997E+02  0.45594000000E+02  0.51100000000E-03 0.  1.
         11   -1    0    0    0    0 -0.00000000000E+00 -0.00000000000E+00 -0.45593999997E+02  0.45594000000E+02  0.51100000000E-03 0. -1.
         23    2    1    2    0    0  0.00000000000E+00  0.35527136788E-14  0.35527136788E-14  0.91188000000E+02  0.91188000000E+02 0.  0.
    9900012    2    3    3    0    0 -0.10388788592E+02 -0.31478847367E+02 -0.16029151049E+02  0.54367103171E+02  0.40000043298E+02 0.  0.
         12    1    3    3    0    0  0.10388788592E+02  0.31478847367E+02  0.16029151049E+02  0.36820896829E+02  0.00000000000E+00 0. -1.
         11    1    4    4    0    0 -0.14470185169E+01 -0.23883430708E+02 -0.14292084019E+02  0.27870697711E+02  0.51100000000E-03 0. -1.
        -11    1    4    4    0    0 -0.13609809480E+02 -0.23248417004E+01  0.68329315646E+01  0.15405218500E+02  0.51100000000E-03 0.  1.
        -12    1    4    4    0    0  0.46680394054E+01 -0.52705749584E+01 -0.85699985938E+01  0.11091186960E+02  0.00000000000E+00 0.  1.
</event>
<event>
 8    1  0.2401680E-006  0.9118800E+02  0.7816164E-02  0.1184000E+00
        -11   -1    0    0    0    0  0.00000000000E+00  0.00000000000E+00  0.45593999997E+02  0.45594000000E+02  0.51100000000E-03 0. -1.
         11   -1    0    0    0    0 -0.00000000000E+00 -0.00000000000E+00 -0.45593999997E+02  0.45594000000E+02  0.51100000000E-03 0.  1.
         23    2    1    2    0    0  0.00000000000E+00  0.00000000000E+00  0.88817841970E-15  0.91188000000E+02  0.91188000000E+02 0.  0.
    9900012    2    3    3    0    0  0.34843453979E+02 -0.10275503825E+02  0.60106480688E+01  0.54367079937E+02  0.39999990333E+02 0.  0.
         12    1    3    3    0    0 -0.34843453979E+02  0.10275503825E+02 -0.60106480688E+01  0.36820920063E+02  0.00000000000E+00 0. -1.
         11    1    4    4    0    0  0.18838274321E+01 -0.11899789435E+02  0.10803942030E+02  0.16182674626E+02  0.51100000000E-03 0. -1.
        -11    1    4    4    0    0  0.12260737093E+02  0.70364419737E+01  0.45328458273E+01  0.14845331969E+02  0.51100000000E-03 0.  1.
         12    1    4    4    0    0  0.20698889454E+02 -0.54121563636E+01 -0.93261397883E+01  0.23339073343E+02  0.00000000000E+00 0. -1.
</event>
<event>
 8    1  0.2401680E-006  0.9118800E+02  0.7816164E-02  0.1184000E+00
        -11   -1    0    0    0    0  0.00000000000E+00  0.00000000000E+00  0.45593999997E+02  0.45594000000E+02  0.51100000000E-03 0. -1.
         11   -1    0    0    0    0 -0.00000000000E+00 -0.00000000000E+00 -0.45593999997E+02  0.45594000000E+02  0.51100000000E-03 0.  1.
         23    2    1    2    0    0  0.17763568394E-14  0.17763568394E-14  0.00000000000E+00  0.91188000000E+02  0.91188000000E+02 0.  0.
    9900012    2    3    3    0    0  0.89820936833E+01 -0.71058863772E+01 -0.34994414585E+02  0.54367072794E+02  0.39999974048E+02 0.  0.
         12    1    3    3    0    0 -0.89820936833E+01  0.71058863772E+01  0.34994414585E+02  0.36820927206E+02  0.00000000000E+00 0. -1.
         11    1    4    4    0    0  0.62104172612E+01 -0.39233646643E+00 -0.27270384541E+01  0.67941113806E+01  0.51100000000E-03 0. -1.
        -11    1    4    4    0    0 -0.68843914395E+01 -0.14923011527E+02 -0.44838691579E+01  0.17035146064E+02  0.51100000000E-03 0.  1.
        -12    1    4    4    0    0  0.96560678616E+01  0.82094616164E+01 -0.27783506973E+02  0.30537815349E+02  0.00000000000E+00 0.  1.
</event>
<event>
 8    1  0.2401680E-006  0.9118800E+02  0.7816164E-02  0.1184000E+00
        -11   -1    0    0    0    0  0.00000000000E+00  0.00000000000E+00  0.45593999997E+02  0.45594000000E+02  0.51100000000E-03 0.  1.
         11   -1    0    0    0    0 -0.00000000000E+00 -0.00000000000E+00 -0.45593999997E+02  0.45594000000E+02  0.51100000000E-03 0. -1.
         23    2    1    2    0    0  0.00000000000E+00  0.00000000000E+00  0.00000000000E+00  0.91188000000E+02  0.91188000000E+02 0.  0.
    9900012    2    3    3    0    0  0.11298209001E+02 -0.95648201206E+01 -0.33714126153E+02  0.54367114448E+02  0.40000069007E+02 0.  0.
        -12    1    3    3    0    0 -0.11298209001E+02  0.95648201206E+01  0.33714126153E+02  0.36820885552E+02  0.00000000000E+00 0.  1.
         11    1    4    4    0    0  0.64148348531E+01 -0.68668926480E+01 -0.12189163247E+02  0.15390907113E+02  0.51100000000E-03 0. -1.
        -11    1    4    4    0    0  0.94870377319E+01  0.11109158411E+02 -0.19372770798E+02  0.24263584528E+02  0.51100000000E-03 0.  1.
        -12    1    4    4    0    0 -0.46036635839E+01 -0.13807085884E+02 -0.21521921084E+01  0.14712622807E+02  0.00000000000E+00 0.  1.
</event>
<event>
 8    1  0.2401680E-006  0.9118800E+02  0.7816164E-02  0.1184000E+00
        -11   -1    0    0    0    0  0.00000000000E+00  0.00000000000E+00  0.45593999997E+02  0.45594000000E+02  0.51100000000E-03 0. -1.
         11   -1    0    0    0    0 -0.00000000000E+00 -0.00000000000E+00 -0.45593999997E+02  0.45594000000E+02  0.51100000000E-03 0.  1.
         23    2    1    2    0    0  0.00000000000E+00  0.35527136788E-14  0.35527136788E-14  0.91188000000E+02  0.91188000000E+02 0.  0.
    9900012    2    3    3    0    0  0.19769122058E+02 -0.11973142848E+02 -0.28663797707E+02  0.54366978347E+02  0.39999758737E+02 0.  0.
         12    1    3    3    0    0 -0.19769122058E+02  0.11973142848E+02  0.28663797707E+02  0.36821021653E+02  0.00000000000E+00 0. -1.
         11    1    4    4    0    0  0.42602384117E+01  0.49386902802E+01 -0.10787885828E+01  0.66109059951E+01  0.51100000000E-03 0.  1.
        -11    1    4    4    0    0 -0.29858637075E+01  0.56957502381E+01  0.14271039167E+01  0.65873802611E+01  0.51100000000E-03 0. -1.
        -12    1    4    4    0    0  0.18494747353E+02 -0.22607583367E+02 -0.29012113041E+02  0.41168692091E+02  0.00000000000E+00 0.  1.
</event>
<event>
 8    1  0.2401680E-006  0.9118800E+02  0.7816164E-02  0.1184000E+00
        -11   -1    0    0    0    0  0.00000000000E+00  0.00000000000E+00  0.45593999997E+02  0.45594000000E+02  0.51100000000E-03 0. -1.
         11   -1    0    0    0    0 -0.00000000000E+00 -0.00000000000E+00 -0.45593999997E+02  0.45594000000E+02  0.51100000000E-03 0.  1.
         23    2    1    2    0    0  0.00000000000E+00  0.17763568394E-14  0.00000000000E+00  0.91188000000E+02  0.91188000000E+02 0.  0.
    9900012    2    3    3    0    0 -0.84664714017E+01  0.14282978122E+02 -0.32864790228E+02  0.54367095085E+02  0.40000024865E+02 0.  0.
         12    1    3    3    0    0  0.84664714017E+01 -0.14282978122E+02  0.32864790228E+02  0.36820904915E+02  0.00000000000E+00 0. -1.
         11    1    4    4    0    0 -0.16835164092E+02  0.23729569176E+01 -0.76214995566E+01  0.18631718394E+02  0.51100000000E-03 0. -1.
        -11    1    4    4    0    0  0.73755919568E+01  0.15550927099E+02 -0.26635826163E+02  0.31712740752E+02  0.51100000000E-03 0.  1.
        -12    1    4    4    0    0  0.99310073369E+00 -0.36409058952E+01  0.13925354917E+01  0.40226359393E+01  0.00000000000E+00 0.  1.
</event>
<event>
 8    1  0.2401680E-006  0.9118800E+02  0.7816164E-02  0.1184000E+00
        -11   -1    0    0    0    0  0.00000000000E+00  0.00000000000E+00  0.45593999997E+02  0.45594000000E+02  0.51100000000E-03 0. -1.
         11   -1    0    0    0    0 -0.00000000000E+00 -0.00000000000E+00 -0.45593999997E+02  0.45594000000E+02  0.51100000000E-03 0.  1.
         23    2    1    2    0    0  0.00000000000E+00  0.00000000000E+00  0.71054273576E-14  0.91188000000E+02  0.91188000000E+02 0.  0.
    9900012    2    3    3    0    0 -0.19510034597E+02 -0.60052224258E+01 -0.30644313153E+02  0.54367108173E+02  0.40000054701E+02 0.  0.
         12    1    3    3    0    0  0.19510034597E+02  0.60052224258E+01  0.30644313153E+02  0.36820891827E+02  0.00000000000E+00 0. -1.
         11    1    4    4    0    0 -0.83824963120E+01 -0.27771520802E+01 -0.33477242589E+01  0.94438379948E+01  0.51100000000E-03 0. -1.
        -11    1    4    4    0    0  0.70485814612E+00  0.10286779291E+02  0.20528746936E+01  0.10513274844E+02  0.51100000000E-03 0.  1.
         12    1    4    4    0    0 -0.11832396431E+02 -0.13514849636E+02 -0.29349463588E+02  0.34409995334E+02  0.00000000000E+00 0. -1.
</event>
<event>
 8    1  0.2401680E-006  0.9118800E+02  0.7816164E-02  0.1184000E+00
        -11   -1    0    0    0    0  0.00000000000E+00  0.00000000000E+00  0.45593999997E+02  0.45594000000E+02  0.51100000000E-03 0. -1.
         11   -1    0    0    0    0 -0.00000000000E+00 -0.00000000000E+00 -0.45593999997E+02  0.45594000000E+02  0.51100000000E-03 0.  1.
         23    2    1    2    0    0 -0.17763568394E-14  0.00000000000E+00  0.00000000000E+00  0.91188000000E+02  0.91188000000E+02 0.  0.
    9900012    2    3    3    0    0  0.51544283353E+01  0.34854434569E+02 -0.10694872383E+02  0.54367081545E+02  0.39999993998E+02 0.  0.
         12    1    3    3    0    0 -0.51544283353E+01 -0.34854434569E+02  0.10694872383E+02  0.36820918455E+02  0.00000000000E+00 0. -1.
         11    1    4    4    0    0 -0.73758461768E+01 -0.26054508358E+01 -0.17973712774E+01  0.80263332009E+01  0.51100000000E-03 0. -1.
        -11    1    4    4    0    0  0.40840858209E+01  0.18658519053E+02  0.69666534789E+01  0.20331117805E+02  0.51100000000E-03 0.  1.
         12    1    4    4    0    0  0.84461886912E+01  0.18801366352E+02 -0.15864154584E+02  0.26009630539E+02  0.00000000000E+00 0. -1.
</event>
<event>
 8    1  0.2401680E-006  0.9118800E+02  0.7816164E-02  0.1184000E+00
        -11   -1    0    0    0    0  0.00000000000E+00  0.00000000000E+00  0.45593999997E+02  0.45594000000E+02  0.51100000000E-03 0.  1.
         11   -1    0    0    0    0 -0.00000000000E+00 -0.00000000000E+00 -0.45593999997E+02  0.45594000000E+02  0.51100000000E-03 0. -1.
         23    2    1    2    0    0  0.00000000000E+00 -0.20677903834E-14 -0.71054273576E-14  0.91188000000E+02  0.91188000000E+02 0.  0.
    9900012    2    3    3    0    0  0.18048498279E+02 -0.84390011487E-01  0.32093998550E+02  0.54367079931E+02  0.39999990319E+02 0.  0.
         12    1    3    3    0    0 -0.18048498279E+02  0.84390011487E-01 -0.32093998550E+02  0.36820920069E+02  0.00000000000E+00 0. -1.
         11    1    4    4    0    0  0.12299530038E+02 -0.13736980331E+02  0.36979717633E+00  0.18442337650E+02  0.51100000000E-03 0. -1.
        -11    1    4    4    0    0  0.62371365622E+01  0.61975705625E+01  0.12352570831E+02  0.15162379752E+02  0.51100000000E-03 0.  1.
         12    1    4    4    0    0 -0.48816832139E+00  0.74550197574E+01  0.19371630543E+02  0.20762362529E+02  0.00000000000E+00 0. -1.
</event>
<event>
 8    1  0.2401680E-006  0.9118800E+02  0.7816164E-02  0.1184000E+00
        -11   -1    0    0    0    0  0.00000000000E+00  0.00000000000E+00  0.45593999997E+02  0.45594000000E+02  0.51100000000E-03 0.  1.
         11   -1    0    0    0    0 -0.00000000000E+00 -0.00000000000E+00 -0.45593999997E+02  0.45594000000E+02  0.51100000000E-03 0. -1.
         23    2    1    2    0    0 -0.88817841970E-15  0.00000000000E+00  0.00000000000E+00  0.91188000000E+02  0.91188000000E+02 0.  0.
    9900012    2    3    3    0    0  0.15439138243E+01 -0.34789486107E+01  0.36623665141E+02  0.54367087440E+02  0.40000007438E+02 0.  0.
         12    1    3    3    0    0 -0.15439138243E+01  0.34789486107E+01 -0.36623665141E+02  0.36820912560E+02  0.00000000000E+00 0. -1.
         11    1    4    4    0    0 -0.19333224962E+01 -0.52887711436E+01 -0.65273100859E+01  0.86205923985E+01  0.51100000000E-03 0. -1.
        -11    1    4    4    0    0  0.89747489238E+01  0.49771066970E+00  0.20195620999E+02  0.22105586216E+02  0.51100000000E-03 0.  1.
         12    1    4    4    0    0 -0.54975126033E+01  0.13121118632E+01  0.22955354228E+02  0.23640908825E+02  0.00000000000E+00 0. -1.
</event>
<event>
 8    1  0.2401680E-006  0.9118800E+02  0.7816164E-02  0.1184000E+00
        -11   -1    0    0    0    0  0.00000000000E+00  0.00000000000E+00  0.45593999997E+02  0.45594000000E+02  0.51100000000E-03 0. -1.
         11   -1    0    0    0    0 -0.00000000000E+00 -0.00000000000E+00 -0.45593999997E+02  0.45594000000E+02  0.51100000000E-03 0.  1.
         23    2    1    2    0    0  0.00000000000E+00  0.00000000000E+00  0.35527136788E-14  0.91188000000E+02  0.91188000000E+02 0.  0.
    9900012    2    3    3    0    0 -0.25789462551E+02 -0.10232009566E+02 -0.24207206958E+02  0.54367091984E+02  0.40000017797E+02 0.  0.
         12    1    3    3    0    0  0.25789462551E+02  0.10232009566E+02  0.24207206958E+02  0.36820908016E+02  0.00000000000E+00 0. -1.
         11    1    4    4    0    0 -0.39433360844E+01 -0.14454230590E+02 -0.12633252295E+02  0.19597799499E+02  0.51100000000E-03 0. -1.
        -11    1    4    4    0    0 -0.18715240730E+02 -0.21144692937E+01 -0.17375690371E+02  0.25625101602E+02  0.51100000000E-03 0.  1.
         12    1    4    4    0    0 -0.31308857363E+01  0.63366903177E+01  0.58017357081E+01  0.91441908829E+01  0.00000000000E+00 0. -1.
</event>
<event>
 8    1  0.2401680E-006  0.9118800E+02  0.7816164E-02  0.1184000E+00
        -11   -1    0    0    0    0  0.00000000000E+00  0.00000000000E+00  0.45593999997E+02  0.45594000000E+02  0.51100000000E-03 0.  1.
         11   -1    0    0    0    0 -0.00000000000E+00 -0.00000000000E+00 -0.45593999997E+02  0.45594000000E+02  0.51100000000E-03 0. -1.
         23    2    1    2    0    0  0.35527136788E-14 -0.44408920985E-15 -0.71054273576E-14  0.91188000000E+02  0.91188000000E+02 0.  0.
    9900012    2    3    3    0    0 -0.16760884035E+02 -0.21992489552E+01  0.32711123201E+02  0.54367061519E+02  0.39999948344E+02 0.  0.
         12    1    3    3    0    0  0.16760884035E+02  0.21992489552E+01 -0.32711123201E+02  0.36820938481E+02  0.00000000000E+00 0. -1.
         11    1    4    4    0    0 -0.15053941168E+02  0.75570742936E+01  0.20625883120E+02  0.26630012604E+02  0.51100000000E-03 0. -1.
        -11    1    4    4    0    0 -0.10532884121E+02 -0.83193261249E+01  0.13077961765E+02  0.18739955156E+02  0.51100000000E-03 0.  1.
         12    1    4    4    0    0  0.88259412542E+01 -0.14369971239E+01 -0.99272168386E+00  0.89970937584E+01  0.00000000000E+00 0. -1.
</event>
<event>
 8    1  0.2401680E-006  0.9118800E+02  0.7816164E-02  0.1184000E+00
        -11   -1    0    0    0    0  0.00000000000E+00  0.00000000000E+00  0.45593999997E+02  0.45594000000E+02  0.51100000000E-03 0.  1.
         11   -1    0    0    0    0 -0.00000000000E+00 -0.00000000000E+00 -0.45593999997E+02  0.45594000000E+02  0.51100000000E-03 0. -1.
         23    2    1    2    0    0  0.00000000000E+00  0.00000000000E+00 -0.35527136788E-14  0.91188000000E+02  0.91188000000E+02 0.  0.
    9900012    2    3    3    0    0 -0.29025844761E+02 -0.46832590878E+01 -0.22166365822E+02  0.54367077232E+02  0.39999984165E+02 0.  0.
        -12    1    3    3    0    0  0.29025844761E+02  0.46832590878E+01  0.22166365822E+02  0.36820922768E+02  0.00000000000E+00 0.  1.
         11    1    4    4    0    0 -0.62597305248E+01  0.79735005514E+01 -0.36819090959E+01  0.10785054109E+02  0.51100000000E-03 0. -1.
        -11    1    4    4    0    0 -0.13873695463E+01 -0.54731008562E+01  0.73627599610E+01  0.92784622511E+01  0.51100000000E-03 0.  1.
         12    1    4    4    0    0 -0.21378744690E+02 -0.71836587830E+01 -0.25847216687E+02  0.34303560872E+02  0.00000000000E+00 0. -1.
</event>
<event>
 8    1  0.2401680E-006  0.9118800E+02  0.7816164E-02  0.1184000E+00
        -11   -1    0    0    0    0  0.00000000000E+00  0.00000000000E+00  0.45593999997E+02  0.45594000000E+02  0.51100000000E-03 0. -1.
         11   -1    0    0    0    0 -0.00000000000E+00 -0.00000000000E+00 -0.45593999997E+02  0.45594000000E+02  0.51100000000E-03 0.  1.
         23    2    1    2    0    0  0.00000000000E+00  0.00000000000E+00  0.00000000000E+00  0.91188000000E+02  0.91188000000E+02 0.  0.
    9900012    2    3    3    0    0 -0.14462730518E+02  0.82953605058E+01 -0.32829797127E+02  0.54367093447E+02  0.40000021132E+02 0.  0.
         12    1    3    3    0    0  0.14462730518E+02 -0.82953605058E+01  0.32829797127E+02  0.36820906553E+02  0.00000000000E+00 0. -1.
         11    1    4    4    0    0  0.68428730477E+01  0.99213622156E+01 -0.13062053032E+02  0.17772888607E+02  0.51100000000E-03 0. -1.
        -11    1    4    4    0    0 -0.96313977594E+01  0.73901717121E+01 -0.18037751440E+02  0.21742560521E+02  0.51100000000E-03 0.  1.
        -12    1    4    4    0    0 -0.11674205807E+02 -0.90161734220E+01 -0.17299926544E+01  0.14851644319E+02  0.00000000000E+00 0.  1.
</event>
<event>
 8    1  0.2401680E-006  0.9118800E+02  0.7816164E-02  0.1184000E+00
        -11   -1    0    0    0    0  0.00000000000E+00  0.00000000000E+00  0.45593999997E+02  0.45594000000E+02  0.51100000000E-03 0.  1.
         11   -1    0    0    0    0 -0.00000000000E+00 -0.00000000000E+00 -0.45593999997E+02  0.45594000000E+02  0.51100000000E-03 0. -1.
         23    2    1    2    0    0  0.00000000000E+00 -0.35527136788E-14  0.17763568394E-14  0.91188000000E+02  0.91188000000E+02 0.  0.
    9900012    2    3    3    0    0  0.23393853387E+02 -0.25460982086E+02  0.12658839376E+02  0.54367079324E+02  0.39999988935E+02 0.  0.
         12    1    3    3    0    0 -0.23393853387E+02  0.25460982086E+02 -0.12658839376E+02  0.36820920676E+02  0.00000000000E+00 0. -1.
         11    1    4    4    0    0 -0.73442245736E+01 -0.47221396530E+00  0.40106878460E+01  0.83813028746E+01  0.51100000000E-03 0. -1.
        -11    1    4    4    0    0  0.12283143124E+00  0.14019771175E+01 -0.35061477826E+01  0.37780550463E+01  0.51100000000E-03 0.  1.
        -12    1    4    4    0    0  0.30615246529E+02 -0.26390745238E+02  0.12154299313E+02  0.42207721403E+02  0.00000000000E+00 0.  1.
</event>
<event>
 8    1  0.2401680E-006  0.9118800E+02  0.7816164E-02  0.1184000E+00
        -11   -1    0    0    0    0  0.00000000000E+00  0.00000000000E+00  0.45593999997E+02  0.45594000000E+02  0.51100000000E-03 0.  1.
         11   -1    0    0    0    0 -0.00000000000E+00 -0.00000000000E+00 -0.45593999997E+02  0.45594000000E+02  0.51100000000E-03 0. -1.
         23    2    1    2    0    0  0.00000000000E+00  0.00000000000E+00  0.71054273576E-14  0.91188000000E+02  0.91188000000E+02 0.  0.
    9900012    2    3    3    0    0 -0.55115403051E+01 -0.17353259018E+02 -0.32004080439E+02  0.54367165683E+02  0.40000185807E+02 0.  0.
        -12    1    3    3    0    0  0.55115403051E+01  0.17353259018E+02  0.32004080439E+02  0.36820834317E+02  0.00000000000E+00 0.  1.
         11    1    4    4    0    0 -0.89965463661E+01 -0.37416838241E+01  0.61702203909E+01  0.11532981587E+02  0.51100000000E-03 0. -1.
        -11    1    4    4    0    0  0.81335177238E+01 -0.48670423367E+01 -0.17177945232E+02  0.19619480481E+02  0.51100000000E-03 0.  1.
         12    1    4    4    0    0 -0.46485116627E+01 -0.87445328574E+01 -0.20996355597E+02  0.23214703615E+02  0.00000000000E+00 0. -1.
</event>
<event>
 8    1  0.2401680E-006  0.9118800E+02  0.7816164E-02  0.1184000E+00
        -11   -1    0    0    0    0  0.00000000000E+00  0.00000000000E+00  0.45593999997E+02  0.45594000000E+02  0.51100000000E-03 0.  1.
         11   -1    0    0    0    0 -0.00000000000E+00 -0.00000000000E+00 -0.45593999997E+02  0.45594000000E+02  0.51100000000E-03 0. -1.
         23    2    1    2    0    0  0.00000000000E+00  0.35527136788E-14 -0.88817841970E-15  0.91188000000E+02  0.91188000000E+02 0.  0.
    9900012    2    3    3    0    0 -0.17621686318E+02 -0.31555984178E+02  0.70338808697E+01  0.54367089552E+02  0.40000012253E+02 0.  0.
         12    1    3    3    0    0  0.17621686318E+02  0.31555984178E+02 -0.70338808697E+01  0.36820910448E+02  0.00000000000E+00 0. -1.
         11    1    4    4    0    0 -0.63394056928E+00 -0.16832670756E+02  0.86873301383E+00  0.16866990921E+02  0.51100000000E-03 0. -1.
        -11    1    4    4    0    0 -0.18345372938E+02 -0.19323164875E+02  0.12600729681E+02  0.29473985102E+02  0.51100000000E-03 0.  1.
        -12    1    4    4    0    0  0.13576271895E+01  0.45998514529E+01 -0.64355818249E+01  0.80261135302E+01  0.00000000000E+00 0.  1.
</event>
<event>
 8    1  0.2401680E-006  0.9118800E+02  0.7816164E-02  0.1184000E+00
        -11   -1    0    0    0    0  0.00000000000E+00  0.00000000000E+00  0.45593999997E+02  0.45594000000E+02  0.51100000000E-03 0.  1.
         11   -1    0    0    0    0 -0.00000000000E+00 -0.00000000000E+00 -0.45593999997E+02  0.45594000000E+02  0.51100000000E-03 0. -1.
         23    2    1    2    0    0  0.00000000000E+00 -0.35527136788E-14  0.00000000000E+00  0.91188000000E+02  0.91188000000E+02 0.  0.
    9900012    2    3    3    0    0  0.12287149947E+02  0.21980152798E+02  0.26864046206E+02  0.54367107161E+02  0.40000052396E+02 0.  0.
         12    1    3    3    0    0 -0.12287149947E+02 -0.21980152798E+02 -0.26864046206E+02  0.36820892839E+02  0.00000000000E+00 0. -1.
         11    1    4    4    0    0 -0.24671182656E+01  0.11734294869E+02  0.61179874298E+01  0.13461430796E+02  0.51100000000E-03 0. -1.
        -11    1    4    4    0    0  0.18648318279E+02 -0.46588444358E+01  0.76553425850E+01  0.20689825434E+02  0.51100000000E-03 0.  1.
        -12    1    4    4    0    0 -0.38940500662E+01  0.14904702365E+02  0.13090716191E+02  0.20215850932E+02  0.00000000000E+00 0.  1.
</event>
<event>
 8    1  0.2401680E-006  0.9118800E+02  0.7816164E-02  0.1184000E+00
        -11   -1    0    0    0    0  0.00000000000E+00  0.00000000000E+00  0.45593999997E+02  0.45594000000E+02  0.51100000000E-03 0. -1.
         11   -1    0    0    0    0 -0.00000000000E+00 -0.00000000000E+00 -0.45593999997E+02  0.45594000000E+02  0.51100000000E-03 0.  1.
         23    2    1    2    0    0  0.35527136788E-14 -0.15543122345E-14  0.00000000000E+00  0.91188000000E+02  0.91188000000E+02 0.  0.
    9900012    2    3    3    0    0  0.26805434910E+02 -0.12230785306E+01  0.25214124782E+02  0.54367090854E+02  0.40000015220E+02 0.  0.
        -12    1    3    3    0    0 -0.26805434910E+02  0.12230785306E+01 -0.25214124782E+02  0.36820909146E+02  0.00000000000E+00 0.  1.
         11    1    4    4    0    0  0.10096847081E+02 -0.39096826091E+01  0.74012321486E+01  0.13115265025E+02  0.51100000000E-03 0. -1.
        -11    1    4    4    0    0  0.31587792620E+00  0.15941110435E+02  0.97043626596E+01  0.18665300310E+02  0.51100000000E-03 0.  1.
        -12    1    4    4    0    0  0.16392709902E+02 -0.13254506357E+02  0.81085299737E+01  0.22586525519E+02  0.00000000000E+00 0.  1.
</event>
<event>
 8    1  0.2401680E-006  0.9118800E+02  0.7816164E-02  0.1184000E+00
        -11   -1    0    0    0    0  0.00000000000E+00  0.00000000000E+00  0.45593999997E+02  0.45594000000E+02  0.51100000000E-03 0.  1.
         11   -1    0    0    0    0 -0.00000000000E+00 -0.00000000000E+00 -0.45593999997E+02  0.45594000000E+02  0.51100000000E-03 0. -1.
         23    2    1    2    0    0  0.00000000000E+00  0.00000000000E+00 -0.35527136788E-14  0.91188000000E+02  0.91188000000E+02 0.  0.
    9900012    2    3    3    0    0  0.22084376865E+02 -0.11195206714E+02 -0.27253002209E+02  0.54367102614E+02  0.40000042029E+02 0.  0.
        -12    1    3    3    0    0 -0.22084376865E+02  0.11195206714E+02  0.27253002209E+02  0.36820897386E+02  0.00000000000E+00 0.  1.
         11    1    4    4    0    0 -0.42402223623E+01 -0.49921503435E+01 -0.16099656395E+02  0.17381023763E+02  0.51100000000E-03 0. -1.
        -11    1    4    4    0    0  0.12355241253E+02 -0.94452554126E+01  0.40660215619E+01  0.16074743165E+02  0.51100000000E-03 0.  1.
        -12    1    4    4    0    0  0.13969357975E+02  0.32421990418E+01 -0.15219367376E+02  0.20911335686E+02  0.00000000000E+00 0.  1.
</event>
<event>
 8    1  0.2401680E-006  0.9118800E+02  0.7816164E-02  0.1184000E+00
        -11   -1    0    0    0    0  0.00000000000E+00  0.00000000000E+00  0.45593999997E+02  0.45594000000E+02  0.51100000000E-03 0.  1.
         11   -1    0    0    0    0 -0.00000000000E+00 -0.00000000000E+00 -0.45593999997E+02  0.45594000000E+02  0.51100000000E-03 0. -1.
         23    2    1    2    0    0  0.00000000000E+00 -0.35527136788E-14 -0.35527136788E-14  0.91188000000E+02  0.91188000000E+02 0.  0.
    9900012    2    3    3    0    0 -0.30083213466E+01 -0.25839003177E+02 -0.26059103320E+02  0.54367069154E+02  0.39999965750E+02 0.  0.
        -12    1    3    3    0    0  0.30083213466E+01  0.25839003177E+02  0.26059103320E+02  0.36820930846E+02  0.00000000000E+00 0.  1.
         11    1    4    4    0    0 -0.53377960068E+01 -0.44819782096E+01 -0.16927145186E+02  0.18305967313E+02  0.51100000000E-03 0. -1.
        -11    1    4    4    0    0  0.69600414347E+01  0.46383171748E+01 -0.34763608107E+01  0.90576623769E+01  0.51100000000E-03 0.  1.
         12    1    4    4    0    0 -0.46305667745E+01 -0.25995342143E+02 -0.56555973237E+01  0.27003439463E+02  0.00000000000E+00 0. -1.
</event>
<event>
 8    1  0.2401680E-006  0.9118800E+02  0.7816164E-02  0.1184000E+00
        -11   -1    0    0    0    0  0.00000000000E+00  0.00000000000E+00  0.45593999997E+02  0.45594000000E+02  0.51100000000E-03 0.  1.
         11   -1    0    0    0    0 -0.00000000000E+00 -0.00000000000E+00 -0.45593999997E+02  0.45594000000E+02  0.51100000000E-03 0. -1.
         23    2    1    2    0    0  0.00000000000E+00  0.00000000000E+00  0.00000000000E+00  0.91188000000E+02  0.91188000000E+02 0.  0.
    9900012    2    3    3    0    0 -0.24207638187E+02  0.23865008175E+02  0.14150318106E+02  0.54367083875E+02  0.39999999310E+02 0.  0.
         12    1    3    3    0    0  0.24207638187E+02 -0.23865008175E+02 -0.14150318106E+02  0.36820916125E+02  0.00000000000E+00 0. -1.
         11    1    4    4    0    0  0.89423546713E+01  0.38189766894E+01  0.19783119126E+01  0.99229032196E+01  0.51100000000E-03 0. -1.
        -11    1    4    4    0    0 -0.24599627688E+02  0.22999233193E+02  0.90029672365E+01  0.34859142691E+02  0.51100000000E-03 0.  1.
        -12    1    4    4    0    0 -0.85503651706E+01 -0.29532017067E+01  0.31690389567E+01  0.95850379645E+01  0.00000000000E+00 0.  1.
</event>
<event>
 8    1  0.2401680E-006  0.9118800E+02  0.7816164E-02  0.1184000E+00
        -11   -1    0    0    0    0  0.00000000000E+00  0.00000000000E+00  0.45593999997E+02  0.45594000000E+02  0.51100000000E-03 0. -1.
         11   -1    0    0    0    0 -0.00000000000E+00 -0.00000000000E+00 -0.45593999997E+02  0.45594000000E+02  0.51100000000E-03 0.  1.
         23    2    1    2    0    0 -0.35527136788E-14  0.00000000000E+00  0.35527136788E-14  0.91188000000E+02  0.91188000000E+02 0.  0.
    9900012    2    3    3    0    0  0.23774942017E+02 -0.44333690813E+01  0.27764684774E+02  0.54367077281E+02  0.39999984277E+02 0.  0.
        -12    1    3    3    0    0 -0.23774942017E+02  0.44333690813E+01 -0.27764684774E+02  0.36820922719E+02  0.00000000000E+00 0.  1.
         11    1    4    4    0    0  0.71470254839E+01  0.64500085072E+00  0.14324437388E+02  0.16021407745E+02  0.51100000000E-03 0. -1.
        -11    1    4    4    0    0 -0.36381198115E+00 -0.10899939638E+02  0.16842286855E+02  0.20064986171E+02  0.51100000000E-03 0.  1.
        -12    1    4    4    0    0  0.16991728514E+02  0.58215697059E+01 -0.34020394701E+01  0.18280683365E+02  0.00000000000E+00 0.  1.
</event>
<event>
 8    1  0.2401680E-006  0.9118800E+02  0.7816164E-02  0.1184000E+00
        -11   -1    0    0    0    0  0.00000000000E+00  0.00000000000E+00  0.45593999997E+02  0.45594000000E+02  0.51100000000E-03 0. -1.
         11   -1    0    0    0    0 -0.00000000000E+00 -0.00000000000E+00 -0.45593999997E+02  0.45594000000E+02  0.51100000000E-03 0.  1.
         23    2    1    2    0    0  0.00000000000E+00 -0.35527136788E-14 -0.35527136788E-14  0.91188000000E+02  0.91188000000E+02 0.  0.
    9900012    2    3    3    0    0  0.23688006207E+02  0.21614261285E+02 -0.18096462310E+02  0.54367083701E+02  0.39999998913E+02 0.  0.
         12    1    3    3    0    0 -0.23688006207E+02 -0.21614261285E+02  0.18096462310E+02  0.36820916299E+02  0.00000000000E+00 0. -1.
         11    1    4    4    0    0 -0.25997713613E+01 -0.20427205404E+01 -0.47832915754E+01  0.58147568215E+01  0.51100000000E-03 0. -1.
        -11    1    4    4    0    0  0.19094396269E+02  0.10116691750E+02  0.73476008096E+01  0.22823905423E+02  0.51100000000E-03 0.  1.
         12    1    4    4    0    0  0.71933813000E+01  0.13540290075E+02 -0.20660771544E+02  0.25728421457E+02  0.00000000000E+00 0. -1.
</event>
<event>
 8    1  0.2401680E-006  0.9118800E+02  0.7816164E-02  0.1184000E+00
        -11   -1    0    0    0    0  0.00000000000E+00  0.00000000000E+00  0.45593999997E+02  0.45594000000E+02  0.51100000000E-03 0. -1.
         11   -1    0    0    0    0 -0.00000000000E+00 -0.00000000000E+00 -0.45593999997E+02  0.45594000000E+02  0.51100000000E-03 0.  1.
         23    2    1    2    0    0 -0.44408920985E-15  0.00000000000E+00  0.00000000000E+00  0.91188000000E+02  0.91188000000E+02 0.  0.
    9900012    2    3    3    0    0 -0.31208003615E+01  0.12344325501E+02  0.34549371718E+02  0.54367070448E+02  0.39999968701E+02 0.  0.
        -12    1    3    3    0    0  0.31208003615E+01 -0.12344325501E+02 -0.34549371718E+02  0.36820929552E+02  0.00000000000E+00 0.  1.
         11    1    4    4    0    0 -0.22908328066E+01  0.12146623851E+02  0.24228134306E+01  0.12595968050E+02  0.51100000000E-03 0. -1.
        -11    1    4    4    0    0  0.61361000032E+01 -0.60201684929E+01  0.29818955121E+00  0.86013411281E+01  0.51100000000E-03 0.  1.
        -12    1    4    4    0    0 -0.69660675582E+01  0.62178701432E+01  0.31828368736E+02  0.33169761270E+02  0.00000000000E+00 0.  1.
</event>
<event>
 8    1  0.2401680E-006  0.9118800E+02  0.7816164E-02  0.1184000E+00
        -11   -1    0    0    0    0  0.00000000000E+00  0.00000000000E+00  0.45593999997E+02  0.45594000000E+02  0.51100000000E-03 0.  1.
         11   -1    0    0    0    0 -0.00000000000E+00 -0.00000000000E+00 -0.45593999997E+02  0.45594000000E+02  0.51100000000E-03 0. -1.
         23    2    1    2    0    0  0.33306690739E-15  0.35527136788E-14 -0.35527136788E-14  0.91188000000E+02  0.91188000000E+02 0.  0.
    9900012    2    3    3    0    0  0.81031459628E+00 -0.25304543195E+02  0.26735813659E+02  0.54367078664E+02  0.39999987430E+02 0.  0.
         12    1    3    3    0    0 -0.81031459628E+00  0.25304543195E+02 -0.26735813659E+02  0.36820921336E+02  0.00000000000E+00 0. -1.
         11    1    4    4    0    0 -0.11541772474E+02 -0.15311336215E+02  0.89253100717E+01  0.21149720771E+02  0.51100000000E-03 0. -1.
        -11    1    4    4    0    0 -0.91137097135E+00 -0.99477123508E+01  0.17260128867E+02  0.19942407749E+02  0.51100000000E-03 0.  1.
        -12    1    4    4    0    0  0.13263458042E+02 -0.45494628996E-01  0.55037471993E+00  0.13274950144E+02  0.00000000000E+00 0.  1.
</event>
<event>
 8    1  0.2401680E-006  0.9118800E+02  0.7816164E-02  0.1184000E+00
        -11   -1    0    0    0    0  0.00000000000E+00  0.00000000000E+00  0.45593999997E+02  0.45594000000E+02  0.51100000000E-03 0. -1.
         11   -1    0    0    0    0 -0.00000000000E+00 -0.00000000000E+00 -0.45593999997E+02  0.45594000000E+02  0.51100000000E-03 0.  1.
         23    2    1    2    0    0  0.00000000000E+00  0.35527136788E-14  0.00000000000E+00  0.91188000000E+02  0.91188000000E+02 0.  0.
    9900012    2    3    3    0    0  0.22362663052E+01 -0.29569602804E+02 -0.21827001899E+02  0.54367077838E+02  0.39999985548E+02 0.  0.
         12    1    3    3    0    0 -0.22362663052E+01  0.29569602804E+02  0.21827001899E+02  0.36820922162E+02  0.00000000000E+00 0. -1.
         11    1    4    4    0    0  0.93062759925E+00  0.15141675310E+01  0.99819627368E+00  0.20384226996E+01  0.51100000000E-03 0. -1.
        -11    1    4    4    0    0  0.18055788698E+02 -0.15856761176E+02 -0.15237205404E+02  0.28453836460E+02  0.51100000000E-03 0.  1.
        -12    1    4    4    0    0 -0.16750149992E+02 -0.15227009159E+02 -0.75879927689E+01  0.23874818679E+02  0.00000000000E+00 0.  1.
</event>
<event>
 8    1  0.2401680E-006  0.9118800E+02  0.7816164E-02  0.1184000E+00
        -11   -1    0    0    0    0  0.00000000000E+00  0.00000000000E+00  0.45593999997E+02  0.45594000000E+02  0.51100000000E-03 0. -1.
         11   -1    0    0    0    0 -0.00000000000E+00 -0.00000000000E+00 -0.45593999997E+02  0.45594000000E+02  0.51100000000E-03 0.  1.
         23    2    1    2    0    0  0.44408920985E-15  0.35527136788E-14 -0.71054273576E-14  0.91188000000E+02  0.91188000000E+02 0.  0.
    9900012    2    3    3    0    0  0.48900215897E+00 -0.16760684842E+02  0.32781406412E+02  0.54367078151E+02  0.39999986260E+02 0.  0.
        -12    1    3    3    0    0 -0.48900215897E+00  0.16760684842E+02 -0.32781406412E+02  0.36820921849E+02  0.00000000000E+00 0.  1.
         11    1    4    4    0    0  0.11713383171E+02 -0.21635927332E+01  0.65539141585E+01  0.13595523891E+02  0.51100000000E-03 0.  1.
        -11    1    4    4    0    0  0.39936051991E+01 -0.15363762584E+02  0.15045880914E+02  0.21871730978E+02  0.51100000000E-03 0. -1.
        -12    1    4    4    0    0 -0.15217986211E+02  0.76667047517E+00  0.11181611340E+02  0.18899823282E+02  0.00000000000E+00 0.  1.
</event>
<event>
 8    1  0.2401680E-006  0.9118800E+02  0.7816164E-02  0.1184000E+00
        -11   -1    0    0    0    0  0.00000000000E+00  0.00000000000E+00  0.45593999997E+02  0.45594000000E+02  0.51100000000E-03 0.  1.
         11   -1    0    0    0    0 -0.00000000000E+00 -0.00000000000E+00 -0.45593999997E+02  0.45594000000E+02  0.51100000000E-03 0. -1.
         23    2    1    2    0    0  0.00000000000E+00  0.00000000000E+00  0.00000000000E+00  0.91188000000E+02  0.91188000000E+02 0.  0.
    9900012    2    3    3    0    0 -0.17606593069E+02 -0.15001646340E+02  0.28648598936E+02  0.54367031335E+02  0.39999879535E+02 0.  0.
         12    1    3    3    0    0  0.17606593069E+02  0.15001646340E+02 -0.28648598936E+02  0.36820968665E+02  0.00000000000E+00 0. -1.
         11    1    4    4    0    0 -0.78576508973E+01 -0.90653586043E+01 -0.38538382827E+01  0.12600614033E+02  0.51100000000E-03 0. -1.
        -11    1    4    4    0    0 -0.15408863197E+02  0.21807226914E+01  0.24570359407E+02  0.29084208398E+02  0.51100000000E-03 0.  1.
         12    1    4    4    0    0  0.56599210251E+01 -0.81170104266E+01  0.79320778119E+01  0.12682208904E+02  0.00000000000E+00 0. -1.
</event>
<event>
 8    1  0.2401680E-006  0.9118800E+02  0.7816164E-02  0.1184000E+00
        -11   -1    0    0    0    0  0.00000000000E+00  0.00000000000E+00  0.45593999997E+02  0.45594000000E+02  0.51100000000E-03 0.  1.
         11   -1    0    0    0    0 -0.00000000000E+00 -0.00000000000E+00 -0.45593999997E+02  0.45594000000E+02  0.51100000000E-03 0. -1.
         23    2    1    2    0    0 -0.35527136788E-14 -0.17763568394E-14  0.00000000000E+00  0.91188000000E+02  0.91188000000E+02 0.  0.
    9900012    2    3    3    0    0 -0.19246381960E+02 -0.12596926365E+02  0.28751949450E+02  0.54367077014E+02  0.39999983668E+02 0.  0.
         12    1    3    3    0    0  0.19246381960E+02  0.12596926365E+02 -0.28751949450E+02  0.36820922986E+02  0.00000000000E+00 0. -1.
         11    1    4    4    0    0  0.60126672682E+01 -0.62200400333E+01  0.10062553913E+02  0.13270118960E+02  0.51100000000E-03 0. -1.
        -11    1    4    4    0    0 -0.16790410897E+02 -0.15412815002E+02  0.64541998467E+01  0.23688171316E+02  0.51100000000E-03 0.  1.
         12    1    4    4    0    0 -0.84686383307E+01  0.90359286698E+01  0.12235195690E+02  0.17408786738E+02  0.00000000000E+00 0. -1.
</event>
<event>
 8    1  0.2401680E-006  0.9118800E+02  0.7816164E-02  0.1184000E+00
        -11   -1    0    0    0    0  0.00000000000E+00  0.00000000000E+00  0.45593999997E+02  0.45594000000E+02  0.51100000000E-03 0.  1.
         11   -1    0    0    0    0 -0.00000000000E+00 -0.00000000000E+00 -0.45593999997E+02  0.45594000000E+02  0.51100000000E-03 0. -1.
         23    2    1    2    0    0  0.00000000000E+00  0.71054273576E-14  0.35527136788E-14  0.91188000000E+02  0.91188000000E+02 0.  0.
    9900012    2    3    3    0    0 -0.35782373857E+01 -0.34375690820E+02 -0.12699869771E+02  0.54367101120E+02  0.40000038624E+02 0.  0.
         12    1    3    3    0    0  0.35782373857E+01  0.34375690820E+02  0.12699869771E+02  0.36820898880E+02  0.00000000000E+00 0. -1.
         11    1    4    4    0    0 -0.11789942710E+02 -0.15798319663E+02 -0.80362824371E+00  0.19729051470E+02  0.51100000000E-03 0. -1.
        -11    1    4    4    0    0  0.69189339847E+01 -0.20031058696E+02 -0.18265980603E+02  0.27977866388E+02  0.51100000000E-03 0.  1.
         12    1    4    4    0    0  0.12927713395E+01  0.14536875393E+01  0.63697390761E+01  0.66601832629E+01  0.00000000000E+00 0. -1.
</event>
<event>
 8    1  0.2401680E-006  0.9118800E+02  0.7816164E-02  0.1184000E+00
        -11   -1    0    0    0    0  0.00000000000E+00  0.00000000000E+00  0.45593999997E+02  0.45594000000E+02  0.51100000000E-03 0. -1.
         11   -1    0    0    0    0 -0.00000000000E+00 -0.00000000000E+00 -0.45593999997E+02  0.45594000000E+02  0.51100000000E-03 0.  1.
         23    2    1    2    0    0  0.00000000000E+00 -0.88817841970E-15  0.00000000000E+00  0.91188000000E+02  0.91188000000E+02 0.  0.
    9900012    2    3    3    0    0 -0.18555584237E+02 -0.22711040884E+01  0.31722438422E+02  0.54367072261E+02  0.39999972833E+02 0.  0.
        -12    1    3    3    0    0  0.18555584237E+02  0.22711040884E+01 -0.31722438422E+02  0.36820927739E+02  0.00000000000E+00 0.  1.
         11    1    4    4    0    0  0.10878945155E+02  0.40092830046E+01  0.10643444860E+02  0.15738764775E+02  0.51100000000E-03 0. -1.
        -11    1    4    4    0    0 -0.24950468530E+01  0.29741142471E+01  0.27072176494E+01  0.47328260074E+01  0.51100000000E-03 0.  1.
         12    1    4    4    0    0 -0.26939482538E+02 -0.92545013401E+01  0.18371775913E+02  0.33895481479E+02  0.00000000000E+00 0. -1.
</event>
<event>
 8    1  0.2401680E-006  0.9118800E+02  0.7816164E-02  0.1184000E+00
        -11   -1    0    0    0    0  0.00000000000E+00  0.00000000000E+00  0.45593999997E+02  0.45594000000E+02  0.51100000000E-03 0.  1.
         11   -1    0    0    0    0 -0.00000000000E+00 -0.00000000000E+00 -0.45593999997E+02  0.45594000000E+02  0.51100000000E-03 0. -1.
         23    2    1    2    0    0 -0.22204460493E-15  0.00000000000E+00  0.00000000000E+00  0.91188000000E+02  0.91188000000E+02 0.  0.
    9900012    2    3    3    0    0 -0.16944373368E+01 -0.17816772152E+02  0.32178800824E+02  0.54367031650E+02  0.39999880251E+02 0.  0.
         12    1    3    3    0    0  0.16944373368E+01  0.17816772152E+02 -0.32178800824E+02  0.36820968350E+02  0.00000000000E+00 0. -1.
         11    1    4    4    0    0  0.19170485753E+00  0.40177019692E+01  0.26678585186E+02  0.26980096139E+02  0.51100000000E-03 0. -1.
        -11    1    4    4    0    0 -0.12695882626E+01 -0.18908596601E+02  0.10422124860E+02  0.21627934867E+02  0.51100000000E-03 0.  1.
         12    1    4    4    0    0 -0.61655393174E+00 -0.29258775206E+01 -0.49219092225E+01  0.57590006434E+01  0.00000000000E+00 0. -1.
</event>
<event>
 8    1  0.2401680E-006  0.9118800E+02  0.7816164E-02  0.1184000E+00
        -11   -1    0    0    0    0  0.00000000000E+00  0.00000000000E+00  0.45593999997E+02  0.45594000000E+02  0.51100000000E-03 0.  1.
         11   -1    0    0    0    0 -0.00000000000E+00 -0.00000000000E+00 -0.45593999997E+02  0.45594000000E+02  0.51100000000E-03 0. -1.
         23    2    1    2    0    0  0.00000000000E+00 -0.35527136788E-14  0.88817841970E-15  0.91188000000E+02  0.91188000000E+02 0.  0.
    9900012    2    3    3    0    0 -0.29031326966E+02 -0.21471133808E+02 -0.72077988411E+01  0.54367083437E+02  0.39999998311E+02 0.  0.
        -12    1    3    3    0    0  0.29031326966E+02  0.21471133808E+02  0.72077988411E+01  0.36820916563E+02  0.00000000000E+00 0.  1.
         11    1    4    4    0    0 -0.67334279094E+01  0.72963966444E+01  0.65260512532E+01  0.11881321502E+02  0.51100000000E-03 0. -1.
        -11    1    4    4    0    0  0.11873915187E+01 -0.78597838105E+01 -0.63827986725E+01  0.10194420990E+02  0.51100000000E-03 0.  1.
         12    1    4    4    0    0 -0.23485290575E+02 -0.20907746642E+02 -0.73510514219E+01  0.32291340945E+02  0.00000000000E+00 0. -1.
</event>
<event>
 8    1  0.2401680E-006  0.9118800E+02  0.7816164E-02  0.1184000E+00
        -11   -1    0    0    0    0  0.00000000000E+00  0.00000000000E+00  0.45593999997E+02  0.45594000000E+02  0.51100000000E-03 0.  1.
         11   -1    0    0    0    0 -0.00000000000E+00 -0.00000000000E+00 -0.45593999997E+02  0.45594000000E+02  0.51100000000E-03 0. -1.
         23    2    1    2    0    0  0.35527136788E-14  0.35527136788E-14 -0.35527136788E-14  0.91188000000E+02  0.91188000000E+02 0.  0.
    9900012    2    3    3    0    0  0.18735084814E+02 -0.25540509650E+02  0.18773903081E+02  0.54367075608E+02  0.39999980464E+02 0.  0.
         12    1    3    3    0    0 -0.18735084814E+02  0.25540509650E+02 -0.18773903081E+02  0.36820924392E+02  0.00000000000E+00 0. -1.
         11    1    4    4    0    0  0.85287541285E-01  0.71547303197E+01 -0.26284012694E+01  0.76227248019E+01  0.51100000000E-03 0. -1.
        -11    1    4    4    0    0  0.14330002884E+02 -0.31697895916E+02  0.12799945614E+02  0.37066753245E+02  0.51100000000E-03 0.  1.
         12    1    4    4    0    0  0.43197943890E+01 -0.99734405351E+00  0.86023587370E+01  0.96775975616E+01  0.00000000000E+00 0. -1.
</event>
<event>
 8    1  0.2401680E-006  0.9118800E+02  0.7816164E-02  0.1184000E+00
        -11   -1    0    0    0    0  0.00000000000E+00  0.00000000000E+00  0.45593999997E+02  0.45594000000E+02  0.51100000000E-03 0. -1.
         11   -1    0    0    0    0 -0.00000000000E+00 -0.00000000000E+00 -0.45593999997E+02  0.45594000000E+02  0.51100000000E-03 0.  1.
         23    2    1    2    0    0  0.44408920985E-15  0.00000000000E+00  0.00000000000E+00  0.91188000000E+02  0.91188000000E+02 0.  0.
    9900012    2    3    3    0    0  0.31960833963E+01  0.17442781254E+01 -0.36640478037E+02  0.54367053705E+02  0.39999930532E+02 0.  0.
         12    1    3    3    0    0 -0.31960833963E+01 -0.17442781254E+01  0.36640478037E+02  0.36820946295E+02  0.00000000000E+00 0. -1.
         11    1    4    4    0    0 -0.27166778338E+01  0.34964331366E+01  0.65974525135E+01  0.79455498903E+01  0.51100000000E-03 0. -1.
        -11    1    4    4    0    0 -0.18242105845E+01  0.57960542978E+01 -0.14820515267E+02  0.16017792068E+02  0.51100000000E-03 0.  1.
         12    1    4    4    0    0  0.77369718146E+01 -0.75482093089E+01 -0.28417415283E+02  0.30403711747E+02  0.00000000000E+00 0. -1.
</event>
<event>
 8    1  0.2401680E-006  0.9118800E+02  0.7816164E-02  0.1184000E+00
        -11   -1    0    0    0    0  0.00000000000E+00  0.00000000000E+00  0.45593999997E+02  0.45594000000E+02  0.51100000000E-03 0.  1.
         11   -1    0    0    0    0 -0.00000000000E+00 -0.00000000000E+00 -0.45593999997E+02  0.45594000000E+02  0.51100000000E-03 0. -1.
         23    2    1    2    0    0  0.88817841970E-15  0.77715611724E-15  0.00000000000E+00  0.91188000000E+02  0.91188000000E+02 0.  0.
    9900012    2    3    3    0    0  0.45112889246E+01 -0.76698776909E+00 -0.36535468688E+02  0.54367075647E+02  0.39999980552E+02 0.  0.
        -12    1    3    3    0    0 -0.45112889246E+01  0.76698776909E+00  0.36535468688E+02  0.36820924353E+02  0.00000000000E+00 0.  1.
         11    1    4    4    0    0 -0.11478739591E+02 -0.19738796239E+01 -0.23511359554E+02  0.26238172416E+02  0.51100000000E-03 0. -1.
        -11    1    4    4    0    0  0.39450176398E+01  0.95100766732E+01 -0.50616311285E+01  0.11472786604E+02  0.51100000000E-03 0.  1.
         12    1    4    4    0    0  0.12045010876E+02 -0.83031848184E+01 -0.79624780051E+01  0.16656116628E+02  0.00000000000E+00 0. -1.
</event>
<event>
 8    1  0.2401680E-006  0.9118800E+02  0.7816164E-02  0.1184000E+00
        -11   -1    0    0    0    0  0.00000000000E+00  0.00000000000E+00  0.45593999997E+02  0.45594000000E+02  0.51100000000E-03 0. -1.
         11   -1    0    0    0    0 -0.00000000000E+00 -0.00000000000E+00 -0.45593999997E+02  0.45594000000E+02  0.51100000000E-03 0.  1.
         23    2    1    2    0    0  0.88817841970E-15  0.00000000000E+00 -0.88817841970E-15  0.91188000000E+02  0.91188000000E+02 0.  0.
    9900012    2    3    3    0    0 -0.52547910477E+01 -0.35760478533E+02 -0.70249289028E+01  0.54367159706E+02  0.40000172182E+02 0.  0.
        -12    1    3    3    0    0  0.52547910477E+01  0.35760478533E+02  0.70249289028E+01  0.36820840294E+02  0.00000000000E+00 0.  1.
         11    1    4    4    0    0  0.83055440341E+01 -0.32592797893E+02 -0.10817376133E+02  0.35331121733E+02  0.51100000000E-03 0. -1.
        -11    1    4    4    0    0 -0.83219013070E+01 -0.79868695001E+01  0.24796402678E+01  0.11797997368E+02  0.51100000000E-03 0.  1.
        -12    1    4    4    0    0 -0.52384337748E+01  0.48191888607E+01  0.13128069624E+01  0.72380406057E+01  0.00000000000E+00 0.  1.
</event>
<event>
 8    1  0.2401680E-006  0.9118800E+02  0.7816164E-02  0.1184000E+00
        -11   -1    0    0    0    0  0.00000000000E+00  0.00000000000E+00  0.45593999997E+02  0.45594000000E+02  0.51100000000E-03 0.  1.
         11   -1    0    0    0    0 -0.00000000000E+00 -0.00000000000E+00 -0.45593999997E+02  0.45594000000E+02  0.51100000000E-03 0. -1.
         23    2    1    2    0    0  0.17763568394E-14  0.00000000000E+00 -0.71054273576E-14  0.91188000000E+02  0.91188000000E+02 0.  0.
    9900012    2    3    3    0    0 -0.87369960795E+01 -0.23334307848E+02 -0.27109998690E+02  0.54367122061E+02  0.40000086363E+02 0.  0.
        -12    1    3    3    0    0  0.87369960795E+01  0.23334307848E+02  0.27109998690E+02  0.36820877939E+02  0.00000000000E+00 0.  1.
         11    1    4    4    0    0  0.77976308516E+01 -0.39305992398E+01  0.47286081146E+01  0.99303772458E+01  0.51100000000E-03 0. -1.
        -11    1    4    4    0    0 -0.10217617273E+02 -0.22487725425E+01 -0.41448085876E+01  0.11253271487E+02  0.51100000000E-03 0.  1.
         12    1    4    4    0    0 -0.63170096584E+01 -0.17154936066E+02 -0.27693798217E+02  0.33183473328E+02  0.00000000000E+00 0. -1.
</event>
<event>
 8    1  0.2401680E-006  0.9118800E+02  0.7816164E-02  0.1184000E+00
        -11   -1    0    0    0    0  0.00000000000E+00  0.00000000000E+00  0.45593999997E+02  0.45594000000E+02  0.51100000000E-03 0. -1.
         11   -1    0    0    0    0 -0.00000000000E+00 -0.00000000000E+00 -0.45593999997E+02  0.45594000000E+02  0.51100000000E-03 0.  1.
         23    2    1    2    0    0  0.00000000000E+00  0.35527136788E-14  0.00000000000E+00  0.91188000000E+02  0.91188000000E+02 0.  0.
    9900012    2    3    3    0    0  0.19116788568E+02  0.29394708440E+02 -0.11236761457E+02  0.54367281682E+02  0.40000450249E+02 0.  0.
         12    1    3    3    0    0 -0.19116788568E+02 -0.29394708440E+02  0.11236761457E+02  0.36820718318E+02  0.00000000000E+00 0. -1.
         11    1    4    4    0    0  0.37040570913E+00  0.42318302136E+01  0.62896188180E+01  0.75897886982E+01  0.51100000000E-03 0. -1.
        -11    1    4    4    0    0  0.20427319575E+02  0.31148109356E+01 -0.12331817743E+02  0.24063481903E+02  0.51100000000E-03 0.  1.
        -12    1    4    4    0    0 -0.16809367168E+01  0.22048067290E+02 -0.51945625320E+01  0.22714011081E+02  0.00000000000E+00 0.  1.
</event>
<event>
 8    1  0.2401680E-006  0.9118800E+02  0.7816164E-02  0.1184000E+00
        -11   -1    0    0    0    0  0.00000000000E+00  0.00000000000E+00  0.45593999997E+02  0.45594000000E+02  0.51100000000E-03 0. -1.
         11   -1    0    0    0    0 -0.00000000000E+00 -0.00000000000E+00 -0.45593999997E+02  0.45594000000E+02  0.51100000000E-03 0.  1.
         23    2    1    2    0    0 -0.17763568394E-14 -0.35527136788E-14  0.00000000000E+00  0.91188000000E+02  0.91188000000E+02 0.  0.
    9900012    2    3    3    0    0  0.14418424082E+02 -0.27703344764E+02  0.19504209771E+02  0.54367075746E+02  0.39999980778E+02 0.  0.
        -12    1    3    3    0    0 -0.14418424082E+02  0.27703344764E+02 -0.19504209771E+02  0.36820924254E+02  0.00000000000E+00 0.  1.
         11    1    4    4    0    0  0.12621933703E+02 -0.17166016179E+02  0.15822450344E+02  0.26539315308E+02  0.51100000000E-03 0. -1.
        -11    1    4    4    0    0  0.91415056827E+01 -0.10481152164E+02 -0.64362351063E+01  0.15324712051E+02  0.51100000000E-03 0.  1.
        -12    1    4    4    0    0 -0.73450153034E+01 -0.56176420789E-01  0.10117994533E+02  0.12503048387E+02  0.00000000000E+00 0.  1.
</event>
<event>
 8    1  0.2401680E-006  0.9118800E+02  0.7816164E-02  0.1184000E+00
        -11   -1    0    0    0    0  0.00000000000E+00  0.00000000000E+00  0.45593999997E+02  0.45594000000E+02  0.51100000000E-03 0. -1.
         11   -1    0    0    0    0 -0.00000000000E+00 -0.00000000000E+00 -0.45593999997E+02  0.45594000000E+02  0.51100000000E-03 0.  1.
         23    2    1    2    0    0  0.00000000000E+00 -0.35527136788E-14 -0.88817841970E-15  0.91188000000E+02  0.91188000000E+02 0.  0.
    9900012    2    3    3    0    0  0.30616876815E+02  0.19853417073E+02 -0.49222057984E+01  0.54367089836E+02  0.40000012900E+02 0.  0.
         12    1    3    3    0    0 -0.30616876815E+02 -0.19853417073E+02  0.49222057984E+01  0.36820910164E+02  0.00000000000E+00 0. -1.
         11    1    4    4    0    0  0.81631589684E+01  0.11700507346E+02  0.59558153453E+01  0.15459973259E+02  0.51100000000E-03 0. -1.
        -11    1    4    4    0    0  0.19602338528E+02  0.20340825364E+01  0.61050782304E+01  0.20631557090E+02  0.51100000000E-03 0.  1.
        -12    1    4    4    0    0  0.28513793188E+01  0.61188271906E+01 -0.16983099374E+02  0.18275559487E+02  0.00000000000E+00 0.  1.
</event>
<event>
 8    1  0.2401680E-006  0.9118800E+02  0.7816164E-02  0.1184000E+00
        -11   -1    0    0    0    0  0.00000000000E+00  0.00000000000E+00  0.45593999997E+02  0.45594000000E+02  0.51100000000E-03 0. -1.
         11   -1    0    0    0    0 -0.00000000000E+00 -0.00000000000E+00 -0.45593999997E+02  0.45594000000E+02  0.51100000000E-03 0.  1.
         23    2    1    2    0    0  0.00000000000E+00  0.17763568394E-14  0.00000000000E+00  0.91188000000E+02  0.91188000000E+02 0.  0.
    9900012    2    3    3    0    0  0.10896427392E+02 -0.13268759837E+02 -0.32572805033E+02  0.54367085492E+02  0.40000002995E+02 0.  0.
         12    1    3    3    0    0 -0.10896427392E+02  0.13268759837E+02  0.32572805033E+02  0.36820914508E+02  0.00000000000E+00 0. -1.
         11    1    4    4    0    0  0.19676845033E+02 -0.17949490329E+02 -0.21612215633E+02  0.34299421254E+02  0.51100000000E-03 0. -1.
        -11    1    4    4    0    0  0.28759120050E+01 -0.94969282581E+00 -0.49321588466E+01  0.57878301179E+01  0.51100000000E-03 0.  1.
         12    1    4    4    0    0 -0.11656329646E+02  0.56304233177E+01 -0.60284305529E+01  0.14279834120E+02  0.00000000000E+00 0. -1.
</event>
<event>
 8    1  0.2401680E-006  0.9118800E+02  0.7816164E-02  0.1184000E+00
        -11   -1    0    0    0    0  0.00000000000E+00  0.00000000000E+00  0.45593999997E+02  0.45594000000E+02  0.51100000000E-03 0. -1.
         11   -1    0    0    0    0 -0.00000000000E+00 -0.00000000000E+00 -0.45593999997E+02  0.45594000000E+02  0.51100000000E-03 0.  1.
         23    2    1    2    0    0  0.44408920985E-15 -0.88817841970E-15  0.00000000000E+00  0.91188000000E+02  0.91188000000E+02 0.  0.
    9900012    2    3    3    0    0 -0.24971377230E+01  0.52018210771E+01  0.36365951243E+02  0.54367122103E+02  0.40000086457E+02 0.  0.
        -12    1    3    3    0    0  0.24971377230E+01 -0.52018210771E+01 -0.36365951243E+02  0.36820877897E+02  0.00000000000E+00 0.  1.
         11    1    4    4    0    0 -0.87881762584E+01  0.41619914264E+01  0.24478054434E+02  0.26338742638E+02  0.51100000000E-03 0. -1.
        -11    1    4    4    0    0 -0.60221213141E+01  0.12130464243E+01 -0.44383499713E+01  0.75786791381E+01  0.51100000000E-03 0.  1.
         12    1    4    4    0    0  0.12313159850E+02 -0.17321677368E+00  0.16326246780E+02  0.20449700327E+02  0.00000000000E+00 0. -1.
</event>
<event>
 8    1  0.2401680E-006  0.9118800E+02  0.7816164E-02  0.1184000E+00
        -11   -1    0    0    0    0  0.00000000000E+00  0.00000000000E+00  0.45593999997E+02  0.45594000000E+02  0.51100000000E-03 0.  1.
         11   -1    0    0    0    0 -0.00000000000E+00 -0.00000000000E+00 -0.45593999997E+02  0.45594000000E+02  0.51100000000E-03 0. -1.
         23    2    1    2    0    0  0.88817841970E-15 -0.88817841970E-15  0.71054273576E-14  0.91188000000E+02  0.91188000000E+02 0.  0.
    9900012    2    3    3    0    0 -0.63415512641E+01  0.62016448690E+01 -0.35736592323E+02  0.54367086074E+02  0.40000004322E+02 0.  0.
        -12    1    3    3    0    0  0.63415512641E+01 -0.62016448690E+01  0.35736592323E+02  0.36820913926E+02  0.00000000000E+00 0.  1.
         11    1    4    4    0    0 -0.12441412742E+02  0.17180823601E+02 -0.34878294726E+02  0.40822357770E+02  0.51100000000E-03 0. -1.
        -11    1    4    4    0    0  0.16368219918E+01 -0.20402462486E+01  0.18371167332E+01  0.31963712457E+01  0.51100000000E-03 0.  1.
         12    1    4    4    0    0  0.44630394856E+01 -0.89389324833E+01 -0.26954143299E+01  0.10348357058E+02  0.00000000000E+00 0. -1.
</event>
<event>
 8    1  0.2401680E-006  0.9118800E+02  0.7816164E-02  0.1184000E+00
        -11   -1    0    0    0    0  0.00000000000E+00  0.00000000000E+00  0.45593999997E+02  0.45594000000E+02  0.51100000000E-03 0.  1.
         11   -1    0    0    0    0 -0.00000000000E+00 -0.00000000000E+00 -0.45593999997E+02  0.45594000000E+02  0.51100000000E-03 0. -1.
         23    2    1    2    0    0  0.00000000000E+00  0.00000000000E+00 -0.35527136788E-14  0.91188000000E+02  0.91188000000E+02 0.  0.
    9900012    2    3    3    0    0  0.22047037237E+02 -0.11889244203E+02  0.26988040417E+02  0.54367077901E+02  0.39999985691E+02 0.  0.
         12    1    3    3    0    0 -0.22047037237E+02  0.11889244203E+02 -0.26988040417E+02  0.36820922099E+02  0.00000000000E+00 0. -1.
         11    1    4    4    0    0  0.87838203207E+01 -0.87142768264E+01 -0.60400206542E+01  0.13768658969E+02  0.51100000000E-03 0. -1.
        -11    1    4    4    0    0  0.90684065696E+01 -0.98635074183E+01  0.11461311934E+02  0.17631972318E+02  0.51100000000E-03 0.  1.
        -12    1    4    4    0    0  0.41948103467E+01  0.66885400419E+01  0.21566749138E+02  0.22966446615E+02  0.00000000000E+00 0.  1.
</event>
<event>
 8    1  0.2401680E-006  0.9118800E+02  0.7816164E-02  0.1184000E+00
        -11   -1    0    0    0    0  0.00000000000E+00  0.00000000000E+00  0.45593999997E+02  0.45594000000E+02  0.51100000000E-03 0. -1.
         11   -1    0    0    0    0 -0.00000000000E+00 -0.00000000000E+00 -0.45593999997E+02  0.45594000000E+02  0.51100000000E-03 0.  1.
         23    2    1    2    0    0  0.00000000000E+00  0.71054273576E-14  0.35527136788E-14  0.91188000000E+02  0.91188000000E+02 0.  0.
    9900012    2    3    3    0    0 -0.60850463295E+01 -0.32229715272E+02 -0.16733121289E+02  0.54367086331E+02  0.40000004908E+02 0.  0.
         12    1    3    3    0    0  0.60850463295E+01  0.32229715272E+02  0.16733121289E+02  0.36820913669E+02  0.00000000000E+00 0. -1.
         11    1    4    4    0    0 -0.76171136545E+01 -0.69251495467E+01 -0.13621375631E+02  0.17073956513E+02  0.51100000000E-03 0. -1.
        -11    1    4    4    0    0 -0.15222016364E+01  0.61861958272E+00 -0.10130961429E+02  0.10263340964E+02  0.51100000000E-03 0.  1.
         12    1    4    4    0    0  0.30542689615E+01 -0.25923185308E+02  0.70192157714E+01  0.27029788854E+02  0.00000000000E+00 0. -1.
</event>
<event>
 8    1  0.2401680E-006  0.9118800E+02  0.7816164E-02  0.1184000E+00
        -11   -1    0    0    0    0  0.00000000000E+00  0.00000000000E+00  0.45593999997E+02  0.45594000000E+02  0.51100000000E-03 0. -1.
         11   -1    0    0    0    0 -0.00000000000E+00 -0.00000000000E+00 -0.45593999997E+02  0.45594000000E+02  0.51100000000E-03 0.  1.
         23    2    1    2    0    0  0.00000000000E+00  0.17763568394E-14 -0.35527136788E-14  0.91188000000E+02  0.91188000000E+02 0.  0.
    9900012    2    3    3    0    0  0.11508005619E+02 -0.15139540598E+02  0.31529992956E+02  0.54367077434E+02  0.39999984625E+02 0.  0.
        -12    1    3    3    0    0 -0.11508005619E+02  0.15139540598E+02 -0.31529992956E+02  0.36820922566E+02  0.00000000000E+00 0.  1.
         11    1    4    4    0    0  0.60957920370E+01 -0.51509100534E+01 -0.31832183574E+01  0.85920564656E+01  0.51100000000E-03 0. -1.
        -11    1    4    4    0    0 -0.13888361365E+01 -0.57658527760E+01 -0.33958856011E+01  0.68341761263E+01  0.51100000000E-03 0.  1.
        -12    1    4    4    0    0  0.68010497189E+01 -0.42227777681E+01  0.38109096914E+02  0.38940844842E+02  0.00000000000E+00 0.  1.
</event>
<event>
 8    1  0.2401680E-006  0.9118800E+02  0.7816164E-02  0.1184000E+00
        -11   -1    0    0    0    0  0.00000000000E+00  0.00000000000E+00  0.45593999997E+02  0.45594000000E+02  0.51100000000E-03 0. -1.
         11   -1    0    0    0    0 -0.00000000000E+00 -0.00000000000E+00 -0.45593999997E+02  0.45594000000E+02  0.51100000000E-03 0.  1.
         23    2    1    2    0    0  0.00000000000E+00 -0.35527136788E-14 -0.35527136788E-14  0.91188000000E+02  0.91188000000E+02 0.  0.
    9900012    2    3    3    0    0 -0.10763610533E+02  0.27445928022E+02  0.22060049270E+02  0.54367081347E+02  0.39999993546E+02 0.  0.
        -12    1    3    3    0    0  0.10763610533E+02 -0.27445928022E+02 -0.22060049270E+02  0.36820918653E+02  0.00000000000E+00 0.  1.
         11    1    4    4    0    0 -0.83761288744E+01  0.11188479033E+02  0.63781767236E+00  0.13991011744E+02  0.51100000000E-03 0. -1.
        -11    1    4    4    0    0  0.28753375529E+01  0.12591570184E+02 -0.44961496305E+01  0.13675911944E+02  0.51100000000E-03 0.  1.
         12    1    4    4    0    0 -0.52628192117E+01  0.36658788049E+01  0.25918381228E+02  0.26700157658E+02  0.00000000000E+00 0. -1.
</event>
<event>
 8    1  0.2401680E-006  0.9118800E+02  0.7816164E-02  0.1184000E+00
        -11   -1    0    0    0    0  0.00000000000E+00  0.00000000000E+00  0.45593999997E+02  0.45594000000E+02  0.51100000000E-03 0.  1.
         11   -1    0    0    0    0 -0.00000000000E+00 -0.00000000000E+00 -0.45593999997E+02  0.45594000000E+02  0.51100000000E-03 0. -1.
         23    2    1    2    0    0  0.00000000000E+00 -0.35527136788E-14  0.00000000000E+00  0.91188000000E+02  0.91188000000E+02 0.  0.
    9900012    2    3    3    0    0 -0.12394582695E+02 -0.28318102540E+02 -0.20005966465E+02  0.54367091458E+02  0.40000016596E+02 0.  0.
        -12    1    3    3    0    0  0.12394582695E+02  0.28318102540E+02  0.20005966465E+02  0.36820908542E+02  0.00000000000E+00 0.  1.
         11    1    4    4    0    0 -0.63950821740E+01 -0.29177102656E+01 -0.54103653465E+01  0.88702966495E+01  0.51100000000E-03 0. -1.
        -11    1    4    4    0    0 -0.19620378215E+02 -0.20390293919E+02 -0.71554159618E+01  0.29187725250E+02  0.51100000000E-03 0.  1.
        -12    1    4    4    0    0  0.13620877694E+02 -0.50100983556E+01 -0.74401851570E+01  0.16309069558E+02  0.00000000000E+00 0.  1.
</event>
<event>
 8    1  0.2401680E-006  0.9118800E+02  0.7816164E-02  0.1184000E+00
        -11   -1    0    0    0    0  0.00000000000E+00  0.00000000000E+00  0.45593999997E+02  0.45594000000E+02  0.51100000000E-03 0.  1.
         11   -1    0    0    0    0 -0.00000000000E+00 -0.00000000000E+00 -0.45593999997E+02  0.45594000000E+02  0.51100000000E-03 0. -1.
         23    2    1    2    0    0 -0.35527136788E-14  0.35527136788E-14  0.88817841970E-15  0.91188000000E+02  0.91188000000E+02 0.  0.
    9900012    2    3    3    0    0 -0.18537312251E+02  0.31588874087E+02 -0.37802408932E+01  0.54367093808E+02  0.40000021955E+02 0.  0.
        -12    1    3    3    0    0  0.18537312251E+02 -0.31588874087E+02  0.37802408932E+01  0.36820906192E+02  0.00000000000E+00 0.  1.
         11    1    4    4    0    0 -0.31671825754E+01  0.13427703924E+01  0.91981525696E+01  0.98203914762E+01  0.51100000000E-03 0. -1.
        -11    1    4    4    0    0  0.55868937273E+01  0.21054446468E+01 -0.65731575151E+01  0.88799030772E+01  0.51100000000E-03 0.  1.
         12    1    4    4    0    0 -0.20957023403E+02  0.28140659048E+02 -0.64052359478E+01  0.35666799255E+02  0.00000000000E+00 0. -1.
</event>
<event>
 8    1  0.2401680E-006  0.9118800E+02  0.7816164E-02  0.1184000E+00
        -11   -1    0    0    0    0  0.00000000000E+00  0.00000000000E+00  0.45593999997E+02  0.45594000000E+02  0.51100000000E-03 0.  1.
         11   -1    0    0    0    0 -0.00000000000E+00 -0.00000000000E+00 -0.45593999997E+02  0.45594000000E+02  0.51100000000E-03 0. -1.
         23    2    1    2    0    0  0.88817841970E-15  0.17763568394E-14  0.71054273576E-14  0.91188000000E+02  0.91188000000E+02 0.  0.
    9900012    2    3    3    0    0 -0.20248017772E+01  0.10455760758E+02  0.35247092068E+02  0.54367078576E+02  0.39999987229E+02 0.  0.
         12    1    3    3    0    0  0.20248017772E+01 -0.10455760758E+02 -0.35247092068E+02  0.36820921424E+02  0.00000000000E+00 0. -1.
         11    1    4    4    0    0 -0.20677823631E+01 -0.19454564099E+01  0.21103507973E+01  0.35375281332E+01  0.51100000000E-03 0. -1.
        -11    1    4    4    0    0 -0.17269615500E+02  0.11938984560E+02  0.20898614314E+02  0.29623150615E+02  0.51100000000E-03 0.  1.
         12    1    4    4    0    0  0.17312596086E+02  0.46223260790E+00  0.12238126957E+02  0.21206399827E+02  0.00000000000E+00 0. -1.
</event>
<event>
 8    1  0.2401680E-006  0.9118800E+02  0.7816164E-02  0.1184000E+00
        -11   -1    0    0    0    0  0.00000000000E+00  0.00000000000E+00  0.45593999997E+02  0.45594000000E+02  0.51100000000E-03 0.  1.
         11   -1    0    0    0    0 -0.00000000000E+00 -0.00000000000E+00 -0.45593999997E+02  0.45594000000E+02  0.51100000000E-03 0. -1.
         23    2    1    2    0    0  0.00000000000E+00  0.00000000000E+00 -0.35527136788E-14  0.91188000000E+02  0.91188000000E+02 0.  0.
    9900012    2    3    3    0    0  0.27458578001E+02  0.15952277291E+02 -0.18636836047E+02  0.54367077763E+02  0.39999985376E+02 0.  0.
        -12    1    3    3    0    0 -0.27458578001E+02 -0.15952277291E+02  0.18636836047E+02  0.36820922237E+02  0.00000000000E+00 0.  1.
         11    1    4    4    0    0 -0.95171022314E-02  0.74963448757E+01 -0.14260993938E+02  0.16111214276E+02  0.51100000000E-03 0. -1.
        -11    1    4    4    0    0  0.26554760334E+02  0.97506490652E+01  0.50174590743E+01  0.28729868594E+02  0.51100000000E-03 0.  1.
        -12    1    4    4    0    0  0.91333476896E+00 -0.12947166504E+01 -0.93933011826E+01  0.95259948935E+01  0.00000000000E+00 0.  1.
</event>
<event>
 8    1  0.2401680E-006  0.9118800E+02  0.7816164E-02  0.1184000E+00
        -11   -1    0    0    0    0  0.00000000000E+00  0.00000000000E+00  0.45593999997E+02  0.45594000000E+02  0.51100000000E-03 0. -1.
         11   -1    0    0    0    0 -0.00000000000E+00 -0.00000000000E+00 -0.45593999997E+02  0.45594000000E+02  0.51100000000E-03 0.  1.
         23    2    1    2    0    0  0.00000000000E+00  0.00000000000E+00  0.00000000000E+00  0.91188000000E+02  0.91188000000E+02 0.  0.
    9900012    2    3    3    0    0  0.12855546809E+02  0.24107862507E+02  0.24684528830E+02  0.54367080919E+02  0.39999992570E+02 0.  0.
         12    1    3    3    0    0 -0.12855546809E+02 -0.24107862507E+02 -0.24684528830E+02  0.36820919081E+02  0.00000000000E+00 0. -1.
         11    1    4    4    0    0 -0.10939600521E+01 -0.21065006615E+01  0.85346152041E+00  0.25223977602E+01  0.51100000000E-03 0. -1.
        -11    1    4    4    0    0  0.39175577221E+01  0.30459330682E+02  0.65250473453E+01  0.31395769257E+02  0.51100000000E-03 0.  1.
        -12    1    4    4    0    0  0.10031949139E+02 -0.42449675141E+01  0.17306019965E+02  0.20448913901E+02  0.00000000000E+00 0.  1.
</event>
<event>
 8    1  0.2401680E-006  0.9118800E+02  0.7816164E-02  0.1184000E+00
        -11   -1    0    0    0    0  0.00000000000E+00  0.00000000000E+00  0.45593999997E+02  0.45594000000E+02  0.51100000000E-03 0.  1.
         11   -1    0    0    0    0 -0.00000000000E+00 -0.00000000000E+00 -0.45593999997E+02  0.45594000000E+02  0.51100000000E-03 0. -1.
         23    2    1    2    0    0  0.35527136788E-14  0.00000000000E+00  0.17763568394E-14  0.91188000000E+02  0.91188000000E+02 0.  0.
    9900012    2    3    3    0    0  0.24936332324E+02 -0.23819428237E+02  0.12907132060E+02  0.54367083535E+02  0.39999998535E+02 0.  0.
         12    1    3    3    0    0 -0.24936332324E+02  0.23819428237E+02 -0.12907132060E+02  0.36820916465E+02  0.00000000000E+00 0. -1.
         11    1    4    4    0    0  0.30142880011E+02 -0.93601613565E+01  0.42351118739E+00  0.31565569818E+02  0.51100000000E-03 0. -1.
        -11    1    4    4    0    0 -0.38755521649E+01 -0.24825276183E+01  0.92389330537E+01  0.10321857013E+02  0.51100000000E-03 0.  1.
         12    1    4    4    0    0 -0.13309955217E+01 -0.11976739262E+02  0.32446878185E+01  0.12479656705E+02  0.00000000000E+00 0. -1.
</event>
<event>
 8    1  0.2401680E-006  0.9118800E+02  0.7816164E-02  0.1184000E+00
        -11   -1    0    0    0    0  0.00000000000E+00  0.00000000000E+00  0.45593999997E+02  0.45594000000E+02  0.51100000000E-03 0.  1.
         11   -1    0    0    0    0 -0.00000000000E+00 -0.00000000000E+00 -0.45593999997E+02  0.45594000000E+02  0.51100000000E-03 0. -1.
         23    2    1    2    0    0 -0.17763568394E-14 -0.17763568394E-14 -0.71054273576E-14  0.91188000000E+02  0.91188000000E+02 0.  0.
    9900012    2    3    3    0    0  0.82226576859E+01  0.15322022477E+02  0.32456198296E+02  0.54367064650E+02  0.39999955483E+02 0.  0.
         12    1    3    3    0    0 -0.82226576859E+01 -0.15322022477E+02 -0.32456198296E+02  0.36820935350E+02  0.00000000000E+00 0. -1.
         11    1    4    4    0    0  0.35461036410E+01  0.11608985384E+02  0.26485068683E+02  0.29134211094E+02  0.51100000000E-03 0. -1.
        -11    1    4    4    0    0 -0.71119069258E+00 -0.14960864734E+01  0.14088196087E+02  0.14185250657E+02  0.51100000000E-03 0.  1.
         12    1    4    4    0    0  0.53877447375E+01  0.52091235667E+01 -0.81170664741E+01  0.11047602900E+02  0.00000000000E+00 0. -1.
</event>
<event>
 8    1  0.2401680E-006  0.9118800E+02  0.7816164E-02  0.1184000E+00
        -11   -1    0    0    0    0  0.00000000000E+00  0.00000000000E+00  0.45593999997E+02  0.45594000000E+02  0.51100000000E-03 0. -1.
         11   -1    0    0    0    0 -0.00000000000E+00 -0.00000000000E+00 -0.45593999997E+02  0.45594000000E+02  0.51100000000E-03 0.  1.
         23    2    1    2    0    0 -0.35527136788E-14 -0.88817841970E-15  0.35527136788E-14  0.91188000000E+02  0.91188000000E+02 0.  0.
    9900012    2    3    3    0    0 -0.30979311977E+02 -0.77055662959E+01  0.18348934750E+02  0.54367123734E+02  0.40000090177E+02 0.  0.
        -12    1    3    3    0    0  0.30979311977E+02  0.77055662959E+01 -0.18348934750E+02  0.36820876266E+02  0.00000000000E+00 0.  1.
         11    1    4    4    0    0 -0.47950227056E+01 -0.26604091250E+01  0.16411477897E+02  0.17303370379E+02  0.51100000000E-03 0. -1.
        -11    1    4    4    0    0 -0.14207676819E+02 -0.92669052601E+01  0.12069251540E+02  0.20818271943E+02  0.51100000000E-03 0.  1.
        -12    1    4    4    0    0 -0.11976612452E+02  0.42217480892E+01 -0.10131794686E+02  0.16245481412E+02  0.00000000000E+00 0.  1.
</event>
<event>
 8    1  0.2401680E-006  0.9118800E+02  0.7816164E-02  0.1184000E+00
        -11   -1    0    0    0    0  0.00000000000E+00  0.00000000000E+00  0.45593999997E+02  0.45594000000E+02  0.51100000000E-03 0. -1.
         11   -1    0    0    0    0 -0.00000000000E+00 -0.00000000000E+00 -0.45593999997E+02  0.45594000000E+02  0.51100000000E-03 0.  1.
         23    2    1    2    0    0 -0.35527136788E-14 -0.35527136788E-14 -0.17763568394E-14  0.91188000000E+02  0.91188000000E+02 0.  0.
    9900012    2    3    3    0    0  0.30136697230E+02  0.19424238861E+02  0.83820124015E+01  0.54367086008E+02  0.40000004173E+02 0.  0.
        -12    1    3    3    0    0 -0.30136697230E+02 -0.19424238861E+02 -0.83820124015E+01  0.36820913992E+02  0.00000000000E+00 0.  1.
         11    1    4    4    0    0  0.22747456192E+02  0.26694954643E+02 -0.33523020113E+01  0.35232162801E+02  0.51100000000E-03 0. -1.
        -11    1    4    4    0    0  0.33574518175E+00  0.27287621525E+01  0.12469427832E+01  0.30188962018E+01  0.51100000000E-03 0.  1.
        -12    1    4    4    0    0  0.70534958563E+01 -0.99994779343E+01  0.10487371630E+02  0.16116027006E+02  0.00000000000E+00 0.  1.
</event>
<event>
 8    1  0.2401680E-006  0.9118800E+02  0.7816164E-02  0.1184000E+00
        -11   -1    0    0    0    0  0.00000000000E+00  0.00000000000E+00  0.45593999997E+02  0.45594000000E+02  0.51100000000E-03 0. -1.
         11   -1    0    0    0    0 -0.00000000000E+00 -0.00000000000E+00 -0.45593999997E+02  0.45594000000E+02  0.51100000000E-03 0.  1.
         23    2    1    2    0    0  0.17763568394E-14  0.00000000000E+00 -0.71054273576E-14  0.91188000000E+02  0.91188000000E+02 0.  0.
    9900012    2    3    3    0    0 -0.14423173232E+02 -0.60013313298E+01 -0.33342696804E+02  0.54367091076E+02  0.40000015726E+02 0.  0.
         12    1    3    3    0    0  0.14423173232E+02  0.60013313298E+01  0.33342696804E+02  0.36820908924E+02  0.00000000000E+00 0. -1.
         11    1    4    4    0    0  0.51467953375E+01  0.48299036441E+00  0.22372352335E+01  0.56327616397E+01  0.51100000000E-03 0. -1.
        -11    1    4    4    0    0 -0.78503755146E-01 -0.12476818693E+02 -0.98071789097E+01  0.15870032324E+02  0.51100000000E-03 0.  1.
        -12    1    4    4    0    0 -0.19491464814E+02  0.59924969992E+01 -0.25772753128E+02  0.32864297112E+02  0.00000000000E+00 0.  1.
</event>
<event>
 8    1  0.2401680E-006  0.9118800E+02  0.7816164E-02  0.1184000E+00
        -11   -1    0    0    0    0  0.00000000000E+00  0.00000000000E+00  0.45593999997E+02  0.45594000000E+02  0.51100000000E-03 0. -1.
         11   -1    0    0    0    0 -0.00000000000E+00 -0.00000000000E+00 -0.45593999997E+02  0.45594000000E+02  0.51100000000E-03 0.  1.
         23    2    1    2    0    0  0.00000000000E+00  0.36082248300E-15 -0.35527136788E-14  0.91188000000E+02  0.91188000000E+02 0.  0.
    9900012    2    3    3    0    0 -0.21386542884E+02  0.15743201247E+00 -0.29972662808E+02  0.54367224381E+02  0.40000319621E+02 0.  0.
         12    1    3    3    0    0  0.21386542884E+02 -0.15743201247E+00  0.29972662808E+02  0.36820775619E+02  0.00000000000E+00 0. -1.
         11    1    4    4    0    0 -0.23044187182E+01 -0.48872436040E+01 -0.13383097337E+02  0.14432698648E+02  0.51100000000E-03 0. -1.
        -11    1    4    4    0    0 -0.10539865864E+02 -0.77721408071E+01  0.44752472430E+01  0.13839175673E+02  0.51100000000E-03 0.  1.
         12    1    4    4    0    0 -0.85422583021E+01  0.12816816424E+02 -0.21064812713E+02  0.26095350061E+02  0.00000000000E+00 0. -1.
</event>
<event>
 8    1  0.2401680E-006  0.9118800E+02  0.7816164E-02  0.1184000E+00
        -11   -1    0    0    0    0  0.00000000000E+00  0.00000000000E+00  0.45593999997E+02  0.45594000000E+02  0.51100000000E-03 0.  1.
         11   -1    0    0    0    0 -0.00000000000E+00 -0.00000000000E+00 -0.45593999997E+02  0.45594000000E+02  0.51100000000E-03 0. -1.
         23    2    1    2    0    0  0.88817841970E-15  0.00000000000E+00 -0.71054273576E-14  0.91188000000E+02  0.91188000000E+02 0.  0.
    9900012    2    3    3    0    0  0.78868372062E+01 -0.46368526352E+01  0.35666177937E+02  0.54367097620E+02  0.40000030644E+02 0.  0.
         12    1    3    3    0    0 -0.78868372062E+01  0.46368526352E+01 -0.35666177937E+02  0.36820902380E+02  0.00000000000E+00 0. -1.
         11    1    4    4    0    0  0.88959007889E+01  0.15095421937E+01  0.14202395586E+02  0.16826283284E+02  0.51100000000E-03 0. -1.
        -11    1    4    4    0    0 -0.81680286047E+01 -0.48294377474E+01 -0.45531408487E+01  0.10524792259E+02  0.51100000000E-03 0.  1.
        -12    1    4    4    0    0  0.71589650220E+01 -0.13169570815E+01  0.26016923199E+02  0.27016022077E+02  0.00000000000E+00 0.  1.
</event>
<event>
 8    1  0.2401680E-006  0.9118800E+02  0.7816164E-02  0.1184000E+00
        -11   -1    0    0    0    0  0.00000000000E+00  0.00000000000E+00  0.45593999997E+02  0.45594000000E+02  0.51100000000E-03 0.  1.
         11   -1    0    0    0    0 -0.00000000000E+00 -0.00000000000E+00 -0.45593999997E+02  0.45594000000E+02  0.51100000000E-03 0. -1.
         23    2    1    2    0    0  0.00000000000E+00 -0.88817841970E-15  0.00000000000E+00  0.91188000000E+02  0.91188000000E+02 0.  0.
    9900012    2    3    3    0    0 -0.33847534339E+02  0.63101920565E+01 -0.13050079162E+02  0.54367100082E+02  0.40000036258E+02 0.  0.
        -12    1    3    3    0    0  0.33847534339E+02 -0.63101920565E+01  0.13050079162E+02  0.36820899918E+02  0.00000000000E+00 0.  1.
         11    1    4    4    0    0 -0.34257945048E+02 -0.70965234223E+01 -0.99529401417E+01  0.36373458199E+02  0.51100000000E-03 0. -1.
        -11    1    4    4    0    0 -0.36641649216E+01  0.42561447372E+01  0.28981269068E+01  0.63198111068E+01  0.51100000000E-03 0.  1.
        -12    1    4    4    0    0  0.40745756310E+01  0.91505707416E+01 -0.59952659274E+01  0.11673830777E+02  0.00000000000E+00 0.  1.
</event>
<event>
 8    1  0.2401680E-006  0.9118800E+02  0.7816164E-02  0.1184000E+00
        -11   -1    0    0    0    0  0.00000000000E+00  0.00000000000E+00  0.45593999997E+02  0.45594000000E+02  0.51100000000E-03 0. -1.
         11   -1    0    0    0    0 -0.00000000000E+00 -0.00000000000E+00 -0.45593999997E+02  0.45594000000E+02  0.51100000000E-03 0.  1.
         23    2    1    2    0    0  0.00000000000E+00  0.35527136788E-14 -0.44408920985E-15  0.91188000000E+02  0.91188000000E+02 0.  0.
    9900012    2    3    3    0    0  0.32728824623E+02  0.16435351619E+02  0.38056868787E+01  0.54367082078E+02  0.39999995213E+02 0.  0.
         12    1    3    3    0    0 -0.32728824623E+02 -0.16435351619E+02 -0.38056868787E+01  0.36820917922E+02  0.00000000000E+00 0. -1.
         11    1    4    4    0    0  0.26452377839E+02  0.11047309814E+02  0.13225513620E+02  0.31570327179E+02  0.51100000000E-03 0. -1.
        -11    1    4    4    0    0 -0.40446938933E+01 -0.31938658271E+01 -0.76979393976E+01  0.92638328375E+01  0.51100000000E-03 0.  1.
        -12    1    4    4    0    0  0.10321140677E+02  0.85819076321E+01 -0.17218873434E+01  0.13532922061E+02  0.00000000000E+00 0.  1.
</event>
<event>
 8    1  0.2401680E-006  0.9118800E+02  0.7816164E-02  0.1184000E+00
        -11   -1    0    0    0    0  0.00000000000E+00  0.00000000000E+00  0.45593999997E+02  0.45594000000E+02  0.51100000000E-03 0. -1.
         11   -1    0    0    0    0 -0.00000000000E+00 -0.00000000000E+00 -0.45593999997E+02  0.45594000000E+02  0.51100000000E-03 0.  1.
         23    2    1    2    0    0 -0.35527136788E-14  0.00000000000E+00  0.17763568394E-14  0.91188000000E+02  0.91188000000E+02 0.  0.
    9900012    2    3    3    0    0  0.19761904696E+02  0.28054126773E+02 -0.13350084393E+02  0.54366923705E+02  0.39999634169E+02 0.  0.
         12    1    3    3    0    0 -0.19761904696E+02 -0.28054126773E+02  0.13350084393E+02  0.36821076295E+02  0.00000000000E+00 0. -1.
         11    1    4    4    0    0  0.27928645677E+01 -0.83973443045E+01  0.65298403298E+00  0.88736617171E+01  0.51100000000E-03 0. -1.
        -11    1    4    4    0    0  0.12562431578E+02  0.34087055297E+02 -0.16504547944E+02  0.39901655719E+02  0.51100000000E-03 0.  1.
        -12    1    4    4    0    0  0.44066085496E+01  0.23644157805E+01  0.25014795178E+01  0.55916062693E+01  0.00000000000E+00 0.  1.
</event>
<event>
 8    1  0.2401680E-006  0.9118800E+02  0.7816164E-02  0.1184000E+00
        -11   -1    0    0    0    0  0.00000000000E+00  0.00000000000E+00  0.45593999997E+02  0.45594000000E+02  0.51100000000E-03 0.  1.
         11   -1    0    0    0    0 -0.00000000000E+00 -0.00000000000E+00 -0.45593999997E+02  0.45594000000E+02  0.51100000000E-03 0. -1.
         23    2    1    2    0    0  0.35527136788E-14  0.17763568394E-14  0.00000000000E+00  0.91188000000E+02  0.91188000000E+02 0.  0.
    9900012    2    3    3    0    0 -0.19846840631E+02 -0.14380945251E+02 -0.27478439833E+02  0.54367172673E+02  0.40000201743E+02 0.  0.
        -12    1    3    3    0    0  0.19846840631E+02  0.14380945251E+02  0.27478439833E+02  0.36820827327E+02  0.00000000000E+00 0.  1.
         11    1    4    4    0    0 -0.83790119158E+01 -0.11601818987E+02 -0.88716739583E+01  0.16837952476E+02  0.51100000000E-03 0. -1.
        -11    1    4    4    0    0  0.81258796751E+01 -0.89108657282E+01 -0.67085584792E+01  0.13799934987E+02  0.51100000000E-03 0.  1.
        -12    1    4    4    0    0 -0.19593708391E+02  0.61317394643E+01 -0.11898207396E+02  0.23729285210E+02  0.00000000000E+00 0.  1.
</event>
<event>
 8    1  0.2401680E-006  0.9118800E+02  0.7816164E-02  0.1184000E+00
        -11   -1    0    0    0    0  0.00000000000E+00  0.00000000000E+00  0.45593999997E+02  0.45594000000E+02  0.51100000000E-03 0.  1.
         11   -1    0    0    0    0 -0.00000000000E+00 -0.00000000000E+00 -0.45593999997E+02  0.45594000000E+02  0.51100000000E-03 0. -1.
         23    2    1    2    0    0  0.17763568394E-14  0.00000000000E+00  0.00000000000E+00  0.91188000000E+02  0.91188000000E+02 0.  0.
    9900012    2    3    3    0    0 -0.11766554128E+02 -0.11621796540E+02 -0.32897753169E+02  0.54367080478E+02  0.39999991565E+02 0.  0.
        -12    1    3    3    0    0  0.11766554128E+02  0.11621796540E+02  0.32897753169E+02  0.36820919522E+02  0.00000000000E+00 0.  1.
         11    1    4    4    0    0  0.36164085020E+01 -0.14367832570E+02 -0.20569971321E+01  0.14958083456E+02  0.51100000000E-03 0. -1.
        -11    1    4    4    0    0 -0.68950910141E+01  0.10654463753E+02 -0.18855964593E+02  0.22728996435E+02  0.51100000000E-03 0.  1.
         12    1    4    4    0    0 -0.84878716163E+01 -0.79084277232E+01 -0.11984791444E+02  0.16680000587E+02  0.00000000000E+00 0. -1.
</event>
<event>
 8    1  0.2401680E-006  0.9118800E+02  0.7816164E-02  0.1184000E+00
        -11   -1    0    0    0    0  0.00000000000E+00  0.00000000000E+00  0.45593999997E+02  0.45594000000E+02  0.51100000000E-03 0.  1.
         11   -1    0    0    0    0 -0.00000000000E+00 -0.00000000000E+00 -0.45593999997E+02  0.45594000000E+02  0.51100000000E-03 0. -1.
         23    2    1    2    0    0 -0.35527136788E-14 -0.71054273576E-14 -0.88817841970E-15  0.91188000000E+02  0.91188000000E+02 0.  0.
    9900012    2    3    3    0    0 -0.24317464880E+02 -0.27206306850E+02 -0.49251310671E+01  0.54367093620E+02  0.40000021525E+02 0.  0.
        -12    1    3    3    0    0  0.24317464880E+02  0.27206306850E+02  0.49251310671E+01  0.36820906380E+02  0.00000000000E+00 0.  1.
         11    1    4    4    0    0 -0.31522003804E+01 -0.58464721214E+01  0.12422209383E+02  0.14086478968E+02  0.51100000000E-03 0. -1.
        -11    1    4    4    0    0 -0.94561451808E+01  0.23571401378E+01 -0.63733734229E+01  0.11644512886E+02  0.51100000000E-03 0.  1.
         12    1    4    4    0    0 -0.11709119319E+02 -0.23716974866E+02 -0.10973967027E+02  0.28636101766E+02  0.00000000000E+00 0. -1.
</event>
<event>
 8    1  0.2401680E-006  0.9118800E+02  0.7816164E-02  0.1184000E+00
        -11   -1    0    0    0    0  0.00000000000E+00  0.00000000000E+00  0.45593999997E+02  0.45594000000E+02  0.51100000000E-03 0. -1.
         11   -1    0    0    0    0 -0.00000000000E+00 -0.00000000000E+00 -0.45593999997E+02  0.45594000000E+02  0.51100000000E-03 0.  1.
         23    2    1    2    0    0  0.00000000000E+00 -0.35527136788E-14  0.00000000000E+00  0.91188000000E+02  0.91188000000E+02 0.  0.
    9900012    2    3    3    0    0 -0.32234409918E+02  0.16413279541E+02  0.68794685307E+01  0.54367081824E+02  0.39999994635E+02 0.  0.
         12    1    3    3    0    0  0.32234409918E+02 -0.16413279541E+02 -0.68794685307E+01  0.36820918176E+02  0.00000000000E+00 0. -1.
         11    1    4    4    0    0 -0.18161218139E+02 -0.18466488242E+01  0.11539096078E+02  0.21596080541E+02  0.51100000000E-03 0. -1.
        -11    1    4    4    0    0 -0.74586352108E+01  0.23071921654E+02 -0.31169342619E+01  0.24447087505E+02  0.51100000000E-03 0.  1.
         12    1    4    4    0    0 -0.66145565679E+01 -0.48119932894E+01 -0.15426932855E+01  0.83239137778E+01  0.00000000000E+00 0. -1.
</event>
<event>
 8    1  0.2401680E-006  0.9118800E+02  0.7816164E-02  0.1184000E+00
        -11   -1    0    0    0    0  0.00000000000E+00  0.00000000000E+00  0.45593999997E+02  0.45594000000E+02  0.51100000000E-03 0. -1.
         11   -1    0    0    0    0 -0.00000000000E+00 -0.00000000000E+00 -0.45593999997E+02  0.45594000000E+02  0.51100000000E-03 0.  1.
         23    2    1    2    0    0  0.00000000000E+00 -0.15543122345E-14  0.35527136788E-14  0.91188000000E+02  0.91188000000E+02 0.  0.
    9900012    2    3    3    0    0 -0.30862246792E+02  0.18477853045E+01  0.19997194936E+02  0.54367076697E+02  0.39999982946E+02 0.  0.
        -12    1    3    3    0    0  0.30862246792E+02 -0.18477853045E+01 -0.19997194936E+02  0.36820923303E+02  0.00000000000E+00 0.  1.
         11    1    4    4    0    0 -0.20384176151E+02  0.30919043535E+01  0.19347665711E+01  0.20707917129E+02  0.51100000000E-03 0. -1.
        -11    1    4    4    0    0 -0.67857640556E+01 -0.12913495981E+02  0.42292647175E+01  0.15188536881E+02  0.51100000000E-03 0.  1.
         12    1    4    4    0    0 -0.36923065852E+01  0.11669376932E+02  0.13833163648E+02  0.18470622686E+02  0.00000000000E+00 0. -1.
</event>
<event>
 8    1  0.2401680E-006  0.9118800E+02  0.7816164E-02  0.1184000E+00
        -11   -1    0    0    0    0  0.00000000000E+00  0.00000000000E+00  0.45593999997E+02  0.45594000000E+02  0.51100000000E-03 0.  1.
         11   -1    0    0    0    0 -0.00000000000E+00 -0.00000000000E+00 -0.45593999997E+02  0.45594000000E+02  0.51100000000E-03 0. -1.
         23    2    1    2    0    0 -0.17763568394E-14  0.00000000000E+00 -0.35527136788E-14  0.91188000000E+02  0.91188000000E+02 0.  0.
    9900012    2    3    3    0    0 -0.15075479137E+02 -0.14564157134E+02  0.30271962854E+02  0.54367129841E+02  0.40000104097E+02 0.  0.
         12    1    3    3    0    0  0.15075479137E+02  0.14564157134E+02 -0.30271962854E+02  0.36820870159E+02  0.00000000000E+00 0. -1.
         11    1    4    4    0    0 -0.57955440068E+01  0.93485586213E+01  0.53147964646E+01  0.12216011638E+02  0.51100000000E-03 0. -1.
        -11    1    4    4    0    0  0.31580027483E+01  0.29660838121E+01  0.27262829263E+01  0.51189113485E+01  0.51100000000E-03 0.  1.
        -12    1    4    4    0    0 -0.12437937879E+02 -0.26878799568E+02  0.22230883463E+02  0.37032206853E+02  0.00000000000E+00 0.  1.
</event>
<event>
 8    1  0.2401680E-006  0.9118800E+02  0.7816164E-02  0.1184000E+00
        -11   -1    0    0    0    0  0.00000000000E+00  0.00000000000E+00  0.45593999997E+02  0.45594000000E+02  0.51100000000E-03 0.  1.
         11   -1    0    0    0    0 -0.00000000000E+00 -0.00000000000E+00 -0.45593999997E+02  0.45594000000E+02  0.51100000000E-03 0. -1.
         23    2    1    2    0    0  0.35527136788E-14 -0.35527136788E-14  0.35527136788E-14  0.91188000000E+02  0.91188000000E+02 0.  0.
    9900012    2    3    3    0    0  0.16514663486E+02 -0.26709285016E+02  0.19226519344E+02  0.54367094767E+02  0.40000024140E+02 0.  0.
         12    1    3    3    0    0 -0.16514663486E+02  0.26709285016E+02 -0.19226519344E+02  0.36820905233E+02  0.00000000000E+00 0. -1.
         11    1    4    4    0    0  0.46870411580E+01  0.41282407400E+01  0.96662466765E+00  0.63202128076E+01  0.51100000000E-03 0. -1.
        -11    1    4    4    0    0 -0.43887054501E+01  0.38753935628E+01  0.43189739378E+01  0.72755032081E+01  0.51100000000E-03 0.  1.
        -12    1    4    4    0    0  0.16216327778E+02 -0.34712919319E+02  0.13940920739E+02  0.40771378751E+02  0.00000000000E+00 0.  1.
</event>
<event>
 8    1  0.2401680E-006  0.9118800E+02  0.7816164E-02  0.1184000E+00
        -11   -1    0    0    0    0  0.00000000000E+00  0.00000000000E+00  0.45593999997E+02  0.45594000000E+02  0.51100000000E-03 0. -1.
         11   -1    0    0    0    0 -0.00000000000E+00 -0.00000000000E+00 -0.45593999997E+02  0.45594000000E+02  0.51100000000E-03 0.  1.
         23    2    1    2    0    0  0.88817841970E-15  0.00000000000E+00  0.00000000000E+00  0.91188000000E+02  0.91188000000E+02 0.  0.
    9900012    2    3    3    0    0  0.67425205586E+01  0.29390865582E+02 -0.21130396787E+02  0.54367106047E+02  0.40000049855E+02 0.  0.
         12    1    3    3    0    0 -0.67425205586E+01 -0.29390865582E+02  0.21130396787E+02  0.36820893953E+02  0.00000000000E+00 0. -1.
         11    1    4    4    0    0  0.59830900323E+01  0.13478474324E+02 -0.20959604976E+00  0.14748239461E+02  0.51100000000E-03 0. -1.
        -11    1    4    4    0    0  0.14815149134E+02  0.75463191861E+01 -0.66340808806E+01  0.17901022500E+02  0.51100000000E-03 0.  1.
         12    1    4    4    0    0 -0.14055718608E+02  0.83660720722E+01 -0.14286719856E+02  0.21717844086E+02  0.00000000000E+00 0. -1.
</event>
<event>
 8    1  0.2401680E-006  0.9118800E+02  0.7816164E-02  0.1184000E+00
        -11   -1    0    0    0    0  0.00000000000E+00  0.00000000000E+00  0.45593999997E+02  0.45594000000E+02  0.51100000000E-03 0. -1.
         11   -1    0    0    0    0 -0.00000000000E+00 -0.00000000000E+00 -0.45593999997E+02  0.45594000000E+02  0.51100000000E-03 0.  1.
         23    2    1    2    0    0  0.00000000000E+00  0.00000000000E+00 -0.88817841970E-15  0.91188000000E+02  0.91188000000E+02 0.  0.
    9900012    2    3    3    0    0 -0.31789627101E+02 -0.17977920477E+02 -0.46893425420E+01  0.54367137036E+02  0.40000120501E+02 0.  0.
        -12    1    3    3    0    0  0.31789627101E+02  0.17977920477E+02  0.46893425420E+01  0.36820862964E+02  0.00000000000E+00 0.  1.
         11    1    4    4    0    0 -0.19167177295E+02 -0.13926711326E+02  0.48843062102E+01  0.24190709399E+02  0.51100000000E-03 0. -1.
        -11    1    4    4    0    0 -0.12941609573E+02 -0.13741442646E+02 -0.55119876378E+01  0.19664549634E+02  0.51100000000E-03 0.  1.
         12    1    4    4    0    0  0.31915976736E+00  0.96902334945E+01 -0.40616611143E+01  0.10511878003E+02  0.00000000000E+00 0. -1.
</event>
<event>
 8    1  0.2401680E-006  0.9118800E+02  0.7816164E-02  0.1184000E+00
        -11   -1    0    0    0    0  0.00000000000E+00  0.00000000000E+00  0.45593999997E+02  0.45594000000E+02  0.51100000000E-03 0.  1.
         11   -1    0    0    0    0 -0.00000000000E+00 -0.00000000000E+00 -0.45593999997E+02  0.45594000000E+02  0.51100000000E-03 0. -1.
         23    2    1    2    0    0 -0.88817841970E-15  0.00000000000E+00  0.35527136788E-14  0.91188000000E+02  0.91188000000E+02 0.  0.
    9900012    2    3    3    0    0 -0.60789953525E+01  0.17607180110E+02  0.31761795359E+02  0.54367100766E+02  0.40000037817E+02 0.  0.
         12    1    3    3    0    0  0.60789953525E+01 -0.17607180110E+02 -0.31761795359E+02  0.36820899234E+02  0.00000000000E+00 0. -1.
         11    1    4    4    0    0  0.72923848744E+01  0.29417900545E+01  0.29038886642E+02  0.30084712788E+02  0.51100000000E-03 0.  1.
        -11    1    4    4    0    0 -0.12378720863E+02  0.12228304653E+02  0.74059540884E+01  0.18910640421E+02  0.51100000000E-03 0. -1.
        -12    1    4    4    0    0 -0.99265936408E+00  0.24370854023E+01 -0.46830453713E+01  0.53717475574E+01  0.00000000000E+00 0.  1.
</event>
<event>
 8    1  0.2401680E-006  0.9118800E+02  0.7816164E-02  0.1184000E+00
        -11   -1    0    0    0    0  0.00000000000E+00  0.00000000000E+00  0.45593999997E+02  0.45594000000E+02  0.51100000000E-03 0.  1.
         11   -1    0    0    0    0 -0.00000000000E+00 -0.00000000000E+00 -0.45593999997E+02  0.45594000000E+02  0.51100000000E-03 0. -1.
         23    2    1    2    0    0 -0.35527136788E-14  0.35527136788E-14 -0.44408920985E-15  0.91188000000E+02  0.91188000000E+02 0.  0.
    9900012    2    3    3    0    0 -0.31110280962E+02 -0.19434408939E+02 -0.31994463276E+01  0.54367050947E+02  0.39999924245E+02 0.  0.
         12    1    3    3    0    0  0.31110280962E+02  0.19434408939E+02  0.31994463276E+01  0.36820949053E+02  0.00000000000E+00 0. -1.
         11    1    4    4    0    0  0.90332499789E+00  0.76157166260E+01 -0.40949592034E+01  0.86938959574E+01  0.51100000000E-03 0. -1.
        -11    1    4    4    0    0  0.85422109607E+00  0.17001049665E+01  0.63127723688E+00  0.20046350762E+01  0.51100000000E-03 0.  1.
        -12    1    4    4    0    0 -0.32867827056E+02 -0.28750230532E+02  0.26423563893E+00  0.43668519914E+02  0.00000000000E+00 0.  1.
</event>
<event>
 8    1  0.2401680E-006  0.9118800E+02  0.7816164E-02  0.1184000E+00
        -11   -1    0    0    0    0  0.00000000000E+00  0.00000000000E+00  0.45593999997E+02  0.45594000000E+02  0.51100000000E-03 0.  1.
         11   -1    0    0    0    0 -0.00000000000E+00 -0.00000000000E+00 -0.45593999997E+02  0.45594000000E+02  0.51100000000E-03 0. -1.
         23    2    1    2    0    0  0.44408920985E-15 -0.88817841970E-15  0.00000000000E+00  0.91188000000E+02  0.91188000000E+02 0.  0.
    9900012    2    3    3    0    0 -0.39205235537E+01  0.33718346672E+01 -0.36455998964E+02  0.54367086996E+02  0.40000006425E+02 0.  0.
        -12    1    3    3    0    0  0.39205235537E+01 -0.33718346672E+01  0.36455998964E+02  0.36820913004E+02  0.00000000000E+00 0.  1.
         11    1    4    4    0    0 -0.43810837724E+01  0.23806957309E+01 -0.25193597629E+02  0.25682269544E+02  0.51100000000E-03 0. -1.
        -11    1    4    4    0    0 -0.48058592511E+01 -0.10884827892E+02 -0.10161244943E+02  0.15646937734E+02  0.51100000000E-03 0.  1.
         12    1    4    4    0    0  0.52664194697E+01  0.11875966828E+02 -0.11011563919E+01  0.13037879718E+02  0.00000000000E+00 0. -1.
</event>
<event>
 8    1  0.2401680E-006  0.9118800E+02  0.7816164E-02  0.1184000E+00
        -11   -1    0    0    0    0  0.00000000000E+00  0.00000000000E+00  0.45593999997E+02  0.45594000000E+02  0.51100000000E-03 0. -1.
         11   -1    0    0    0    0 -0.00000000000E+00 -0.00000000000E+00 -0.45593999997E+02  0.45594000000E+02  0.51100000000E-03 0.  1.
         23    2    1    2    0    0  0.44408920985E-15  0.35527136788E-14  0.35527136788E-14  0.91188000000E+02  0.91188000000E+02 0.  0.
    9900012    2    3    3    0    0  0.56538200078E+00 -0.28485678414E+02 -0.23324388434E+02  0.54367073514E+02  0.39999975689E+02 0.  0.
         12    1    3    3    0    0 -0.56538200078E+00  0.28485678414E+02  0.23324388434E+02  0.36820926486E+02  0.00000000000E+00 0. -1.
         11    1    4    4    0    0 -0.16290294044E+01 -0.97663028126E+01  0.60453822743E+01  0.11600907487E+02  0.51100000000E-03 0. -1.
        -11    1    4    4    0    0  0.41831491081E+01 -0.87311424123E+01  0.19118307071E+01  0.98684690402E+01  0.51100000000E-03 0.  1.
        -12    1    4    4    0    0 -0.19887377029E+01 -0.99882331892E+01 -0.31281601415E+02  0.32897696986E+02  0.00000000000E+00 0.  1.
</event>
<event>
 8    1  0.2401680E-006  0.9118800E+02  0.7816164E-02  0.1184000E+00
        -11   -1    0    0    0    0  0.00000000000E+00  0.00000000000E+00  0.45593999997E+02  0.45594000000E+02  0.51100000000E-03 0. -1.
         11   -1    0    0    0    0 -0.00000000000E+00 -0.00000000000E+00 -0.45593999997E+02  0.45594000000E+02  0.51100000000E-03 0.  1.
         23    2    1    2    0    0  0.55511151231E-16 -0.22204460493E-15  0.00000000000E+00  0.91188000000E+02  0.91188000000E+02 0.  0.
    9900012    2    3    3    0    0  0.14239191993E+00 -0.13423177846E+01  0.36796184635E+02  0.54367064431E+02  0.39999954983E+02 0.  0.
        -12    1    3    3    0    0 -0.14239191993E+00  0.13423177846E+01 -0.36796184635E+02  0.36820935569E+02  0.00000000000E+00 0.  1.
         11    1    4    4    0    0 -0.13979341728E+01 -0.99478270357E+01  0.20301850187E+02  0.22651238464E+02  0.51100000000E-03 0. -1.
        -11    1    4    4    0    0  0.27394939520E+01  0.15914745267E+02  0.17973538196E+02  0.24162616158E+02  0.51100000000E-03 0.  1.
         12    1    4    4    0    0 -0.11991678593E+01 -0.73092360164E+01 -0.14792037477E+01  0.75532098094E+01  0.00000000000E+00 0. -1.
</event>
<event>
 8    1  0.2401680E-006  0.9118800E+02  0.7816164E-02  0.1184000E+00
        -11   -1    0    0    0    0  0.00000000000E+00  0.00000000000E+00  0.45593999997E+02  0.45594000000E+02  0.51100000000E-03 0.  1.
         11   -1    0    0    0    0 -0.00000000000E+00 -0.00000000000E+00 -0.45593999997E+02  0.45594000000E+02  0.51100000000E-03 0. -1.
         23    2    1    2    0    0  0.00000000000E+00 -0.17763568394E-14 -0.35527136788E-14  0.91188000000E+02  0.91188000000E+02 0.  0.
    9900012    2    3    3    0    0  0.31937053984E+02  0.10386649697E+02 -0.15097137466E+02  0.54367062087E+02  0.39999949640E+02 0.  0.
        -12    1    3    3    0    0 -0.31937053984E+02 -0.10386649697E+02  0.15097137466E+02  0.36820937913E+02  0.00000000000E+00 0.  1.
         11    1    4    4    0    0 -0.35070162765E+01 -0.14601521976E+01 -0.54993912826E+01  0.66838994864E+01  0.51100000000E-03 0. -1.
        -11    1    4    4    0    0  0.11522113172E+02  0.16960034090E+02 -0.10833216716E+02  0.23189662200E+02  0.51100000000E-03 0.  1.
         12    1    4    4    0    0  0.23921957089E+02 -0.51132321949E+01  0.12354705328E+01  0.24493500401E+02  0.00000000000E+00 0. -1.
</event>
<event>
 8    1  0.2401680E-006  0.9118800E+02  0.7816164E-02  0.1184000E+00
        -11   -1    0    0    0    0  0.00000000000E+00  0.00000000000E+00  0.45593999997E+02  0.45594000000E+02  0.51100000000E-03 0. -1.
         11   -1    0    0    0    0 -0.00000000000E+00 -0.00000000000E+00 -0.45593999997E+02  0.45594000000E+02  0.51100000000E-03 0.  1.
         23    2    1    2    0    0  0.00000000000E+00  0.14210854715E-13 -0.44408920985E-15  0.91188000000E+02  0.91188000000E+02 0.  0.
    9900012    2    3    3    0    0 -0.44583045516E+01  0.36438133208E+02 -0.28575402517E+01  0.54367087906E+02  0.40000008499E+02 0.  0.
        -12    1    3    3    0    0  0.44583045516E+01 -0.36438133208E+02  0.28575402517E+01  0.36820912094E+02  0.00000000000E+00 0.  1.
         11    1    4    4    0    0 -0.22292441449E+01  0.69919929006E+01 -0.82104491970E+01  0.11012219143E+02  0.51100000000E-03 0. -1.
        -11    1    4    4    0    0  0.21413497925E+01  0.11975759856E+02 -0.12887284597E+02  0.17722480289E+02  0.51100000000E-03 0.  1.
         12    1    4    4    0    0 -0.43704101992E+01  0.17470380451E+02  0.18240193542E+02  0.25632388473E+02  0.00000000000E+00 0. -1.
</event>
<event>
 8    1  0.2401680E-006  0.9118800E+02  0.7816164E-02  0.1184000E+00
        -11   -1    0    0    0    0  0.00000000000E+00  0.00000000000E+00  0.45593999997E+02  0.45594000000E+02  0.51100000000E-03 0.  1.
         11   -1    0    0    0    0 -0.00000000000E+00 -0.00000000000E+00 -0.45593999997E+02  0.45594000000E+02  0.51100000000E-03 0. -1.
         23    2    1    2    0    0  0.35527136788E-14  0.35527136788E-14  0.88817841970E-15  0.91188000000E+02  0.91188000000E+02 0.  0.
    9900012    2    3    3    0    0  0.23000778405E+02  0.27848140719E+02  0.71571441467E+01  0.54367089350E+02  0.40000011791E+02 0.  0.
         12    1    3    3    0    0 -0.23000778405E+02 -0.27848140719E+02 -0.71571441467E+01  0.36820910650E+02  0.00000000000E+00 0. -1.
         11    1    4    4    0    0  0.10889170399E+01  0.13474980370E+01 -0.74531808906E+01  0.76518884550E+01  0.51100000000E-03 0. -1.
        -11    1    4    4    0    0 -0.62286815907E+01  0.63410649346E+01 -0.59086601105E+00  0.89081256035E+01  0.51100000000E-03 0.  1.
        -12    1    4    4    0    0  0.28140542956E+02  0.20159577748E+02  0.15201191048E+02  0.37807075291E+02  0.00000000000E+00 0.  1.
</event>
<event>
 8    1  0.2401680E-006  0.9118800E+02  0.7816164E-02  0.1184000E+00
        -11   -1    0    0    0    0  0.00000000000E+00  0.00000000000E+00  0.45593999997E+02  0.45594000000E+02  0.51100000000E-03 0.  1.
         11   -1    0    0    0    0 -0.00000000000E+00 -0.00000000000E+00 -0.45593999997E+02  0.45594000000E+02  0.51100000000E-03 0. -1.
         23    2    1    2    0    0 -0.35527136788E-14  0.35527136788E-14 -0.17763568394E-14  0.91188000000E+02  0.91188000000E+02 0.  0.
    9900012    2    3    3    0    0 -0.30865247450E+02  0.17843311330E+02 -0.92049276327E+01  0.54367109841E+02  0.40000058505E+02 0.  0.
        -12    1    3    3    0    0  0.30865247450E+02 -0.17843311330E+02  0.92049276327E+01  0.36820890159E+02  0.00000000000E+00 0.  1.
         11    1    4    4    0    0 -0.23246022294E+02  0.93057402507E+01 -0.97702693835E+01  0.26878104810E+02  0.51100000000E-03 0. -1.
        -11    1    4    4    0    0 -0.28985597782E+01  0.42650366977E+01 -0.12188335684E+02  0.13234338435E+02  0.51100000000E-03 0.  1.
        -12    1    4    4    0    0 -0.47206653773E+01  0.42725343819E+01  0.12753677435E+02  0.14254666596E+02  0.00000000000E+00 0.  1.
</event>
