<event>
 8    1  0.2553474E-006  0.9118800E+02  0.7816164E-02  0.1184000E+00
        -11   -1    0    0    0    0  0.00000000000E+00  0.00000000000E+00  0.45593999997E+02  0.45594000000E+02  0.51100000000E-03 0. -1.
         11   -1    0    0    0    0 -0.00000000000E+00 -0.00000000000E+00 -0.45593999997E+02  0.45594000000E+02  0.51100000000E-03 0.  1.
         23    2    1    2    0    0 -0.13322676296E-14  0.00000000000E+00  0.00000000000E+00  0.91188000000E+02  0.91188000000E+02 0.  0.
    9900012    2    3    3    0    0 -0.14879719289E+01  0.21092384705E+02 -0.30144247397E+02  0.54367103703E+02  0.40000044511E+02 0.  0.
         12    1    3    3    0    0  0.14879719289E+01 -0.21092384705E+02  0.30144247397E+02  0.36820896297E+02  0.00000000000E+00 0. -1.
         11    1    4    4    0    0 -0.14009499175E+02  0.14748279837E+01 -0.54092367107E+01  0.15089765630E+02  0.51100000000E-03 0. -1.
        -11    1    4    4    0    0 -0.58277480833E+00  0.17157406451E+02 -0.14418261597E+02  0.22418797701E+02  0.51100000000E-03 0.  1.
         12    1    4    4    0    0  0.13104302055E+02  0.24601502705E+01 -0.10316749089E+02  0.16858540372E+02  0.00000000000E+00 0. -1.
</event>
<event>
 8    1  0.2553474E-006  0.9118800E+02  0.7816164E-02  0.1184000E+00
        -11   -1    0    0    0    0  0.00000000000E+00  0.00000000000E+00  0.45593999997E+02  0.45594000000E+02  0.51100000000E-03 0.  1.
         11   -1    0    0    0    0 -0.00000000000E+00 -0.00000000000E+00 -0.45593999997E+02  0.45594000000E+02  0.51100000000E-03 0. -1.
         23    2    1    2    0    0  0.35527136788E-14  0.26645352591E-14 -0.35527136788E-14  0.91188000000E+02  0.91188000000E+02 0.  0.
    9900012    2    3    3    0    0 -0.25092391229E+02 -0.76783562559E+01  0.25830113186E+02  0.54367082038E+02  0.39999995121E+02 0.  0.
         12    1    3    3    0    0  0.25092391229E+02  0.76783562559E+01 -0.25830113186E+02  0.36820917962E+02  0.00000000000E+00 0. -1.
         11    1    4    4    0    0 -0.17291086344E+02 -0.16034332866E+02  0.32157253201E+01  0.23799629976E+02  0.51100000000E-03 0. -1.
        -11    1    4    4    0    0  0.36231616568E+01  0.10826845751E+01  0.14034884764E+02  0.14535387745E+02  0.51100000000E-03 0.  1.
        -12    1    4    4    0    0 -0.11424466542E+02  0.72732920346E+01  0.85795031018E+01  0.16032064317E+02  0.00000000000E+00 0.  1.
</event>
<event>
 8    1  0.2553474E-006  0.9118800E+02  0.7816164E-02  0.1184000E+00
        -11   -1    0    0    0    0  0.00000000000E+00  0.00000000000E+00  0.45593999997E+02  0.45594000000E+02  0.51100000000E-03 0.  1.
         11   -1    0    0    0    0 -0.00000000000E+00 -0.00000000000E+00 -0.45593999997E+02  0.45594000000E+02  0.51100000000E-03 0. -1.
         23    2    1    2    0    0  0.00000000000E+00  0.00000000000E+00 -0.17763568394E-14  0.91188000000E+02  0.91188000000E+02 0.  0.
    9900012    2    3    3    0    0 -0.23490868399E+02  0.25863426576E+02  0.11620745996E+02  0.54367089231E+02  0.40000011519E+02 0.  0.
         12    1    3    3    0    0  0.23490868399E+02 -0.25863426576E+02 -0.11620745996E+02  0.36820910769E+02  0.00000000000E+00 0. -1.
         11    1    4    4    0    0 -0.35014966253E+01 -0.43756643910E+01 -0.26673141268E+01  0.62065676821E+01  0.51100000000E-03 0. -1.
        -11    1    4    4    0    0 -0.16504216028E+02  0.11901152439E+02  0.20109117174E+02  0.28607746676E+02  0.51100000000E-03 0.  1.
        -12    1    4    4    0    0 -0.34851557451E+01  0.18337938528E+02 -0.58210570508E+01  0.19552774873E+02  0.00000000000E+00 0.  1.
</event>
<event>
 8    1  0.2553474E-006  0.9118800E+02  0.7816164E-02  0.1184000E+00
        -11   -1    0    0    0    0  0.00000000000E+00  0.00000000000E+00  0.45593999997E+02  0.45594000000E+02  0.51100000000E-03 0.  1.
         11   -1    0    0    0    0 -0.00000000000E+00 -0.00000000000E+00 -0.45593999997E+02  0.45594000000E+02  0.51100000000E-03 0. -1.
         23    2    1    2    0    0 -0.71054273576E-14  0.22204460493E-15 -0.35527136788E-14  0.91188000000E+02  0.91188000000E+02 0.  0.
    9900012    2    3    3    0    0  0.32675779313E+02  0.11903808290E+01 -0.16930920081E+02  0.54367087260E+02  0.40000007026E+02 0.  0.
        -12    1    3    3    0    0 -0.32675779313E+02 -0.11903808290E+01  0.16930920081E+02  0.36820912740E+02  0.00000000000E+00 0.  1.
         11    1    4    4    0    0  0.19272307374E+01  0.54094124585E+01 -0.15464047656E+02  0.16495839828E+02  0.51100000000E-03 0. -1.
        -11    1    4    4    0    0 -0.18914651704E+01 -0.36839996634E+01  0.27271852536E+01  0.49585314035E+01  0.51100000000E-03 0.  1.
        -12    1    4    4    0    0  0.32640013746E+02 -0.53503196614E+00 -0.41940576787E+01  0.32912716028E+02  0.00000000000E+00 0.  1.
</event>
<event>
 8    1  0.2553474E-006  0.9118800E+02  0.7816164E-02  0.1184000E+00
        -11   -1    0    0    0    0  0.00000000000E+00  0.00000000000E+00  0.45593999997E+02  0.45594000000E+02  0.51100000000E-03 0. -1.
         11   -1    0    0    0    0 -0.00000000000E+00 -0.00000000000E+00 -0.45593999997E+02  0.45594000000E+02  0.51100000000E-03 0.  1.
         23    2    1    2    0    0  0.00000000000E+00  0.00000000000E+00 -0.17763568394E-14  0.91188000000E+02  0.91188000000E+02 0.  0.
    9900012    2    3    3    0    0  0.21660631274E+02  0.26208986164E+02 -0.14130977350E+02  0.54367103436E+02  0.40000043902E+02 0.  0.
         12    1    3    3    0    0 -0.21660631274E+02 -0.26208986164E+02  0.14130977350E+02  0.36820896564E+02  0.00000000000E+00 0. -1.
         11    1    4    4    0    0  0.10866139265E+02  0.61578741985E+01  0.64532607867E+01  0.14058341730E+02  0.51100000000E-03 0. -1.
        -11    1    4    4    0    0 -0.72024211821E+01  0.23775996694E+01  0.25653196997E+00  0.75890486878E+01  0.51100000000E-03 0.  1.
        -12    1    4    4    0    0  0.17996913191E+02  0.17673512296E+02 -0.20840770107E+02  0.32719713018E+02  0.00000000000E+00 0.  1.
</event>
<event>
 8    1  0.2553474E-006  0.9118800E+02  0.7816164E-02  0.1184000E+00
        -11   -1    0    0    0    0  0.00000000000E+00  0.00000000000E+00  0.45593999997E+02  0.45594000000E+02  0.51100000000E-03 0.  1.
         11   -1    0    0    0    0 -0.00000000000E+00 -0.00000000000E+00 -0.45593999997E+02  0.45594000000E+02  0.51100000000E-03 0. -1.
         23    2    1    2    0    0  0.00000000000E+00  0.17763568394E-14  0.00000000000E+00  0.91188000000E+02  0.91188000000E+02 0.  0.
    9900012    2    3    3    0    0  0.10533055337E+02  0.12905748737E+02  0.32837180831E+02  0.54367027034E+02  0.39999869729E+02 0.  0.
         12    1    3    3    0    0 -0.10533055337E+02 -0.12905748737E+02 -0.32837180831E+02  0.36820972966E+02  0.00000000000E+00 0. -1.
         11    1    4    4    0    0  0.13851779142E+02  0.21028198497E+02  0.80119077039E+01  0.26424374784E+02  0.51100000000E-03 0. -1.
        -11    1    4    4    0    0  0.23891220195E+00 -0.73035115908E+01  0.22394967418E+02  0.23557014380E+02  0.51100000000E-03 0.  1.
         12    1    4    4    0    0 -0.35576360064E+01 -0.81893816934E+00  0.24303057094E+01  0.43856378693E+01  0.00000000000E+00 0. -1.
</event>
<event>
 8    1  0.2553474E-006  0.9118800E+02  0.7816164E-02  0.1184000E+00
        -11   -1    0    0    0    0  0.00000000000E+00  0.00000000000E+00  0.45593999997E+02  0.45594000000E+02  0.51100000000E-03 0. -1.
         11   -1    0    0    0    0 -0.00000000000E+00 -0.00000000000E+00 -0.45593999997E+02  0.45594000000E+02  0.51100000000E-03 0.  1.
         23    2    1    2    0    0  0.00000000000E+00  0.00000000000E+00 -0.35527136788E-14  0.91188000000E+02  0.91188000000E+02 0.  0.
    9900012    2    3    3    0    0 -0.26216433656E+02  0.14058810143E+02 -0.21698559436E+02  0.54367095369E+02  0.40000025512E+02 0.  0.
        -12    1    3    3    0    0  0.26216433656E+02 -0.14058810143E+02  0.21698559436E+02  0.36820904631E+02  0.00000000000E+00 0.  1.
         11    1    4    4    0    0 -0.34032106126E+01  0.57244998645E+01  0.85503652688E+01  0.10837918973E+02  0.51100000000E-03 0. -1.
        -11    1    4    4    0    0 -0.91893721802E+01  0.10459578961E+02 -0.50612871777E+01  0.14814316767E+02  0.51100000000E-03 0.  1.
        -12    1    4    4    0    0 -0.13623850864E+02 -0.21252686827E+01 -0.25187637527E+02  0.28714859629E+02  0.00000000000E+00 0.  1.
</event>
<event>
 8    1  0.2553474E-006  0.9118800E+02  0.7816164E-02  0.1184000E+00
        -11   -1    0    0    0    0  0.00000000000E+00  0.00000000000E+00  0.45593999997E+02  0.45594000000E+02  0.51100000000E-03 0.  1.
         11   -1    0    0    0    0 -0.00000000000E+00 -0.00000000000E+00 -0.45593999997E+02  0.45594000000E+02  0.51100000000E-03 0. -1.
         23    2    1    2    0    0  0.00000000000E+00  0.44408920985E-15  0.71054273576E-14  0.91188000000E+02  0.91188000000E+02 0.  0.
    9900012    2    3    3    0    0 -0.77300329551E+01  0.26569099887E+01  0.35902173311E+02  0.54367100654E+02  0.40000037562E+02 0.  0.
         12    1    3    3    0    0  0.77300329551E+01 -0.26569099887E+01 -0.35902173311E+02  0.36820899346E+02  0.00000000000E+00 0. -1.
         11    1    4    4    0    0  0.21085805105E+01 -0.33052166273E+01 -0.16135580636E+01  0.42395917974E+01  0.51100000000E-03 0. -1.
        -11    1    4    4    0    0  0.53798812376E+01 -0.81108109411E+01  0.35962243987E+01  0.10375991829E+02  0.51100000000E-03 0.  1.
         12    1    4    4    0    0 -0.15218494703E+02  0.14072937557E+02  0.33919506976E+02  0.39751517028E+02  0.00000000000E+00 0. -1.
</event>
<event>
 8    1  0.2553474E-006  0.9118800E+02  0.7816164E-02  0.1184000E+00
        -11   -1    0    0    0    0  0.00000000000E+00  0.00000000000E+00  0.45593999997E+02  0.45594000000E+02  0.51100000000E-03 0.  1.
         11   -1    0    0    0    0 -0.00000000000E+00 -0.00000000000E+00 -0.45593999997E+02  0.45594000000E+02  0.51100000000E-03 0. -1.
         23    2    1    2    0    0  0.00000000000E+00  0.00000000000E+00  0.88817841970E-15  0.91188000000E+02  0.91188000000E+02 0.  0.
    9900012    2    3    3    0    0  0.10661144722E+02 -0.34771584345E+02  0.57495504872E+01  0.54367076390E+02  0.39999982247E+02 0.  0.
         12    1    3    3    0    0 -0.10661144722E+02  0.34771584345E+02 -0.57495504872E+01  0.36820923610E+02  0.00000000000E+00 0. -1.
         11    1    4    4    0    0  0.35384760266E+01 -0.10416301540E+02 -0.14679959198E+02  0.18344518328E+02  0.51100000000E-03 0. -1.
        -11    1    4    4    0    0 -0.38995152320E+01 -0.54742360206E+01  0.10414227737E+01  0.68013263933E+01  0.51100000000E-03 0.  1.
         12    1    4    4    0    0  0.11022183927E+02 -0.18881046785E+02  0.19388086911E+02  0.29221231670E+02  0.00000000000E+00 0. -1.
</event>
<event>
 8    1  0.2553474E-006  0.9118800E+02  0.7816164E-02  0.1184000E+00
        -11   -1    0    0    0    0  0.00000000000E+00  0.00000000000E+00  0.45593999997E+02  0.45594000000E+02  0.51100000000E-03 0. -1.
         11   -1    0    0    0    0 -0.00000000000E+00 -0.00000000000E+00 -0.45593999997E+02  0.45594000000E+02  0.51100000000E-03 0.  1.
         23    2    1    2    0    0  0.00000000000E+00 -0.35527136788E-14  0.00000000000E+00  0.91188000000E+02  0.91188000000E+02 0.  0.
    9900012    2    3    3    0    0 -0.13561368173E+02 -0.26976171595E+02  0.21075001519E+02  0.54367078913E+02  0.39999987998E+02 0.  0.
        -12    1    3    3    0    0  0.13561368173E+02  0.26976171595E+02 -0.21075001519E+02  0.36820921087E+02  0.00000000000E+00 0.  1.
         11    1    4    4    0    0  0.32256290135E+01 -0.18187498181E+02 -0.43265271598E+01  0.18971257474E+02  0.51100000000E-03 0. -1.
        -11    1    4    4    0    0  0.14905608332E+01  0.23104455954E+01  0.94081969119E+00  0.29060406740E+01  0.51100000000E-03 0.  1.
         12    1    4    4    0    0 -0.18277558020E+02 -0.11099119010E+02  0.24460708988E+02  0.32489780765E+02  0.00000000000E+00 0. -1.
</event>
<event>
 8    1  0.2553474E-006  0.9118800E+02  0.7816164E-02  0.1184000E+00
        -11   -1    0    0    0    0  0.00000000000E+00  0.00000000000E+00  0.45593999997E+02  0.45594000000E+02  0.51100000000E-03 0.  1.
         11   -1    0    0    0    0 -0.00000000000E+00 -0.00000000000E+00 -0.45593999997E+02  0.45594000000E+02  0.51100000000E-03 0. -1.
         23    2    1    2    0    0  0.00000000000E+00  0.00000000000E+00  0.17763568394E-14  0.91188000000E+02  0.91188000000E+02 0.  0.
    9900012    2    3    3    0    0 -0.54375418408E+01 -0.35095673213E+02 -0.97214661601E+01  0.54367081437E+02  0.39999993752E+02 0.  0.
        -12    1    3    3    0    0  0.54375418408E+01  0.35095673213E+02  0.97214661601E+01  0.36820918563E+02  0.00000000000E+00 0.  1.
         11    1    4    4    0    0 -0.14204406438E+02 -0.19238794919E+02 -0.71460457080E+01  0.24959213964E+02  0.51100000000E-03 0.  1.
        -11    1    4    4    0    0 -0.38560141283E+01 -0.57151101160E+01 -0.95489693676E+01  0.11777696924E+02  0.51100000000E-03 0. -1.
        -12    1    4    4    0    0  0.12622878725E+02 -0.10141768178E+02  0.69735489156E+01  0.17630170549E+02  0.00000000000E+00 0.  1.
</event>
<event>
 8    1  0.2553474E-006  0.9118800E+02  0.7816164E-02  0.1184000E+00
        -11   -1    0    0    0    0  0.00000000000E+00  0.00000000000E+00  0.45593999997E+02  0.45594000000E+02  0.51100000000E-03 0. -1.
         11   -1    0    0    0    0 -0.00000000000E+00 -0.00000000000E+00 -0.45593999997E+02  0.45594000000E+02  0.51100000000E-03 0.  1.
         23    2    1    2    0    0  0.00000000000E+00 -0.35527136788E-14  0.00000000000E+00  0.91188000000E+02  0.91188000000E+02 0.  0.
    9900012    2    3    3    0    0  0.48088517905E+01 -0.22384222516E+02  0.28837510472E+02  0.54367075467E+02  0.39999980143E+02 0.  0.
        -12    1    3    3    0    0 -0.48088517905E+01  0.22384222516E+02 -0.28837510472E+02  0.36820924533E+02  0.00000000000E+00 0.  1.
         11    1    4    4    0    0  0.18796618296E+01 -0.27002320675E+02  0.30283168901E+02  0.40616853268E+02  0.51100000000E-03 0. -1.
        -11    1    4    4    0    0  0.34872364941E+01 -0.29451046393E+01 -0.36590595403E+01  0.58500578359E+01  0.51100000000E-03 0.  1.
         12    1    4    4    0    0 -0.55804653320E+00  0.75632027978E+01  0.22134011118E+01  0.79001643638E+01  0.00000000000E+00 0. -1.
</event>
<event>
 8    1  0.2553474E-006  0.9118800E+02  0.7816164E-02  0.1184000E+00
        -11   -1    0    0    0    0  0.00000000000E+00  0.00000000000E+00  0.45593999997E+02  0.45594000000E+02  0.51100000000E-03 0. -1.
         11   -1    0    0    0    0 -0.00000000000E+00 -0.00000000000E+00 -0.45593999997E+02  0.45594000000E+02  0.51100000000E-03 0.  1.
         23    2    1    2    0    0 -0.17763568394E-14  0.00000000000E+00  0.00000000000E+00  0.91188000000E+02  0.91188000000E+02 0.  0.
    9900012    2    3    3    0    0 -0.84996912143E+01  0.34545220871E+02 -0.94954218211E+01  0.54367081063E+02  0.39999992900E+02 0.  0.
         12    1    3    3    0    0  0.84996912143E+01 -0.34545220871E+02  0.94954218211E+01  0.36820918937E+02  0.00000000000E+00 0. -1.
         11    1    4    4    0    0 -0.84467570319E+01  0.19172543552E+01  0.86973067177E+01  0.12274636981E+02  0.51100000000E-03 0. -1.
        -11    1    4    4    0    0  0.88030408039E+01  0.95875378012E+01 -0.39875934891E+01  0.13613056621E+02  0.51100000000E-03 0.  1.
        -12    1    4    4    0    0 -0.88559749863E+01  0.23040428715E+02 -0.14205135050E+02  0.28479387460E+02  0.00000000000E+00 0.  1.
</event>
<event>
 8    1  0.2553474E-006  0.9118800E+02  0.7816164E-02  0.1184000E+00
        -11   -1    0    0    0    0  0.00000000000E+00  0.00000000000E+00  0.45593999997E+02  0.45594000000E+02  0.51100000000E-03 0. -1.
         11   -1    0    0    0    0 -0.00000000000E+00 -0.00000000000E+00 -0.45593999997E+02  0.45594000000E+02  0.51100000000E-03 0.  1.
         23    2    1    2    0    0  0.00000000000E+00  0.00000000000E+00  0.00000000000E+00  0.91188000000E+02  0.91188000000E+02 0.  0.
    9900012    2    3    3    0    0  0.22536793173E+02 -0.22092857698E+02  0.18967845947E+02  0.54367074052E+02  0.39999976916E+02 0.  0.
        -12    1    3    3    0    0 -0.22536793173E+02  0.22092857698E+02 -0.18967845947E+02  0.36820925948E+02  0.00000000000E+00 0.  1.
         11    1    4    4    0    0  0.23096399660E+02 -0.24690007375E+02  0.55309987471E+01  0.34258314156E+02  0.51100000000E-03 0. -1.
        -11    1    4    4    0    0 -0.42533750612E+01 -0.31460237822E+01  0.29486832418E+00  0.52986425280E+01  0.51100000000E-03 0.  1.
         12    1    4    4    0    0  0.36937685744E+01  0.57431734590E+01  0.13141978876E+02  0.14810117368E+02  0.00000000000E+00 0. -1.
</event>
<event>
 8    1  0.2553474E-006  0.9118800E+02  0.7816164E-02  0.1184000E+00
        -11   -1    0    0    0    0  0.00000000000E+00  0.00000000000E+00  0.45593999997E+02  0.45594000000E+02  0.51100000000E-03 0.  1.
         11   -1    0    0    0    0 -0.00000000000E+00 -0.00000000000E+00 -0.45593999997E+02  0.45594000000E+02  0.51100000000E-03 0. -1.
         23    2    1    2    0    0  0.00000000000E+00  0.00000000000E+00 -0.88817841970E-15  0.91188000000E+02  0.91188000000E+02 0.  0.
    9900012    2    3    3    0    0  0.36286077161E+02 -0.53185965473E+01  0.32882579582E+01  0.54367088749E+02  0.40000010420E+02 0.  0.
         12    1    3    3    0    0 -0.36286077161E+02  0.53185965473E+01 -0.32882579582E+01  0.36820911251E+02  0.00000000000E+00 0. -1.
         11    1    4    4    0    0  0.27538676913E+02 -0.10356938802E+02 -0.12452504054E+02  0.31948548714E+02  0.51100000000E-03 0. -1.
        -11    1    4    4    0    0  0.69254565132E+01 -0.26369145319E+01  0.10842440936E+02  0.13132927772E+02  0.51100000000E-03 0.  1.
         12    1    4    4    0    0  0.18219437350E+01  0.76752567865E+01  0.48983210763E+01  0.92856122619E+01  0.00000000000E+00 0. -1.
</event>
<event>
 8    1  0.2553474E-006  0.9118800E+02  0.7816164E-02  0.1184000E+00
        -11   -1    0    0    0    0  0.00000000000E+00  0.00000000000E+00  0.45593999997E+02  0.45594000000E+02  0.51100000000E-03 0. -1.
         11   -1    0    0    0    0 -0.00000000000E+00 -0.00000000000E+00 -0.45593999997E+02  0.45594000000E+02  0.51100000000E-03 0.  1.
         23    2    1    2    0    0 -0.35527136788E-14  0.00000000000E+00  0.00000000000E+00  0.91188000000E+02  0.91188000000E+02 0.  0.
    9900012    2    3    3    0    0 -0.31123862494E+02 -0.15549111163E+02  0.12054453202E+02  0.54367088598E+02  0.40000010077E+02 0.  0.
         12    1    3    3    0    0  0.31123862494E+02  0.15549111163E+02 -0.12054453202E+02  0.36820911402E+02  0.00000000000E+00 0. -1.
         11    1    4    4    0    0 -0.68038735102E+01 -0.11496993965E+02 -0.27099648828E+01  0.13631488359E+02  0.51100000000E-03 0. -1.
        -11    1    4    4    0    0  0.62718720051E+01 -0.26815099109E+01  0.19505567969E+00  0.68238494143E+01  0.51100000000E-03 0.  1.
        -12    1    4    4    0    0 -0.30591860989E+02 -0.13706072877E+01  0.14569362405E+02  0.33911750824E+02  0.00000000000E+00 0.  1.
</event>
<event>
 8    1  0.2553474E-006  0.9118800E+02  0.7816164E-02  0.1184000E+00
        -11   -1    0    0    0    0  0.00000000000E+00  0.00000000000E+00  0.45593999997E+02  0.45594000000E+02  0.51100000000E-03 0.  1.
         11   -1    0    0    0    0 -0.00000000000E+00 -0.00000000000E+00 -0.45593999997E+02  0.45594000000E+02  0.51100000000E-03 0. -1.
         23    2    1    2    0    0 -0.11102230246E-14 -0.35527136788E-14  0.35527136788E-14  0.91188000000E+02  0.91188000000E+02 0.  0.
    9900012    2    3    3    0    0 -0.10223789033E+01 -0.30308840912E+02  0.20883207772E+02  0.54367089325E+02  0.40000011735E+02 0.  0.
         12    1    3    3    0    0  0.10223789033E+01  0.30308840912E+02 -0.20883207772E+02  0.36820910675E+02  0.00000000000E+00 0. -1.
         11    1    4    4    0    0 -0.11937476888E+02 -0.84832749868E+01  0.16046269654E+02  0.21724458083E+02  0.51100000000E-03 0. -1.
        -11    1    4    4    0    0  0.25141438130E+01 -0.85410505716E+01  0.12347277499E+02  0.15222540060E+02  0.51100000000E-03 0.  1.
        -12    1    4    4    0    0  0.84009541718E+01 -0.13284515353E+02 -0.75103393805E+01  0.17420091182E+02  0.00000000000E+00 0.  1.
</event>
<event>
 8    1  0.2553474E-006  0.9118800E+02  0.7816164E-02  0.1184000E+00
        -11   -1    0    0    0    0  0.00000000000E+00  0.00000000000E+00  0.45593999997E+02  0.45594000000E+02  0.51100000000E-03 0.  1.
         11   -1    0    0    0    0 -0.00000000000E+00 -0.00000000000E+00 -0.45593999997E+02  0.45594000000E+02  0.51100000000E-03 0. -1.
         23    2    1    2    0    0 -0.44408920985E-15  0.00000000000E+00  0.00000000000E+00  0.91188000000E+02  0.91188000000E+02 0.  0.
    9900012    2    3    3    0    0  0.21582285394E+01  0.87648117317E+01  0.35697348212E+02  0.54367074638E+02  0.39999978253E+02 0.  0.
         12    1    3    3    0    0 -0.21582285394E+01 -0.87648117317E+01 -0.35697348212E+02  0.36820925362E+02  0.00000000000E+00 0. -1.
         11    1    4    4    0    0 -0.16523290602E+02  0.55155702523E+01  0.91390778265E+01  0.19671385089E+02  0.51100000000E-03 0.  1.
        -11    1    4    4    0    0  0.21864810001E+01 -0.37942894948E+01  0.47900389958E+01  0.64901314144E+01  0.51100000000E-03 0. -1.
        -12    1    4    4    0    0  0.16495038141E+02  0.70435309742E+01  0.21768231390E+02  0.28205558135E+02  0.00000000000E+00 0.  1.
</event>
<event>
 8    1  0.2553474E-006  0.9118800E+02  0.7816164E-02  0.1184000E+00
        -11   -1    0    0    0    0  0.00000000000E+00  0.00000000000E+00  0.45593999997E+02  0.45594000000E+02  0.51100000000E-03 0.  1.
         11   -1    0    0    0    0 -0.00000000000E+00 -0.00000000000E+00 -0.45593999997E+02  0.45594000000E+02  0.51100000000E-03 0. -1.
         23    2    1    2    0    0 -0.35527136788E-14  0.17763568394E-14 -0.35527136788E-14  0.91188000000E+02  0.91188000000E+02 0.  0.
    9900012    2    3    3    0    0  0.17486401351E+02  0.13628018098E+02  0.29398680064E+02  0.54367088836E+02  0.40000010618E+02 0.  0.
         12    1    3    3    0    0 -0.17486401351E+02 -0.13628018098E+02 -0.29398680064E+02  0.36820911164E+02  0.00000000000E+00 0. -1.
         11    1    4    4    0    0  0.58925597172E+01  0.25406957501E+01  0.30878708221E+01  0.71212598177E+01  0.51100000000E-03 0. -1.
        -11    1    4    4    0    0 -0.70568720273E+01  0.17344971126E+02  0.17715238140E+02  0.25777453885E+02  0.51100000000E-03 0.  1.
        -12    1    4    4    0    0  0.18650713661E+02 -0.62576487776E+01  0.85955711013E+01  0.21468375133E+02  0.00000000000E+00 0.  1.
</event>
<event>
 8    1  0.2553474E-006  0.9118800E+02  0.7816164E-02  0.1184000E+00
        -11   -1    0    0    0    0  0.00000000000E+00  0.00000000000E+00  0.45593999997E+02  0.45594000000E+02  0.51100000000E-03 0.  1.
         11   -1    0    0    0    0 -0.00000000000E+00 -0.00000000000E+00 -0.45593999997E+02  0.45594000000E+02  0.51100000000E-03 0. -1.
         23    2    1    2    0    0 -0.35527136788E-14 -0.17763568394E-14  0.00000000000E+00  0.91188000000E+02  0.91188000000E+02 0.  0.
    9900012    2    3    3    0    0  0.20235008839E+02  0.11055176255E+02  0.28707208136E+02  0.54367132224E+02  0.40000109532E+02 0.  0.
         12    1    3    3    0    0 -0.20235008839E+02 -0.11055176255E+02 -0.28707208136E+02  0.36820867776E+02  0.00000000000E+00 0. -1.
         11    1    4    4    0    0  0.12361911857E+01 -0.79261228966E+01 -0.62879816878E+01  0.10192659456E+02  0.51100000000E-03 0. -1.
        -11    1    4    4    0    0  0.92925794981E+01  0.88547090725E+01  0.14877460610E+02  0.19649344543E+02  0.51100000000E-03 0.  1.
         12    1    4    4    0    0  0.97062381552E+01  0.10126590079E+02  0.20117729214E+02  0.24525128226E+02  0.00000000000E+00 0. -1.
</event>
<event>
 8    1  0.2553474E-006  0.9118800E+02  0.7816164E-02  0.1184000E+00
        -11   -1    0    0    0    0  0.00000000000E+00  0.00000000000E+00  0.45593999997E+02  0.45594000000E+02  0.51100000000E-03 0.  1.
         11   -1    0    0    0    0 -0.00000000000E+00 -0.00000000000E+00 -0.45593999997E+02  0.45594000000E+02  0.51100000000E-03 0. -1.
         23    2    1    2    0    0  0.00000000000E+00  0.00000000000E+00  0.00000000000E+00  0.91188000000E+02  0.91188000000E+02 0.  0.
    9900012    2    3    3    0    0  0.97100695830E+01 -0.10369351968E+02 -0.33970207644E+02  0.54367028817E+02  0.39999873793E+02 0.  0.
        -12    1    3    3    0    0 -0.97100695830E+01  0.10369351968E+02  0.33970207644E+02  0.36820971183E+02  0.00000000000E+00 0.  1.
         11    1    4    4    0    0  0.51186073010E+01 -0.18691658275E+02 -0.11913166868E+02  0.22748665342E+02  0.51100000000E-03 0. -1.
        -11    1    4    4    0    0 -0.73017017104E+01  0.16845929630E+01 -0.13765468353E+02  0.15672932736E+02  0.51100000000E-03 0.  1.
        -12    1    4    4    0    0  0.11893163992E+02  0.66377133440E+01 -0.82915724223E+01  0.15945430738E+02  0.00000000000E+00 0.  1.
</event>
<event>
 8    1  0.2553474E-006  0.9118800E+02  0.7816164E-02  0.1184000E+00
        -11   -1    0    0    0    0  0.00000000000E+00  0.00000000000E+00  0.45593999997E+02  0.45594000000E+02  0.51100000000E-03 0. -1.
         11   -1    0    0    0    0 -0.00000000000E+00 -0.00000000000E+00 -0.45593999997E+02  0.45594000000E+02  0.51100000000E-03 0.  1.
         23    2    1    2    0    0 -0.99920072216E-15  0.00000000000E+00  0.00000000000E+00  0.91188000000E+02  0.91188000000E+02 0.  0.
    9900012    2    3    3    0    0  0.60610532998E+00 -0.17221855564E+02  0.32539529059E+02  0.54367073557E+02  0.39999975788E+02 0.  0.
        -12    1    3    3    0    0 -0.60610532998E+00  0.17221855564E+02 -0.32539529059E+02  0.36820926443E+02  0.00000000000E+00 0.  1.
         11    1    4    4    0    0  0.22161547695E+01 -0.27707312306E+01 -0.29091218578E+01  0.45881677998E+01  0.51100000000E-03 0. -1.
        -11    1    4    4    0    0  0.15065896930E+02 -0.80634718975E+01  0.17063541536E+02  0.24148815279E+02  0.51100000000E-03 0.  1.
         12    1    4    4    0    0 -0.16675946370E+02 -0.63876524360E+01  0.18385109381E+02  0.25630090478E+02  0.00000000000E+00 0. -1.
</event>
<event>
 8    1  0.2553474E-006  0.9118800E+02  0.7816164E-02  0.1184000E+00
        -11   -1    0    0    0    0  0.00000000000E+00  0.00000000000E+00  0.45593999997E+02  0.45594000000E+02  0.51100000000E-03 0.  1.
         11   -1    0    0    0    0 -0.00000000000E+00 -0.00000000000E+00 -0.45593999997E+02  0.45594000000E+02  0.51100000000E-03 0. -1.
         23    2    1    2    0    0  0.00000000000E+00 -0.35527136788E-14  0.00000000000E+00  0.91188000000E+02  0.91188000000E+02 0.  0.
    9900012    2    3    3    0    0  0.18935029339E+02  0.17134009560E+02 -0.26526766741E+02  0.54367095972E+02  0.40000026888E+02 0.  0.
        -12    1    3    3    0    0 -0.18935029339E+02 -0.17134009560E+02  0.26526766741E+02  0.36820904028E+02  0.00000000000E+00 0.  1.
         11    1    4    4    0    0 -0.27202743057E+01  0.33406588500E+01 -0.22849477799E+02  0.23252065066E+02  0.51100000000E-03 0. -1.
        -11    1    4    4    0    0  0.51542983999E+01  0.13291411395E+02 -0.26966772885E+00  0.14258370517E+02  0.51100000000E-03 0.  1.
         12    1    4    4    0    0  0.16501005245E+02  0.50193931542E+00 -0.34076212128E+01  0.16856660389E+02  0.00000000000E+00 0. -1.
</event>
<event>
 8    1  0.2553474E-006  0.9118800E+02  0.7816164E-02  0.1184000E+00
        -11   -1    0    0    0    0  0.00000000000E+00  0.00000000000E+00  0.45593999997E+02  0.45594000000E+02  0.51100000000E-03 0. -1.
         11   -1    0    0    0    0 -0.00000000000E+00 -0.00000000000E+00 -0.45593999997E+02  0.45594000000E+02  0.51100000000E-03 0.  1.
         23    2    1    2    0    0 -0.53290705182E-14  0.00000000000E+00  0.14210854715E-13  0.91188000000E+02  0.91188000000E+02 0.  0.
    9900012    2    3    3    0    0 -0.92039786167E+01 -0.62377047457E+01  0.35102114677E+02  0.54367073373E+02  0.39999975369E+02 0.  0.
        -12    1    3    3    0    0  0.92039786167E+01  0.62377047457E+01 -0.35102114677E+02  0.36820926627E+02  0.00000000000E+00 0.  1.
         11    1    4    4    0    0  0.79875235445E+01 -0.16925091683E+01 -0.27265250554E+01  0.86080810171E+01  0.51100000000E-03 0. -1.
        -11    1    4    4    0    0 -0.96583573388E+00 -0.46566878868E+01  0.17614788676E+00  0.47590554818E+01  0.51100000000E-03 0.  1.
         12    1    4    4    0    0 -0.16225666427E+02  0.11149230936E+00  0.37652491845E+02  0.40999936874E+02  0.00000000000E+00 0. -1.
</event>
<event>
 8    1  0.2553474E-006  0.9118800E+02  0.7816164E-02  0.1184000E+00
        -11   -1    0    0    0    0  0.00000000000E+00  0.00000000000E+00  0.45593999997E+02  0.45594000000E+02  0.51100000000E-03 0.  1.
         11   -1    0    0    0    0 -0.00000000000E+00 -0.00000000000E+00 -0.45593999997E+02  0.45594000000E+02  0.51100000000E-03 0. -1.
         23    2    1    2    0    0  0.35527136788E-14 -0.35527136788E-14  0.35527136788E-14  0.91188000000E+02  0.91188000000E+02 0.  0.
    9900012    2    3    3    0    0 -0.26535057298E+02  0.19699516842E+02 -0.16235786079E+02  0.54367068735E+02  0.39999964796E+02 0.  0.
         12    1    3    3    0    0  0.26535057298E+02 -0.19699516842E+02  0.16235786079E+02  0.36820931265E+02  0.00000000000E+00 0. -1.
         11    1    4    4    0    0  0.45695782906E+01  0.50448966723E+01 -0.17842546004E+02  0.19096818488E+02  0.51100000000E-03 0. -1.
        -11    1    4    4    0    0 -0.23677608400E+01  0.31921039891E+01 -0.13337545769E+01  0.41922214642E+01  0.51100000000E-03 0.  1.
        -12    1    4    4    0    0 -0.28736874748E+02  0.11462516180E+02  0.29405145022E+01  0.31078028783E+02  0.00000000000E+00 0.  1.
</event>
<event>
 8    1  0.2553474E-006  0.9118800E+02  0.7816164E-02  0.1184000E+00
        -11   -1    0    0    0    0  0.00000000000E+00  0.00000000000E+00  0.45593999997E+02  0.45594000000E+02  0.51100000000E-03 0. -1.
         11   -1    0    0    0    0 -0.00000000000E+00 -0.00000000000E+00 -0.45593999997E+02  0.45594000000E+02  0.51100000000E-03 0.  1.
         23    2    1    2    0    0  0.00000000000E+00  0.22204460493E-15 -0.35527136788E-14  0.91188000000E+02  0.91188000000E+02 0.  0.
    9900012    2    3    3    0    0  0.30622712001E+02  0.10376640131E+01  0.20419273680E+02  0.54367163854E+02  0.40000181637E+02 0.  0.
        -12    1    3    3    0    0 -0.30622712001E+02 -0.10376640131E+01 -0.20419273680E+02  0.36820836146E+02  0.00000000000E+00 0.  1.
         11    1    4    4    0    0 -0.18672868843E+01 -0.29008321618E+00 -0.30696751734E+01  0.36046934005E+01  0.51100000000E-03 0. -1.
        -11    1    4    4    0    0  0.14452203799E+02  0.13288734403E+02  0.11624134886E+01  0.19667431506E+02  0.51100000000E-03 0.  1.
         12    1    4    4    0    0  0.18037795087E+02 -0.11960987173E+02  0.22326535365E+02  0.31095038947E+02  0.00000000000E+00 0. -1.
</event>
<event>
 8    1  0.2553474E-006  0.9118800E+02  0.7816164E-02  0.1184000E+00
        -11   -1    0    0    0    0  0.00000000000E+00  0.00000000000E+00  0.45593999997E+02  0.45594000000E+02  0.51100000000E-03 0. -1.
         11   -1    0    0    0    0 -0.00000000000E+00 -0.00000000000E+00 -0.45593999997E+02  0.45594000000E+02  0.51100000000E-03 0.  1.
         23    2    1    2    0    0  0.00000000000E+00 -0.88817841970E-15  0.35527136788E-14  0.91188000000E+02  0.91188000000E+02 0.  0.
    9900012    2    3    3    0    0 -0.16524341404E+02 -0.78611254621E+01  0.31951962733E+02  0.54367094595E+02  0.40000023748E+02 0.  0.
        -12    1    3    3    0    0  0.16524341404E+02  0.78611254621E+01 -0.31951962733E+02  0.36820905405E+02  0.00000000000E+00 0.  1.
         11    1    4    4    0    0 -0.11167980764E+02  0.68497214794E+01  0.24171983112E+02  0.27494131128E+02  0.51100000000E-03 0. -1.
        -11    1    4    4    0    0 -0.41714263234E+01 -0.50561498578E+01 -0.67362276627E+01  0.93990538003E+01  0.51100000000E-03 0.  1.
         12    1    4    4    0    0 -0.11849343164E+01 -0.96546970837E+01  0.14516207284E+02  0.17473909666E+02  0.00000000000E+00 0. -1.
</event>
<event>
 8    1  0.2553474E-006  0.9118800E+02  0.7816164E-02  0.1184000E+00
        -11   -1    0    0    0    0  0.00000000000E+00  0.00000000000E+00  0.45593999997E+02  0.45594000000E+02  0.51100000000E-03 0.  1.
         11   -1    0    0    0    0 -0.00000000000E+00 -0.00000000000E+00 -0.45593999997E+02  0.45594000000E+02  0.51100000000E-03 0. -1.
         23    2    1    2    0    0 -0.35527136788E-14  0.00000000000E+00  0.00000000000E+00  0.91188000000E+02  0.91188000000E+02 0.  0.
    9900012    2    3    3    0    0  0.22814484173E+02 -0.18586710392E+02 -0.22131625968E+02  0.54367145049E+02  0.40000138769E+02 0.  0.
        -12    1    3    3    0    0 -0.22814484173E+02  0.18586710392E+02  0.22131625968E+02  0.36820854951E+02  0.00000000000E+00 0.  1.
         11    1    4    4    0    0  0.99847107455E-01 -0.16406839146E+02  0.27948660123E+01  0.16643485707E+02  0.51100000000E-03 0.  1.
        -11    1    4    4    0    0  0.13104826434E+02  0.46237544575E+01 -0.21246399797E+02  0.25387498611E+02  0.51100000000E-03 0. -1.
        -12    1    4    4    0    0  0.96098106321E+01 -0.68036257036E+01 -0.36800921839E+01  0.12336160731E+02  0.00000000000E+00 0.  1.
</event>
<event>
 8    1  0.2553474E-006  0.9118800E+02  0.7816164E-02  0.1184000E+00
        -11   -1    0    0    0    0  0.00000000000E+00  0.00000000000E+00  0.45593999997E+02  0.45594000000E+02  0.51100000000E-03 0. -1.
         11   -1    0    0    0    0 -0.00000000000E+00 -0.00000000000E+00 -0.45593999997E+02  0.45594000000E+02  0.51100000000E-03 0.  1.
         23    2    1    2    0    0  0.71054273576E-14  0.17763568394E-14  0.00000000000E+00  0.91188000000E+02  0.91188000000E+02 0.  0.
    9900012    2    3    3    0    0  0.34405772246E+02  0.91305789511E+01 -0.94162231534E+01  0.54366947675E+02  0.39999688813E+02 0.  0.
        -12    1    3    3    0    0 -0.34405772246E+02 -0.91305789511E+01  0.94162231534E+01  0.36821052325E+02  0.00000000000E+00 0.  1.
         11    1    4    4    0    0  0.28068137115E+02  0.13236123731E+02 -0.20550026784E+02  0.37219872294E+02  0.51100000000E-03 0. -1.
        -11    1    4    4    0    0  0.67263577647E+01 -0.72203932339E+01  0.79044413964E+01  0.12643502730E+02  0.51100000000E-03 0.  1.
         12    1    4    4    0    0 -0.38872263323E+00  0.31148484544E+01  0.32293622342E+01  0.45035726506E+01  0.00000000000E+00 0. -1.
</event>
<event>
 8    1  0.2553474E-006  0.9118800E+02  0.7816164E-02  0.1184000E+00
        -11   -1    0    0    0    0  0.00000000000E+00  0.00000000000E+00  0.45593999997E+02  0.45594000000E+02  0.51100000000E-03 0. -1.
         11   -1    0    0    0    0 -0.00000000000E+00 -0.00000000000E+00 -0.45593999997E+02  0.45594000000E+02  0.51100000000E-03 0.  1.
         23    2    1    2    0    0  0.00000000000E+00  0.00000000000E+00  0.00000000000E+00  0.91188000000E+02  0.91188000000E+02 0.  0.
    9900012    2    3    3    0    0  0.84028823347E+01  0.15883055648E+02  0.32138790654E+02  0.54367058229E+02  0.39999940844E+02 0.  0.
        -12    1    3    3    0    0 -0.84028823347E+01 -0.15883055648E+02 -0.32138790654E+02  0.36820941771E+02  0.00000000000E+00 0.  1.
         11    1    4    4    0    0  0.89652699506E+01  0.11565656169E+02  0.19801755082E+02  0.24622143946E+02  0.51100000000E-03 0. -1.
        -11    1    4    4    0    0 -0.26730126375E+01  0.14753942144E+02  0.11805453030E+02  0.19083828936E+02  0.51100000000E-03 0.  1.
         12    1    4    4    0    0  0.21106250216E+01 -0.10436542665E+02  0.53158254187E+00  0.10661085347E+02  0.00000000000E+00 0. -1.
</event>
<event>
 8    1  0.2553474E-006  0.9118800E+02  0.7816164E-02  0.1184000E+00
        -11   -1    0    0    0    0  0.00000000000E+00  0.00000000000E+00  0.45593999997E+02  0.45594000000E+02  0.51100000000E-03 0.  1.
         11   -1    0    0    0    0 -0.00000000000E+00 -0.00000000000E+00 -0.45593999997E+02  0.45594000000E+02  0.51100000000E-03 0. -1.
         23    2    1    2    0    0  0.00000000000E+00  0.88817841970E-15  0.00000000000E+00  0.91188000000E+02  0.91188000000E+02 0.  0.
    9900012    2    3    3    0    0  0.32078322787E+02  0.57429686713E+01  0.17140154693E+02  0.54367008910E+02  0.39999828411E+02 0.  0.
         12    1    3    3    0    0 -0.32078322787E+02 -0.57429686713E+01 -0.17140154693E+02  0.36820991090E+02  0.00000000000E+00 0. -1.
         11    1    4    4    0    0  0.17927869076E+02  0.86158516992E+01  0.18476556804E+02  0.27148195920E+02  0.51100000000E-03 0. -1.
        -11    1    4    4    0    0  0.20373609335E+02 -0.95486839590E+00  0.66304409086E+00  0.20406747872E+02  0.51100000000E-03 0.  1.
         12    1    4    4    0    0 -0.62231556243E+01 -0.19180146319E+01 -0.19994462023E+01  0.68120651177E+01  0.00000000000E+00 0. -1.
</event>
<event>
 8    1  0.2553474E-006  0.9118800E+02  0.7816164E-02  0.1184000E+00
        -11   -1    0    0    0    0  0.00000000000E+00  0.00000000000E+00  0.45593999997E+02  0.45594000000E+02  0.51100000000E-03 0.  1.
         11   -1    0    0    0    0 -0.00000000000E+00 -0.00000000000E+00 -0.45593999997E+02  0.45594000000E+02  0.51100000000E-03 0. -1.
         23    2    1    2    0    0  0.22204460493E-14 -0.13322676296E-14 -0.71054273576E-14  0.91188000000E+02  0.91188000000E+02 0.  0.
    9900012    2    3    3    0    0  0.22013727804E+01  0.26052232462E+01 -0.36662667253E+02  0.54367022278E+02  0.39999858886E+02 0.  0.
        -12    1    3    3    0    0 -0.22013727804E+01 -0.26052232462E+01  0.36662667253E+02  0.36820977722E+02  0.00000000000E+00 0.  1.
         11    1    4    4    0    0  0.12406383923E+02  0.11467173124E+00 -0.14694858814E+02  0.19232014650E+02  0.51100000000E-03 0. -1.
        -11    1    4    4    0    0 -0.75374201688E+01 -0.52349051407E+01  0.23561816342E+01  0.94746254167E+01  0.51100000000E-03 0.  1.
        -12    1    4    4    0    0 -0.26675909740E+01  0.77254566557E+01 -0.24323990073E+02  0.25660382211E+02  0.00000000000E+00 0.  1.
</event>
<event>
 8    1  0.2553474E-006  0.9118800E+02  0.7816164E-02  0.1184000E+00
        -11   -1    0    0    0    0  0.00000000000E+00  0.00000000000E+00  0.45593999997E+02  0.45594000000E+02  0.51100000000E-03 0.  1.
         11   -1    0    0    0    0 -0.00000000000E+00 -0.00000000000E+00 -0.45593999997E+02  0.45594000000E+02  0.51100000000E-03 0. -1.
         23    2    1    2    0    0  0.88817841970E-15 -0.44408920985E-15  0.00000000000E+00  0.91188000000E+02  0.91188000000E+02 0.  0.
    9900012    2    3    3    0    0 -0.76573972128E+01 -0.25118385952E+01  0.35928155129E+02  0.54367117390E+02  0.40000075715E+02 0.  0.
         12    1    3    3    0    0  0.76573972128E+01  0.25118385952E+01 -0.35928155129E+02  0.36820882610E+02  0.00000000000E+00 0. -1.
         11    1    4    4    0    0 -0.80931373565E+01  0.13549772124E+01 -0.18798783254E+01  0.84183595966E+01  0.51100000000E-03 0. -1.
        -11    1    4    4    0    0 -0.60644429772E+01  0.44902859749E+00 -0.11741718469E+01  0.61933654093E+01  0.51100000000E-03 0.  1.
        -12    1    4    4    0    0  0.65001831210E+01 -0.43158444051E+01  0.38982205301E+02  0.39755392385E+02  0.00000000000E+00 0.  1.
</event>
<event>
 8    1  0.2553474E-006  0.9118800E+02  0.7816164E-02  0.1184000E+00
        -11   -1    0    0    0    0  0.00000000000E+00  0.00000000000E+00  0.45593999997E+02  0.45594000000E+02  0.51100000000E-03 0.  1.
         11   -1    0    0    0    0 -0.00000000000E+00 -0.00000000000E+00 -0.45593999997E+02  0.45594000000E+02  0.51100000000E-03 0. -1.
         23    2    1    2    0    0  0.11102230246E-14  0.35527136788E-14  0.00000000000E+00  0.91188000000E+02  0.91188000000E+02 0.  0.
    9900012    2    3    3    0    0 -0.10763517895E+01 -0.31493457057E+02 -0.19046868732E+02  0.54367087748E+02  0.40000008140E+02 0.  0.
        -12    1    3    3    0    0  0.10763517895E+01  0.31493457057E+02  0.19046868732E+02  0.36820912252E+02  0.00000000000E+00 0.  1.
         11    1    4    4    0    0 -0.73370529928E+01  0.33572602643E+01 -0.10151006357E+02  0.12967130501E+02  0.51100000000E-03 0. -1.
        -11    1    4    4    0    0 -0.42148306669E+01 -0.15940687701E+02 -0.10780894097E+02  0.19700203037E+02  0.51100000000E-03 0.  1.
        -12    1    4    4    0    0  0.10475531870E+02 -0.18910029620E+02  0.18850317220E+01  0.21699754211E+02  0.00000000000E+00 0.  1.
</event>
<event>
 8    1  0.2553474E-006  0.9118800E+02  0.7816164E-02  0.1184000E+00
        -11   -1    0    0    0    0  0.00000000000E+00  0.00000000000E+00  0.45593999997E+02  0.45594000000E+02  0.51100000000E-03 0. -1.
         11   -1    0    0    0    0 -0.00000000000E+00 -0.00000000000E+00 -0.45593999997E+02  0.45594000000E+02  0.51100000000E-03 0.  1.
         23    2    1    2    0    0  0.00000000000E+00  0.00000000000E+00  0.35527136788E-14  0.91188000000E+02  0.91188000000E+02 0.  0.
    9900012    2    3    3    0    0 -0.26663698432E+02 -0.19652526492E+02  0.16081178793E+02  0.54367096657E+02  0.40000028450E+02 0.  0.
        -12    1    3    3    0    0  0.26663698432E+02  0.19652526492E+02 -0.16081178793E+02  0.36820903343E+02  0.00000000000E+00 0.  1.
         11    1    4    4    0    0 -0.49459884866E+01 -0.48961961782E+01  0.19234950499E+02  0.20455289294E+02  0.51100000000E-03 0. -1.
        -11    1    4    4    0    0 -0.12562049869E+02 -0.13786301260E+02  0.72575797793E+01  0.20013487049E+02  0.51100000000E-03 0.  1.
        -12    1    4    4    0    0 -0.91556600770E+01 -0.97002905383E+00 -0.10411351486E+02  0.13898320315E+02  0.00000000000E+00 0.  1.
</event>
<event>
 8    1  0.2553474E-006  0.9118800E+02  0.7816164E-02  0.1184000E+00
        -11   -1    0    0    0    0  0.00000000000E+00  0.00000000000E+00  0.45593999997E+02  0.45594000000E+02  0.51100000000E-03 0. -1.
         11   -1    0    0    0    0 -0.00000000000E+00 -0.00000000000E+00 -0.45593999997E+02  0.45594000000E+02  0.51100000000E-03 0.  1.
         23    2    1    2    0    0  0.35527136788E-14  0.00000000000E+00  0.35527136788E-14  0.91188000000E+02  0.91188000000E+02 0.  0.
    9900012    2    3    3    0    0  0.23384581705E+02  0.11924595157E+02  0.25821407769E+02  0.54367085694E+02  0.40000003456E+02 0.  0.
        -12    1    3    3    0    0 -0.23384581705E+02 -0.11924595157E+02 -0.25821407769E+02  0.36820914306E+02  0.00000000000E+00 0.  1.
         11    1    4    4    0    0  0.14194023344E+02 -0.27274498712E+00  0.85256246098E+01  0.16559920404E+02  0.51100000000E-03 0. -1.
        -11    1    4    4    0    0 -0.74001068325E+00 -0.38068320964E+01 -0.64332080143E+01  0.75117076645E+01  0.51100000000E-03 0.  1.
        -12    1    4    4    0    0  0.99305690439E+01  0.16004172241E+02  0.23728991173E+02  0.30295457626E+02  0.00000000000E+00 0.  1.
</event>
<event>
 8    1  0.2553474E-006  0.9118800E+02  0.7816164E-02  0.1184000E+00
        -11   -1    0    0    0    0  0.00000000000E+00  0.00000000000E+00  0.45593999997E+02  0.45594000000E+02  0.51100000000E-03 0.  1.
         11   -1    0    0    0    0 -0.00000000000E+00 -0.00000000000E+00 -0.45593999997E+02  0.45594000000E+02  0.51100000000E-03 0. -1.
         23    2    1    2    0    0 -0.17763568394E-14 -0.35527136788E-14  0.00000000000E+00  0.91188000000E+02  0.91188000000E+02 0.  0.
    9900012    2    3    3    0    0  0.14614054213E+02 -0.16688218995E+02 -0.29388998656E+02  0.54367075571E+02  0.39999980380E+02 0.  0.
        -12    1    3    3    0    0 -0.14614054213E+02  0.16688218995E+02  0.29388998656E+02  0.36820924429E+02  0.00000000000E+00 0.  1.
         11    1    4    4    0    0 -0.33784581277E+01 -0.14870044962E+02 -0.42982928613E+00  0.15255063748E+02  0.51100000000E-03 0. -1.
        -11    1    4    4    0    0  0.73105059445E+01  0.17186610744E+01 -0.26567281429E+02  0.27608291071E+02  0.51100000000E-03 0.  1.
         12    1    4    4    0    0  0.10682006396E+02 -0.35368351080E+01 -0.23918879411E+01  0.11503720753E+02  0.00000000000E+00 0. -1.
</event>
<event>
 8    1  0.2553474E-006  0.9118800E+02  0.7816164E-02  0.1184000E+00
        -11   -1    0    0    0    0  0.00000000000E+00  0.00000000000E+00  0.45593999997E+02  0.45594000000E+02  0.51100000000E-03 0. -1.
         11   -1    0    0    0    0 -0.00000000000E+00 -0.00000000000E+00 -0.45593999997E+02  0.45594000000E+02  0.51100000000E-03 0.  1.
         23    2    1    2    0    0  0.00000000000E+00 -0.35527136788E-14 -0.17763568394E-14  0.91188000000E+02  0.91188000000E+02 0.  0.
    9900012    2    3    3    0    0  0.25384658711E+02  0.21902669324E+02 -0.15220827881E+02  0.54367062712E+02  0.39999951064E+02 0.  0.
         12    1    3    3    0    0 -0.25384658711E+02 -0.21902669324E+02  0.15220827881E+02  0.36820937288E+02  0.00000000000E+00 0. -1.
         11    1    4    4    0    0  0.11907131521E+02  0.22798936981E+01 -0.20149731902E+02  0.23515726489E+02  0.51100000000E-03 0.  1.
        -11    1    4    4    0    0  0.16377492458E+02  0.21152497265E+02  0.27017123601E+01  0.26887723029E+02  0.51100000000E-03 0. -1.
        -12    1    4    4    0    0 -0.28999652676E+01 -0.15297216394E+01  0.22271916612E+01  0.39636131929E+01  0.00000000000E+00 0.  1.
</event>
<event>
 8    1  0.2553474E-006  0.9118800E+02  0.7816164E-02  0.1184000E+00
        -11   -1    0    0    0    0  0.00000000000E+00  0.00000000000E+00  0.45593999997E+02  0.45594000000E+02  0.51100000000E-03 0. -1.
         11   -1    0    0    0    0 -0.00000000000E+00 -0.00000000000E+00 -0.45593999997E+02  0.45594000000E+02  0.51100000000E-03 0.  1.
         23    2    1    2    0    0  0.00000000000E+00 -0.35527136788E-14  0.17763568394E-14  0.91188000000E+02  0.91188000000E+02 0.  0.
    9900012    2    3    3    0    0  0.29906720844E+02 -0.18868758877E+02 -0.10263424332E+02  0.54367083495E+02  0.39999998445E+02 0.  0.
         12    1    3    3    0    0 -0.29906720844E+02  0.18868758877E+02  0.10263424332E+02  0.36820916505E+02  0.00000000000E+00 0. -1.
         11    1    4    4    0    0 -0.31976057820E+01  0.68224926623E+01 -0.42786325146E+00  0.75467977372E+01  0.51100000000E-03 0. -1.
        -11    1    4    4    0    0  0.10555147936E+02 -0.90581684818E+01 -0.12464869955E+02  0.18677112931E+02  0.51100000000E-03 0.  1.
        -12    1    4    4    0    0  0.22549178690E+02 -0.16633083058E+02  0.26293088747E+01  0.28143172827E+02  0.00000000000E+00 0.  1.
</event>
<event>
 8    1  0.2553474E-006  0.9118800E+02  0.7816164E-02  0.1184000E+00
        -11   -1    0    0    0    0  0.00000000000E+00  0.00000000000E+00  0.45593999997E+02  0.45594000000E+02  0.51100000000E-03 0.  1.
         11   -1    0    0    0    0 -0.00000000000E+00 -0.00000000000E+00 -0.45593999997E+02  0.45594000000E+02  0.51100000000E-03 0. -1.
         23    2    1    2    0    0  0.00000000000E+00  0.00000000000E+00 -0.35527136788E-14  0.91188000000E+02  0.91188000000E+02 0.  0.
    9900012    2    3    3    0    0 -0.24032792586E+02 -0.20953309636E+02 -0.18416293609E+02  0.54367133980E+02  0.40000113535E+02 0.  0.
        -12    1    3    3    0    0  0.24032792586E+02  0.20953309636E+02  0.18416293609E+02  0.36820866020E+02  0.00000000000E+00 0.  1.
         11    1    4    4    0    0  0.12407275760E+01 -0.14798588737E+02 -0.17999375957E+02  0.23334848803E+02  0.51100000000E-03 0. -1.
        -11    1    4    4    0    0 -0.77856924369E+01  0.22887418110E+01 -0.68033036236E+01  0.10589631073E+02  0.51100000000E-03 0.  1.
        -12    1    4    4    0    0 -0.17487827725E+02 -0.84434627098E+01  0.63863859723E+01  0.20442654105E+02  0.00000000000E+00 0.  1.
</event>
<event>
 8    1  0.2553474E-006  0.9118800E+02  0.7816164E-02  0.1184000E+00
        -11   -1    0    0    0    0  0.00000000000E+00  0.00000000000E+00  0.45593999997E+02  0.45594000000E+02  0.51100000000E-03 0.  1.
         11   -1    0    0    0    0 -0.00000000000E+00 -0.00000000000E+00 -0.45593999997E+02  0.45594000000E+02  0.51100000000E-03 0. -1.
         23    2    1    2    0    0 -0.17763568394E-14  0.35527136788E-14  0.35527136788E-14  0.91188000000E+02  0.91188000000E+02 0.  0.
    9900012    2    3    3    0    0 -0.13526496782E+02  0.24724660051E+02  0.23696136527E+02  0.54367057370E+02  0.39999938887E+02 0.  0.
         12    1    3    3    0    0  0.13526496782E+02 -0.24724660051E+02 -0.23696136527E+02  0.36820942630E+02  0.00000000000E+00 0. -1.
         11    1    4    4    0    0 -0.12497965289E+01  0.63128982703E+01  0.83682491235E+01  0.10556622073E+02  0.51100000000E-03 0.  1.
        -11    1    4    4    0    0 -0.95662323977E+01  0.65367784029E+01  0.25456384900E+02  0.27969086625E+02  0.51100000000E-03 0. -1.
         12    1    4    4    0    0 -0.27104678554E+01  0.11874983378E+02 -0.10128497497E+02  0.15841348673E+02  0.00000000000E+00 0. -1.
</event>
<event>
 8    1  0.2553474E-006  0.9118800E+02  0.7816164E-02  0.1184000E+00
        -11   -1    0    0    0    0  0.00000000000E+00  0.00000000000E+00  0.45593999997E+02  0.45594000000E+02  0.51100000000E-03 0. -1.
         11   -1    0    0    0    0 -0.00000000000E+00 -0.00000000000E+00 -0.45593999997E+02  0.45594000000E+02  0.51100000000E-03 0.  1.
         23    2    1    2    0    0  0.35527136788E-14  0.00000000000E+00  0.00000000000E+00  0.91188000000E+02  0.91188000000E+02 0.  0.
    9900012    2    3    3    0    0 -0.26061348042E+02  0.21378419901E+02 -0.14817160000E+02  0.54367096566E+02  0.40000028242E+02 0.  0.
         12    1    3    3    0    0  0.26061348042E+02 -0.21378419901E+02  0.14817160000E+02  0.36820903434E+02  0.00000000000E+00 0. -1.
         11    1    4    4    0    0  0.25513174017E+01 -0.39688447969E+01 -0.66212567130E+01  0.81303130460E+01  0.51100000000E-03 0. -1.
        -11    1    4    4    0    0 -0.13239845570E+02 -0.21227738220E+01 -0.59738736323E+01  0.14679470217E+02  0.51100000000E-03 0.  1.
         12    1    4    4    0    0 -0.15372819874E+02  0.27470038520E+02 -0.22220296551E+01  0.31557313304E+02  0.00000000000E+00 0. -1.
</event>
<event>
 8    1  0.2553474E-006  0.9118800E+02  0.7816164E-02  0.1184000E+00
        -11   -1    0    0    0    0  0.00000000000E+00  0.00000000000E+00  0.45593999997E+02  0.45594000000E+02  0.51100000000E-03 0. -1.
         11   -1    0    0    0    0 -0.00000000000E+00 -0.00000000000E+00 -0.45593999997E+02  0.45594000000E+02  0.51100000000E-03 0.  1.
         23    2    1    2    0    0 -0.35527136788E-14  0.35527136788E-14  0.88817841970E-15  0.91188000000E+02  0.91188000000E+02 0.  0.
    9900012    2    3    3    0    0 -0.27105384495E+02  0.24529630046E+02  0.44016352689E+01  0.54367095450E+02  0.40000025698E+02 0.  0.
        -12    1    3    3    0    0  0.27105384495E+02 -0.24529630046E+02 -0.44016352689E+01  0.36820904550E+02  0.00000000000E+00 0.  1.
         11    1    4    4    0    0 -0.13066592583E+02  0.11630385932E+02 -0.54769001236E+01  0.18330252423E+02  0.51100000000E-03 0. -1.
        -11    1    4    4    0    0 -0.13222962363E+02  0.17637171754E+02 -0.30405296616E+01  0.22252221957E+02  0.51100000000E-03 0.  1.
        -12    1    4    4    0    0 -0.81582954929E+00 -0.47379276405E+01  0.12919065054E+02  0.13784621070E+02  0.00000000000E+00 0.  1.
</event>
<event>
 8    1  0.2553474E-006  0.9118800E+02  0.7816164E-02  0.1184000E+00
        -11   -1    0    0    0    0  0.00000000000E+00  0.00000000000E+00  0.45593999997E+02  0.45594000000E+02  0.51100000000E-03 0. -1.
         11   -1    0    0    0    0 -0.00000000000E+00 -0.00000000000E+00 -0.45593999997E+02  0.45594000000E+02  0.51100000000E-03 0.  1.
         23    2    1    2    0    0  0.35527136788E-14  0.44408920985E-15  0.35527136788E-14  0.91188000000E+02  0.91188000000E+02 0.  0.
    9900012    2    3    3    0    0  0.20065391891E+02  0.37416239539E+01  0.30645719761E+02  0.54367084188E+02  0.40000000023E+02 0.  0.
        -12    1    3    3    0    0 -0.20065391891E+02 -0.37416239539E+01 -0.30645719761E+02  0.36820915812E+02  0.00000000000E+00 0.  1.
         11    1    4    4    0    0 -0.14089221503E+01  0.64817053232E+01  0.23387429719E+02  0.24309862908E+02  0.51100000000E-03 0. -1.
        -11    1    4    4    0    0  0.72801467703E+01  0.69689133385E+00  0.12548572002E+02  0.14524216126E+02  0.51100000000E-03 0.  1.
        -12    1    4    4    0    0  0.14194167271E+02 -0.34369727031E+01 -0.52902819595E+01  0.15533005153E+02  0.00000000000E+00 0.  1.
</event>
<event>
 8    1  0.2553474E-006  0.9118800E+02  0.7816164E-02  0.1184000E+00
        -11   -1    0    0    0    0  0.00000000000E+00  0.00000000000E+00  0.45593999997E+02  0.45594000000E+02  0.51100000000E-03 0. -1.
         11   -1    0    0    0    0 -0.00000000000E+00 -0.00000000000E+00 -0.45593999997E+02  0.45594000000E+02  0.51100000000E-03 0.  1.
         23    2    1    2    0    0 -0.35527136788E-14 -0.35527136788E-14  0.35527136788E-14  0.91188000000E+02  0.91188000000E+02 0.  0.
    9900012    2    3    3    0    0  0.20531443713E+02  0.14814052399E+02  0.26735471059E+02  0.54367058374E+02  0.39999941176E+02 0.  0.
        -12    1    3    3    0    0 -0.20531443713E+02 -0.14814052399E+02 -0.26735471059E+02  0.36820941626E+02  0.00000000000E+00 0.  1.
         11    1    4    4    0    0 -0.26639591339E+01 -0.59611851187E+01  0.11714501875E+02  0.13411262458E+02  0.51100000000E-03 0. -1.
        -11    1    4    4    0    0  0.36969697375E+01  0.35588921536E+01 -0.57221885802E+01  0.76861395388E+01  0.51100000000E-03 0.  1.
         12    1    4    4    0    0  0.19498433110E+02  0.17216345364E+02  0.20743157765E+02  0.33269656377E+02  0.00000000000E+00 0. -1.
</event>
<event>
 8    1  0.2553474E-006  0.9118800E+02  0.7816164E-02  0.1184000E+00
        -11   -1    0    0    0    0  0.00000000000E+00  0.00000000000E+00  0.45593999997E+02  0.45594000000E+02  0.51100000000E-03 0.  1.
         11   -1    0    0    0    0 -0.00000000000E+00 -0.00000000000E+00 -0.45593999997E+02  0.45594000000E+02  0.51100000000E-03 0. -1.
         23    2    1    2    0    0  0.00000000000E+00 -0.88817841970E-15  0.35527136788E-14  0.91188000000E+02  0.91188000000E+02 0.  0.
    9900012    2    3    3    0    0 -0.32076710181E+02 -0.40412057774E+01 -0.17621921205E+02  0.54367098502E+02  0.40000032655E+02 0.  0.
        -12    1    3    3    0    0  0.32076710181E+02  0.40412057774E+01  0.17621921205E+02  0.36820901498E+02  0.00000000000E+00 0.  1.
         11    1    4    4    0    0 -0.16340182009E+02 -0.77462871954E+01 -0.34127048096E+01  0.18402528842E+02  0.51100000000E-03 0. -1.
        -11    1    4    4    0    0  0.49885782343E+01  0.10095842459E+02 -0.61232360474E+01  0.12818188940E+02  0.51100000000E-03 0.  1.
        -12    1    4    4    0    0 -0.20725106406E+02 -0.63907610412E+01 -0.80859803476E+01  0.23146380719E+02  0.00000000000E+00 0.  1.
</event>
<event>
 8    1  0.2553474E-006  0.9118800E+02  0.7816164E-02  0.1184000E+00
        -11   -1    0    0    0    0  0.00000000000E+00  0.00000000000E+00  0.45593999997E+02  0.45594000000E+02  0.51100000000E-03 0. -1.
         11   -1    0    0    0    0 -0.00000000000E+00 -0.00000000000E+00 -0.45593999997E+02  0.45594000000E+02  0.51100000000E-03 0.  1.
         23    2    1    2    0    0 -0.17763568394E-14  0.35527136788E-14  0.00000000000E+00  0.91188000000E+02  0.91188000000E+02 0.  0.
    9900012    2    3    3    0    0  0.11757474452E+02 -0.24423701880E+02 -0.24920367176E+02  0.54367080413E+02  0.39999991418E+02 0.  0.
         12    1    3    3    0    0 -0.11757474452E+02  0.24423701880E+02  0.24920367176E+02  0.36820919587E+02  0.00000000000E+00 0. -1.
         11    1    4    4    0    0 -0.97320567030E+01 -0.92216261871E+01 -0.13970223895E+02  0.19362811602E+02  0.51100000000E-03 0. -1.
        -11    1    4    4    0    0 -0.34207205088E+01 -0.54691473790E+01 -0.29171503984E+01  0.70797364754E+01  0.51100000000E-03 0.  1.
         12    1    4    4    0    0  0.24910251664E+02 -0.97329283143E+01 -0.80329928826E+01  0.27924532336E+02  0.00000000000E+00 0. -1.
</event>
<event>
 8    1  0.2553474E-006  0.9118800E+02  0.7816164E-02  0.1184000E+00
        -11   -1    0    0    0    0  0.00000000000E+00  0.00000000000E+00  0.45593999997E+02  0.45594000000E+02  0.51100000000E-03 0.  1.
         11   -1    0    0    0    0 -0.00000000000E+00 -0.00000000000E+00 -0.45593999997E+02  0.45594000000E+02  0.51100000000E-03 0. -1.
         23    2    1    2    0    0 -0.44408920985E-15  0.17763568394E-14  0.00000000000E+00  0.91188000000E+02  0.91188000000E+02 0.  0.
    9900012    2    3    3    0    0 -0.25175961952E+01 -0.48860008954E+01 -0.36408350160E+02  0.54367092125E+02  0.40000018118E+02 0.  0.
        -12    1    3    3    0    0  0.25175961952E+01  0.48860008954E+01  0.36408350160E+02  0.36820907875E+02  0.00000000000E+00 0.  1.
         11    1    4    4    0    0  0.51975344750E+01  0.95796841499E+01 -0.47284477574E+01  0.11880359064E+02  0.51100000000E-03 0. -1.
        -11    1    4    4    0    0 -0.17836257440E+01 -0.17105349544E+02 -0.31619635247E+02  0.35994105590E+02  0.51100000000E-03 0.  1.
        -12    1    4    4    0    0 -0.59315049262E+01  0.26396644982E+01 -0.60267155723E-01  0.64926274714E+01  0.00000000000E+00 0.  1.
</event>
<event>
 8    1  0.2553474E-006  0.9118800E+02  0.7816164E-02  0.1184000E+00
        -11   -1    0    0    0    0  0.00000000000E+00  0.00000000000E+00  0.45593999997E+02  0.45594000000E+02  0.51100000000E-03 0.  1.
         11   -1    0    0    0    0 -0.00000000000E+00 -0.00000000000E+00 -0.45593999997E+02  0.45594000000E+02  0.51100000000E-03 0. -1.
         23    2    1    2    0    0 -0.35527136788E-14  0.00000000000E+00  0.00000000000E+00  0.91188000000E+02  0.91188000000E+02 0.  0.
    9900012    2    3    3    0    0 -0.18864353002E+02 -0.22355270073E+02  0.22364206655E+02  0.54367086737E+02  0.40000005834E+02 0.  0.
         12    1    3    3    0    0  0.18864353002E+02  0.22355270073E+02 -0.22364206655E+02  0.36820913263E+02  0.00000000000E+00 0. -1.
         11    1    4    4    0    0  0.12244265373E+01 -0.41163637898E+00 -0.75847284065E+01  0.76939437296E+01  0.51100000000E-03 0. -1.
        -11    1    4    4    0    0 -0.21660707192E+02 -0.23955809132E+02  0.30054814228E+02  0.44117557568E+02  0.51100000000E-03 0.  1.
        -12    1    4    4    0    0  0.15719276525E+01  0.20121754379E+01 -0.10587916694E+00  0.25555854389E+01  0.00000000000E+00 0.  1.
</event>
<event>
 8    1  0.2553474E-006  0.9118800E+02  0.7816164E-02  0.1184000E+00
        -11   -1    0    0    0    0  0.00000000000E+00  0.00000000000E+00  0.45593999997E+02  0.45594000000E+02  0.51100000000E-03 0.  1.
         11   -1    0    0    0    0 -0.00000000000E+00 -0.00000000000E+00 -0.45593999997E+02  0.45594000000E+02  0.51100000000E-03 0. -1.
         23    2    1    2    0    0 -0.44408920985E-15  0.00000000000E+00  0.00000000000E+00  0.91188000000E+02  0.91188000000E+02 0.  0.
    9900012    2    3    3    0    0  0.66332419732E+00  0.29499404866E+02 -0.22025565921E+02  0.54367076049E+02  0.39999981469E+02 0.  0.
        -12    1    3    3    0    0 -0.66332419732E+00 -0.29499404866E+02  0.22025565921E+02  0.36820923951E+02  0.00000000000E+00 0.  1.
         11    1    4    4    0    0 -0.51516754375E-01  0.21070889237E+02 -0.15461386049E+02  0.26135024126E+02  0.51100000000E-03 0. -1.
        -11    1    4    4    0    0 -0.12437552497E+02  0.28306791225E+01 -0.55233734179E+01  0.13900111892E+02  0.51100000000E-03 0.  1.
        -12    1    4    4    0    0  0.13152393449E+02  0.55978365064E+01 -0.10408064541E+01  0.14331940032E+02  0.00000000000E+00 0.  1.
</event>
<event>
 8    1  0.2553474E-006  0.9118800E+02  0.7816164E-02  0.1184000E+00
        -11   -1    0    0    0    0  0.00000000000E+00  0.00000000000E+00  0.45593999997E+02  0.45594000000E+02  0.51100000000E-03 0.  1.
         11   -1    0    0    0    0 -0.00000000000E+00 -0.00000000000E+00 -0.45593999997E+02  0.45594000000E+02  0.51100000000E-03 0. -1.
         23    2    1    2    0    0  0.00000000000E+00  0.00000000000E+00  0.00000000000E+00  0.91188000000E+02  0.91188000000E+02 0.  0.
    9900012    2    3    3    0    0  0.62052199149E+01  0.26444852058E+02  0.24858493174E+02  0.54367086955E+02  0.40000006332E+02 0.  0.
         12    1    3    3    0    0 -0.62052199149E+01 -0.26444852058E+02 -0.24858493174E+02  0.36820913045E+02  0.00000000000E+00 0. -1.
         11    1    4    4    0    0 -0.75014109417E+01 -0.18297330423E+01  0.10057014225E+02  0.12679220185E+02  0.51100000000E-03 0. -1.
        -11    1    4    4    0    0  0.91998039922E+01  0.67323639446E+01  0.16000871196E+02  0.19646602685E+02  0.51100000000E-03 0.  1.
        -12    1    4    4    0    0  0.45068268643E+01  0.21542221156E+02 -0.11993922471E+01  0.22041264085E+02  0.00000000000E+00 0.  1.
</event>
<event>
 8    1  0.2553474E-006  0.9118800E+02  0.7816164E-02  0.1184000E+00
        -11   -1    0    0    0    0  0.00000000000E+00  0.00000000000E+00  0.45593999997E+02  0.45594000000E+02  0.51100000000E-03 0. -1.
         11   -1    0    0    0    0 -0.00000000000E+00 -0.00000000000E+00 -0.45593999997E+02  0.45594000000E+02  0.51100000000E-03 0.  1.
         23    2    1    2    0    0  0.00000000000E+00  0.00000000000E+00  0.35527136788E-14  0.91188000000E+02  0.91188000000E+02 0.  0.
    9900012    2    3    3    0    0  0.16877708421E+02 -0.22019445720E+02 -0.24208770947E+02  0.54367114322E+02  0.40000068721E+02 0.  0.
        -12    1    3    3    0    0 -0.16877708421E+02  0.22019445720E+02  0.24208770947E+02  0.36820885678E+02  0.00000000000E+00 0.  1.
         11    1    4    4    0    0  0.14579589005E+01 -0.79055343393E+01 -0.11547048400E+02  0.14069735049E+02  0.51100000000E-03 0. -1.
        -11    1    4    4    0    0  0.15087986000E+02  0.55555433982E+01 -0.12915758424E+02  0.20623486609E+02  0.51100000000E-03 0.  1.
         12    1    4    4    0    0  0.33176351995E+00 -0.19669454779E+02  0.25403587719E+00  0.19673892664E+02  0.00000000000E+00 0. -1.
</event>
<event>
 8    1  0.2553474E-006  0.9118800E+02  0.7816164E-02  0.1184000E+00
        -11   -1    0    0    0    0  0.00000000000E+00  0.00000000000E+00  0.45593999997E+02  0.45594000000E+02  0.51100000000E-03 0.  1.
         11   -1    0    0    0    0 -0.00000000000E+00 -0.00000000000E+00 -0.45593999997E+02  0.45594000000E+02  0.51100000000E-03 0. -1.
         23    2    1    2    0    0 -0.35527136788E-14  0.17763568394E-14 -0.35527136788E-14  0.91188000000E+02  0.91188000000E+02 0.  0.
    9900012    2    3    3    0    0 -0.22680861861E+02  0.10566292617E+02 -0.27013281887E+02  0.54367008260E+02  0.39999826929E+02 0.  0.
        -12    1    3    3    0    0  0.22680861861E+02 -0.10566292617E+02  0.27013281887E+02  0.36820991740E+02  0.00000000000E+00 0.  1.
         11    1    4    4    0    0 -0.42722779834E+01 -0.56743247446E+01  0.30929668647E+01  0.77470487776E+01  0.51100000000E-03 0. -1.
        -11    1    4    4    0    0  0.58630690363E+01  0.18061804058E+01 -0.12815471420E+01  0.62673941572E+01  0.51100000000E-03 0.  1.
        -12    1    4    4    0    0 -0.24271652914E+02  0.14434436956E+02 -0.28824701610E+02  0.40352565325E+02  0.00000000000E+00 0.  1.
</event>
<event>
 8    1  0.2553474E-006  0.9118800E+02  0.7816164E-02  0.1184000E+00
        -11   -1    0    0    0    0  0.00000000000E+00  0.00000000000E+00  0.45593999997E+02  0.45594000000E+02  0.51100000000E-03 0. -1.
         11   -1    0    0    0    0 -0.00000000000E+00 -0.00000000000E+00 -0.45593999997E+02  0.45594000000E+02  0.51100000000E-03 0.  1.
         23    2    1    2    0    0  0.22204460493E-15  0.35527136788E-14  0.00000000000E+00  0.91188000000E+02  0.91188000000E+02 0.  0.
    9900012    2    3    3    0    0 -0.13038054424E+01  0.23876533907E+02  0.27999904967E+02  0.54367035073E+02  0.39999888055E+02 0.  0.
        -12    1    3    3    0    0  0.13038054424E+01 -0.23876533907E+02 -0.27999904967E+02  0.36820964927E+02  0.00000000000E+00 0.  1.
         11    1    4    4    0    0  0.38654562941E+01  0.23714268760E+01  0.12645945074E+02  0.13434483423E+02  0.51100000000E-03 0. -1.
        -11    1    4    4    0    0  0.73380715942E+00  0.46161324345E+01 -0.93367285475E+01  0.10441343392E+02  0.51100000000E-03 0.  1.
         12    1    4    4    0    0 -0.59030688960E+01  0.16888974596E+02  0.24690688441E+02  0.30491208257E+02  0.00000000000E+00 0. -1.
</event>
<event>
 8    1  0.2553474E-006  0.9118800E+02  0.7816164E-02  0.1184000E+00
        -11   -1    0    0    0    0  0.00000000000E+00  0.00000000000E+00  0.45593999997E+02  0.45594000000E+02  0.51100000000E-03 0.  1.
         11   -1    0    0    0    0 -0.00000000000E+00 -0.00000000000E+00 -0.45593999997E+02  0.45594000000E+02  0.51100000000E-03 0. -1.
         23    2    1    2    0    0  0.00000000000E+00  0.00000000000E+00 -0.35527136788E-14  0.91188000000E+02  0.91188000000E+02 0.  0.
    9900012    2    3    3    0    0 -0.16627963715E+02  0.25861369960E+02 -0.20260373860E+02  0.54367049680E+02  0.39999921355E+02 0.  0.
        -12    1    3    3    0    0  0.16627963715E+02 -0.25861369960E+02  0.20260373860E+02  0.36820950320E+02  0.00000000000E+00 0.  1.
         11    1    4    4    0    0 -0.66101189207E+01  0.43758792726E+01 -0.62273623124E+01  0.10080775426E+02  0.51100000000E-03 0. -1.
        -11    1    4    4    0    0 -0.90298921153E+01  0.44285882406E+01 -0.22918668513E+02  0.25028318203E+02  0.51100000000E-03 0.  1.
        -12    1    4    4    0    0 -0.98795267945E+00  0.17056902446E+02  0.88856569649E+01  0.19257956051E+02  0.00000000000E+00 0.  1.
</event>
<event>
 8    1  0.2553474E-006  0.9118800E+02  0.7816164E-02  0.1184000E+00
        -11   -1    0    0    0    0  0.00000000000E+00  0.00000000000E+00  0.45593999997E+02  0.45594000000E+02  0.51100000000E-03 0.  1.
         11   -1    0    0    0    0 -0.00000000000E+00 -0.00000000000E+00 -0.45593999997E+02  0.45594000000E+02  0.51100000000E-03 0. -1.
         23    2    1    2    0    0  0.00000000000E+00  0.35527136788E-14  0.00000000000E+00  0.91188000000E+02  0.91188000000E+02 0.  0.
    9900012    2    3    3    0    0  0.21991277082E+02 -0.17427544711E+02 -0.23842008963E+02  0.54367123126E+02  0.40000088790E+02 0.  0.
        -12    1    3    3    0    0 -0.21991277082E+02  0.17427544711E+02  0.23842008963E+02  0.36820876874E+02  0.00000000000E+00 0.  1.
         11    1    4    4    0    0 -0.70786566834E+01 -0.92247078696E+01 -0.85961446128E+01  0.14460163145E+02  0.51100000000E-03 0. -1.
        -11    1    4    4    0    0  0.13768508020E+02  0.60018001844E+01 -0.10959594986E+02  0.18593174583E+02  0.51100000000E-03 0.  1.
         12    1    4    4    0    0  0.15301425746E+02 -0.14204637026E+02 -0.42862693641E+01  0.21313785397E+02  0.00000000000E+00 0. -1.
</event>
<event>
 8    1  0.2553474E-006  0.9118800E+02  0.7816164E-02  0.1184000E+00
        -11   -1    0    0    0    0  0.00000000000E+00  0.00000000000E+00  0.45593999997E+02  0.45594000000E+02  0.51100000000E-03 0.  1.
         11   -1    0    0    0    0 -0.00000000000E+00 -0.00000000000E+00 -0.45593999997E+02  0.45594000000E+02  0.51100000000E-03 0. -1.
         23    2    1    2    0    0 -0.88817841970E-15  0.00000000000E+00  0.35527136788E-14  0.91188000000E+02  0.91188000000E+02 0.  0.
    9900012    2    3    3    0    0  0.77243777315E+01 -0.31978467661E+02 -0.16537574920E+02  0.54367084890E+02  0.40000001624E+02 0.  0.
        -12    1    3    3    0    0 -0.77243777315E+01  0.31978467661E+02  0.16537574920E+02  0.36820915110E+02  0.00000000000E+00 0.  1.
         11    1    4    4    0    0  0.18094460349E+01  0.68813163319E+01 -0.16140765646E+01  0.72960162301E+01  0.51100000000E-03 0. -1.
        -11    1    4    4    0    0 -0.66223364074E+01 -0.71398247175E+01  0.24782843057E+00  0.97413477344E+01  0.51100000000E-03 0.  1.
         12    1    4    4    0    0  0.12537268104E+02 -0.31719959276E+02 -0.15171326786E+02  0.37329720926E+02  0.00000000000E+00 0. -1.
</event>
<event>
 8    1  0.2553474E-006  0.9118800E+02  0.7816164E-02  0.1184000E+00
        -11   -1    0    0    0    0  0.00000000000E+00  0.00000000000E+00  0.45593999997E+02  0.45594000000E+02  0.51100000000E-03 0.  1.
         11   -1    0    0    0    0 -0.00000000000E+00 -0.00000000000E+00 -0.45593999997E+02  0.45594000000E+02  0.51100000000E-03 0. -1.
         23    2    1    2    0    0  0.00000000000E+00 -0.35527136788E-14 -0.44408920985E-15  0.91188000000E+02  0.91188000000E+02 0.  0.
    9900012    2    3    3    0    0 -0.31773686121E+02 -0.18225552644E+02  0.37485508848E+01  0.54366952587E+02  0.39999700011E+02 0.  0.
        -12    1    3    3    0    0  0.31773686121E+02  0.18225552644E+02 -0.37485508848E+01  0.36821047413E+02  0.00000000000E+00 0.  1.
         11    1    4    4    0    0 -0.33552613033E+01 -0.73938305141E+01  0.57175158607E+01  0.99305838682E+01  0.51100000000E-03 0. -1.
        -11    1    4    4    0    0  0.84623353048E+00  0.44234494623E+01  0.86631465408E+01  0.97638683206E+01  0.51100000000E-03 0.  1.
         12    1    4    4    0    0 -0.29264658348E+02 -0.15255171593E+02 -0.10632111517E+02  0.34672500398E+02  0.00000000000E+00 0. -1.
</event>
<event>
 8    1  0.2553474E-006  0.9118800E+02  0.7816164E-02  0.1184000E+00
        -11   -1    0    0    0    0  0.00000000000E+00  0.00000000000E+00  0.45593999997E+02  0.45594000000E+02  0.51100000000E-03 0.  1.
         11   -1    0    0    0    0 -0.00000000000E+00 -0.00000000000E+00 -0.45593999997E+02  0.45594000000E+02  0.51100000000E-03 0. -1.
         23    2    1    2    0    0 -0.17763568394E-14  0.00000000000E+00  0.00000000000E+00  0.91188000000E+02  0.91188000000E+02 0.  0.
    9900012    2    3    3    0    0 -0.13938130306E+02 -0.21120582634E+02  0.26747522380E+02  0.54367076048E+02  0.39999981466E+02 0.  0.
         12    1    3    3    0    0  0.13938130306E+02  0.21120582634E+02 -0.26747522380E+02  0.36820923952E+02  0.00000000000E+00 0. -1.
         11    1    4    4    0    0 -0.34503348216E+01  0.15136674326E+01 -0.31661729033E+01  0.49214480178E+01  0.51100000000E-03 0. -1.
        -11    1    4    4    0    0 -0.17843709995E+02 -0.32724326043E+01  0.10007419853E+02  0.20718476148E+02  0.51100000000E-03 0.  1.
        -12    1    4    4    0    0  0.73559145102E+01 -0.19361817462E+02  0.19906275431E+02  0.28727151882E+02  0.00000000000E+00 0.  1.
</event>
<event>
 8    1  0.2553474E-006  0.9118800E+02  0.7816164E-02  0.1184000E+00
        -11   -1    0    0    0    0  0.00000000000E+00  0.00000000000E+00  0.45593999997E+02  0.45594000000E+02  0.51100000000E-03 0. -1.
         11   -1    0    0    0    0 -0.00000000000E+00 -0.00000000000E+00 -0.45593999997E+02  0.45594000000E+02  0.51100000000E-03 0.  1.
         23    2    1    2    0    0 -0.13322676296E-14 -0.35527136788E-14  0.35527136788E-14  0.91188000000E+02  0.91188000000E+02 0.  0.
    9900012    2    3    3    0    0  0.13422621031E+01 -0.19982938111E+02  0.30897564149E+02  0.54367096243E+02  0.40000027506E+02 0.  0.
        -12    1    3    3    0    0 -0.13422621031E+01  0.19982938111E+02 -0.30897564149E+02  0.36820903757E+02  0.00000000000E+00 0.  1.
         11    1    4    4    0    0  0.76088489338E+01 -0.23938676320E+02  0.12162400866E+02  0.27908400190E+02  0.51100000000E-03 0. -1.
        -11    1    4    4    0    0  0.28560533620E+01  0.81371497670E+01  0.79930277562E+01  0.11758347678E+02  0.51100000000E-03 0.  1.
         12    1    4    4    0    0 -0.91226401927E+01 -0.41814115577E+01  0.10742135527E+02  0.14700348376E+02  0.00000000000E+00 0. -1.
</event>
<event>
 8    1  0.2553474E-006  0.9118800E+02  0.7816164E-02  0.1184000E+00
        -11   -1    0    0    0    0  0.00000000000E+00  0.00000000000E+00  0.45593999997E+02  0.45594000000E+02  0.51100000000E-03 0. -1.
         11   -1    0    0    0    0 -0.00000000000E+00 -0.00000000000E+00 -0.45593999997E+02  0.45594000000E+02  0.51100000000E-03 0.  1.
         23    2    1    2    0    0 -0.35527136788E-14 -0.88817841970E-15  0.71054273576E-14  0.91188000000E+02  0.91188000000E+02 0.  0.
    9900012    2    3    3    0    0  0.26805477505E+02  0.62879071846E+01  0.24448130386E+02  0.54367048350E+02  0.39999918324E+02 0.  0.
        -12    1    3    3    0    0 -0.26805477505E+02 -0.62879071846E+01 -0.24448130386E+02  0.36820951650E+02  0.00000000000E+00 0.  1.
         11    1    4    4    0    0  0.18516089672E+01 -0.40150834454E+01 -0.24812375726E+01  0.50700977302E+01  0.51100000000E-03 0. -1.
        -11    1    4    4    0    0  0.59368476189E+01  0.30977139708E+01 -0.70332841578E+01  0.97112861044E+01  0.51100000000E-03 0.  1.
         12    1    4    4    0    0  0.19017020919E+02  0.72052766592E+01  0.33962652116E+02  0.39585664516E+02  0.00000000000E+00 0. -1.
</event>
<event>
 8    1  0.2553474E-006  0.9118800E+02  0.7816164E-02  0.1184000E+00
        -11   -1    0    0    0    0  0.00000000000E+00  0.00000000000E+00  0.45593999997E+02  0.45594000000E+02  0.51100000000E-03 0. -1.
         11   -1    0    0    0    0 -0.00000000000E+00 -0.00000000000E+00 -0.45593999997E+02  0.45594000000E+02  0.51100000000E-03 0.  1.
         23    2    1    2    0    0 -0.22204460493E-15 -0.35527136788E-14 -0.35527136788E-14  0.91188000000E+02  0.91188000000E+02 0.  0.
    9900012    2    3    3    0    0  0.15130047040E+01 -0.22591532355E+02 -0.29036459101E+02  0.54367048430E+02  0.39999918506E+02 0.  0.
         12    1    3    3    0    0 -0.15130047040E+01  0.22591532355E+02  0.29036459101E+02  0.36820951570E+02  0.00000000000E+00 0. -1.
         11    1    4    4    0    0 -0.12137229611E+00  0.99381831839E+01 -0.10150968313E+02  0.14206490565E+02  0.51100000000E-03 0. -1.
        -11    1    4    4    0    0 -0.35786223936E+01 -0.17851409749E+01 -0.38127860370E+01  0.55254505844E+01  0.51100000000E-03 0.  1.
         12    1    4    4    0    0  0.52129993937E+01 -0.30744574564E+02 -0.15072704751E+02  0.34635107280E+02  0.00000000000E+00 0. -1.
</event>
<event>
 8    1  0.2553474E-006  0.9118800E+02  0.7816164E-02  0.1184000E+00
        -11   -1    0    0    0    0  0.00000000000E+00  0.00000000000E+00  0.45593999997E+02  0.45594000000E+02  0.51100000000E-03 0.  1.
         11   -1    0    0    0    0 -0.00000000000E+00 -0.00000000000E+00 -0.45593999997E+02  0.45594000000E+02  0.51100000000E-03 0. -1.
         23    2    1    2    0    0 -0.17763568394E-14 -0.44408920985E-15  0.00000000000E+00  0.91188000000E+02  0.91188000000E+02 0.  0.
    9900012    2    3    3    0    0  0.30932618298E+01  0.28044582797E+01 -0.36583418202E+02  0.54367085531E+02  0.40000003085E+02 0.  0.
        -12    1    3    3    0    0 -0.30932618298E+01 -0.28044582797E+01  0.36583418202E+02  0.36820914469E+02  0.00000000000E+00 0.  1.
         11    1    4    4    0    0 -0.97089392948E+01  0.84657277782E+01 -0.77926161845E+01  0.15055129236E+02  0.51100000000E-03 0. -1.
        -11    1    4    4    0    0 -0.59692981774E+01 -0.71476374951E+00 -0.12873899322E+02  0.14208472541E+02  0.51100000000E-03 0.  1.
        -12    1    4    4    0    0  0.18771499302E+02 -0.49465057490E+01 -0.15916902696E+02  0.25103483754E+02  0.00000000000E+00 0.  1.
</event>
<event>
 8    1  0.2553474E-006  0.9118800E+02  0.7816164E-02  0.1184000E+00
        -11   -1    0    0    0    0  0.00000000000E+00  0.00000000000E+00  0.45593999997E+02  0.45594000000E+02  0.51100000000E-03 0. -1.
         11   -1    0    0    0    0 -0.00000000000E+00 -0.00000000000E+00 -0.45593999997E+02  0.45594000000E+02  0.51100000000E-03 0.  1.
         23    2    1    2    0    0 -0.88817841970E-15  0.00000000000E+00 -0.71054273576E-14  0.91188000000E+02  0.91188000000E+02 0.  0.
    9900012    2    3    3    0    0  0.74046099427E+01 -0.90550946417E+01  0.34913459615E+02  0.54367181844E+02  0.40000222650E+02 0.  0.
        -12    1    3    3    0    0 -0.74046099427E+01  0.90550946417E+01 -0.34913459615E+02  0.36820818156E+02  0.00000000000E+00 0.  1.
         11    1    4    4    0    0  0.87259568303E+01 -0.61832614467E+01  0.10836133101E+02  0.15224875223E+02  0.51100000000E-03 0.  1.
        -11    1    4    4    0    0  0.10331156706E+02 -0.62085795162E+01 -0.14779936702E+00  0.12054090733E+02  0.51100000000E-03 0. -1.
        -12    1    4    4    0    0 -0.11652503594E+02  0.33367463212E+01  0.24225125881E+02  0.27088215888E+02  0.00000000000E+00 0.  1.
</event>
<event>
 8    1  0.2553474E-006  0.9118800E+02  0.7816164E-02  0.1184000E+00
        -11   -1    0    0    0    0  0.00000000000E+00  0.00000000000E+00  0.45593999997E+02  0.45594000000E+02  0.51100000000E-03 0.  1.
         11   -1    0    0    0    0 -0.00000000000E+00 -0.00000000000E+00 -0.45593999997E+02  0.45594000000E+02  0.51100000000E-03 0. -1.
         23    2    1    2    0    0 -0.35527136788E-14 -0.17763568394E-14  0.00000000000E+00  0.91188000000E+02  0.91188000000E+02 0.  0.
    9900012    2    3    3    0    0  0.24656357968E+02 -0.79629196399E+01 -0.26161497786E+02  0.54367244388E+02  0.40000365229E+02 0.  0.
        -12    1    3    3    0    0 -0.24656357968E+02  0.79629196399E+01  0.26161497786E+02  0.36820755612E+02  0.00000000000E+00 0.  1.
         11    1    4    4    0    0  0.22121800363E+02 -0.87723945183E+01 -0.48466906740E+01  0.24286197060E+02  0.51100000000E-03 0. -1.
        -11    1    4    4    0    0  0.39250241533E+01  0.10224411846E+02 -0.15324334470E+02  0.18835595011E+02  0.51100000000E-03 0.  1.
        -12    1    4    4    0    0 -0.13904665478E+01 -0.94149369680E+01 -0.59904726416E+01  0.11245452316E+02  0.00000000000E+00 0.  1.
</event>
<event>
 8    1  0.3361347E-006  0.9118800E+02  0.7816164E-02  0.1184000E+00
        -11   -1    0    0    0    0  0.00000000000E+00  0.00000000000E+00  0.45593999997E+02  0.45594000000E+02  0.51100000000E-03 0.  1.
         11   -1    0    0    0    0 -0.00000000000E+00 -0.00000000000E+00 -0.45593999997E+02  0.45594000000E+02  0.51100000000E-03 0. -1.
         23    2    1    2    0    0  0.35527136788E-14 -0.44408920985E-15  0.00000000000E+00  0.91188000000E+02  0.91188000000E+02 0.  0.
    9900012    2    3    3    0    0 -0.28793864739E+02 -0.32623282262E+01 -0.22716735459E+02  0.54367088795E+02  0.40000010525E+02 0.  0.
        -12    1    3    3    0    0  0.28793864739E+02  0.32623282262E+01  0.22716735459E+02  0.36820911205E+02  0.00000000000E+00 0.  1.
         11    1    4    4    0    0 -0.12148614337E+02 -0.51837799198E+01 -0.19454022818E+02  0.23514238423E+02  0.51100000000E-03 0. -1.
        -11    1    4    4    0    0 -0.96001757220E+01 -0.77678529356E+01 -0.11044434556E+02  0.16567511824E+02  0.51100000000E-03 0.  1.
        -12    1    4    4    0    0 -0.70450746801E+01  0.96893046292E+01  0.77817219148E+01  0.14285338547E+02  0.00000000000E+00 0.  1.
</event>
<event>
 8    1  0.2553474E-006  0.9118800E+02  0.7816164E-02  0.1184000E+00
        -11   -1    0    0    0    0  0.00000000000E+00  0.00000000000E+00  0.45593999997E+02  0.45594000000E+02  0.51100000000E-03 0.  1.
         11   -1    0    0    0    0 -0.00000000000E+00 -0.00000000000E+00 -0.45593999997E+02  0.45594000000E+02  0.51100000000E-03 0. -1.
         23    2    1    2    0    0  0.00000000000E+00  0.00000000000E+00  0.00000000000E+00  0.91188000000E+02  0.91188000000E+02 0.  0.
    9900012    2    3    3    0    0 -0.22769912475E+02 -0.28028514335E+02  0.71912171853E+01  0.54367080206E+02  0.39999990945E+02 0.  0.
         12    1    3    3    0    0  0.22769912475E+02  0.28028514335E+02 -0.71912171853E+01  0.36820919794E+02  0.00000000000E+00 0. -1.
         11    1    4    4    0    0  0.35887509933E+01  0.35975458791E+01  0.64909350235E+01  0.82434038955E+01  0.51100000000E-03 0. -1.
        -11    1    4    4    0    0 -0.23950682589E+02 -0.24082492849E+02 -0.74370297309E+01  0.34769398467E+02  0.51100000000E-03 0.  1.
         12    1    4    4    0    0 -0.24079808793E+01 -0.75435673648E+01  0.81373118927E+01  0.11354277843E+02  0.00000000000E+00 0. -1.
</event>
<event>
 8    1  0.2553474E-006  0.9118800E+02  0.7816164E-02  0.1184000E+00
        -11   -1    0    0    0    0  0.00000000000E+00  0.00000000000E+00  0.45593999997E+02  0.45594000000E+02  0.51100000000E-03 0.  1.
         11   -1    0    0    0    0 -0.00000000000E+00 -0.00000000000E+00 -0.45593999997E+02  0.45594000000E+02  0.51100000000E-03 0. -1.
         23    2    1    2    0    0  0.00000000000E+00  0.00000000000E+00  0.35527136788E-14  0.91188000000E+02  0.91188000000E+02 0.  0.
    9900012    2    3    3    0    0  0.15875911759E+02 -0.16729212016E+02  0.28703111807E+02  0.54367085614E+02  0.40000003274E+02 0.  0.
         12    1    3    3    0    0 -0.15875911759E+02  0.16729212016E+02 -0.28703111807E+02  0.36820914386E+02  0.00000000000E+00 0. -1.
         11    1    4    4    0    0  0.93150196030E+01 -0.10235757811E+02  0.43861501023E+01  0.14518217561E+02  0.51100000000E-03 0. -1.
        -11    1    4    4    0    0  0.92504559674E+01  0.62079458059E+01  0.24446441946E+02  0.26865182873E+02  0.51100000000E-03 0.  1.
         12    1    4    4    0    0 -0.26895638118E+01 -0.12701400010E+02 -0.12948024104E+00  0.12983685180E+02  0.00000000000E+00 0. -1.
</event>
<event>
 8    1  0.2553474E-006  0.9118800E+02  0.7816164E-02  0.1184000E+00
        -11   -1    0    0    0    0  0.00000000000E+00  0.00000000000E+00  0.45593999997E+02  0.45594000000E+02  0.51100000000E-03 0. -1.
         11   -1    0    0    0    0 -0.00000000000E+00 -0.00000000000E+00 -0.45593999997E+02  0.45594000000E+02  0.51100000000E-03 0.  1.
         23    2    1    2    0    0 -0.35527136788E-14  0.00000000000E+00  0.17763568394E-14  0.91188000000E+02  0.91188000000E+02 0.  0.
    9900012    2    3    3    0    0 -0.30465931037E+02 -0.13449116010E+02 -0.15707634840E+02  0.54367062103E+02  0.39999949675E+02 0.  0.
        -12    1    3    3    0    0  0.30465931037E+02  0.13449116010E+02  0.15707634840E+02  0.36820937897E+02  0.00000000000E+00 0.  1.
         11    1    4    4    0    0 -0.24538852347E+02  0.26792386895E+01  0.45973158990E+01  0.25109139934E+02  0.51100000000E-03 0. -1.
        -11    1    4    4    0    0 -0.61841765168E+01 -0.18044617264E+02 -0.19015032220E+02  0.26933690835E+02  0.51100000000E-03 0.  1.
         12    1    4    4    0    0  0.25709782726E+00  0.19162625646E+01 -0.12899185188E+01  0.23242313341E+01  0.00000000000E+00 0. -1.
</event>
<event>
 8    1  0.2553474E-006  0.9118800E+02  0.7816164E-02  0.1184000E+00
        -11   -1    0    0    0    0  0.00000000000E+00  0.00000000000E+00  0.45593999997E+02  0.45594000000E+02  0.51100000000E-03 0.  1.
         11   -1    0    0    0    0 -0.00000000000E+00 -0.00000000000E+00 -0.45593999997E+02  0.45594000000E+02  0.51100000000E-03 0. -1.
         23    2    1    2    0    0  0.00000000000E+00  0.71054273576E-14  0.00000000000E+00  0.91188000000E+02  0.91188000000E+02 0.  0.
    9900012    2    3    3    0    0  0.12579998175E+02 -0.33802074331E+02 -0.74127639185E+01  0.54367005281E+02  0.39999820139E+02 0.  0.
        -12    1    3    3    0    0 -0.12579998175E+02  0.33802074331E+02  0.74127639185E+01  0.36820994719E+02  0.00000000000E+00 0.  1.
         11    1    4    4    0    0  0.15926349189E+02 -0.21148075686E+02 -0.13068726261E+02  0.29524249526E+02  0.51100000000E-03 0. -1.
        -11    1    4    4    0    0 -0.20693931018E+01  0.16294119713E+01 -0.58769553524E+01  0.64401844428E+01  0.51100000000E-03 0.  1.
        -12    1    4    4    0    0 -0.12769579126E+01 -0.14283410616E+02  0.11532917695E+02  0.18402571313E+02  0.00000000000E+00 0.  1.
</event>
<event>
 8    1  0.2553474E-006  0.9118800E+02  0.7816164E-02  0.1184000E+00
        -11   -1    0    0    0    0  0.00000000000E+00  0.00000000000E+00  0.45593999997E+02  0.45594000000E+02  0.51100000000E-03 0.  1.
         11   -1    0    0    0    0 -0.00000000000E+00 -0.00000000000E+00 -0.45593999997E+02  0.45594000000E+02  0.51100000000E-03 0. -1.
         23    2    1    2    0    0  0.00000000000E+00  0.00000000000E+00  0.00000000000E+00  0.91188000000E+02  0.91188000000E+02 0.  0.
    9900012    2    3    3    0    0 -0.28123127893E+02  0.86337623507E+01  0.22143346408E+02  0.54367082508E+02  0.39999996193E+02 0.  0.
         12    1    3    3    0    0  0.28123127893E+02 -0.86337623507E+01 -0.22143346408E+02  0.36820917492E+02  0.00000000000E+00 0. -1.
         11    1    4    4    0    0 -0.23460202130E+02 -0.12849119164E+01  0.69834871002E+00  0.23505739167E+02  0.51100000000E-03 0.  1.
        -11    1    4    4    0    0 -0.23027751551E+01  0.75322869839E+01  0.24857102019E+02  0.26075153723E+02  0.51100000000E-03 0. -1.
         12    1    4    4    0    0 -0.23601506082E+01  0.23863872832E+01 -0.34121043212E+01  0.47861896178E+01  0.00000000000E+00 0. -1.
</event>
<event>
 8    1  0.2553474E-006  0.9118800E+02  0.7816164E-02  0.1184000E+00
        -11   -1    0    0    0    0  0.00000000000E+00  0.00000000000E+00  0.45593999997E+02  0.45594000000E+02  0.51100000000E-03 0.  1.
         11   -1    0    0    0    0 -0.00000000000E+00 -0.00000000000E+00 -0.45593999997E+02  0.45594000000E+02  0.51100000000E-03 0. -1.
         23    2    1    2    0    0  0.00000000000E+00  0.00000000000E+00  0.88817841970E-15  0.91188000000E+02  0.91188000000E+02 0.  0.
    9900012    2    3    3    0    0  0.34483843509E+02  0.10550386125E+02  0.74386872522E+01  0.54367079608E+02  0.39999989581E+02 0.  0.
         12    1    3    3    0    0 -0.34483843509E+02 -0.10550386125E+02 -0.74386872522E+01  0.36820920392E+02  0.00000000000E+00 0. -1.
         11    1    4    4    0    0 -0.86074182553E+00  0.87432741479E+01  0.76796468060E+01  0.11668877180E+02  0.51100000000E-03 0. -1.
        -11    1    4    4    0    0  0.18542064021E+02  0.11068121804E+02  0.61890857713E+01  0.22463664914E+02  0.51100000000E-03 0.  1.
         12    1    4    4    0    0  0.16802521313E+02 -0.92610098273E+01 -0.64300453251E+01  0.20234537513E+02  0.00000000000E+00 0. -1.
</event>
<event>
 8    1  0.2553474E-006  0.9118800E+02  0.7816164E-02  0.1184000E+00
        -11   -1    0    0    0    0  0.00000000000E+00  0.00000000000E+00  0.45593999997E+02  0.45594000000E+02  0.51100000000E-03 0.  1.
         11   -1    0    0    0    0 -0.00000000000E+00 -0.00000000000E+00 -0.45593999997E+02  0.45594000000E+02  0.51100000000E-03 0. -1.
         23    2    1    2    0    0  0.00000000000E+00  0.00000000000E+00  0.00000000000E+00  0.91188000000E+02  0.91188000000E+02 0.  0.
    9900012    2    3    3    0    0  0.21594873515E+02 -0.85009791424E+01  0.28586265982E+02  0.54367084595E+02  0.40000000950E+02 0.  0.
         12    1    3    3    0    0 -0.21594873515E+02  0.85009791424E+01 -0.28586265982E+02  0.36820915405E+02  0.00000000000E+00 0. -1.
         11    1    4    4    0    0  0.12174373355E+01 -0.76933301387E+01 -0.45757197107E+01  0.90336423120E+01  0.51100000000E-03 0. -1.
        -11    1    4    4    0    0  0.76930396237E+01 -0.59616450626E+01  0.29638821017E+02  0.31195893673E+02  0.51100000000E-03 0.  1.
        -12    1    4    4    0    0  0.12684396556E+02  0.51539960589E+01  0.35231646755E+01  0.14137548610E+02  0.00000000000E+00 0.  1.
</event>
<event>
 8    1  0.2553474E-006  0.9118800E+02  0.7816164E-02  0.1184000E+00
        -11   -1    0    0    0    0  0.00000000000E+00  0.00000000000E+00  0.45593999997E+02  0.45594000000E+02  0.51100000000E-03 0.  1.
         11   -1    0    0    0    0 -0.00000000000E+00 -0.00000000000E+00 -0.45593999997E+02  0.45594000000E+02  0.51100000000E-03 0. -1.
         23    2    1    2    0    0  0.35527136788E-14  0.35527136788E-14  0.35527136788E-14  0.91188000000E+02  0.91188000000E+02 0.  0.
    9900012    2    3    3    0    0  0.20029822803E+02 -0.27727413301E+02 -0.13629993419E+02  0.54367082433E+02  0.39999996023E+02 0.  0.
        -12    1    3    3    0    0 -0.20029822803E+02  0.27727413301E+02  0.13629993419E+02  0.36820917567E+02  0.00000000000E+00 0.  1.
         11    1    4    4    0    0  0.17303782794E+02  0.24488077445E+01  0.24814685273E+01  0.17651494120E+02  0.51100000000E-03 0. -1.
        -11    1    4    4    0    0  0.20186448302E+00 -0.11784649897E+02  0.51060420864E+00  0.11797433594E+02  0.51100000000E-03 0.  1.
         12    1    4    4    0    0  0.25241755252E+01 -0.18391571148E+02 -0.16622066154E+02  0.24918154719E+02  0.00000000000E+00 0. -1.
</event>
<event>
 8    1  0.2553474E-006  0.9118800E+02  0.7816164E-02  0.1184000E+00
        -11   -1    0    0    0    0  0.00000000000E+00  0.00000000000E+00  0.45593999997E+02  0.45594000000E+02  0.51100000000E-03 0. -1.
         11   -1    0    0    0    0 -0.00000000000E+00 -0.00000000000E+00 -0.45593999997E+02  0.45594000000E+02  0.51100000000E-03 0.  1.
         23    2    1    2    0    0  0.00000000000E+00  0.00000000000E+00  0.00000000000E+00  0.91188000000E+02  0.91188000000E+02 0.  0.
    9900012    2    3    3    0    0 -0.28654386311E+02  0.21141798930E+02  0.93661887445E+01  0.54367149814E+02  0.40000149630E+02 0.  0.
        -12    1    3    3    0    0  0.28654386311E+02 -0.21141798930E+02 -0.93661887445E+01  0.36820850186E+02  0.00000000000E+00 0.  1.
         11    1    4    4    0    0 -0.26034094164E+02  0.26280461801E+02  0.56611430557E+01  0.37423058031E+02  0.51100000000E-03 0. -1.
        -11    1    4    4    0    0  0.53630146757E+01 -0.47574822577E+01 -0.16075647689E+01  0.73470966097E+01  0.51100000000E-03 0.  1.
         12    1    4    4    0    0 -0.79833068224E+01 -0.38118061273E+00  0.53126104576E+01  0.95969951732E+01  0.00000000000E+00 0. -1.
</event>
<event>
 8    1  0.2553474E-006  0.9118800E+02  0.7816164E-02  0.1184000E+00
        -11   -1    0    0    0    0  0.00000000000E+00  0.00000000000E+00  0.45593999997E+02  0.45594000000E+02  0.51100000000E-03 0.  1.
         11   -1    0    0    0    0 -0.00000000000E+00 -0.00000000000E+00 -0.45593999997E+02  0.45594000000E+02  0.51100000000E-03 0. -1.
         23    2    1    2    0    0  0.26645352591E-14  0.35527136788E-14 -0.35527136788E-14  0.91188000000E+02  0.91188000000E+02 0.  0.
    9900012    2    3    3    0    0  0.26113274940E+01  0.18401040261E+02  0.31786201986E+02  0.54367082702E+02  0.39999996636E+02 0.  0.
         12    1    3    3    0    0 -0.26113274940E+01 -0.18401040261E+02 -0.31786201986E+02  0.36820917298E+02  0.00000000000E+00 0. -1.
         11    1    4    4    0    0 -0.55780362396E+01 -0.69606967033E+01  0.23659140137E+00  0.89231027472E+01  0.51100000000E-03 0. -1.
        -11    1    4    4    0    0  0.35496241700E+01  0.53495031770E+01  0.21760510291E+02  0.22687812243E+02  0.51100000000E-03 0.  1.
         12    1    4    4    0    0  0.46397395635E+01  0.20012233787E+02  0.97891002928E+01  0.22756167712E+02  0.00000000000E+00 0. -1.
</event>
<event>
 8    1  0.2553474E-006  0.9118800E+02  0.7816164E-02  0.1184000E+00
        -11   -1    0    0    0    0  0.00000000000E+00  0.00000000000E+00  0.45593999997E+02  0.45594000000E+02  0.51100000000E-03 0.  1.
         11   -1    0    0    0    0 -0.00000000000E+00 -0.00000000000E+00 -0.45593999997E+02  0.45594000000E+02  0.51100000000E-03 0. -1.
         23    2    1    2    0    0  0.35527136788E-14  0.00000000000E+00  0.00000000000E+00  0.91188000000E+02  0.91188000000E+02 0.  0.
    9900012    2    3    3    0    0  0.27840539322E+02  0.13996715849E+02 -0.19615716819E+02  0.54367081616E+02  0.39999994160E+02 0.  0.
        -12    1    3    3    0    0 -0.27840539322E+02 -0.13996715849E+02  0.19615716819E+02  0.36820918384E+02  0.00000000000E+00 0.  1.
         11    1    4    4    0    0  0.98966429716E+01  0.16336562788E+02 -0.44942696117E+01  0.19622061193E+02  0.51100000000E-03 0. -1.
        -11    1    4    4    0    0  0.16266800081E+02  0.21562152894E+01 -0.21321592501E+02  0.26904801732E+02  0.51100000000E-03 0.  1.
         12    1    4    4    0    0  0.16770962703E+01 -0.44960622288E+01  0.62001452933E+01  0.78402186910E+01  0.00000000000E+00 0. -1.
</event>
<event>
 8    1  0.2553474E-006  0.9118800E+02  0.7816164E-02  0.1184000E+00
        -11   -1    0    0    0    0  0.00000000000E+00  0.00000000000E+00  0.45593999997E+02  0.45594000000E+02  0.51100000000E-03 0. -1.
         11   -1    0    0    0    0 -0.00000000000E+00 -0.00000000000E+00 -0.45593999997E+02  0.45594000000E+02  0.51100000000E-03 0.  1.
         23    2    1    2    0    0  0.35527136788E-14  0.00000000000E+00  0.00000000000E+00  0.91188000000E+02  0.91188000000E+02 0.  0.
    9900012    2    3    3    0    0 -0.12862629184E+02 -0.27002516523E+02  0.21475472240E+02  0.54367095122E+02  0.40000024950E+02 0.  0.
        -12    1    3    3    0    0  0.12862629184E+02  0.27002516523E+02 -0.21475472240E+02  0.36820904878E+02  0.00000000000E+00 0.  1.
         11    1    4    4    0    0  0.79261163098E+01 -0.17045266300E+02  0.10028756051E+02  0.21305876447E+02  0.51100000000E-03 0. -1.
        -11    1    4    4    0    0  0.38088648986E+01  0.22257768024E+00 -0.56301858575E+00  0.38566802861E+01  0.51100000000E-03 0.  1.
        -12    1    4    4    0    0 -0.24597610392E+02 -0.10179827904E+02  0.12009734775E+02  0.29204538389E+02  0.00000000000E+00 0.  1.
</event>
<event>
 8    1  0.2553474E-006  0.9118800E+02  0.7816164E-02  0.1184000E+00
        -11   -1    0    0    0    0  0.00000000000E+00  0.00000000000E+00  0.45593999997E+02  0.45594000000E+02  0.51100000000E-03 0. -1.
         11   -1    0    0    0    0 -0.00000000000E+00 -0.00000000000E+00 -0.45593999997E+02  0.45594000000E+02  0.51100000000E-03 0.  1.
         23    2    1    2    0    0  0.35527136788E-14  0.00000000000E+00 -0.66613381478E-15  0.91188000000E+02  0.91188000000E+02 0.  0.
    9900012    2    3    3    0    0 -0.23741223475E+02  0.28102421796E+02 -0.15449071893E+01  0.54367101842E+02  0.40000040270E+02 0.  0.
         12    1    3    3    0    0  0.23741223475E+02 -0.28102421796E+02  0.15449071893E+01  0.36820898158E+02  0.00000000000E+00 0. -1.
         11    1    4    4    0    0 -0.39933186030E+00  0.29831807604E+01 -0.11448830042E+02  0.11837843679E+02  0.51100000000E-03 0. -1.
        -11    1    4    4    0    0 -0.10494874820E+02  0.44315458257E+01  0.13770595728E+02  0.17872053684E+02  0.51100000000E-03 0.  1.
        -12    1    4    4    0    0 -0.12847016794E+02  0.20687695210E+02 -0.38666728761E+01  0.24657204480E+02  0.00000000000E+00 0.  1.
</event>
<event>
 8    1  0.2553474E-006  0.9118800E+02  0.7816164E-02  0.1184000E+00
        -11   -1    0    0    0    0  0.00000000000E+00  0.00000000000E+00  0.45593999997E+02  0.45594000000E+02  0.51100000000E-03 0. -1.
         11   -1    0    0    0    0 -0.00000000000E+00 -0.00000000000E+00 -0.45593999997E+02  0.45594000000E+02  0.51100000000E-03 0.  1.
         23    2    1    2    0    0  0.00000000000E+00  0.71054273576E-14  0.17763568394E-14  0.91188000000E+02  0.91188000000E+02 0.  0.
    9900012    2    3    3    0    0  0.75073460376E+01  0.33493185794E+02 -0.13327619494E+02  0.54367093160E+02  0.40000020477E+02 0.  0.
         12    1    3    3    0    0 -0.75073460376E+01 -0.33493185794E+02  0.13327619494E+02  0.36820906840E+02  0.00000000000E+00 0. -1.
         11    1    4    4    0    0 -0.65688759144E+01  0.13893496431E+02  0.45890111469E+00  0.15374978516E+02  0.51100000000E-03 0. -1.
        -11    1    4    4    0    0  0.91373172170E+01 -0.46849256419E+01  0.69060073703E+00  0.10291551090E+02  0.51100000000E-03 0.  1.
        -12    1    4    4    0    0  0.49389047350E+01  0.24284615004E+02 -0.14477121346E+02  0.28700563555E+02  0.00000000000E+00 0.  1.
</event>
<event>
 8    1  0.2553474E-006  0.9118800E+02  0.7816164E-02  0.1184000E+00
        -11   -1    0    0    0    0  0.00000000000E+00  0.00000000000E+00  0.45593999997E+02  0.45594000000E+02  0.51100000000E-03 0.  1.
         11   -1    0    0    0    0 -0.00000000000E+00 -0.00000000000E+00 -0.45593999997E+02  0.45594000000E+02  0.51100000000E-03 0. -1.
         23    2    1    2    0    0  0.00000000000E+00  0.00000000000E+00  0.00000000000E+00  0.91188000000E+02  0.91188000000E+02 0.  0.
    9900012    2    3    3    0    0  0.92530177514E+01 -0.13911431313E+02 -0.32812100361E+02  0.54367079469E+02  0.39999989265E+02 0.  0.
        -12    1    3    3    0    0 -0.92530177514E+01  0.13911431313E+02  0.32812100361E+02  0.36820920531E+02  0.00000000000E+00 0.  1.
         11    1    4    4    0    0  0.72283976740E+01  0.10767261656E+02 -0.55244789518E+00  0.12980325706E+02  0.51100000000E-03 0. -1.
        -11    1    4    4    0    0  0.37305349790E+01 -0.21613360683E+02 -0.24574125638E+02  0.32938456284E+02  0.51100000000E-03 0.  1.
         12    1    4    4    0    0 -0.17059149016E+01 -0.30653322854E+01 -0.76855268275E+01  0.84482974786E+01  0.00000000000E+00 0. -1.
</event>
<event>
 8    1  0.2553474E-006  0.9118800E+02  0.7816164E-02  0.1184000E+00
        -11   -1    0    0    0    0  0.00000000000E+00  0.00000000000E+00  0.45593999997E+02  0.45594000000E+02  0.51100000000E-03 0.  1.
         11   -1    0    0    0    0 -0.00000000000E+00 -0.00000000000E+00 -0.45593999997E+02  0.45594000000E+02  0.51100000000E-03 0. -1.
         23    2    1    2    0    0  0.35527136788E-14  0.35527136788E-14  0.00000000000E+00  0.91188000000E+02  0.91188000000E+02 0.  0.
    9900012    2    3    3    0    0  0.28425585628E+02  0.17134722285E+02 -0.15942787097E+02  0.54367012961E+02  0.39999837648E+02 0.  0.
        -12    1    3    3    0    0 -0.28425585628E+02 -0.17134722285E+02  0.15942787097E+02  0.36820987039E+02  0.00000000000E+00 0.  1.
         11    1    4    4    0    0  0.12582163592E+02  0.13662320322E+02 -0.14113627872E+02  0.23327330092E+02  0.51100000000E-03 0. -1.
        -11    1    4    4    0    0  0.10212289057E+02  0.14926120886E+02 -0.25085036945E+01  0.18258491819E+02  0.51100000000E-03 0.  1.
        -12    1    4    4    0    0  0.56311329781E+01 -0.11453718922E+02  0.67934446958E+00  0.12781191050E+02  0.00000000000E+00 0.  1.
</event>
<event>
 8    1  0.3225750E-006  0.9118800E+02  0.7816164E-02  0.1184000E+00
        -11   -1    0    0    0    0  0.00000000000E+00  0.00000000000E+00  0.45593999997E+02  0.45594000000E+02  0.51100000000E-03 0.  1.
         11   -1    0    0    0    0 -0.00000000000E+00 -0.00000000000E+00 -0.45593999997E+02  0.45594000000E+02  0.51100000000E-03 0. -1.
         23    2    1    2    0    0  0.88817841970E-15  0.71054273576E-14  0.00000000000E+00  0.91188000000E+02  0.91188000000E+02 0.  0.
    9900012    2    3    3    0    0 -0.71293254712E+01 -0.28437554217E+02 -0.22276805011E+02  0.54367111730E+02  0.40000062810E+02 0.  0.
        -12    1    3    3    0    0  0.71293254712E+01  0.28437554217E+02  0.22276805011E+02  0.36820888270E+02  0.00000000000E+00 0.  1.
         11    1    4    4    0    0  0.99262934593E+00 -0.18081192310E+02 -0.22529760998E+02  0.28905102651E+02  0.51100000000E-03 0. -1.
        -11    1    4    4    0    0 -0.85011427925E+01 -0.13607506317E+02 -0.69995675714E+01  0.17505073647E+02  0.51100000000E-03 0.  1.
        -12    1    4    4    0    0  0.37918797533E+00  0.32511444096E+01  0.72525235586E+01  0.79569354315E+01  0.00000000000E+00 0.  1.
</event>
<event>
 8    1  0.2553474E-006  0.9118800E+02  0.7816164E-02  0.1184000E+00
        -11   -1    0    0    0    0  0.00000000000E+00  0.00000000000E+00  0.45593999997E+02  0.45594000000E+02  0.51100000000E-03 0.  1.
         11   -1    0    0    0    0 -0.00000000000E+00 -0.00000000000E+00 -0.45593999997E+02  0.45594000000E+02  0.51100000000E-03 0. -1.
         23    2    1    2    0    0 -0.66613381478E-15  0.71054273576E-14 -0.17763568394E-14  0.91188000000E+02  0.91188000000E+02 0.  0.
    9900012    2    3    3    0    0 -0.60176241754E+00  0.33925672221E+02  0.14299173672E+02  0.54367085816E+02  0.40000003735E+02 0.  0.
         12    1    3    3    0    0  0.60176241754E+00 -0.33925672221E+02 -0.14299173672E+02  0.36820914184E+02  0.00000000000E+00 0. -1.
         11    1    4    4    0    0  0.81250633088E+01 -0.11663000043E+01  0.43185433295E+01  0.92750593649E+01  0.51100000000E-03 0. -1.
        -11    1    4    4    0    0 -0.55828408899E+01 -0.17405340067E+01  0.51856110054E+01  0.78158897632E+01  0.51100000000E-03 0.  1.
        -12    1    4    4    0    0 -0.31439848365E+01  0.36832506232E+02  0.47950193372E+01  0.37276136688E+02  0.00000000000E+00 0.  1.
</event>
<event>
 8    1  0.2553474E-006  0.9118800E+02  0.7816164E-02  0.1184000E+00
        -11   -1    0    0    0    0  0.00000000000E+00  0.00000000000E+00  0.45593999997E+02  0.45594000000E+02  0.51100000000E-03 0.  1.
         11   -1    0    0    0    0 -0.00000000000E+00 -0.00000000000E+00 -0.45593999997E+02  0.45594000000E+02  0.51100000000E-03 0. -1.
         23    2    1    2    0    0 -0.44408920985E-15  0.00000000000E+00  0.00000000000E+00  0.91188000000E+02  0.91188000000E+02 0.  0.
    9900012    2    3    3    0    0 -0.25301873018E+01  0.99214458701E+01 -0.35368671832E+02  0.54367083619E+02  0.39999998727E+02 0.  0.
        -12    1    3    3    0    0  0.25301873018E+01 -0.99214458701E+01  0.35368671832E+02  0.36820916381E+02  0.00000000000E+00 0.  1.
         11    1    4    4    0    0  0.98279154740E+01  0.53811532764E+01 -0.88267172825E+01  0.14263788816E+02  0.51100000000E-03 0. -1.
        -11    1    4    4    0    0  0.75825098391E+01 -0.25929003312E+01 -0.11937490452E+02  0.14377804635E+02  0.51100000000E-03 0.  1.
         12    1    4    4    0    0 -0.19940612615E+02  0.71331929248E+01 -0.14604464098E+02  0.25725490167E+02  0.00000000000E+00 0. -1.
</event>
<event>
 8    1  0.2553474E-006  0.9118800E+02  0.7816164E-02  0.1184000E+00
        -11   -1    0    0    0    0  0.00000000000E+00  0.00000000000E+00  0.45593999997E+02  0.45594000000E+02  0.51100000000E-03 0. -1.
         11   -1    0    0    0    0 -0.00000000000E+00 -0.00000000000E+00 -0.45593999997E+02  0.45594000000E+02  0.51100000000E-03 0.  1.
         23    2    1    2    0    0  0.00000000000E+00  0.00000000000E+00  0.35527136788E-14  0.91188000000E+02  0.91188000000E+02 0.  0.
    9900012    2    3    3    0    0  0.15349489889E+02  0.16162570483E+02  0.29307757691E+02  0.54367079515E+02  0.39999989370E+02 0.  0.
        -12    1    3    3    0    0 -0.15349489889E+02 -0.16162570483E+02 -0.29307757691E+02  0.36820920485E+02  0.00000000000E+00 0.  1.
         11    1    4    4    0    0  0.11341269934E+02 -0.50640575381E-01  0.58086766434E+01  0.12742358212E+02  0.51100000000E-03 0. -1.
        -11    1    4    4    0    0  0.85913535984E+01  0.20100915710E+02  0.26944871381E+02  0.34697035364E+02  0.51100000000E-03 0.  1.
         12    1    4    4    0    0 -0.45831336438E+01 -0.38877046511E+01 -0.34457903335E+01  0.69276859393E+01  0.00000000000E+00 0. -1.
</event>
<event>
 8    1  0.2607214E-006  0.9118800E+02  0.7816164E-02  0.1184000E+00
        -11   -1    0    0    0    0  0.00000000000E+00  0.00000000000E+00  0.45593999997E+02  0.45594000000E+02  0.51100000000E-03 0.  1.
         11   -1    0    0    0    0 -0.00000000000E+00 -0.00000000000E+00 -0.45593999997E+02  0.45594000000E+02  0.51100000000E-03 0. -1.
         23    2    1    2    0    0  0.00000000000E+00  0.35527136788E-14  0.00000000000E+00  0.91188000000E+02  0.91188000000E+02 0.  0.
    9900012    2    3    3    0    0  0.11432556090E+02 -0.17778748555E+02  0.30149516877E+02  0.54367073791E+02  0.39999976322E+02 0.  0.
         12    1    3    3    0    0 -0.11432556090E+02  0.17778748555E+02 -0.30149516877E+02  0.36820926209E+02  0.00000000000E+00 0. -1.
         11    1    4    4    0    0 -0.57469158677E+01 -0.53632211174E+01  0.14317926670E+02  0.16333836265E+02  0.51100000000E-03 0. -1.
        -11    1    4    4    0    0  0.46586215499E+01  0.28307538637E+01  0.17408116753E+02  0.18241667997E+02  0.51100000000E-03 0.  1.
         12    1    4    4    0    0  0.12520850408E+02 -0.15246281302E+02 -0.15765265457E+01  0.19791569529E+02  0.00000000000E+00 0. -1.
</event>
<event>
 8    1  0.2553474E-006  0.9118800E+02  0.7816164E-02  0.1184000E+00
        -11   -1    0    0    0    0  0.00000000000E+00  0.00000000000E+00  0.45593999997E+02  0.45594000000E+02  0.51100000000E-03 0.  1.
         11   -1    0    0    0    0 -0.00000000000E+00 -0.00000000000E+00 -0.45593999997E+02  0.45594000000E+02  0.51100000000E-03 0. -1.
         23    2    1    2    0    0  0.35527136788E-14  0.00000000000E+00 -0.35527136788E-14  0.91188000000E+02  0.91188000000E+02 0.  0.
    9900012    2    3    3    0    0  0.28560003577E+02 -0.90138039973E+01  0.21420909313E+02  0.54367111599E+02  0.40000062512E+02 0.  0.
         12    1    3    3    0    0 -0.28560003577E+02  0.90138039973E+01 -0.21420909313E+02  0.36820888401E+02  0.00000000000E+00 0. -1.
         11    1    4    4    0    0  0.10984211078E+02  0.51569951530E+01 -0.18063496925E+01  0.12268267664E+02  0.51100000000E-03 0. -1.
        -11    1    4    4    0    0  0.33592083703E+00 -0.14875967930E+02  0.24315092562E+01  0.15077118498E+02  0.51100000000E-03 0.  1.
        -12    1    4    4    0    0  0.17239871662E+02  0.70516878011E+00  0.20795749750E+02  0.27021725437E+02  0.00000000000E+00 0.  1.
</event>
<event>
 8    1  0.2553474E-006  0.9118800E+02  0.7816164E-02  0.1184000E+00
        -11   -1    0    0    0    0  0.00000000000E+00  0.00000000000E+00  0.45593999997E+02  0.45594000000E+02  0.51100000000E-03 0. -1.
         11   -1    0    0    0    0 -0.00000000000E+00 -0.00000000000E+00 -0.45593999997E+02  0.45594000000E+02  0.51100000000E-03 0.  1.
         23    2    1    2    0    0  0.00000000000E+00  0.00000000000E+00  0.00000000000E+00  0.91188000000E+02  0.91188000000E+02 0.  0.
    9900012    2    3    3    0    0  0.34069987274E+02  0.46588225202E+01 -0.13164851930E+02  0.54367055057E+02  0.39999933614E+02 0.  0.
        -12    1    3    3    0    0 -0.34069987274E+02 -0.46588225202E+01  0.13164851930E+02  0.36820944943E+02  0.00000000000E+00 0.  1.
         11    1    4    4    0    0  0.34390642449E+02  0.52212245866E+01 -0.52614498867E+01  0.35180396948E+02  0.51100000000E-03 0. -1.
        -11    1    4    4    0    0  0.83815548748E+01  0.10927011091E+01 -0.52050741830E+01  0.99265933404E+01  0.51100000000E-03 0.  1.
        -12    1    4    4    0    0 -0.87022100500E+01 -0.16551031756E+01 -0.26983278604E+01  0.92600647685E+01  0.00000000000E+00 0.  1.
</event>
<event>
 8    1  0.2553474E-006  0.9118800E+02  0.7816164E-02  0.1184000E+00
        -11   -1    0    0    0    0  0.00000000000E+00  0.00000000000E+00  0.45593999997E+02  0.45594000000E+02  0.51100000000E-03 0. -1.
         11   -1    0    0    0    0 -0.00000000000E+00 -0.00000000000E+00 -0.45593999997E+02  0.45594000000E+02  0.51100000000E-03 0.  1.
         23    2    1    2    0    0  0.00000000000E+00  0.00000000000E+00  0.00000000000E+00  0.91188000000E+02  0.91188000000E+02 0.  0.
    9900012    2    3    3    0    0  0.34605572978E+01  0.24198992159E+01  0.36577938370E+02  0.54367123524E+02  0.40000089698E+02 0.  0.
        -12    1    3    3    0    0 -0.34605572978E+01 -0.24198992159E+01 -0.36577938370E+02  0.36820876476E+02  0.00000000000E+00 0.  1.
         11    1    4    4    0    0  0.12723970392E+02  0.44436682016E+01  0.12940984758E+02  0.18684611218E+02  0.51100000000E-03 0. -1.
        -11    1    4    4    0    0  0.38166433100E+01 -0.99319350039E+01  0.55449814754E+01  0.11998204820E+02  0.51100000000E-03 0.  1.
         12    1    4    4    0    0 -0.13080056404E+02  0.79081660182E+01  0.18091972137E+02  0.23684307486E+02  0.00000000000E+00 0. -1.
</event>
<event>
 8    1  0.2553474E-006  0.9118800E+02  0.7816164E-02  0.1184000E+00
        -11   -1    0    0    0    0  0.00000000000E+00  0.00000000000E+00  0.45593999997E+02  0.45594000000E+02  0.51100000000E-03 0.  1.
         11   -1    0    0    0    0 -0.00000000000E+00 -0.00000000000E+00 -0.45593999997E+02  0.45594000000E+02  0.51100000000E-03 0. -1.
         23    2    1    2    0    0  0.00000000000E+00  0.00000000000E+00  0.00000000000E+00  0.91188000000E+02  0.91188000000E+02 0.  0.
    9900012    2    3    3    0    0 -0.99241684647E+01 -0.20485291810E+02  0.28942068357E+02  0.54367087178E+02  0.40000006840E+02 0.  0.
         12    1    3    3    0    0  0.99241684647E+01  0.20485291810E+02 -0.28942068357E+02  0.36820912822E+02  0.00000000000E+00 0. -1.
         11    1    4    4    0    0 -0.33422384257E+01 -0.15855795113E+02  0.88150682730E+01  0.18446740234E+02  0.51100000000E-03 0. -1.
        -11    1    4    4    0    0 -0.55329011407E+01 -0.15895999333E+02  0.61098228383E+01  0.17906024830E+02  0.51100000000E-03 0.  1.
         12    1    4    4    0    0 -0.10490288982E+01  0.11266502636E+02  0.14017177246E+02  0.18014322114E+02  0.00000000000E+00 0. -1.
</event>
<event>
 8    1  0.2553474E-006  0.9118800E+02  0.7816164E-02  0.1184000E+00
        -11   -1    0    0    0    0  0.00000000000E+00  0.00000000000E+00  0.45593999997E+02  0.45594000000E+02  0.51100000000E-03 0.  1.
         11   -1    0    0    0    0 -0.00000000000E+00 -0.00000000000E+00 -0.45593999997E+02  0.45594000000E+02  0.51100000000E-03 0. -1.
         23    2    1    2    0    0  0.00000000000E+00  0.00000000000E+00  0.00000000000E+00  0.91188000000E+02  0.91188000000E+02 0.  0.
    9900012    2    3    3    0    0 -0.69655203480E+01 -0.22318971436E+02 -0.28444949472E+02  0.54367216329E+02  0.40000301265E+02 0.  0.
         12    1    3    3    0    0  0.69655203480E+01  0.22318971436E+02  0.28444949472E+02  0.36820783671E+02  0.00000000000E+00 0. -1.
         11    1    4    4    0    0 -0.66236491635E+01  0.27877757020E+01 -0.76518309067E+01  0.10497377677E+02  0.51100000000E-03 0. -1.
        -11    1    4    4    0    0 -0.26393364231E+01 -0.25948434835E+02 -0.26791997703E+02  0.37391155483E+02  0.51100000000E-03 0.  1.
        -12    1    4    4    0    0  0.22974652387E+01  0.84168769694E+00  0.59988791381E+01  0.64786831698E+01  0.00000000000E+00 0.  1.
</event>
<event>
 8    1  0.2553474E-006  0.9118800E+02  0.7816164E-02  0.1184000E+00
        -11   -1    0    0    0    0  0.00000000000E+00  0.00000000000E+00  0.45593999997E+02  0.45594000000E+02  0.51100000000E-03 0. -1.
         11   -1    0    0    0    0 -0.00000000000E+00 -0.00000000000E+00 -0.45593999997E+02  0.45594000000E+02  0.51100000000E-03 0.  1.
         23    2    1    2    0    0  0.00000000000E+00  0.00000000000E+00  0.00000000000E+00  0.91188000000E+02  0.91188000000E+02 0.  0.
    9900012    2    3    3    0    0 -0.12857655270E+02  0.19394821610E+02  0.28535990678E+02  0.54367066167E+02  0.39999958941E+02 0.  0.
        -12    1    3    3    0    0  0.12857655270E+02 -0.19394821610E+02 -0.28535990678E+02  0.36820933833E+02  0.00000000000E+00 0.  1.
         11    1    4    4    0    0 -0.33050801060E+01 -0.22651220623E+01  0.52000610505E+01  0.65646757463E+01  0.51100000000E-03 0. -1.
        -11    1    4    4    0    0 -0.87104047836E+01  0.14913269942E+02  0.32254787105E+02  0.36587539727E+02  0.51100000000E-03 0.  1.
        -12    1    4    4    0    0 -0.84217038000E+00  0.67466737307E+01 -0.89188574771E+01  0.11214850693E+02  0.00000000000E+00 0.  1.
</event>
<event>
 8    1  0.2553474E-006  0.9118800E+02  0.7816164E-02  0.1184000E+00
        -11   -1    0    0    0    0  0.00000000000E+00  0.00000000000E+00  0.45593999997E+02  0.45594000000E+02  0.51100000000E-03 0.  1.
         11   -1    0    0    0    0 -0.00000000000E+00 -0.00000000000E+00 -0.45593999997E+02  0.45594000000E+02  0.51100000000E-03 0. -1.
         23    2    1    2    0    0  0.00000000000E+00 -0.35527136788E-14  0.00000000000E+00  0.91188000000E+02  0.91188000000E+02 0.  0.
    9900012    2    3    3    0    0  0.24266200652E+02  0.26236141498E+02 -0.88654512234E+01  0.54367084203E+02  0.40000000057E+02 0.  0.
        -12    1    3    3    0    0 -0.24266200652E+02 -0.26236141498E+02  0.88654512234E+01  0.36820915797E+02  0.00000000000E+00 0.  1.
         11    1    4    4    0    0  0.15709137670E+02  0.14205739316E+02  0.50721362296E+01  0.21778581268E+02  0.51100000000E-03 0. -1.
        -11    1    4    4    0    0  0.85793966624E+01  0.17752578067E+02 -0.25986540684E+01  0.19887510612E+02  0.51100000000E-03 0.  1.
         12    1    4    4    0    0 -0.22333681008E-01 -0.57221758860E+01 -0.11338933385E+02  0.12700992322E+02  0.00000000000E+00 0. -1.
</event>
<event>
 8    1  0.2553474E-006  0.9118800E+02  0.7816164E-02  0.1184000E+00
        -11   -1    0    0    0    0  0.00000000000E+00  0.00000000000E+00  0.45593999997E+02  0.45594000000E+02  0.51100000000E-03 0.  1.
         11   -1    0    0    0    0 -0.00000000000E+00 -0.00000000000E+00 -0.45593999997E+02  0.45594000000E+02  0.51100000000E-03 0. -1.
         23    2    1    2    0    0  0.44408920985E-15 -0.35527136788E-14 -0.71054273576E-14  0.91188000000E+02  0.91188000000E+02 0.  0.
    9900012    2    3    3    0    0 -0.33695173099E+01 -0.17860306173E+02 -0.32022424984E+02  0.54367083589E+02  0.39999998658E+02 0.  0.
        -12    1    3    3    0    0  0.33695173099E+01  0.17860306173E+02  0.32022424984E+02  0.36820916411E+02  0.00000000000E+00 0.  1.
         11    1    4    4    0    0 -0.23010538837E+01  0.81923259165E+01 -0.14704169465E+01  0.86354605641E+01  0.51100000000E-03 0. -1.
        -11    1    4    4    0    0  0.24726209302E+01 -0.12337829863E+02 -0.59797104279E+00  0.12597359629E+02  0.51100000000E-03 0.  1.
         12    1    4    4    0    0 -0.35410843564E+01 -0.13714802226E+02 -0.29954036995E+02  0.33134263396E+02  0.00000000000E+00 0. -1.
</event>
<event>
 8    1  0.2553474E-006  0.9118800E+02  0.7816164E-02  0.1184000E+00
        -11   -1    0    0    0    0  0.00000000000E+00  0.00000000000E+00  0.45593999997E+02  0.45594000000E+02  0.51100000000E-03 0. -1.
         11   -1    0    0    0    0 -0.00000000000E+00 -0.00000000000E+00 -0.45593999997E+02  0.45594000000E+02  0.51100000000E-03 0.  1.
         23    2    1    2    0    0  0.00000000000E+00  0.00000000000E+00  0.00000000000E+00  0.91188000000E+02  0.91188000000E+02 0.  0.
    9900012    2    3    3    0    0  0.78596287941E+01  0.62213473290E+01  0.35430247409E+02  0.54367063580E+02  0.39999953044E+02 0.  0.
        -12    1    3    3    0    0 -0.78596287941E+01 -0.62213473290E+01 -0.35430247409E+02  0.36820936420E+02  0.00000000000E+00 0.  1.
         11    1    4    4    0    0 -0.11350004136E+01  0.33801127486E+01  0.75677888109E+01  0.83656927914E+01  0.51100000000E-03 0. -1.
        -11    1    4    4    0    0 -0.12232804168E+01  0.11328473591E+02  0.30411478774E+02  0.32475972201E+02  0.51100000000E-03 0.  1.
        -12    1    4    4    0    0  0.10217909624E+02 -0.84872390109E+01 -0.25490201762E+01  0.13525398589E+02  0.00000000000E+00 0.  1.
</event>
<event>
 8    1  0.2553474E-006  0.9118800E+02  0.7816164E-02  0.1184000E+00
        -11   -1    0    0    0    0  0.00000000000E+00  0.00000000000E+00  0.45593999997E+02  0.45594000000E+02  0.51100000000E-03 0.  1.
         11   -1    0    0    0    0 -0.00000000000E+00 -0.00000000000E+00 -0.45593999997E+02  0.45594000000E+02  0.51100000000E-03 0. -1.
         23    2    1    2    0    0  0.00000000000E+00 -0.35527136788E-14  0.35527136788E-14  0.91188000000E+02  0.91188000000E+02 0.  0.
    9900012    2    3    3    0    0 -0.17495385565E+02  0.23183105107E+02  0.22632662246E+02  0.54367051088E+02  0.39999924565E+02 0.  0.
         12    1    3    3    0    0  0.17495385565E+02 -0.23183105107E+02 -0.22632662246E+02  0.36820948912E+02  0.00000000000E+00 0. -1.
         11    1    4    4    0    0 -0.11183735108E+02 -0.42518548692E+01  0.16130327757E+02  0.20083368109E+02  0.51100000000E-03 0. -1.
        -11    1    4    4    0    0 -0.47577093380E+01  0.51184615775E+01 -0.55034784601E+01  0.88950954175E+01  0.51100000000E-03 0.  1.
        -12    1    4    4    0    0 -0.15539411184E+01  0.22316498399E+02  0.12005812949E+02  0.25388587561E+02  0.00000000000E+00 0.  1.
</event>
<event>
 8    1  0.2553474E-006  0.9118800E+02  0.7816164E-02  0.1184000E+00
        -11   -1    0    0    0    0  0.00000000000E+00  0.00000000000E+00  0.45593999997E+02  0.45594000000E+02  0.51100000000E-03 0. -1.
         11   -1    0    0    0    0 -0.00000000000E+00 -0.00000000000E+00 -0.45593999997E+02  0.45594000000E+02  0.51100000000E-03 0.  1.
         23    2    1    2    0    0  0.88817841970E-15  0.35527136788E-14 -0.35527136788E-14  0.91188000000E+02  0.91188000000E+02 0.  0.
    9900012    2    3    3    0    0 -0.17373912514E+01 -0.30725598023E+02 -0.20216297794E+02  0.54367087481E+02  0.40000007531E+02 0.  0.
         12    1    3    3    0    0  0.17373912514E+01  0.30725598023E+02  0.20216297794E+02  0.36820912519E+02  0.00000000000E+00 0. -1.
         11    1    4    4    0    0  0.59482123103E+01 -0.11257093757E+01 -0.15011757401E+01  0.62371451924E+01  0.51100000000E-03 0. -1.
        -11    1    4    4    0    0  0.44756355640E+01 -0.27246512868E+02 -0.24995321382E+01  0.27724563808E+02  0.51100000000E-03 0.  1.
         12    1    4    4    0    0 -0.12161239126E+02 -0.23533757789E+01 -0.16215589916E+02  0.20405378481E+02  0.00000000000E+00 0. -1.
</event>
<event>
 8    1  0.2553474E-006  0.9118800E+02  0.7816164E-02  0.1184000E+00
        -11   -1    0    0    0    0  0.00000000000E+00  0.00000000000E+00  0.45593999997E+02  0.45594000000E+02  0.51100000000E-03 0. -1.
         11   -1    0    0    0    0 -0.00000000000E+00 -0.00000000000E+00 -0.45593999997E+02  0.45594000000E+02  0.51100000000E-03 0.  1.
         23    2    1    2    0    0  0.00000000000E+00  0.88817841970E-15  0.35527136788E-14  0.91188000000E+02  0.91188000000E+02 0.  0.
    9900012    2    3    3    0    0  0.22479101273E+02 -0.53619935651E+01 -0.28665666972E+02  0.54367062586E+02  0.39999950778E+02 0.  0.
         12    1    3    3    0    0 -0.22479101273E+02  0.53619935651E+01  0.28665666972E+02  0.36820937414E+02  0.00000000000E+00 0. -1.
         11    1    4    4    0    0 -0.63592459170E+01 -0.16924035303E+01 -0.50576387352E+01  0.82996354245E+01  0.51100000000E-03 0. -1.
        -11    1    4    4    0    0  0.25776000047E+00 -0.29594784830E+01 -0.16286773150E+02  0.16555480452E+02  0.51100000000E-03 0.  1.
         12    1    4    4    0    0  0.28580587190E+02 -0.71011155172E+00 -0.73212550876E+01  0.29511946710E+02  0.00000000000E+00 0. -1.
</event>
<event>
 8    1  0.2553474E-006  0.9118800E+02  0.7816164E-02  0.1184000E+00
        -11   -1    0    0    0    0  0.00000000000E+00  0.00000000000E+00  0.45593999997E+02  0.45594000000E+02  0.51100000000E-03 0.  1.
         11   -1    0    0    0    0 -0.00000000000E+00 -0.00000000000E+00 -0.45593999997E+02  0.45594000000E+02  0.51100000000E-03 0. -1.
         23    2    1    2    0    0  0.00000000000E+00  0.71054273576E-14 -0.11102230246E-15  0.91188000000E+02  0.91188000000E+02 0.  0.
    9900012    2    3    3    0    0  0.14333207009E+02 -0.33914863852E+02  0.36022014845E+00  0.54366965633E+02  0.39999729753E+02 0.  0.
        -12    1    3    3    0    0 -0.14333207009E+02  0.33914863852E+02 -0.36022014845E+00  0.36821034367E+02  0.00000000000E+00 0.  1.
         11    1    4    4    0    0  0.20149976826E+02 -0.15409491285E+02  0.31991872035E+01  0.25567729402E+02  0.51100000000E-03 0. -1.
        -11    1    4    4    0    0 -0.60129509841E+01 -0.13975569614E+02  0.78995359325E+01  0.17142776723E+02  0.51100000000E-03 0.  1.
         12    1    4    4    0    0  0.19618116775E+00 -0.45298029531E+01 -0.10738502988E+02  0.11656459508E+02  0.00000000000E+00 0. -1.
</event>
<event>
 8    1  0.2553474E-006  0.9118800E+02  0.7816164E-02  0.1184000E+00
        -11   -1    0    0    0    0  0.00000000000E+00  0.00000000000E+00  0.45593999997E+02  0.45594000000E+02  0.51100000000E-03 0. -1.
         11   -1    0    0    0    0 -0.00000000000E+00 -0.00000000000E+00 -0.45593999997E+02  0.45594000000E+02  0.51100000000E-03 0.  1.
         23    2    1    2    0    0 -0.22204460493E-15 -0.17763568394E-14  0.00000000000E+00  0.91188000000E+02  0.91188000000E+02 0.  0.
    9900012    2    3    3    0    0  0.14176662554E+01  0.14450848847E+02  0.33837028284E+02  0.54367064473E+02  0.39999955079E+02 0.  0.
        -12    1    3    3    0    0 -0.14176662554E+01 -0.14450848847E+02 -0.33837028284E+02  0.36820935527E+02  0.00000000000E+00 0.  1.
         11    1    4    4    0    0 -0.12128892731E+01  0.87108028413E+01  0.27931268200E+02  0.29283185108E+02  0.51100000000E-03 0. -1.
        -11    1    4    4    0    0  0.21764295561E+00 -0.58115169978E+01  0.10833268763E+02  0.12295560606E+02  0.51100000000E-03 0.  1.
         12    1    4    4    0    0  0.24129125729E+01  0.11551563003E+02 -0.49275086794E+01  0.12788318759E+02  0.00000000000E+00 0. -1.
</event>
<event>
 8    1  0.2553474E-006  0.9118800E+02  0.7816164E-02  0.1184000E+00
        -11   -1    0    0    0    0  0.00000000000E+00  0.00000000000E+00  0.45593999997E+02  0.45594000000E+02  0.51100000000E-03 0. -1.
         11   -1    0    0    0    0 -0.00000000000E+00 -0.00000000000E+00 -0.45593999997E+02  0.45594000000E+02  0.51100000000E-03 0.  1.
         23    2    1    2    0    0  0.00000000000E+00  0.11102230246E-15 -0.35527136788E-14  0.91188000000E+02  0.91188000000E+02 0.  0.
    9900012    2    3    3    0    0 -0.20678505937E+02  0.37745956371E+00 -0.30463670020E+02  0.54367105461E+02  0.40000048520E+02 0.  0.
         12    1    3    3    0    0  0.20678505937E+02 -0.37745956371E+00  0.30463670020E+02  0.36820894539E+02  0.00000000000E+00 0. -1.
         11    1    4    4    0    0  0.25656578461E+00 -0.70696391348E+01 -0.97174994024E+01  0.12019792777E+02  0.51100000000E-03 0. -1.
        -11    1    4    4    0    0 -0.17560866963E+02  0.36858786235E+01 -0.28150631177E+02  0.33383046381E+02  0.51100000000E-03 0.  1.
        -12    1    4    4    0    0 -0.33742047584E+01  0.37612200750E+01  0.74044605588E+01  0.89642663041E+01  0.00000000000E+00 0.  1.
</event>
<event>
 8    1  0.2553474E-006  0.9118800E+02  0.7816164E-02  0.1184000E+00
        -11   -1    0    0    0    0  0.00000000000E+00  0.00000000000E+00  0.45593999997E+02  0.45594000000E+02  0.51100000000E-03 0.  1.
         11   -1    0    0    0    0 -0.00000000000E+00 -0.00000000000E+00 -0.45593999997E+02  0.45594000000E+02  0.51100000000E-03 0. -1.
         23    2    1    2    0    0  0.00000000000E+00  0.35527136788E-14  0.00000000000E+00  0.91188000000E+02  0.91188000000E+02 0.  0.
    9900012    2    3    3    0    0 -0.24926939171E+02 -0.21885256592E+02  0.15983243317E+02  0.54367070905E+02  0.39999969741E+02 0.  0.
         12    1    3    3    0    0  0.24926939171E+02  0.21885256592E+02 -0.15983243317E+02  0.36820929095E+02  0.00000000000E+00 0. -1.
         11    1    4    4    0    0 -0.29146060804E+02 -0.14685394618E+02 -0.85321335862E-01  0.32636803696E+02  0.51100000000E-03 0. -1.
        -11    1    4    4    0    0 -0.82636207603E+00 -0.45479930539E+01  0.15294799771E+02  0.15978047922E+02  0.51100000000E-03 0.  1.
         12    1    4    4    0    0  0.50454837095E+01 -0.26518689206E+01  0.77376488194E+00  0.57522192872E+01  0.00000000000E+00 0. -1.
</event>
<event>
 8    1  0.2553474E-006  0.9118800E+02  0.7816164E-02  0.1184000E+00
        -11   -1    0    0    0    0  0.00000000000E+00  0.00000000000E+00  0.45593999997E+02  0.45594000000E+02  0.51100000000E-03 0. -1.
         11   -1    0    0    0    0 -0.00000000000E+00 -0.00000000000E+00 -0.45593999997E+02  0.45594000000E+02  0.51100000000E-03 0.  1.
         23    2    1    2    0    0 -0.17763568394E-14  0.00000000000E+00  0.00000000000E+00  0.91188000000E+02  0.91188000000E+02 0.  0.
    9900012    2    3    3    0    0  0.14023361068E+02  0.28843404939E+02 -0.18088194232E+02  0.54367089709E+02  0.40000012609E+02 0.  0.
         12    1    3    3    0    0 -0.14023361068E+02 -0.28843404939E+02  0.18088194232E+02  0.36820910291E+02  0.00000000000E+00 0. -1.
         11    1    4    4    0    0 -0.48086665479E+01  0.65169402704E+01  0.42945873623E+01  0.91671841550E+01  0.51100000000E-03 0. -1.
        -11    1    4    4    0    0  0.72291786485E+01 -0.32379208083E+01  0.18264385712E+01  0.81290241240E+01  0.51100000000E-03 0.  1.
         12    1    4    4    0    0  0.11602848967E+02  0.25564385476E+02 -0.24209220166E+02  0.37070881430E+02  0.00000000000E+00 0. -1.
</event>
<event>
 8    1  0.2553474E-006  0.9118800E+02  0.7816164E-02  0.1184000E+00
        -11   -1    0    0    0    0  0.00000000000E+00  0.00000000000E+00  0.45593999997E+02  0.45594000000E+02  0.51100000000E-03 0. -1.
         11   -1    0    0    0    0 -0.00000000000E+00 -0.00000000000E+00 -0.45593999997E+02  0.45594000000E+02  0.51100000000E-03 0.  1.
         23    2    1    2    0    0 -0.35527136788E-14  0.17763568394E-14  0.00000000000E+00  0.91188000000E+02  0.91188000000E+02 0.  0.
    9900012    2    3    3    0    0  0.30948325396E+02  0.11687210050E+02 -0.16167594548E+02  0.54367070665E+02  0.39999969196E+02 0.  0.
         12    1    3    3    0    0 -0.30948325396E+02 -0.11687210050E+02  0.16167594548E+02  0.36820929335E+02  0.00000000000E+00 0. -1.
         11    1    4    4    0    0  0.10349883831E+02  0.50454800577E+01  0.53814690105E+00  0.11526776075E+02  0.51100000000E-03 0. -1.
        -11    1    4    4    0    0  0.28201851253E+02  0.11441341230E+02 -0.13503362789E+02  0.33295487834E+02  0.51100000000E-03 0.  1.
         12    1    4    4    0    0 -0.76034096887E+01 -0.47996112373E+01 -0.32023786606E+01  0.95448067560E+01  0.00000000000E+00 0. -1.
</event>
<event>
 8    1  0.2553474E-006  0.9118800E+02  0.7816164E-02  0.1184000E+00
        -11   -1    0    0    0    0  0.00000000000E+00  0.00000000000E+00  0.45593999997E+02  0.45594000000E+02  0.51100000000E-03 0.  1.
         11   -1    0    0    0    0 -0.00000000000E+00 -0.00000000000E+00 -0.45593999997E+02  0.45594000000E+02  0.51100000000E-03 0. -1.
         23    2    1    2    0    0  0.00000000000E+00  0.00000000000E+00  0.35527136788E-14  0.91188000000E+02  0.91188000000E+02 0.  0.
    9900012    2    3    3    0    0  0.21184300704E+02  0.22488694529E+02  0.20031637780E+02  0.54367048218E+02  0.39999918023E+02 0.  0.
         12    1    3    3    0    0 -0.21184300704E+02 -0.22488694529E+02 -0.20031637780E+02  0.36820951782E+02  0.00000000000E+00 0. -1.
         11    1    4    4    0    0  0.24964730596E+01  0.19396902784E+02  0.13655523175E+02  0.23852579081E+02  0.51100000000E-03 0.  1.
        -11    1    4    4    0    0  0.15794259433E+02  0.48586282836E-02 -0.64107937405E+01  0.17045730588E+02  0.51100000000E-03 0. -1.
        -12    1    4    4    0    0  0.28935682118E+01  0.30869331166E+01  0.12786908346E+02  0.13468738549E+02  0.00000000000E+00 0.  1.
</event>
<event>
 8    1  0.2553474E-006  0.9118800E+02  0.7816164E-02  0.1184000E+00
        -11   -1    0    0    0    0  0.00000000000E+00  0.00000000000E+00  0.45593999997E+02  0.45594000000E+02  0.51100000000E-03 0.  1.
         11   -1    0    0    0    0 -0.00000000000E+00 -0.00000000000E+00 -0.45593999997E+02  0.45594000000E+02  0.51100000000E-03 0. -1.
         23    2    1    2    0    0  0.35527136788E-14  0.35527136788E-14  0.00000000000E+00  0.91188000000E+02  0.91188000000E+02 0.  0.
    9900012    2    3    3    0    0  0.28095769790E+02  0.20156437458E+02  0.12654072196E+02  0.54367084826E+02  0.40000001477E+02 0.  0.
        -12    1    3    3    0    0 -0.28095769790E+02 -0.20156437458E+02 -0.12654072196E+02  0.36820915174E+02  0.00000000000E+00 0.  1.
         11    1    4    4    0    0  0.17538747765E+01  0.15135565233E+02  0.26453530693E+01  0.15464776260E+02  0.51100000000E-03 0. -1.
        -11    1    4    4    0    0 -0.41002533432E+01  0.39003465931E+01  0.58803350658E+01  0.81610735674E+01  0.51100000000E-03 0.  1.
        -12    1    4    4    0    0  0.30442148357E+02  0.11205256328E+01  0.41283840605E+01  0.30741234999E+02  0.00000000000E+00 0.  1.
</event>
<event>
 8    1  0.2553474E-006  0.9118800E+02  0.7816164E-02  0.1184000E+00
        -11   -1    0    0    0    0  0.00000000000E+00  0.00000000000E+00  0.45593999997E+02  0.45594000000E+02  0.51100000000E-03 0. -1.
         11   -1    0    0    0    0 -0.00000000000E+00 -0.00000000000E+00 -0.45593999997E+02  0.45594000000E+02  0.51100000000E-03 0.  1.
         23    2    1    2    0    0  0.00000000000E+00  0.00000000000E+00  0.00000000000E+00  0.91188000000E+02  0.91188000000E+02 0.  0.
    9900012    2    3    3    0    0 -0.64857272161E+01  0.27816988942E+02 -0.23236397376E+02  0.54367086183E+02  0.40000004570E+02 0.  0.
         12    1    3    3    0    0  0.64857272161E+01 -0.27816988942E+02  0.23236397376E+02  0.36820913817E+02  0.00000000000E+00 0. -1.
         11    1    4    4    0    0 -0.24200956240E+01  0.87952649754E+00 -0.15921559475E+02  0.16128437186E+02  0.51100000000E-03 0. -1.
        -11    1    4    4    0    0  0.96215064582E+01  0.18568976197E+02 -0.81594358566E+00  0.20929549152E+02  0.51100000000E-03 0.  1.
        -12    1    4    4    0    0 -0.13687138050E+02  0.83684862480E+01 -0.64988943154E+01  0.17309099844E+02  0.00000000000E+00 0.  1.
</event>
<event>
 8    1  0.2553474E-006  0.9118800E+02  0.7816164E-02  0.1184000E+00
        -11   -1    0    0    0    0  0.00000000000E+00  0.00000000000E+00  0.45593999997E+02  0.45594000000E+02  0.51100000000E-03 0.  1.
         11   -1    0    0    0    0 -0.00000000000E+00 -0.00000000000E+00 -0.45593999997E+02  0.45594000000E+02  0.51100000000E-03 0. -1.
         23    2    1    2    0    0  0.35527136788E-14  0.17763568394E-14  0.00000000000E+00  0.91188000000E+02  0.91188000000E+02 0.  0.
    9900012    2    3    3    0    0  0.31088093203E+02 -0.12574161161E+02  0.15205327744E+02  0.54367067641E+02  0.39999962302E+02 0.  0.
         12    1    3    3    0    0 -0.31088093203E+02  0.12574161161E+02 -0.15205327744E+02  0.36820932359E+02  0.00000000000E+00 0. -1.
         11    1    4    4    0    0 -0.15712263647E+00  0.33599146128E+00  0.90885780604E+01  0.90961436447E+01  0.51100000000E-03 0.  1.
        -11    1    4    4    0    0  0.81676410314E+01 -0.15755423245E+02  0.11828478607E+02  0.21327368053E+02  0.51100000000E-03 0. -1.
        -12    1    4    4    0    0  0.23077574809E+02  0.28452706226E+01 -0.57117289225E+01  0.23943555944E+02  0.00000000000E+00 0.  1.
</event>
<event>
 8    1  0.2553474E-006  0.9118800E+02  0.7816164E-02  0.1184000E+00
        -11   -1    0    0    0    0  0.00000000000E+00  0.00000000000E+00  0.45593999997E+02  0.45594000000E+02  0.51100000000E-03 0. -1.
         11   -1    0    0    0    0 -0.00000000000E+00 -0.00000000000E+00 -0.45593999997E+02  0.45594000000E+02  0.51100000000E-03 0.  1.
         23    2    1    2    0    0  0.88817841970E-15  0.71054273576E-14 -0.13322676296E-14  0.91188000000E+02  0.91188000000E+02 0.  0.
    9900012    2    3    3    0    0  0.32653077891E+01 -0.36579276970E+02  0.26598000253E+01  0.54367078301E+02  0.39999986602E+02 0.  0.
        -12    1    3    3    0    0 -0.32653077891E+01  0.36579276970E+02 -0.26598000253E+01  0.36820921699E+02  0.00000000000E+00 0.  1.
         11    1    4    4    0    0 -0.44869588458E+01 -0.22474960173E-01  0.59356232758E+01  0.74407613011E+01  0.51100000000E-03 0. -1.
        -11    1    4    4    0    0  0.31818888495E+00  0.39227541100E+01 -0.42047992284E+01  0.57593038456E+01  0.51100000000E-03 0.  1.
        -12    1    4    4    0    0  0.74340777499E+01 -0.40479556120E+02  0.92897597786E+00  0.41167013154E+02  0.00000000000E+00 0.  1.
</event>
<event>
 8    1  0.2553474E-006  0.9118800E+02  0.7816164E-02  0.1184000E+00
        -11   -1    0    0    0    0  0.00000000000E+00  0.00000000000E+00  0.45593999997E+02  0.45594000000E+02  0.51100000000E-03 0.  1.
         11   -1    0    0    0    0 -0.00000000000E+00 -0.00000000000E+00 -0.45593999997E+02  0.45594000000E+02  0.51100000000E-03 0. -1.
         23    2    1    2    0    0 -0.35527136788E-14  0.00000000000E+00  0.00000000000E+00  0.91188000000E+02  0.91188000000E+02 0.  0.
    9900012    2    3    3    0    0  0.19639347446E+02  0.12454918206E+01  0.31121133412E+02  0.54367079821E+02  0.39999990069E+02 0.  0.
         12    1    3    3    0    0 -0.19639347446E+02 -0.12454918206E+01 -0.31121133412E+02  0.36820920179E+02  0.00000000000E+00 0. -1.
         11    1    4    4    0    0  0.12337377661E+02 -0.10267688807E+02  0.10860684566E+02  0.19380164873E+02  0.51100000000E-03 0. -1.
        -11    1    4    4    0    0 -0.24020722861E+01  0.28978137320E+01  0.21614546891E+02  0.21939824822E+02  0.51100000000E-03 0.  1.
         12    1    4    4    0    0  0.97040420706E+01  0.86153668953E+01 -0.13540980453E+01  0.13047090126E+02  0.00000000000E+00 0. -1.
</event>
<event>
 8    1  0.2553474E-006  0.9118800E+02  0.7816164E-02  0.1184000E+00
        -11   -1    0    0    0    0  0.00000000000E+00  0.00000000000E+00  0.45593999997E+02  0.45594000000E+02  0.51100000000E-03 0.  1.
         11   -1    0    0    0    0 -0.00000000000E+00 -0.00000000000E+00 -0.45593999997E+02  0.45594000000E+02  0.51100000000E-03 0. -1.
         23    2    1    2    0    0  0.00000000000E+00  0.00000000000E+00  0.88817841970E-15  0.91188000000E+02  0.91188000000E+02 0.  0.
    9900012    2    3    3    0    0  0.35236062288E+02  0.80980647340E+01 -0.69728797647E+01  0.54367084880E+02  0.40000001602E+02 0.  0.
         12    1    3    3    0    0 -0.35236062288E+02 -0.80980647340E+01  0.69728797647E+01  0.36820915120E+02  0.00000000000E+00 0. -1.
         11    1    4    4    0    0  0.14882943646E+02 -0.13181911495E+01 -0.22040234049E+02  0.26627270920E+02  0.51100000000E-03 0. -1.
        -11    1    4    4    0    0  0.86235362951E+01  0.14656193480E+01  0.82139455545E+01  0.11999263316E+02  0.51100000000E-03 0.  1.
         12    1    4    4    0    0  0.11729582347E+02  0.79506365355E+01  0.68534087294E+01  0.15740550644E+02  0.00000000000E+00 0. -1.
</event>
<event>
 8    1  0.2553474E-006  0.9118800E+02  0.7816164E-02  0.1184000E+00
        -11   -1    0    0    0    0  0.00000000000E+00  0.00000000000E+00  0.45593999997E+02  0.45594000000E+02  0.51100000000E-03 0.  1.
         11   -1    0    0    0    0 -0.00000000000E+00 -0.00000000000E+00 -0.45593999997E+02  0.45594000000E+02  0.51100000000E-03 0. -1.
         23    2    1    2    0    0  0.00000000000E+00  0.13322676296E-14 -0.35527136788E-14  0.91188000000E+02  0.91188000000E+02 0.  0.
    9900012    2    3    3    0    0 -0.20698722163E+02  0.14393023958E+01 -0.30418330083E+02  0.54367034564E+02  0.39999886896E+02 0.  0.
        -12    1    3    3    0    0  0.20698722163E+02 -0.14393023958E+01  0.30418330083E+02  0.36820965436E+02  0.00000000000E+00 0.  1.
         11    1    4    4    0    0 -0.16985676685E+01  0.53844648460E+01 -0.97996038246E+01  0.11309722772E+02  0.51100000000E-03 0. -1.
        -11    1    4    4    0    0 -0.13112588485E+02  0.85353069779E+01 -0.24184858202E+02  0.28804492853E+02  0.51100000000E-03 0.  1.
        -12    1    4    4    0    0 -0.58875660100E+01 -0.12480469428E+02  0.35661319441E+01  0.14252818939E+02  0.00000000000E+00 0.  1.
</event>
<event>
 8    1  0.2553474E-006  0.9118800E+02  0.7816164E-02  0.1184000E+00
        -11   -1    0    0    0    0  0.00000000000E+00  0.00000000000E+00  0.45593999997E+02  0.45594000000E+02  0.51100000000E-03 0.  1.
         11   -1    0    0    0    0 -0.00000000000E+00 -0.00000000000E+00 -0.45593999997E+02  0.45594000000E+02  0.51100000000E-03 0. -1.
         23    2    1    2    0    0 -0.35527136788E-14  0.00000000000E+00  0.00000000000E+00  0.91188000000E+02  0.91188000000E+02 0.  0.
    9900012    2    3    3    0    0 -0.21837417587E+02  0.24929773858E+02 -0.16044109946E+02  0.54367083452E+02  0.39999998346E+02 0.  0.
        -12    1    3    3    0    0  0.21837417587E+02 -0.24929773858E+02  0.16044109946E+02  0.36820916548E+02  0.00000000000E+00 0.  1.
         11    1    4    4    0    0 -0.16500941334E+02  0.22652090728E+02 -0.19048866975E-01  0.28024964628E+02  0.51100000000E-03 0. -1.
        -11    1    4    4    0    0 -0.30819490089E+01 -0.77602723428E+01 -0.14083722159E+01  0.84678066279E+01  0.51100000000E-03 0.  1.
        -12    1    4    4    0    0 -0.22545272433E+01  0.10037955473E+02 -0.14616688863E+02  0.17874312196E+02  0.00000000000E+00 0.  1.
</event>
<event>
 8    1  0.2553474E-006  0.9118800E+02  0.7816164E-02  0.1184000E+00
        -11   -1    0    0    0    0  0.00000000000E+00  0.00000000000E+00  0.45593999997E+02  0.45594000000E+02  0.51100000000E-03 0. -1.
         11   -1    0    0    0    0 -0.00000000000E+00 -0.00000000000E+00 -0.45593999997E+02  0.45594000000E+02  0.51100000000E-03 0.  1.
         23    2    1    2    0    0  0.00000000000E+00  0.14432899320E-14  0.00000000000E+00  0.91188000000E+02  0.91188000000E+02 0.  0.
    9900012    2    3    3    0    0 -0.25701001675E+02 -0.80764857984E+00  0.26355080220E+02  0.54367027216E+02  0.39999870144E+02 0.  0.
        -12    1    3    3    0    0  0.25701001675E+02  0.80764857984E+00 -0.26355080220E+02  0.36820972784E+02  0.00000000000E+00 0.  1.
         11    1    4    4    0    0 -0.28579231050E+02  0.99188522576E+01  0.16575850646E+02  0.34495143171E+02  0.51100000000E-03 0. -1.
        -11    1    4    4    0    0  0.35695319448E+01 -0.44531353253E+01  0.11913064002E+02  0.13209582382E+02  0.51100000000E-03 0.  1.
        -12    1    4    4    0    0 -0.69130257008E+00 -0.62733655122E+01 -0.21338344270E+01  0.66623016634E+01  0.00000000000E+00 0.  1.
</event>
<event>
 8    1  0.2553474E-006  0.9118800E+02  0.7816164E-02  0.1184000E+00
        -11   -1    0    0    0    0  0.00000000000E+00  0.00000000000E+00  0.45593999997E+02  0.45594000000E+02  0.51100000000E-03 0. -1.
         11   -1    0    0    0    0 -0.00000000000E+00 -0.00000000000E+00 -0.45593999997E+02  0.45594000000E+02  0.51100000000E-03 0.  1.
         23    2    1    2    0    0 -0.35527136788E-14  0.17763568394E-14 -0.35527136788E-14  0.91188000000E+02  0.91188000000E+02 0.  0.
    9900012    2    3    3    0    0 -0.22471155902E+02  0.13419846515E+02 -0.25898597675E+02  0.54367048226E+02  0.39999918040E+02 0.  0.
         12    1    3    3    0    0  0.22471155902E+02 -0.13419846515E+02  0.25898597675E+02  0.36820951774E+02  0.00000000000E+00 0. -1.
         11    1    4    4    0    0  0.31475980044E+01  0.95910560007E+01 -0.27098784070E+00  0.10097978168E+02  0.51100000000E-03 0. -1.
        -11    1    4    4    0    0 -0.40928691923E+01  0.58357502144E+01 -0.20977437633E+02  0.22155370651E+02  0.51100000000E-03 0.  1.
         12    1    4    4    0    0 -0.21525884714E+02 -0.20069597001E+01 -0.46501722007E+01  0.22113699407E+02  0.00000000000E+00 0. -1.
</event>
<event>
 8    1  0.2553474E-006  0.9118800E+02  0.7816164E-02  0.1184000E+00
        -11   -1    0    0    0    0  0.00000000000E+00  0.00000000000E+00  0.45593999997E+02  0.45594000000E+02  0.51100000000E-03 0.  1.
         11   -1    0    0    0    0 -0.00000000000E+00 -0.00000000000E+00 -0.45593999997E+02  0.45594000000E+02  0.51100000000E-03 0. -1.
         23    2    1    2    0    0  0.35527136788E-14  0.00000000000E+00 -0.35527136788E-14  0.91188000000E+02  0.91188000000E+02 0.  0.
    9900012    2    3    3    0    0  0.13811244192E+02 -0.22078416707E+02 -0.26030244347E+02  0.54367074276E+02  0.39999977426E+02 0.  0.
        -12    1    3    3    0    0 -0.13811244192E+02  0.22078416707E+02  0.26030244347E+02  0.36820925724E+02  0.00000000000E+00 0.  1.
         11    1    4    4    0    0 -0.83402172098E+00 -0.85355165617E+00 -0.11107269937E+02  0.11171194582E+02  0.51100000000E-03 0. -1.
        -11    1    4    4    0    0 -0.61160393610E+01 -0.12342930513E+02  0.33160238454E+01  0.14168623275E+02  0.51100000000E-03 0.  1.
         12    1    4    4    0    0  0.20761305274E+02 -0.88819345373E+01 -0.18238998256E+02  0.29027256419E+02  0.00000000000E+00 0. -1.
</event>
<event>
 8    1  0.2553474E-006  0.9118800E+02  0.7816164E-02  0.1184000E+00
        -11   -1    0    0    0    0  0.00000000000E+00  0.00000000000E+00  0.45593999997E+02  0.45594000000E+02  0.51100000000E-03 0. -1.
         11   -1    0    0    0    0 -0.00000000000E+00 -0.00000000000E+00 -0.45593999997E+02  0.45594000000E+02  0.51100000000E-03 0.  1.
         23    2    1    2    0    0 -0.88817841970E-15  0.00000000000E+00  0.00000000000E+00  0.91188000000E+02  0.91188000000E+02 0.  0.
    9900012    2    3    3    0    0  0.41387670360E+01 -0.17201530503E+02  0.32291758552E+02  0.54367085907E+02  0.40000003943E+02 0.  0.
        -12    1    3    3    0    0 -0.41387670360E+01  0.17201530503E+02 -0.32291758552E+02  0.36820914093E+02  0.00000000000E+00 0.  1.
         11    1    4    4    0    0 -0.23275459156E+01 -0.40371308579E+01 -0.33142869490E+01  0.57184258144E+01  0.51100000000E-03 0. -1.
        -11    1    4    4    0    0 -0.74158069021E+01  0.53027856209E+01  0.53153598688E+01  0.10553045918E+02  0.51100000000E-03 0.  1.
         12    1    4    4    0    0  0.13882119854E+02 -0.18467185266E+02  0.30290685633E+02  0.38095614175E+02  0.00000000000E+00 0. -1.
</event>
<event>
 8    1  0.2553474E-006  0.9118800E+02  0.7816164E-02  0.1184000E+00
        -11   -1    0    0    0    0  0.00000000000E+00  0.00000000000E+00  0.45593999997E+02  0.45594000000E+02  0.51100000000E-03 0.  1.
         11   -1    0    0    0    0 -0.00000000000E+00 -0.00000000000E+00 -0.45593999997E+02  0.45594000000E+02  0.51100000000E-03 0. -1.
         23    2    1    2    0    0  0.00000000000E+00  0.00000000000E+00  0.00000000000E+00  0.91188000000E+02  0.91188000000E+02 0.  0.
    9900012    2    3    3    0    0 -0.32348222396E+02 -0.13720112945E+02  0.11005945080E+02  0.54367084497E+02  0.40000000728E+02 0.  0.
         12    1    3    3    0    0  0.32348222396E+02  0.13720112945E+02 -0.11005945080E+02  0.36820915503E+02  0.00000000000E+00 0. -1.
         11    1    4    4    0    0  0.32301041032E+01 -0.56506602714E+01 -0.46028785363E+01  0.79718269614E+01  0.51100000000E-03 0. -1.
        -11    1    4    4    0    0 -0.26209946914E+02  0.51657623266E+01  0.13832349551E+02  0.30082890686E+02  0.51100000000E-03 0.  1.
        -12    1    4    4    0    0 -0.93683795852E+01 -0.13235215000E+02  0.17764740652E+01  0.16312366850E+02  0.00000000000E+00 0.  1.
</event>
<event>
 8    1  0.2553474E-006  0.9118800E+02  0.7816164E-02  0.1184000E+00
        -11   -1    0    0    0    0  0.00000000000E+00  0.00000000000E+00  0.45593999997E+02  0.45594000000E+02  0.51100000000E-03 0. -1.
         11   -1    0    0    0    0 -0.00000000000E+00 -0.00000000000E+00 -0.45593999997E+02  0.45594000000E+02  0.51100000000E-03 0.  1.
         23    2    1    2    0    0  0.00000000000E+00  0.00000000000E+00  0.71054273576E-14  0.91188000000E+02  0.91188000000E+02 0.  0.
    9900012    2    3    3    0    0 -0.24550665941E+02  0.24388408046E+01  0.27333080686E+02  0.54367076025E+02  0.39999981414E+02 0.  0.
        -12    1    3    3    0    0  0.24550665941E+02 -0.24388408046E+01 -0.27333080686E+02  0.36820923975E+02  0.00000000000E+00 0.  1.
         11    1    4    4    0    0 -0.26488181678E+02  0.33072244550E+01  0.59528772449E+01  0.27349556668E+02  0.51100000000E-03 0.  1.
        -11    1    4    4    0    0 -0.50816251114E+01 -0.34260135428E+01  0.17617061394E+02  0.18652649543E+02  0.51100000000E-03 0. -1.
         12    1    4    4    0    0  0.70191408488E+01  0.25576298924E+01  0.37631420473E+01  0.83648698131E+01  0.00000000000E+00 0. -1.
</event>
<event>
 8    1  0.2553474E-006  0.9118800E+02  0.7816164E-02  0.1184000E+00
        -11   -1    0    0    0    0  0.00000000000E+00  0.00000000000E+00  0.45593999997E+02  0.45594000000E+02  0.51100000000E-03 0.  1.
         11   -1    0    0    0    0 -0.00000000000E+00 -0.00000000000E+00 -0.45593999997E+02  0.45594000000E+02  0.51100000000E-03 0. -1.
         23    2    1    2    0    0  0.53290705182E-14  0.00000000000E+00  0.00000000000E+00  0.91188000000E+02  0.91188000000E+02 0.  0.
    9900012    2    3    3    0    0  0.15407154944E+02 -0.19616864678E+02 -0.27084662633E+02  0.54367071804E+02  0.39999971792E+02 0.  0.
        -12    1    3    3    0    0 -0.15407154944E+02  0.19616864678E+02  0.27084662633E+02  0.36820928196E+02  0.00000000000E+00 0.  1.
         11    1    4    4    0    0 -0.18314732477E+01 -0.17773122645E+02 -0.16677321282E+01  0.17944902160E+02  0.51100000000E-03 0.  1.
        -11    1    4    4    0    0  0.34275044376E+00 -0.79726241843E+01 -0.61606462957E+01  0.10081357909E+02  0.51100000000E-03 0. -1.
        -12    1    4    4    0    0  0.16895877748E+02  0.61288821517E+01 -0.19256284209E+02  0.26340811735E+02  0.00000000000E+00 0.  1.
</event>
<event>
 8    1  0.2553474E-006  0.9118800E+02  0.7816164E-02  0.1184000E+00
        -11   -1    0    0    0    0  0.00000000000E+00  0.00000000000E+00  0.45593999997E+02  0.45594000000E+02  0.51100000000E-03 0.  1.
         11   -1    0    0    0    0 -0.00000000000E+00 -0.00000000000E+00 -0.45593999997E+02  0.45594000000E+02  0.51100000000E-03 0. -1.
         23    2    1    2    0    0  0.17763568394E-14  0.00000000000E+00  0.00000000000E+00  0.91188000000E+02  0.91188000000E+02 0.  0.
    9900012    2    3    3    0    0  0.88408030863E+01 -0.33460241349E+02  0.12571141206E+02  0.54367066530E+02  0.39999959769E+02 0.  0.
         12    1    3    3    0    0 -0.88408030863E+01  0.33460241349E+02 -0.12571141206E+02  0.36820933470E+02  0.00000000000E+00 0. -1.
         11    1    4    4    0    0  0.14711642561E+01  0.55571103671E+00 -0.17266624087E+01  0.23354876064E+01  0.51100000000E-03 0. -1.
        -11    1    4    4    0    0  0.15591961568E+02 -0.40150193516E+01  0.13340965576E+02  0.20909591308E+02  0.51100000000E-03 0.  1.
        -12    1    4    4    0    0 -0.82223227374E+01 -0.30000933034E+02  0.95683803875E+00  0.31121987616E+02  0.00000000000E+00 0.  1.
</event>
<event>
 8    1  0.2553474E-006  0.9118800E+02  0.7816164E-02  0.1184000E+00
        -11   -1    0    0    0    0  0.00000000000E+00  0.00000000000E+00  0.45593999997E+02  0.45594000000E+02  0.51100000000E-03 0.  1.
         11   -1    0    0    0    0 -0.00000000000E+00 -0.00000000000E+00 -0.45593999997E+02  0.45594000000E+02  0.51100000000E-03 0. -1.
         23    2    1    2    0    0 -0.17763568394E-14  0.35527136788E-14  0.00000000000E+00  0.91188000000E+02  0.91188000000E+02 0.  0.
    9900012    2    3    3    0    0 -0.98209789683E+01 -0.27417200976E+02 -0.22530528428E+02  0.54367092237E+02  0.40000018373E+02 0.  0.
         12    1    3    3    0    0  0.98209789683E+01  0.27417200976E+02  0.22530528428E+02  0.36820907763E+02  0.00000000000E+00 0. -1.
         11    1    4    4    0    0  0.95001597198E+01  0.10350607608E+01 -0.11898749223E+01  0.96301707187E+01  0.51100000000E-03 0. -1.
        -11    1    4    4    0    0 -0.21396446714E+02 -0.19906324919E+02 -0.20905190379E+02  0.35931833919E+02  0.51100000000E-03 0.  1.
         12    1    4    4    0    0  0.20753080259E+01 -0.85459368176E+01 -0.43546312659E+00  0.88050875990E+01  0.00000000000E+00 0. -1.
</event>
<event>
 8    1  0.2553474E-006  0.9118800E+02  0.7816164E-02  0.1184000E+00
        -11   -1    0    0    0    0  0.00000000000E+00  0.00000000000E+00  0.45593999997E+02  0.45594000000E+02  0.51100000000E-03 0. -1.
         11   -1    0    0    0    0 -0.00000000000E+00 -0.00000000000E+00 -0.45593999997E+02  0.45594000000E+02  0.51100000000E-03 0.  1.
         23    2    1    2    0    0  0.00000000000E+00  0.22204460493E-14 -0.71054273576E-14  0.91188000000E+02  0.91188000000E+02 0.  0.
    9900012    2    3    3    0    0  0.13620735970E+02  0.29083682471E+01 -0.34085123929E+02  0.54367099312E+02  0.40000034502E+02 0.  0.
         12    1    3    3    0    0 -0.13620735970E+02 -0.29083682471E+01  0.34085123929E+02  0.36820900688E+02  0.00000000000E+00 0. -1.
         11    1    4    4    0    0  0.41447166434E+01 -0.59848220494E+01 -0.47150557153E+01  0.86734377082E+01  0.51100000000E-03 0. -1.
        -11    1    4    4    0    0 -0.27839670482E+01  0.84627947064E+01 -0.31940529666E+02  0.33159716560E+02  0.51100000000E-03 0.  1.
         12    1    4    4    0    0  0.12259986375E+02  0.43039559018E+00  0.25704614526E+01  0.12533945044E+02  0.00000000000E+00 0. -1.
</event>
<event>
 8    1  0.2553474E-006  0.9118800E+02  0.7816164E-02  0.1184000E+00
        -11   -1    0    0    0    0  0.00000000000E+00  0.00000000000E+00  0.45593999997E+02  0.45594000000E+02  0.51100000000E-03 0.  1.
         11   -1    0    0    0    0 -0.00000000000E+00 -0.00000000000E+00 -0.45593999997E+02  0.45594000000E+02  0.51100000000E-03 0. -1.
         23    2    1    2    0    0  0.00000000000E+00  0.00000000000E+00 -0.35527136788E-14  0.91188000000E+02  0.91188000000E+02 0.  0.
    9900012    2    3    3    0    0 -0.60958734303E+01  0.33248239286E+02 -0.14600544844E+02  0.54367068476E+02  0.39999964206E+02 0.  0.
        -12    1    3    3    0    0  0.60958734303E+01 -0.33248239286E+02  0.14600544844E+02  0.36820931524E+02  0.00000000000E+00 0.  1.
         11    1    4    4    0    0  0.49517810448E+01  0.12187155743E+02  0.10227369702E+02  0.16662712621E+02  0.51100000000E-03 0. -1.
        -11    1    4    4    0    0 -0.30750392002E+01 -0.21482954680E+01 -0.43339983873E+01  0.57318916409E+01  0.51100000000E-03 0.  1.
         12    1    4    4    0    0 -0.79726152749E+01  0.23209379012E+02 -0.20493916159E+02  0.31972464215E+02  0.00000000000E+00 0. -1.
</event>
<event>
 8    1  0.2553474E-006  0.9118800E+02  0.7816164E-02  0.1184000E+00
        -11   -1    0    0    0    0  0.00000000000E+00  0.00000000000E+00  0.45593999997E+02  0.45594000000E+02  0.51100000000E-03 0. -1.
         11   -1    0    0    0    0 -0.00000000000E+00 -0.00000000000E+00 -0.45593999997E+02  0.45594000000E+02  0.51100000000E-03 0.  1.
         23    2    1    2    0    0  0.00000000000E+00 -0.66613381478E-15  0.88817841970E-15  0.91188000000E+02  0.91188000000E+02 0.  0.
    9900012    2    3    3    0    0  0.36730595579E+02 -0.12080850892E+01  0.22766129790E+01  0.54367094419E+02  0.40000023347E+02 0.  0.
        -12    1    3    3    0    0 -0.36730595579E+02  0.12080850892E+01 -0.22766129790E+01  0.36820905581E+02  0.00000000000E+00 0.  1.
         11    1    4    4    0    0  0.42119534267E+01  0.47695041026E+01  0.12307252340E+02  0.13854861294E+02  0.51100000000E-03 0. -1.
        -11    1    4    4    0    0 -0.15512602993E+01 -0.30438676567E+01  0.23472147739E+01  0.41449917109E+01  0.51100000000E-03 0.  1.
        -12    1    4    4    0    0  0.34069902451E+02 -0.29337215350E+01 -0.12377854135E+02  0.36367241414E+02  0.00000000000E+00 0.  1.
</event>
<event>
 8    1  0.2553474E-006  0.9118800E+02  0.7816164E-02  0.1184000E+00
        -11   -1    0    0    0    0  0.00000000000E+00  0.00000000000E+00  0.45593999997E+02  0.45594000000E+02  0.51100000000E-03 0. -1.
         11   -1    0    0    0    0 -0.00000000000E+00 -0.00000000000E+00 -0.45593999997E+02  0.45594000000E+02  0.51100000000E-03 0.  1.
         23    2    1    2    0    0  0.00000000000E+00  0.00000000000E+00  0.00000000000E+00  0.91188000000E+02  0.91188000000E+02 0.  0.
    9900012    2    3    3    0    0 -0.18109610194E+02  0.19639638957E+02 -0.25339816982E+02  0.54367085774E+02  0.40000003639E+02 0.  0.
         12    1    3    3    0    0  0.18109610194E+02 -0.19639638957E+02  0.25339816982E+02  0.36820914226E+02  0.00000000000E+00 0. -1.
         11    1    4    4    0    0 -0.24565071175E+02  0.52907871913E+01 -0.10012446702E+02  0.27049662478E+02  0.51100000000E-03 0.  1.
        -11    1    4    4    0    0 -0.48878137911E+01  0.85622032263E+01 -0.61332554227E+01  0.11611152832E+02  0.51100000000E-03 0. -1.
         12    1    4    4    0    0  0.11343274772E+02  0.57866485394E+01 -0.91941148578E+01  0.15706270464E+02  0.00000000000E+00 0. -1.
</event>
<event>
 8    1  0.2553474E-006  0.9118800E+02  0.7816164E-02  0.1184000E+00
        -11   -1    0    0    0    0  0.00000000000E+00  0.00000000000E+00  0.45593999997E+02  0.45594000000E+02  0.51100000000E-03 0.  1.
         11   -1    0    0    0    0 -0.00000000000E+00 -0.00000000000E+00 -0.45593999997E+02  0.45594000000E+02  0.51100000000E-03 0. -1.
         23    2    1    2    0    0 -0.71054273576E-14  0.13322676296E-14  0.00000000000E+00  0.91188000000E+02  0.91188000000E+02 0.  0.
    9900012    2    3    3    0    0  0.33868652220E+02 -0.37676526310E+01 -0.13946334858E+02  0.54367067563E+02  0.39999962123E+02 0.  0.
        -12    1    3    3    0    0 -0.33868652220E+02  0.37676526310E+01  0.13946334858E+02  0.36820932437E+02  0.00000000000E+00 0.  1.
         11    1    4    4    0    0  0.21279887156E+02  0.60414079113E+01 -0.51795421485E+01  0.22719151922E+02  0.51100000000E-03 0. -1.
        -11    1    4    4    0    0  0.14329068093E+02  0.33107666405E+01 -0.10815732842E+02  0.18255504521E+02  0.51100000000E-03 0.  1.
        -12    1    4    4    0    0 -0.17403030288E+01 -0.13119827183E+02  0.20489401320E+01  0.13392411120E+02  0.00000000000E+00 0.  1.
</event>
<event>
 8    1  0.2553474E-006  0.9118800E+02  0.7816164E-02  0.1184000E+00
        -11   -1    0    0    0    0  0.00000000000E+00  0.00000000000E+00  0.45593999997E+02  0.45594000000E+02  0.51100000000E-03 0.  1.
         11   -1    0    0    0    0 -0.00000000000E+00 -0.00000000000E+00 -0.45593999997E+02  0.45594000000E+02  0.51100000000E-03 0. -1.
         23    2    1    2    0    0  0.00000000000E+00  0.00000000000E+00  0.00000000000E+00  0.91188000000E+02  0.91188000000E+02 0.  0.
    9900012    2    3    3    0    0  0.84894987316E+01  0.60527211896E+01 -0.35313918662E+02  0.54367083746E+02  0.39999999015E+02 0.  0.
        -12    1    3    3    0    0 -0.84894987316E+01 -0.60527211896E+01  0.35313918662E+02  0.36820916254E+02  0.00000000000E+00 0.  1.
         11    1    4    4    0    0 -0.36851704405E+01 -0.74662183170E+00 -0.13788406338E+01  0.40048878997E+01  0.51100000000E-03 0. -1.
        -11    1    4    4    0    0  0.19642670114E+02  0.16019282489E+02 -0.23262716210E+02  0.34403573454E+02  0.51100000000E-03 0.  1.
        -12    1    4    4    0    0 -0.74680009420E+01 -0.92199394682E+01 -0.10672361819E+02  0.15958622392E+02  0.00000000000E+00 0.  1.
</event>
<event>
 8    1  0.2553474E-006  0.9118800E+02  0.7816164E-02  0.1184000E+00
        -11   -1    0    0    0    0  0.00000000000E+00  0.00000000000E+00  0.45593999997E+02  0.45594000000E+02  0.51100000000E-03 0. -1.
         11   -1    0    0    0    0 -0.00000000000E+00 -0.00000000000E+00 -0.45593999997E+02  0.45594000000E+02  0.51100000000E-03 0.  1.
         23    2    1    2    0    0  0.35527136788E-14  0.00000000000E+00  0.35527136788E-14  0.91188000000E+02  0.91188000000E+02 0.  0.
    9900012    2    3    3    0    0  0.22607143878E+02 -0.65326257300E+01 -0.28319960527E+02  0.54367104879E+02  0.40000047192E+02 0.  0.
         12    1    3    3    0    0 -0.22607143878E+02  0.65326257300E+01  0.28319960527E+02  0.36820895121E+02  0.00000000000E+00 0. -1.
         11    1    4    4    0    0 -0.36747825188E+01  0.23300470727E+01  0.54732402127E+01  0.69921030176E+01  0.51100000000E-03 0. -1.
        -11    1    4    4    0    0  0.52689655896E+01 -0.67038775440E+01 -0.13087386626E+01  0.86265154992E+01  0.51100000000E-03 0.  1.
        -12    1    4    4    0    0  0.21012960808E+02 -0.21587952588E+01 -0.32484462078E+02  0.38748486362E+02  0.00000000000E+00 0.  1.
</event>
<event>
 8    1  0.2553474E-006  0.9118800E+02  0.7816164E-02  0.1184000E+00
        -11   -1    0    0    0    0  0.00000000000E+00  0.00000000000E+00  0.45593999997E+02  0.45594000000E+02  0.51100000000E-03 0.  1.
         11   -1    0    0    0    0 -0.00000000000E+00 -0.00000000000E+00 -0.45593999997E+02  0.45594000000E+02  0.51100000000E-03 0. -1.
         23    2    1    2    0    0 -0.35527136788E-14  0.00000000000E+00  0.35527136788E-14  0.91188000000E+02  0.91188000000E+02 0.  0.
    9900012    2    3    3    0    0  0.19180590484E+02 -0.28068376952E+01 -0.31305056125E+02  0.54367083008E+02  0.39999997333E+02 0.  0.
        -12    1    3    3    0    0 -0.19180590484E+02  0.28068376952E+01  0.31305056125E+02  0.36820916992E+02  0.00000000000E+00 0.  1.
         11    1    4    4    0    0  0.38819564149E+01 -0.11795212028E+02 -0.14869333828E+02  0.19372498578E+02  0.51100000000E-03 0. -1.
        -11    1    4    4    0    0 -0.23680261758E+00 -0.55505162786E+01 -0.12051192494E+02  0.13270099744E+02  0.51100000000E-03 0.  1.
        -12    1    4    4    0    0  0.15535436687E+02  0.14538890612E+02 -0.43845298028E+01  0.21724484686E+02  0.00000000000E+00 0.  1.
</event>
<event>
 8    1  0.2553474E-006  0.9118800E+02  0.7816164E-02  0.1184000E+00
        -11   -1    0    0    0    0  0.00000000000E+00  0.00000000000E+00  0.45593999997E+02  0.45594000000E+02  0.51100000000E-03 0. -1.
         11   -1    0    0    0    0 -0.00000000000E+00 -0.00000000000E+00 -0.45593999997E+02  0.45594000000E+02  0.51100000000E-03 0.  1.
         23    2    1    2    0    0  0.00000000000E+00  0.13322676296E-14  0.00000000000E+00  0.91188000000E+02  0.91188000000E+02 0.  0.
    9900012    2    3    3    0    0  0.30652125291E+02  0.32487834817E+01  0.20141376354E+02  0.54367049165E+02  0.39999920180E+02 0.  0.
        -12    1    3    3    0    0 -0.30652125291E+02 -0.32487834817E+01 -0.20141376354E+02  0.36820950835E+02  0.00000000000E+00 0.  1.
         11    1    4    4    0    0 -0.26215603700E+01 -0.10822876100E+02  0.59589199378E+01  0.12629962507E+02  0.51100000000E-03 0. -1.
        -11    1    4    4    0    0  0.35268886987E+01  0.80465923796E+01  0.18609665915E+01  0.89805227984E+01  0.51100000000E-03 0.  1.
         12    1    4    4    0    0  0.29746796963E+02  0.60250672023E+01  0.12321489825E+02  0.32756563859E+02  0.00000000000E+00 0. -1.
</event>
<event>
 8    1  0.2553474E-006  0.9118800E+02  0.7816164E-02  0.1184000E+00
        -11   -1    0    0    0    0  0.00000000000E+00  0.00000000000E+00  0.45593999997E+02  0.45594000000E+02  0.51100000000E-03 0. -1.
         11   -1    0    0    0    0 -0.00000000000E+00 -0.00000000000E+00 -0.45593999997E+02  0.45594000000E+02  0.51100000000E-03 0.  1.
         23    2    1    2    0    0  0.35527136788E-14  0.35527136788E-14  0.00000000000E+00  0.91188000000E+02  0.91188000000E+02 0.  0.
    9900012    2    3    3    0    0  0.23304467768E+02 -0.21706221094E+02  0.18480391937E+02  0.54367039417E+02  0.39999897958E+02 0.  0.
        -12    1    3    3    0    0 -0.23304467768E+02  0.21706221094E+02 -0.18480391937E+02  0.36820960583E+02  0.00000000000E+00 0.  1.
         11    1    4    4    0    0 -0.73642479249E+00 -0.10271525997E+02  0.13865113626E+02  0.17271014559E+02  0.51100000000E-03 0. -1.
        -11    1    4    4    0    0  0.20296825156E+02  0.12941360045E+01 -0.47129798889E+01  0.20876974855E+02  0.51100000000E-03 0.  1.
         12    1    4    4    0    0  0.37440674046E+01 -0.12728831102E+02  0.93282582001E+01  0.16219050003E+02  0.00000000000E+00 0. -1.
</event>
<event>
 8    1  0.2553474E-006  0.9118800E+02  0.7816164E-02  0.1184000E+00
        -11   -1    0    0    0    0  0.00000000000E+00  0.00000000000E+00  0.45593999997E+02  0.45594000000E+02  0.51100000000E-03 0.  1.
         11   -1    0    0    0    0 -0.00000000000E+00 -0.00000000000E+00 -0.45593999997E+02  0.45594000000E+02  0.51100000000E-03 0. -1.
         23    2    1    2    0    0  0.00000000000E+00  0.00000000000E+00  0.00000000000E+00  0.91188000000E+02  0.91188000000E+02 0.  0.
    9900012    2    3    3    0    0  0.26354443897E+02  0.59826843075E+01  0.25008494753E+02  0.54367163039E+02  0.40000179780E+02 0.  0.
         12    1    3    3    0    0 -0.26354443897E+02 -0.59826843075E+01 -0.25008494753E+02  0.36820836961E+02  0.00000000000E+00 0. -1.
         11    1    4    4    0    0  0.14410330520E+02  0.12012035574E+02  0.47271229039E+01  0.19346635767E+02  0.51100000000E-03 0. -1.
        -11    1    4    4    0    0  0.76252070597E+01  0.51199340271E+01  0.21123962627E+02  0.23034307119E+02  0.51100000000E-03 0.  1.
        -12    1    4    4    0    0  0.43189063180E+01 -0.11149285293E+02 -0.84259077732E+00  0.11986220153E+02  0.00000000000E+00 0.  1.
</event>
<event>
 8    1  0.2553474E-006  0.9118800E+02  0.7816164E-02  0.1184000E+00
        -11   -1    0    0    0    0  0.00000000000E+00  0.00000000000E+00  0.45593999997E+02  0.45594000000E+02  0.51100000000E-03 0.  1.
         11   -1    0    0    0    0 -0.00000000000E+00 -0.00000000000E+00 -0.45593999997E+02  0.45594000000E+02  0.51100000000E-03 0. -1.
         23    2    1    2    0    0  0.88817841970E-15  0.35527136788E-14  0.00000000000E+00  0.91188000000E+02  0.91188000000E+02 0.  0.
    9900012    2    3    3    0    0  0.68976386488E+01  0.28345971304E+02  0.22465728692E+02  0.54367075599E+02  0.39999980443E+02 0.  0.
         12    1    3    3    0    0 -0.68976386488E+01 -0.28345971304E+02 -0.22465728692E+02  0.36820924401E+02  0.00000000000E+00 0. -1.
         11    1    4    4    0    0  0.14061979934E+02 -0.29612588797E+01  0.34124033783E+01  0.14769997660E+02  0.51100000000E-03 0. -1.
        -11    1    4    4    0    0 -0.10346326859E+02  0.18749735238E+02  0.91355891964E+01  0.23282139962E+02  0.51100000000E-03 0.  1.
         12    1    4    4    0    0  0.31819855739E+01  0.12557494945E+02  0.99177361170E+01  0.16314937977E+02  0.00000000000E+00 0. -1.
</event>
<event>
 8    1  0.2553474E-006  0.9118800E+02  0.7816164E-02  0.1184000E+00
        -11   -1    0    0    0    0  0.00000000000E+00  0.00000000000E+00  0.45593999997E+02  0.45594000000E+02  0.51100000000E-03 0.  1.
         11   -1    0    0    0    0 -0.00000000000E+00 -0.00000000000E+00 -0.45593999997E+02  0.45594000000E+02  0.51100000000E-03 0. -1.
         23    2    1    2    0    0  0.00000000000E+00 -0.88817841970E-15  0.00000000000E+00  0.91188000000E+02  0.91188000000E+02 0.  0.
    9900012    2    3    3    0    0  0.19448466708E+02  0.53602438932E+01  0.30802682727E+02  0.54367077482E+02  0.39999984737E+02 0.  0.
         12    1    3    3    0    0 -0.19448466708E+02 -0.53602438932E+01 -0.30802682727E+02  0.36820922518E+02  0.00000000000E+00 0. -1.
         11    1    4    4    0    0  0.11216214169E+02  0.13856568365E+01 -0.75705813904E+00  0.11326810780E+02  0.51100000000E-03 0. -1.
        -11    1    4    4    0    0 -0.65722114739E+01  0.19156503783E+01 -0.12750866311E+01  0.69634421236E+01  0.51100000000E-03 0.  1.
        -12    1    4    4    0    0  0.14804464013E+02  0.20589366785E+01  0.32834827497E+02  0.36076824579E+02  0.00000000000E+00 0.  1.
</event>
<event>
 8    1  0.2553474E-006  0.9118800E+02  0.7816164E-02  0.1184000E+00
        -11   -1    0    0    0    0  0.00000000000E+00  0.00000000000E+00  0.45593999997E+02  0.45594000000E+02  0.51100000000E-03 0.  1.
         11   -1    0    0    0    0 -0.00000000000E+00 -0.00000000000E+00 -0.45593999997E+02  0.45594000000E+02  0.51100000000E-03 0. -1.
         23    2    1    2    0    0  0.00000000000E+00  0.35527136788E-14  0.00000000000E+00  0.91188000000E+02  0.91188000000E+02 0.  0.
    9900012    2    3    3    0    0 -0.22060175160E+02 -0.25180589783E+02 -0.15331975199E+02  0.54367042741E+02  0.39999905537E+02 0.  0.
        -12    1    3    3    0    0  0.22060175160E+02  0.25180589783E+02  0.15331975199E+02  0.36820957259E+02  0.00000000000E+00 0.  1.
         11    1    4    4    0    0 -0.14171046530E+01  0.53850330482E+01 -0.11039401054E+02  0.12364268778E+02  0.51100000000E-03 0. -1.
        -11    1    4    4    0    0  0.72165943640E+00 -0.14237416205E+02  0.19759168833E+01  0.14391979028E+02  0.51100000000E-03 0.  1.
         12    1    4    4    0    0 -0.21364729944E+02 -0.16328206627E+02 -0.62684910287E+01  0.27610794936E+02  0.00000000000E+00 0. -1.
</event>
<event>
 8    1  0.2553474E-006  0.9118800E+02  0.7816164E-02  0.1184000E+00
        -11   -1    0    0    0    0  0.00000000000E+00  0.00000000000E+00  0.45593999997E+02  0.45594000000E+02  0.51100000000E-03 0.  1.
         11   -1    0    0    0    0 -0.00000000000E+00 -0.00000000000E+00 -0.45593999997E+02  0.45594000000E+02  0.51100000000E-03 0. -1.
         23    2    1    2    0    0  0.00000000000E+00  0.00000000000E+00 -0.71054273576E-14  0.91188000000E+02  0.91188000000E+02 0.  0.
    9900012    2    3    3    0    0  0.12169980896E+02  0.84619774158E+01 -0.33705581709E+02  0.54367085629E+02  0.40000003308E+02 0.  0.
        -12    1    3    3    0    0 -0.12169980896E+02 -0.84619774158E+01  0.33705581709E+02  0.36820914371E+02  0.00000000000E+00 0.  1.
         11    1    4    4    0    0 -0.10347745350E+02  0.61348752810E+01 -0.22691307950E+02  0.25682834448E+02  0.51100000000E-03 0. -1.
        -11    1    4    4    0    0  0.21571951095E+02 -0.22115548697E+01 -0.10250231393E+02  0.23985564260E+02  0.51100000000E-03 0.  1.
        -12    1    4    4    0    0  0.94577515086E+00  0.45386570046E+01 -0.76404236607E+00  0.46986869207E+01  0.00000000000E+00 0.  1.
</event>
<event>
 8    1  0.2553474E-006  0.9118800E+02  0.7816164E-02  0.1184000E+00
        -11   -1    0    0    0    0  0.00000000000E+00  0.00000000000E+00  0.45593999997E+02  0.45594000000E+02  0.51100000000E-03 0.  1.
         11   -1    0    0    0    0 -0.00000000000E+00 -0.00000000000E+00 -0.45593999997E+02  0.45594000000E+02  0.51100000000E-03 0. -1.
         23    2    1    2    0    0  0.00000000000E+00  0.00000000000E+00  0.22204460493E-15  0.91188000000E+02  0.91188000000E+02 0.  0.
    9900012    2    3    3    0    0 -0.34342294531E+02 -0.13190001592E+02 -0.15526814199E+01  0.54367079924E+02  0.39999990302E+02 0.  0.
         12    1    3    3    0    0  0.34342294531E+02  0.13190001592E+02  0.15526814199E+01  0.36820920076E+02  0.00000000000E+00 0. -1.
         11    1    4    4    0    0 -0.10789077853E+02  0.12219128376E+02  0.16696854087E+01  0.16385943635E+02  0.51100000000E-03 0. -1.
        -11    1    4    4    0    0 -0.99381261885E+01 -0.21312454904E+02 -0.60046610920E+00  0.23523342577E+02  0.51100000000E-03 0.  1.
         12    1    4    4    0    0 -0.13615090490E+02 -0.40966750636E+01 -0.26219007194E+01  0.14457793712E+02  0.00000000000E+00 0. -1.
</event>
<event>
 8    1  0.2553474E-006  0.9118800E+02  0.7816164E-02  0.1184000E+00
        -11   -1    0    0    0    0  0.00000000000E+00  0.00000000000E+00  0.45593999997E+02  0.45594000000E+02  0.51100000000E-03 0. -1.
         11   -1    0    0    0    0 -0.00000000000E+00 -0.00000000000E+00 -0.45593999997E+02  0.45594000000E+02  0.51100000000E-03 0.  1.
         23    2    1    2    0    0  0.00000000000E+00  0.35527136788E-14  0.00000000000E+00  0.91188000000E+02  0.91188000000E+02 0.  0.
    9900012    2    3    3    0    0 -0.18611958101E+02 -0.18363523116E+02  0.25925914170E+02  0.54367122890E+02  0.40000088253E+02 0.  0.
        -12    1    3    3    0    0  0.18611958101E+02  0.18363523116E+02 -0.25925914170E+02  0.36820877110E+02  0.00000000000E+00 0.  1.
         11    1    4    4    0    0 -0.23174958863E+02 -0.96929415264E+01  0.23028322347E+02  0.34078372381E+02  0.51100000000E-03 0. -1.
        -11    1    4    4    0    0  0.44151694788E+01 -0.91018591356E+01  0.93767850925E+01  0.13793536899E+02  0.51100000000E-03 0.  1.
         12    1    4    4    0    0  0.14783128389E+00  0.43127754602E+00 -0.64791932701E+01  0.64952136102E+01  0.00000000000E+00 0. -1.
</event>
<event>
 8    1  0.2553474E-006  0.9118800E+02  0.7816164E-02  0.1184000E+00
        -11   -1    0    0    0    0  0.00000000000E+00  0.00000000000E+00  0.45593999997E+02  0.45594000000E+02  0.51100000000E-03 0.  1.
         11   -1    0    0    0    0 -0.00000000000E+00 -0.00000000000E+00 -0.45593999997E+02  0.45594000000E+02  0.51100000000E-03 0. -1.
         23    2    1    2    0    0  0.00000000000E+00  0.35527136788E-14  0.35527136788E-14  0.91188000000E+02  0.91188000000E+02 0.  0.
    9900012    2    3    3    0    0 -0.12861120741E+02  0.19056959072E+02  0.28761162318E+02  0.54367074242E+02  0.39999977349E+02 0.  0.
         12    1    3    3    0    0  0.12861120741E+02 -0.19056959072E+02 -0.28761162318E+02  0.36820925758E+02  0.00000000000E+00 0. -1.
         11    1    4    4    0    0  0.12974178597E+02  0.87487723135E+00  0.61577877929E+01  0.14387948819E+02  0.51100000000E-03 0. -1.
        -11    1    4    4    0    0 -0.58972609932E+01  0.94352926981E+01  0.63687430968E+01  0.12820426062E+02  0.51100000000E-03 0.  1.
        -12    1    4    4    0    0 -0.19938038345E+02  0.87467891428E+01  0.16234631429E+02  0.27158699361E+02  0.00000000000E+00 0.  1.
</event>
<event>
 8    1  0.2553474E-006  0.9118800E+02  0.7816164E-02  0.1184000E+00
        -11   -1    0    0    0    0  0.00000000000E+00  0.00000000000E+00  0.45593999997E+02  0.45594000000E+02  0.51100000000E-03 0. -1.
         11   -1    0    0    0    0 -0.00000000000E+00 -0.00000000000E+00 -0.45593999997E+02  0.45594000000E+02  0.51100000000E-03 0.  1.
         23    2    1    2    0    0 -0.11102230246E-14  0.00000000000E+00  0.35527136788E-14  0.91188000000E+02  0.91188000000E+02 0.  0.
    9900012    2    3    3    0    0  0.15645488290E+01  0.19137469553E+02 -0.31417967950E+02  0.54367092026E+02  0.40000017892E+02 0.  0.
         12    1    3    3    0    0 -0.15645488290E+01 -0.19137469553E+02  0.31417967950E+02  0.36820907974E+02  0.00000000000E+00 0. -1.
         11    1    4    4    0    0  0.14614426636E+02  0.14604177319E+02 -0.32908060477E+02  0.38856195203E+02  0.51100000000E-03 0. -1.
        -11    1    4    4    0    0 -0.37081057843E+01  0.39957966030E+01 -0.15583148522E+01  0.56696370643E+01  0.51100000000E-03 0.  1.
         12    1    4    4    0    0 -0.93417720230E+01  0.53749563114E+00  0.30484073792E+01  0.98412597584E+01  0.00000000000E+00 0. -1.
</event>
<event>
 8    1  0.2553474E-006  0.9118800E+02  0.7816164E-02  0.1184000E+00
        -11   -1    0    0    0    0  0.00000000000E+00  0.00000000000E+00  0.45593999997E+02  0.45594000000E+02  0.51100000000E-03 0. -1.
         11   -1    0    0    0    0 -0.00000000000E+00 -0.00000000000E+00 -0.45593999997E+02  0.45594000000E+02  0.51100000000E-03 0.  1.
         23    2    1    2    0    0  0.00000000000E+00  0.77715611724E-15  0.00000000000E+00  0.91188000000E+02  0.91188000000E+02 0.  0.
    9900012    2    3    3    0    0 -0.26387830651E+02  0.58578512036E+00  0.25673290111E+02  0.54367101371E+02  0.40000039196E+02 0.  0.
        -12    1    3    3    0    0  0.26387830651E+02 -0.58578512036E+00 -0.25673290111E+02  0.36820898629E+02  0.00000000000E+00 0.  1.
         11    1    4    4    0    0 -0.74469668782E+01 -0.91408307840E+01  0.33328457214E+01  0.12252345244E+02  0.51100000000E-03 0. -1.
        -11    1    4    4    0    0  0.43826068226E+01  0.52066778921E+01  0.16207686094E+02  0.17578561546E+02  0.51100000000E-03 0.  1.
         12    1    4    4    0    0 -0.23323470596E+02  0.45199380122E+01  0.61327582958E+01  0.24536194582E+02  0.00000000000E+00 0. -1.
</event>
<event>
 8    1  0.2553474E-006  0.9118800E+02  0.7816164E-02  0.1184000E+00
        -11   -1    0    0    0    0  0.00000000000E+00  0.00000000000E+00  0.45593999997E+02  0.45594000000E+02  0.51100000000E-03 0. -1.
         11   -1    0    0    0    0 -0.00000000000E+00 -0.00000000000E+00 -0.45593999997E+02  0.45594000000E+02  0.51100000000E-03 0.  1.
         23    2    1    2    0    0  0.00000000000E+00  0.00000000000E+00  0.35527136788E-14  0.91188000000E+02  0.91188000000E+02 0.  0.
    9900012    2    3    3    0    0  0.12190423714E+02  0.17793672043E+02  0.29842232957E+02  0.54367081177E+02  0.39999993159E+02 0.  0.
        -12    1    3    3    0    0 -0.12190423714E+02 -0.17793672043E+02 -0.29842232957E+02  0.36820918823E+02  0.00000000000E+00 0.  1.
         11    1    4    4    0    0  0.74136532324E+01 -0.31347286872E+01  0.24603473504E+02  0.25886670062E+02  0.51100000000E-03 0.  1.
        -11    1    4    4    0    0  0.10252638226E+02  0.84648484091E+01  0.65175675024E+01  0.14807056953E+02  0.51100000000E-03 0. -1.
         12    1    4    4    0    0 -0.54758677452E+01  0.12463552321E+02 -0.12788080487E+01  0.13673354162E+02  0.00000000000E+00 0. -1.
</event>
<event>
 8    1  0.2553474E-006  0.9118800E+02  0.7816164E-02  0.1184000E+00
        -11   -1    0    0    0    0  0.00000000000E+00  0.00000000000E+00  0.45593999997E+02  0.45594000000E+02  0.51100000000E-03 0. -1.
         11   -1    0    0    0    0 -0.00000000000E+00 -0.00000000000E+00 -0.45593999997E+02  0.45594000000E+02  0.51100000000E-03 0.  1.
         23    2    1    2    0    0  0.22204460493E-15  0.00000000000E+00  0.00000000000E+00  0.91188000000E+02  0.91188000000E+02 0.  0.
    9900012    2    3    3    0    0 -0.12687200288E+01  0.13136249756E+02  0.34374548606E+02  0.54367077958E+02  0.39999985820E+02 0.  0.
        -12    1    3    3    0    0  0.12687200288E+01 -0.13136249756E+02 -0.34374548606E+02  0.36820922042E+02  0.00000000000E+00 0.  1.
         11    1    4    4    0    0 -0.22069213107E+00  0.10546408689E+01  0.20893646811E+02  0.20921411275E+02  0.51100000000E-03 0. -1.
        -11    1    4    4    0    0  0.40731610223E+01 -0.67111490333E+01  0.11421123987E+02  0.13859012788E+02  0.51100000000E-03 0.  1.
         12    1    4    4    0    0 -0.51211889200E+01  0.18792757920E+02  0.20597778080E+01  0.19586653895E+02  0.00000000000E+00 0. -1.
</event>
<event>
 8    1  0.2553474E-006  0.9118800E+02  0.7816164E-02  0.1184000E+00
        -11   -1    0    0    0    0  0.00000000000E+00  0.00000000000E+00  0.45593999997E+02  0.45594000000E+02  0.51100000000E-03 0. -1.
         11   -1    0    0    0    0 -0.00000000000E+00 -0.00000000000E+00 -0.45593999997E+02  0.45594000000E+02  0.51100000000E-03 0.  1.
         23    2    1    2    0    0 -0.35527136788E-14  0.00000000000E+00  0.00000000000E+00  0.91188000000E+02  0.91188000000E+02 0.  0.
    9900012    2    3    3    0    0 -0.23146230229E+02  0.67866018856E+01  0.27820387323E+02  0.54367083529E+02  0.39999998521E+02 0.  0.
         12    1    3    3    0    0  0.23146230229E+02 -0.67866018856E+01 -0.27820387323E+02  0.36820916471E+02  0.00000000000E+00 0. -1.
         11    1    4    4    0    0  0.30412768435E+01  0.10509419853E+01 -0.70324182831E+01  0.77336117736E+01  0.51100000000E-03 0. -1.
        -11    1    4    4    0    0 -0.81150883324E+01  0.70456283586E+01  0.21789549527E+02  0.24295678761E+02  0.51100000000E-03 0.  1.
         12    1    4    4    0    0 -0.18072418740E+02 -0.13099684583E+01  0.13063256079E+02  0.22337792995E+02  0.00000000000E+00 0. -1.
</event>
<event>
 8    1  0.2553474E-006  0.9118800E+02  0.7816164E-02  0.1184000E+00
        -11   -1    0    0    0    0  0.00000000000E+00  0.00000000000E+00  0.45593999997E+02  0.45594000000E+02  0.51100000000E-03 0. -1.
         11   -1    0    0    0    0 -0.00000000000E+00 -0.00000000000E+00 -0.45593999997E+02  0.45594000000E+02  0.51100000000E-03 0.  1.
         23    2    1    2    0    0  0.00000000000E+00  0.35527136788E-14 -0.35527136788E-14  0.91188000000E+02  0.91188000000E+02 0.  0.
    9900012    2    3    3    0    0 -0.23263367343E+02  0.16480371491E+02 -0.23302206216E+02  0.54367085846E+02  0.40000003802E+02 0.  0.
         12    1    3    3    0    0  0.23263367343E+02 -0.16480371491E+02  0.23302206216E+02  0.36820914154E+02  0.00000000000E+00 0. -1.
         11    1    4    4    0    0 -0.62093084683E+01  0.13279475296E+02 -0.10420724932E+02  0.17985869013E+02  0.51100000000E-03 0. -1.
        -11    1    4    4    0    0 -0.73194422960E+01  0.35369418143E+01 -0.21743008804E+02  0.23212983975E+02  0.51100000000E-03 0.  1.
         12    1    4    4    0    0 -0.97346165787E+01 -0.33604561898E+00  0.88615275199E+01  0.13168232857E+02  0.00000000000E+00 0. -1.
</event>
<event>
 8    1  0.2553474E-006  0.9118800E+02  0.7816164E-02  0.1184000E+00
        -11   -1    0    0    0    0  0.00000000000E+00  0.00000000000E+00  0.45593999997E+02  0.45594000000E+02  0.51100000000E-03 0.  1.
         11   -1    0    0    0    0 -0.00000000000E+00 -0.00000000000E+00 -0.45593999997E+02  0.45594000000E+02  0.51100000000E-03 0. -1.
         23    2    1    2    0    0 -0.17763568394E-14  0.88817841970E-15  0.00000000000E+00  0.91188000000E+02  0.91188000000E+02 0.  0.
    9900012    2    3    3    0    0  0.73752781073E+01 -0.64965504694E+01  0.35484936161E+02  0.54367074027E+02  0.39999976860E+02 0.  0.
         12    1    3    3    0    0 -0.73752781073E+01  0.64965504694E+01 -0.35484936161E+02  0.36820925973E+02  0.00000000000E+00 0. -1.
         11    1    4    4    0    0  0.52136399145E+01 -0.13554529076E+02  0.24088145684E+01  0.14721062717E+02  0.51100000000E-03 0. -1.
        -11    1    4    4    0    0 -0.90505279699E+01  0.13783499535E+01  0.11801794207E+02  0.14936339977E+02  0.51100000000E-03 0.  1.
        -12    1    4    4    0    0  0.11212166163E+02  0.56796286536E+01  0.21274327385E+02  0.24709671333E+02  0.00000000000E+00 0.  1.
</event>
<event>
 8    1  0.2553474E-006  0.9118800E+02  0.7816164E-02  0.1184000E+00
        -11   -1    0    0    0    0  0.00000000000E+00  0.00000000000E+00  0.45593999997E+02  0.45594000000E+02  0.51100000000E-03 0.  1.
         11   -1    0    0    0    0 -0.00000000000E+00 -0.00000000000E+00 -0.45593999997E+02  0.45594000000E+02  0.51100000000E-03 0. -1.
         23    2    1    2    0    0  0.00000000000E+00  0.00000000000E+00  0.35527136788E-14  0.91188000000E+02  0.91188000000E+02 0.  0.
    9900012    2    3    3    0    0 -0.11206617613E+02  0.18132479879E+02 -0.30023356827E+02  0.54367121954E+02  0.40000086119E+02 0.  0.
        -12    1    3    3    0    0  0.11206617613E+02 -0.18132479879E+02  0.30023356827E+02  0.36820878046E+02  0.00000000000E+00 0.  1.
         11    1    4    4    0    0 -0.32892294170E+01 -0.17385368050E+01 -0.79206554315E+01  0.87509041307E+01  0.51100000000E-03 0. -1.
        -11    1    4    4    0    0 -0.53589811559E+00  0.21532930606E+02  0.74072875001E+00  0.21552330886E+02  0.51100000000E-03 0.  1.
        -12    1    4    4    0    0 -0.73814900807E+01 -0.16619139230E+01 -0.22843430146E+02  0.24063886937E+02  0.00000000000E+00 0.  1.
</event>
<event>
 8    1  0.2553474E-006  0.9118800E+02  0.7816164E-02  0.1184000E+00
        -11   -1    0    0    0    0  0.00000000000E+00  0.00000000000E+00  0.45593999997E+02  0.45594000000E+02  0.51100000000E-03 0. -1.
         11   -1    0    0    0    0 -0.00000000000E+00 -0.00000000000E+00 -0.45593999997E+02  0.45594000000E+02  0.51100000000E-03 0.  1.
         23    2    1    2    0    0  0.35527136788E-14 -0.17763568394E-14  0.00000000000E+00  0.91188000000E+02  0.91188000000E+02 0.  0.
    9900012    2    3    3    0    0 -0.22223049421E+02 -0.12910395113E+02 -0.26367347813E+02  0.54367092105E+02  0.40000018072E+02 0.  0.
         12    1    3    3    0    0  0.22223049421E+02  0.12910395113E+02  0.26367347813E+02  0.36820907895E+02  0.00000000000E+00 0. -1.
         11    1    4    4    0    0 -0.18799471055E+02 -0.11801664060E+02 -0.60006409146E+01  0.22993631253E+02  0.51100000000E-03 0. -1.
        -11    1    4    4    0    0  0.71110990057E+01 -0.83738385155E+01 -0.10702738177E+02  0.15337454329E+02  0.51100000000E-03 0.  1.
        -12    1    4    4    0    0 -0.10534677371E+02  0.72651074625E+01 -0.96639687211E+01  0.16036006523E+02  0.00000000000E+00 0.  1.
</event>
<event>
 8    1  0.2553474E-006  0.9118800E+02  0.7816164E-02  0.1184000E+00
        -11   -1    0    0    0    0  0.00000000000E+00  0.00000000000E+00  0.45593999997E+02  0.45594000000E+02  0.51100000000E-03 0.  1.
         11   -1    0    0    0    0 -0.00000000000E+00 -0.00000000000E+00 -0.45593999997E+02  0.45594000000E+02  0.51100000000E-03 0. -1.
         23    2    1    2    0    0 -0.88817841970E-15 -0.13322676296E-14  0.00000000000E+00  0.91188000000E+02  0.91188000000E+02 0.  0.
    9900012    2    3    3    0    0  0.44283509746E+01  0.18804759133E+01 -0.36505250536E+02  0.54367084765E+02  0.40000001339E+02 0.  0.
        -12    1    3    3    0    0 -0.44283509746E+01 -0.18804759133E+01  0.36505250536E+02  0.36820915235E+02  0.00000000000E+00 0.  1.
         11    1    4    4    0    0  0.50201504521E+01 -0.18166720729E+02 -0.19574459151E+02  0.27173352828E+02  0.51100000000E-03 0. -1.
        -11    1    4    4    0    0 -0.11317177083E+00 -0.39462529923E+00  0.25499201280E+00  0.48327855758E+00  0.51100000000E-03 0.  1.
        -12    1    4    4    0    0 -0.47862770660E+00  0.20441821941E+02 -0.17185783398E+02  0.26710453380E+02  0.00000000000E+00 0.  1.
</event>
<event>
 8    1  0.2553474E-006  0.9118800E+02  0.7816164E-02  0.1184000E+00
        -11   -1    0    0    0    0  0.00000000000E+00  0.00000000000E+00  0.45593999997E+02  0.45594000000E+02  0.51100000000E-03 0. -1.
         11   -1    0    0    0    0 -0.00000000000E+00 -0.00000000000E+00 -0.45593999997E+02  0.45594000000E+02  0.51100000000E-03 0.  1.
         23    2    1    2    0    0  0.00000000000E+00  0.00000000000E+00  0.35527136788E-14  0.91188000000E+02  0.91188000000E+02 0.  0.
    9900012    2    3    3    0    0  0.23404423105E+02 -0.14980370964E+02 -0.24157854673E+02  0.54367075549E+02  0.39999980329E+02 0.  0.
         12    1    3    3    0    0 -0.23404423105E+02  0.14980370964E+02  0.24157854673E+02  0.36820924451E+02  0.00000000000E+00 0. -1.
         11    1    4    4    0    0 -0.29493993417E+01 -0.11240530542E+02  0.29522060565E+01  0.11990162810E+02  0.51100000000E-03 0. -1.
        -11    1    4    4    0    0  0.12469856283E+02 -0.88078398565E+01 -0.55647777626E+01  0.16249372618E+02  0.51100000000E-03 0.  1.
         12    1    4    4    0    0  0.13883966163E+02  0.50679994350E+01 -0.21545282966E+02  0.26127540121E+02  0.00000000000E+00 0. -1.
</event>
<event>
 8    1  0.2553474E-006  0.9118800E+02  0.7816164E-02  0.1184000E+00
        -11   -1    0    0    0    0  0.00000000000E+00  0.00000000000E+00  0.45593999997E+02  0.45594000000E+02  0.51100000000E-03 0. -1.
         11   -1    0    0    0    0 -0.00000000000E+00 -0.00000000000E+00 -0.45593999997E+02  0.45594000000E+02  0.51100000000E-03 0.  1.
         23    2    1    2    0    0  0.71054273576E-14 -0.88817841970E-15 -0.17763568394E-14  0.91188000000E+02  0.91188000000E+02 0.  0.
    9900012    2    3    3    0    0  0.33088443710E+02 -0.53117218756E+01 -0.15255101528E+02  0.54367114364E+02  0.40000068815E+02 0.  0.
         12    1    3    3    0    0 -0.33088443710E+02  0.53117218756E+01  0.15255101528E+02  0.36820885636E+02  0.00000000000E+00 0. -1.
         11    1    4    4    0    0  0.18563624863E+02 -0.28720867958E+00  0.95558743466E+01  0.20880742124E+02  0.51100000000E-03 0. -1.
        -11    1    4    4    0    0 -0.52022842492E+00  0.45952844251E+01 -0.47774882972E+01  0.66491857586E+01  0.51100000000E-03 0.  1.
        -12    1    4    4    0    0  0.15045047272E+02 -0.96197976211E+01 -0.20033487577E+02  0.26837186481E+02  0.00000000000E+00 0.  1.
</event>
<event>
 8    1  0.2553474E-006  0.9118800E+02  0.7816164E-02  0.1184000E+00
        -11   -1    0    0    0    0  0.00000000000E+00  0.00000000000E+00  0.45593999997E+02  0.45594000000E+02  0.51100000000E-03 0. -1.
         11   -1    0    0    0    0 -0.00000000000E+00 -0.00000000000E+00 -0.45593999997E+02  0.45594000000E+02  0.51100000000E-03 0.  1.
         23    2    1    2    0    0  0.00000000000E+00  0.00000000000E+00  0.17763568394E-14  0.91188000000E+02  0.91188000000E+02 0.  0.
    9900012    2    3    3    0    0  0.27429902323E+02 -0.20759446483E+02  0.13131114373E+02  0.54367077627E+02  0.39999985066E+02 0.  0.
        -12    1    3    3    0    0 -0.27429902323E+02  0.20759446483E+02 -0.13131114373E+02  0.36820922373E+02  0.00000000000E+00 0.  1.
         11    1    4    4    0    0  0.15523510367E+02 -0.49744821004E+01  0.15006223048E+01  0.16369994314E+02  0.51100000000E-03 0. -1.
        -11    1    4    4    0    0  0.17949698081E+02 -0.92905243531E+01 -0.34470188394E+01  0.20503351997E+02  0.51100000000E-03 0.  1.
        -12    1    4    4    0    0 -0.60433061246E+01 -0.64944400293E+01  0.15077510907E+02  0.17493731316E+02  0.00000000000E+00 0.  1.
</event>
<event>
 8    1  0.2553474E-006  0.9118800E+02  0.7816164E-02  0.1184000E+00
        -11   -1    0    0    0    0  0.00000000000E+00  0.00000000000E+00  0.45593999997E+02  0.45594000000E+02  0.51100000000E-03 0.  1.
         11   -1    0    0    0    0 -0.00000000000E+00 -0.00000000000E+00 -0.45593999997E+02  0.45594000000E+02  0.51100000000E-03 0. -1.
         23    2    1    2    0    0  0.00000000000E+00  0.00000000000E+00  0.00000000000E+00  0.91188000000E+02  0.91188000000E+02 0.  0.
    9900012    2    3    3    0    0  0.10747405244E+02  0.98114697636E+01  0.33823183862E+02  0.54367089840E+02  0.40000012909E+02 0.  0.
         12    1    3    3    0    0 -0.10747405244E+02 -0.98114697636E+01 -0.33823183862E+02  0.36820910160E+02  0.00000000000E+00 0. -1.
         11    1    4    4    0    0 -0.21779175130E+01  0.12315586202E+02  0.18279443758E+02  0.22148477432E+02  0.51100000000E-03 0. -1.
        -11    1    4    4    0    0  0.62232521124E+01 -0.11128593915E+02  0.16945390101E+02  0.21206619611E+02  0.51100000000E-03 0.  1.
        -12    1    4    4    0    0  0.67020706445E+01  0.86244774767E+01 -0.14016499963E+01  0.11011992798E+02  0.00000000000E+00 0.  1.
</event>
<event>
 8    1  0.2553474E-006  0.9118800E+02  0.7816164E-02  0.1184000E+00
        -11   -1    0    0    0    0  0.00000000000E+00  0.00000000000E+00  0.45593999997E+02  0.45594000000E+02  0.51100000000E-03 0.  1.
         11   -1    0    0    0    0 -0.00000000000E+00 -0.00000000000E+00 -0.45593999997E+02  0.45594000000E+02  0.51100000000E-03 0. -1.
         23    2    1    2    0    0  0.35527136788E-14  0.00000000000E+00  0.88817841970E-15  0.91188000000E+02  0.91188000000E+02 0.  0.
    9900012    2    3    3    0    0 -0.22652119715E+02 -0.28494952047E+02 -0.55410936662E+01  0.54367020399E+02  0.39999854604E+02 0.  0.
        -12    1    3    3    0    0  0.22652119715E+02  0.28494952047E+02  0.55410936662E+01  0.36820979601E+02  0.00000000000E+00 0.  1.
         11    1    4    4    0    0  0.58000461495E+00 -0.10785386278E+02 -0.79473688735E+01  0.13409758939E+02  0.51100000000E-03 0. -1.
        -11    1    4    4    0    0  0.30539470723E+01 -0.73027416250E-01  0.82236335851E+01  0.87726891730E+01  0.51100000000E-03 0.  1.
         12    1    4    4    0    0 -0.26286071402E+02 -0.17636538352E+02 -0.58173583778E+01  0.32184572287E+02  0.00000000000E+00 0. -1.
</event>
<event>
 8    1  0.2553474E-006  0.9118800E+02  0.7816164E-02  0.1184000E+00
        -11   -1    0    0    0    0  0.00000000000E+00  0.00000000000E+00  0.45593999997E+02  0.45594000000E+02  0.51100000000E-03 0.  1.
         11   -1    0    0    0    0 -0.00000000000E+00 -0.00000000000E+00 -0.45593999997E+02  0.45594000000E+02  0.51100000000E-03 0. -1.
         23    2    1    2    0    0  0.00000000000E+00  0.00000000000E+00  0.00000000000E+00  0.91188000000E+02  0.91188000000E+02 0.  0.
    9900012    2    3    3    0    0 -0.30980151720E+02 -0.28829130386E+01 -0.19690105283E+02  0.54367065272E+02  0.39999956901E+02 0.  0.
        -12    1    3    3    0    0  0.30980151720E+02  0.28829130386E+01  0.19690105283E+02  0.36820934728E+02  0.00000000000E+00 0.  1.
         11    1    4    4    0    0 -0.16059373559E+02 -0.71852170877E+01 -0.78825038284E+01  0.19278607071E+02  0.51100000000E-03 0. -1.
        -11    1    4    4    0    0 -0.68674433755E+01  0.13678555626E+02 -0.15898822374E+02  0.22068919676E+02  0.51100000000E-03 0.  1.
         12    1    4    4    0    0 -0.80533347852E+01 -0.93762515768E+01  0.40912209201E+01  0.13019538525E+02  0.00000000000E+00 0. -1.
</event>
<event>
 8    1  0.2553474E-006  0.9118800E+02  0.7816164E-02  0.1184000E+00
        -11   -1    0    0    0    0  0.00000000000E+00  0.00000000000E+00  0.45593999997E+02  0.45594000000E+02  0.51100000000E-03 0.  1.
         11   -1    0    0    0    0 -0.00000000000E+00 -0.00000000000E+00 -0.45593999997E+02  0.45594000000E+02  0.51100000000E-03 0. -1.
         23    2    1    2    0    0  0.35527136788E-14  0.35527136788E-14  0.00000000000E+00  0.91188000000E+02  0.91188000000E+02 0.  0.
    9900012    2    3    3    0    0 -0.27118785306E+02  0.23564529522E+02 -0.80661157997E+01  0.54367112013E+02  0.40000063456E+02 0.  0.
        -12    1    3    3    0    0  0.27118785306E+02 -0.23564529522E+02  0.80661157997E+01  0.36820887987E+02  0.00000000000E+00 0.  1.
         11    1    4    4    0    0  0.32222765683E+01  0.66997842885E+01 -0.15055997283E+00  0.74359158387E+01  0.51100000000E-03 0. -1.
        -11    1    4    4    0    0 -0.32790090745E+02  0.66816091340E+01 -0.12195572348E+02  0.35616933288E+02  0.51100000000E-03 0.  1.
        -12    1    4    4    0    0  0.24490288713E+01  0.10183136099E+02  0.42800165214E+01  0.11314262886E+02  0.00000000000E+00 0.  1.
</event>
<event>
 8    1  0.2553474E-006  0.9118800E+02  0.7816164E-02  0.1184000E+00
        -11   -1    0    0    0    0  0.00000000000E+00  0.00000000000E+00  0.45593999997E+02  0.45594000000E+02  0.51100000000E-03 0.  1.
         11   -1    0    0    0    0 -0.00000000000E+00 -0.00000000000E+00 -0.45593999997E+02  0.45594000000E+02  0.51100000000E-03 0. -1.
         23    2    1    2    0    0  0.35527136788E-14 -0.17763568394E-14  0.71054273576E-14  0.91188000000E+02  0.91188000000E+02 0.  0.
    9900012    2    3    3    0    0 -0.12601451001E+02  0.93764626219E+01 -0.33302627760E+02  0.54367086997E+02  0.40000006428E+02 0.  0.
        -12    1    3    3    0    0  0.12601451001E+02 -0.93764626219E+01  0.33302627760E+02  0.36820913003E+02  0.00000000000E+00 0.  1.
         11    1    4    4    0    0 -0.59214958894E+01  0.15162947713E+02 -0.32135339426E+02  0.36023036202E+02  0.51100000000E-03 0. -1.
        -11    1    4    4    0    0 -0.45075143306E+01  0.23369667594E+01 -0.66043658072E+01  0.83304709981E+01  0.51100000000E-03 0.  1.
        -12    1    4    4    0    0 -0.21724407814E+01 -0.81234518503E+01  0.54370774732E+01  0.10013579798E+02  0.00000000000E+00 0.  1.
</event>
<event>
 8    1  0.2553474E-006  0.9118800E+02  0.7816164E-02  0.1184000E+00
        -11   -1    0    0    0    0  0.00000000000E+00  0.00000000000E+00  0.45593999997E+02  0.45594000000E+02  0.51100000000E-03 0.  1.
         11   -1    0    0    0    0 -0.00000000000E+00 -0.00000000000E+00 -0.45593999997E+02  0.45594000000E+02  0.51100000000E-03 0. -1.
         23    2    1    2    0    0 -0.35527136788E-14  0.26645352591E-14  0.00000000000E+00  0.91188000000E+02  0.91188000000E+02 0.  0.
    9900012    2    3    3    0    0 -0.10084399712E+02 -0.21863544427E+01 -0.35345515925E+02  0.54367071721E+02  0.39999971603E+02 0.  0.
        -12    1    3    3    0    0  0.10084399712E+02  0.21863544427E+01  0.35345515925E+02  0.36820928279E+02  0.00000000000E+00 0.  1.
         11    1    4    4    0    0 -0.21701472497E+02 -0.62801283508E+01 -0.13134984388E+02  0.26132771299E+02  0.51100000000E-03 0.  1.
        -11    1    4    4    0    0  0.95352778381E+01  0.83527281810E+01 -0.16677000582E+02  0.20947838556E+02  0.51100000000E-03 0. -1.
        -12    1    4    4    0    0  0.20817949461E+01 -0.42589542728E+01 -0.55335309553E+01  0.72864618663E+01  0.00000000000E+00 0.  1.
</event>
<event>
 8    1  0.2553474E-006  0.9118800E+02  0.7816164E-02  0.1184000E+00
        -11   -1    0    0    0    0  0.00000000000E+00  0.00000000000E+00  0.45593999997E+02  0.45594000000E+02  0.51100000000E-03 0. -1.
         11   -1    0    0    0    0 -0.00000000000E+00 -0.00000000000E+00 -0.45593999997E+02  0.45594000000E+02  0.51100000000E-03 0.  1.
         23    2    1    2    0    0  0.26645352591E-14 -0.35527136788E-14  0.35527136788E-14  0.91188000000E+02  0.91188000000E+02 0.  0.
    9900012    2    3    3    0    0 -0.68392004875E+01 -0.22986142620E+02 -0.27939974573E+02  0.54367087532E+02  0.40000007646E+02 0.  0.
         12    1    3    3    0    0  0.68392004875E+01  0.22986142620E+02  0.27939974573E+02  0.36820912468E+02  0.00000000000E+00 0. -1.
         11    1    4    4    0    0  0.45461855181E+01 -0.10714931780E+02 -0.73901292946E-01  0.11639717671E+02  0.51100000000E-03 0. -1.
        -11    1    4    4    0    0  0.15193395807E+01 -0.18140226994E+02 -0.16180393212E+02  0.24355314675E+02  0.51100000000E-03 0.  1.
        -12    1    4    4    0    0 -0.12904725586E+02  0.58690161536E+01 -0.11685680068E+02  0.18372055185E+02  0.00000000000E+00 0.  1.
</event>
<event>
 8    1  0.2553474E-006  0.9118800E+02  0.7816164E-02  0.1184000E+00
        -11   -1    0    0    0    0  0.00000000000E+00  0.00000000000E+00  0.45593999997E+02  0.45594000000E+02  0.51100000000E-03 0. -1.
         11   -1    0    0    0    0 -0.00000000000E+00 -0.00000000000E+00 -0.45593999997E+02  0.45594000000E+02  0.51100000000E-03 0.  1.
         23    2    1    2    0    0  0.00000000000E+00  0.00000000000E+00  0.00000000000E+00  0.91188000000E+02  0.91188000000E+02 0.  0.
    9900012    2    3    3    0    0  0.33940861711E+02 -0.12638135894E+02  0.66389318540E+01  0.54367082185E+02  0.39999995457E+02 0.  0.
        -12    1    3    3    0    0 -0.33940861711E+02  0.12638135894E+02 -0.66389318540E+01  0.36820917815E+02  0.00000000000E+00 0.  1.
         11    1    4    4    0    0  0.26564046874E+02 -0.39773997319E+01  0.14953094245E+02  0.30741882224E+02  0.51100000000E-03 0. -1.
        -11    1    4    4    0    0  0.23166665012E+00 -0.12758681651E+02 -0.13373813738E+01  0.12830674811E+02  0.51100000000E-03 0.  1.
         12    1    4    4    0    0  0.71451481876E+01  0.40979454889E+01 -0.69767810171E+01  0.10794525150E+02  0.00000000000E+00 0. -1.
</event>
<event>
 8    1  0.2553474E-006  0.9118800E+02  0.7816164E-02  0.1184000E+00
        -11   -1    0    0    0    0  0.00000000000E+00  0.00000000000E+00  0.45593999997E+02  0.45594000000E+02  0.51100000000E-03 0.  1.
         11   -1    0    0    0    0 -0.00000000000E+00 -0.00000000000E+00 -0.45593999997E+02  0.45594000000E+02  0.51100000000E-03 0. -1.
         23    2    1    2    0    0 -0.17763568394E-14 -0.35527136788E-14 -0.35527136788E-14  0.91188000000E+02  0.91188000000E+02 0.  0.
    9900012    2    3    3    0    0 -0.14176038066E+02 -0.26870324969E+02 -0.20803975365E+02  0.54367084610E+02  0.40000000985E+02 0.  0.
        -12    1    3    3    0    0  0.14176038066E+02  0.26870324969E+02  0.20803975365E+02  0.36820915390E+02  0.00000000000E+00 0.  1.
         11    1    4    4    0    0 -0.19433479976E+02 -0.27367790375E+01 -0.54838868882E+01  0.20377024296E+02  0.51100000000E-03 0. -1.
        -11    1    4    4    0    0 -0.23075839035E+01 -0.67586541214E+01  0.28938584691E+01  0.77057618770E+01  0.51100000000E-03 0.  1.
        -12    1    4    4    0    0  0.75650258133E+01 -0.17374891810E+02 -0.18213946946E+02  0.26284298437E+02  0.00000000000E+00 0.  1.
</event>
<event>
 8    1  0.2553474E-006  0.9118800E+02  0.7816164E-02  0.1184000E+00
        -11   -1    0    0    0    0  0.00000000000E+00  0.00000000000E+00  0.45593999997E+02  0.45594000000E+02  0.51100000000E-03 0.  1.
         11   -1    0    0    0    0 -0.00000000000E+00 -0.00000000000E+00 -0.45593999997E+02  0.45594000000E+02  0.51100000000E-03 0. -1.
         23    2    1    2    0    0  0.00000000000E+00  0.71054273576E-14 -0.35527136788E-14  0.91188000000E+02  0.91188000000E+02 0.  0.
    9900012    2    3    3    0    0 -0.21722152573E+02  0.23570305844E+02  0.18120968703E+02  0.54367072028E+02  0.39999972302E+02 0.  0.
         12    1    3    3    0    0  0.21722152573E+02 -0.23570305844E+02 -0.18120968703E+02  0.36820927972E+02  0.00000000000E+00 0. -1.
         11    1    4    4    0    0 -0.14551111294E+02  0.10260160114E+02  0.51408929262E+01  0.18531986019E+02  0.51100000000E-03 0. -1.
        -11    1    4    4    0    0  0.13679448033E+00 -0.90643858322E+01  0.23537329465E+00  0.90684730850E+01  0.51100000000E-03 0.  1.
        -12    1    4    4    0    0 -0.73078357599E+01  0.22374531561E+02  0.12744702482E+02  0.26766612924E+02  0.00000000000E+00 0.  1.
</event>
<event>
 8    1  0.2553474E-006  0.9118800E+02  0.7816164E-02  0.1184000E+00
        -11   -1    0    0    0    0  0.00000000000E+00  0.00000000000E+00  0.45593999997E+02  0.45594000000E+02  0.51100000000E-03 0. -1.
         11   -1    0    0    0    0 -0.00000000000E+00 -0.00000000000E+00 -0.45593999997E+02  0.45594000000E+02  0.51100000000E-03 0.  1.
         23    2    1    2    0    0  0.88817841970E-15  0.00000000000E+00  0.00000000000E+00  0.91188000000E+02  0.91188000000E+02 0.  0.
    9900012    2    3    3    0    0 -0.44867144645E+01  0.25417625075E+02  0.26260110139E+02  0.54367086708E+02  0.40000005769E+02 0.  0.
        -12    1    3    3    0    0  0.44867144645E+01 -0.25417625075E+02 -0.26260110139E+02  0.36820913292E+02  0.00000000000E+00 0.  1.
         11    1    4    4    0    0 -0.66297641166E+01  0.17899742767E+02  0.68841792285E+00  0.19100483838E+02  0.51100000000E-03 0. -1.
        -11    1    4    4    0    0 -0.94450540416E+01  0.12309350518E+01  0.48043828371E+01  0.10668005515E+02  0.51100000000E-03 0.  1.
         12    1    4    4    0    0  0.11588103694E+02  0.62869472567E+01  0.20767309379E+02  0.24598597355E+02  0.00000000000E+00 0. -1.
</event>
<event>
 8    1  0.2553474E-006  0.9118800E+02  0.7816164E-02  0.1184000E+00
        -11   -1    0    0    0    0  0.00000000000E+00  0.00000000000E+00  0.45593999997E+02  0.45594000000E+02  0.51100000000E-03 0. -1.
         11   -1    0    0    0    0 -0.00000000000E+00 -0.00000000000E+00 -0.45593999997E+02  0.45594000000E+02  0.51100000000E-03 0.  1.
         23    2    1    2    0    0  0.00000000000E+00  0.88817841970E-15  0.00000000000E+00  0.91188000000E+02  0.91188000000E+02 0.  0.
    9900012    2    3    3    0    0  0.11043466182E+02 -0.48121179305E+01  0.34794616672E+02  0.54367082390E+02  0.39999995925E+02 0.  0.
        -12    1    3    3    0    0 -0.11043466182E+02  0.48121179305E+01 -0.34794616672E+02  0.36820917610E+02  0.00000000000E+00 0.  1.
         11    1    4    4    0    0  0.13525895843E+02 -0.14481434953E+02  0.79943184345E+01  0.21367520777E+02  0.51100000000E-03 0.  1.
        -11    1    4    4    0    0 -0.34194918562E+01  0.10875992129E+02  0.28510982101E+02  0.30705964078E+02  0.51100000000E-03 0. -1.
         12    1    4    4    0    0  0.93706219558E+00 -0.12066751070E+01 -0.17106838639E+01  0.22935975354E+01  0.00000000000E+00 0. -1.
</event>
<event>
 8    1  0.2553474E-006  0.9118800E+02  0.7816164E-02  0.1184000E+00
        -11   -1    0    0    0    0  0.00000000000E+00  0.00000000000E+00  0.45593999997E+02  0.45594000000E+02  0.51100000000E-03 0.  1.
         11   -1    0    0    0    0 -0.00000000000E+00 -0.00000000000E+00 -0.45593999997E+02  0.45594000000E+02  0.51100000000E-03 0. -1.
         23    2    1    2    0    0  0.35527136788E-14  0.17763568394E-14 -0.35527136788E-14  0.91188000000E+02  0.91188000000E+02 0.  0.
    9900012    2    3    3    0    0  0.27492597363E+02  0.11259588889E+02 -0.21752213669E+02  0.54367081337E+02  0.39999993524E+02 0.  0.
        -12    1    3    3    0    0 -0.27492597363E+02 -0.11259588889E+02  0.21752213669E+02  0.36820918663E+02  0.00000000000E+00 0.  1.
         11    1    4    4    0    0  0.27826749353E+01  0.20885566693E+01 -0.80915215831E+01  0.88078414238E+01  0.51100000000E-03 0. -1.
        -11    1    4    4    0    0  0.13265542244E+02  0.22138914875E+02 -0.52948873799E+01  0.26346574644E+02  0.51100000000E-03 0.  1.
        -12    1    4    4    0    0  0.11444380184E+02 -0.12967882655E+02 -0.83658047057E+01  0.19212665269E+02  0.00000000000E+00 0.  1.
</event>
<event>
 8    1  0.2553474E-006  0.9118800E+02  0.7816164E-02  0.1184000E+00
        -11   -1    0    0    0    0  0.00000000000E+00  0.00000000000E+00  0.45593999997E+02  0.45594000000E+02  0.51100000000E-03 0.  1.
         11   -1    0    0    0    0 -0.00000000000E+00 -0.00000000000E+00 -0.45593999997E+02  0.45594000000E+02  0.51100000000E-03 0. -1.
         23    2    1    2    0    0 -0.88817841970E-15 -0.71054273576E-14  0.00000000000E+00  0.91188000000E+02  0.91188000000E+02 0.  0.
    9900012    2    3    3    0    0 -0.40633563193E+01  0.32658499260E+02  0.16513383788E+02  0.54367078195E+02  0.39999986360E+02 0.  0.
         12    1    3    3    0    0  0.40633563193E+01 -0.32658499260E+02 -0.16513383788E+02  0.36820921805E+02  0.00000000000E+00 0. -1.
         11    1    4    4    0    0 -0.53062347198E+01 -0.26869536279E+01  0.68878204323E+01  0.91004350044E+01  0.51100000000E-03 0. -1.
        -11    1    4    4    0    0 -0.96929913240E+01  0.29860882064E+02  0.10225043128E+02  0.33017841627E+02  0.51100000000E-03 0.  1.
         12    1    4    4    0    0  0.10935869725E+02  0.54845708235E+01 -0.59947977233E+00  0.12248801564E+02  0.00000000000E+00 0. -1.
</event>
<event>
 8    1  0.2553474E-006  0.9118800E+02  0.7816164E-02  0.1184000E+00
        -11   -1    0    0    0    0  0.00000000000E+00  0.00000000000E+00  0.45593999997E+02  0.45594000000E+02  0.51100000000E-03 0.  1.
         11   -1    0    0    0    0 -0.00000000000E+00 -0.00000000000E+00 -0.45593999997E+02  0.45594000000E+02  0.51100000000E-03 0. -1.
         23    2    1    2    0    0 -0.88817841970E-15  0.00000000000E+00  0.35527136788E-14  0.91188000000E+02  0.91188000000E+02 0.  0.
    9900012    2    3    3    0    0 -0.76809605356E+01  0.17129239761E+02  0.31676083378E+02  0.54367051238E+02  0.39999924908E+02 0.  0.
         12    1    3    3    0    0  0.76809605356E+01 -0.17129239761E+02 -0.31676083378E+02  0.36820948762E+02  0.00000000000E+00 0. -1.
         11    1    4    4    0    0 -0.29868661710E+01  0.65780308960E+01 -0.13445273144E+01  0.73484429611E+01  0.51100000000E-03 0. -1.
        -11    1    4    4    0    0 -0.32147087734E+01  0.18547738611E+02  0.75510794711E+01  0.20282301682E+02  0.51100000000E-03 0.  1.
         12    1    4    4    0    0 -0.14793855912E+01 -0.79965297466E+01  0.25469531221E+02  0.26736306595E+02  0.00000000000E+00 0. -1.
</event>
<event>
 8    1  0.2553474E-006  0.9118800E+02  0.7816164E-02  0.1184000E+00
        -11   -1    0    0    0    0  0.00000000000E+00  0.00000000000E+00  0.45593999997E+02  0.45594000000E+02  0.51100000000E-03 0.  1.
         11   -1    0    0    0    0 -0.00000000000E+00 -0.00000000000E+00 -0.45593999997E+02  0.45594000000E+02  0.51100000000E-03 0. -1.
         23    2    1    2    0    0  0.11102230246E-14  0.00000000000E+00  0.00000000000E+00  0.91188000000E+02  0.91188000000E+02 0.  0.
    9900012    2    3    3    0    0  0.19784809615E+01  0.16027276804E+02  0.33090648459E+02  0.54367095555E+02  0.40000025937E+02 0.  0.
         12    1    3    3    0    0 -0.19784809615E+01 -0.16027276804E+02 -0.33090648459E+02  0.36820904445E+02  0.00000000000E+00 0. -1.
         11    1    4    4    0    0 -0.93586348228E+01  0.19374667264E+02  0.29287235512E+02  0.36341490634E+02  0.51100000000E-03 0. -1.
        -11    1    4    4    0    0  0.95391527686E+01 -0.13089488104E+01 -0.34905064952E+01  0.10241699975E+02  0.51100000000E-03 0.  1.
        -12    1    4    4    0    0  0.17979630157E+01 -0.20384416496E+01  0.72939194432E+01  0.77839049460E+01  0.00000000000E+00 0.  1.
</event>
<event>
 8    1  0.2553474E-006  0.9118800E+02  0.7816164E-02  0.1184000E+00
        -11   -1    0    0    0    0  0.00000000000E+00  0.00000000000E+00  0.45593999997E+02  0.45594000000E+02  0.51100000000E-03 0.  1.
         11   -1    0    0    0    0 -0.00000000000E+00 -0.00000000000E+00 -0.45593999997E+02  0.45594000000E+02  0.51100000000E-03 0. -1.
         23    2    1    2    0    0  0.88817841970E-15  0.00000000000E+00  0.35527136788E-14  0.91188000000E+02  0.91188000000E+02 0.  0.
    9900012    2    3    3    0    0 -0.42928136513E+01  0.17710266102E+02  0.31995281115E+02  0.54367084910E+02  0.40000001669E+02 0.  0.
         12    1    3    3    0    0  0.42928136513E+01 -0.17710266102E+02 -0.31995281115E+02  0.36820915090E+02  0.00000000000E+00 0. -1.
         11    1    4    4    0    0  0.12957683743E+02  0.33148600503E+01  0.19008794195E+02  0.23242721918E+02  0.51100000000E-03 0. -1.
        -11    1    4    4    0    0 -0.20751860266E+02  0.11396031656E+02  0.10831249419E+02  0.26035076459E+02  0.51100000000E-03 0.  1.
        -12    1    4    4    0    0  0.35013628715E+01  0.29993743956E+01  0.21552375004E+01  0.50892865321E+01  0.00000000000E+00 0.  1.
</event>
<event>
 8    1  0.2553474E-006  0.9118800E+02  0.7816164E-02  0.1184000E+00
        -11   -1    0    0    0    0  0.00000000000E+00  0.00000000000E+00  0.45593999997E+02  0.45594000000E+02  0.51100000000E-03 0. -1.
         11   -1    0    0    0    0 -0.00000000000E+00 -0.00000000000E+00 -0.45593999997E+02  0.45594000000E+02  0.51100000000E-03 0.  1.
         23    2    1    2    0    0  0.00000000000E+00  0.00000000000E+00  0.00000000000E+00  0.91188000000E+02  0.91188000000E+02 0.  0.
    9900012    2    3    3    0    0 -0.12786275338E+02 -0.73971048534E+01  0.33727945269E+02  0.54367078103E+02  0.39999986152E+02 0.  0.
        -12    1    3    3    0    0  0.12786275338E+02  0.73971048534E+01 -0.33727945269E+02  0.36820921897E+02  0.00000000000E+00 0.  1.
         11    1    4    4    0    0 -0.24472338650E+02  0.20905440706E+00  0.18242350137E+02  0.30524128186E+02  0.51100000000E-03 0.  1.
        -11    1    4    4    0    0  0.12517631761E+01 -0.68200254490E+01  0.30073999935E+01  0.75580495603E+01  0.51100000000E-03 0. -1.
        -12    1    4    4    0    0  0.10434300136E+02 -0.78613381150E+00  0.12478195139E+02  0.16284900357E+02  0.00000000000E+00 0.  1.
</event>
<event>
 8    1  0.2553474E-006  0.9118800E+02  0.7816164E-02  0.1184000E+00
        -11   -1    0    0    0    0  0.00000000000E+00  0.00000000000E+00  0.45593999997E+02  0.45594000000E+02  0.51100000000E-03 0.  1.
         11   -1    0    0    0    0 -0.00000000000E+00 -0.00000000000E+00 -0.45593999997E+02  0.45594000000E+02  0.51100000000E-03 0. -1.
         23    2    1    2    0    0  0.00000000000E+00  0.17763568394E-14  0.17763568394E-14  0.91188000000E+02  0.91188000000E+02 0.  0.
    9900012    2    3    3    0    0 -0.33781539223E+02 -0.96624219697E+01 -0.11010227846E+02  0.54367083283E+02  0.39999997961E+02 0.  0.
        -12    1    3    3    0    0  0.33781539223E+02  0.96624219697E+01  0.11010227846E+02  0.36820916717E+02  0.00000000000E+00 0.  1.
         11    1    4    4    0    0 -0.34670924252E+02 -0.46261938678E+01 -0.54952256682E+01  0.35407233210E+02  0.51100000000E-03 0. -1.
        -11    1    4    4    0    0  0.30852604583E+01  0.75626064737E+00  0.54832852125E+01  0.63369692476E+01  0.51100000000E-03 0.  1.
        -12    1    4    4    0    0 -0.21958754297E+01 -0.57924887493E+01 -0.10998287391E+02  0.12622880826E+02  0.00000000000E+00 0.  1.
</event>
<event>
 8    1  0.2553474E-006  0.9118800E+02  0.7816164E-02  0.1184000E+00
        -11   -1    0    0    0    0  0.00000000000E+00  0.00000000000E+00  0.45593999997E+02  0.45594000000E+02  0.51100000000E-03 0. -1.
         11   -1    0    0    0    0 -0.00000000000E+00 -0.00000000000E+00 -0.45593999997E+02  0.45594000000E+02  0.51100000000E-03 0.  1.
         23    2    1    2    0    0 -0.17763568394E-14 -0.52735593670E-15  0.00000000000E+00  0.91188000000E+02  0.91188000000E+02 0.  0.
    9900012    2    3    3    0    0 -0.15862437886E+02 -0.77051306256E-01 -0.33228879934E+02  0.54367063914E+02  0.39999953804E+02 0.  0.
         12    1    3    3    0    0  0.15862437886E+02  0.77051306256E-01  0.33228879934E+02  0.36820936086E+02  0.00000000000E+00 0. -1.
         11    1    4    4    0    0  0.47565153529E+01 -0.11145610508E+02 -0.10626703394E+02  0.16117564865E+02  0.51100000000E-03 0. -1.
        -11    1    4    4    0    0 -0.47958542821E+01  0.92826751013E+01 -0.19359593502E+02  0.21999139441E+02  0.51100000000E-03 0.  1.
        -12    1    4    4    0    0 -0.15823098956E+02  0.17858841003E+01 -0.32425830379E+01  0.16250359607E+02  0.00000000000E+00 0.  1.
</event>
<event>
 8    1  0.2553474E-006  0.9118800E+02  0.7816164E-02  0.1184000E+00
        -11   -1    0    0    0    0  0.00000000000E+00  0.00000000000E+00  0.45593999997E+02  0.45594000000E+02  0.51100000000E-03 0.  1.
         11   -1    0    0    0    0 -0.00000000000E+00 -0.00000000000E+00 -0.45593999997E+02  0.45594000000E+02  0.51100000000E-03 0. -1.
         23    2    1    2    0    0  0.71054273576E-14  0.35527136788E-14 -0.22204460493E-15  0.91188000000E+02  0.91188000000E+02 0.  0.
    9900012    2    3    3    0    0  0.27583451436E+02  0.24363653810E+02 -0.11599112061E+01  0.54367084556E+02  0.40000000863E+02 0.  0.
        -12    1    3    3    0    0 -0.27583451436E+02 -0.24363653810E+02  0.11599112061E+01  0.36820915444E+02  0.00000000000E+00 0.  1.
         11    1    4    4    0    0 -0.23609159691E+01 -0.65369601990E+01 -0.17633253514E+01  0.71704316057E+01  0.51100000000E-03 0. -1.
        -11    1    4    4    0    0  0.11284619946E+00  0.11725499972E+02 -0.11658631538E+00  0.11726622552E+02  0.51100000000E-03 0.  1.
         12    1    4    4    0    0  0.29831521205E+02  0.19175114038E+02  0.72000046063E+00  0.35470030398E+02  0.00000000000E+00 0. -1.
</event>
<event>
 8    1  0.2553474E-006  0.9118800E+02  0.7816164E-02  0.1184000E+00
        -11   -1    0    0    0    0  0.00000000000E+00  0.00000000000E+00  0.45593999997E+02  0.45594000000E+02  0.51100000000E-03 0. -1.
         11   -1    0    0    0    0 -0.00000000000E+00 -0.00000000000E+00 -0.45593999997E+02  0.45594000000E+02  0.51100000000E-03 0.  1.
         23    2    1    2    0    0  0.00000000000E+00  0.00000000000E+00 -0.35527136788E-14  0.91188000000E+02  0.91188000000E+02 0.  0.
    9900012    2    3    3    0    0 -0.13525383911E+02  0.19524160131E+02 -0.28136235742E+02  0.54367128195E+02  0.40000100346E+02 0.  0.
         12    1    3    3    0    0  0.13525383911E+02 -0.19524160131E+02  0.28136235742E+02  0.36820871805E+02  0.00000000000E+00 0. -1.
         11    1    4    4    0    0 -0.45916406507E+01  0.38828106883E+00 -0.65624693892E+00  0.46545232150E+01  0.51100000000E-03 0.  1.
        -11    1    4    4    0    0 -0.18313733391E+02 -0.10355280561E+01 -0.75188041180E+01  0.19824166179E+02  0.51100000000E-03 0. -1.
        -12    1    4    4    0    0  0.93799901301E+01  0.20171407118E+02 -0.19961184685E+02  0.29888438801E+02  0.00000000000E+00 0.  1.
</event>
<event>
 8    1  0.2553474E-006  0.9118800E+02  0.7816164E-02  0.1184000E+00
        -11   -1    0    0    0    0  0.00000000000E+00  0.00000000000E+00  0.45593999997E+02  0.45594000000E+02  0.51100000000E-03 0.  1.
         11   -1    0    0    0    0 -0.00000000000E+00 -0.00000000000E+00 -0.45593999997E+02  0.45594000000E+02  0.51100000000E-03 0. -1.
         23    2    1    2    0    0  0.00000000000E+00  0.17763568394E-14  0.00000000000E+00  0.91188000000E+02  0.91188000000E+02 0.  0.
    9900012    2    3    3    0    0 -0.34295387636E+02  0.75803200796E+01 -0.11052052404E+02  0.54367044989E+02  0.39999910661E+02 0.  0.
        -12    1    3    3    0    0  0.34295387636E+02 -0.75803200796E+01  0.11052052404E+02  0.36820955011E+02  0.00000000000E+00 0.  1.
         11    1    4    4    0    0 -0.12436024858E+02  0.15548618670E+02 -0.59199140278E+01  0.20771606563E+02  0.51100000000E-03 0. -1.
        -11    1    4    4    0    0  0.34488058441E+01 -0.51863555492E+01 -0.52325599243E+01  0.81346314763E+01  0.51100000000E-03 0.  1.
        -12    1    4    4    0    0 -0.25308168621E+02 -0.27819430415E+01  0.10042154833E+00  0.25460806950E+02  0.00000000000E+00 0.  1.
</event>
<event>
 8    1  0.2553474E-006  0.9118800E+02  0.7816164E-02  0.1184000E+00
        -11   -1    0    0    0    0  0.00000000000E+00  0.00000000000E+00  0.45593999997E+02  0.45594000000E+02  0.51100000000E-03 0.  1.
         11   -1    0    0    0    0 -0.00000000000E+00 -0.00000000000E+00 -0.45593999997E+02  0.45594000000E+02  0.51100000000E-03 0. -1.
         23    2    1    2    0    0 -0.71054273576E-14 -0.35527136788E-14  0.29420910153E-14  0.91188000000E+02  0.91188000000E+02 0.  0.
    9900012    2    3    3    0    0  0.32242654535E+02  0.17780702537E+02  0.19712568398E+00  0.54367068281E+02  0.39999963759E+02 0.  0.
        -12    1    3    3    0    0 -0.32242654535E+02 -0.17780702537E+02 -0.19712568398E+00  0.36820931719E+02  0.00000000000E+00 0.  1.
         11    1    4    4    0    0  0.10855586372E+02 -0.31592801006E+01  0.11018190840E+02  0.15786872264E+02  0.51100000000E-03 0. -1.
        -11    1    4    4    0    0  0.31240701077E+01  0.34196685982E+01 -0.12386059672E+02  0.13223782433E+02  0.51100000000E-03 0.  1.
         12    1    4    4    0    0  0.18262998055E+02  0.17520314039E+02  0.15649945167E+01  0.25356413584E+02  0.00000000000E+00 0. -1.
</event>
<event>
 8    1  0.2553474E-006  0.9118800E+02  0.7816164E-02  0.1184000E+00
        -11   -1    0    0    0    0  0.00000000000E+00  0.00000000000E+00  0.45593999997E+02  0.45594000000E+02  0.51100000000E-03 0. -1.
         11   -1    0    0    0    0 -0.00000000000E+00 -0.00000000000E+00 -0.45593999997E+02  0.45594000000E+02  0.51100000000E-03 0.  1.
         23    2    1    2    0    0  0.17763568394E-14  0.35527136788E-14  0.00000000000E+00  0.91188000000E+02  0.91188000000E+02 0.  0.
    9900012    2    3    3    0    0  0.11256433821E+02  0.27188700374E+02  0.22132509984E+02  0.54367072138E+02  0.39999972554E+02 0.  0.
        -12    1    3    3    0    0 -0.11256433821E+02 -0.27188700374E+02 -0.22132509984E+02  0.36820927862E+02  0.00000000000E+00 0.  1.
         11    1    4    4    0    0 -0.22623910670E+01 -0.15265546251E+01 -0.16665103579E+01  0.31978179119E+01  0.51100000000E-03 0. -1.
        -11    1    4    4    0    0 -0.38259029852E+00  0.26162648995E+01  0.21333003754E+02  0.21496238434E+02  0.51100000000E-03 0.  1.
        -12    1    4    4    0    0  0.13901415187E+02  0.26098990100E+02  0.24660165876E+01  0.29673015793E+02  0.00000000000E+00 0.  1.
</event>
<event>
 8    1  0.2553474E-006  0.9118800E+02  0.7816164E-02  0.1184000E+00
        -11   -1    0    0    0    0  0.00000000000E+00  0.00000000000E+00  0.45593999997E+02  0.45594000000E+02  0.51100000000E-03 0. -1.
         11   -1    0    0    0    0 -0.00000000000E+00 -0.00000000000E+00 -0.45593999997E+02  0.45594000000E+02  0.51100000000E-03 0.  1.
         23    2    1    2    0    0  0.00000000000E+00 -0.17763568394E-14 -0.35527136788E-14  0.91188000000E+02  0.91188000000E+02 0.  0.
    9900012    2    3    3    0    0  0.17542293625E+02 -0.12438584938E+02 -0.29888618573E+02  0.54367082289E+02  0.39999995694E+02 0.  0.
         12    1    3    3    0    0 -0.17542293625E+02  0.12438584938E+02  0.29888618573E+02  0.36820917711E+02  0.00000000000E+00 0. -1.
         11    1    4    4    0    0 -0.17352124097E+01  0.23775280056E+01 -0.27789757129E+00  0.29564892771E+01  0.51100000000E-03 0.  1.
        -11    1    4    4    0    0  0.22521343982E+01 -0.18776163823E+02 -0.23906116190E+01  0.19061255505E+02  0.51100000000E-03 0. -1.
        -12    1    4    4    0    0  0.17025371637E+02  0.39600508792E+01 -0.27220109383E+02  0.32349337507E+02  0.00000000000E+00 0.  1.
</event>
<event>
 8    1  0.2553474E-006  0.9118800E+02  0.7816164E-02  0.1184000E+00
        -11   -1    0    0    0    0  0.00000000000E+00  0.00000000000E+00  0.45593999997E+02  0.45594000000E+02  0.51100000000E-03 0. -1.
         11   -1    0    0    0    0 -0.00000000000E+00 -0.00000000000E+00 -0.45593999997E+02  0.45594000000E+02  0.51100000000E-03 0.  1.
         23    2    1    2    0    0  0.00000000000E+00  0.35527136788E-14  0.11102230246E-14  0.91188000000E+02  0.91188000000E+02 0.  0.
    9900012    2    3    3    0    0  0.19263061190E+02 -0.31321184552E+02 -0.19234796875E+01  0.54367056202E+02  0.39999936223E+02 0.  0.
         12    1    3    3    0    0 -0.19263061190E+02  0.31321184552E+02  0.19234796875E+01  0.36820943798E+02  0.00000000000E+00 0. -1.
         11    1    4    4    0    0  0.73456534868E+00 -0.34332413320E+01 -0.12126179088E+02  0.12624220841E+02  0.51100000000E-03 0. -1.
        -11    1    4    4    0    0  0.15842212036E+02 -0.29188017304E+02  0.22934422858E+01  0.33289276263E+02  0.51100000000E-03 0.  1.
         12    1    4    4    0    0  0.26862838048E+01  0.13000740844E+01  0.79092571151E+01  0.84535590977E+01  0.00000000000E+00 0. -1.
</event>
<event>
 8    1  0.2553474E-006  0.9118800E+02  0.7816164E-02  0.1184000E+00
        -11   -1    0    0    0    0  0.00000000000E+00  0.00000000000E+00  0.45593999997E+02  0.45594000000E+02  0.51100000000E-03 0.  1.
         11   -1    0    0    0    0 -0.00000000000E+00 -0.00000000000E+00 -0.45593999997E+02  0.45594000000E+02  0.51100000000E-03 0. -1.
         23    2    1    2    0    0  0.00000000000E+00 -0.35527136788E-14 -0.35527136788E-14  0.91188000000E+02  0.91188000000E+02 0.  0.
    9900012    2    3    3    0    0  0.25633069294E+02  0.12561111317E+02  0.23258152716E+02  0.54367116976E+02  0.40000074770E+02 0.  0.
         12    1    3    3    0    0 -0.25633069294E+02 -0.12561111317E+02 -0.23258152716E+02  0.36820883024E+02  0.00000000000E+00 0. -1.
         11    1    4    4    0    0  0.50340536326E+01 -0.11097307591E+02  0.19023093018E+02  0.22591370033E+02  0.51100000000E-03 0. -1.
        -11    1    4    4    0    0  0.94495611230E+01  0.11117114128E+02  0.58326589554E+00  0.14602213233E+02  0.51100000000E-03 0.  1.
         12    1    4    4    0    0  0.11149454538E+02  0.12541304780E+02  0.36517938018E+01  0.17173533709E+02  0.00000000000E+00 0. -1.
</event>
<event>
 8    1  0.2553474E-006  0.9118800E+02  0.7816164E-02  0.1184000E+00
        -11   -1    0    0    0    0  0.00000000000E+00  0.00000000000E+00  0.45593999997E+02  0.45594000000E+02  0.51100000000E-03 0. -1.
         11   -1    0    0    0    0 -0.00000000000E+00 -0.00000000000E+00 -0.45593999997E+02  0.45594000000E+02  0.51100000000E-03 0.  1.
         23    2    1    2    0    0 -0.35527136788E-14  0.00000000000E+00  0.00000000000E+00  0.91188000000E+02  0.91188000000E+02 0.  0.
    9900012    2    3    3    0    0 -0.30461843962E+02 -0.11364285594E+02  0.17283226354E+02  0.54367070654E+02  0.39999969171E+02 0.  0.
        -12    1    3    3    0    0  0.30461843962E+02  0.11364285594E+02 -0.17283226354E+02  0.36820929346E+02  0.00000000000E+00 0.  1.
         11    1    4    4    0    0 -0.18915326504E+02 -0.16722615199E+02  0.13942919234E+02  0.28841644074E+02  0.51100000000E-03 0. -1.
        -11    1    4    4    0    0  0.10791699988E+01 -0.58943781257E+00 -0.76580431907E+01  0.77561376079E+01  0.51100000000E-03 0.  1.
        -12    1    4    4    0    0 -0.12625687457E+02  0.59477674180E+01  0.10998350311E+02  0.17769288972E+02  0.00000000000E+00 0.  1.
</event>
<event>
 8    1  0.2553474E-006  0.9118800E+02  0.7816164E-02  0.1184000E+00
        -11   -1    0    0    0    0  0.00000000000E+00  0.00000000000E+00  0.45593999997E+02  0.45594000000E+02  0.51100000000E-03 0.  1.
         11   -1    0    0    0    0 -0.00000000000E+00 -0.00000000000E+00 -0.45593999997E+02  0.45594000000E+02  0.51100000000E-03 0. -1.
         23    2    1    2    0    0  0.00000000000E+00  0.88817841970E-15  0.00000000000E+00  0.91188000000E+02  0.91188000000E+02 0.  0.
    9900012    2    3    3    0    0 -0.16436659820E+02 -0.69428866491E+01  0.32208884842E+02  0.54367085782E+02  0.40000003658E+02 0.  0.
         12    1    3    3    0    0  0.16436659820E+02  0.69428866491E+01 -0.32208884842E+02  0.36820914218E+02  0.00000000000E+00 0. -1.
         11    1    4    4    0    0  0.49622036520E+01 -0.70979681496E+01  0.58562116524E+01  0.10454656002E+02  0.51100000000E-03 0. -1.
        -11    1    4    4    0    0 -0.11824971693E+02 -0.13330102838E+02  0.90809569443E+01  0.19999634409E+02  0.51100000000E-03 0.  1.
         12    1    4    4    0    0 -0.95738917795E+01  0.13485184338E+02  0.17271716245E+02  0.23912795372E+02  0.00000000000E+00 0. -1.
</event>
<event>
 8    1  0.2553474E-006  0.9118800E+02  0.7816164E-02  0.1184000E+00
        -11   -1    0    0    0    0  0.00000000000E+00  0.00000000000E+00  0.45593999997E+02  0.45594000000E+02  0.51100000000E-03 0.  1.
         11   -1    0    0    0    0 -0.00000000000E+00 -0.00000000000E+00 -0.45593999997E+02  0.45594000000E+02  0.51100000000E-03 0. -1.
         23    2    1    2    0    0  0.17763568394E-14  0.00000000000E+00  0.71054273576E-14  0.91188000000E+02  0.91188000000E+02 0.  0.
    9900012    2    3    3    0    0  0.80218072171E+01 -0.71138871372E+01  0.35225307230E+02  0.54367094923E+02  0.40000024497E+02 0.  0.
         12    1    3    3    0    0 -0.80218072171E+01  0.71138871372E+01 -0.35225307230E+02  0.36820905077E+02  0.00000000000E+00 0. -1.
         11    1    4    4    0    0 -0.12646552326E+02 -0.30121405935E+01  0.23304186311E+02  0.26685077789E+02  0.51100000000E-03 0. -1.
        -11    1    4    4    0    0  0.16120686607E+02 -0.72982999935E+01  0.13078251677E+02  0.22004144761E+02  0.51100000000E-03 0.  1.
         12    1    4    4    0    0  0.45476729363E+01  0.31965534498E+01 -0.11571307589E+01  0.56778723731E+01  0.00000000000E+00 0. -1.
</event>
<event>
 8    1  0.2553474E-006  0.9118800E+02  0.7816164E-02  0.1184000E+00
        -11   -1    0    0    0    0  0.00000000000E+00  0.00000000000E+00  0.45593999997E+02  0.45594000000E+02  0.51100000000E-03 0.  1.
         11   -1    0    0    0    0 -0.00000000000E+00 -0.00000000000E+00 -0.45593999997E+02  0.45594000000E+02  0.51100000000E-03 0. -1.
         23    2    1    2    0    0  0.66613381478E-15  0.00000000000E+00  0.00000000000E+00  0.91188000000E+02  0.91188000000E+02 0.  0.
    9900012    2    3    3    0    0 -0.15033186557E+01  0.34668158742E+02 -0.12314403854E+02  0.54367004090E+02  0.39999817424E+02 0.  0.
        -12    1    3    3    0    0  0.15033186557E+01 -0.34668158742E+02  0.12314403854E+02  0.36820995910E+02  0.00000000000E+00 0.  1.
         11    1    4    4    0    0  0.91892410103E+01  0.32193545208E+01 -0.22308856951E+01  0.99891563768E+01  0.51100000000E-03 0. -1.
        -11    1    4    4    0    0 -0.85348270932E+01  0.86925707245E+01  0.85532374338E+01  0.14884956506E+02  0.51100000000E-03 0.  1.
        -12    1    4    4    0    0 -0.21577325728E+01  0.22756233496E+02 -0.18636755592E+02  0.29492891208E+02  0.00000000000E+00 0.  1.
</event>
<event>
 8    1  0.2553474E-006  0.9118800E+02  0.7816164E-02  0.1184000E+00
        -11   -1    0    0    0    0  0.00000000000E+00  0.00000000000E+00  0.45593999997E+02  0.45594000000E+02  0.51100000000E-03 0.  1.
         11   -1    0    0    0    0 -0.00000000000E+00 -0.00000000000E+00 -0.45593999997E+02  0.45594000000E+02  0.51100000000E-03 0. -1.
         23    2    1    2    0    0  0.00000000000E+00 -0.71054273576E-14  0.00000000000E+00  0.91188000000E+02  0.91188000000E+02 0.  0.
    9900012    2    3    3    0    0  0.13501019814E+02 -0.22130503552E+02  0.26148475619E+02  0.54367088812E+02  0.40000010565E+02 0.  0.
         12    1    3    3    0    0 -0.13501019814E+02  0.22130503552E+02 -0.26148475619E+02  0.36820911188E+02  0.00000000000E+00 0. -1.
         11    1    4    4    0    0  0.51572748979E+01 -0.20704794750E+01  0.23991417532E+02  0.24626662078E+02  0.51100000000E-03 0. -1.
        -11    1    4    4    0    0  0.13324935985E+02 -0.17441940769E+02  0.62036587749E+01  0.22809221803E+02  0.51100000000E-03 0.  1.
         12    1    4    4    0    0 -0.49811910689E+01 -0.26180833084E+01 -0.40466006878E+01  0.69312049314E+01  0.00000000000E+00 0. -1.
</event>
<event>
 8    1  0.2553474E-006  0.9118800E+02  0.7816164E-02  0.1184000E+00
        -11   -1    0    0    0    0  0.00000000000E+00  0.00000000000E+00  0.45593999997E+02  0.45594000000E+02  0.51100000000E-03 0. -1.
         11   -1    0    0    0    0 -0.00000000000E+00 -0.00000000000E+00 -0.45593999997E+02  0.45594000000E+02  0.51100000000E-03 0.  1.
         23    2    1    2    0    0 -0.35527136788E-14  0.00000000000E+00  0.00000000000E+00  0.91188000000E+02  0.91188000000E+02 0.  0.
    9900012    2    3    3    0    0 -0.25846391285E+02  0.11762494977E+02  0.23439031235E+02  0.54367076386E+02  0.39999982238E+02 0.  0.
        -12    1    3    3    0    0  0.25846391285E+02 -0.11762494977E+02 -0.23439031235E+02  0.36820923614E+02  0.00000000000E+00 0.  1.
         11    1    4    4    0    0  0.87453292681E-01 -0.15968109648E+01  0.21818707512E+02  0.21877235911E+02  0.51100000000E-03 0. -1.
        -11    1    4    4    0    0 -0.98229101653E+01 -0.21816170391E+01  0.68075225954E+00  0.10085258595E+02  0.51100000000E-03 0.  1.
        -12    1    4    4    0    0 -0.16110934412E+02  0.15540922981E+02  0.93957146315E+00  0.22404581881E+02  0.00000000000E+00 0.  1.
</event>
<event>
 8    1  0.2553474E-006  0.9118800E+02  0.7816164E-02  0.1184000E+00
        -11   -1    0    0    0    0  0.00000000000E+00  0.00000000000E+00  0.45593999997E+02  0.45594000000E+02  0.51100000000E-03 0. -1.
         11   -1    0    0    0    0 -0.00000000000E+00 -0.00000000000E+00 -0.45593999997E+02  0.45594000000E+02  0.51100000000E-03 0.  1.
         23    2    1    2    0    0 -0.88817841970E-15  0.17763568394E-14  0.00000000000E+00  0.91188000000E+02  0.91188000000E+02 0.  0.
    9900012    2    3    3    0    0 -0.34068782877E+01  0.94088231136E+01  0.35435158839E+02  0.54367037845E+02  0.39999894375E+02 0.  0.
        -12    1    3    3    0    0  0.34068782877E+01 -0.94088231136E+01 -0.35435158839E+02  0.36820962155E+02  0.00000000000E+00 0.  1.
         11    1    4    4    0    0 -0.13705278365E+02 -0.37890377420E+00  0.30144729705E+02  0.33116203774E+02  0.51100000000E-03 0. -1.
        -11    1    4    4    0    0  0.62575645421E+01  0.93929860362E+01 -0.32917439796E+01  0.11756737616E+02  0.51100000000E-03 0.  1.
        -12    1    4    4    0    0  0.40408355348E+01  0.39474085166E+00  0.85821731136E+01  0.94940964557E+01  0.00000000000E+00 0.  1.
</event>
<event>
 8    1  0.2553474E-006  0.9118800E+02  0.7816164E-02  0.1184000E+00
        -11   -1    0    0    0    0  0.00000000000E+00  0.00000000000E+00  0.45593999997E+02  0.45594000000E+02  0.51100000000E-03 0.  1.
         11   -1    0    0    0    0 -0.00000000000E+00 -0.00000000000E+00 -0.45593999997E+02  0.45594000000E+02  0.51100000000E-03 0. -1.
         23    2    1    2    0    0  0.00000000000E+00  0.00000000000E+00  0.17763568394E-14  0.91188000000E+02  0.91188000000E+02 0.  0.
    9900012    2    3    3    0    0  0.34599147236E+02 -0.73501368720E+01 -0.10230092717E+02  0.54367077979E+02  0.39999985869E+02 0.  0.
        -12    1    3    3    0    0 -0.34599147236E+02  0.73501368720E+01  0.10230092717E+02  0.36820922021E+02  0.00000000000E+00 0.  1.
         11    1    4    4    0    0  0.12501990515E+02  0.35912772415E+01  0.19256804729E+01  0.13149345406E+02  0.51100000000E-03 0. -1.
        -11    1    4    4    0    0 -0.48401968793E+01 -0.25624380497E+00  0.54627292891E+01  0.73030526676E+01  0.51100000000E-03 0.  1.
         12    1    4    4    0    0  0.26937353600E+02 -0.10685170309E+02 -0.17618502479E+02  0.33914679906E+02  0.00000000000E+00 0. -1.
</event>
<event>
 8    1  0.2553474E-006  0.9118800E+02  0.7816164E-02  0.1184000E+00
        -11   -1    0    0    0    0  0.00000000000E+00  0.00000000000E+00  0.45593999997E+02  0.45594000000E+02  0.51100000000E-03 0.  1.
         11   -1    0    0    0    0 -0.00000000000E+00 -0.00000000000E+00 -0.45593999997E+02  0.45594000000E+02  0.51100000000E-03 0. -1.
         23    2    1    2    0    0  0.17763568394E-14  0.00000000000E+00  0.00000000000E+00  0.91188000000E+02  0.91188000000E+02 0.  0.
    9900012    2    3    3    0    0  0.71610974766E+01 -0.15299911561E+02 -0.32717132630E+02  0.54367090473E+02  0.40000014352E+02 0.  0.
        -12    1    3    3    0    0 -0.71610974766E+01  0.15299911561E+02  0.32717132630E+02  0.36820909527E+02  0.00000000000E+00 0.  1.
         11    1    4    4    0    0 -0.66646637125E+01 -0.62180709569E+01  0.16167321071E+01  0.92572118801E+01  0.51100000000E-03 0. -1.
        -11    1    4    4    0    0  0.11025887874E+02 -0.13933911555E+02 -0.10527191856E+02  0.20652986788E+02  0.51100000000E-03 0.  1.
         12    1    4    4    0    0  0.27998733153E+01  0.48520709512E+01 -0.23806672881E+02  0.24456891805E+02  0.00000000000E+00 0. -1.
</event>
<event>
 8    1  0.2553474E-006  0.9118800E+02  0.7816164E-02  0.1184000E+00
        -11   -1    0    0    0    0  0.00000000000E+00  0.00000000000E+00  0.45593999997E+02  0.45594000000E+02  0.51100000000E-03 0. -1.
         11   -1    0    0    0    0 -0.00000000000E+00 -0.00000000000E+00 -0.45593999997E+02  0.45594000000E+02  0.51100000000E-03 0.  1.
         23    2    1    2    0    0  0.71054273576E-14  0.88817841970E-15  0.00000000000E+00  0.91188000000E+02  0.91188000000E+02 0.  0.
    9900012    2    3    3    0    0 -0.35054196475E+02 -0.50326090343E+01 -0.10082830724E+02  0.54366982637E+02  0.39999768517E+02 0.  0.
         12    1    3    3    0    0  0.35054196475E+02  0.50326090343E+01  0.10082830724E+02  0.36821017363E+02  0.00000000000E+00 0. -1.
         11    1    4    4    0    0 -0.75277453027E+01  0.78772088046E+01 -0.82677647649E+01  0.13677474268E+02  0.51100000000E-03 0. -1.
        -11    1    4    4    0    0  0.39529897495E+01 -0.46689193185E+01  0.44329362695E+01  0.75548567024E+01  0.51100000000E-03 0.  1.
        -12    1    4    4    0    0 -0.31479440922E+02 -0.82408985204E+01 -0.62480022288E+01  0.33134651666E+02  0.00000000000E+00 0.  1.
</event>
<event>
 8    1  0.2553474E-006  0.9118800E+02  0.7816164E-02  0.1184000E+00
        -11   -1    0    0    0    0  0.00000000000E+00  0.00000000000E+00  0.45593999997E+02  0.45594000000E+02  0.51100000000E-03 0. -1.
         11   -1    0    0    0    0 -0.00000000000E+00 -0.00000000000E+00 -0.45593999997E+02  0.45594000000E+02  0.51100000000E-03 0.  1.
         23    2    1    2    0    0  0.00000000000E+00  0.00000000000E+00 -0.35527136788E-14  0.91188000000E+02  0.91188000000E+02 0.  0.
    9900012    2    3    3    0    0 -0.32162403828E+02 -0.17513704050E+02  0.38249163199E+01  0.54367081565E+02  0.39999994044E+02 0.  0.
        -12    1    3    3    0    0  0.32162403828E+02  0.17513704050E+02 -0.38249163199E+01  0.36820918435E+02  0.00000000000E+00 0.  1.
         11    1    4    4    0    0 -0.30102704471E+02 -0.13322425287E+02  0.17481241168E+02  0.37272692753E+02  0.51100000000E-03 0. -1.
        -11    1    4    4    0    0 -0.52802447823E+01 -0.51540942805E+00 -0.59778307695E+01  0.79925648455E+01  0.51100000000E-03 0.  1.
         12    1    4    4    0    0  0.32205454258E+01 -0.36758693352E+01 -0.76784940785E+01  0.91018239668E+01  0.00000000000E+00 0. -1.
</event>
<event>
 8    1  0.2553474E-006  0.9118800E+02  0.7816164E-02  0.1184000E+00
        -11   -1    0    0    0    0  0.00000000000E+00  0.00000000000E+00  0.45593999997E+02  0.45594000000E+02  0.51100000000E-03 0. -1.
         11   -1    0    0    0    0 -0.00000000000E+00 -0.00000000000E+00 -0.45593999997E+02  0.45594000000E+02  0.51100000000E-03 0.  1.
         23    2    1    2    0    0  0.00000000000E+00  0.17763568394E-14 -0.35527136788E-14  0.91188000000E+02  0.91188000000E+02 0.  0.
    9900012    2    3    3    0    0  0.31124725728E+02  0.12242551437E+02  0.15399646140E+02  0.54367113012E+02  0.40000065734E+02 0.  0.
        -12    1    3    3    0    0 -0.31124725728E+02 -0.12242551437E+02 -0.15399646140E+02  0.36820886988E+02  0.00000000000E+00 0.  1.
         11    1    4    4    0    0  0.16107579170E+02  0.23058416052E+01  0.16482636194E+02  0.23161353768E+02  0.51100000000E-03 0. -1.
        -11    1    4    4    0    0  0.16909714075E+02  0.73584670629E+00  0.74708708468E+01  0.18501184069E+02  0.51100000000E-03 0.  1.
        -12    1    4    4    0    0 -0.18925675175E+01  0.92008631257E+01 -0.85538609004E+01  0.12704575175E+02  0.00000000000E+00 0.  1.
</event>
<event>
 8    1  0.2669506E-006  0.9118800E+02  0.7816164E-02  0.1184000E+00
        -11   -1    0    0    0    0  0.00000000000E+00  0.00000000000E+00  0.45593999997E+02  0.45594000000E+02  0.51100000000E-03 0.  1.
         11   -1    0    0    0    0 -0.00000000000E+00 -0.00000000000E+00 -0.45593999997E+02  0.45594000000E+02  0.51100000000E-03 0. -1.
         23    2    1    2    0    0  0.00000000000E+00  0.17763568394E-14  0.00000000000E+00  0.91188000000E+02  0.91188000000E+02 0.  0.
    9900012    2    3    3    0    0  0.26832058715E+02 -0.11548952221E+02  0.22415204075E+02  0.54367094986E+02  0.40000024640E+02 0.  0.
         12    1    3    3    0    0 -0.26832058715E+02  0.11548952221E+02 -0.22415204075E+02  0.36820905014E+02  0.00000000000E+00 0. -1.
         11    1    4    4    0    0  0.23194410819E+01 -0.10440988525E+02  0.80951497361E+01  0.13413631045E+02  0.51100000000E-03 0. -1.
        -11    1    4    4    0    0  0.25524701506E+02 -0.11279880464E+02  0.12469128976E+02  0.30565098853E+02  0.51100000000E-03 0.  1.
         12    1    4    4    0    0 -0.10120838727E+01  0.10171916767E+02  0.18509253633E+01  0.10388365087E+02  0.00000000000E+00 0. -1.
</event>
<event>
 8    1  0.2553474E-006  0.9118800E+02  0.7816164E-02  0.1184000E+00
        -11   -1    0    0    0    0  0.00000000000E+00  0.00000000000E+00  0.45593999997E+02  0.45594000000E+02  0.51100000000E-03 0. -1.
         11   -1    0    0    0    0 -0.00000000000E+00 -0.00000000000E+00 -0.45593999997E+02  0.45594000000E+02  0.51100000000E-03 0.  1.
         23    2    1    2    0    0  0.00000000000E+00  0.35527136788E-14  0.00000000000E+00  0.91188000000E+02  0.91188000000E+02 0.  0.
    9900012    2    3    3    0    0 -0.11185536609E+02 -0.18790862838E+02 -0.29623547957E+02  0.54367253824E+02  0.40000386740E+02 0.  0.
         12    1    3    3    0    0  0.11185536609E+02  0.18790862838E+02  0.29623547957E+02  0.36820746176E+02  0.00000000000E+00 0. -1.
         11    1    4    4    0    0  0.25822338865E+01  0.38239293544E+01  0.79261871859E+00  0.46817317572E+01  0.51100000000E-03 0. -1.
        -11    1    4    4    0    0  0.34251133439E+01  0.42803959856E+01  0.15826773844E+00  0.54843632401E+01  0.51100000000E-03 0.  1.
        -12    1    4    4    0    0 -0.17192883839E+02 -0.26895188178E+02 -0.30574434414E+02  0.44201158826E+02  0.00000000000E+00 0.  1.
</event>
<event>
 8    1  0.2553474E-006  0.9118800E+02  0.7816164E-02  0.1184000E+00
        -11   -1    0    0    0    0  0.00000000000E+00  0.00000000000E+00  0.45593999997E+02  0.45594000000E+02  0.51100000000E-03 0.  1.
         11   -1    0    0    0    0 -0.00000000000E+00 -0.00000000000E+00 -0.45593999997E+02  0.45594000000E+02  0.51100000000E-03 0. -1.
         23    2    1    2    0    0  0.00000000000E+00  0.00000000000E+00  0.17763568394E-14  0.91188000000E+02  0.91188000000E+02 0.  0.
    9900012    2    3    3    0    0  0.27391556246E+02 -0.19214782401E+02 -0.15371187473E+02  0.54367100763E+02  0.40000037809E+02 0.  0.
         12    1    3    3    0    0 -0.27391556246E+02  0.19214782401E+02  0.15371187473E+02  0.36820899237E+02  0.00000000000E+00 0. -1.
         11    1    4    4    0    0 -0.86478929501E+01 -0.56010633477E+01  0.18421275262E+01  0.10466680333E+02  0.51100000000E-03 0. -1.
        -11    1    4    4    0    0  0.23625164833E+02 -0.11243454224E+02 -0.56435650037E+01  0.26765901862E+02  0.51100000000E-03 0.  1.
         12    1    4    4    0    0  0.12414284363E+02 -0.23702648291E+01 -0.11569749995E+02  0.17134518568E+02  0.00000000000E+00 0. -1.
</event>
<event>
 8    1  0.2553474E-006  0.9118800E+02  0.7816164E-02  0.1184000E+00
        -11   -1    0    0    0    0  0.00000000000E+00  0.00000000000E+00  0.45593999997E+02  0.45594000000E+02  0.51100000000E-03 0. -1.
         11   -1    0    0    0    0 -0.00000000000E+00 -0.00000000000E+00 -0.45593999997E+02  0.45594000000E+02  0.51100000000E-03 0.  1.
         23    2    1    2    0    0  0.00000000000E+00  0.00000000000E+00  0.17763568394E-14  0.91188000000E+02  0.91188000000E+02 0.  0.
    9900012    2    3    3    0    0 -0.33129450575E+02 -0.29370967495E+01 -0.15798564812E+02  0.54367059180E+02  0.39999943013E+02 0.  0.
         12    1    3    3    0    0  0.33129450575E+02  0.29370967495E+01  0.15798564812E+02  0.36820940820E+02  0.00000000000E+00 0. -1.
         11    1    4    4    0    0  0.25641141450E+01  0.38191363293E+00 -0.34370988370E+01  0.43051350790E+01  0.51100000000E-03 0. -1.
        -11    1    4    4    0    0 -0.99163954500E+01 -0.39875369984E+01 -0.20418453451E+02  0.23046661181E+02  0.51100000000E-03 0.  1.
        -12    1    4    4    0    0 -0.25777169270E+02  0.66852661597E+00  0.80569874753E+01  0.27015262919E+02  0.00000000000E+00 0.  1.
</event>
<event>
 8    1  0.2553474E-006  0.9118800E+02  0.7816164E-02  0.1184000E+00
        -11   -1    0    0    0    0  0.00000000000E+00  0.00000000000E+00  0.45593999997E+02  0.45594000000E+02  0.51100000000E-03 0.  1.
         11   -1    0    0    0    0 -0.00000000000E+00 -0.00000000000E+00 -0.45593999997E+02  0.45594000000E+02  0.51100000000E-03 0. -1.
         23    2    1    2    0    0  0.35527136788E-14  0.00000000000E+00  0.00000000000E+00  0.91188000000E+02  0.91188000000E+02 0.  0.
    9900012    2    3    3    0    0  0.25970322432E+02  0.20744381260E+02  0.15842738234E+02  0.54367090779E+02  0.40000015050E+02 0.  0.
         12    1    3    3    0    0 -0.25970322432E+02 -0.20744381260E+02 -0.15842738234E+02  0.36820909221E+02  0.00000000000E+00 0. -1.
         11    1    4    4    0    0 -0.35221039442E+01 -0.57676549372E+00 -0.76372169625E-01  0.35698329930E+01  0.51100000000E-03 0. -1.
        -11    1    4    4    0    0 -0.80812633702E+00  0.15551970017E+02  0.12091047467E+02  0.19715736576E+02  0.51100000000E-03 0.  1.
        -12    1    4    4    0    0  0.30300552713E+02  0.57691767360E+01  0.38280629365E+01  0.31081521211E+02  0.00000000000E+00 0.  1.
</event>
<event>
 8    1  0.2553474E-006  0.9118800E+02  0.7816164E-02  0.1184000E+00
        -11   -1    0    0    0    0  0.00000000000E+00  0.00000000000E+00  0.45593999997E+02  0.45594000000E+02  0.51100000000E-03 0.  1.
         11   -1    0    0    0    0 -0.00000000000E+00 -0.00000000000E+00 -0.45593999997E+02  0.45594000000E+02  0.51100000000E-03 0. -1.
         23    2    1    2    0    0  0.00000000000E+00  0.35527136788E-14  0.00000000000E+00  0.91188000000E+02  0.91188000000E+02 0.  0.
    9900012    2    3    3    0    0 -0.98414447924E+01  0.28887164271E+02  0.20602375053E+02  0.54367079954E+02  0.39999990371E+02 0.  0.
         12    1    3    3    0    0  0.98414447924E+01 -0.28887164271E+02 -0.20602375053E+02  0.36820920046E+02  0.00000000000E+00 0. -1.
         11    1    4    4    0    0 -0.15358820722E+02  0.90301275777E+01  0.31371604062E+01  0.18090836181E+02  0.51100000000E-03 0. -1.
        -11    1    4    4    0    0 -0.30091647302E+01  0.22389179310E+02  0.14738056502E+02  0.26972962986E+02  0.51100000000E-03 0.  1.
        -12    1    4    4    0    0  0.85265406601E+01 -0.25321426163E+01  0.27271581446E+01  0.93032807871E+01  0.00000000000E+00 0.  1.
</event>
<event>
 8    1  0.2553474E-006  0.9118800E+02  0.7816164E-02  0.1184000E+00
        -11   -1    0    0    0    0  0.00000000000E+00  0.00000000000E+00  0.45593999997E+02  0.45594000000E+02  0.51100000000E-03 0.  1.
         11   -1    0    0    0    0 -0.00000000000E+00 -0.00000000000E+00 -0.45593999997E+02  0.45594000000E+02  0.51100000000E-03 0. -1.
         23    2    1    2    0    0  0.00000000000E+00  0.00000000000E+00 -0.44408920985E-15  0.91188000000E+02  0.91188000000E+02 0.  0.
    9900012    2    3    3    0    0  0.19536342463E+02  0.30953841586E+02 -0.39962652362E+01  0.54367093960E+02  0.40000022301E+02 0.  0.
        -12    1    3    3    0    0 -0.19536342463E+02 -0.30953841586E+02  0.39962652362E+01  0.36820906040E+02  0.00000000000E+00 0.  1.
         11    1    4    4    0    0  0.65730244000E+01  0.27201428992E+02  0.68823010847E+01  0.28818196638E+02  0.51100000000E-03 0. -1.
        -11    1    4    4    0    0  0.14765674668E+02  0.12652726331E+01 -0.14545646616E+02  0.20765401488E+02  0.51100000000E-03 0.  1.
        -12    1    4    4    0    0 -0.18023566043E+01  0.24871399603E+01  0.36670802946E+01  0.47834958344E+01  0.00000000000E+00 0.  1.
</event>
<event>
 8    1  0.2553474E-006  0.9118800E+02  0.7816164E-02  0.1184000E+00
        -11   -1    0    0    0    0  0.00000000000E+00  0.00000000000E+00  0.45593999997E+02  0.45594000000E+02  0.51100000000E-03 0.  1.
         11   -1    0    0    0    0 -0.00000000000E+00 -0.00000000000E+00 -0.45593999997E+02  0.45594000000E+02  0.51100000000E-03 0. -1.
         23    2    1    2    0    0  0.00000000000E+00  0.00000000000E+00  0.00000000000E+00  0.91188000000E+02  0.91188000000E+02 0.  0.
    9900012    2    3    3    0    0  0.27423341407E+02  0.19663380285E+02  0.14734011600E+02  0.54367091863E+02  0.40000017521E+02 0.  0.
         12    1    3    3    0    0 -0.27423341407E+02 -0.19663380285E+02 -0.14734011600E+02  0.36820908137E+02  0.00000000000E+00 0. -1.
         11    1    4    4    0    0  0.47045188519E+01  0.37269553933E+01  0.10253231273E+02  0.11880717400E+02  0.51100000000E-03 0. -1.
        -11    1    4    4    0    0  0.29935254807E+02  0.17529495574E+02  0.51315991823E+01  0.35067591960E+02  0.51100000000E-03 0.  1.
         12    1    4    4    0    0 -0.72164322520E+01 -0.15930706823E+01 -0.65081885535E+00  0.74187825032E+01  0.00000000000E+00 0. -1.
</event>
<event>
 8    1  0.2553474E-006  0.9118800E+02  0.7816164E-02  0.1184000E+00
        -11   -1    0    0    0    0  0.00000000000E+00  0.00000000000E+00  0.45593999997E+02  0.45594000000E+02  0.51100000000E-03 0. -1.
         11   -1    0    0    0    0 -0.00000000000E+00 -0.00000000000E+00 -0.45593999997E+02  0.45594000000E+02  0.51100000000E-03 0.  1.
         23    2    1    2    0    0  0.00000000000E+00  0.44408920985E-15  0.71054273576E-14  0.91188000000E+02  0.91188000000E+02 0.  0.
    9900012    2    3    3    0    0 -0.11169341370E+02 -0.33153546963E+01 -0.34929137068E+02  0.54366941083E+02  0.39999673787E+02 0.  0.
         12    1    3    3    0    0  0.11169341370E+02  0.33153546963E+01  0.34929137068E+02  0.36821058917E+02  0.00000000000E+00 0. -1.
         11    1    4    4    0    0 -0.90884272177E+01  0.50247994780E+01 -0.61158709516E+01  0.12052053636E+02  0.51100000000E-03 0. -1.
        -11    1    4    4    0    0  0.78274271386E+01 -0.30837636320E+01  0.27235723334E+01  0.88428536268E+01  0.51100000000E-03 0.  1.
        -12    1    4    4    0    0 -0.99083412910E+01 -0.52563905423E+01 -0.31536838450E+02  0.33472033821E+02  0.00000000000E+00 0.  1.
</event>
<event>
 8    1  0.2553474E-006  0.9118800E+02  0.7816164E-02  0.1184000E+00
        -11   -1    0    0    0    0  0.00000000000E+00  0.00000000000E+00  0.45593999997E+02  0.45594000000E+02  0.51100000000E-03 0. -1.
         11   -1    0    0    0    0 -0.00000000000E+00 -0.00000000000E+00 -0.45593999997E+02  0.45594000000E+02  0.51100000000E-03 0.  1.
         23    2    1    2    0    0  0.00000000000E+00 -0.88817841970E-15 -0.88817841970E-15  0.91188000000E+02  0.91188000000E+02 0.  0.
    9900012    2    3    3    0    0 -0.36289082255E+02  0.22467925840E+01  0.58167442976E+01  0.54367080918E+02  0.39999992569E+02 0.  0.
        -12    1    3    3    0    0  0.36289082255E+02 -0.22467925840E+01 -0.58167442976E+01  0.36820919082E+02  0.00000000000E+00 0.  1.
         11    1    4    4    0    0  0.10540146655E+00  0.24850871412E+01 -0.29550498082E+01  0.38625234237E+01  0.51100000000E-03 0. -1.
        -11    1    4    4    0    0 -0.14463732156E+02 -0.11670841859E+02 -0.84006105953E+01  0.20395547461E+02  0.51100000000E-03 0.  1.
         12    1    4    4    0    0 -0.21930751565E+02  0.11432547302E+02  0.17172404701E+02  0.30109010034E+02  0.00000000000E+00 0. -1.
</event>
<event>
 8    1  0.2553474E-006  0.9118800E+02  0.7816164E-02  0.1184000E+00
        -11   -1    0    0    0    0  0.00000000000E+00  0.00000000000E+00  0.45593999997E+02  0.45594000000E+02  0.51100000000E-03 0. -1.
         11   -1    0    0    0    0 -0.00000000000E+00 -0.00000000000E+00 -0.45593999997E+02  0.45594000000E+02  0.51100000000E-03 0.  1.
         23    2    1    2    0    0  0.17763568394E-14  0.00000000000E+00  0.00000000000E+00  0.91188000000E+02  0.91188000000E+02 0.  0.
    9900012    2    3    3    0    0 -0.11482631649E+02 -0.21218420409E+02 -0.27815604310E+02  0.54367081524E+02  0.39999993951E+02 0.  0.
         12    1    3    3    0    0  0.11482631649E+02  0.21218420409E+02  0.27815604310E+02  0.36820918476E+02  0.00000000000E+00 0. -1.
         11    1    4    4    0    0  0.13223744008E+02 -0.36962842559E+01 -0.15082931879E+02  0.20396684957E+02  0.51100000000E-03 0. -1.
        -11    1    4    4    0    0 -0.82270162279E+01 -0.12501238239E+01 -0.38033099623E+01  0.91494137801E+01  0.51100000000E-03 0.  1.
         12    1    4    4    0    0 -0.16479359429E+02 -0.16272012329E+02 -0.89293624690E+01  0.24820982787E+02  0.00000000000E+00 0. -1.
</event>
<event>
 8    1  0.2553474E-006  0.9118800E+02  0.7816164E-02  0.1184000E+00
        -11   -1    0    0    0    0  0.00000000000E+00  0.00000000000E+00  0.45593999997E+02  0.45594000000E+02  0.51100000000E-03 0.  1.
         11   -1    0    0    0    0 -0.00000000000E+00 -0.00000000000E+00 -0.45593999997E+02  0.45594000000E+02  0.51100000000E-03 0. -1.
         23    2    1    2    0    0 -0.26645352591E-14  0.00000000000E+00 -0.17763568394E-14  0.91188000000E+02  0.91188000000E+02 0.  0.
    9900012    2    3    3    0    0  0.53590491458E+01 -0.36197953382E+02  0.40948881487E+01  0.54367090917E+02  0.40000015362E+02 0.  0.
        -12    1    3    3    0    0 -0.53590491458E+01  0.36197953382E+02 -0.40948881487E+01  0.36820909083E+02  0.00000000000E+00 0.  1.
         11    1    4    4    0    0  0.61575517512E+01 -0.22817728051E+02  0.10981399131E+02  0.26060607900E+02  0.51100000000E-03 0. -1.
        -11    1    4    4    0    0 -0.10525648567E+02 -0.12585929098E+02 -0.79082338120E-01  0.16407350283E+02  0.51100000000E-03 0.  1.
        -12    1    4    4    0    0  0.97271459621E+01 -0.79429623239E+00 -0.68074286438E+01  0.11899132734E+02  0.00000000000E+00 0.  1.
</event>
<event>
 8    1  0.2553474E-006  0.9118800E+02  0.7816164E-02  0.1184000E+00
        -11   -1    0    0    0    0  0.00000000000E+00  0.00000000000E+00  0.45593999997E+02  0.45594000000E+02  0.51100000000E-03 0. -1.
         11   -1    0    0    0    0 -0.00000000000E+00 -0.00000000000E+00 -0.45593999997E+02  0.45594000000E+02  0.51100000000E-03 0.  1.
         23    2    1    2    0    0  0.44408920985E-15  0.35527136788E-14  0.00000000000E+00  0.91188000000E+02  0.91188000000E+02 0.  0.
    9900012    2    3    3    0    0  0.27178782801E+01 -0.14897338273E+02  0.33562833206E+02  0.54367064069E+02  0.39999954159E+02 0.  0.
        -12    1    3    3    0    0 -0.27178782801E+01  0.14897338273E+02 -0.33562833206E+02  0.36820935931E+02  0.00000000000E+00 0.  1.
         11    1    4    4    0    0  0.84526393802E+01  0.52991501744E+01  0.10751976167E+02  0.14667416160E+02  0.51100000000E-03 0. -1.
        -11    1    4    4    0    0 -0.75813296237E-01 -0.21520869857E+01  0.20540303076E+02  0.20652875750E+02  0.51100000000E-03 0.  1.
        -12    1    4    4    0    0 -0.56589478039E+01 -0.18044401462E+02  0.22705539636E+01  0.19046772159E+02  0.00000000000E+00 0.  1.
</event>
<event>
 8    1  0.2553474E-006  0.9118800E+02  0.7816164E-02  0.1184000E+00
        -11   -1    0    0    0    0  0.00000000000E+00  0.00000000000E+00  0.45593999997E+02  0.45594000000E+02  0.51100000000E-03 0.  1.
         11   -1    0    0    0    0 -0.00000000000E+00 -0.00000000000E+00 -0.45593999997E+02  0.45594000000E+02  0.51100000000E-03 0. -1.
         23    2    1    2    0    0  0.17763568394E-14  0.00000000000E+00  0.00000000000E+00  0.91188000000E+02  0.91188000000E+02 0.  0.
    9900012    2    3    3    0    0  0.10967633644E+02  0.17234014772E+02  0.30634619193E+02  0.54367080050E+02  0.39999990589E+02 0.  0.
         12    1    3    3    0    0 -0.10967633644E+02 -0.17234014772E+02 -0.30634619193E+02  0.36820919950E+02  0.00000000000E+00 0. -1.
         11    1    4    4    0    0 -0.12180390851E+02 -0.22110673845E+01  0.13881117443E+02  0.18599359182E+02  0.51100000000E-03 0. -1.
        -11    1    4    4    0    0  0.17535307909E+02  0.93136030010E+01  0.12313965846E+02  0.23363732138E+02  0.51100000000E-03 0.  1.
         12    1    4    4    0    0  0.56127165852E+01  0.10131479156E+02  0.44395359038E+01  0.12403988729E+02  0.00000000000E+00 0. -1.
</event>
<event>
 8    1  0.2553474E-006  0.9118800E+02  0.7816164E-02  0.1184000E+00
        -11   -1    0    0    0    0  0.00000000000E+00  0.00000000000E+00  0.45593999997E+02  0.45594000000E+02  0.51100000000E-03 0. -1.
         11   -1    0    0    0    0 -0.00000000000E+00 -0.00000000000E+00 -0.45593999997E+02  0.45594000000E+02  0.51100000000E-03 0.  1.
         23    2    1    2    0    0  0.00000000000E+00  0.00000000000E+00 -0.35527136788E-14  0.91188000000E+02  0.91188000000E+02 0.  0.
    9900012    2    3    3    0    0  0.30441752316E+02 -0.71856316362E+01  0.19427969528E+02  0.54367087653E+02  0.40000007923E+02 0.  0.
        -12    1    3    3    0    0 -0.30441752316E+02  0.71856316362E+01 -0.19427969528E+02  0.36820912347E+02  0.00000000000E+00 0.  1.
         11    1    4    4    0    0  0.17113639031E+02 -0.29102906708E+01  0.26518675759E+02  0.31695214102E+02  0.51100000000E-03 0. -1.
        -11    1    4    4    0    0  0.39960174605E+01  0.57484555371E+01  0.49061331496E+00  0.70180907868E+01  0.51100000000E-03 0.  1.
         12    1    4    4    0    0  0.93320958241E+01 -0.10023796502E+02 -0.75813195456E+01  0.15653782765E+02  0.00000000000E+00 0. -1.
</event>
<event>
 8    1  0.2553474E-006  0.9118800E+02  0.7816164E-02  0.1184000E+00
        -11   -1    0    0    0    0  0.00000000000E+00  0.00000000000E+00  0.45593999997E+02  0.45594000000E+02  0.51100000000E-03 0. -1.
         11   -1    0    0    0    0 -0.00000000000E+00 -0.00000000000E+00 -0.45593999997E+02  0.45594000000E+02  0.51100000000E-03 0.  1.
         23    2    1    2    0    0  0.55511151231E-16  0.00000000000E+00  0.71054273576E-14  0.91188000000E+02  0.91188000000E+02 0.  0.
    9900012    2    3    3    0    0  0.35876164766E+00  0.39298389836E+01  0.36608828235E+02  0.54367100376E+02  0.40000036927E+02 0.  0.
        -12    1    3    3    0    0 -0.35876164766E+00 -0.39298389836E+01 -0.36608828235E+02  0.36820899624E+02  0.00000000000E+00 0.  1.
         11    1    4    4    0    0 -0.15679280062E+01  0.70796907524E+01  0.21069495231E+02  0.22282370810E+02  0.51100000000E-03 0. -1.
        -11    1    4    4    0    0 -0.26149304696E+01  0.38033075640E+01 -0.68187717236E+01  0.82339940409E+01  0.51100000000E-03 0.  1.
        -12    1    4    4    0    0  0.45416201235E+01 -0.69531593328E+01  0.22358104728E+02  0.23850735525E+02  0.00000000000E+00 0.  1.
</event>
<event>
 8    1  0.2553474E-006  0.9118800E+02  0.7816164E-02  0.1184000E+00
        -11   -1    0    0    0    0  0.00000000000E+00  0.00000000000E+00  0.45593999997E+02  0.45594000000E+02  0.51100000000E-03 0. -1.
         11   -1    0    0    0    0 -0.00000000000E+00 -0.00000000000E+00 -0.45593999997E+02  0.45594000000E+02  0.51100000000E-03 0.  1.
         23    2    1    2    0    0  0.35527136788E-14  0.17763568394E-14 -0.35527136788E-14  0.91188000000E+02  0.91188000000E+02 0.  0.
    9900012    2    3    3    0    0  0.27468521414E+02  0.89688684932E+01 -0.22821470475E+02  0.54367084947E+02  0.40000001753E+02 0.  0.
         12    1    3    3    0    0 -0.27468521414E+02 -0.89688684932E+01  0.22821470475E+02  0.36820915053E+02  0.00000000000E+00 0. -1.
         11    1    4    4    0    0  0.21401435812E+02  0.11923869112E+02 -0.17620133112E+01  0.24562263751E+02  0.51100000000E-03 0. -1.
        -11    1    4    4    0    0  0.10651238990E+02  0.50772895217E+01 -0.10855847696E+02  0.16033626863E+02  0.51100000000E-03 0.  1.
        -12    1    4    4    0    0 -0.45841533878E+01 -0.80322901409E+01 -0.10203609467E+02  0.13771194333E+02  0.00000000000E+00 0.  1.
</event>
<event>
 8    1  0.2553474E-006  0.9118800E+02  0.7816164E-02  0.1184000E+00
        -11   -1    0    0    0    0  0.00000000000E+00  0.00000000000E+00  0.45593999997E+02  0.45594000000E+02  0.51100000000E-03 0.  1.
         11   -1    0    0    0    0 -0.00000000000E+00 -0.00000000000E+00 -0.45593999997E+02  0.45594000000E+02  0.51100000000E-03 0. -1.
         23    2    1    2    0    0  0.35527136788E-14  0.17763568394E-14 -0.35527136788E-14  0.91188000000E+02  0.91188000000E+02 0.  0.
    9900012    2    3    3    0    0 -0.22384553160E+02 -0.55274023053E+01  0.28708184276E+02  0.54367078762E+02  0.39999987653E+02 0.  0.
         12    1    3    3    0    0  0.22384553160E+02  0.55274023053E+01 -0.28708184276E+02  0.36820921238E+02  0.00000000000E+00 0. -1.
         11    1    4    4    0    0 -0.51077178056E+01  0.61367108676E+01  0.14637845064E+02  0.16673767116E+02  0.51100000000E-03 0. -1.
        -11    1    4    4    0    0 -0.13904804729E+02  0.71926783605E+01  0.81136113152E+01  0.17632609148E+02  0.51100000000E-03 0.  1.
        -12    1    4    4    0    0 -0.33720306259E+01 -0.18856791533E+02  0.59567278966E+01  0.20060702498E+02  0.00000000000E+00 0.  1.
</event>
<event>
 8    1  0.2553474E-006  0.9118800E+02  0.7816164E-02  0.1184000E+00
        -11   -1    0    0    0    0  0.00000000000E+00  0.00000000000E+00  0.45593999997E+02  0.45594000000E+02  0.51100000000E-03 0.  1.
         11   -1    0    0    0    0 -0.00000000000E+00 -0.00000000000E+00 -0.45593999997E+02  0.45594000000E+02  0.51100000000E-03 0. -1.
         23    2    1    2    0    0  0.00000000000E+00  0.00000000000E+00  0.00000000000E+00  0.91188000000E+02  0.91188000000E+02 0.  0.
    9900012    2    3    3    0    0 -0.28048606293E+02  0.21824192802E+02 -0.96312159210E+01  0.54367081671E+02  0.39999994286E+02 0.  0.
        -12    1    3    3    0    0  0.28048606293E+02 -0.21824192802E+02  0.96312159210E+01  0.36820918329E+02  0.00000000000E+00 0.  1.
         11    1    4    4    0    0 -0.14234556682E+02  0.13980581841E+02 -0.11354160779E+02  0.22956398668E+02  0.51100000000E-03 0. -1.
        -11    1    4    4    0    0 -0.17235916497E+02  0.55902379924E+01 -0.87814127683E+01  0.20135560304E+02  0.51100000000E-03 0.  1.
        -12    1    4    4    0    0  0.34218668857E+01  0.22533729686E+01  0.10504357627E+02  0.11275122699E+02  0.00000000000E+00 0.  1.
</event>
<event>
 8    1  0.2553474E-006  0.9118800E+02  0.7816164E-02  0.1184000E+00
        -11   -1    0    0    0    0  0.00000000000E+00  0.00000000000E+00  0.45593999997E+02  0.45594000000E+02  0.51100000000E-03 0.  1.
         11   -1    0    0    0    0 -0.00000000000E+00 -0.00000000000E+00 -0.45593999997E+02  0.45594000000E+02  0.51100000000E-03 0. -1.
         23    2    1    2    0    0  0.00000000000E+00  0.00000000000E+00  0.00000000000E+00  0.91188000000E+02  0.91188000000E+02 0.  0.
    9900012    2    3    3    0    0 -0.20554901461E+02  0.10137634562E+02  0.28818418796E+02  0.54367124529E+02  0.40000091988E+02 0.  0.
         12    1    3    3    0    0  0.20554901461E+02 -0.10137634562E+02 -0.28818418796E+02  0.36820875471E+02  0.00000000000E+00 0. -1.
         11    1    4    4    0    0 -0.87111818772E+01  0.11296933562E+02  0.88852710166E+01  0.16806351148E+02  0.51100000000E-03 0.  1.
        -11    1    4    4    0    0  0.88938923466E+00  0.11930453485E+02  0.13875679150E+02  0.18321059077E+02  0.51100000000E-03 0. -1.
        -12    1    4    4    0    0 -0.12733108818E+02 -0.13089752485E+02  0.60574686293E+01  0.19239714304E+02  0.00000000000E+00 0.  1.
</event>
<event>
 8    1  0.2553474E-006  0.9118800E+02  0.7816164E-02  0.1184000E+00
        -11   -1    0    0    0    0  0.00000000000E+00  0.00000000000E+00  0.45593999997E+02  0.45594000000E+02  0.51100000000E-03 0.  1.
         11   -1    0    0    0    0 -0.00000000000E+00 -0.00000000000E+00 -0.45593999997E+02  0.45594000000E+02  0.51100000000E-03 0. -1.
         23    2    1    2    0    0  0.00000000000E+00  0.17763568394E-14 -0.35527136788E-14  0.91188000000E+02  0.91188000000E+02 0.  0.
    9900012    2    3    3    0    0  0.24164025966E+02 -0.10097143684E+02  0.25882959467E+02  0.54367081323E+02  0.39999993492E+02 0.  0.
        -12    1    3    3    0    0 -0.24164025966E+02  0.10097143684E+02 -0.25882959467E+02  0.36820918677E+02  0.00000000000E+00 0.  1.
         11    1    4    4    0    0  0.81877320942E+01  0.56510373052E+00  0.10765797390E+01  0.82775191494E+01  0.51100000000E-03 0. -1.
        -11    1    4    4    0    0  0.83445370582E+00  0.74327730459E+01 -0.42950326320E+01  0.86249483308E+01  0.51100000000E-03 0.  1.
        -12    1    4    4    0    0  0.15141840166E+02 -0.18095020460E+02  0.29101412360E+02  0.37464613843E+02  0.00000000000E+00 0.  1.
</event>
<event>
 8    1  0.2553474E-006  0.9118800E+02  0.7816164E-02  0.1184000E+00
        -11   -1    0    0    0    0  0.00000000000E+00  0.00000000000E+00  0.45593999997E+02  0.45594000000E+02  0.51100000000E-03 0. -1.
         11   -1    0    0    0    0 -0.00000000000E+00 -0.00000000000E+00 -0.45593999997E+02  0.45594000000E+02  0.51100000000E-03 0.  1.
         23    2    1    2    0    0  0.00000000000E+00  0.00000000000E+00  0.00000000000E+00  0.91188000000E+02  0.91188000000E+02 0.  0.
    9900012    2    3    3    0    0 -0.27933054598E+02  0.57068395502E+01  0.23301208472E+02  0.54367219548E+02  0.40000308602E+02 0.  0.
        -12    1    3    3    0    0  0.27933054598E+02 -0.57068395502E+01 -0.23301208472E+02  0.36820780452E+02  0.00000000000E+00 0.  1.
         11    1    4    4    0    0 -0.20528416014E+02  0.11060073424E+02  0.16591016176E+00  0.23318846769E+02  0.51100000000E-03 0. -1.
        -11    1    4    4    0    0 -0.23314522738E+01  0.10344119911E+01 -0.28430226520E+01  0.38194837260E+01  0.51100000000E-03 0.  1.
         12    1    4    4    0    0 -0.50731863102E+01 -0.63876458647E+01  0.25978320962E+02  0.27228889053E+02  0.00000000000E+00 0. -1.
</event>
<event>
 8    1  0.2553474E-006  0.9118800E+02  0.7816164E-02  0.1184000E+00
        -11   -1    0    0    0    0  0.00000000000E+00  0.00000000000E+00  0.45593999997E+02  0.45594000000E+02  0.51100000000E-03 0.  1.
         11   -1    0    0    0    0 -0.00000000000E+00 -0.00000000000E+00 -0.45593999997E+02  0.45594000000E+02  0.51100000000E-03 0. -1.
         23    2    1    2    0    0 -0.71054273576E-14  0.71054273576E-14  0.00000000000E+00  0.91188000000E+02  0.91188000000E+02 0.  0.
    9900012    2    3    3    0    0  0.25575730404E+02 -0.25089980015E+02  0.84944135508E+01  0.54367080071E+02  0.39999990639E+02 0.  0.
        -12    1    3    3    0    0 -0.25575730404E+02  0.25089980015E+02 -0.84944135508E+01  0.36820919929E+02  0.00000000000E+00 0.  1.
         11    1    4    4    0    0 -0.68197999217E+00 -0.19255257751E-01  0.53307760206E+00  0.86581722413E+00  0.51100000000E-03 0. -1.
        -11    1    4    4    0    0  0.30293706086E+02 -0.36010822631E+01  0.84308138694E+01  0.31650514129E+02  0.51100000000E-03 0.  1.
         12    1    4    4    0    0 -0.40359956900E+01 -0.21469642494E+02 -0.46947792065E+00  0.21850748718E+02  0.00000000000E+00 0. -1.
</event>
<event>
 8    1  0.2553474E-006  0.9118800E+02  0.7816164E-02  0.1184000E+00
        -11   -1    0    0    0    0  0.00000000000E+00  0.00000000000E+00  0.45593999997E+02  0.45594000000E+02  0.51100000000E-03 0.  1.
         11   -1    0    0    0    0 -0.00000000000E+00 -0.00000000000E+00 -0.45593999997E+02  0.45594000000E+02  0.51100000000E-03 0. -1.
         23    2    1    2    0    0  0.00000000000E+00  0.00000000000E+00 -0.35527136788E-14  0.91188000000E+02  0.91188000000E+02 0.  0.
    9900012    2    3    3    0    0 -0.22785772755E+02 -0.27530131943E+02  0.88702368236E+01  0.54367072443E+02  0.39999973249E+02 0.  0.
         12    1    3    3    0    0  0.22785772755E+02  0.27530131943E+02 -0.88702368236E+01  0.36820927557E+02  0.00000000000E+00 0. -1.
         11    1    4    4    0    0 -0.46845236912E+01 -0.89418590843E+01 -0.85427726726E+01  0.13224241804E+02  0.51100000000E-03 0. -1.
        -11    1    4    4    0    0 -0.77208974665E+00 -0.40622833750E+01 -0.68344506409E+01  0.79879900238E+01  0.51100000000E-03 0.  1.
        -12    1    4    4    0    0 -0.17329159317E+02 -0.14525989484E+02  0.24247460137E+02  0.33154840615E+02  0.00000000000E+00 0.  1.
</event>
<event>
 8    1  0.2553474E-006  0.9118800E+02  0.7816164E-02  0.1184000E+00
        -11   -1    0    0    0    0  0.00000000000E+00  0.00000000000E+00  0.45593999997E+02  0.45594000000E+02  0.51100000000E-03 0.  1.
         11   -1    0    0    0    0 -0.00000000000E+00 -0.00000000000E+00 -0.45593999997E+02  0.45594000000E+02  0.51100000000E-03 0. -1.
         23    2    1    2    0    0  0.00000000000E+00  0.00000000000E+00 -0.35527136788E-14  0.91188000000E+02  0.91188000000E+02 0.  0.
    9900012    2    3    3    0    0 -0.15763682397E+02 -0.17546857516E+02  0.28273558734E+02  0.54367081830E+02  0.39999994649E+02 0.  0.
         12    1    3    3    0    0  0.15763682397E+02  0.17546857516E+02 -0.28273558734E+02  0.36820918170E+02  0.00000000000E+00 0. -1.
         11    1    4    4    0    0 -0.28513870431E+01 -0.15824699976E+02  0.28785029072E+00  0.16082114147E+02  0.51100000000E-03 0. -1.
        -11    1    4    4    0    0 -0.90350253647E+01 -0.82355331550E+01  0.35939277039E+01  0.12742527469E+02  0.51100000000E-03 0.  1.
        -12    1    4    4    0    0 -0.38772699888E+01  0.65133756151E+01  0.24391780739E+02  0.25542440214E+02  0.00000000000E+00 0.  1.
</event>
<event>
 8    1  0.2553474E-006  0.9118800E+02  0.7816164E-02  0.1184000E+00
        -11   -1    0    0    0    0  0.00000000000E+00  0.00000000000E+00  0.45593999997E+02  0.45594000000E+02  0.51100000000E-03 0.  1.
         11   -1    0    0    0    0 -0.00000000000E+00 -0.00000000000E+00 -0.45593999997E+02  0.45594000000E+02  0.51100000000E-03 0. -1.
         23    2    1    2    0    0 -0.13322676296E-14 -0.71054273576E-14 -0.44408920985E-15  0.91188000000E+02  0.91188000000E+02 0.  0.
    9900012    2    3    3    0    0 -0.60682042194E+00 -0.36608357943E+02 -0.39038533450E+01  0.54367079680E+02  0.39999989746E+02 0.  0.
        -12    1    3    3    0    0  0.60682042194E+00  0.36608357943E+02  0.39038533450E+01  0.36820920320E+02  0.00000000000E+00 0.  1.
         11    1    4    4    0    0  0.10400094793E+02 -0.19447002263E+02 -0.77922238775E+01  0.23389455358E+02  0.51100000000E-03 0. -1.
        -11    1    4    4    0    0  0.95821294157E-01 -0.15049862188E+02  0.10057864733E+02  0.18101607024E+02  0.51100000000E-03 0.  1.
        -12    1    4    4    0    0 -0.11102736509E+02 -0.21114934917E+01 -0.61694942003E+01  0.12876017298E+02  0.00000000000E+00 0.  1.
</event>
<event>
 8    1  0.2553474E-006  0.9118800E+02  0.7816164E-02  0.1184000E+00
        -11   -1    0    0    0    0  0.00000000000E+00  0.00000000000E+00  0.45593999997E+02  0.45594000000E+02  0.51100000000E-03 0. -1.
         11   -1    0    0    0    0 -0.00000000000E+00 -0.00000000000E+00 -0.45593999997E+02  0.45594000000E+02  0.51100000000E-03 0.  1.
         23    2    1    2    0    0  0.00000000000E+00 -0.35527136788E-14  0.00000000000E+00  0.91188000000E+02  0.91188000000E+02 0.  0.
    9900012    2    3    3    0    0 -0.17904126234E+02  0.26054030634E+02 -0.18878791635E+02  0.54367095311E+02  0.40000025381E+02 0.  0.
         12    1    3    3    0    0  0.17904126234E+02 -0.26054030634E+02  0.18878791635E+02  0.36820904689E+02  0.00000000000E+00 0. -1.
         11    1    4    4    0    0  0.22029832537E+00  0.16268014065E+02 -0.45656243540E+01  0.16897980322E+02  0.51100000000E-03 0. -1.
        -11    1    4    4    0    0 -0.21319947784E+02  0.16527353760E+02 -0.95426914525E+01  0.28613922420E+02  0.51100000000E-03 0.  1.
        -12    1    4    4    0    0  0.31955232252E+01 -0.67413371905E+01 -0.47704758289E+01  0.88551925689E+01  0.00000000000E+00 0.  1.
</event>
<event>
 8    1  0.2553474E-006  0.9118800E+02  0.7816164E-02  0.1184000E+00
        -11   -1    0    0    0    0  0.00000000000E+00  0.00000000000E+00  0.45593999997E+02  0.45594000000E+02  0.51100000000E-03 0.  1.
         11   -1    0    0    0    0 -0.00000000000E+00 -0.00000000000E+00 -0.45593999997E+02  0.45594000000E+02  0.51100000000E-03 0. -1.
         23    2    1    2    0    0  0.00000000000E+00  0.00000000000E+00 -0.35527136788E-14  0.91188000000E+02  0.91188000000E+02 0.  0.
    9900012    2    3    3    0    0 -0.20897769969E+02 -0.10120497993E+02 -0.28576893243E+02  0.54367080718E+02  0.39999992114E+02 0.  0.
        -12    1    3    3    0    0  0.20897769969E+02  0.10120497993E+02  0.28576893243E+02  0.36820919282E+02  0.00000000000E+00 0.  1.
         11    1    4    4    0    0  0.25377081467E+01 -0.98232314202E+01 -0.20372186069E+02  0.22758774213E+02  0.51100000000E-03 0. -1.
        -11    1    4    4    0    0 -0.75013764285E+01  0.26434375833E+01 -0.12526929704E+02  0.14838543683E+02  0.51100000000E-03 0.  1.
        -12    1    4    4    0    0 -0.15934101687E+02 -0.29407041564E+01  0.43222225298E+01  0.16769762822E+02  0.00000000000E+00 0.  1.
</event>
<event>
 8    1  0.2553474E-006  0.9118800E+02  0.7816164E-02  0.1184000E+00
        -11   -1    0    0    0    0  0.00000000000E+00  0.00000000000E+00  0.45593999997E+02  0.45594000000E+02  0.51100000000E-03 0. -1.
         11   -1    0    0    0    0 -0.00000000000E+00 -0.00000000000E+00 -0.45593999997E+02  0.45594000000E+02  0.51100000000E-03 0.  1.
         23    2    1    2    0    0 -0.88817841970E-15  0.00000000000E+00  0.00000000000E+00  0.91188000000E+02  0.91188000000E+02 0.  0.
    9900012    2    3    3    0    0  0.36516311147E+01 -0.21431498655E+02 -0.29717604870E+02  0.54367087687E+02  0.40000008000E+02 0.  0.
         12    1    3    3    0    0 -0.36516311147E+01  0.21431498655E+02  0.29717604870E+02  0.36820912313E+02  0.00000000000E+00 0. -1.
         11    1    4    4    0    0  0.14723497240E+02 -0.12670054244E+02 -0.16400882564E+02  0.25422442736E+02  0.51100000000E-03 0.  1.
        -11    1    4    4    0    0  0.26933391123E+01 -0.73695505347E+01  0.22065428398E+01  0.81506553247E+01  0.51100000000E-03 0. -1.
        -12    1    4    4    0    0 -0.13765205237E+02 -0.13918938757E+01 -0.15523265146E+02  0.20793989626E+02  0.00000000000E+00 0.  1.
</event>
<event>
 8    1  0.2553474E-006  0.9118800E+02  0.7816164E-02  0.1184000E+00
        -11   -1    0    0    0    0  0.00000000000E+00  0.00000000000E+00  0.45593999997E+02  0.45594000000E+02  0.51100000000E-03 0.  1.
         11   -1    0    0    0    0 -0.00000000000E+00 -0.00000000000E+00 -0.45593999997E+02  0.45594000000E+02  0.51100000000E-03 0. -1.
         23    2    1    2    0    0  0.00000000000E+00  0.35527136788E-14  0.00000000000E+00  0.91188000000E+02  0.91188000000E+02 0.  0.
    9900012    2    3    3    0    0 -0.15835694111E+02  0.83500335497E+01 -0.32175893226E+02  0.54367076965E+02  0.39999983557E+02 0.  0.
        -12    1    3    3    0    0  0.15835694111E+02 -0.83500335497E+01  0.32175893226E+02  0.36820923035E+02  0.00000000000E+00 0.  1.
         11    1    4    4    0    0 -0.15743437078E+02 -0.94878914677E+01 -0.24419726556E+02  0.30564668178E+02  0.51100000000E-03 0. -1.
        -11    1    4    4    0    0  0.46944242774E+01  0.25523671759E+01  0.11637472999E+01  0.54686840772E+01  0.51100000000E-03 0.  1.
        -12    1    4    4    0    0 -0.47866813102E+01  0.15285557841E+02 -0.89199139700E+01  0.18333724709E+02  0.00000000000E+00 0.  1.
</event>
<event>
 8    1  0.2553474E-006  0.9118800E+02  0.7816164E-02  0.1184000E+00
        -11   -1    0    0    0    0  0.00000000000E+00  0.00000000000E+00  0.45593999997E+02  0.45594000000E+02  0.51100000000E-03 0.  1.
         11   -1    0    0    0    0 -0.00000000000E+00 -0.00000000000E+00 -0.45593999997E+02  0.45594000000E+02  0.51100000000E-03 0. -1.
         23    2    1    2    0    0  0.00000000000E+00 -0.35527136788E-14  0.35527136788E-14  0.91188000000E+02  0.91188000000E+02 0.  0.
    9900012    2    3    3    0    0 -0.16817515904E+02  0.17750942256E+02  0.27529206022E+02  0.54367055194E+02  0.39999933926E+02 0.  0.
         12    1    3    3    0    0  0.16817515904E+02 -0.17750942256E+02 -0.27529206022E+02  0.36820944806E+02  0.00000000000E+00 0. -1.
         11    1    4    4    0    0  0.19097266662E+01 -0.67343316268E+00  0.63287528866E+01  0.66448236639E+01  0.51100000000E-03 0. -1.
        -11    1    4    4    0    0 -0.51937215915E+01  0.28749849396E+01  0.25906388397E+02  0.26577833666E+02  0.51100000000E-03 0.  1.
        -12    1    4    4    0    0 -0.13533520979E+02  0.15549390479E+02 -0.47059352608E+01  0.21144397864E+02  0.00000000000E+00 0.  1.
</event>
<event>
 8    1  0.2553474E-006  0.9118800E+02  0.7816164E-02  0.1184000E+00
        -11   -1    0    0    0    0  0.00000000000E+00  0.00000000000E+00  0.45593999997E+02  0.45594000000E+02  0.51100000000E-03 0.  1.
         11   -1    0    0    0    0 -0.00000000000E+00 -0.00000000000E+00 -0.45593999997E+02  0.45594000000E+02  0.51100000000E-03 0. -1.
         23    2    1    2    0    0  0.71054273576E-14 -0.71054273576E-14  0.17763568394E-14  0.91188000000E+02  0.91188000000E+02 0.  0.
    9900012    2    3    3    0    0 -0.20435510802E+02  0.27650718973E+02 -0.13176097819E+02  0.54367056025E+02  0.39999935821E+02 0.  0.
        -12    1    3    3    0    0  0.20435510802E+02 -0.27650718973E+02  0.13176097819E+02  0.36820943975E+02  0.00000000000E+00 0.  1.
         11    1    4    4    0    0 -0.20943311413E+01 -0.27672946523E+01 -0.46655925013E+01  0.58147997619E+01  0.51100000000E-03 0. -1.
        -11    1    4    4    0    0  0.10186777038E+01  0.41992730046E+01  0.10125231575E+02  0.11008719850E+02  0.51100000000E-03 0.  1.
         12    1    4    4    0    0 -0.19359857364E+02  0.26218740620E+02 -0.18635736893E+02  0.37543536413E+02  0.00000000000E+00 0. -1.
</event>
<event>
 8    1  0.2553474E-006  0.9118800E+02  0.7816164E-02  0.1184000E+00
        -11   -1    0    0    0    0  0.00000000000E+00  0.00000000000E+00  0.45593999997E+02  0.45594000000E+02  0.51100000000E-03 0.  1.
         11   -1    0    0    0    0 -0.00000000000E+00 -0.00000000000E+00 -0.45593999997E+02  0.45594000000E+02  0.51100000000E-03 0. -1.
         23    2    1    2    0    0  0.00000000000E+00  0.00000000000E+00 -0.35527136788E-14  0.91188000000E+02  0.91188000000E+02 0.  0.
    9900012    2    3    3    0    0  0.22992337895E+02  0.16837183935E+02  0.23316241967E+02  0.54367007289E+02  0.39999824717E+02 0.  0.
         12    1    3    3    0    0 -0.22992337895E+02 -0.16837183935E+02 -0.23316241967E+02  0.36820992711E+02  0.00000000000E+00 0. -1.
         11    1    4    4    0    0  0.20828267358E+02 -0.21406012419E+01 -0.97215757211E-01  0.20938203026E+02  0.51100000000E-03 0. -1.
        -11    1    4    4    0    0  0.73430233821E+01  0.16287088057E+02  0.19227440530E+02  0.26246594052E+02  0.51100000000E-03 0.  1.
         12    1    4    4    0    0 -0.51789528445E+01  0.26906971202E+01  0.41860171949E+01  0.71822102109E+01  0.00000000000E+00 0. -1.
</event>
<event>
 8    1  0.2553474E-006  0.9118800E+02  0.7816164E-02  0.1184000E+00
        -11   -1    0    0    0    0  0.00000000000E+00  0.00000000000E+00  0.45593999997E+02  0.45594000000E+02  0.51100000000E-03 0. -1.
         11   -1    0    0    0    0 -0.00000000000E+00 -0.00000000000E+00 -0.45593999997E+02  0.45594000000E+02  0.51100000000E-03 0.  1.
         23    2    1    2    0    0 -0.35527136788E-14  0.35527136788E-14  0.35527136788E-14  0.91188000000E+02  0.91188000000E+02 0.  0.
    9900012    2    3    3    0    0 -0.12655166686E+02 -0.22056296170E+02  0.26629810272E+02  0.54367078777E+02  0.39999987688E+02 0.  0.
        -12    1    3    3    0    0  0.12655166686E+02  0.22056296170E+02 -0.26629810272E+02  0.36820921223E+02  0.00000000000E+00 0.  1.
         11    1    4    4    0    0 -0.85224700746E+00 -0.20971469621E+01  0.20610447776E+01  0.30614140815E+01  0.51100000000E-03 0. -1.
        -11    1    4    4    0    0  0.47498760281E+01 -0.33848886572E+01  0.27122458851E+02  0.27742504715E+02  0.51100000000E-03 0.  1.
         12    1    4    4    0    0 -0.16552795707E+02 -0.16574260550E+02 -0.25536933559E+01  0.23563159980E+02  0.00000000000E+00 0. -1.
</event>
<event>
 8    1  0.2553474E-006  0.9118800E+02  0.7816164E-02  0.1184000E+00
        -11   -1    0    0    0    0  0.00000000000E+00  0.00000000000E+00  0.45593999997E+02  0.45594000000E+02  0.51100000000E-03 0.  1.
         11   -1    0    0    0    0 -0.00000000000E+00 -0.00000000000E+00 -0.45593999997E+02  0.45594000000E+02  0.51100000000E-03 0. -1.
         23    2    1    2    0    0  0.00000000000E+00  0.00000000000E+00  0.00000000000E+00  0.91188000000E+02  0.91188000000E+02 0.  0.
    9900012    2    3    3    0    0 -0.19574665681E+02 -0.30732485263E+02 -0.53033945302E+01  0.54367093160E+02  0.40000020477E+02 0.  0.
        -12    1    3    3    0    0  0.19574665681E+02  0.30732485263E+02  0.53033945302E+01  0.36820906840E+02  0.00000000000E+00 0.  1.
         11    1    4    4    0    0  0.35194070264E+01 -0.37385808883E+00  0.97046976876E+01  0.10329915448E+02  0.51100000000E-03 0. -1.
        -11    1    4    4    0    0 -0.62432468599E+00 -0.91806098772E+01  0.10018690434E+01  0.92561936492E+01  0.51100000000E-03 0.  1.
         12    1    4    4    0    0 -0.22469748022E+02 -0.21178017297E+02 -0.16009961261E+02  0.34780984063E+02  0.00000000000E+00 0. -1.
</event>
<event>
 8    1  0.2553474E-006  0.9118800E+02  0.7816164E-02  0.1184000E+00
        -11   -1    0    0    0    0  0.00000000000E+00  0.00000000000E+00  0.45593999997E+02  0.45594000000E+02  0.51100000000E-03 0. -1.
         11   -1    0    0    0    0 -0.00000000000E+00 -0.00000000000E+00 -0.45593999997E+02  0.45594000000E+02  0.51100000000E-03 0.  1.
         23    2    1    2    0    0  0.35527136788E-14  0.35527136788E-14  0.00000000000E+00  0.91188000000E+02  0.91188000000E+02 0.  0.
    9900012    2    3    3    0    0 -0.25536126487E+02 -0.25300985490E+02 -0.79716226881E+01  0.54367076723E+02  0.39999983005E+02 0.  0.
         12    1    3    3    0    0  0.25536126487E+02  0.25300985490E+02  0.79716226881E+01  0.36820923277E+02  0.00000000000E+00 0. -1.
         11    1    4    4    0    0 -0.54331538045E+01  0.45580798605E+01  0.16437545099E+01  0.72799163064E+01  0.51100000000E-03 0.  1.
        -11    1    4    4    0    0  0.63743423316E+01 -0.11880377951E+02 -0.63918426313E+01  0.14920833519E+02  0.51100000000E-03 0. -1.
        -12    1    4    4    0    0 -0.26477315014E+02 -0.17978687399E+02 -0.32235345666E+01  0.32166326897E+02  0.00000000000E+00 0.  1.
</event>
<event>
 8    1  0.2629414E-006  0.9118800E+02  0.7816164E-02  0.1184000E+00
        -11   -1    0    0    0    0  0.00000000000E+00  0.00000000000E+00  0.45593999997E+02  0.45594000000E+02  0.51100000000E-03 0. -1.
         11   -1    0    0    0    0 -0.00000000000E+00 -0.00000000000E+00 -0.45593999997E+02  0.45594000000E+02  0.51100000000E-03 0.  1.
         23    2    1    2    0    0 -0.14120649094E-14  0.00000000000E+00 -0.71054273576E-14  0.91188000000E+02  0.91188000000E+02 0.  0.
    9900012    2    3    3    0    0 -0.17760086826E-01 -0.11013072647E+02  0.35135326976E+02  0.54367091724E+02  0.40000017204E+02 0.  0.
        -12    1    3    3    0    0  0.17760086826E-01  0.11013072647E+02 -0.35135326976E+02  0.36820908276E+02  0.00000000000E+00 0.  1.
         11    1    4    4    0    0 -0.33814767169E+01 -0.48793161816E+01  0.22269895036E+02  0.23047566821E+02  0.51100000000E-03 0. -1.
        -11    1    4    4    0    0 -0.65141494907E+01 -0.10383910834E+02  0.15965179716E+02  0.20128256542E+02  0.51100000000E-03 0.  1.
        -12    1    4    4    0    0  0.98778661208E+01  0.42501543683E+01 -0.30997477766E+01  0.11191268361E+02  0.00000000000E+00 0.  1.
</event>
<event>
 8    1  0.2553474E-006  0.9118800E+02  0.7816164E-02  0.1184000E+00
        -11   -1    0    0    0    0  0.00000000000E+00  0.00000000000E+00  0.45593999997E+02  0.45594000000E+02  0.51100000000E-03 0.  1.
         11   -1    0    0    0    0 -0.00000000000E+00 -0.00000000000E+00 -0.45593999997E+02  0.45594000000E+02  0.51100000000E-03 0. -1.
         23    2    1    2    0    0 -0.35527136788E-14  0.00000000000E+00 -0.35527136788E-14  0.91188000000E+02  0.91188000000E+02 0.  0.
    9900012    2    3    3    0    0 -0.21739545162E+02 -0.12686077505E+01 -0.29691067824E+02  0.54367126871E+02  0.40000097327E+02 0.  0.
        -12    1    3    3    0    0  0.21739545162E+02  0.12686077505E+01  0.29691067824E+02  0.36820873129E+02  0.00000000000E+00 0.  1.
         11    1    4    4    0    0 -0.84783571561E+01 -0.22091301100E+00 -0.36081589913E+02  0.37064976373E+02  0.51100000000E-03 0. -1.
        -11    1    4    4    0    0 -0.65962723611E+00  0.87126691015E+00  0.42357842525E+01  0.43744808394E+01  0.51100000000E-03 0.  1.
         12    1    4    4    0    0 -0.12601560770E+02 -0.19189616497E+01  0.21547378367E+01  0.12927669658E+02  0.00000000000E+00 0. -1.
</event>
<event>
 8    1  0.2553474E-006  0.9118800E+02  0.7816164E-02  0.1184000E+00
        -11   -1    0    0    0    0  0.00000000000E+00  0.00000000000E+00  0.45593999997E+02  0.45594000000E+02  0.51100000000E-03 0. -1.
         11   -1    0    0    0    0 -0.00000000000E+00 -0.00000000000E+00 -0.45593999997E+02  0.45594000000E+02  0.51100000000E-03 0.  1.
         23    2    1    2    0    0  0.00000000000E+00 -0.66613381478E-15  0.35527136788E-14  0.91188000000E+02  0.91188000000E+02 0.  0.
    9900012    2    3    3    0    0 -0.23418064444E+02  0.12765954326E+01  0.28385638831E+02  0.54367082982E+02  0.39999997275E+02 0.  0.
        -12    1    3    3    0    0  0.23418064444E+02 -0.12765954326E+01 -0.28385638831E+02  0.36820917018E+02  0.00000000000E+00 0.  1.
         11    1    4    4    0    0 -0.21012564288E+02 -0.10197265640E+02  0.21102836435E+02  0.31477639530E+02  0.51100000000E-03 0. -1.
        -11    1    4    4    0    0 -0.59591586432E+01 -0.74653660787E+00 -0.28252427317E+01  0.66370841034E+01  0.51100000000E-03 0.  1.
         12    1    4    4    0    0  0.35536584878E+01  0.12220397680E+02  0.10108045128E+02  0.16252359349E+02  0.00000000000E+00 0. -1.
</event>
<event>
 8    1  0.2553474E-006  0.9118800E+02  0.7816164E-02  0.1184000E+00
        -11   -1    0    0    0    0  0.00000000000E+00  0.00000000000E+00  0.45593999997E+02  0.45594000000E+02  0.51100000000E-03 0.  1.
         11   -1    0    0    0    0 -0.00000000000E+00 -0.00000000000E+00 -0.45593999997E+02  0.45594000000E+02  0.51100000000E-03 0. -1.
         23    2    1    2    0    0  0.00000000000E+00  0.00000000000E+00  0.00000000000E+00  0.91188000000E+02  0.91188000000E+02 0.  0.
    9900012    2    3    3    0    0  0.24749809561E+02  0.21543028650E+02  0.16707030794E+02  0.54367081562E+02  0.39999994036E+02 0.  0.
         12    1    3    3    0    0 -0.24749809561E+02 -0.21543028650E+02 -0.16707030794E+02  0.36820918438E+02  0.00000000000E+00 0. -1.
         11    1    4    4    0    0 -0.92392432118E+00 -0.17219199980E+01  0.13261868407E+01  0.23616554424E+01  0.51100000000E-03 0.  1.
        -11    1    4    4    0    0 -0.85787732493E+01  0.58691467026E+00  0.25692928884E+01  0.89744685358E+01  0.51100000000E-03 0. -1.
        -12    1    4    4    0    0  0.34252507131E+02  0.22678033978E+02  0.12811551065E+02  0.43030957583E+02  0.00000000000E+00 0.  1.
</event>
<event>
 8    1  0.2553474E-006  0.9118800E+02  0.7816164E-02  0.1184000E+00
        -11   -1    0    0    0    0  0.00000000000E+00  0.00000000000E+00  0.45593999997E+02  0.45594000000E+02  0.51100000000E-03 0. -1.
         11   -1    0    0    0    0 -0.00000000000E+00 -0.00000000000E+00 -0.45593999997E+02  0.45594000000E+02  0.51100000000E-03 0.  1.
         23    2    1    2    0    0  0.00000000000E+00 -0.35527136788E-14  0.00000000000E+00  0.91188000000E+02  0.91188000000E+02 0.  0.
    9900012    2    3    3    0    0 -0.26239176555E+02 -0.20708689732E+02  0.15441358919E+02  0.54367084992E+02  0.40000001857E+02 0.  0.
        -12    1    3    3    0    0  0.26239176555E+02  0.20708689732E+02 -0.15441358919E+02  0.36820915008E+02  0.00000000000E+00 0.  1.
         11    1    4    4    0    0 -0.80533980661E+00 -0.10806938389E+02  0.57768645353E+01  0.12280498918E+02  0.51100000000E-03 0. -1.
        -11    1    4    4    0    0 -0.16474715683E+02 -0.12243267575E+02 -0.80897229908E+01  0.22062580903E+02  0.51100000000E-03 0.  1.
         12    1    4    4    0    0 -0.89591210656E+01  0.23415162324E+01  0.17754217375E+02  0.20024005172E+02  0.00000000000E+00 0. -1.
</event>
<event>
 8    1  0.2553474E-006  0.9118800E+02  0.7816164E-02  0.1184000E+00
        -11   -1    0    0    0    0  0.00000000000E+00  0.00000000000E+00  0.45593999997E+02  0.45594000000E+02  0.51100000000E-03 0.  1.
         11   -1    0    0    0    0 -0.00000000000E+00 -0.00000000000E+00 -0.45593999997E+02  0.45594000000E+02  0.51100000000E-03 0. -1.
         23    2    1    2    0    0  0.00000000000E+00  0.00000000000E+00  0.17763568394E-14  0.91188000000E+02  0.91188000000E+02 0.  0.
    9900012    2    3    3    0    0  0.35472784268E+02 -0.21513707342E+01 -0.96349736516E+01  0.54367088319E+02  0.40000009441E+02 0.  0.
         12    1    3    3    0    0 -0.35472784268E+02  0.21513707342E+01  0.96349736516E+01  0.36820911681E+02  0.00000000000E+00 0. -1.
         11    1    4    4    0    0  0.34933923169E+02 -0.10306197131E+02 -0.15296875841E+02  0.39504317461E+02  0.51100000000E-03 0. -1.
        -11    1    4    4    0    0  0.53204666386E+01  0.61671982137E+01  0.16458293191E+01  0.83096602499E+01  0.51100000000E-03 0.  1.
         12    1    4    4    0    0 -0.47816055399E+01  0.19876281833E+01  0.40160728708E+01  0.65531106077E+01  0.00000000000E+00 0. -1.
</event>
<event>
 8    1  0.2553474E-006  0.9118800E+02  0.7816164E-02  0.1184000E+00
        -11   -1    0    0    0    0  0.00000000000E+00  0.00000000000E+00  0.45593999997E+02  0.45594000000E+02  0.51100000000E-03 0. -1.
         11   -1    0    0    0    0 -0.00000000000E+00 -0.00000000000E+00 -0.45593999997E+02  0.45594000000E+02  0.51100000000E-03 0.  1.
         23    2    1    2    0    0 -0.35527136788E-14  0.35527136788E-14 -0.35527136788E-14  0.91188000000E+02  0.91188000000E+02 0.  0.
    9900012    2    3    3    0    0  0.26201337365E+02 -0.18188956023E+02  0.18396529030E+02  0.54367075496E+02  0.39999980209E+02 0.  0.
        -12    1    3    3    0    0 -0.26201337365E+02  0.18188956023E+02 -0.18396529030E+02  0.36820924504E+02  0.00000000000E+00 0.  1.
         11    1    4    4    0    0 -0.20989103303E+01 -0.11099180451E+01 -0.35849644181E+01  0.42999200902E+01  0.51100000000E-03 0. -1.
        -11    1    4    4    0    0 -0.44787647250E+01 -0.97819009005E+01  0.18576381114E+01  0.10917680079E+02  0.51100000000E-03 0.  1.
         12    1    4    4    0    0  0.32779012420E+02 -0.72971370778E+01  0.20123855337E+02  0.39149475327E+02  0.00000000000E+00 0. -1.
</event>
<event>
 8    1  0.2553474E-006  0.9118800E+02  0.7816164E-02  0.1184000E+00
        -11   -1    0    0    0    0  0.00000000000E+00  0.00000000000E+00  0.45593999997E+02  0.45594000000E+02  0.51100000000E-03 0.  1.
         11   -1    0    0    0    0 -0.00000000000E+00 -0.00000000000E+00 -0.45593999997E+02  0.45594000000E+02  0.51100000000E-03 0. -1.
         23    2    1    2    0    0 -0.17763568394E-14  0.00000000000E+00  0.00000000000E+00  0.91188000000E+02  0.91188000000E+02 0.  0.
    9900012    2    3    3    0    0  0.13915790486E+02  0.40533903971E+01  0.33848004570E+02  0.54367263832E+02  0.40000409556E+02 0.  0.
         12    1    3    3    0    0 -0.13915790486E+02 -0.40533903971E+01 -0.33848004570E+02  0.36820736168E+02  0.00000000000E+00 0. -1.
         11    1    4    4    0    0 -0.91735570502E+01 -0.10572688441E+02  0.11429504808E+02  0.18071233224E+02  0.51100000000E-03 0. -1.
        -11    1    4    4    0    0  0.94900169764E+01  0.14847824696E+01  0.67960987529E+01  0.11766561083E+02  0.51100000000E-03 0.  1.
        -12    1    4    4    0    0  0.13599330560E+02  0.13141296368E+02  0.15622401009E+02  0.24529469525E+02  0.00000000000E+00 0.  1.
</event>
<event>
 8    1  0.2553474E-006  0.9118800E+02  0.7816164E-02  0.1184000E+00
        -11   -1    0    0    0    0  0.00000000000E+00  0.00000000000E+00  0.45593999997E+02  0.45594000000E+02  0.51100000000E-03 0.  1.
         11   -1    0    0    0    0 -0.00000000000E+00 -0.00000000000E+00 -0.45593999997E+02  0.45594000000E+02  0.51100000000E-03 0. -1.
         23    2    1    2    0    0  0.88817841970E-15  0.00000000000E+00  0.00000000000E+00  0.91188000000E+02  0.91188000000E+02 0.  0.
    9900012    2    3    3    0    0  0.46793080086E+01 -0.14044299333E+02  0.33714109732E+02  0.54367089335E+02  0.40000011758E+02 0.  0.
         12    1    3    3    0    0 -0.46793080086E+01  0.14044299333E+02 -0.33714109732E+02  0.36820910665E+02  0.00000000000E+00 0. -1.
         11    1    4    4    0    0 -0.13128257662E+02  0.40825027615E+00  0.21379615153E+02  0.25091946156E+02  0.51100000000E-03 0. -1.
        -11    1    4    4    0    0  0.32286906805E+01 -0.85497401268E+00  0.82840185003E+01  0.89319867245E+01  0.51100000000E-03 0.  1.
         12    1    4    4    0    0  0.14578874990E+02 -0.13597575596E+02  0.40504760779E+01  0.20343156455E+02  0.00000000000E+00 0. -1.
</event>
<event>
 8    1  0.2553474E-006  0.9118800E+02  0.7816164E-02  0.1184000E+00
        -11   -1    0    0    0    0  0.00000000000E+00  0.00000000000E+00  0.45593999997E+02  0.45594000000E+02  0.51100000000E-03 0. -1.
         11   -1    0    0    0    0 -0.00000000000E+00 -0.00000000000E+00 -0.45593999997E+02  0.45594000000E+02  0.51100000000E-03 0.  1.
         23    2    1    2    0    0  0.35527136788E-14  0.00000000000E+00 -0.35527136788E-14  0.91188000000E+02  0.91188000000E+02 0.  0.
    9900012    2    3    3    0    0  0.23099452697E+02  0.83817096503E+01 -0.27421532083E+02  0.54367106565E+02  0.40000051037E+02 0.  0.
         12    1    3    3    0    0 -0.23099452697E+02 -0.83817096503E+01  0.27421532083E+02  0.36820893435E+02  0.00000000000E+00 0. -1.
         11    1    4    4    0    0  0.11943337779E+02 -0.48213921798E+01 -0.44422380254E+01  0.13624339206E+02  0.51100000000E-03 0. -1.
        -11    1    4    4    0    0 -0.21201080724E+01  0.16141817274E+02 -0.21638701331E+02  0.27079263629E+02  0.51100000000E-03 0.  1.
        -12    1    4    4    0    0  0.13276222990E+02 -0.29387154435E+01 -0.13405927264E+01  0.13663503731E+02  0.00000000000E+00 0.  1.
</event>
<event>
 8    1  0.2553474E-006  0.9118800E+02  0.7816164E-02  0.1184000E+00
        -11   -1    0    0    0    0  0.00000000000E+00  0.00000000000E+00  0.45593999997E+02  0.45594000000E+02  0.51100000000E-03 0. -1.
         11   -1    0    0    0    0 -0.00000000000E+00 -0.00000000000E+00 -0.45593999997E+02  0.45594000000E+02  0.51100000000E-03 0.  1.
         23    2    1    2    0    0 -0.71054273576E-14  0.88817841970E-15  0.00000000000E+00  0.91188000000E+02  0.91188000000E+02 0.  0.
    9900012    2    3    3    0    0 -0.35462575923E+02  0.27068809039E+01  0.95318839605E+01  0.54367105020E+02  0.40000047514E+02 0.  0.
         12    1    3    3    0    0  0.35462575923E+02 -0.27068809039E+01 -0.95318839605E+01  0.36820894980E+02  0.00000000000E+00 0. -1.
         11    1    4    4    0    0 -0.18810833411E+02 -0.35954837280E+01  0.11334438463E+02  0.22254088442E+02  0.51100000000E-03 0. -1.
        -11    1    4    4    0    0  0.31495468903E+01  0.10619415321E+02  0.25914377373E+01  0.11375727545E+02  0.51100000000E-03 0.  1.
        -12    1    4    4    0    0 -0.19801289402E+02 -0.43170506887E+01 -0.43939922398E+01  0.20737289033E+02  0.00000000000E+00 0.  1.
</event>
<event>
 8    1  0.2553474E-006  0.9118800E+02  0.7816164E-02  0.1184000E+00
        -11   -1    0    0    0    0  0.00000000000E+00  0.00000000000E+00  0.45593999997E+02  0.45594000000E+02  0.51100000000E-03 0.  1.
         11   -1    0    0    0    0 -0.00000000000E+00 -0.00000000000E+00 -0.45593999997E+02  0.45594000000E+02  0.51100000000E-03 0. -1.
         23    2    1    2    0    0  0.00000000000E+00  0.11102230246E-15  0.00000000000E+00  0.91188000000E+02  0.91188000000E+02 0.  0.
    9900012    2    3    3    0    0 -0.79561690978E+01 -0.60859210098E+00 -0.35945924604E+02  0.54367075152E+02  0.39999979424E+02 0.  0.
        -12    1    3    3    0    0  0.79561690978E+01  0.60859210098E+00  0.35945924604E+02  0.36820924848E+02  0.00000000000E+00 0.  1.
         11    1    4    4    0    0 -0.47634878309E+01  0.65315261707E+01 -0.10506816377E+02  0.13256879010E+02  0.51100000000E-03 0. -1.
        -11    1    4    4    0    0  0.56329234893E+01  0.87166434328E+01 -0.66378658042E+00  0.10399534252E+02  0.51100000000E-03 0.  1.
         12    1    4    4    0    0 -0.88256047561E+01 -0.15856761704E+02 -0.24775321646E+02  0.30710661890E+02  0.00000000000E+00 0. -1.
</event>
<event>
 8    1  0.2553474E-006  0.9118800E+02  0.7816164E-02  0.1184000E+00
        -11   -1    0    0    0    0  0.00000000000E+00  0.00000000000E+00  0.45593999997E+02  0.45594000000E+02  0.51100000000E-03 0. -1.
         11   -1    0    0    0    0 -0.00000000000E+00 -0.00000000000E+00 -0.45593999997E+02  0.45594000000E+02  0.51100000000E-03 0.  1.
         23    2    1    2    0    0  0.00000000000E+00  0.00000000000E+00  0.17763568394E-14  0.91188000000E+02  0.91188000000E+02 0.  0.
    9900012    2    3    3    0    0  0.14082684459E+02 -0.33011934796E+02  0.82260963706E+01  0.54367102373E+02  0.40000041479E+02 0.  0.
        -12    1    3    3    0    0 -0.14082684459E+02  0.33011934796E+02 -0.82260963706E+01  0.36820897627E+02  0.00000000000E+00 0.  1.
         11    1    4    4    0    0  0.62471832727E+01  0.10522885889E+01 -0.11626563308E+02  0.13240528114E+02  0.51100000000E-03 0. -1.
        -11    1    4    4    0    0 -0.16658611182E+01 -0.80960261330E+01  0.58898303060E+01  0.10149425289E+02  0.51100000000E-03 0.  1.
         12    1    4    4    0    0  0.95013623042E+01 -0.25968197252E+02  0.13962829373E+02  0.30977148969E+02  0.00000000000E+00 0. -1.
</event>
<event>
 8    1  0.2553474E-006  0.9118800E+02  0.7816164E-02  0.1184000E+00
        -11   -1    0    0    0    0  0.00000000000E+00  0.00000000000E+00  0.45593999997E+02  0.45594000000E+02  0.51100000000E-03 0.  1.
         11   -1    0    0    0    0 -0.00000000000E+00 -0.00000000000E+00 -0.45593999997E+02  0.45594000000E+02  0.51100000000E-03 0. -1.
         23    2    1    2    0    0  0.35527136788E-14 -0.35527136788E-14  0.00000000000E+00  0.91188000000E+02  0.91188000000E+02 0.  0.
    9900012    2    3    3    0    0 -0.31710039809E+02  0.17326555976E+02  0.70740911241E+01  0.54367096536E+02  0.40000028174E+02 0.  0.
         12    1    3    3    0    0  0.31710039809E+02 -0.17326555976E+02 -0.70740911241E+01  0.36820903464E+02  0.00000000000E+00 0. -1.
         11    1    4    4    0    0 -0.16821728884E+02  0.19743535605E+02 -0.16502376066E+01  0.25990402945E+02  0.51100000000E-03 0. -1.
        -11    1    4    4    0    0 -0.12453667033E+02  0.55441304713E+00  0.15919912764E+02  0.20219911450E+02  0.51100000000E-03 0.  1.
         12    1    4    4    0    0 -0.24346438917E+01 -0.29713926762E+01 -0.71955840331E+01  0.81567821408E+01  0.00000000000E+00 0. -1.
</event>
<event>
 8    1  0.2553474E-006  0.9118800E+02  0.7816164E-02  0.1184000E+00
        -11   -1    0    0    0    0  0.00000000000E+00  0.00000000000E+00  0.45593999997E+02  0.45594000000E+02  0.51100000000E-03 0. -1.
         11   -1    0    0    0    0 -0.00000000000E+00 -0.00000000000E+00 -0.45593999997E+02  0.45594000000E+02  0.51100000000E-03 0.  1.
         23    2    1    2    0    0 -0.71054273576E-14  0.00000000000E+00 -0.17763568394E-14  0.91188000000E+02  0.91188000000E+02 0.  0.
    9900012    2    3    3    0    0  0.28741549709E+02  0.22574521557E+02  0.44826694066E+01  0.54367081649E+02  0.39999994236E+02 0.  0.
         12    1    3    3    0    0 -0.28741549709E+02 -0.22574521557E+02 -0.44826694066E+01  0.36820918351E+02  0.00000000000E+00 0. -1.
         11    1    4    4    0    0  0.87927869132E+01  0.15453725575E+02  0.61055765797E+01  0.18799170233E+02  0.51100000000E-03 0. -1.
        -11    1    4    4    0    0  0.30466585372E+01  0.67657106713E+01  0.11828765680E+02  0.13963404560E+02  0.51100000000E-03 0.  1.
         12    1    4    4    0    0  0.16902104258E+02  0.35508531075E+00 -0.13451672853E+02  0.21604506856E+02  0.00000000000E+00 0. -1.
</event>
<event>
 8    1  0.2553474E-006  0.9118800E+02  0.7816164E-02  0.1184000E+00
        -11   -1    0    0    0    0  0.00000000000E+00  0.00000000000E+00  0.45593999997E+02  0.45594000000E+02  0.51100000000E-03 0. -1.
         11   -1    0    0    0    0 -0.00000000000E+00 -0.00000000000E+00 -0.45593999997E+02  0.45594000000E+02  0.51100000000E-03 0.  1.
         23    2    1    2    0    0  0.35527136788E-14  0.00000000000E+00  0.00000000000E+00  0.91188000000E+02  0.91188000000E+02 0.  0.
    9900012    2    3    3    0    0 -0.18509074746E+02  0.24231454449E+02  0.20640448421E+02  0.54367118103E+02  0.40000077339E+02 0.  0.
        -12    1    3    3    0    0  0.18509074746E+02 -0.24231454449E+02 -0.20640448421E+02  0.36820881897E+02  0.00000000000E+00 0.  1.
         11    1    4    4    0    0 -0.38521897793E+01  0.10977048518E+02  0.28977508706E+01  0.11988824823E+02  0.51100000000E-03 0. -1.
        -11    1    4    4    0    0 -0.14029581661E+02  0.14580384551E+01 -0.64085951944E+01  0.15492744442E+02  0.51100000000E-03 0.  1.
        -12    1    4    4    0    0 -0.62730330561E+00  0.11796367476E+02  0.24151292745E+02  0.26885548838E+02  0.00000000000E+00 0.  1.
</event>
<event>
 8    1  0.2553474E-006  0.9118800E+02  0.7816164E-02  0.1184000E+00
        -11   -1    0    0    0    0  0.00000000000E+00  0.00000000000E+00  0.45593999997E+02  0.45594000000E+02  0.51100000000E-03 0.  1.
         11   -1    0    0    0    0 -0.00000000000E+00 -0.00000000000E+00 -0.45593999997E+02  0.45594000000E+02  0.51100000000E-03 0. -1.
         23    2    1    2    0    0 -0.88817841970E-15  0.35527136788E-14  0.00000000000E+00  0.91188000000E+02  0.91188000000E+02 0.  0.
    9900012    2    3    3    0    0 -0.69854495432E+01 -0.27638785448E+02 -0.23304085607E+02  0.54367090555E+02  0.40000014539E+02 0.  0.
        -12    1    3    3    0    0  0.69854495432E+01  0.27638785448E+02  0.23304085607E+02  0.36820909445E+02  0.00000000000E+00 0.  1.
         11    1    4    4    0    0 -0.83079218600E+01 -0.22060584350E+01 -0.15019891245E+00  0.85971401888E+01  0.51100000000E-03 0. -1.
        -11    1    4    4    0    0  0.88512622344E+01 -0.15061719566E+02  0.19555554440E+01  0.17579090897E+02  0.51100000000E-03 0.  1.
        -12    1    4    4    0    0 -0.75287899176E+01 -0.10371007447E+02 -0.25109442138E+02  0.28190859469E+02  0.00000000000E+00 0.  1.
</event>
<event>
 8    1  0.2553474E-006  0.9118800E+02  0.7816164E-02  0.1184000E+00
        -11   -1    0    0    0    0  0.00000000000E+00  0.00000000000E+00  0.45593999997E+02  0.45594000000E+02  0.51100000000E-03 0.  1.
         11   -1    0    0    0    0 -0.00000000000E+00 -0.00000000000E+00 -0.45593999997E+02  0.45594000000E+02  0.51100000000E-03 0. -1.
         23    2    1    2    0    0  0.00000000000E+00  0.44408920985E-15 -0.27755575616E-15  0.91188000000E+02  0.91188000000E+02 0.  0.
    9900012    2    3    3    0    0 -0.36736568267E+02 -0.24835898327E+01 -0.18470765558E+00  0.54367112132E+02  0.40000063726E+02 0.  0.
         12    1    3    3    0    0  0.36736568267E+02  0.24835898327E+01  0.18470765558E+00  0.36820887868E+02  0.00000000000E+00 0. -1.
         11    1    4    4    0    0 -0.88604522974E+01 -0.13677435356E+02  0.67986737652E+01  0.17657910920E+02  0.51100000000E-03 0. -1.
        -11    1    4    4    0    0 -0.25829037433E+02  0.78983142429E+01  0.18382698229E+01  0.27072158739E+02  0.51100000000E-03 0.  1.
         12    1    4    4    0    0 -0.20470785368E+01  0.32955312801E+01 -0.88216512437E+01  0.96370424726E+01  0.00000000000E+00 0. -1.
</event>
<event>
 8    1  0.2553474E-006  0.9118800E+02  0.7816164E-02  0.1184000E+00
        -11   -1    0    0    0    0  0.00000000000E+00  0.00000000000E+00  0.45593999997E+02  0.45594000000E+02  0.51100000000E-03 0.  1.
         11   -1    0    0    0    0 -0.00000000000E+00 -0.00000000000E+00 -0.45593999997E+02  0.45594000000E+02  0.51100000000E-03 0. -1.
         23    2    1    2    0    0 -0.35527136788E-14  0.00000000000E+00  0.35527136788E-14  0.91188000000E+02  0.91188000000E+02 0.  0.
    9900012    2    3    3    0    0 -0.10547077118E+02 -0.18752359105E+02  0.29881235057E+02  0.54367081811E+02  0.39999994605E+02 0.  0.
         12    1    3    3    0    0  0.10547077118E+02  0.18752359105E+02 -0.29881235057E+02  0.36820918189E+02  0.00000000000E+00 0. -1.
         11    1    4    4    0    0  0.51666923178E+01 -0.45468031957E+01 -0.73970508569E+01  0.10103686973E+02  0.51100000000E-03 0. -1.
        -11    1    4    4    0    0 -0.84025542388E+01 -0.10782271122E+02  0.31492279543E+02  0.34331093186E+02  0.51100000000E-03 0.  1.
         12    1    4    4    0    0 -0.73112151966E+01 -0.34232847874E+01  0.57860063707E+01  0.99323016521E+01  0.00000000000E+00 0. -1.
</event>
<event>
 8    1  0.2553474E-006  0.9118800E+02  0.7816164E-02  0.1184000E+00
        -11   -1    0    0    0    0  0.00000000000E+00  0.00000000000E+00  0.45593999997E+02  0.45594000000E+02  0.51100000000E-03 0. -1.
         11   -1    0    0    0    0 -0.00000000000E+00 -0.00000000000E+00 -0.45593999997E+02  0.45594000000E+02  0.51100000000E-03 0.  1.
         23    2    1    2    0    0  0.00000000000E+00  0.00000000000E+00 -0.71054273576E-14  0.91188000000E+02  0.91188000000E+02 0.  0.
    9900012    2    3    3    0    0 -0.82304985444E+01 -0.95058142544E+01  0.34607621518E+02  0.54366958759E+02  0.39999714082E+02 0.  0.
        -12    1    3    3    0    0  0.82304985444E+01  0.95058142544E+01 -0.34607621518E+02  0.36821041241E+02  0.00000000000E+00 0.  1.
         11    1    4    4    0    0 -0.12978507510E+02 -0.36632777613E+01  0.33625543991E+02  0.36228972799E+02  0.51100000000E-03 0. -1.
        -11    1    4    4    0    0 -0.12716061154E+01  0.32515224670E+01 -0.46887847213E+01  0.58458603208E+01  0.51100000000E-03 0.  1.
        -12    1    4    4    0    0  0.60196150808E+01 -0.90940589601E+01  0.56708622485E+01  0.12292125639E+02  0.00000000000E+00 0.  1.
</event>
<event>
 8    1  0.2937963E-006  0.9118800E+02  0.7816164E-02  0.1184000E+00
        -11   -1    0    0    0    0  0.00000000000E+00  0.00000000000E+00  0.45593999997E+02  0.45594000000E+02  0.51100000000E-03 0.  1.
         11   -1    0    0    0    0 -0.00000000000E+00 -0.00000000000E+00 -0.45593999997E+02  0.45594000000E+02  0.51100000000E-03 0. -1.
         23    2    1    2    0    0  0.35527136788E-14  0.00000000000E+00 -0.35527136788E-14  0.91188000000E+02  0.91188000000E+02 0.  0.
    9900012    2    3    3    0    0 -0.27316852008E+02  0.46867124319E+01  0.24240543209E+02  0.54367087300E+02  0.40000007117E+02 0.  0.
         12    1    3    3    0    0  0.27316852008E+02 -0.46867124319E+01 -0.24240543209E+02  0.36820912700E+02  0.00000000000E+00 0. -1.
         11    1    4    4    0    0 -0.12053782187E+02  0.10020362471E+02  0.15188246418E+02  0.21826226393E+02  0.51100000000E-03 0. -1.
        -11    1    4    4    0    0 -0.17734781830E+02 -0.18815133338E+01  0.16287078714E+02  0.24152256877E+02  0.51100000000E-03 0.  1.
         12    1    4    4    0    0  0.24717120088E+01 -0.34521367049E+01 -0.72347819230E+01  0.83886040291E+01  0.00000000000E+00 0. -1.
</event>
<event>
 8    1  0.2553474E-006  0.9118800E+02  0.7816164E-02  0.1184000E+00
        -11   -1    0    0    0    0  0.00000000000E+00  0.00000000000E+00  0.45593999997E+02  0.45594000000E+02  0.51100000000E-03 0.  1.
         11   -1    0    0    0    0 -0.00000000000E+00 -0.00000000000E+00 -0.45593999997E+02  0.45594000000E+02  0.51100000000E-03 0. -1.
         23    2    1    2    0    0  0.00000000000E+00  0.00000000000E+00  0.00000000000E+00  0.91188000000E+02  0.91188000000E+02 0.  0.
    9900012    2    3    3    0    0 -0.80080358457E+01  0.10371762002E+02 -0.34410435230E+02  0.54367080160E+02  0.39999990841E+02 0.  0.
        -12    1    3    3    0    0  0.80080358457E+01 -0.10371762002E+02  0.34410435230E+02  0.36820919840E+02  0.00000000000E+00 0.  1.
         11    1    4    4    0    0 -0.12266997762E+02 -0.55914737487E+01 -0.33515186737E+01  0.13891597837E+02  0.51100000000E-03 0. -1.
        -11    1    4    4    0    0 -0.49478670730E+01  0.99077836436E+01 -0.26176123380E+02  0.28422438333E+02  0.51100000000E-03 0.  1.
        -12    1    4    4    0    0  0.92068289891E+01  0.60554521069E+01 -0.48827931762E+01  0.12053043991E+02  0.00000000000E+00 0.  1.
</event>
<event>
 8    1  0.2553474E-006  0.9118800E+02  0.7816164E-02  0.1184000E+00
        -11   -1    0    0    0    0  0.00000000000E+00  0.00000000000E+00  0.45593999997E+02  0.45594000000E+02  0.51100000000E-03 0. -1.
         11   -1    0    0    0    0 -0.00000000000E+00 -0.00000000000E+00 -0.45593999997E+02  0.45594000000E+02  0.51100000000E-03 0.  1.
         23    2    1    2    0    0 -0.17763568394E-14  0.00000000000E+00 -0.35527136788E-14  0.91188000000E+02  0.91188000000E+02 0.  0.
    9900012    2    3    3    0    0 -0.13597685215E+02  0.18081861372E+02 -0.29050461224E+02  0.54367081336E+02  0.39999993522E+02 0.  0.
         12    1    3    3    0    0  0.13597685215E+02 -0.18081861372E+02  0.29050461224E+02  0.36820918664E+02  0.00000000000E+00 0. -1.
         11    1    4    4    0    0 -0.79867241541E+01 -0.38958393011E+01 -0.57745895936E+01  0.10597698420E+02  0.51100000000E-03 0. -1.
        -11    1    4    4    0    0  0.46998885955E+01  0.15293484497E+02 -0.26598988167E+02  0.31040067536E+02  0.51100000000E-03 0.  1.
         12    1    4    4    0    0 -0.10310849656E+02  0.66842161769E+01  0.33231165365E+01  0.12729315380E+02  0.00000000000E+00 0. -1.
</event>
<event>
 8    1  0.2553474E-006  0.9118800E+02  0.7816164E-02  0.1184000E+00
        -11   -1    0    0    0    0  0.00000000000E+00  0.00000000000E+00  0.45593999997E+02  0.45594000000E+02  0.51100000000E-03 0.  1.
         11   -1    0    0    0    0 -0.00000000000E+00 -0.00000000000E+00 -0.45593999997E+02  0.45594000000E+02  0.51100000000E-03 0. -1.
         23    2    1    2    0    0  0.35527136788E-14  0.35527136788E-14  0.88817841970E-15  0.91188000000E+02  0.91188000000E+02 0.  0.
    9900012    2    3    3    0    0  0.28817156041E+02  0.22522235288E+02  0.42544378341E+01  0.54367084667E+02  0.40000001116E+02 0.  0.
        -12    1    3    3    0    0 -0.28817156041E+02 -0.22522235288E+02 -0.42544378341E+01  0.36820915333E+02  0.00000000000E+00 0.  1.
         11    1    4    4    0    0 -0.96753654227E+00 -0.64260167086E+01  0.69200484802E+01  0.94929915690E+01  0.51100000000E-03 0.  1.
        -11    1    4    4    0    0  0.17176397379E+02  0.90233996350E+01 -0.75056188094E+01  0.20803477639E+02  0.51100000000E-03 0. -1.
        -12    1    4    4    0    0  0.12608295204E+02  0.19924852361E+02  0.48400081633E+01  0.24070615460E+02  0.00000000000E+00 0.  1.
</event>
<event>
 8    1  0.2553474E-006  0.9118800E+02  0.7816164E-02  0.1184000E+00
        -11   -1    0    0    0    0  0.00000000000E+00  0.00000000000E+00  0.45593999997E+02  0.45594000000E+02  0.51100000000E-03 0. -1.
         11   -1    0    0    0    0 -0.00000000000E+00 -0.00000000000E+00 -0.45593999997E+02  0.45594000000E+02  0.51100000000E-03 0.  1.
         23    2    1    2    0    0  0.17763568394E-14  0.17763568394E-14  0.00000000000E+00  0.91188000000E+02  0.91188000000E+02 0.  0.
    9900012    2    3    3    0    0  0.11990016731E+02 -0.11485611541E+02 -0.32864883775E+02  0.54367077154E+02  0.39999983988E+02 0.  0.
         12    1    3    3    0    0 -0.11990016731E+02  0.11485611541E+02  0.32864883775E+02  0.36820922846E+02  0.00000000000E+00 0. -1.
         11    1    4    4    0    0 -0.48084636426E+01  0.15338903409E+01 -0.15445047449E+02  0.16248804053E+02  0.51100000000E-03 0. -1.
        -11    1    4    4    0    0  0.75077401586E+01 -0.19980540189E+02 -0.68463199744E+01  0.22415625041E+02  0.51100000000E-03 0.  1.
        -12    1    4    4    0    0  0.92907402152E+01  0.69610383072E+01 -0.10573516352E+02  0.15702648060E+02  0.00000000000E+00 0.  1.
</event>
<event>
 8    1  0.2553474E-006  0.9118800E+02  0.7816164E-02  0.1184000E+00
        -11   -1    0    0    0    0  0.00000000000E+00  0.00000000000E+00  0.45593999997E+02  0.45594000000E+02  0.51100000000E-03 0.  1.
         11   -1    0    0    0    0 -0.00000000000E+00 -0.00000000000E+00 -0.45593999997E+02  0.45594000000E+02  0.51100000000E-03 0. -1.
         23    2    1    2    0    0  0.00000000000E+00  0.00000000000E+00  0.17763568394E-14  0.91188000000E+02  0.91188000000E+02 0.  0.
    9900012    2    3    3    0    0 -0.59918732021E+01  0.36030967748E+02 -0.46524511594E+01  0.54367102631E+02  0.40000042067E+02 0.  0.
         12    1    3    3    0    0  0.59918732021E+01 -0.36030967748E+02  0.46524511594E+01  0.36820897369E+02  0.00000000000E+00 0. -1.
         11    1    4    4    0    0 -0.31652572198E+01 -0.49017218152E-01  0.10320817082E+01  0.33296319419E+01  0.51100000000E-03 0. -1.
        -11    1    4    4    0    0 -0.59466903472E+01  0.22847194165E+02  0.13749094216E+02  0.27320230587E+02  0.51100000000E-03 0.  1.
        -12    1    4    4    0    0  0.31200743649E+01  0.13232790801E+02 -0.19433627084E+02  0.23717240102E+02  0.00000000000E+00 0.  1.
</event>
<event>
 8    1  0.2553474E-006  0.9118800E+02  0.7816164E-02  0.1184000E+00
        -11   -1    0    0    0    0  0.00000000000E+00  0.00000000000E+00  0.45593999997E+02  0.45594000000E+02  0.51100000000E-03 0. -1.
         11   -1    0    0    0    0 -0.00000000000E+00 -0.00000000000E+00 -0.45593999997E+02  0.45594000000E+02  0.51100000000E-03 0.  1.
         23    2    1    2    0    0  0.00000000000E+00  0.00000000000E+00  0.00000000000E+00  0.91188000000E+02  0.91188000000E+02 0.  0.
    9900012    2    3    3    0    0 -0.28348496169E+02 -0.17794302916E+02  0.15346129591E+02  0.54367107225E+02  0.40000052540E+02 0.  0.
        -12    1    3    3    0    0  0.28348496169E+02  0.17794302916E+02 -0.15346129591E+02  0.36820892775E+02  0.00000000000E+00 0.  1.
         11    1    4    4    0    0 -0.27414062662E+01 -0.12271818466E+02  0.57351197254E+01  0.13820435424E+02  0.51100000000E-03 0. -1.
        -11    1    4    4    0    0 -0.26678300127E+01 -0.10133357160E+02 -0.63227744809E+01  0.12238452586E+02  0.51100000000E-03 0.  1.
         12    1    4    4    0    0 -0.22939259890E+02  0.46108727104E+01  0.15933784347E+02  0.28308219214E+02  0.00000000000E+00 0. -1.
</event>
<event>
 8    1  0.2553474E-006  0.9118800E+02  0.7816164E-02  0.1184000E+00
        -11   -1    0    0    0    0  0.00000000000E+00  0.00000000000E+00  0.45593999997E+02  0.45594000000E+02  0.51100000000E-03 0. -1.
         11   -1    0    0    0    0 -0.00000000000E+00 -0.00000000000E+00 -0.45593999997E+02  0.45594000000E+02  0.51100000000E-03 0.  1.
         23    2    1    2    0    0 -0.35527136788E-14  0.00000000000E+00  0.35527136788E-14  0.91188000000E+02  0.91188000000E+02 0.  0.
    9900012    2    3    3    0    0  0.17435190888E+02 -0.20899924147E+02 -0.24798942371E+02  0.54367078591E+02  0.39999987265E+02 0.  0.
         12    1    3    3    0    0 -0.17435190888E+02  0.20899924147E+02  0.24798942371E+02  0.36820921409E+02  0.00000000000E+00 0. -1.
         11    1    4    4    0    0  0.10698127622E+02 -0.64525060345E+00  0.55169451699E+01  0.12054168044E+02  0.51100000000E-03 0. -1.
        -11    1    4    4    0    0  0.16480233409E+01 -0.13060263840E+02 -0.28511932820E+01  0.13469067373E+02  0.51100000000E-03 0.  1.
        -12    1    4    4    0    0  0.50890399246E+01 -0.71944097035E+01 -0.27464694259E+02  0.28843843175E+02  0.00000000000E+00 0.  1.
</event>
<event>
 8    1  0.2553474E-006  0.9118800E+02  0.7816164E-02  0.1184000E+00
        -11   -1    0    0    0    0  0.00000000000E+00  0.00000000000E+00  0.45593999997E+02  0.45594000000E+02  0.51100000000E-03 0.  1.
         11   -1    0    0    0    0 -0.00000000000E+00 -0.00000000000E+00 -0.45593999997E+02  0.45594000000E+02  0.51100000000E-03 0. -1.
         23    2    1    2    0    0  0.00000000000E+00 -0.35527136788E-14 -0.17763568394E-14  0.91188000000E+02  0.91188000000E+02 0.  0.
    9900012    2    3    3    0    0  0.27091812599E+02  0.23280814042E+02 -0.89338427810E+01  0.54367134188E+02  0.40000114008E+02 0.  0.
        -12    1    3    3    0    0 -0.27091812599E+02 -0.23280814042E+02  0.89338427810E+01  0.36820865812E+02  0.00000000000E+00 0.  1.
         11    1    4    4    0    0  0.17259913695E+02  0.13808578377E+02 -0.21869573857E+02  0.31094367955E+02  0.51100000000E-03 0. -1.
        -11    1    4    4    0    0  0.77499638016E+01  0.25922588613E+01  0.13794667750E+02  0.16033546193E+02  0.51100000000E-03 0.  1.
        -12    1    4    4    0    0  0.20819351018E+01  0.68799768032E+01 -0.85893667365E+00  0.72392200402E+01  0.00000000000E+00 0.  1.
</event>
<event>
 8    1  0.2553474E-006  0.9118800E+02  0.7816164E-02  0.1184000E+00
        -11   -1    0    0    0    0  0.00000000000E+00  0.00000000000E+00  0.45593999997E+02  0.45594000000E+02  0.51100000000E-03 0.  1.
         11   -1    0    0    0    0 -0.00000000000E+00 -0.00000000000E+00 -0.45593999997E+02  0.45594000000E+02  0.51100000000E-03 0. -1.
         23    2    1    2    0    0  0.33306690739E-15  0.00000000000E+00  0.35527136788E-14  0.91188000000E+02  0.91188000000E+02 0.  0.
    9900012    2    3    3    0    0 -0.53471866331E+00  0.19438668891E+02 -0.31267121253E+02  0.54367073290E+02  0.39999975180E+02 0.  0.
        -12    1    3    3    0    0  0.53471866331E+00 -0.19438668891E+02  0.31267121253E+02  0.36820926710E+02  0.00000000000E+00 0.  1.
         11    1    4    4    0    0  0.74963789621E+00 -0.38473713782E+01  0.65357027306E+01  0.76209995369E+01  0.51100000000E-03 0. -1.
        -11    1    4    4    0    0 -0.53149492019E+01  0.78780884636E+01 -0.23465709904E+02  0.25317039804E+02  0.51100000000E-03 0.  1.
         12    1    4    4    0    0  0.40305926424E+01  0.15407951806E+02 -0.14337114079E+02  0.21429033950E+02  0.00000000000E+00 0. -1.
</event>
<event>
 8    1  0.2553474E-006  0.9118800E+02  0.7816164E-02  0.1184000E+00
        -11   -1    0    0    0    0  0.00000000000E+00  0.00000000000E+00  0.45593999997E+02  0.45594000000E+02  0.51100000000E-03 0.  1.
         11   -1    0    0    0    0 -0.00000000000E+00 -0.00000000000E+00 -0.45593999997E+02  0.45594000000E+02  0.51100000000E-03 0. -1.
         23    2    1    2    0    0  0.17763568394E-14 -0.71054273576E-14  0.35527136788E-14  0.91188000000E+02  0.91188000000E+02 0.  0.
    9900012    2    3    3    0    0 -0.12272399730E+02  0.31169983589E+02 -0.15284009114E+02  0.54367073794E+02  0.39999976329E+02 0.  0.
        -12    1    3    3    0    0  0.12272399730E+02 -0.31169983589E+02  0.15284009114E+02  0.36820926206E+02  0.00000000000E+00 0.  1.
         11    1    4    4    0    0  0.91993610091E+01  0.17773046187E+02 -0.15001463413E+02  0.25011063922E+02  0.51100000000E-03 0.  1.
        -11    1    4    4    0    0 -0.33647790075E+01  0.97785159745E+01  0.26108043306E+01  0.10665711976E+02  0.51100000000E-03 0. -1.
        -12    1    4    4    0    0 -0.18106981731E+02  0.36184214273E+01 -0.28933500316E+01  0.18690297896E+02  0.00000000000E+00 0.  1.
</event>
<event>
 8    1  0.2553474E-006  0.9118800E+02  0.7816164E-02  0.1184000E+00
        -11   -1    0    0    0    0  0.00000000000E+00  0.00000000000E+00  0.45593999997E+02  0.45594000000E+02  0.51100000000E-03 0.  1.
         11   -1    0    0    0    0 -0.00000000000E+00 -0.00000000000E+00 -0.45593999997E+02  0.45594000000E+02  0.51100000000E-03 0. -1.
         23    2    1    2    0    0  0.00000000000E+00 -0.66613381478E-15  0.16653345369E-15  0.91188000000E+02  0.91188000000E+02 0.  0.
    9900012    2    3    3    0    0 -0.36779202687E+02 -0.16856504703E+01 -0.47822055487E+00  0.54367083897E+02  0.39999999360E+02 0.  0.
        -12    1    3    3    0    0  0.36779202687E+02  0.16856504703E+01  0.47822055487E+00  0.36820916103E+02  0.00000000000E+00 0.  1.
         11    1    4    4    0    0 -0.14863030563E+02  0.57674177321E+01 -0.80371122957E+01  0.17854074021E+02  0.51100000000E-03 0. -1.
        -11    1    4    4    0    0 -0.26042723538E+02 -0.12658400728E+02  0.49486347067E+01  0.29375968818E+02  0.51100000000E-03 0.  1.
        -12    1    4    4    0    0  0.41265514148E+01  0.52053325258E+01  0.26102570342E+01  0.71370410582E+01  0.00000000000E+00 0.  1.
</event>
<event>
 8    1  0.2553474E-006  0.9118800E+02  0.7816164E-02  0.1184000E+00
        -11   -1    0    0    0    0  0.00000000000E+00  0.00000000000E+00  0.45593999997E+02  0.45594000000E+02  0.51100000000E-03 0.  1.
         11   -1    0    0    0    0 -0.00000000000E+00 -0.00000000000E+00 -0.45593999997E+02  0.45594000000E+02  0.51100000000E-03 0. -1.
         23    2    1    2    0    0  0.00000000000E+00  0.17763568394E-14  0.71054273576E-14  0.91188000000E+02  0.91188000000E+02 0.  0.
    9900012    2    3    3    0    0  0.10941505340E+02  0.58075339811E+01 -0.34674700887E+02  0.54367097354E+02  0.40000030038E+02 0.  0.
        -12    1    3    3    0    0 -0.10941505340E+02 -0.58075339811E+01  0.34674700887E+02  0.36820902646E+02  0.00000000000E+00 0.  1.
         11    1    4    4    0    0  0.45677593966E+01 -0.11659918340E+02 -0.65489460393E+01  0.14131766205E+02  0.51100000000E-03 0. -1.
        -11    1    4    4    0    0 -0.39502261394E+01  0.93964806622E+01 -0.11660836031E+01  0.10259526627E+02  0.51100000000E-03 0.  1.
         12    1    4    4    0    0  0.10323972083E+02  0.80709716585E+01 -0.26959671245E+02  0.29975804521E+02  0.00000000000E+00 0. -1.
</event>
<event>
 8    1  0.2553474E-006  0.9118800E+02  0.7816164E-02  0.1184000E+00
        -11   -1    0    0    0    0  0.00000000000E+00  0.00000000000E+00  0.45593999997E+02  0.45594000000E+02  0.51100000000E-03 0.  1.
         11   -1    0    0    0    0 -0.00000000000E+00 -0.00000000000E+00 -0.45593999997E+02  0.45594000000E+02  0.51100000000E-03 0. -1.
         23    2    1    2    0    0  0.00000000000E+00  0.88817841970E-15 -0.35527136788E-14  0.91188000000E+02  0.91188000000E+02 0.  0.
    9900012    2    3    3    0    0  0.30408635433E+02 -0.63474611942E+01  0.19768770338E+02  0.54367086742E+02  0.40000005845E+02 0.  0.
         12    1    3    3    0    0 -0.30408635433E+02  0.63474611942E+01 -0.19768770338E+02  0.36820913258E+02  0.00000000000E+00 0. -1.
         11    1    4    4    0    0  0.19299552689E+02 -0.12551167740E+02  0.16691813975E+02  0.28436265572E+02  0.51100000000E-03 0.  1.
        -11    1    4    4    0    0 -0.55320348678E+01 -0.80085937805E+00  0.53447225638E+01  0.77337471556E+01  0.51100000000E-03 0. -1.
        -12    1    4    4    0    0  0.16641117611E+02  0.70045659235E+01 -0.22677662009E+01  0.18197074014E+02  0.00000000000E+00 0.  1.
</event>
<event>
 8    1  0.2553474E-006  0.9118800E+02  0.7816164E-02  0.1184000E+00
        -11   -1    0    0    0    0  0.00000000000E+00  0.00000000000E+00  0.45593999997E+02  0.45594000000E+02  0.51100000000E-03 0. -1.
         11   -1    0    0    0    0 -0.00000000000E+00 -0.00000000000E+00 -0.45593999997E+02  0.45594000000E+02  0.51100000000E-03 0.  1.
         23    2    1    2    0    0  0.88817841970E-15  0.00000000000E+00  0.00000000000E+00  0.91188000000E+02  0.91188000000E+02 0.  0.
    9900012    2    3    3    0    0  0.70686266348E+01 -0.22946935260E+02 -0.27915088309E+02  0.54367089152E+02  0.40000011341E+02 0.  0.
         12    1    3    3    0    0 -0.70686266348E+01  0.22946935260E+02  0.27915088309E+02  0.36820910848E+02  0.00000000000E+00 0. -1.
         11    1    4    4    0    0  0.14612909148E+02 -0.33891819777E+01 -0.89201717319E+01  0.17452596719E+02  0.51100000000E-03 0. -1.
        -11    1    4    4    0    0 -0.73351430112E+01 -0.10819535572E+02 -0.23642156028E+02  0.27015147879E+02  0.51100000000E-03 0.  1.
        -12    1    4    4    0    0 -0.20913950180E+00 -0.87382177111E+01  0.46472394514E+01  0.98993445549E+01  0.00000000000E+00 0.  1.
</event>
<event>
 8    1  0.2553474E-006  0.9118800E+02  0.7816164E-02  0.1184000E+00
        -11   -1    0    0    0    0  0.00000000000E+00  0.00000000000E+00  0.45593999997E+02  0.45594000000E+02  0.51100000000E-03 0.  1.
         11   -1    0    0    0    0 -0.00000000000E+00 -0.00000000000E+00 -0.45593999997E+02  0.45594000000E+02  0.51100000000E-03 0. -1.
         23    2    1    2    0    0  0.00000000000E+00  0.00000000000E+00  0.00000000000E+00  0.91188000000E+02  0.91188000000E+02 0.  0.
    9900012    2    3    3    0    0  0.27222628520E+02 -0.49215437753E+01 -0.24299916588E+02  0.54367095029E+02  0.40000024738E+02 0.  0.
        -12    1    3    3    0    0 -0.27222628520E+02  0.49215437753E+01  0.24299916588E+02  0.36820904971E+02  0.00000000000E+00 0.  1.
         11    1    4    4    0    0  0.11711070193E+02 -0.75887355435E+01 -0.13867832712E+02  0.19673709782E+02  0.51100000000E-03 0. -1.
        -11    1    4    4    0    0 -0.42632433049E+01 -0.90499684062E+01 -0.19459537510E+01  0.10191364378E+02  0.51100000000E-03 0.  1.
        -12    1    4    4    0    0  0.19774801632E+02  0.11717160174E+02 -0.84861301253E+01  0.24502020869E+02  0.00000000000E+00 0.  1.
</event>
<event>
 8    1  0.2553474E-006  0.9118800E+02  0.7816164E-02  0.1184000E+00
        -11   -1    0    0    0    0  0.00000000000E+00  0.00000000000E+00  0.45593999997E+02  0.45594000000E+02  0.51100000000E-03 0. -1.
         11   -1    0    0    0    0 -0.00000000000E+00 -0.00000000000E+00 -0.45593999997E+02  0.45594000000E+02  0.51100000000E-03 0.  1.
         23    2    1    2    0    0  0.00000000000E+00  0.00000000000E+00  0.00000000000E+00  0.91188000000E+02  0.91188000000E+02 0.  0.
    9900012    2    3    3    0    0 -0.30342481916E+02 -0.98013271591E+01  0.18413293541E+02  0.54367060279E+02  0.39999945518E+02 0.  0.
        -12    1    3    3    0    0  0.30342481916E+02  0.98013271591E+01 -0.18413293541E+02  0.36820939721E+02  0.00000000000E+00 0.  1.
         11    1    4    4    0    0 -0.58405076011E+01  0.13715974084E+01  0.44085915983E+01  0.74450311370E+01  0.51100000000E-03 0. -1.
        -11    1    4    4    0    0 -0.24483108929E+02 -0.48051220923E+01 -0.62239546140E+01  0.25714770706E+02  0.51100000000E-03 0.  1.
         12    1    4    4    0    0 -0.18865385967E-01 -0.63678024752E+01  0.20228656557E+02  0.21207258436E+02  0.00000000000E+00 0. -1.
</event>
<event>
 8    1  0.2553474E-006  0.9118800E+02  0.7816164E-02  0.1184000E+00
        -11   -1    0    0    0    0  0.00000000000E+00  0.00000000000E+00  0.45593999997E+02  0.45594000000E+02  0.51100000000E-03 0.  1.
         11   -1    0    0    0    0 -0.00000000000E+00 -0.00000000000E+00 -0.45593999997E+02  0.45594000000E+02  0.51100000000E-03 0. -1.
         23    2    1    2    0    0  0.00000000000E+00  0.00000000000E+00  0.00000000000E+00  0.91188000000E+02  0.91188000000E+02 0.  0.
    9900012    2    3    3    0    0  0.66316951663E+01 -0.27193311980E+02  0.23923324942E+02  0.54367067455E+02  0.39999961877E+02 0.  0.
         12    1    3    3    0    0 -0.66316951663E+01  0.27193311980E+02 -0.23923324942E+02  0.36820932545E+02  0.00000000000E+00 0. -1.
         11    1    4    4    0    0  0.23463736238E+01  0.48134718842E+01 -0.15337373212E+01  0.55702182357E+01  0.51100000000E-03 0. -1.
        -11    1    4    4    0    0  0.11733073161E+02 -0.26990849037E+02  0.26693185142E+02  0.39732821079E+02  0.51100000000E-03 0.  1.
         12    1    4    4    0    0 -0.74477516189E+01 -0.50159348264E+01 -0.12361228787E+01  0.90640281404E+01  0.00000000000E+00 0. -1.
</event>
<event>
 8    1  0.2553474E-006  0.9118800E+02  0.7816164E-02  0.1184000E+00
        -11   -1    0    0    0    0  0.00000000000E+00  0.00000000000E+00  0.45593999997E+02  0.45594000000E+02  0.51100000000E-03 0. -1.
         11   -1    0    0    0    0 -0.00000000000E+00 -0.00000000000E+00 -0.45593999997E+02  0.45594000000E+02  0.51100000000E-03 0.  1.
         23    2    1    2    0    0 -0.88817841970E-15  0.00000000000E+00 -0.35527136788E-14  0.91188000000E+02  0.91188000000E+02 0.  0.
    9900012    2    3    3    0    0  0.25570876633E+01  0.35757554123E+02  0.84047235188E+01  0.54367071826E+02  0.39999971841E+02 0.  0.
        -12    1    3    3    0    0 -0.25570876633E+01 -0.35757554123E+02 -0.84047235188E+01  0.36820928174E+02  0.00000000000E+00 0.  1.
         11    1    4    4    0    0  0.20207262439E+01  0.24822195209E+02  0.95647511051E+01  0.26677877979E+02  0.51100000000E-03 0. -1.
        -11    1    4    4    0    0 -0.83321341135E+01 -0.47830036924E+01 -0.75540599407E+00  0.96370234867E+01  0.51100000000E-03 0.  1.
        -12    1    4    4    0    0  0.88684955329E+01  0.15718362607E+02 -0.40462159216E+00  0.18052170360E+02  0.00000000000E+00 0.  1.
</event>
<event>
 8    1  0.2553474E-006  0.9118800E+02  0.7816164E-02  0.1184000E+00
        -11   -1    0    0    0    0  0.00000000000E+00  0.00000000000E+00  0.45593999997E+02  0.45594000000E+02  0.51100000000E-03 0.  1.
         11   -1    0    0    0    0 -0.00000000000E+00 -0.00000000000E+00 -0.45593999997E+02  0.45594000000E+02  0.51100000000E-03 0. -1.
         23    2    1    2    0    0  0.22204460493E-15  0.00000000000E+00  0.00000000000E+00  0.91188000000E+02  0.91188000000E+02 0.  0.
    9900012    2    3    3    0    0 -0.19649401287E+01 -0.11671455305E+02 -0.34866826494E+02  0.54367089522E+02  0.40000012184E+02 0.  0.
        -12    1    3    3    0    0  0.19649401287E+01  0.11671455305E+02  0.34866826494E+02  0.36820910478E+02  0.00000000000E+00 0.  1.
         11    1    4    4    0    0 -0.38177618652E+01 -0.68178480942E+01 -0.14139806255E+02  0.16155261666E+02  0.51100000000E-03 0. -1.
        -11    1    4    4    0    0  0.46080015421E+01 -0.13705722714E+02  0.10960787439E+01  0.14501100034E+02  0.51100000000E-03 0.  1.
         12    1    4    4    0    0 -0.27551798055E+01  0.88521155034E+01 -0.21823098983E+02  0.23710727823E+02  0.00000000000E+00 0. -1.
</event>
<event>
 8    1  0.2553474E-006  0.9118800E+02  0.7816164E-02  0.1184000E+00
        -11   -1    0    0    0    0  0.00000000000E+00  0.00000000000E+00  0.45593999997E+02  0.45594000000E+02  0.51100000000E-03 0. -1.
         11   -1    0    0    0    0 -0.00000000000E+00 -0.00000000000E+00 -0.45593999997E+02  0.45594000000E+02  0.51100000000E-03 0.  1.
         23    2    1    2    0    0  0.00000000000E+00  0.88817841970E-15  0.71054273576E-14  0.91188000000E+02  0.91188000000E+02 0.  0.
    9900012    2    3    3    0    0 -0.46826073276E+01  0.54633502271E+01  0.36111016512E+02  0.54367074962E+02  0.39999978991E+02 0.  0.
        -12    1    3    3    0    0  0.46826073276E+01 -0.54633502271E+01 -0.36111016512E+02  0.36820925038E+02  0.00000000000E+00 0.  1.
         11    1    4    4    0    0 -0.16260674404E+02  0.78003111680E+01  0.31273623009E+02  0.36101161792E+02  0.51100000000E-03 0. -1.
        -11    1    4    4    0    0  0.66152225391E+01 -0.23390070669E+00  0.91984305644E+01  0.11332563871E+02  0.51100000000E-03 0.  1.
        -12    1    4    4    0    0  0.49628445372E+01 -0.21030602342E+01 -0.43610370610E+01  0.69333492986E+01  0.00000000000E+00 0.  1.
</event>
<event>
 8    1  0.2553474E-006  0.9118800E+02  0.7816164E-02  0.1184000E+00
        -11   -1    0    0    0    0  0.00000000000E+00  0.00000000000E+00  0.45593999997E+02  0.45594000000E+02  0.51100000000E-03 0. -1.
         11   -1    0    0    0    0 -0.00000000000E+00 -0.00000000000E+00 -0.45593999997E+02  0.45594000000E+02  0.51100000000E-03 0.  1.
         23    2    1    2    0    0 -0.99920072216E-15  0.00000000000E+00  0.00000000000E+00  0.91188000000E+02  0.91188000000E+02 0.  0.
    9900012    2    3    3    0    0 -0.76006027728E+00  0.26054002343E+02  0.26007514329E+02  0.54367088396E+02  0.40000009617E+02 0.  0.
        -12    1    3    3    0    0  0.76006027728E+00 -0.26054002343E+02 -0.26007514329E+02  0.36820911604E+02  0.00000000000E+00 0.  1.
         11    1    4    4    0    0 -0.97825757308E+00  0.48091575649E+01  0.97303016893E+01  0.10897878490E+02  0.51100000000E-03 0. -1.
        -11    1    4    4    0    0 -0.98317272034E+01  0.58210260655E+01 -0.72982484264E+01  0.13557714948E+02  0.51100000000E-03 0.  1.
         12    1    4    4    0    0  0.10049924499E+02  0.15423818713E+02  0.23575461067E+02  0.29911494958E+02  0.00000000000E+00 0. -1.
</event>
<event>
 8    1  0.2553474E-006  0.9118800E+02  0.7816164E-02  0.1184000E+00
        -11   -1    0    0    0    0  0.00000000000E+00  0.00000000000E+00  0.45593999997E+02  0.45594000000E+02  0.51100000000E-03 0.  1.
         11   -1    0    0    0    0 -0.00000000000E+00 -0.00000000000E+00 -0.45593999997E+02  0.45594000000E+02  0.51100000000E-03 0. -1.
         23    2    1    2    0    0 -0.44408920985E-15  0.00000000000E+00  0.22204460493E-14  0.91188000000E+02  0.91188000000E+02 0.  0.
    9900012    2    3    3    0    0  0.31091505568E+01  0.36617364100E+02 -0.22980165627E+01  0.54367094919E+02  0.40000024487E+02 0.  0.
         12    1    3    3    0    0 -0.31091505568E+01 -0.36617364100E+02  0.22980165627E+01  0.36820905081E+02  0.00000000000E+00 0. -1.
         11    1    4    4    0    0 -0.23998934274E+01  0.85181381958E+01  0.11921813998E+02  0.14847485176E+02  0.51100000000E-03 0. -1.
        -11    1    4    4    0    0 -0.35657784069E+01  0.27398919950E+02 -0.91767412627E+01  0.29114054519E+02  0.51100000000E-03 0.  1.
         12    1    4    4    0    0  0.90748223911E+01  0.70030595435E+00 -0.50430892978E+01  0.10405555224E+02  0.00000000000E+00 0. -1.
</event>
<event>
 8    1  0.2553474E-006  0.9118800E+02  0.7816164E-02  0.1184000E+00
        -11   -1    0    0    0    0  0.00000000000E+00  0.00000000000E+00  0.45593999997E+02  0.45594000000E+02  0.51100000000E-03 0.  1.
         11   -1    0    0    0    0 -0.00000000000E+00 -0.00000000000E+00 -0.45593999997E+02  0.45594000000E+02  0.51100000000E-03 0. -1.
         23    2    1    2    0    0  0.00000000000E+00 -0.17763568394E-14  0.17763568394E-14  0.91188000000E+02  0.91188000000E+02 0.  0.
    9900012    2    3    3    0    0  0.31802018626E+02  0.97952652566E+01  0.15762747109E+02  0.54367084658E+02  0.40000001096E+02 0.  0.
         12    1    3    3    0    0 -0.31802018626E+02 -0.97952652566E+01 -0.15762747109E+02  0.36820915342E+02  0.00000000000E+00 0. -1.
         11    1    4    4    0    0  0.15717364010E+01  0.45218167959E+01 -0.54825833835E+01  0.72784547308E+01  0.51100000000E-03 0. -1.
        -11    1    4    4    0    0  0.56711265770E+01 -0.45271410459E+01  0.19248491703E+02  0.20570880287E+02  0.51100000000E-03 0.  1.
        -12    1    4    4    0    0  0.24559155648E+02  0.98005895065E+01  0.19968387900E+01  0.26517749640E+02  0.00000000000E+00 0.  1.
</event>
<event>
 8    1  0.2553474E-006  0.9118800E+02  0.7816164E-02  0.1184000E+00
        -11   -1    0    0    0    0  0.00000000000E+00  0.00000000000E+00  0.45593999997E+02  0.45594000000E+02  0.51100000000E-03 0.  1.
         11   -1    0    0    0    0 -0.00000000000E+00 -0.00000000000E+00 -0.45593999997E+02  0.45594000000E+02  0.51100000000E-03 0. -1.
         23    2    1    2    0    0 -0.17763568394E-14 -0.71054273576E-14  0.44408920985E-15  0.91188000000E+02  0.91188000000E+02 0.  0.
    9900012    2    3    3    0    0 -0.82282151085E+01 -0.35838960174E+02 -0.19093175729E+01  0.54367080894E+02  0.39999992514E+02 0.  0.
        -12    1    3    3    0    0  0.82282151085E+01  0.35838960174E+02  0.19093175729E+01  0.36820919106E+02  0.00000000000E+00 0.  1.
         11    1    4    4    0    0 -0.10433600114E+02 -0.33465946364E+02  0.38337781130E+01  0.35263684327E+02  0.51100000000E-03 0. -1.
        -11    1    4    4    0    0 -0.17332319100E+01 -0.97876145591E+00  0.61677564150E+01  0.64809942368E+01  0.51100000000E-03 0.  1.
         12    1    4    4    0    0  0.39386169152E+01 -0.13942523535E+01 -0.11910852101E+02  0.12622402331E+02  0.00000000000E+00 0. -1.
</event>
<event>
 8    1  0.2553474E-006  0.9118800E+02  0.7816164E-02  0.1184000E+00
        -11   -1    0    0    0    0  0.00000000000E+00  0.00000000000E+00  0.45593999997E+02  0.45594000000E+02  0.51100000000E-03 0.  1.
         11   -1    0    0    0    0 -0.00000000000E+00 -0.00000000000E+00 -0.45593999997E+02  0.45594000000E+02  0.51100000000E-03 0. -1.
         23    2    1    2    0    0  0.00000000000E+00 -0.11102230246E-15  0.17763568394E-14  0.91188000000E+02  0.91188000000E+02 0.  0.
    9900012    2    3    3    0    0  0.35080455899E+02  0.76081726510E+00 -0.11160784502E+02  0.54367077419E+02  0.39999984592E+02 0.  0.
        -12    1    3    3    0    0 -0.35080455899E+02 -0.76081726510E+00  0.11160784502E+02  0.36820922581E+02  0.00000000000E+00 0.  1.
         11    1    4    4    0    0  0.27705116473E+02  0.86660703866E+00 -0.14580957426E+02  0.31319782986E+02  0.51100000000E-03 0.  1.
        -11    1    4    4    0    0  0.98094386329E+01 -0.69553975712E+01 -0.39872206364E+01  0.12668881968E+02  0.51100000000E-03 0. -1.
        -12    1    4    4    0    0 -0.24340992071E+01  0.68496077976E+01  0.74073935601E+01  0.10378412465E+02  0.00000000000E+00 0.  1.
</event>
<event>
 8    1  0.2553474E-006  0.9118800E+02  0.7816164E-02  0.1184000E+00
        -11   -1    0    0    0    0  0.00000000000E+00  0.00000000000E+00  0.45593999997E+02  0.45594000000E+02  0.51100000000E-03 0. -1.
         11   -1    0    0    0    0 -0.00000000000E+00 -0.00000000000E+00 -0.45593999997E+02  0.45594000000E+02  0.51100000000E-03 0.  1.
         23    2    1    2    0    0  0.00000000000E+00  0.88817841970E-15  0.00000000000E+00  0.91188000000E+02  0.91188000000E+02 0.  0.
    9900012    2    3    3    0    0 -0.27655017516E+02  0.39418636512E+01 -0.23988394780E+02  0.54367063469E+02  0.39999952791E+02 0.  0.
         12    1    3    3    0    0  0.27655017516E+02 -0.39418636512E+01  0.23988394780E+02  0.36820936531E+02  0.00000000000E+00 0. -1.
         11    1    4    4    0    0 -0.29501655943E+00  0.70675710662E+01 -0.58566675343E+01  0.91835804790E+01  0.51100000000E-03 0. -1.
        -11    1    4    4    0    0 -0.25160435419E+02 -0.13221982132E+02 -0.19904350840E+02  0.34699445307E+02  0.51100000000E-03 0.  1.
        -12    1    4    4    0    0 -0.21995655377E+01  0.10096274717E+02  0.17726235945E+01  0.10484037683E+02  0.00000000000E+00 0.  1.
</event>
<event>
 8    1  0.2553474E-006  0.9118800E+02  0.7816164E-02  0.1184000E+00
        -11   -1    0    0    0    0  0.00000000000E+00  0.00000000000E+00  0.45593999997E+02  0.45594000000E+02  0.51100000000E-03 0.  1.
         11   -1    0    0    0    0 -0.00000000000E+00 -0.00000000000E+00 -0.45593999997E+02  0.45594000000E+02  0.51100000000E-03 0. -1.
         23    2    1    2    0    0  0.13322676296E-14  0.35527136788E-14 -0.14210854715E-13  0.91188000000E+02  0.91188000000E+02 0.  0.
    9900012    2    3    3    0    0 -0.25928646669E+01 -0.16443645790E+02  0.32843012440E+02  0.54367083388E+02  0.39999998199E+02 0.  0.
        -12    1    3    3    0    0  0.25928646669E+01  0.16443645790E+02 -0.32843012440E+02  0.36820916612E+02  0.00000000000E+00 0.  1.
         11    1    4    4    0    0  0.22070774493E+01 -0.52827381290E+01  0.10626142886E+01  0.58230286273E+01  0.51100000000E-03 0. -1.
        -11    1    4    4    0    0 -0.12356604499E+02 -0.13068438797E+02  0.23966138196E+01  0.18144242211E+02  0.51100000000E-03 0.  1.
         12    1    4    4    0    0  0.75566623825E+01  0.19075311369E+01  0.29383784332E+02  0.30399812550E+02  0.00000000000E+00 0. -1.
</event>
<event>
 8    1  0.2553474E-006  0.9118800E+02  0.7816164E-02  0.1184000E+00
        -11   -1    0    0    0    0  0.00000000000E+00  0.00000000000E+00  0.45593999997E+02  0.45594000000E+02  0.51100000000E-03 0.  1.
         11   -1    0    0    0    0 -0.00000000000E+00 -0.00000000000E+00 -0.45593999997E+02  0.45594000000E+02  0.51100000000E-03 0. -1.
         23    2    1    2    0    0  0.00000000000E+00  0.00000000000E+00 -0.17763568394E-14  0.91188000000E+02  0.91188000000E+02 0.  0.
    9900012    2    3    3    0    0  0.31598203569E+02 -0.12322153182E+02  0.14335144893E+02  0.54367105023E+02  0.40000047521E+02 0.  0.
         12    1    3    3    0    0 -0.31598203569E+02  0.12322153182E+02 -0.14335144893E+02  0.36820894977E+02  0.00000000000E+00 0. -1.
         11    1    4    4    0    0 -0.75513515502E+01  0.41667027450E+01  0.90386685600E+00  0.86718681698E+01  0.51100000000E-03 0. -1.
        -11    1    4    4    0    0  0.37312277823E+02 -0.12613110081E+02  0.12205863702E+02  0.41234448356E+02  0.51100000000E-03 0.  1.
         12    1    4    4    0    0  0.18372772960E+01 -0.38757458460E+01  0.12254143349E+01  0.44607884973E+01  0.00000000000E+00 0. -1.
</event>
<event>
 8    1  0.2553474E-006  0.9118800E+02  0.7816164E-02  0.1184000E+00
        -11   -1    0    0    0    0  0.00000000000E+00  0.00000000000E+00  0.45593999997E+02  0.45594000000E+02  0.51100000000E-03 0. -1.
         11   -1    0    0    0    0 -0.00000000000E+00 -0.00000000000E+00 -0.45593999997E+02  0.45594000000E+02  0.51100000000E-03 0.  1.
         23    2    1    2    0    0  0.35527136788E-14  0.00000000000E+00 -0.35527136788E-14  0.91188000000E+02  0.91188000000E+02 0.  0.
    9900012    2    3    3    0    0  0.29863121051E+02  0.11921055941E+02  0.17940533574E+02  0.54367077706E+02  0.39999985246E+02 0.  0.
        -12    1    3    3    0    0 -0.29863121051E+02 -0.11921055941E+02 -0.17940533574E+02  0.36820922294E+02  0.00000000000E+00 0.  1.
         11    1    4    4    0    0  0.21476841262E+02  0.56144902786E+01  0.12204326462E+01  0.22232108937E+02  0.51100000000E-03 0. -1.
        -11    1    4    4    0    0 -0.54688402951E+01  0.32383431099E+01 -0.36347917654E+01  0.73216659108E+01  0.51100000000E-03 0.  1.
         12    1    4    4    0    0  0.13855120084E+02  0.30682225529E+01  0.20354892693E+02  0.24813302858E+02  0.00000000000E+00 0. -1.
</event>
<event>
 8    1  0.2553474E-006  0.9118800E+02  0.7816164E-02  0.1184000E+00
        -11   -1    0    0    0    0  0.00000000000E+00  0.00000000000E+00  0.45593999997E+02  0.45594000000E+02  0.51100000000E-03 0. -1.
         11   -1    0    0    0    0 -0.00000000000E+00 -0.00000000000E+00 -0.45593999997E+02  0.45594000000E+02  0.51100000000E-03 0.  1.
         23    2    1    2    0    0  0.00000000000E+00  0.00000000000E+00  0.35527136788E-14  0.91188000000E+02  0.91188000000E+02 0.  0.
    9900012    2    3    3    0    0  0.26067827334E+02 -0.10735121057E+02  0.23685558672E+02  0.54367080191E+02  0.39999990910E+02 0.  0.
        -12    1    3    3    0    0 -0.26067827334E+02  0.10735121057E+02 -0.23685558672E+02  0.36820919809E+02  0.00000000000E+00 0.  1.
         11    1    4    4    0    0 -0.27648580886E+01  0.43345320221E+01  0.12742938614E+02  0.13741000433E+02  0.51100000000E-03 0. -1.
        -11    1    4    4    0    0  0.57920181720E+01 -0.26191905458E+01 -0.65535695255E+01  0.91300004056E+01  0.51100000000E-03 0.  1.
         12    1    4    4    0    0  0.23040667250E+02 -0.12450462534E+02  0.17496189583E+02  0.31496079352E+02  0.00000000000E+00 0. -1.
</event>
<event>
 8    1  0.2553474E-006  0.9118800E+02  0.7816164E-02  0.1184000E+00
        -11   -1    0    0    0    0  0.00000000000E+00  0.00000000000E+00  0.45593999997E+02  0.45594000000E+02  0.51100000000E-03 0.  1.
         11   -1    0    0    0    0 -0.00000000000E+00 -0.00000000000E+00 -0.45593999997E+02  0.45594000000E+02  0.51100000000E-03 0. -1.
         23    2    1    2    0    0  0.00000000000E+00 -0.35527136788E-14 -0.88817841970E-15  0.91188000000E+02  0.91188000000E+02 0.  0.
    9900012    2    3    3    0    0 -0.27419575184E+02 -0.23679600142E+02 -0.65744387942E+01  0.54367084590E+02  0.40000000941E+02 0.  0.
        -12    1    3    3    0    0  0.27419575184E+02  0.23679600142E+02  0.65744387942E+01  0.36820915410E+02  0.00000000000E+00 0.  1.
         11    1    4    4    0    0 -0.33626759063E+02 -0.17689572650E+02 -0.99630385145E+01  0.39280300945E+02  0.51100000000E-03 0. -1.
        -11    1    4    4    0    0  0.45773087971E+01 -0.75743503861E+01 -0.21435328339E+01  0.91058922059E+01  0.51100000000E-03 0.  1.
         12    1    4    4    0    0  0.16298750818E+01  0.15843228946E+01  0.55321325541E+01  0.59808914397E+01  0.00000000000E+00 0. -1.
</event>
<event>
 8    1  0.2553474E-006  0.9118800E+02  0.7816164E-02  0.1184000E+00
        -11   -1    0    0    0    0  0.00000000000E+00  0.00000000000E+00  0.45593999997E+02  0.45594000000E+02  0.51100000000E-03 0. -1.
         11   -1    0    0    0    0 -0.00000000000E+00 -0.00000000000E+00 -0.45593999997E+02  0.45594000000E+02  0.51100000000E-03 0.  1.
         23    2    1    2    0    0  0.00000000000E+00  0.00000000000E+00  0.00000000000E+00  0.91188000000E+02  0.91188000000E+02 0.  0.
    9900012    2    3    3    0    0 -0.20618654539E+02 -0.23945876899E+02  0.18900858680E+02  0.54367130994E+02  0.40000106727E+02 0.  0.
        -12    1    3    3    0    0  0.20618654539E+02  0.23945876899E+02 -0.18900858680E+02  0.36820869006E+02  0.00000000000E+00 0.  1.
         11    1    4    4    0    0 -0.54759318826E+01 -0.41838269328E+00  0.23726824245E+01  0.59825158762E+01  0.51100000000E-03 0. -1.
        -11    1    4    4    0    0  0.82887739647E+00 -0.43467333666E+01 -0.10620713562E+02  0.11505680576E+02  0.51100000000E-03 0.  1.
        -12    1    4    4    0    0 -0.15971600053E+02 -0.19180760839E+02  0.27148889818E+02  0.36878934542E+02  0.00000000000E+00 0.  1.
</event>
<event>
 8    1  0.2553474E-006  0.9118800E+02  0.7816164E-02  0.1184000E+00
        -11   -1    0    0    0    0  0.00000000000E+00  0.00000000000E+00  0.45593999997E+02  0.45594000000E+02  0.51100000000E-03 0.  1.
         11   -1    0    0    0    0 -0.00000000000E+00 -0.00000000000E+00 -0.45593999997E+02  0.45594000000E+02  0.51100000000E-03 0. -1.
         23    2    1    2    0    0  0.00000000000E+00 -0.17763568394E-14  0.00000000000E+00  0.91188000000E+02  0.91188000000E+02 0.  0.
    9900012    2    3    3    0    0 -0.91219847397E+01 -0.92411190522E+01 -0.34455373625E+02  0.54367059510E+02  0.39999943764E+02 0.  0.
        -12    1    3    3    0    0  0.91219847397E+01  0.92411190522E+01  0.34455373625E+02  0.36820940490E+02  0.00000000000E+00 0.  1.
         11    1    4    4    0    0 -0.65882954166E+01  0.12248904117E+02 -0.14061852931E+02  0.19778194980E+02  0.51100000000E-03 0. -1.
        -11    1    4    4    0    0 -0.83249697652E+00 -0.13032554090E+02 -0.68745699702E+00  0.13077198274E+02  0.51100000000E-03 0.  1.
         12    1    4    4    0    0 -0.17011923466E+01 -0.84574690796E+01 -0.19706063698E+02  0.21511666256E+02  0.00000000000E+00 0. -1.
</event>
<event>
 8    1  0.2553474E-006  0.9118800E+02  0.7816164E-02  0.1184000E+00
        -11   -1    0    0    0    0  0.00000000000E+00  0.00000000000E+00  0.45593999997E+02  0.45594000000E+02  0.51100000000E-03 0. -1.
         11   -1    0    0    0    0 -0.00000000000E+00 -0.00000000000E+00 -0.45593999997E+02  0.45594000000E+02  0.51100000000E-03 0.  1.
         23    2    1    2    0    0 -0.17763568394E-14  0.71054273576E-14 -0.88817841970E-15  0.91188000000E+02  0.91188000000E+02 0.  0.
    9900012    2    3    3    0    0  0.11288833049E+02  0.34653630138E+02  0.52411016923E+01  0.54367068720E+02  0.39999964762E+02 0.  0.
         12    1    3    3    0    0 -0.11288833049E+02 -0.34653630138E+02 -0.52411016923E+01  0.36820931280E+02  0.00000000000E+00 0. -1.
         11    1    4    4    0    0  0.17920652762E+02  0.13542973806E+02  0.11106990594E+02  0.25058475118E+02  0.51100000000E-03 0. -1.
        -11    1    4    4    0    0 -0.45471086340E+01  0.42652718931E+01 -0.10049900656E+02  0.11826632856E+02  0.51100000000E-03 0.  1.
        -12    1    4    4    0    0 -0.20847110787E+01  0.16845384439E+02  0.41840117546E+01  0.17481960746E+02  0.00000000000E+00 0.  1.
</event>
<event>
 8    1  0.2553474E-006  0.9118800E+02  0.7816164E-02  0.1184000E+00
        -11   -1    0    0    0    0  0.00000000000E+00  0.00000000000E+00  0.45593999997E+02  0.45594000000E+02  0.51100000000E-03 0. -1.
         11   -1    0    0    0    0 -0.00000000000E+00 -0.00000000000E+00 -0.45593999997E+02  0.45594000000E+02  0.51100000000E-03 0.  1.
         23    2    1    2    0    0  0.35527136788E-14  0.00000000000E+00  0.35527136788E-14  0.91188000000E+02  0.91188000000E+02 0.  0.
    9900012    2    3    3    0    0 -0.26514270824E+02 -0.11583614870E+02 -0.22772635535E+02  0.54367087192E+02  0.40000006872E+02 0.  0.
         12    1    3    3    0    0  0.26514270824E+02  0.11583614870E+02  0.22772635535E+02  0.36820912808E+02  0.00000000000E+00 0. -1.
         11    1    4    4    0    0 -0.15731971331E+02 -0.49079771891E+01  0.22858718368E+01  0.16637559087E+02  0.51100000000E-03 0. -1.
        -11    1    4    4    0    0  0.66870041605E+01  0.36113481482E+01 -0.95491673994E+01  0.12204280330E+02  0.51100000000E-03 0.  1.
        -12    1    4    4    0    0 -0.17469303653E+02 -0.10286985829E+02 -0.15509339972E+02  0.25525247775E+02  0.00000000000E+00 0.  1.
</event>
<event>
 8    1  0.2553474E-006  0.9118800E+02  0.7816164E-02  0.1184000E+00
        -11   -1    0    0    0    0  0.00000000000E+00  0.00000000000E+00  0.45593999997E+02  0.45594000000E+02  0.51100000000E-03 0. -1.
         11   -1    0    0    0    0 -0.00000000000E+00 -0.00000000000E+00 -0.45593999997E+02  0.45594000000E+02  0.51100000000E-03 0.  1.
         23    2    1    2    0    0  0.00000000000E+00  0.00000000000E+00  0.44408920985E-15  0.91188000000E+02  0.91188000000E+02 0.  0.
    9900012    2    3    3    0    0 -0.15101934156E+02  0.33377363773E+02 -0.36963357150E+01  0.54367085761E+02  0.40000003608E+02 0.  0.
        -12    1    3    3    0    0  0.15101934156E+02 -0.33377363773E+02  0.36963357150E+01  0.36820914239E+02  0.00000000000E+00 0.  1.
         11    1    4    4    0    0 -0.14028293419E+02  0.61220735211E+01  0.74530037240E+00  0.15324107588E+02  0.51100000000E-03 0. -1.
        -11    1    4    4    0    0 -0.95312119706E+01  0.21144109897E+02  0.63348830389E+01  0.24042631477E+02  0.51100000000E-03 0.  1.
        -12    1    4    4    0    0  0.84575712338E+01  0.61111803551E+01 -0.10776519126E+02  0.15000346696E+02  0.00000000000E+00 0.  1.
</event>
<event>
 8    1  0.2553474E-006  0.9118800E+02  0.7816164E-02  0.1184000E+00
        -11   -1    0    0    0    0  0.00000000000E+00  0.00000000000E+00  0.45593999997E+02  0.45594000000E+02  0.51100000000E-03 0.  1.
         11   -1    0    0    0    0 -0.00000000000E+00 -0.00000000000E+00 -0.45593999997E+02  0.45594000000E+02  0.51100000000E-03 0. -1.
         23    2    1    2    0    0  0.13322676296E-14  0.00000000000E+00 -0.17763568394E-14  0.91188000000E+02  0.91188000000E+02 0.  0.
    9900012    2    3    3    0    0 -0.32064707238E+01  0.34468164437E+02  0.12547668853E+02  0.54367084642E+02  0.40000001058E+02 0.  0.
         12    1    3    3    0    0  0.32064707238E+01 -0.34468164437E+02 -0.12547668853E+02  0.36820915358E+02  0.00000000000E+00 0. -1.
         11    1    4    4    0    0 -0.17339884245E+02  0.12728275938E+02  0.98020340515E+01  0.23638114683E+02  0.51100000000E-03 0. -1.
        -11    1    4    4    0    0 -0.10523403810E+01 -0.18034373555E+01  0.17015716898E+01  0.26935391309E+01  0.51100000000E-03 0.  1.
        -12    1    4    4    0    0  0.15185753902E+02  0.23543325855E+02  0.10440631116E+01  0.28035430827E+02  0.00000000000E+00 0.  1.
</event>
<event>
 8    1  0.2553474E-006  0.9118800E+02  0.7816164E-02  0.1184000E+00
        -11   -1    0    0    0    0  0.00000000000E+00  0.00000000000E+00  0.45593999997E+02  0.45594000000E+02  0.51100000000E-03 0.  1.
         11   -1    0    0    0    0 -0.00000000000E+00 -0.00000000000E+00 -0.45593999997E+02  0.45594000000E+02  0.51100000000E-03 0. -1.
         23    2    1    2    0    0 -0.88817841970E-15  0.35527136788E-14  0.35527136788E-14  0.91188000000E+02  0.91188000000E+02 0.  0.
    9900012    2    3    3    0    0 -0.45596830438E+01 -0.27774821217E+02  0.23739185597E+02  0.54367077470E+02  0.39999984709E+02 0.  0.
         12    1    3    3    0    0  0.45596830438E+01  0.27774821217E+02 -0.23739185597E+02  0.36820922530E+02  0.00000000000E+00 0. -1.
         11    1    4    4    0    0 -0.49917220825E+01 -0.12172257721E+02 -0.68153597086E+01  0.14816554106E+02  0.51100000000E-03 0. -1.
        -11    1    4    4    0    0 -0.58483614835E+01 -0.10587510685E+02  0.55909774358E+01  0.13325079493E+02  0.51100000000E-03 0.  1.
        -12    1    4    4    0    0  0.62804005222E+01 -0.50150528112E+01  0.24963567870E+02  0.26225443871E+02  0.00000000000E+00 0.  1.
</event>
<event>
 8    1  0.2553474E-006  0.9118800E+02  0.7816164E-02  0.1184000E+00
        -11   -1    0    0    0    0  0.00000000000E+00  0.00000000000E+00  0.45593999997E+02  0.45594000000E+02  0.51100000000E-03 0.  1.
         11   -1    0    0    0    0 -0.00000000000E+00 -0.00000000000E+00 -0.45593999997E+02  0.45594000000E+02  0.51100000000E-03 0. -1.
         23    2    1    2    0    0  0.00000000000E+00  0.00000000000E+00  0.00000000000E+00  0.91188000000E+02  0.91188000000E+02 0.  0.
    9900012    2    3    3    0    0  0.15800888546E+02  0.32081391102E+02  0.87689953390E+01  0.54367095433E+02  0.40000025659E+02 0.  0.
        -12    1    3    3    0    0 -0.15800888546E+02 -0.32081391102E+02 -0.87689953390E+01  0.36820904567E+02  0.00000000000E+00 0.  1.
         11    1    4    4    0    0  0.22009726548E+01  0.22795493667E+02  0.42371150293E+01  0.23290168659E+02  0.51100000000E-03 0. -1.
        -11    1    4    4    0    0  0.32729054479E+01  0.97494851598E+01  0.13788108194E+02  0.17201055164E+02  0.51100000000E-03 0.  1.
         12    1    4    4    0    0  0.10327010444E+02 -0.46358772489E+00 -0.92562278838E+01  0.13875871609E+02  0.00000000000E+00 0. -1.
</event>
<event>
 8    1  0.2553474E-006  0.9118800E+02  0.7816164E-02  0.1184000E+00
        -11   -1    0    0    0    0  0.00000000000E+00  0.00000000000E+00  0.45593999997E+02  0.45594000000E+02  0.51100000000E-03 0.  1.
         11   -1    0    0    0    0 -0.00000000000E+00 -0.00000000000E+00 -0.45593999997E+02  0.45594000000E+02  0.51100000000E-03 0. -1.
         23    2    1    2    0    0  0.35527136788E-14 -0.35527136788E-14  0.17763568394E-14  0.91188000000E+02  0.91188000000E+02 0.  0.
    9900012    2    3    3    0    0 -0.26748048967E+02 -0.23911688035E+02 -0.82796530093E+01  0.54367087434E+02  0.40000007424E+02 0.  0.
        -12    1    3    3    0    0  0.26748048967E+02  0.23911688035E+02  0.82796530093E+01  0.36820912566E+02  0.00000000000E+00 0.  1.
         11    1    4    4    0    0  0.70298410858E+00  0.53095942293E+01 -0.44228769721E+01  0.69460649658E+01  0.51100000000E-03 0. -1.
        -11    1    4    4    0    0  0.11244958076E+01 -0.70274365867E+01  0.66544567031E+01  0.97432617780E+01  0.51100000000E-03 0.  1.
        -12    1    4    4    0    0 -0.28575528883E+02 -0.22193845677E+02 -0.10511232740E+02  0.37677760690E+02  0.00000000000E+00 0.  1.
</event>
<event>
 8    1  0.2553474E-006  0.9118800E+02  0.7816164E-02  0.1184000E+00
        -11   -1    0    0    0    0  0.00000000000E+00  0.00000000000E+00  0.45593999997E+02  0.45594000000E+02  0.51100000000E-03 0. -1.
         11   -1    0    0    0    0 -0.00000000000E+00 -0.00000000000E+00 -0.45593999997E+02  0.45594000000E+02  0.51100000000E-03 0.  1.
         23    2    1    2    0    0 -0.88817841970E-15 -0.35527136788E-14 -0.35527136788E-14  0.91188000000E+02  0.91188000000E+02 0.  0.
    9900012    2    3    3    0    0 -0.75968092499E+01 -0.25984119805E+02 -0.24957893537E+02  0.54367048863E+02  0.39999919494E+02 0.  0.
         12    1    3    3    0    0  0.75968092499E+01  0.25984119805E+02  0.24957893537E+02  0.36820951137E+02  0.00000000000E+00 0. -1.
         11    1    4    4    0    0 -0.25792964244E+01 -0.27410316706E+01  0.77137538335E+01  0.85830078137E+01  0.51100000000E-03 0. -1.
        -11    1    4    4    0    0  0.52327614277E+01 -0.11640540793E+02 -0.25924711222E+02  0.28895927643E+02  0.51100000000E-03 0.  1.
        -12    1    4    4    0    0 -0.10250274253E+02 -0.11602547341E+02 -0.67469361482E+01  0.16888113407E+02  0.00000000000E+00 0.  1.
</event>
<event>
 8    1  0.2553474E-006  0.9118800E+02  0.7816164E-02  0.1184000E+00
        -11   -1    0    0    0    0  0.00000000000E+00  0.00000000000E+00  0.45593999997E+02  0.45594000000E+02  0.51100000000E-03 0.  1.
         11   -1    0    0    0    0 -0.00000000000E+00 -0.00000000000E+00 -0.45593999997E+02  0.45594000000E+02  0.51100000000E-03 0. -1.
         23    2    1    2    0    0  0.00000000000E+00 -0.53290705182E-14  0.88817841970E-15  0.91188000000E+02  0.91188000000E+02 0.  0.
    9900012    2    3    3    0    0  0.32929992031E+02  0.15968768885E+02 -0.40488851330E+01  0.54367089831E+02  0.40000012888E+02 0.  0.
         12    1    3    3    0    0 -0.32929992031E+02 -0.15968768885E+02  0.40488851330E+01  0.36820910169E+02  0.00000000000E+00 0. -1.
         11    1    4    4    0    0  0.15638755898E+02  0.29251256092E+01  0.84652922648E+01  0.18021881679E+02  0.51100000000E-03 0. -1.
        -11    1    4    4    0    0  0.44528824878E+01 -0.45994074652E+01 -0.13031827167E+02  0.14519339897E+02  0.51100000000E-03 0.  1.
        -12    1    4    4    0    0  0.12838353645E+02  0.17643050741E+02  0.51764976929E+00  0.21825868255E+02  0.00000000000E+00 0.  1.
</event>
<event>
 8    1  0.2553474E-006  0.9118800E+02  0.7816164E-02  0.1184000E+00
        -11   -1    0    0    0    0  0.00000000000E+00  0.00000000000E+00  0.45593999997E+02  0.45594000000E+02  0.51100000000E-03 0.  1.
         11   -1    0    0    0    0 -0.00000000000E+00 -0.00000000000E+00 -0.45593999997E+02  0.45594000000E+02  0.51100000000E-03 0. -1.
         23    2    1    2    0    0  0.00000000000E+00 -0.88817841970E-15  0.17763568394E-14  0.91188000000E+02  0.91188000000E+02 0.  0.
    9900012    2    3    3    0    0 -0.35722043029E+02 -0.62257722691E+01  0.63996527366E+01  0.54367079946E+02  0.39999990352E+02 0.  0.
         12    1    3    3    0    0  0.35722043029E+02  0.62257722691E+01 -0.63996527366E+01  0.36820920054E+02  0.00000000000E+00 0. -1.
         11    1    4    4    0    0 -0.19153820117E+02 -0.25273233887E+01  0.18712405303E+01  0.19410248066E+02  0.51100000000E-03 0. -1.
        -11    1    4    4    0    0 -0.15201148041E+02 -0.12382742651E+02  0.12365066721E+02  0.23179777665E+02  0.51100000000E-03 0.  1.
         12    1    4    4    0    0 -0.13670748706E+01  0.86842937706E+01 -0.78366545147E+01  0.11777054215E+02  0.00000000000E+00 0. -1.
</event>
<event>
 8    1  0.2553474E-006  0.9118800E+02  0.7816164E-02  0.1184000E+00
        -11   -1    0    0    0    0  0.00000000000E+00  0.00000000000E+00  0.45593999997E+02  0.45594000000E+02  0.51100000000E-03 0. -1.
         11   -1    0    0    0    0 -0.00000000000E+00 -0.00000000000E+00 -0.45593999997E+02  0.45594000000E+02  0.51100000000E-03 0.  1.
         23    2    1    2    0    0  0.00000000000E+00  0.35527136788E-14  0.00000000000E+00  0.91188000000E+02  0.91188000000E+02 0.  0.
    9900012    2    3    3    0    0 -0.18742545478E+02  0.30253599061E+02 -0.94453751333E+01  0.54367104050E+02  0.40000045303E+02 0.  0.
         12    1    3    3    0    0  0.18742545478E+02 -0.30253599061E+02  0.94453751333E+01  0.36820895950E+02  0.00000000000E+00 0. -1.
         11    1    4    4    0    0 -0.11492202367E+02 -0.18862226265E+01 -0.10168283461E+02  0.15460353807E+02  0.51100000000E-03 0. -1.
        -11    1    4    4    0    0 -0.61704049297E+01  0.22756497579E+02 -0.91056703652E+01  0.25275389456E+02  0.51100000000E-03 0.  1.
        -12    1    4    4    0    0 -0.10799381814E+01  0.93833241083E+01  0.98285786926E+01  0.13631360787E+02  0.00000000000E+00 0.  1.
</event>
<event>
 8    1  0.2553474E-006  0.9118800E+02  0.7816164E-02  0.1184000E+00
        -11   -1    0    0    0    0  0.00000000000E+00  0.00000000000E+00  0.45593999997E+02  0.45594000000E+02  0.51100000000E-03 0. -1.
         11   -1    0    0    0    0 -0.00000000000E+00 -0.00000000000E+00 -0.45593999997E+02  0.45594000000E+02  0.51100000000E-03 0.  1.
         23    2    1    2    0    0  0.88817841970E-15  0.13322676296E-14  0.00000000000E+00  0.91188000000E+02  0.91188000000E+02 0.  0.
    9900012    2    3    3    0    0 -0.59140827288E+01 -0.29449546341E+01 -0.36223371949E+02  0.54367057485E+02  0.39999939149E+02 0.  0.
         12    1    3    3    0    0  0.59140827288E+01  0.29449546341E+01  0.36223371949E+02  0.36820942515E+02  0.00000000000E+00 0. -1.
         11    1    4    4    0    0  0.56583011152E+01 -0.12478533521E+02 -0.11521148949E+02  0.17901593329E+02  0.51100000000E-03 0. -1.
        -11    1    4    4    0    0 -0.44297430744E+01  0.10243750667E+02 -0.26763685302E+02  0.28997446485E+02  0.51100000000E-03 0.  1.
         12    1    4    4    0    0 -0.71426407696E+01 -0.71017178021E+00  0.20614623020E+01  0.74680176716E+01  0.00000000000E+00 0. -1.
</event>
<event>
 8    1  0.2553474E-006  0.9118800E+02  0.7816164E-02  0.1184000E+00
        -11   -1    0    0    0    0  0.00000000000E+00  0.00000000000E+00  0.45593999997E+02  0.45594000000E+02  0.51100000000E-03 0. -1.
         11   -1    0    0    0    0 -0.00000000000E+00 -0.00000000000E+00 -0.45593999997E+02  0.45594000000E+02  0.51100000000E-03 0.  1.
         23    2    1    2    0    0  0.35527136788E-14  0.00000000000E+00  0.00000000000E+00  0.91188000000E+02  0.91188000000E+02 0.  0.
    9900012    2    3    3    0    0  0.22199743594E+02 -0.50653070131E+01  0.28936038903E+02  0.54367077984E+02  0.39999985879E+02 0.  0.
        -12    1    3    3    0    0 -0.22199743594E+02  0.50653070131E+01 -0.28936038903E+02  0.36820922016E+02  0.00000000000E+00 0.  1.
         11    1    4    4    0    0  0.33139453048E+02 -0.31415626466E+01  0.17495625128E+02  0.37605713170E+02  0.51100000000E-03 0. -1.
        -11    1    4    4    0    0 -0.98019287335E+01 -0.22905169808E+00  0.75744539282E+01  0.12389617595E+02  0.51100000000E-03 0.  1.
         12    1    4    4    0    0 -0.11377807203E+01 -0.16946926684E+01  0.38659598464E+01  0.43717472184E+01  0.00000000000E+00 0. -1.
</event>
<event>
 8    1  0.2553474E-006  0.9118800E+02  0.7816164E-02  0.1184000E+00
        -11   -1    0    0    0    0  0.00000000000E+00  0.00000000000E+00  0.45593999997E+02  0.45594000000E+02  0.51100000000E-03 0.  1.
         11   -1    0    0    0    0 -0.00000000000E+00 -0.00000000000E+00 -0.45593999997E+02  0.45594000000E+02  0.51100000000E-03 0. -1.
         23    2    1    2    0    0 -0.35527136788E-14 -0.35527136788E-14 -0.44408920985E-15  0.91188000000E+02  0.91188000000E+02 0.  0.
    9900012    2    3    3    0    0 -0.29578259180E+02 -0.21864717806E+02 -0.16855298796E+01  0.54367077798E+02  0.39999985456E+02 0.  0.
        -12    1    3    3    0    0  0.29578259180E+02  0.21864717806E+02  0.16855298796E+01  0.36820922202E+02  0.00000000000E+00 0.  1.
         11    1    4    4    0    0 -0.14249220807E+02 -0.25033536002E+02 -0.16388481405E+01  0.28851413169E+02  0.51100000000E-03 0. -1.
        -11    1    4    4    0    0 -0.16042672702E+00  0.67217718921E+01 -0.58284348468E+01  0.88982361808E+01  0.51100000000E-03 0.  1.
         12    1    4    4    0    0 -0.15168611645E+02 -0.35529536962E+01  0.57817531077E+01  0.16617428448E+02  0.00000000000E+00 0. -1.
</event>
<event>
 8    1  0.2553474E-006  0.9118800E+02  0.7816164E-02  0.1184000E+00
        -11   -1    0    0    0    0  0.00000000000E+00  0.00000000000E+00  0.45593999997E+02  0.45594000000E+02  0.51100000000E-03 0.  1.
         11   -1    0    0    0    0 -0.00000000000E+00 -0.00000000000E+00 -0.45593999997E+02  0.45594000000E+02  0.51100000000E-03 0. -1.
         23    2    1    2    0    0  0.00000000000E+00  0.71054273576E-14  0.88817841970E-15  0.91188000000E+02  0.91188000000E+02 0.  0.
    9900012    2    3    3    0    0  0.19102869754E+02  0.30894258138E+02 -0.60340423025E+01  0.54367021126E+02  0.39999856260E+02 0.  0.
        -12    1    3    3    0    0 -0.19102869754E+02 -0.30894258138E+02  0.60340423025E+01  0.36820978874E+02  0.00000000000E+00 0.  1.
         11    1    4    4    0    0 -0.58754088467E-01  0.10435513353E+02 -0.22812992190E+01  0.10682121389E+02  0.51100000000E-03 0. -1.
        -11    1    4    4    0    0  0.67735049558E+01  0.29361542961E+01 -0.16952928423E+02  0.18490623403E+02  0.51100000000E-03 0.  1.
        -12    1    4    4    0    0  0.12388118886E+02  0.17522590490E+02  0.13200185340E+02  0.25194276334E+02  0.00000000000E+00 0.  1.
</event>
<event>
 8    1  0.2553474E-006  0.9118800E+02  0.7816164E-02  0.1184000E+00
        -11   -1    0    0    0    0  0.00000000000E+00  0.00000000000E+00  0.45593999997E+02  0.45594000000E+02  0.51100000000E-03 0.  1.
         11   -1    0    0    0    0 -0.00000000000E+00 -0.00000000000E+00 -0.45593999997E+02  0.45594000000E+02  0.51100000000E-03 0. -1.
         23    2    1    2    0    0 -0.35527136788E-14 -0.35527136788E-14  0.00000000000E+00  0.91188000000E+02  0.91188000000E+02 0.  0.
    9900012    2    3    3    0    0 -0.19295775728E+02  0.21447685122E+02  0.22879033489E+02  0.54367077531E+02  0.39999984848E+02 0.  0.
         12    1    3    3    0    0  0.19295775728E+02 -0.21447685122E+02 -0.22879033489E+02  0.36820922469E+02  0.00000000000E+00 0. -1.
         11    1    4    4    0    0 -0.12885345125E+01 -0.23239952438E+01  0.15814236966E+02  0.16035939828E+02  0.51100000000E-03 0. -1.
        -11    1    4    4    0    0 -0.14424206725E+02  0.82515629618E+00  0.29057713750E+01  0.14737100465E+02  0.51100000000E-03 0.  1.
         12    1    4    4    0    0 -0.35830344900E+01  0.22946524070E+02  0.41590251485E+01  0.23594037239E+02  0.00000000000E+00 0. -1.
</event>
<event>
 8    1  0.2553474E-006  0.9118800E+02  0.7816164E-02  0.1184000E+00
        -11   -1    0    0    0    0  0.00000000000E+00  0.00000000000E+00  0.45593999997E+02  0.45594000000E+02  0.51100000000E-03 0.  1.
         11   -1    0    0    0    0 -0.00000000000E+00 -0.00000000000E+00 -0.45593999997E+02  0.45594000000E+02  0.51100000000E-03 0. -1.
         23    2    1    2    0    0  0.71054273576E-14  0.00000000000E+00 -0.17763568394E-14  0.91188000000E+02  0.91188000000E+02 0.  0.
    9900012    2    3    3    0    0 -0.35942343854E+02 -0.69971578397E+01  0.38690054955E+01  0.54367061622E+02  0.39999948579E+02 0.  0.
        -12    1    3    3    0    0  0.35942343854E+02  0.69971578397E+01 -0.38690054955E+01  0.36820938378E+02  0.00000000000E+00 0.  1.
         11    1    4    4    0    0 -0.15198580214E+02  0.30545317173E+01  0.38374309471E+01  0.15970375107E+02  0.51100000000E-03 0. -1.
        -11    1    4    4    0    0 -0.70717973030E+01 -0.65164172872E+01  0.15000247408E+02  0.17818008697E+02  0.51100000000E-03 0.  1.
         12    1    4    4    0    0 -0.13671966337E+02 -0.35352722698E+01 -0.14968672860E+02  0.20578677818E+02  0.00000000000E+00 0. -1.
</event>
<event>
 8    1  0.2553474E-006  0.9118800E+02  0.7816164E-02  0.1184000E+00
        -11   -1    0    0    0    0  0.00000000000E+00  0.00000000000E+00  0.45593999997E+02  0.45594000000E+02  0.51100000000E-03 0. -1.
         11   -1    0    0    0    0 -0.00000000000E+00 -0.00000000000E+00 -0.45593999997E+02  0.45594000000E+02  0.51100000000E-03 0.  1.
         23    2    1    2    0    0 -0.17763568394E-14  0.00000000000E+00  0.00000000000E+00  0.91188000000E+02  0.91188000000E+02 0.  0.
    9900012    2    3    3    0    0 -0.95370561290E+01  0.20757035822E+02 -0.28878523049E+02  0.54367094672E+02  0.40000023924E+02 0.  0.
         12    1    3    3    0    0  0.95370561290E+01 -0.20757035822E+02  0.28878523049E+02  0.36820905328E+02  0.00000000000E+00 0. -1.
         11    1    4    4    0    0  0.56480012021E+01  0.98058045575E+01 -0.66673116315E+01  0.13134183083E+02  0.51100000000E-03 0. -1.
        -11    1    4    4    0    0 -0.22438386851E+02  0.17256086950E+01 -0.11188385063E+02  0.25132427070E+02  0.51100000000E-03 0.  1.
        -12    1    4    4    0    0  0.72533295203E+01  0.92256225690E+01 -0.11022826354E+02  0.16100484519E+02  0.00000000000E+00 0.  1.
</event>
<event>
 8    1  0.2553474E-006  0.9118800E+02  0.7816164E-02  0.1184000E+00
        -11   -1    0    0    0    0  0.00000000000E+00  0.00000000000E+00  0.45593999997E+02  0.45594000000E+02  0.51100000000E-03 0.  1.
         11   -1    0    0    0    0 -0.00000000000E+00 -0.00000000000E+00 -0.45593999997E+02  0.45594000000E+02  0.51100000000E-03 0. -1.
         23    2    1    2    0    0  0.35527136788E-14 -0.35527136788E-14  0.00000000000E+00  0.91188000000E+02  0.91188000000E+02 0.  0.
    9900012    2    3    3    0    0 -0.20721768092E+02 -0.17596487555E+02  0.24834494390E+02  0.54367079877E+02  0.39999990195E+02 0.  0.
         12    1    3    3    0    0  0.20721768092E+02  0.17596487555E+02 -0.24834494390E+02  0.36820920123E+02  0.00000000000E+00 0. -1.
         11    1    4    4    0    0 -0.80753965834E+00 -0.11250621776E+02 -0.38371170802E+01  0.11914364372E+02  0.51100000000E-03 0. -1.
        -11    1    4    4    0    0  0.36076979702E+01  0.41801004440E+01  0.45460127642E+01  0.71522693377E+01  0.51100000000E-03 0.  1.
        -12    1    4    4    0    0 -0.23521926404E+02 -0.10525966223E+02  0.24125598706E+02  0.35300446167E+02  0.00000000000E+00 0.  1.
</event>
<event>
 8    1  0.2553474E-006  0.9118800E+02  0.7816164E-02  0.1184000E+00
        -11   -1    0    0    0    0  0.00000000000E+00  0.00000000000E+00  0.45593999997E+02  0.45594000000E+02  0.51100000000E-03 0. -1.
         11   -1    0    0    0    0 -0.00000000000E+00 -0.00000000000E+00 -0.45593999997E+02  0.45594000000E+02  0.51100000000E-03 0.  1.
         23    2    1    2    0    0  0.00000000000E+00  0.00000000000E+00  0.88817841970E-15  0.91188000000E+02  0.91188000000E+02 0.  0.
    9900012    2    3    3    0    0  0.12165073077E+02  0.34075834119E+02  0.68285338504E+01  0.54367077300E+02  0.39999984321E+02 0.  0.
        -12    1    3    3    0    0 -0.12165073077E+02 -0.34075834119E+02 -0.68285338504E+01  0.36820922700E+02  0.00000000000E+00 0.  1.
         11    1    4    4    0    0  0.96299985953E+01  0.77474612892E+00  0.90048318673E+01  0.13206971709E+02  0.51100000000E-03 0. -1.
        -11    1    4    4    0    0  0.93209524710E+01  0.16585078678E+02 -0.10003396882E+02  0.21494486250E+02  0.51100000000E-03 0.  1.
        -12    1    4    4    0    0 -0.67858779888E+01  0.16716009313E+02  0.78270988651E+01  0.19665619341E+02  0.00000000000E+00 0.  1.
</event>
<event>
 8    1  0.2553474E-006  0.9118800E+02  0.7816164E-02  0.1184000E+00
        -11   -1    0    0    0    0  0.00000000000E+00  0.00000000000E+00  0.45593999997E+02  0.45594000000E+02  0.51100000000E-03 0. -1.
         11   -1    0    0    0    0 -0.00000000000E+00 -0.00000000000E+00 -0.45593999997E+02  0.45594000000E+02  0.51100000000E-03 0.  1.
         23    2    1    2    0    0  0.35527136788E-14  0.00000000000E+00  0.35527136788E-14  0.91188000000E+02  0.91188000000E+02 0.  0.
    9900012    2    3    3    0    0 -0.11558613740E+02 -0.22894943973E+02 -0.26419659429E+02  0.54367103549E+02  0.40000044161E+02 0.  0.
         12    1    3    3    0    0  0.11558613740E+02  0.22894943973E+02  0.26419659429E+02  0.36820896451E+02  0.00000000000E+00 0. -1.
         11    1    4    4    0    0  0.78137769909E+01 -0.34744761833E+01 -0.48779302203E+01  0.98448615586E+01  0.51100000000E-03 0. -1.
        -11    1    4    4    0    0 -0.13462584610E+01  0.47621268076E+01 -0.11849466603E+02  0.12841344268E+02  0.51100000000E-03 0.  1.
        -12    1    4    4    0    0 -0.18026132270E+02 -0.24182594597E+02 -0.96922626056E+01  0.31680897722E+02  0.00000000000E+00 0.  1.
</event>
<event>
 8    1  0.2553474E-006  0.9118800E+02  0.7816164E-02  0.1184000E+00
        -11   -1    0    0    0    0  0.00000000000E+00  0.00000000000E+00  0.45593999997E+02  0.45594000000E+02  0.51100000000E-03 0.  1.
         11   -1    0    0    0    0 -0.00000000000E+00 -0.00000000000E+00 -0.45593999997E+02  0.45594000000E+02  0.51100000000E-03 0. -1.
         23    2    1    2    0    0 -0.44408920985E-15  0.35527136788E-14  0.00000000000E+00  0.91188000000E+02  0.91188000000E+02 0.  0.
    9900012    2    3    3    0    0  0.26200604599E+01  0.17084602941E+02  0.32511954126E+02  0.54367142656E+02  0.40000133313E+02 0.  0.
         12    1    3    3    0    0 -0.26200604599E+01 -0.17084602941E+02 -0.32511954126E+02  0.36820857344E+02  0.00000000000E+00 0. -1.
         11    1    4    4    0    0 -0.10990091994E+02  0.38883433303E+01  0.37898475388E+01  0.12258233173E+02  0.51100000000E-03 0. -1.
        -11    1    4    4    0    0  0.10223379118E+02  0.46050951106E+00  0.26930387343E+02  0.28809292118E+02  0.51100000000E-03 0.  1.
         12    1    4    4    0    0  0.33867733355E+01  0.12735750100E+02  0.17917192434E+01  0.13299617366E+02  0.00000000000E+00 0. -1.
</event>
<event>
 8    1  0.2553474E-006  0.9118800E+02  0.7816164E-02  0.1184000E+00
        -11   -1    0    0    0    0  0.00000000000E+00  0.00000000000E+00  0.45593999997E+02  0.45594000000E+02  0.51100000000E-03 0. -1.
         11   -1    0    0    0    0 -0.00000000000E+00 -0.00000000000E+00 -0.45593999997E+02  0.45594000000E+02  0.51100000000E-03 0.  1.
         23    2    1    2    0    0  0.00000000000E+00  0.88817841970E-15 -0.35527136788E-14  0.91188000000E+02  0.91188000000E+02 0.  0.
    9900012    2    3    3    0    0  0.20708058009E+02 -0.50783580476E+01 -0.30019442953E+02  0.54367077386E+02  0.39999984516E+02 0.  0.
         12    1    3    3    0    0 -0.20708058009E+02  0.50783580476E+01  0.30019442953E+02  0.36820922614E+02  0.00000000000E+00 0. -1.
         11    1    4    4    0    0  0.74964549632E+00  0.10857352033E+00 -0.34256903902E+01  0.35084343360E+01  0.51100000000E-03 0. -1.
        -11    1    4    4    0    0  0.24622319959E+02  0.10093531089E+02 -0.21110500151E+02  0.33967502512E+02  0.51100000000E-03 0.  1.
         12    1    4    4    0    0 -0.46639074458E+01 -0.15280462657E+02 -0.54832524112E+01  0.16891140538E+02  0.00000000000E+00 0. -1.
</event>
<event>
 8    1  0.2553474E-006  0.9118800E+02  0.7816164E-02  0.1184000E+00
        -11   -1    0    0    0    0  0.00000000000E+00  0.00000000000E+00  0.45593999997E+02  0.45594000000E+02  0.51100000000E-03 0.  1.
         11   -1    0    0    0    0 -0.00000000000E+00 -0.00000000000E+00 -0.45593999997E+02  0.45594000000E+02  0.51100000000E-03 0. -1.
         23    2    1    2    0    0  0.35527136788E-14  0.00000000000E+00 -0.35527136788E-14  0.91188000000E+02  0.91188000000E+02 0.  0.
    9900012    2    3    3    0    0  0.27965372853E+02  0.17751405614E+02  0.16081172555E+02  0.54367101168E+02  0.40000038732E+02 0.  0.
         12    1    3    3    0    0 -0.27965372853E+02 -0.17751405614E+02 -0.16081172555E+02  0.36820898832E+02  0.00000000000E+00 0. -1.
         11    1    4    4    0    0  0.25609214544E+01  0.49863493673E+00 -0.50481450410E+01  0.56824927727E+01  0.51100000000E-03 0. -1.
        -11    1    4    4    0    0  0.17398447028E+02 -0.57315007626E+01  0.35444640961E+01  0.18657955032E+02  0.51100000000E-03 0.  1.
        -12    1    4    4    0    0  0.80060043702E+01  0.22984271440E+02  0.17584853500E+02  0.30026653363E+02  0.00000000000E+00 0.  1.
</event>
<event>
 8    1  0.2553474E-006  0.9118800E+02  0.7816164E-02  0.1184000E+00
        -11   -1    0    0    0    0  0.00000000000E+00  0.00000000000E+00  0.45593999997E+02  0.45594000000E+02  0.51100000000E-03 0. -1.
         11   -1    0    0    0    0 -0.00000000000E+00 -0.00000000000E+00 -0.45593999997E+02  0.45594000000E+02  0.51100000000E-03 0.  1.
         23    2    1    2    0    0  0.35527136788E-14 -0.17763568394E-14  0.35527136788E-14  0.91188000000E+02  0.91188000000E+02 0.  0.
    9900012    2    3    3    0    0 -0.20976713969E+02  0.10764860244E+02 -0.28282054048E+02  0.54367091182E+02  0.40000015967E+02 0.  0.
         12    1    3    3    0    0  0.20976713969E+02 -0.10764860244E+02  0.28282054048E+02  0.36820908818E+02  0.00000000000E+00 0. -1.
         11    1    4    4    0    0  0.54397157527E+00  0.17973999549E+02 -0.17772634037E+02  0.25282940607E+02  0.51100000000E-03 0. -1.
        -11    1    4    4    0    0 -0.38583119986E+01 -0.76965864420E+01 -0.69394092515E+01  0.11058002322E+02  0.51100000000E-03 0.  1.
         12    1    4    4    0    0 -0.17662373546E+02  0.48744713668E+00 -0.35700107596E+01  0.18026148252E+02  0.00000000000E+00 0. -1.
</event>
<event>
 8    1  0.2644505E-006  0.9118800E+02  0.7816164E-02  0.1184000E+00
        -11   -1    0    0    0    0  0.00000000000E+00  0.00000000000E+00  0.45593999997E+02  0.45594000000E+02  0.51100000000E-03 0. -1.
         11   -1    0    0    0    0 -0.00000000000E+00 -0.00000000000E+00 -0.45593999997E+02  0.45594000000E+02  0.51100000000E-03 0.  1.
         23    2    1    2    0    0  0.00000000000E+00  0.88817841970E-15  0.00000000000E+00  0.91188000000E+02  0.91188000000E+02 0.  0.
    9900012    2    3    3    0    0 -0.16250897099E+02  0.25680551896E+01  0.32940741496E+02  0.54367095417E+02  0.40000025622E+02 0.  0.
        -12    1    3    3    0    0  0.16250897099E+02 -0.25680551896E+01 -0.32940741496E+02  0.36820904583E+02  0.00000000000E+00 0.  1.
         11    1    4    4    0    0 -0.57241535867E+01  0.15128252735E+02  0.22365796425E+02  0.27601790071E+02  0.51100000000E-03 0. -1.
        -11    1    4    4    0    0 -0.10805338449E+02  0.10511869660E+01  0.59932956584E+01  0.12400803447E+02  0.51100000000E-03 0.  1.
        -12    1    4    4    0    0  0.27859493667E+00 -0.13611384512E+02  0.45816494129E+01  0.14364501899E+02  0.00000000000E+00 0.  1.
</event>
<event>
 8    1  0.2699111E-006  0.9118800E+02  0.7816164E-02  0.1184000E+00
        -11   -1    0    0    0    0  0.00000000000E+00  0.00000000000E+00  0.45593999997E+02  0.45594000000E+02  0.51100000000E-03 0.  1.
         11   -1    0    0    0    0 -0.00000000000E+00 -0.00000000000E+00 -0.45593999997E+02  0.45594000000E+02  0.51100000000E-03 0. -1.
         23    2    1    2    0    0 -0.35527136788E-14 -0.35527136788E-14  0.35527136788E-14  0.91188000000E+02  0.91188000000E+02 0.  0.
    9900012    2    3    3    0    0  0.12842637488E+02 -0.22439291400E+02  0.26216973635E+02  0.54367016271E+02  0.39999845193E+02 0.  0.
         12    1    3    3    0    0 -0.12842637488E+02  0.22439291400E+02 -0.26216973635E+02  0.36820983729E+02  0.00000000000E+00 0. -1.
         11    1    4    4    0    0 -0.43791887179E+01 -0.38914743696E+01  0.12027053951E+02  0.13378000358E+02  0.51100000000E-03 0. -1.
        -11    1    4    4    0    0  0.86751835603E+00 -0.13781948471E+02  0.18814002086E+02  0.23337981200E+02  0.51100000000E-03 0.  1.
         12    1    4    4    0    0  0.16354307849E+02 -0.47658685596E+01 -0.46240824017E+01  0.17651034712E+02  0.00000000000E+00 0. -1.
</event>
<event>
 8    1  0.2553474E-006  0.9118800E+02  0.7816164E-02  0.1184000E+00
        -11   -1    0    0    0    0  0.00000000000E+00  0.00000000000E+00  0.45593999997E+02  0.45594000000E+02  0.51100000000E-03 0.  1.
         11   -1    0    0    0    0 -0.00000000000E+00 -0.00000000000E+00 -0.45593999997E+02  0.45594000000E+02  0.51100000000E-03 0. -1.
         23    2    1    2    0    0  0.88817841970E-15  0.00000000000E+00  0.00000000000E+00  0.91188000000E+02  0.91188000000E+02 0.  0.
    9900012    2    3    3    0    0 -0.70526353895E+01  0.34205250090E+02  0.11663656679E+02  0.54367086286E+02  0.40000004805E+02 0.  0.
         12    1    3    3    0    0  0.70526353895E+01 -0.34205250090E+02 -0.11663656679E+02  0.36820913714E+02  0.00000000000E+00 0. -1.
         11    1    4    4    0    0 -0.42305670566E+01 -0.53033230869E+01 -0.47196472138E+01  0.82642606123E+01  0.51100000000E-03 0. -1.
        -11    1    4    4    0    0 -0.88017702295E+01  0.26390807506E+02  0.15037041778E+02  0.31623701644E+02  0.51100000000E-03 0.  1.
        -12    1    4    4    0    0  0.59797018965E+01  0.13117765671E+02  0.13462621144E+01  0.14479124029E+02  0.00000000000E+00 0.  1.
</event>
<event>
 8    1  0.2553474E-006  0.9118800E+02  0.7816164E-02  0.1184000E+00
        -11   -1    0    0    0    0  0.00000000000E+00  0.00000000000E+00  0.45593999997E+02  0.45594000000E+02  0.51100000000E-03 0.  1.
         11   -1    0    0    0    0 -0.00000000000E+00 -0.00000000000E+00 -0.45593999997E+02  0.45594000000E+02  0.51100000000E-03 0. -1.
         23    2    1    2    0    0 -0.35527136788E-14 -0.88817841970E-15 -0.35527136788E-14  0.91188000000E+02  0.91188000000E+02 0.  0.
    9900012    2    3    3    0    0 -0.22937120454E+02 -0.50715899994E+01 -0.28353978544E+02  0.54367073625E+02  0.39999975942E+02 0.  0.
        -12    1    3    3    0    0  0.22937120454E+02  0.50715899994E+01  0.28353978544E+02  0.36820926375E+02  0.00000000000E+00 0.  1.
         11    1    4    4    0    0 -0.25196642227E+02 -0.18579890525E+01 -0.63337319354E+01  0.26046862831E+02  0.51100000000E-03 0. -1.
        -11    1    4    4    0    0  0.43228102819E+01 -0.88748489896E+01 -0.69013808219E+01  0.12044861595E+02  0.51100000000E-03 0.  1.
         12    1    4    4    0    0 -0.20632885094E+01  0.56612480428E+01 -0.15118865787E+02  0.16275349199E+02  0.00000000000E+00 0. -1.
</event>
<event>
 8    1  0.2553474E-006  0.9118800E+02  0.7816164E-02  0.1184000E+00
        -11   -1    0    0    0    0  0.00000000000E+00  0.00000000000E+00  0.45593999997E+02  0.45594000000E+02  0.51100000000E-03 0.  1.
         11   -1    0    0    0    0 -0.00000000000E+00 -0.00000000000E+00 -0.45593999997E+02  0.45594000000E+02  0.51100000000E-03 0. -1.
         23    2    1    2    0    0  0.35527136788E-14  0.17763568394E-14  0.00000000000E+00  0.91188000000E+02  0.91188000000E+02 0.  0.
    9900012    2    3    3    0    0  0.27733451282E+02 -0.60697329198E+01  0.23447708222E+02  0.54367068472E+02  0.39999964195E+02 0.  0.
         12    1    3    3    0    0 -0.27733451282E+02  0.60697329198E+01 -0.23447708222E+02  0.36820931528E+02  0.00000000000E+00 0. -1.
         11    1    4    4    0    0 -0.46020993426E+00 -0.52611274381E+00  0.83502765260E+01  0.83794812563E+01  0.51100000000E-03 0. -1.
        -11    1    4    4    0    0  0.10315864277E+02  0.88669628818E+01 -0.59416758165E+01  0.14843975152E+02  0.51100000000E-03 0.  1.
        -12    1    4    4    0    0  0.17877796939E+02 -0.14410583058E+02  0.21039107513E+02  0.31143612064E+02  0.00000000000E+00 0.  1.
</event>
<event>
 8    1  0.2553474E-006  0.9118800E+02  0.7816164E-02  0.1184000E+00
        -11   -1    0    0    0    0  0.00000000000E+00  0.00000000000E+00  0.45593999997E+02  0.45594000000E+02  0.51100000000E-03 0. -1.
         11   -1    0    0    0    0 -0.00000000000E+00 -0.00000000000E+00 -0.45593999997E+02  0.45594000000E+02  0.51100000000E-03 0.  1.
         23    2    1    2    0    0  0.00000000000E+00 -0.71054273576E-14  0.00000000000E+00  0.91188000000E+02  0.91188000000E+02 0.  0.
    9900012    2    3    3    0    0 -0.12004219682E+02 -0.32727823986E+02  0.11856184924E+02  0.54367070164E+02  0.39999968054E+02 0.  0.
        -12    1    3    3    0    0  0.12004219682E+02  0.32727823986E+02 -0.11856184924E+02  0.36820929836E+02  0.00000000000E+00 0.  1.
         11    1    4    4    0    0 -0.10813554031E+01 -0.78251646419E+00  0.49789667969E+01  0.51547814843E+01  0.51100000000E-03 0. -1.
        -11    1    4    4    0    0 -0.15957091589E+02 -0.66850223550E-01  0.56074697432E+01  0.16913809687E+02  0.51100000000E-03 0.  1.
        -12    1    4    4    0    0  0.50342273107E+01 -0.31878457298E+02  0.12697483840E+01  0.32298478993E+02  0.00000000000E+00 0.  1.
</event>
<event>
 8    1  0.2553474E-006  0.9118800E+02  0.7816164E-02  0.1184000E+00
        -11   -1    0    0    0    0  0.00000000000E+00  0.00000000000E+00  0.45593999997E+02  0.45594000000E+02  0.51100000000E-03 0. -1.
         11   -1    0    0    0    0 -0.00000000000E+00 -0.00000000000E+00 -0.45593999997E+02  0.45594000000E+02  0.51100000000E-03 0.  1.
         23    2    1    2    0    0  0.00000000000E+00  0.00000000000E+00  0.00000000000E+00  0.91188000000E+02  0.91188000000E+02 0.  0.
    9900012    2    3    3    0    0  0.14504321640E+02 -0.17787613639E+02 -0.28792443076E+02  0.54367091219E+02  0.40000016052E+02 0.  0.
         12    1    3    3    0    0 -0.14504321640E+02  0.17787613639E+02  0.28792443076E+02  0.36820908781E+02  0.00000000000E+00 0. -1.
         11    1    4    4    0    0  0.44694104214E+01  0.63552603466E+01 -0.12110334010E+02  0.14388368694E+02  0.51100000000E-03 0. -1.
        -11    1    4    4    0    0 -0.16808081306E+01 -0.64411306492E+01 -0.17512393507E+02  0.18734919446E+02  0.51100000000E-03 0.  1.
         12    1    4    4    0    0  0.11715719349E+02 -0.17701743336E+02  0.83028444151E+00  0.21243803079E+02  0.00000000000E+00 0. -1.
</event>
<event>
 8    1  0.2553474E-006  0.9118800E+02  0.7816164E-02  0.1184000E+00
        -11   -1    0    0    0    0  0.00000000000E+00  0.00000000000E+00  0.45593999997E+02  0.45594000000E+02  0.51100000000E-03 0. -1.
         11   -1    0    0    0    0 -0.00000000000E+00 -0.00000000000E+00 -0.45593999997E+02  0.45594000000E+02  0.51100000000E-03 0.  1.
         23    2    1    2    0    0  0.00000000000E+00  0.00000000000E+00  0.00000000000E+00  0.91188000000E+02  0.91188000000E+02 0.  0.
    9900012    2    3    3    0    0 -0.11470546573E+02 -0.34176780707E+02  0.74935423665E+01  0.54367096217E+02  0.40000027447E+02 0.  0.
        -12    1    3    3    0    0  0.11470546573E+02  0.34176780707E+02 -0.74935423665E+01  0.36820903783E+02  0.00000000000E+00 0.  1.
         11    1    4    4    0    0 -0.19713976237E+02 -0.24233501088E+02  0.60531496129E+00  0.31245317098E+02  0.51100000000E-03 0. -1.
        -11    1    4    4    0    0  0.58273195180E+01  0.44602025396E+01  0.34947373981E+01  0.81279917077E+01  0.51100000000E-03 0.  1.
        -12    1    4    4    0    0  0.24161101463E+01 -0.14403482158E+02  0.33934900071E+01  0.14993787412E+02  0.00000000000E+00 0.  1.
</event>
<event>
 8    1  0.2553474E-006  0.9118800E+02  0.7816164E-02  0.1184000E+00
        -11   -1    0    0    0    0  0.00000000000E+00  0.00000000000E+00  0.45593999997E+02  0.45594000000E+02  0.51100000000E-03 0. -1.
         11   -1    0    0    0    0 -0.00000000000E+00 -0.00000000000E+00 -0.45593999997E+02  0.45594000000E+02  0.51100000000E-03 0.  1.
         23    2    1    2    0    0 -0.44408920985E-15  0.00000000000E+00  0.88817841970E-15  0.91188000000E+02  0.91188000000E+02 0.  0.
    9900012    2    3    3    0    0 -0.37373794113E+01 -0.36164294393E+02  0.58267653973E+01  0.54367144648E+02  0.40000137855E+02 0.  0.
        -12    1    3    3    0    0  0.37373794113E+01  0.36164294393E+02 -0.58267653973E+01  0.36820855352E+02  0.00000000000E+00 0.  1.
         11    1    4    4    0    0 -0.11357867142E+02 -0.76781825625E+01  0.27867009482E+01  0.13990044171E+02  0.51100000000E-03 0. -1.
        -11    1    4    4    0    0  0.62430832946E-01 -0.66490696471E+01 -0.11350321799E+02  0.13154612498E+02  0.51100000000E-03 0.  1.
        -12    1    4    4    0    0  0.75580568978E+01 -0.21837042184E+02  0.14390386248E+02  0.27222487979E+02  0.00000000000E+00 0.  1.
</event>
<event>
 8    1  0.2553474E-006  0.9118800E+02  0.7816164E-02  0.1184000E+00
        -11   -1    0    0    0    0  0.00000000000E+00  0.00000000000E+00  0.45593999997E+02  0.45594000000E+02  0.51100000000E-03 0. -1.
         11   -1    0    0    0    0 -0.00000000000E+00 -0.00000000000E+00 -0.45593999997E+02  0.45594000000E+02  0.51100000000E-03 0.  1.
         23    2    1    2    0    0  0.00000000000E+00  0.00000000000E+00  0.00000000000E+00  0.91188000000E+02  0.91188000000E+02 0.  0.
    9900012    2    3    3    0    0  0.22599640749E+01  0.34075983076E+02  0.13765982962E+02  0.54367050160E+02  0.39999922449E+02 0.  0.
        -12    1    3    3    0    0 -0.22599640749E+01 -0.34075983076E+02 -0.13765982962E+02  0.36820949840E+02  0.00000000000E+00 0.  1.
         11    1    4    4    0    0 -0.74890895543E+01  0.22213485259E+02 -0.90440548245E+01  0.25126088387E+02  0.51100000000E-03 0. -1.
        -11    1    4    4    0    0  0.10603051128E+02  0.76125388040E+01  0.12570443169E+02  0.18121575041E+02  0.51100000000E-03 0.  1.
         12    1    4    4    0    0 -0.85399749870E+00  0.42499590132E+01  0.10239594617E+02  0.11119386731E+02  0.00000000000E+00 0. -1.
</event>
<event>
 8    1  0.2553474E-006  0.9118800E+02  0.7816164E-02  0.1184000E+00
        -11   -1    0    0    0    0  0.00000000000E+00  0.00000000000E+00  0.45593999997E+02  0.45594000000E+02  0.51100000000E-03 0.  1.
         11   -1    0    0    0    0 -0.00000000000E+00 -0.00000000000E+00 -0.45593999997E+02  0.45594000000E+02  0.51100000000E-03 0. -1.
         23    2    1    2    0    0  0.00000000000E+00  0.17763568394E-14  0.00000000000E+00  0.91188000000E+02  0.91188000000E+02 0.  0.
    9900012    2    3    3    0    0 -0.26175694574E+02 -0.15562942212E+02  0.20697997024E+02  0.54367092386E+02  0.40000018712E+02 0.  0.
         12    1    3    3    0    0  0.26175694574E+02  0.15562942212E+02 -0.20697997024E+02  0.36820907614E+02  0.00000000000E+00 0. -1.
         11    1    4    4    0    0 -0.18743618766E+02 -0.27615637988E+01  0.19187301676E+02  0.26964829406E+02  0.51100000000E-03 0. -1.
        -11    1    4    4    0    0 -0.66490195544E+01 -0.90048914112E+01  0.11885608749E+02  0.16326825348E+02  0.51100000000E-03 0.  1.
         12    1    4    4    0    0 -0.78305625402E+00 -0.37964870025E+01 -0.10374913401E+02  0.11075437631E+02  0.00000000000E+00 0. -1.
</event>
<event>
 8    1  0.2553474E-006  0.9118800E+02  0.7816164E-02  0.1184000E+00
        -11   -1    0    0    0    0  0.00000000000E+00  0.00000000000E+00  0.45593999997E+02  0.45594000000E+02  0.51100000000E-03 0. -1.
         11   -1    0    0    0    0 -0.00000000000E+00 -0.00000000000E+00 -0.45593999997E+02  0.45594000000E+02  0.51100000000E-03 0.  1.
         23    2    1    2    0    0  0.00000000000E+00  0.17763568394E-14 -0.35527136788E-14  0.91188000000E+02  0.91188000000E+02 0.  0.
    9900012    2    3    3    0    0  0.22241472204E+02  0.48381383104E+01 -0.28942861591E+02  0.54367083320E+02  0.39999998044E+02 0.  0.
         12    1    3    3    0    0 -0.22241472204E+02 -0.48381383104E+01  0.28942861591E+02  0.36820916680E+02  0.00000000000E+00 0. -1.
         11    1    4    4    0    0  0.12612178578E+02  0.13804747825E+02 -0.18939776072E+02  0.26614906141E+02  0.51100000000E-03 0. -1.
        -11    1    4    4    0    0 -0.15841971368E+01  0.47720423974E+01  0.29150354618E+01  0.58120135250E+01  0.51100000000E-03 0.  1.
        -12    1    4    4    0    0  0.11213490763E+02 -0.13738651912E+02 -0.12918120981E+02  0.21940163653E+02  0.00000000000E+00 0.  1.
</event>
<event>
 8    1  0.2553474E-006  0.9118800E+02  0.7816164E-02  0.1184000E+00
        -11   -1    0    0    0    0  0.00000000000E+00  0.00000000000E+00  0.45593999997E+02  0.45594000000E+02  0.51100000000E-03 0. -1.
         11   -1    0    0    0    0 -0.00000000000E+00 -0.00000000000E+00 -0.45593999997E+02  0.45594000000E+02  0.51100000000E-03 0.  1.
         23    2    1    2    0    0  0.00000000000E+00  0.00000000000E+00 -0.88817841970E-15  0.91188000000E+02  0.91188000000E+02 0.  0.
    9900012    2    3    3    0    0  0.17600534374E+02 -0.31780950382E+02 -0.59977029288E+01  0.54367081247E+02  0.39999993318E+02 0.  0.
         12    1    3    3    0    0 -0.17600534374E+02  0.31780950382E+02  0.59977029288E+01  0.36820918753E+02  0.00000000000E+00 0. -1.
         11    1    4    4    0    0  0.74525693258E+01 -0.23875074502E+02 -0.70816099642E+01  0.25994406552E+02  0.51100000000E-03 0. -1.
        -11    1    4    4    0    0  0.12441105704E+02 -0.23185211382E+01 -0.97455806907E+01  0.15972883104E+02  0.51100000000E-03 0.  1.
         12    1    4    4    0    0 -0.22931406557E+01 -0.55873547414E+01  0.10829487726E+02  0.12399791590E+02  0.00000000000E+00 0. -1.
</event>
<event>
 8    1  0.2553474E-006  0.9118800E+02  0.7816164E-02  0.1184000E+00
        -11   -1    0    0    0    0  0.00000000000E+00  0.00000000000E+00  0.45593999997E+02  0.45594000000E+02  0.51100000000E-03 0.  1.
         11   -1    0    0    0    0 -0.00000000000E+00 -0.00000000000E+00 -0.45593999997E+02  0.45594000000E+02  0.51100000000E-03 0. -1.
         23    2    1    2    0    0 -0.35527136788E-14  0.00000000000E+00 -0.35527136788E-14  0.91188000000E+02  0.91188000000E+02 0.  0.
    9900012    2    3    3    0    0  0.17099891180E+02  0.19831821161E+02  0.25885793702E+02  0.54367058614E+02  0.39999941723E+02 0.  0.
         12    1    3    3    0    0 -0.17099891180E+02 -0.19831821161E+02 -0.25885793702E+02  0.36820941386E+02  0.00000000000E+00 0. -1.
         11    1    4    4    0    0 -0.60529838951E+01  0.86133327718E+01  0.27015441222E+01  0.10868599559E+02  0.51100000000E-03 0. -1.
        -11    1    4    4    0    0 -0.18336280215E+01 -0.58167916225E+01  0.66853334490E+01  0.90493613082E+01  0.51100000000E-03 0.  1.
        -12    1    4    4    0    0  0.24986503097E+02  0.17035280012E+02  0.16498916131E+02  0.34449097747E+02  0.00000000000E+00 0.  1.
</event>
<event>
 8    1  0.2553474E-006  0.9118800E+02  0.7816164E-02  0.1184000E+00
        -11   -1    0    0    0    0  0.00000000000E+00  0.00000000000E+00  0.45593999997E+02  0.45594000000E+02  0.51100000000E-03 0.  1.
         11   -1    0    0    0    0 -0.00000000000E+00 -0.00000000000E+00 -0.45593999997E+02  0.45594000000E+02  0.51100000000E-03 0. -1.
         23    2    1    2    0    0  0.35527136788E-14  0.35527136788E-14  0.00000000000E+00  0.91188000000E+02  0.91188000000E+02 0.  0.
    9900012    2    3    3    0    0 -0.17766263146E+02 -0.28707339133E+02 -0.14697910408E+02  0.54367082078E+02  0.39999995213E+02 0.  0.
        -12    1    3    3    0    0  0.17766263146E+02  0.28707339133E+02  0.14697910408E+02  0.36820917922E+02  0.00000000000E+00 0.  1.
         11    1    4    4    0    0  0.15132814620E+01 -0.11955082193E+02 -0.27465128611E+01  0.12359504205E+02  0.51100000000E-03 0. -1.
        -11    1    4    4    0    0 -0.16623921140E+02  0.56592265128E+01 -0.34835190373E+01  0.17902974723E+02  0.51100000000E-03 0.  1.
        -12    1    4    4    0    0 -0.26556234674E+01 -0.22411483453E+02 -0.84678785093E+01  0.24104603150E+02  0.00000000000E+00 0.  1.
</event>
<event>
 8    1  0.2553474E-006  0.9118800E+02  0.7816164E-02  0.1184000E+00
        -11   -1    0    0    0    0  0.00000000000E+00  0.00000000000E+00  0.45593999997E+02  0.45594000000E+02  0.51100000000E-03 0.  1.
         11   -1    0    0    0    0 -0.00000000000E+00 -0.00000000000E+00 -0.45593999997E+02  0.45594000000E+02  0.51100000000E-03 0. -1.
         23    2    1    2    0    0 -0.88817841970E-15 -0.44408920985E-15  0.00000000000E+00  0.91188000000E+02  0.91188000000E+02 0.  0.
    9900012    2    3    3    0    0 -0.78425648093E+01  0.37106636588E+01  0.35784151499E+02  0.54367077332E+02  0.39999984394E+02 0.  0.
         12    1    3    3    0    0  0.78425648093E+01 -0.37106636588E+01 -0.35784151499E+02  0.36820922668E+02  0.00000000000E+00 0. -1.
         11    1    4    4    0    0  0.66999233407E+01  0.32599475669E+01  0.20156355524E+01  0.77187445774E+01  0.51100000000E-03 0. -1.
        -11    1    4    4    0    0  0.37514085091E+01 -0.53497545621E+01 -0.13092035380E+01  0.66638542783E+01  0.51100000000E-03 0.  1.
        -12    1    4    4    0    0 -0.18293896659E+02  0.58004706540E+01  0.35077719485E+02  0.39984478477E+02  0.00000000000E+00 0.  1.
</event>
<event>
 8    1  0.2553474E-006  0.9118800E+02  0.7816164E-02  0.1184000E+00
        -11   -1    0    0    0    0  0.00000000000E+00  0.00000000000E+00  0.45593999997E+02  0.45594000000E+02  0.51100000000E-03 0. -1.
         11   -1    0    0    0    0 -0.00000000000E+00 -0.00000000000E+00 -0.45593999997E+02  0.45594000000E+02  0.51100000000E-03 0.  1.
         23    2    1    2    0    0  0.44408920985E-15  0.00000000000E+00 -0.35527136788E-14  0.91188000000E+02  0.91188000000E+02 0.  0.
    9900012    2    3    3    0    0 -0.19657511319E+00 -0.27300830913E+02 -0.24706554051E+02  0.54366975796E+02  0.39999752922E+02 0.  0.
         12    1    3    3    0    0  0.19657511319E+00  0.27300830913E+02  0.24706554051E+02  0.36821024204E+02  0.00000000000E+00 0. -1.
         11    1    4    4    0    0  0.23816338407E+01  0.26403765548E+00  0.43336914813E+01  0.49520478340E+01  0.51100000000E-03 0. -1.
        -11    1    4    4    0    0  0.42468196866E+01 -0.13526720682E+02 -0.30602978646E+02  0.33727584439E+02  0.51100000000E-03 0.  1.
        -12    1    4    4    0    0 -0.68250286405E+01 -0.14038147886E+02  0.15627331135E+01  0.15687343523E+02  0.00000000000E+00 0.  1.
</event>
<event>
 8    1  0.2553474E-006  0.9118800E+02  0.7816164E-02  0.1184000E+00
        -11   -1    0    0    0    0  0.00000000000E+00  0.00000000000E+00  0.45593999997E+02  0.45594000000E+02  0.51100000000E-03 0. -1.
         11   -1    0    0    0    0 -0.00000000000E+00 -0.00000000000E+00 -0.45593999997E+02  0.45594000000E+02  0.51100000000E-03 0.  1.
         23    2    1    2    0    0  0.00000000000E+00  0.00000000000E+00  0.44408920985E-15  0.91188000000E+02  0.91188000000E+02 0.  0.
    9900012    2    3    3    0    0  0.33387793307E+02  0.15278844838E+02 -0.27558826206E+01  0.54367044954E+02  0.39999910581E+02 0.  0.
         12    1    3    3    0    0 -0.33387793307E+02 -0.15278844838E+02  0.27558826206E+01  0.36820955046E+02  0.00000000000E+00 0. -1.
         11    1    4    4    0    0 -0.42182436592E+01  0.10407940173E+02 -0.58171930505E+01  0.12647471425E+02  0.51100000000E-03 0. -1.
        -11    1    4    4    0    0  0.28379865243E+02  0.45825212199E+01  0.97107254363E+01  0.30343276697E+02  0.51100000000E-03 0.  1.
        -12    1    4    4    0    0  0.92261717231E+01  0.28838344604E+00 -0.66494150063E+01  0.11376296832E+02  0.00000000000E+00 0.  1.
</event>
<event>
 8    1  0.2553474E-006  0.9118800E+02  0.7816164E-02  0.1184000E+00
        -11   -1    0    0    0    0  0.00000000000E+00  0.00000000000E+00  0.45593999997E+02  0.45594000000E+02  0.51100000000E-03 0. -1.
         11   -1    0    0    0    0 -0.00000000000E+00 -0.00000000000E+00 -0.45593999997E+02  0.45594000000E+02  0.51100000000E-03 0.  1.
         23    2    1    2    0    0  0.00000000000E+00  0.17763568394E-14  0.00000000000E+00  0.91188000000E+02  0.91188000000E+02 0.  0.
    9900012    2    3    3    0    0  0.32341596540E+02  0.14408774157E+02 -0.10108823476E+02  0.54367082690E+02  0.39999996609E+02 0.  0.
         12    1    3    3    0    0 -0.32341596540E+02 -0.14408774157E+02  0.10108823476E+02  0.36820917310E+02  0.00000000000E+00 0. -1.
         11    1    4    4    0    0  0.78928137042E+01 -0.60824194918E+01  0.47035255599E+01  0.11018869633E+02  0.51100000000E-03 0. -1.
        -11    1    4    4    0    0  0.13183800368E+02 -0.36426432186E+01 -0.80454042245E+01  0.15868521391E+02  0.51100000000E-03 0.  1.
         12    1    4    4    0    0  0.11264982468E+02  0.24133836867E+02 -0.67669448112E+01  0.27479691665E+02  0.00000000000E+00 0. -1.
</event>
<event>
 8    1  0.2553474E-006  0.9118800E+02  0.7816164E-02  0.1184000E+00
        -11   -1    0    0    0    0  0.00000000000E+00  0.00000000000E+00  0.45593999997E+02  0.45594000000E+02  0.51100000000E-03 0. -1.
         11   -1    0    0    0    0 -0.00000000000E+00 -0.00000000000E+00 -0.45593999997E+02  0.45594000000E+02  0.51100000000E-03 0.  1.
         23    2    1    2    0    0 -0.35527136788E-14  0.00000000000E+00  0.00000000000E+00  0.91188000000E+02  0.91188000000E+02 0.  0.
    9900012    2    3    3    0    0  0.18416887200E+02 -0.31292309243E+02  0.61145478287E+01  0.54367108551E+02  0.40000055565E+02 0.  0.
        -12    1    3    3    0    0 -0.18416887200E+02  0.31292309243E+02 -0.61145478287E+01  0.36820891449E+02  0.00000000000E+00 0.  1.
         11    1    4    4    0    0  0.10515711589E+02  0.15106666835E+01  0.37590546421E+01  0.11269108045E+02  0.51100000000E-03 0. -1.
        -11    1    4    4    0    0  0.31886312279E+01  0.28139047476E+01  0.55918290112E+01  0.70252388563E+01  0.51100000000E-03 0.  1.
        -12    1    4    4    0    0  0.47125443834E+01 -0.35616880674E+02 -0.32363358246E+01  0.36072761651E+02  0.00000000000E+00 0.  1.
</event>
<event>
 8    1  0.2553474E-006  0.9118800E+02  0.7816164E-02  0.1184000E+00
        -11   -1    0    0    0    0  0.00000000000E+00  0.00000000000E+00  0.45593999997E+02  0.45594000000E+02  0.51100000000E-03 0.  1.
         11   -1    0    0    0    0 -0.00000000000E+00 -0.00000000000E+00 -0.45593999997E+02  0.45594000000E+02  0.51100000000E-03 0. -1.
         23    2    1    2    0    0 -0.88817841970E-15  0.00000000000E+00  0.00000000000E+00  0.91188000000E+02  0.91188000000E+02 0.  0.
    9900012    2    3    3    0    0  0.53567025619E+01  0.78430288131E+01 -0.35575087719E+02  0.54366888807E+02  0.39999554611E+02 0.  0.
        -12    1    3    3    0    0 -0.53567025619E+01 -0.78430288131E+01  0.35575087719E+02  0.36821111193E+02  0.00000000000E+00 0.  1.
         11    1    4    4    0    0 -0.22770600827E+00  0.69063158230E+01 -0.68874882037E+01  0.97563590694E+01  0.51100000000E-03 0. -1.
        -11    1    4    4    0    0  0.55688170042E+01  0.16691958916E+02 -0.10272745643E+02  0.20375537259E+02  0.51100000000E-03 0.  1.
        -12    1    4    4    0    0  0.15591565964E-01 -0.15755245926E+02 -0.18414853872E+02  0.24234992478E+02  0.00000000000E+00 0.  1.
</event>
<event>
 8    1  0.2553474E-006  0.9118800E+02  0.7816164E-02  0.1184000E+00
        -11   -1    0    0    0    0  0.00000000000E+00  0.00000000000E+00  0.45593999997E+02  0.45594000000E+02  0.51100000000E-03 0. -1.
         11   -1    0    0    0    0 -0.00000000000E+00 -0.00000000000E+00 -0.45593999997E+02  0.45594000000E+02  0.51100000000E-03 0.  1.
         23    2    1    2    0    0 -0.17763568394E-14  0.00000000000E+00  0.00000000000E+00  0.91188000000E+02  0.91188000000E+02 0.  0.
    9900012    2    3    3    0    0 -0.13191324304E+02 -0.30181509275E+02 -0.16457405481E+02  0.54367072063E+02  0.39999972381E+02 0.  0.
         12    1    3    3    0    0  0.13191324304E+02  0.30181509275E+02  0.16457405481E+02  0.36820927937E+02  0.00000000000E+00 0. -1.
         11    1    4    4    0    0  0.70867218984E+01 -0.93105265111E+01  0.73219688453E+01  0.13802853300E+02  0.51100000000E-03 0. -1.
        -11    1    4    4    0    0 -0.18724465142E+02 -0.22210933519E+02 -0.24868905099E+02  0.38241255258E+02  0.51100000000E-03 0.  1.
        -12    1    4    4    0    0 -0.15535810611E+01  0.13399507557E+01  0.10895307723E+01  0.23229635049E+01  0.00000000000E+00 0.  1.
</event>
<event>
 8    1  0.2553474E-006  0.9118800E+02  0.7816164E-02  0.1184000E+00
        -11   -1    0    0    0    0  0.00000000000E+00  0.00000000000E+00  0.45593999997E+02  0.45594000000E+02  0.51100000000E-03 0.  1.
         11   -1    0    0    0    0 -0.00000000000E+00 -0.00000000000E+00 -0.45593999997E+02  0.45594000000E+02  0.51100000000E-03 0. -1.
         23    2    1    2    0    0 -0.35527136788E-14 -0.44408920985E-15  0.00000000000E+00  0.91188000000E+02  0.91188000000E+02 0.  0.
    9900012    2    3    3    0    0  0.26345298388E+02 -0.21970220863E+01 -0.25629634191E+02  0.54367084721E+02  0.40000001238E+02 0.  0.
        -12    1    3    3    0    0 -0.26345298388E+02  0.21970220863E+01  0.25629634191E+02  0.36820915279E+02  0.00000000000E+00 0.  1.
         11    1    4    4    0    0  0.13415984686E+02 -0.45081378913E+01 -0.10118209641E+02  0.17397991808E+02  0.51100000000E-03 0. -1.
        -11    1    4    4    0    0  0.12025347493E+02 -0.54492559534E+00  0.72228101520E+01  0.14038337258E+02  0.51100000000E-03 0.  1.
         12    1    4    4    0    0  0.90396620985E+00  0.28560414003E+01 -0.22734234703E+02  0.22930755655E+02  0.00000000000E+00 0. -1.
</event>
<event>
 8    1  0.2553474E-006  0.9118800E+02  0.7816164E-02  0.1184000E+00
        -11   -1    0    0    0    0  0.00000000000E+00  0.00000000000E+00  0.45593999997E+02  0.45594000000E+02  0.51100000000E-03 0.  1.
         11   -1    0    0    0    0 -0.00000000000E+00 -0.00000000000E+00 -0.45593999997E+02  0.45594000000E+02  0.51100000000E-03 0. -1.
         23    2    1    2    0    0  0.35527136788E-14  0.00000000000E+00  0.00000000000E+00  0.91188000000E+02  0.91188000000E+02 0.  0.
    9900012    2    3    3    0    0 -0.27720941181E+02 -0.23167577851E+02 -0.71128566389E+01  0.54367082398E+02  0.39999995944E+02 0.  0.
        -12    1    3    3    0    0  0.27720941181E+02  0.23167577851E+02  0.71128566389E+01  0.36820917602E+02  0.00000000000E+00 0.  1.
         11    1    4    4    0    0 -0.22233515161E+02 -0.28236837313E+02 -0.12345935641E+02  0.38000925054E+02  0.51100000000E-03 0. -1.
        -11    1    4    4    0    0 -0.84269492259E+01  0.72534989227E+01  0.16461114349E+01  0.11239946752E+02  0.51100000000E-03 0.  1.
         12    1    4    4    0    0  0.29395232057E+01 -0.21842394607E+01  0.35869675677E+01  0.51262105916E+01  0.00000000000E+00 0. -1.
</event>
<event>
 8    1  0.2553474E-006  0.9118800E+02  0.7816164E-02  0.1184000E+00
        -11   -1    0    0    0    0  0.00000000000E+00  0.00000000000E+00  0.45593999997E+02  0.45594000000E+02  0.51100000000E-03 0.  1.
         11   -1    0    0    0    0 -0.00000000000E+00 -0.00000000000E+00 -0.45593999997E+02  0.45594000000E+02  0.51100000000E-03 0. -1.
         23    2    1    2    0    0  0.00000000000E+00  0.00000000000E+00 -0.17763568394E-14  0.91188000000E+02  0.91188000000E+02 0.  0.
    9900012    2    3    3    0    0  0.22315267672E+02  0.27065287352E+02  0.11192735387E+02  0.54367105441E+02  0.40000048473E+02 0.  0.
         12    1    3    3    0    0 -0.22315267672E+02 -0.27065287352E+02 -0.11192735387E+02  0.36820894559E+02  0.00000000000E+00 0. -1.
         11    1    4    4    0    0 -0.72117431234E+01  0.11786700927E+02  0.11986456952E+01  0.13869834512E+02  0.51100000000E-03 0. -1.
        -11    1    4    4    0    0  0.46947677222E+01  0.12295163209E+02 -0.95335405241E+00  0.13195482807E+02  0.51100000000E-03 0.  1.
         12    1    4    4    0    0  0.24832243073E+02  0.29834232159E+01  0.10947443744E+02  0.27301788122E+02  0.00000000000E+00 0. -1.
</event>
<event>
 8    1  0.2553474E-006  0.9118800E+02  0.7816164E-02  0.1184000E+00
        -11   -1    0    0    0    0  0.00000000000E+00  0.00000000000E+00  0.45593999997E+02  0.45594000000E+02  0.51100000000E-03 0.  1.
         11   -1    0    0    0    0 -0.00000000000E+00 -0.00000000000E+00 -0.45593999997E+02  0.45594000000E+02  0.51100000000E-03 0. -1.
         23    2    1    2    0    0 -0.17763568394E-14  0.00000000000E+00 -0.88817841970E-15  0.91188000000E+02  0.91188000000E+02 0.  0.
    9900012    2    3    3    0    0  0.94526454509E+01  0.35368330569E+02  0.39382082821E+01  0.54367071199E+02  0.39999970413E+02 0.  0.
        -12    1    3    3    0    0 -0.94526454509E+01 -0.35368330569E+02 -0.39382082821E+01  0.36820928801E+02  0.00000000000E+00 0.  1.
         11    1    4    4    0    0  0.87332972745E+00  0.75761712059E+01 -0.35780932371E+01  0.84240029932E+01  0.51100000000E-03 0. -1.
        -11    1    4    4    0    0 -0.93582956919E+01  0.12888188720E+02 -0.81072459150E+01  0.17872060411E+02  0.51100000000E-03 0.  1.
        -12    1    4    4    0    0  0.17937611415E+02  0.14903970643E+02  0.15623547434E+02  0.28071007796E+02  0.00000000000E+00 0.  1.
</event>
<event>
 8    1  0.2553474E-006  0.9118800E+02  0.7816164E-02  0.1184000E+00
        -11   -1    0    0    0    0  0.00000000000E+00  0.00000000000E+00  0.45593999997E+02  0.45594000000E+02  0.51100000000E-03 0. -1.
         11   -1    0    0    0    0 -0.00000000000E+00 -0.00000000000E+00 -0.45593999997E+02  0.45594000000E+02  0.51100000000E-03 0.  1.
         23    2    1    2    0    0  0.44408920985E-15  0.11102230246E-14  0.00000000000E+00  0.91188000000E+02  0.91188000000E+02 0.  0.
    9900012    2    3    3    0    0 -0.89410923683E+00  0.15527541957E+01 -0.36777330852E+02  0.54367047520E+02  0.39999916432E+02 0.  0.
         12    1    3    3    0    0  0.89410923683E+00 -0.15527541957E+01  0.36777330852E+02  0.36820952480E+02  0.00000000000E+00 0. -1.
         11    1    4    4    0    0 -0.97743341160E+01  0.11955184598E+02 -0.99469715323E+01  0.18368622406E+02  0.51100000000E-03 0. -1.
        -11    1    4    4    0    0 -0.39038277257E+01 -0.94286015095E+01 -0.69656255945E+01  0.12355498271E+02  0.51100000000E-03 0.  1.
        -12    1    4    4    0    0  0.12784052605E+02 -0.97382889289E+00 -0.19864733725E+02  0.23642926843E+02  0.00000000000E+00 0.  1.
</event>
<event>
 8    1  0.2553474E-006  0.9118800E+02  0.7816164E-02  0.1184000E+00
        -11   -1    0    0    0    0  0.00000000000E+00  0.00000000000E+00  0.45593999997E+02  0.45594000000E+02  0.51100000000E-03 0. -1.
         11   -1    0    0    0    0 -0.00000000000E+00 -0.00000000000E+00 -0.45593999997E+02  0.45594000000E+02  0.51100000000E-03 0.  1.
         23    2    1    2    0    0 -0.44408920985E-15  0.35527136788E-14  0.00000000000E+00  0.91188000000E+02  0.91188000000E+02 0.  0.
    9900012    2    3    3    0    0 -0.21661076365E+01  0.23478075338E+02  0.28281914441E+02  0.54367099301E+02  0.40000034476E+02 0.  0.
        -12    1    3    3    0    0  0.21661076365E+01 -0.23478075338E+02 -0.28281914441E+02  0.36820900699E+02  0.00000000000E+00 0.  1.
         11    1    4    4    0    0 -0.85253223539E+01  0.11220915500E+02 -0.39938384395E+01  0.14647211736E+02  0.51100000000E-03 0. -1.
        -11    1    4    4    0    0  0.94462276110E+01 -0.10104888829E+01  0.12301654863E+02  0.15542941050E+02  0.51100000000E-03 0.  1.
         12    1    4    4    0    0 -0.30870128936E+01  0.13267648720E+02  0.19974098017E+02  0.24176946515E+02  0.00000000000E+00 0. -1.
</event>
<event>
 8    1  0.2553474E-006  0.9118800E+02  0.7816164E-02  0.1184000E+00
        -11   -1    0    0    0    0  0.00000000000E+00  0.00000000000E+00  0.45593999997E+02  0.45594000000E+02  0.51100000000E-03 0. -1.
         11   -1    0    0    0    0 -0.00000000000E+00 -0.00000000000E+00 -0.45593999997E+02  0.45594000000E+02  0.51100000000E-03 0.  1.
         23    2    1    2    0    0  0.00000000000E+00 -0.71054273576E-14 -0.88817841970E-15  0.91188000000E+02  0.91188000000E+02 0.  0.
    9900012    2    3    3    0    0 -0.11412950816E+02 -0.34926838436E+02  0.23752333707E+01  0.54367065424E+02  0.39999957248E+02 0.  0.
        -12    1    3    3    0    0  0.11412950816E+02  0.34926838436E+02 -0.23752333707E+01  0.36820934576E+02  0.00000000000E+00 0.  1.
         11    1    4    4    0    0 -0.61625276996E+01 -0.81534074095E+01  0.67569070875E+01  0.12251962850E+02  0.51100000000E-03 0. -1.
        -11    1    4    4    0    0 -0.24069226920E+01 -0.11510051758E+01 -0.14260104552E+02  0.14507538449E+02  0.51100000000E-03 0.  1.
        -12    1    4    4    0    0 -0.28435004248E+01 -0.25622425851E+02  0.98784308353E+01  0.27607564125E+02  0.00000000000E+00 0.  1.
</event>
<event>
 8    1  0.2553474E-006  0.9118800E+02  0.7816164E-02  0.1184000E+00
        -11   -1    0    0    0    0  0.00000000000E+00  0.00000000000E+00  0.45593999997E+02  0.45594000000E+02  0.51100000000E-03 0.  1.
         11   -1    0    0    0    0 -0.00000000000E+00 -0.00000000000E+00 -0.45593999997E+02  0.45594000000E+02  0.51100000000E-03 0. -1.
         23    2    1    2    0    0 -0.88817841970E-15 -0.35527136788E-14  0.00000000000E+00  0.91188000000E+02  0.91188000000E+02 0.  0.
    9900012    2    3    3    0    0 -0.32963826879E+01  0.23604128704E+02 -0.28067032747E+02  0.54367090751E+02  0.40000014985E+02 0.  0.
        -12    1    3    3    0    0  0.32963826879E+01 -0.23604128704E+02  0.28067032747E+02  0.36820909249E+02  0.00000000000E+00 0.  1.
         11    1    4    4    0    0  0.27948402809E+01  0.12499484921E+02 -0.99361912434E+01  0.16210371747E+02  0.51100000000E-03 0. -1.
        -11    1    4    4    0    0 -0.17001859899E+02  0.13803900876E+02 -0.90061372652E+01  0.23679557178E+02  0.51100000000E-03 0.  1.
        -12    1    4    4    0    0  0.10910636931E+02 -0.26992570936E+01 -0.91247042389E+01  0.14477161826E+02  0.00000000000E+00 0.  1.
</event>
<event>
 8    1  0.2553474E-006  0.9118800E+02  0.7816164E-02  0.1184000E+00
        -11   -1    0    0    0    0  0.00000000000E+00  0.00000000000E+00  0.45593999997E+02  0.45594000000E+02  0.51100000000E-03 0. -1.
         11   -1    0    0    0    0 -0.00000000000E+00 -0.00000000000E+00 -0.45593999997E+02  0.45594000000E+02  0.51100000000E-03 0.  1.
         23    2    1    2    0    0  0.00000000000E+00  0.00000000000E+00  0.00000000000E+00  0.91188000000E+02  0.91188000000E+02 0.  0.
    9900012    2    3    3    0    0 -0.23097462699E+02  0.23109758814E+02  0.16977231864E+02  0.54367080167E+02  0.39999990858E+02 0.  0.
        -12    1    3    3    0    0  0.23097462699E+02 -0.23109758814E+02 -0.16977231864E+02  0.36820919833E+02  0.00000000000E+00 0.  1.
         11    1    4    4    0    0 -0.67048362720E+01  0.13717938542E+02  0.71445334748E+01  0.16857669652E+02  0.51100000000E-03 0. -1.
        -11    1    4    4    0    0 -0.11192397686E+02 -0.10630000203E+00  0.19830515116E+02  0.22771262497E+02  0.51100000000E-03 0.  1.
        -12    1    4    4    0    0 -0.52002287406E+01  0.94981202743E+01 -0.99978167273E+01  0.14738148018E+02  0.00000000000E+00 0.  1.
</event>
<event>
 8    1  0.2553474E-006  0.9118800E+02  0.7816164E-02  0.1184000E+00
        -11   -1    0    0    0    0  0.00000000000E+00  0.00000000000E+00  0.45593999997E+02  0.45594000000E+02  0.51100000000E-03 0. -1.
         11   -1    0    0    0    0 -0.00000000000E+00 -0.00000000000E+00 -0.45593999997E+02  0.45594000000E+02  0.51100000000E-03 0.  1.
         23    2    1    2    0    0  0.00000000000E+00  0.17763568394E-14  0.00000000000E+00  0.91188000000E+02  0.91188000000E+02 0.  0.
    9900012    2    3    3    0    0  0.23405647051E+02 -0.35871346875E+01  0.28197289009E+02  0.54367096201E+02  0.40000027408E+02 0.  0.
        -12    1    3    3    0    0 -0.23405647051E+02  0.35871346875E+01 -0.28197289009E+02  0.36820903799E+02  0.00000000000E+00 0.  1.
         11    1    4    4    0    0  0.11351456654E+01  0.92488155532E+01  0.42157766698E+01  0.10227507908E+02  0.51100000000E-03 0. -1.
        -11    1    4    4    0    0  0.12998567244E+02  0.58543699004E+01  0.30357710110E+01  0.14575743659E+02  0.51100000000E-03 0.  1.
        -12    1    4    4    0    0  0.92719341415E+01 -0.18690320141E+02  0.20945741329E+02  0.29563844633E+02  0.00000000000E+00 0.  1.
</event>
<event>
 8    1  0.2553474E-006  0.9118800E+02  0.7816164E-02  0.1184000E+00
        -11   -1    0    0    0    0  0.00000000000E+00  0.00000000000E+00  0.45593999997E+02  0.45594000000E+02  0.51100000000E-03 0.  1.
         11   -1    0    0    0    0 -0.00000000000E+00 -0.00000000000E+00 -0.45593999997E+02  0.45594000000E+02  0.51100000000E-03 0. -1.
         23    2    1    2    0    0 -0.35527136788E-14  0.71054273576E-14  0.00000000000E+00  0.91188000000E+02  0.91188000000E+02 0.  0.
    9900012    2    3    3    0    0  0.15796915071E+02 -0.28334403415E+02  0.17418350518E+02  0.54367083697E+02  0.39999998904E+02 0.  0.
         12    1    3    3    0    0 -0.15796915071E+02  0.28334403415E+02 -0.17418350518E+02  0.36820916303E+02  0.00000000000E+00 0. -1.
         11    1    4    4    0    0 -0.93857081323E+01 -0.16580662938E+01  0.79084215927E+01  0.12384822701E+02  0.51100000000E-03 0. -1.
        -11    1    4    4    0    0  0.16458503699E+01 -0.31401853365E+01  0.78984840567E+01  0.86576924202E+01  0.51100000000E-03 0.  1.
        -12    1    4    4    0    0  0.23536772833E+02 -0.23536151784E+02  0.16114448688E+01  0.33324568576E+02  0.00000000000E+00 0.  1.
</event>
<event>
 8    1  0.2553474E-006  0.9118800E+02  0.7816164E-02  0.1184000E+00
        -11   -1    0    0    0    0  0.00000000000E+00  0.00000000000E+00  0.45593999997E+02  0.45594000000E+02  0.51100000000E-03 0.  1.
         11   -1    0    0    0    0 -0.00000000000E+00 -0.00000000000E+00 -0.45593999997E+02  0.45594000000E+02  0.51100000000E-03 0. -1.
         23    2    1    2    0    0  0.35527136788E-14  0.00000000000E+00  0.17763568394E-14  0.91188000000E+02  0.91188000000E+02 0.  0.
    9900012    2    3    3    0    0 -0.29644369929E+02 -0.15413039523E+02 -0.15473326273E+02  0.54367159682E+02  0.40000172126E+02 0.  0.
         12    1    3    3    0    0  0.29644369929E+02  0.15413039523E+02  0.15473326273E+02  0.36820840318E+02  0.00000000000E+00 0. -1.
         11    1    4    4    0    0 -0.16221927214E+00 -0.32235142043E+01 -0.19290371321E+02  0.19558522053E+02  0.51100000000E-03 0. -1.
        -11    1    4    4    0    0 -0.19915580987E+02 -0.12645926515E+02 -0.18778950467E+01  0.23665931495E+02  0.51100000000E-03 0.  1.
         12    1    4    4    0    0 -0.95665696692E+01  0.45640119594E+00  0.56949400953E+01  0.11142706133E+02  0.00000000000E+00 0. -1.
</event>
<event>
 8    1  0.2553474E-006  0.9118800E+02  0.7816164E-02  0.1184000E+00
        -11   -1    0    0    0    0  0.00000000000E+00  0.00000000000E+00  0.45593999997E+02  0.45594000000E+02  0.51100000000E-03 0.  1.
         11   -1    0    0    0    0 -0.00000000000E+00 -0.00000000000E+00 -0.45593999997E+02  0.45594000000E+02  0.51100000000E-03 0. -1.
         23    2    1    2    0    0  0.71054273576E-14  0.00000000000E+00  0.00000000000E+00  0.91188000000E+02  0.91188000000E+02 0.  0.
    9900012    2    3    3    0    0 -0.33757097829E+02  0.13773859136E+02 -0.51496587702E+01  0.54367084276E+02  0.40000000223E+02 0.  0.
        -12    1    3    3    0    0  0.33757097829E+02 -0.13773859136E+02  0.51496587702E+01  0.36820915724E+02  0.00000000000E+00 0.  1.
         11    1    4    4    0    0  0.18380002578E+01 -0.84687063443E+01  0.27514645949E+01  0.90921828937E+01  0.51100000000E-03 0. -1.
        -11    1    4    4    0    0  0.33973081538E+00  0.40335566730E+01  0.62982740352E+00  0.40965447978E+01  0.51100000000E-03 0.  1.
        -12    1    4    4    0    0 -0.35934828902E+02  0.18209008807E+02 -0.85309507686E+01  0.41178356584E+02  0.00000000000E+00 0.  1.
</event>
<event>
 8    1  0.2553474E-006  0.9118800E+02  0.7816164E-02  0.1184000E+00
        -11   -1    0    0    0    0  0.00000000000E+00  0.00000000000E+00  0.45593999997E+02  0.45594000000E+02  0.51100000000E-03 0.  1.
         11   -1    0    0    0    0 -0.00000000000E+00 -0.00000000000E+00 -0.45593999997E+02  0.45594000000E+02  0.51100000000E-03 0. -1.
         23    2    1    2    0    0  0.00000000000E+00  0.00000000000E+00  0.00000000000E+00  0.91188000000E+02  0.91188000000E+02 0.  0.
    9900012    2    3    3    0    0 -0.23280157299E+02 -0.28526504833E+02  0.22968887562E+00  0.54367082591E+02  0.39999996383E+02 0.  0.
         12    1    3    3    0    0  0.23280157299E+02  0.28526504833E+02 -0.22968887562E+00  0.36820917409E+02  0.00000000000E+00 0. -1.
         11    1    4    4    0    0  0.19025278253E+01 -0.46199430370E+01 -0.11790817597E+02  0.12805735655E+02  0.51100000000E-03 0. -1.
        -11    1    4    4    0    0 -0.27842708874E+02 -0.21462594388E+02  0.13500022043E+02  0.37657801193E+02  0.51100000000E-03 0.  1.
        -12    1    4    4    0    0  0.26600237501E+01 -0.24439674084E+01 -0.14795155705E+01  0.39035457430E+01  0.00000000000E+00 0.  1.
</event>
<event>
 8    1  0.2553474E-006  0.9118800E+02  0.7816164E-02  0.1184000E+00
        -11   -1    0    0    0    0  0.00000000000E+00  0.00000000000E+00  0.45593999997E+02  0.45594000000E+02  0.51100000000E-03 0.  1.
         11   -1    0    0    0    0 -0.00000000000E+00 -0.00000000000E+00 -0.45593999997E+02  0.45594000000E+02  0.51100000000E-03 0. -1.
         23    2    1    2    0    0  0.00000000000E+00  0.00000000000E+00 -0.35527136788E-14  0.91188000000E+02  0.91188000000E+02 0.  0.
    9900012    2    3    3    0    0  0.22109277115E+02 -0.13340561953E+02 -0.26248606202E+02  0.54367081281E+02  0.39999993397E+02 0.  0.
        -12    1    3    3    0    0 -0.22109277115E+02  0.13340561953E+02  0.26248606202E+02  0.36820918719E+02  0.00000000000E+00 0.  1.
         11    1    4    4    0    0  0.14029887569E+01 -0.17725655171E+02 -0.10653669558E+02  0.20728432261E+02  0.51100000000E-03 0. -1.
        -11    1    4    4    0    0  0.88385967878E+01  0.30510207778E+01  0.44115576221E+01  0.10338827877E+02  0.51100000000E-03 0.  1.
         12    1    4    4    0    0  0.11867691570E+02  0.13340724405E+01 -0.20006494266E+02  0.23299821143E+02  0.00000000000E+00 0. -1.
</event>
<event>
 8    1  0.2553474E-006  0.9118800E+02  0.7816164E-02  0.1184000E+00
        -11   -1    0    0    0    0  0.00000000000E+00  0.00000000000E+00  0.45593999997E+02  0.45594000000E+02  0.51100000000E-03 0.  1.
         11   -1    0    0    0    0 -0.00000000000E+00 -0.00000000000E+00 -0.45593999997E+02  0.45594000000E+02  0.51100000000E-03 0. -1.
         23    2    1    2    0    0  0.00000000000E+00  0.66613381478E-15  0.35527136788E-14  0.91188000000E+02  0.91188000000E+02 0.  0.
    9900012    2    3    3    0    0  0.22459394111E+02 -0.18389399032E+01 -0.29119998047E+02  0.54367077007E+02  0.39999983653E+02 0.  0.
        -12    1    3    3    0    0 -0.22459394111E+02  0.18389399032E+01  0.29119998047E+02  0.36820922993E+02  0.00000000000E+00 0.  1.
         11    1    4    4    0    0  0.33568119905E+01 -0.42719561192E+01 -0.59199866081E+01  0.80351750152E+01  0.51100000000E-03 0. -1.
        -11    1    4    4    0    0  0.45479009983E+01 -0.15970922352E+02 -0.86591554940E+01  0.18727913349E+02  0.51100000000E-03 0.  1.
         12    1    4    4    0    0  0.14554681122E+02  0.18403938568E+02 -0.14540855945E+02  0.27603988643E+02  0.00000000000E+00 0. -1.
</event>
<event>
 8    1  0.2553474E-006  0.9118800E+02  0.7816164E-02  0.1184000E+00
        -11   -1    0    0    0    0  0.00000000000E+00  0.00000000000E+00  0.45593999997E+02  0.45594000000E+02  0.51100000000E-03 0.  1.
         11   -1    0    0    0    0 -0.00000000000E+00 -0.00000000000E+00 -0.45593999997E+02  0.45594000000E+02  0.51100000000E-03 0. -1.
         23    2    1    2    0    0  0.35527136788E-14  0.00000000000E+00  0.17763568394E-14  0.91188000000E+02  0.91188000000E+02 0.  0.
    9900012    2    3    3    0    0  0.12924614016E+02  0.33320969808E+02 -0.88569990676E+01  0.54367094133E+02  0.40000022694E+02 0.  0.
        -12    1    3    3    0    0 -0.12924614016E+02 -0.33320969808E+02  0.88569990676E+01  0.36820905867E+02  0.00000000000E+00 0.  1.
         11    1    4    4    0    0 -0.11982650183E+01  0.18310674106E+01 -0.28814552922E+01  0.36182083658E+01  0.51100000000E-03 0. -1.
        -11    1    4    4    0    0 -0.35985908541E+01  0.27495924130E+01 -0.15106968215E+02  0.15771195373E+02  0.51100000000E-03 0.  1.
         12    1    4    4    0    0  0.17721469888E+02  0.28740309985E+02  0.91314244396E+01  0.34977690394E+02  0.00000000000E+00 0. -1.
</event>
<event>
 8    1  0.2553474E-006  0.9118800E+02  0.7816164E-02  0.1184000E+00
        -11   -1    0    0    0    0  0.00000000000E+00  0.00000000000E+00  0.45593999997E+02  0.45594000000E+02  0.51100000000E-03 0.  1.
         11   -1    0    0    0    0 -0.00000000000E+00 -0.00000000000E+00 -0.45593999997E+02  0.45594000000E+02  0.51100000000E-03 0. -1.
         23    2    1    2    0    0  0.00000000000E+00  0.35527136788E-14  0.71054273576E-14  0.91188000000E+02  0.91188000000E+02 0.  0.
    9900012    2    3    3    0    0 -0.13646968402E+02 -0.16440769078E+02 -0.29987342555E+02  0.54367090887E+02  0.40000015294E+02 0.  0.
        -12    1    3    3    0    0  0.13646968402E+02  0.16440769078E+02  0.29987342555E+02  0.36820909113E+02  0.00000000000E+00 0.  1.
         11    1    4    4    0    0 -0.15762436193E+01 -0.89924580079E+01  0.47698504539E+01  0.10300500890E+02  0.51100000000E-03 0. -1.
        -11    1    4    4    0    0 -0.70657209893E+00  0.78490505008E+01 -0.12368033442E+02  0.14665438602E+02  0.51100000000E-03 0.  1.
        -12    1    4    4    0    0 -0.11364152683E+02 -0.15297361571E+02 -0.22389159567E+02  0.29401151395E+02  0.00000000000E+00 0.  1.
</event>
<event>
 8    1  0.2553474E-006  0.9118800E+02  0.7816164E-02  0.1184000E+00
        -11   -1    0    0    0    0  0.00000000000E+00  0.00000000000E+00  0.45593999997E+02  0.45594000000E+02  0.51100000000E-03 0.  1.
         11   -1    0    0    0    0 -0.00000000000E+00 -0.00000000000E+00 -0.45593999997E+02  0.45594000000E+02  0.51100000000E-03 0. -1.
         23    2    1    2    0    0 -0.35527136788E-14  0.17763568394E-14  0.00000000000E+00  0.91188000000E+02  0.91188000000E+02 0.  0.
    9900012    2    3    3    0    0  0.28902593713E+02 -0.28886389584E+01 -0.22629141593E+02  0.54367052054E+02  0.39999926768E+02 0.  0.
        -12    1    3    3    0    0 -0.28902593713E+02  0.28886389584E+01  0.22629141593E+02  0.36820947946E+02  0.00000000000E+00 0.  1.
         11    1    4    4    0    0  0.53273489647E+01  0.11351720545E+02 -0.15920632604E+02  0.20265950486E+02  0.51100000000E-03 0. -1.
        -11    1    4    4    0    0  0.22302666296E+01  0.25643652772E+01  0.36864301250E+01  0.50139630874E+01  0.51100000000E-03 0.  1.
         12    1    4    4    0    0  0.21344978118E+02 -0.16804724781E+02 -0.10394939115E+02  0.29087138481E+02  0.00000000000E+00 0. -1.
</event>
<event>
 8    1  0.2553474E-006  0.9118800E+02  0.7816164E-02  0.1184000E+00
        -11   -1    0    0    0    0  0.00000000000E+00  0.00000000000E+00  0.45593999997E+02  0.45594000000E+02  0.51100000000E-03 0.  1.
         11   -1    0    0    0    0 -0.00000000000E+00 -0.00000000000E+00 -0.45593999997E+02  0.45594000000E+02  0.51100000000E-03 0. -1.
         23    2    1    2    0    0  0.17763568394E-14  0.00000000000E+00  0.71054273576E-14  0.91188000000E+02  0.91188000000E+02 0.  0.
    9900012    2    3    3    0    0 -0.10696722146E+02  0.35436330906E+01 -0.35054317656E+02  0.54367049625E+02  0.39999921230E+02 0.  0.
        -12    1    3    3    0    0  0.10696722146E+02 -0.35436330906E+01  0.35054317656E+02  0.36820950375E+02  0.00000000000E+00 0.  1.
         11    1    4    4    0    0 -0.90200689271E+01  0.19454442092E+02 -0.16556360520E+02  0.27091512223E+02  0.51100000000E-03 0. -1.
        -11    1    4    4    0    0 -0.31058758122E+01 -0.22673919737E+01  0.46218765709E+00  0.38731316289E+01  0.51100000000E-03 0.  1.
        -12    1    4    4    0    0  0.14292225930E+01 -0.13643417028E+02 -0.18960144793E+02  0.23402405774E+02  0.00000000000E+00 0.  1.
</event>
<event>
 8    1  0.2553474E-006  0.9118800E+02  0.7816164E-02  0.1184000E+00
        -11   -1    0    0    0    0  0.00000000000E+00  0.00000000000E+00  0.45593999997E+02  0.45594000000E+02  0.51100000000E-03 0.  1.
         11   -1    0    0    0    0 -0.00000000000E+00 -0.00000000000E+00 -0.45593999997E+02  0.45594000000E+02  0.51100000000E-03 0. -1.
         23    2    1    2    0    0  0.00000000000E+00  0.00000000000E+00  0.00000000000E+00  0.91188000000E+02  0.91188000000E+02 0.  0.
    9900012    2    3    3    0    0  0.35485019109E+02 -0.97719363805E+01 -0.10496555790E+01  0.54367094272E+02  0.40000023011E+02 0.  0.
         12    1    3    3    0    0 -0.35485019109E+02  0.97719363805E+01  0.10496555790E+01  0.36820905728E+02  0.00000000000E+00 0. -1.
         11    1    4    4    0    0 -0.23203149233E+01  0.36636061666E+01 -0.35916373090E+01  0.56307841646E+01  0.51100000000E-03 0. -1.
        -11    1    4    4    0    0  0.17284927321E+01 -0.89466653593E+01  0.78105915027E+01  0.12001493576E+02  0.51100000000E-03 0.  1.
         12    1    4    4    0    0  0.36076841301E+02 -0.44888771878E+01 -0.52686097727E+01  0.36734816531E+02  0.00000000000E+00 0. -1.
</event>
<event>
 8    1  0.2553474E-006  0.9118800E+02  0.7816164E-02  0.1184000E+00
        -11   -1    0    0    0    0  0.00000000000E+00  0.00000000000E+00  0.45593999997E+02  0.45594000000E+02  0.51100000000E-03 0.  1.
         11   -1    0    0    0    0 -0.00000000000E+00 -0.00000000000E+00 -0.45593999997E+02  0.45594000000E+02  0.51100000000E-03 0. -1.
         23    2    1    2    0    0  0.00000000000E+00  0.17763568394E-14  0.00000000000E+00  0.91188000000E+02  0.91188000000E+02 0.  0.
    9900012    2    3    3    0    0  0.24903721920E+02 -0.91789920861E+01 -0.25521187617E+02  0.54367078250E+02  0.39999986485E+02 0.  0.
        -12    1    3    3    0    0 -0.24903721920E+02  0.91789920861E+01  0.25521187617E+02  0.36820921750E+02  0.00000000000E+00 0.  1.
         11    1    4    4    0    0  0.15457066264E+02  0.10047293870E+02 -0.20825713438E+02  0.27813294520E+02  0.51100000000E-03 0. -1.
        -11    1    4    4    0    0 -0.45123427920E+00 -0.15397239084E+02 -0.40190591371E+01  0.15919529528E+02  0.51100000000E-03 0.  1.
         12    1    4    4    0    0  0.98978899351E+01 -0.38290468716E+01 -0.67641504160E+00  0.10634254201E+02  0.00000000000E+00 0. -1.
</event>
<event>
 8    1  0.2553474E-006  0.9118800E+02  0.7816164E-02  0.1184000E+00
        -11   -1    0    0    0    0  0.00000000000E+00  0.00000000000E+00  0.45593999997E+02  0.45594000000E+02  0.51100000000E-03 0.  1.
         11   -1    0    0    0    0 -0.00000000000E+00 -0.00000000000E+00 -0.45593999997E+02  0.45594000000E+02  0.51100000000E-03 0. -1.
         23    2    1    2    0    0  0.00000000000E+00  0.00000000000E+00  0.17763568394E-14  0.91188000000E+02  0.91188000000E+02 0.  0.
    9900012    2    3    3    0    0  0.30891661755E+02 -0.16365172947E+02  0.11561410919E+02  0.54367083743E+02  0.39999999008E+02 0.  0.
         12    1    3    3    0    0 -0.30891661755E+02  0.16365172947E+02 -0.11561410919E+02  0.36820916257E+02  0.00000000000E+00 0. -1.
         11    1    4    4    0    0  0.45663165576E+01 -0.78224598231E+01 -0.28549619244E+01  0.94969959692E+01  0.51100000000E-03 0. -1.
        -11    1    4    4    0    0  0.23192035726E+02 -0.14269473523E+02  0.21896526130E+02  0.34942041334E+02  0.51100000000E-03 0.  1.
        -12    1    4    4    0    0  0.31333094719E+01  0.57267603994E+01 -0.74801532864E+01  0.99280464396E+01  0.00000000000E+00 0.  1.
</event>
<event>
 8    1  0.2553474E-006  0.9118800E+02  0.7816164E-02  0.1184000E+00
        -11   -1    0    0    0    0  0.00000000000E+00  0.00000000000E+00  0.45593999997E+02  0.45594000000E+02  0.51100000000E-03 0. -1.
         11   -1    0    0    0    0 -0.00000000000E+00 -0.00000000000E+00 -0.45593999997E+02  0.45594000000E+02  0.51100000000E-03 0.  1.
         23    2    1    2    0    0 -0.71054273576E-14  0.00000000000E+00 -0.17763568394E-14  0.91188000000E+02  0.91188000000E+02 0.  0.
    9900012    2    3    3    0    0  0.35422653139E+02  0.82094979686E+01  0.57981804695E+01  0.54367094130E+02  0.40000022689E+02 0.  0.
         12    1    3    3    0    0 -0.35422653139E+02 -0.82094979686E+01 -0.57981804695E+01  0.36820905870E+02  0.00000000000E+00 0. -1.
         11    1    4    4    0    0  0.89086990732E+01 -0.40232826362E+01  0.16327135849E+02  0.19029637087E+02  0.51100000000E-03 0. -1.
        -11    1    4    4    0    0  0.90111686486E+01  0.39373826260E+01  0.45067968617E+01  0.10817363846E+02  0.51100000000E-03 0.  1.
        -12    1    4    4    0    0  0.17502785417E+02  0.82953979788E+01 -0.15035752241E+02  0.24520093198E+02  0.00000000000E+00 0.  1.
</event>
<event>
 8    1  0.2553474E-006  0.9118800E+02  0.7816164E-02  0.1184000E+00
        -11   -1    0    0    0    0  0.00000000000E+00  0.00000000000E+00  0.45593999997E+02  0.45594000000E+02  0.51100000000E-03 0. -1.
         11   -1    0    0    0    0 -0.00000000000E+00 -0.00000000000E+00 -0.45593999997E+02  0.45594000000E+02  0.51100000000E-03 0.  1.
         23    2    1    2    0    0 -0.35527136788E-14 -0.35527136788E-14  0.00000000000E+00  0.91188000000E+02  0.91188000000E+02 0.  0.
    9900012    2    3    3    0    0 -0.14969940402E+02 -0.16822424145E+02 -0.29132240902E+02  0.54367074839E+02  0.39999978710E+02 0.  0.
         12    1    3    3    0    0  0.14969940402E+02  0.16822424145E+02  0.29132240902E+02  0.36820925161E+02  0.00000000000E+00 0. -1.
         11    1    4    4    0    0  0.10939503853E+02 -0.10533695984E+02 -0.13735403608E+01  0.15248544489E+02  0.51100000000E-03 0. -1.
        -11    1    4    4    0    0 -0.91652655410E+01 -0.46886003166E+01 -0.14057314391E+02  0.17423924745E+02  0.51100000000E-03 0.  1.
         12    1    4    4    0    0 -0.16744178714E+02 -0.16001278442E+01 -0.13701386150E+02  0.21694605605E+02  0.00000000000E+00 0. -1.
</event>
<event>
 8    1  0.2553474E-006  0.9118800E+02  0.7816164E-02  0.1184000E+00
        -11   -1    0    0    0    0  0.00000000000E+00  0.00000000000E+00  0.45593999997E+02  0.45594000000E+02  0.51100000000E-03 0. -1.
         11   -1    0    0    0    0 -0.00000000000E+00 -0.00000000000E+00 -0.45593999997E+02  0.45594000000E+02  0.51100000000E-03 0.  1.
         23    2    1    2    0    0  0.00000000000E+00  0.00000000000E+00 -0.17763568394E-14  0.91188000000E+02  0.91188000000E+02 0.  0.
    9900012    2    3    3    0    0  0.96379050226E+01  0.32577726994E+02  0.14197980040E+02  0.54367080042E+02  0.39999990572E+02 0.  0.
        -12    1    3    3    0    0 -0.96379050226E+01 -0.32577726994E+02 -0.14197980040E+02  0.36820919958E+02  0.00000000000E+00 0.  1.
         11    1    4    4    0    0 -0.65873513930E+01  0.18402651059E+02 -0.72043589437E+01  0.20831551849E+02  0.51100000000E-03 0.  1.
        -11    1    4    4    0    0  0.15985885547E+01 -0.14349384814E+01  0.80198332614E+01  0.83025453696E+01  0.51100000000E-03 0. -1.
        -12    1    4    4    0    0  0.14626667861E+02  0.15610014417E+02  0.13382505722E+02  0.25232982824E+02  0.00000000000E+00 0.  1.
</event>
<event>
 8    1  0.2553474E-006  0.9118800E+02  0.7816164E-02  0.1184000E+00
        -11   -1    0    0    0    0  0.00000000000E+00  0.00000000000E+00  0.45593999997E+02  0.45594000000E+02  0.51100000000E-03 0. -1.
         11   -1    0    0    0    0 -0.00000000000E+00 -0.00000000000E+00 -0.45593999997E+02  0.45594000000E+02  0.51100000000E-03 0.  1.
         23    2    1    2    0    0 -0.17763568394E-14  0.35527136788E-14  0.00000000000E+00  0.91188000000E+02  0.91188000000E+02 0.  0.
    9900012    2    3    3    0    0 -0.52683796546E+01 -0.21009373919E+02  0.29776328183E+02  0.54367091039E+02  0.40000015642E+02 0.  0.
        -12    1    3    3    0    0  0.52683796546E+01  0.21009373919E+02 -0.29776328183E+02  0.36820908961E+02  0.00000000000E+00 0.  1.
         11    1    4    4    0    0 -0.13248409063E+01 -0.55500270625E+01  0.17609794332E+02  0.18511155029E+02  0.51100000000E-03 0. -1.
        -11    1    4    4    0    0  0.12418327238E+02 -0.63487396103E+01  0.84567058222E+00  0.13972705716E+02  0.51100000000E-03 0.  1.
         12    1    4    4    0    0 -0.16361865987E+02 -0.91106072464E+01  0.11320863268E+02  0.21883230294E+02  0.00000000000E+00 0. -1.
</event>
<event>
 8    1  0.2553474E-006  0.9118800E+02  0.7816164E-02  0.1184000E+00
        -11   -1    0    0    0    0  0.00000000000E+00  0.00000000000E+00  0.45593999997E+02  0.45594000000E+02  0.51100000000E-03 0.  1.
         11   -1    0    0    0    0 -0.00000000000E+00 -0.00000000000E+00 -0.45593999997E+02  0.45594000000E+02  0.51100000000E-03 0. -1.
         23    2    1    2    0    0  0.17763568394E-14  0.17763568394E-14  0.00000000000E+00  0.91188000000E+02  0.91188000000E+02 0.  0.
    9900012    2    3    3    0    0 -0.15709251943E+02 -0.13759893414E+02 -0.30325932975E+02  0.54367116331E+02  0.40000073299E+02 0.  0.
        -12    1    3    3    0    0  0.15709251943E+02  0.13759893414E+02  0.30325932975E+02  0.36820883669E+02  0.00000000000E+00 0.  1.
         11    1    4    4    0    0  0.44110406914E+01 -0.56361629440E+01 -0.98210444438E+01  0.12152223128E+02  0.51100000000E-03 0. -1.
        -11    1    4    4    0    0  0.46681981382E+01 -0.55311213344E+01 -0.15051890357E+02  0.16701640059E+02  0.51100000000E-03 0.  1.
         12    1    4    4    0    0 -0.24788490773E+02 -0.25926091358E+01 -0.54529981740E+01  0.25513253144E+02  0.00000000000E+00 0. -1.
</event>
<event>
 8    1  0.2553474E-006  0.9118800E+02  0.7816164E-02  0.1184000E+00
        -11   -1    0    0    0    0  0.00000000000E+00  0.00000000000E+00  0.45593999997E+02  0.45594000000E+02  0.51100000000E-03 0.  1.
         11   -1    0    0    0    0 -0.00000000000E+00 -0.00000000000E+00 -0.45593999997E+02  0.45594000000E+02  0.51100000000E-03 0. -1.
         23    2    1    2    0    0  0.00000000000E+00  0.00000000000E+00  0.17763568394E-14  0.91188000000E+02  0.91188000000E+02 0.  0.
    9900012    2    3    3    0    0 -0.19379316184E+02  0.28223441956E+02 -0.13552019970E+02  0.54367111677E+02  0.40000062691E+02 0.  0.
        -12    1    3    3    0    0  0.19379316184E+02 -0.28223441956E+02  0.13552019970E+02  0.36820888323E+02  0.00000000000E+00 0.  1.
         11    1    4    4    0    0 -0.68081062956E+01  0.92063494050E+01 -0.16659604420E+02  0.20215083487E+02  0.51100000000E-03 0. -1.
        -11    1    4    4    0    0 -0.12496282583E+02 -0.16278444983E+01  0.46902265343E+01  0.13446381718E+02  0.51100000000E-03 0.  1.
         12    1    4    4    0    0 -0.74927305503E-01  0.20644937049E+02 -0.15826420844E+01  0.20705646472E+02  0.00000000000E+00 0. -1.
</event>
<event>
 8    1  0.2553474E-006  0.9118800E+02  0.7816164E-02  0.1184000E+00
        -11   -1    0    0    0    0  0.00000000000E+00  0.00000000000E+00  0.45593999997E+02  0.45594000000E+02  0.51100000000E-03 0.  1.
         11   -1    0    0    0    0 -0.00000000000E+00 -0.00000000000E+00 -0.45593999997E+02  0.45594000000E+02  0.51100000000E-03 0. -1.
         23    2    1    2    0    0 -0.35527136788E-14 -0.88817841970E-15 -0.35527136788E-14  0.91188000000E+02  0.91188000000E+02 0.  0.
    9900012    2    3    3    0    0  0.20103385438E+02  0.37814157764E+01  0.30615928041E+02  0.54367078486E+02  0.39999987023E+02 0.  0.
         12    1    3    3    0    0 -0.20103385438E+02 -0.37814157764E+01 -0.30615928041E+02  0.36820921514E+02  0.00000000000E+00 0. -1.
         11    1    4    4    0    0 -0.57667735717E+01  0.82537438769E+01  0.69282137774E+01  0.12222115685E+02  0.51100000000E-03 0. -1.
        -11    1    4    4    0    0  0.53113690577E+01  0.65668481533E+01 -0.59566372110E+00  0.84669328251E+01  0.51100000000E-03 0.  1.
        -12    1    4    4    0    0  0.20558789952E+02 -0.11039176254E+02  0.24283377985E+02  0.33678029975E+02  0.00000000000E+00 0.  1.
</event>
<event>
 8    1  0.2553474E-006  0.9118800E+02  0.7816164E-02  0.1184000E+00
        -11   -1    0    0    0    0  0.00000000000E+00  0.00000000000E+00  0.45593999997E+02  0.45594000000E+02  0.51100000000E-03 0. -1.
         11   -1    0    0    0    0 -0.00000000000E+00 -0.00000000000E+00 -0.45593999997E+02  0.45594000000E+02  0.51100000000E-03 0.  1.
         23    2    1    2    0    0  0.71054273576E-14  0.17763568394E-14 -0.15543122345E-14  0.91188000000E+02  0.91188000000E+02 0.  0.
    9900012    2    3    3    0    0  0.33949630625E+02  0.14228742257E+02 -0.86245233592E+00  0.54367104440E+02  0.40000046193E+02 0.  0.
         12    1    3    3    0    0 -0.33949630625E+02 -0.14228742257E+02  0.86245233592E+00  0.36820895560E+02  0.00000000000E+00 0. -1.
         11    1    4    4    0    0  0.88707396043E+01  0.81573432749E+01  0.16319980203E+02  0.20287287264E+02  0.51100000000E-03 0. -1.
        -11    1    4    4    0    0  0.16377587918E+02  0.82285298788E+01 -0.50812937871E+01  0.19019822207E+02  0.51100000000E-03 0.  1.
         12    1    4    4    0    0  0.87013031025E+01 -0.21571308966E+01 -0.12101138752E+02  0.15059994969E+02  0.00000000000E+00 0. -1.
</event>
<event>
 8    1  0.2553474E-006  0.9118800E+02  0.7816164E-02  0.1184000E+00
        -11   -1    0    0    0    0  0.00000000000E+00  0.00000000000E+00  0.45593999997E+02  0.45594000000E+02  0.51100000000E-03 0. -1.
         11   -1    0    0    0    0 -0.00000000000E+00 -0.00000000000E+00 -0.45593999997E+02  0.45594000000E+02  0.51100000000E-03 0.  1.
         23    2    1    2    0    0  0.00000000000E+00 -0.26645352591E-14  0.00000000000E+00  0.91188000000E+02  0.91188000000E+02 0.  0.
    9900012    2    3    3    0    0 -0.22586243559E+02 -0.72959690322E+01 -0.28149743605E+02  0.54367114252E+02  0.40000068561E+02 0.  0.
         12    1    3    3    0    0  0.22586243559E+02  0.72959690322E+01  0.28149743605E+02  0.36820885748E+02  0.00000000000E+00 0. -1.
         11    1    4    4    0    0  0.36101962795E+01  0.30998230793E+01  0.69467596083E+01  0.84202072193E+01  0.51100000000E-03 0. -1.
        -11    1    4    4    0    0 -0.24693070066E+02 -0.73025367174E+01 -0.33212255021E+02  0.42025333260E+02  0.51100000000E-03 0.  1.
         12    1    4    4    0    0 -0.15033697729E+01 -0.30932553940E+01 -0.18842481925E+01  0.39215737731E+01  0.00000000000E+00 0. -1.
</event>
<event>
 8    1  0.2553474E-006  0.9118800E+02  0.7816164E-02  0.1184000E+00
        -11   -1    0    0    0    0  0.00000000000E+00  0.00000000000E+00  0.45593999997E+02  0.45594000000E+02  0.51100000000E-03 0. -1.
         11   -1    0    0    0    0 -0.00000000000E+00 -0.00000000000E+00 -0.45593999997E+02  0.45594000000E+02  0.51100000000E-03 0.  1.
         23    2    1    2    0    0  0.00000000000E+00  0.71054273576E-14  0.00000000000E+00  0.91188000000E+02  0.91188000000E+02 0.  0.
    9900012    2    3    3    0    0 -0.94174226986E+01 -0.29647325321E+02  0.19700965653E+02  0.54367084794E+02  0.40000001405E+02 0.  0.
        -12    1    3    3    0    0  0.94174226986E+01  0.29647325321E+02 -0.19700965653E+02  0.36820915206E+02  0.00000000000E+00 0.  1.
         11    1    4    4    0    0 -0.10213680175E+02 -0.25645248028E+01  0.69328836525E+01  0.12607970740E+02  0.51100000000E-03 0. -1.
        -11    1    4    4    0    0 -0.68996839638E+01  0.37636360541E+01  0.37789913259E+01  0.87207437098E+01  0.51100000000E-03 0.  1.
         12    1    4    4    0    0  0.76959414401E+01 -0.30846436572E+02  0.89890906744E+01  0.33038370344E+02  0.00000000000E+00 0. -1.
</event>
<event>
 8    1  0.2553474E-006  0.9118800E+02  0.7816164E-02  0.1184000E+00
        -11   -1    0    0    0    0  0.00000000000E+00  0.00000000000E+00  0.45593999997E+02  0.45594000000E+02  0.51100000000E-03 0.  1.
         11   -1    0    0    0    0 -0.00000000000E+00 -0.00000000000E+00 -0.45593999997E+02  0.45594000000E+02  0.51100000000E-03 0. -1.
         23    2    1    2    0    0  0.00000000000E+00  0.17763568394E-14  0.00000000000E+00  0.91188000000E+02  0.91188000000E+02 0.  0.
    9900012    2    3    3    0    0  0.82701521348E+01 -0.11325762874E+02  0.34045718655E+02  0.54367091812E+02  0.40000017404E+02 0.  0.
         12    1    3    3    0    0 -0.82701521348E+01  0.11325762874E+02 -0.34045718655E+02  0.36820908188E+02  0.00000000000E+00 0. -1.
         11    1    4    4    0    0  0.66867523760E+01  0.64036880252E+01  0.38312415223E+01  0.10019894686E+02  0.51100000000E-03 0. -1.
        -11    1    4    4    0    0  0.54443402629E+01  0.40938803965E+01  0.17540936525E+02  0.18817150476E+02  0.51100000000E-03 0.  1.
        -12    1    4    4    0    0 -0.38609405041E+01 -0.21823331296E+02  0.12673540609E+02  0.25530046650E+02  0.00000000000E+00 0.  1.
</event>
<event>
 8    1  0.2553474E-006  0.9118800E+02  0.7816164E-02  0.1184000E+00
        -11   -1    0    0    0    0  0.00000000000E+00  0.00000000000E+00  0.45593999997E+02  0.45594000000E+02  0.51100000000E-03 0.  1.
         11   -1    0    0    0    0 -0.00000000000E+00 -0.00000000000E+00 -0.45593999997E+02  0.45594000000E+02  0.51100000000E-03 0. -1.
         23    2    1    2    0    0  0.17763568394E-14  0.00000000000E+00  0.71054273576E-14  0.91188000000E+02  0.91188000000E+02 0.  0.
    9900012    2    3    3    0    0 -0.10626426784E+02 -0.70417003992E+01  0.34543788541E+02  0.54367084511E+02  0.40000000759E+02 0.  0.
         12    1    3    3    0    0  0.10626426784E+02  0.70417003992E+01 -0.34543788541E+02  0.36820915489E+02  0.00000000000E+00 0. -1.
         11    1    4    4    0    0  0.16890713024E+01 -0.13335493215E+01  0.42062555296E+01  0.47248176154E+01  0.51100000000E-03 0.  1.
        -11    1    4    4    0    0 -0.17802261721E+02  0.19415542200E+01  0.34865799597E+02  0.39195843364E+02  0.51100000000E-03 0. -1.
         12    1    4    4    0    0  0.54867636347E+01 -0.76497052977E+01 -0.45282665858E+01  0.10446423531E+02  0.00000000000E+00 0. -1.
</event>
<event>
 8    1  0.2553474E-006  0.9118800E+02  0.7816164E-02  0.1184000E+00
        -11   -1    0    0    0    0  0.00000000000E+00  0.00000000000E+00  0.45593999997E+02  0.45594000000E+02  0.51100000000E-03 0.  1.
         11   -1    0    0    0    0 -0.00000000000E+00 -0.00000000000E+00 -0.45593999997E+02  0.45594000000E+02  0.51100000000E-03 0. -1.
         23    2    1    2    0    0  0.88817841970E-15  0.00000000000E+00  0.00000000000E+00  0.91188000000E+02  0.91188000000E+02 0.  0.
    9900012    2    3    3    0    0 -0.57979529029E+01 -0.43745823566E+01 -0.36097452472E+02  0.54367091488E+02  0.40000016666E+02 0.  0.
        -12    1    3    3    0    0  0.57979529029E+01  0.43745823566E+01  0.36097452472E+02  0.36820908512E+02  0.00000000000E+00 0.  1.
         11    1    4    4    0    0 -0.11918004858E+02 -0.51733336622E+01 -0.19989543092E+02  0.23840806494E+02  0.51100000000E-03 0. -1.
        -11    1    4    4    0    0 -0.64082491966E+01  0.26390756701E-01  0.34568232184E+01  0.72812074042E+01  0.51100000000E-03 0.  1.
        -12    1    4    4    0    0  0.12528301151E+02  0.77236054888E+00 -0.19564732598E+02  0.23245077590E+02  0.00000000000E+00 0.  1.
</event>
<event>
 8    1  0.2553474E-006  0.9118800E+02  0.7816164E-02  0.1184000E+00
        -11   -1    0    0    0    0  0.00000000000E+00  0.00000000000E+00  0.45593999997E+02  0.45594000000E+02  0.51100000000E-03 0. -1.
         11   -1    0    0    0    0 -0.00000000000E+00 -0.00000000000E+00 -0.45593999997E+02  0.45594000000E+02  0.51100000000E-03 0.  1.
         23    2    1    2    0    0  0.17763568394E-14  0.35527136788E-14  0.35527136788E-14  0.91188000000E+02  0.91188000000E+02 0.  0.
    9900012    2    3    3    0    0 -0.91691154900E+01  0.23546275599E+02  0.26782002548E+02  0.54367144036E+02  0.40000136458E+02 0.  0.
        -12    1    3    3    0    0  0.91691154900E+01 -0.23546275599E+02 -0.26782002548E+02  0.36820855964E+02  0.00000000000E+00 0.  1.
         11    1    4    4    0    0 -0.92470595347E+00  0.17364806537E+01  0.16150989485E+02  0.16270369011E+02  0.51100000000E-03 0. -1.
        -11    1    4    4    0    0 -0.13768550675E+02  0.10211343303E+02  0.16661463896E+02  0.23904997368E+02  0.51100000000E-03 0.  1.
        -12    1    4    4    0    0  0.55241411389E+01  0.11598451642E+02 -0.60304508323E+01  0.14191777656E+02  0.00000000000E+00 0.  1.
</event>
<event>
 8    1  0.2553474E-006  0.9118800E+02  0.7816164E-02  0.1184000E+00
        -11   -1    0    0    0    0  0.00000000000E+00  0.00000000000E+00  0.45593999997E+02  0.45594000000E+02  0.51100000000E-03 0. -1.
         11   -1    0    0    0    0 -0.00000000000E+00 -0.00000000000E+00 -0.45593999997E+02  0.45594000000E+02  0.51100000000E-03 0.  1.
         23    2    1    2    0    0  0.44408920985E-14  0.00000000000E+00  0.00000000000E+00  0.91188000000E+02  0.91188000000E+02 0.  0.
    9900012    2    3    3    0    0  0.54823620761E+01 -0.33547103680E+02  0.14153301477E+02  0.54367076574E+02  0.39999982666E+02 0.  0.
        -12    1    3    3    0    0 -0.54823620761E+01  0.33547103680E+02 -0.14153301477E+02  0.36820923426E+02  0.00000000000E+00 0.  1.
         11    1    4    4    0    0 -0.11647451350E+02 -0.18836674686E+02  0.82478539876E+01  0.23632827420E+02  0.51100000000E-03 0. -1.
        -11    1    4    4    0    0  0.86808963288E+00  0.47116671160E+01  0.36843402571E+00  0.48051150367E+01  0.51100000000E-03 0.  1.
         12    1    4    4    0    0  0.16261723793E+02 -0.19422096109E+02  0.55370134636E+01  0.25929134118E+02  0.00000000000E+00 0. -1.
</event>
<event>
 8    1  0.2553474E-006  0.9118800E+02  0.7816164E-02  0.1184000E+00
        -11   -1    0    0    0    0  0.00000000000E+00  0.00000000000E+00  0.45593999997E+02  0.45594000000E+02  0.51100000000E-03 0. -1.
         11   -1    0    0    0    0 -0.00000000000E+00 -0.00000000000E+00 -0.45593999997E+02  0.45594000000E+02  0.51100000000E-03 0.  1.
         23    2    1    2    0    0 -0.35527136788E-14  0.71054273576E-14 -0.17763568394E-14  0.91188000000E+02  0.91188000000E+02 0.  0.
    9900012    2    3    3    0    0  0.13142463551E+02 -0.34220046471E+02  0.34705125487E+01  0.54367076790E+02  0.39999983158E+02 0.  0.
         12    1    3    3    0    0 -0.13142463551E+02  0.34220046471E+02 -0.34705125487E+01  0.36820923210E+02  0.00000000000E+00 0. -1.
         11    1    4    4    0    0  0.61813129541E+01 -0.17274668270E+02  0.14042457015E+02  0.23104402025E+02  0.51100000000E-03 0. -1.
        -11    1    4    4    0    0  0.12392880086E+02 -0.19316890727E+02 -0.58488510732E+01  0.23684062221E+02  0.51100000000E-03 0.  1.
        -12    1    4    4    0    0 -0.54317294885E+01  0.23715125248E+01 -0.47230933928E+01  0.75786125437E+01  0.00000000000E+00 0.  1.
</event>
<event>
 8    1  0.2553474E-006  0.9118800E+02  0.7816164E-02  0.1184000E+00
        -11   -1    0    0    0    0  0.00000000000E+00  0.00000000000E+00  0.45593999997E+02  0.45594000000E+02  0.51100000000E-03 0. -1.
         11   -1    0    0    0    0 -0.00000000000E+00 -0.00000000000E+00 -0.45593999997E+02  0.45594000000E+02  0.51100000000E-03 0.  1.
         23    2    1    2    0    0  0.00000000000E+00  0.00000000000E+00  0.44408920985E-14  0.91188000000E+02  0.91188000000E+02 0.  0.
    9900012    2    3    3    0    0  0.87343584471E+01 -0.35318906346E+02  0.56627728178E+01  0.54367066294E+02  0.39999959231E+02 0.  0.
        -12    1    3    3    0    0 -0.87343584471E+01  0.35318906346E+02 -0.56627728178E+01  0.36820933706E+02  0.00000000000E+00 0.  1.
         11    1    4    4    0    0 -0.71846058361E+00 -0.17525881634E+02  0.77012830650E+01  0.19156786624E+02  0.51100000000E-03 0. -1.
        -11    1    4    4    0    0  0.21229999317E+01 -0.43850303939E+01 -0.14623846718E+02  0.15414036245E+02  0.51100000000E-03 0.  1.
        -12    1    4    4    0    0  0.73298190990E+01 -0.13407994318E+02  0.12585336471E+02  0.19796243425E+02  0.00000000000E+00 0.  1.
</event>
<event>
 8    1  0.2553474E-006  0.9118800E+02  0.7816164E-02  0.1184000E+00
        -11   -1    0    0    0    0  0.00000000000E+00  0.00000000000E+00  0.45593999997E+02  0.45594000000E+02  0.51100000000E-03 0.  1.
         11   -1    0    0    0    0 -0.00000000000E+00 -0.00000000000E+00 -0.45593999997E+02  0.45594000000E+02  0.51100000000E-03 0. -1.
         23    2    1    2    0    0  0.00000000000E+00  0.00000000000E+00  0.71054273576E-14  0.91188000000E+02  0.91188000000E+02 0.  0.
    9900012    2    3    3    0    0  0.78841994613E+01  0.15989717962E+02  0.32217221972E+02  0.54367067459E+02  0.39999961886E+02 0.  0.
         12    1    3    3    0    0 -0.78841994613E+01 -0.15989717962E+02 -0.32217221972E+02  0.36820932541E+02  0.00000000000E+00 0. -1.
         11    1    4    4    0    0  0.79239535172E+01  0.90050812668E+01 -0.13403630811E+01  0.12069676939E+02  0.51100000000E-03 0. -1.
        -11    1    4    4    0    0 -0.39103728261E+01  0.24983764185E+01  0.35697314798E+02  0.35997655262E+02  0.51100000000E-03 0.  1.
        -12    1    4    4    0    0  0.38706187702E+01  0.44862602763E+01 -0.21397297449E+01  0.62997352573E+01  0.00000000000E+00 0.  1.
</event>
<event>
 8    1  0.2553474E-006  0.9118800E+02  0.7816164E-02  0.1184000E+00
        -11   -1    0    0    0    0  0.00000000000E+00  0.00000000000E+00  0.45593999997E+02  0.45594000000E+02  0.51100000000E-03 0.  1.
         11   -1    0    0    0    0 -0.00000000000E+00 -0.00000000000E+00 -0.45593999997E+02  0.45594000000E+02  0.51100000000E-03 0. -1.
         23    2    1    2    0    0  0.71054273576E-14  0.00000000000E+00  0.53290705182E-14  0.91188000000E+02  0.91188000000E+02 0.  0.
    9900012    2    3    3    0    0 -0.32261235239E+02 -0.10047766312E+02 -0.14629954889E+02  0.54367075418E+02  0.39999980030E+02 0.  0.
         12    1    3    3    0    0  0.32261235239E+02  0.10047766312E+02  0.14629954889E+02  0.36820924582E+02  0.00000000000E+00 0. -1.
         11    1    4    4    0    0 -0.46007163710E+01 -0.10927068608E+02  0.33625311650E+01  0.12323718415E+02  0.51100000000E-03 0. -1.
        -11    1    4    4    0    0  0.29796317102E+01 -0.17368978231E+01  0.31933869493E+01  0.47002914426E+01  0.51100000000E-03 0.  1.
         12    1    4    4    0    0 -0.30640150578E+02  0.26162001184E+01 -0.21185873003E+02  0.37343065560E+02  0.00000000000E+00 0. -1.
</event>
<event>
 8    1  0.2553474E-006  0.9118800E+02  0.7816164E-02  0.1184000E+00
        -11   -1    0    0    0    0  0.00000000000E+00  0.00000000000E+00  0.45593999997E+02  0.45594000000E+02  0.51100000000E-03 0.  1.
         11   -1    0    0    0    0 -0.00000000000E+00 -0.00000000000E+00 -0.45593999997E+02  0.45594000000E+02  0.51100000000E-03 0. -1.
         23    2    1    2    0    0 -0.26645352591E-14  0.00000000000E+00  0.00000000000E+00  0.91188000000E+02  0.91188000000E+02 0.  0.
    9900012    2    3    3    0    0  0.49328634251E+01 -0.32010429465E+02  0.17515126155E+02  0.54367076868E+02  0.39999983336E+02 0.  0.
         12    1    3    3    0    0 -0.49328634251E+01  0.32010429465E+02 -0.17515126155E+02  0.36820923132E+02  0.00000000000E+00 0. -1.
         11    1    4    4    0    0  0.14141837406E+02 -0.31960568759E+02  0.17909584619E+02  0.39271143886E+02  0.51100000000E-03 0. -1.
        -11    1    4    4    0    0 -0.99049279138E+01 -0.11600391037E+01 -0.43862400123E+01  0.10894603683E+02  0.51100000000E-03 0.  1.
         12    1    4    4    0    0  0.69595393237E+00  0.11101783984E+01  0.39917815482E+01  0.42013292992E+01  0.00000000000E+00 0. -1.
</event>
<event>
 8    1  0.2553474E-006  0.9118800E+02  0.7816164E-02  0.1184000E+00
        -11   -1    0    0    0    0  0.00000000000E+00  0.00000000000E+00  0.45593999997E+02  0.45594000000E+02  0.51100000000E-03 0. -1.
         11   -1    0    0    0    0 -0.00000000000E+00 -0.00000000000E+00 -0.45593999997E+02  0.45594000000E+02  0.51100000000E-03 0.  1.
         23    2    1    2    0    0  0.00000000000E+00  0.00000000000E+00  0.00000000000E+00  0.91188000000E+02  0.91188000000E+02 0.  0.
    9900012    2    3    3    0    0 -0.10407883058E+02 -0.66380772436E+01  0.34689942043E+02  0.54367079612E+02  0.39999989592E+02 0.  0.
        -12    1    3    3    0    0  0.10407883058E+02  0.66380772436E+01 -0.34689942043E+02  0.36820920388E+02  0.00000000000E+00 0.  1.
         11    1    4    4    0    0  0.58642338905E+01 -0.13486877813E+02  0.74375487067E+00  0.14725429835E+02  0.51100000000E-03 0. -1.
        -11    1    4    4    0    0 -0.26060986299E+01 -0.95733661204E+00  0.70732554525E+00  0.28650572674E+01  0.51100000000E-03 0.  1.
         12    1    4    4    0    0 -0.13666018319E+02  0.78061371810E+01  0.33238861627E+02  0.36776592510E+02  0.00000000000E+00 0. -1.
</event>
<event>
 8    1  0.2553474E-006  0.9118800E+02  0.7816164E-02  0.1184000E+00
        -11   -1    0    0    0    0  0.00000000000E+00  0.00000000000E+00  0.45593999997E+02  0.45594000000E+02  0.51100000000E-03 0.  1.
         11   -1    0    0    0    0 -0.00000000000E+00 -0.00000000000E+00 -0.45593999997E+02  0.45594000000E+02  0.51100000000E-03 0. -1.
         23    2    1    2    0    0 -0.44408920985E-15  0.35527136788E-14  0.00000000000E+00  0.91188000000E+02  0.91188000000E+02 0.  0.
    9900012    2    3    3    0    0 -0.27567007259E+01  0.26281961163E+02  0.25640574175E+02  0.54367083044E+02  0.39999997416E+02 0.  0.
         12    1    3    3    0    0  0.27567007259E+01 -0.26281961163E+02 -0.25640574175E+02  0.36820916956E+02  0.00000000000E+00 0. -1.
         11    1    4    4    0    0  0.43790702921E+01  0.10599152913E+02 -0.17786576522E+01  0.11605254086E+02  0.51100000000E-03 0. -1.
        -11    1    4    4    0    0  0.59880635396E+01  0.18341382676E+02  0.14299861567E+02  0.24015604605E+02  0.51100000000E-03 0.  1.
        -12    1    4    4    0    0 -0.13123834558E+02 -0.26585744268E+01  0.13119370260E+02  0.18746224353E+02  0.00000000000E+00 0.  1.
</event>
<event>
 8    1  0.2553474E-006  0.9118800E+02  0.7816164E-02  0.1184000E+00
        -11   -1    0    0    0    0  0.00000000000E+00  0.00000000000E+00  0.45593999997E+02  0.45594000000E+02  0.51100000000E-03 0.  1.
         11   -1    0    0    0    0 -0.00000000000E+00 -0.00000000000E+00 -0.45593999997E+02  0.45594000000E+02  0.51100000000E-03 0. -1.
         23    2    1    2    0    0  0.00000000000E+00  0.00000000000E+00 -0.44408920985E-15  0.91188000000E+02  0.91188000000E+02 0.  0.
    9900012    2    3    3    0    0 -0.35668627194E+02 -0.88513952862E+01 -0.22766386970E+01  0.54367065083E+02  0.39999956469E+02 0.  0.
         12    1    3    3    0    0  0.35668627194E+02  0.88513952862E+01  0.22766386970E+01  0.36820934917E+02  0.00000000000E+00 0. -1.
         11    1    4    4    0    0 -0.15391277910E+02 -0.22333747033E+01  0.73070602544E+00  0.15569628442E+02  0.51100000000E-03 0. -1.
        -11    1    4    4    0    0 -0.27918498286E+01 -0.46239688715E+01 -0.16022708805E+02  0.16908657880E+02  0.51100000000E-03 0.  1.
        -12    1    4    4    0    0 -0.17485499455E+02 -0.19940517113E+01  0.13015364083E+02  0.21888778760E+02  0.00000000000E+00 0.  1.
</event>
<event>
 8    1  0.2553474E-006  0.9118800E+02  0.7816164E-02  0.1184000E+00
        -11   -1    0    0    0    0  0.00000000000E+00  0.00000000000E+00  0.45593999997E+02  0.45594000000E+02  0.51100000000E-03 0.  1.
         11   -1    0    0    0    0 -0.00000000000E+00 -0.00000000000E+00 -0.45593999997E+02  0.45594000000E+02  0.51100000000E-03 0. -1.
         23    2    1    2    0    0  0.00000000000E+00 -0.66613381478E-15  0.00000000000E+00  0.91188000000E+02  0.91188000000E+02 0.  0.
    9900012    2    3    3    0    0 -0.26238417127E+02 -0.13762427291E+01 -0.25795953844E+02  0.54367084584E+02  0.40000000925E+02 0.  0.
        -12    1    3    3    0    0  0.26238417127E+02  0.13762427291E+01  0.25795953844E+02  0.36820915416E+02  0.00000000000E+00 0.  1.
         11    1    4    4    0    0 -0.23722191972E+02 -0.42819449953E+00 -0.29210219227E+02  0.37631936570E+02  0.51100000000E-03 0. -1.
        -11    1    4    4    0    0  0.61900152198E+01  0.23985245568E+01 -0.41724792929E+00  0.66515640692E+01  0.51100000000E-03 0.  1.
        -12    1    4    4    0    0 -0.87062403754E+01 -0.33465727864E+01  0.38315133130E+01  0.10083583944E+02  0.00000000000E+00 0.  1.
</event>
<event>
 8    1  0.2553474E-006  0.9118800E+02  0.7816164E-02  0.1184000E+00
        -11   -1    0    0    0    0  0.00000000000E+00  0.00000000000E+00  0.45593999997E+02  0.45594000000E+02  0.51100000000E-03 0.  1.
         11   -1    0    0    0    0 -0.00000000000E+00 -0.00000000000E+00 -0.45593999997E+02  0.45594000000E+02  0.51100000000E-03 0. -1.
         23    2    1    2    0    0  0.00000000000E+00  0.35527136788E-14 -0.17763568394E-14  0.91188000000E+02  0.91188000000E+02 0.  0.
    9900012    2    3    3    0    0 -0.17013672261E+02 -0.30954685260E+02  0.10398210086E+02  0.54367077193E+02  0.39999984077E+02 0.  0.
        -12    1    3    3    0    0  0.17013672261E+02  0.30954685260E+02 -0.10398210086E+02  0.36820922807E+02  0.00000000000E+00 0.  1.
         11    1    4    4    0    0  0.90070780378E+01 -0.65501138170E+01  0.11233031869E+01  0.11193447016E+02  0.51100000000E-03 0. -1.
        -11    1    4    4    0    0  0.40010714236E+01 -0.42510518666E+01 -0.24848885733E-01  0.58378619577E+01  0.51100000000E-03 0.  1.
        -12    1    4    4    0    0 -0.30021821722E+02 -0.20153519577E+02  0.92997557848E+01  0.37335768219E+02  0.00000000000E+00 0.  1.
</event>
<event>
 8    1  0.2553474E-006  0.9118800E+02  0.7816164E-02  0.1184000E+00
        -11   -1    0    0    0    0  0.00000000000E+00  0.00000000000E+00  0.45593999997E+02  0.45594000000E+02  0.51100000000E-03 0.  1.
         11   -1    0    0    0    0 -0.00000000000E+00 -0.00000000000E+00 -0.45593999997E+02  0.45594000000E+02  0.51100000000E-03 0. -1.
         23    2    1    2    0    0  0.17763568394E-14 -0.35527136788E-14  0.00000000000E+00  0.91188000000E+02  0.91188000000E+02 0.  0.
    9900012    2    3    3    0    0  0.10244693488E+02  0.16573499218E+02  0.31243327255E+02  0.54367080417E+02  0.39999991427E+02 0.  0.
         12    1    3    3    0    0 -0.10244693488E+02 -0.16573499218E+02 -0.31243327255E+02  0.36820919583E+02  0.00000000000E+00 0. -1.
         11    1    4    4    0    0  0.10974652722E+02  0.58606899890E+01 -0.66638978551E+00  0.12459324425E+02  0.51100000000E-03 0. -1.
        -11    1    4    4    0    0 -0.61371270095E-01 -0.58014928971E+01 -0.18779383038E+00  0.58048559888E+01  0.51100000000E-03 0.  1.
        -12    1    4    4    0    0 -0.66858796390E+00  0.16514302126E+02  0.32097510870E+02  0.36102900003E+02  0.00000000000E+00 0.  1.
</event>
<event>
 8    1  0.2553474E-006  0.9118800E+02  0.7816164E-02  0.1184000E+00
        -11   -1    0    0    0    0  0.00000000000E+00  0.00000000000E+00  0.45593999997E+02  0.45594000000E+02  0.51100000000E-03 0.  1.
         11   -1    0    0    0    0 -0.00000000000E+00 -0.00000000000E+00 -0.45593999997E+02  0.45594000000E+02  0.51100000000E-03 0. -1.
         23    2    1    2    0    0  0.35527136788E-14  0.17763568394E-14 -0.71054273576E-14  0.91188000000E+02  0.91188000000E+02 0.  0.
    9900012    2    3    3    0    0  0.20860164743E+02  0.13158110322E+02 -0.27340400781E+02  0.54367083999E+02  0.39999999591E+02 0.  0.
        -12    1    3    3    0    0 -0.20860164743E+02 -0.13158110322E+02  0.27340400781E+02  0.36820916001E+02  0.00000000000E+00 0.  1.
         11    1    4    4    0    0  0.30462947161E+01  0.49566214669E+01  0.32336358738E+00  0.58268835697E+01  0.51100000000E-03 0. -1.
        -11    1    4    4    0    0 -0.74907986182E+01  0.10536510919E+02 -0.33156008192E+01  0.13346285451E+02  0.51100000000E-03 0.  1.
         12    1    4    4    0    0  0.25304668645E+02 -0.23350220640E+01 -0.24348163549E+02  0.35193914978E+02  0.00000000000E+00 0. -1.
</event>
<event>
 8    1  0.2553474E-006  0.9118800E+02  0.7816164E-02  0.1184000E+00
        -11   -1    0    0    0    0  0.00000000000E+00  0.00000000000E+00  0.45593999997E+02  0.45594000000E+02  0.51100000000E-03 0.  1.
         11   -1    0    0    0    0 -0.00000000000E+00 -0.00000000000E+00 -0.45593999997E+02  0.45594000000E+02  0.51100000000E-03 0. -1.
         23    2    1    2    0    0  0.00000000000E+00  0.00000000000E+00 -0.35527136788E-14  0.91188000000E+02  0.91188000000E+02 0.  0.
    9900012    2    3    3    0    0  0.72851707259E+01  0.24985337778E+02  0.26046878817E+02  0.54367072357E+02  0.39999973051E+02 0.  0.
         12    1    3    3    0    0 -0.72851707259E+01 -0.24985337778E+02 -0.26046878817E+02  0.36820927643E+02  0.00000000000E+00 0. -1.
         11    1    4    4    0    0  0.49047447730E+01  0.22173587359E+02 -0.28009247027E+01  0.22881644983E+02  0.51100000000E-03 0. -1.
        -11    1    4    4    0    0 -0.48498126738E+01  0.11701170698E+01  0.88790208929E+01  0.10184638884E+02  0.51100000000E-03 0.  1.
        -12    1    4    4    0    0  0.72302386268E+01  0.16416333490E+01  0.19968782627E+02  0.21300788489E+02  0.00000000000E+00 0.  1.
</event>
<event>
 8    1  0.2553474E-006  0.9118800E+02  0.7816164E-02  0.1184000E+00
        -11   -1    0    0    0    0  0.00000000000E+00  0.00000000000E+00  0.45593999997E+02  0.45594000000E+02  0.51100000000E-03 0.  1.
         11   -1    0    0    0    0 -0.00000000000E+00 -0.00000000000E+00 -0.45593999997E+02  0.45594000000E+02  0.51100000000E-03 0. -1.
         23    2    1    2    0    0  0.71054273576E-14  0.00000000000E+00  0.36082248300E-15  0.91188000000E+02  0.91188000000E+02 0.  0.
    9900012    2    3    3    0    0  0.32809561802E+02  0.16712004295E+02  0.14739413790E+00  0.54367079883E+02  0.39999990210E+02 0.  0.
         12    1    3    3    0    0 -0.32809561802E+02 -0.16712004295E+02 -0.14739413790E+00  0.36820920117E+02  0.00000000000E+00 0. -1.
         11    1    4    4    0    0  0.55114295447E+01  0.34196321459E+01  0.81508288367E+01  0.10416609363E+02  0.51100000000E-03 0.  1.
        -11    1    4    4    0    0  0.11341727853E+02  0.21306145846E+02  0.56903035785E+00  0.24143538210E+02  0.51100000000E-03 0. -1.
        -12    1    4    4    0    0  0.15956404404E+02 -0.80137736971E+01 -0.85724650567E+01  0.19806932310E+02  0.00000000000E+00 0.  1.
</event>
<event>
 8    1  0.2553474E-006  0.9118800E+02  0.7816164E-02  0.1184000E+00
        -11   -1    0    0    0    0  0.00000000000E+00  0.00000000000E+00  0.45593999997E+02  0.45594000000E+02  0.51100000000E-03 0. -1.
         11   -1    0    0    0    0 -0.00000000000E+00 -0.00000000000E+00 -0.45593999997E+02  0.45594000000E+02  0.51100000000E-03 0.  1.
         23    2    1    2    0    0 -0.35527136788E-14  0.44408920985E-15  0.00000000000E+00  0.91188000000E+02  0.91188000000E+02 0.  0.
    9900012    2    3    3    0    0 -0.23659714665E+02 -0.33422180704E+01  0.28014916470E+02  0.54366972523E+02  0.39999745459E+02 0.  0.
        -12    1    3    3    0    0  0.23659714665E+02  0.33422180704E+01 -0.28014916470E+02  0.36821027477E+02  0.00000000000E+00 0.  1.
         11    1    4    4    0    0 -0.12616525295E+02  0.50810212721E+01  0.21934156725E+02  0.25808927122E+02  0.51100000000E-03 0. -1.
        -11    1    4    4    0    0 -0.37216139014E+00 -0.99384683723E+01 -0.65844229074E+01  0.11927543040E+02  0.51100000000E-03 0.  1.
        -12    1    4    4    0    0 -0.10671027979E+02  0.15152290298E+01  0.12665182653E+02  0.16630502361E+02  0.00000000000E+00 0.  1.
</event>
<event>
 8    1  0.2553474E-006  0.9118800E+02  0.7816164E-02  0.1184000E+00
        -11   -1    0    0    0    0  0.00000000000E+00  0.00000000000E+00  0.45593999997E+02  0.45594000000E+02  0.51100000000E-03 0.  1.
         11   -1    0    0    0    0 -0.00000000000E+00 -0.00000000000E+00 -0.45593999997E+02  0.45594000000E+02  0.51100000000E-03 0. -1.
         23    2    1    2    0    0  0.17763568394E-14 -0.17763568394E-14 -0.35527136788E-14  0.91188000000E+02  0.91188000000E+02 0.  0.
    9900012    2    3    3    0    0  0.11849555717E+02 -0.14043263119E+02  0.31908516403E+02  0.54367100652E+02  0.40000037557E+02 0.  0.
         12    1    3    3    0    0 -0.11849555717E+02  0.14043263119E+02 -0.31908516403E+02  0.36820899348E+02  0.00000000000E+00 0. -1.
         11    1    4    4    0    0  0.50493655279E+01 -0.41258492401E+01 -0.51829798007E+00  0.65412045713E+01  0.51100000000E-03 0. -1.
        -11    1    4    4    0    0 -0.15224399932E+01  0.82222480584E+01  0.25279968479E+02  0.26627053784E+02  0.51100000000E-03 0.  1.
        -12    1    4    4    0    0  0.83226301821E+01 -0.18139661937E+02  0.71468459043E+01  0.21198842297E+02  0.00000000000E+00 0.  1.
</event>
<event>
 8    1  0.2553474E-006  0.9118800E+02  0.7816164E-02  0.1184000E+00
        -11   -1    0    0    0    0  0.00000000000E+00  0.00000000000E+00  0.45593999997E+02  0.45594000000E+02  0.51100000000E-03 0.  1.
         11   -1    0    0    0    0 -0.00000000000E+00 -0.00000000000E+00 -0.45593999997E+02  0.45594000000E+02  0.51100000000E-03 0. -1.
         23    2    1    2    0    0  0.00000000000E+00 -0.26645352591E-14  0.00000000000E+00  0.91188000000E+02  0.91188000000E+02 0.  0.
    9900012    2    3    3    0    0 -0.83952703625E+01 -0.63517740222E+01 -0.35283907325E+02  0.54367085918E+02  0.40000003968E+02 0.  0.
        -12    1    3    3    0    0  0.83952703625E+01  0.63517740222E+01  0.35283907325E+02  0.36820914082E+02  0.00000000000E+00 0.  1.
         11    1    4    4    0    0 -0.11745763050E+02 -0.17002780147E+02 -0.17981888975E+02  0.27393535985E+02  0.51100000000E-03 0. -1.
        -11    1    4    4    0    0 -0.57608605328E+01  0.15399501547E+01 -0.76913561617E+00  0.60125311155E+01  0.51100000000E-03 0.  1.
        -12    1    4    4    0    0  0.91113532204E+01  0.91110559703E+01 -0.16532882734E+02  0.20961018818E+02  0.00000000000E+00 0.  1.
</event>
<event>
 8    1  0.2553474E-006  0.9118800E+02  0.7816164E-02  0.1184000E+00
        -11   -1    0    0    0    0  0.00000000000E+00  0.00000000000E+00  0.45593999997E+02  0.45594000000E+02  0.51100000000E-03 0.  1.
         11   -1    0    0    0    0 -0.00000000000E+00 -0.00000000000E+00 -0.45593999997E+02  0.45594000000E+02  0.51100000000E-03 0. -1.
         23    2    1    2    0    0 -0.71054273576E-14  0.88817841970E-15  0.17763568394E-14  0.91188000000E+02  0.91188000000E+02 0.  0.
    9900012    2    3    3    0    0  0.36053468179E+02 -0.36172920144E+01  0.65454511156E+01  0.54367077964E+02  0.39999985835E+02 0.  0.
        -12    1    3    3    0    0 -0.36053468179E+02  0.36172920144E+01 -0.65454511156E+01  0.36820922036E+02  0.00000000000E+00 0.  1.
         11    1    4    4    0    0  0.22006645638E+02 -0.83289120057E+01 -0.12924798406E+02  0.26846110361E+02  0.51100000000E-03 0. -1.
        -11    1    4    4    0    0  0.44209164013E+01 -0.45624008380E+00 -0.77918024984E+00  0.45121811759E+01  0.51100000000E-03 0.  1.
        -12    1    4    4    0    0  0.96259061400E+01  0.51678600751E+01  0.20249429771E+02  0.23008786427E+02  0.00000000000E+00 0.  1.
</event>
<event>
 8    1  0.2553474E-006  0.9118800E+02  0.7816164E-02  0.1184000E+00
        -11   -1    0    0    0    0  0.00000000000E+00  0.00000000000E+00  0.45593999997E+02  0.45594000000E+02  0.51100000000E-03 0. -1.
         11   -1    0    0    0    0 -0.00000000000E+00 -0.00000000000E+00 -0.45593999997E+02  0.45594000000E+02  0.51100000000E-03 0.  1.
         23    2    1    2    0    0 -0.35527136788E-14  0.00000000000E+00  0.00000000000E+00  0.91188000000E+02  0.91188000000E+02 0.  0.
    9900012    2    3    3    0    0  0.21090443097E+02 -0.16074814376E+02  0.25545519158E+02  0.54367082082E+02  0.39999995223E+02 0.  0.
        -12    1    3    3    0    0 -0.21090443097E+02  0.16074814376E+02 -0.25545519158E+02  0.36820917918E+02  0.00000000000E+00 0.  1.
         11    1    4    4    0    0 -0.10467592522E+02 -0.37444415220E+01  0.19173805425E+01  0.11281297972E+02  0.51100000000E-03 0. -1.
        -11    1    4    4    0    0  0.70878515891E+01  0.13122629805E+01  0.88392226453E+01  0.11405767467E+02  0.51100000000E-03 0.  1.
         12    1    4    4    0    0  0.24470184030E+02 -0.13642635834E+02  0.14788915970E+02  0.31680016644E+02  0.00000000000E+00 0. -1.
</event>
<event>
 8    1  0.2553474E-006  0.9118800E+02  0.7816164E-02  0.1184000E+00
        -11   -1    0    0    0    0  0.00000000000E+00  0.00000000000E+00  0.45593999997E+02  0.45594000000E+02  0.51100000000E-03 0. -1.
         11   -1    0    0    0    0 -0.00000000000E+00 -0.00000000000E+00 -0.45593999997E+02  0.45594000000E+02  0.51100000000E-03 0.  1.
         23    2    1    2    0    0  0.00000000000E+00 -0.35527136788E-14 -0.35527136788E-14  0.91188000000E+02  0.91188000000E+02 0.  0.
    9900012    2    3    3    0    0  0.62067205753E+01 -0.24184740868E+02 -0.27062038865E+02  0.54367095358E+02  0.40000025487E+02 0.  0.
         12    1    3    3    0    0 -0.62067205753E+01  0.24184740868E+02  0.27062038865E+02  0.36820904642E+02  0.00000000000E+00 0. -1.
         11    1    4    4    0    0  0.67489214052E+01  0.33190685164E+01 -0.12434127546E+02  0.14531747453E+02  0.51100000000E-03 0. -1.
        -11    1    4    4    0    0 -0.69850317199E+01 -0.14765433414E+01 -0.10513825356E+02  0.12708712454E+02  0.51100000000E-03 0.  1.
         12    1    4    4    0    0  0.64428308900E+01 -0.26027266043E+02 -0.41140859633E+01  0.27126635451E+02  0.00000000000E+00 0. -1.
</event>
<event>
 8    1  0.2553474E-006  0.9118800E+02  0.7816164E-02  0.1184000E+00
        -11   -1    0    0    0    0  0.00000000000E+00  0.00000000000E+00  0.45593999997E+02  0.45594000000E+02  0.51100000000E-03 0.  1.
         11   -1    0    0    0    0 -0.00000000000E+00 -0.00000000000E+00 -0.45593999997E+02  0.45594000000E+02  0.51100000000E-03 0. -1.
         23    2    1    2    0    0 -0.17763568394E-14  0.17763568394E-14  0.00000000000E+00  0.91188000000E+02  0.91188000000E+02 0.  0.
    9900012    2    3    3    0    0  0.11471579755E+02 -0.11126748995E+02 -0.33171991736E+02  0.54367045083E+02  0.39999910875E+02 0.  0.
        -12    1    3    3    0    0 -0.11471579755E+02  0.11126748995E+02  0.33171991736E+02  0.36820954917E+02  0.00000000000E+00 0.  1.
         11    1    4    4    0    0  0.17409428921E+00 -0.10138386343E+02 -0.37763618781E+01  0.10820263202E+02  0.51100000000E-03 0. -1.
        -11    1    4    4    0    0  0.79678015520E+01 -0.14665420201E+01  0.46460588010E+01  0.93392970674E+01  0.51100000000E-03 0.  1.
         12    1    4    4    0    0  0.33296839140E+01  0.47817936896E+00 -0.34041688659E+02  0.34207484813E+02  0.00000000000E+00 0. -1.
</event>
<event>
 8    1  0.2553474E-006  0.9118800E+02  0.7816164E-02  0.1184000E+00
        -11   -1    0    0    0    0  0.00000000000E+00  0.00000000000E+00  0.45593999997E+02  0.45594000000E+02  0.51100000000E-03 0.  1.
         11   -1    0    0    0    0 -0.00000000000E+00 -0.00000000000E+00 -0.45593999997E+02  0.45594000000E+02  0.51100000000E-03 0. -1.
         23    2    1    2    0    0  0.00000000000E+00 -0.44408920985E-15  0.00000000000E+00  0.91188000000E+02  0.91188000000E+02 0.  0.
    9900012    2    3    3    0    0  0.72615063128E+01 -0.14007996686E+00  0.36097521714E+02  0.54367079720E+02  0.39999989838E+02 0.  0.
         12    1    3    3    0    0 -0.72615063128E+01  0.14007996686E+00 -0.36097521714E+02  0.36820920280E+02  0.00000000000E+00 0. -1.
         11    1    4    4    0    0 -0.54246990214E+01 -0.84265294909E+01  0.47530452300E+01  0.11091672460E+02  0.51100000000E-03 0. -1.
        -11    1    4    4    0    0 -0.17887084340E+01 -0.16128863499E+01  0.24232457907E+02  0.24351856125E+02  0.51100000000E-03 0.  1.
        -12    1    4    4    0    0  0.14474913768E+02  0.98993358739E+01  0.71120185773E+01  0.18923551136E+02  0.00000000000E+00 0.  1.
</event>
<event>
 8    1  0.2553474E-006  0.9118800E+02  0.7816164E-02  0.1184000E+00
        -11   -1    0    0    0    0  0.00000000000E+00  0.00000000000E+00  0.45593999997E+02  0.45594000000E+02  0.51100000000E-03 0.  1.
         11   -1    0    0    0    0 -0.00000000000E+00 -0.00000000000E+00 -0.45593999997E+02  0.45594000000E+02  0.51100000000E-03 0. -1.
         23    2    1    2    0    0  0.00000000000E+00  0.44408920985E-15  0.35527136788E-14  0.91188000000E+02  0.91188000000E+02 0.  0.
    9900012    2    3    3    0    0  0.23028158777E+02  0.36630149529E+01  0.28496785041E+02  0.54367074796E+02  0.39999978613E+02 0.  0.
         12    1    3    3    0    0 -0.23028158777E+02 -0.36630149529E+01 -0.28496785041E+02  0.36820925204E+02  0.00000000000E+00 0. -1.
         11    1    4    4    0    0 -0.91632775989E+01 -0.14656958633E+01 -0.19155821137E+00  0.92817355881E+01  0.51100000000E-03 0. -1.
        -11    1    4    4    0    0  0.20245523896E+02 -0.27689314471E+01  0.17717213924E+02  0.27045293282E+02  0.51100000000E-03 0.  1.
        -12    1    4    4    0    0  0.11945912479E+02  0.78976422633E+01  0.10971129328E+02  0.18040045926E+02  0.00000000000E+00 0.  1.
</event>
<event>
 8    1  0.2553474E-006  0.9118800E+02  0.7816164E-02  0.1184000E+00
        -11   -1    0    0    0    0  0.00000000000E+00  0.00000000000E+00  0.45593999997E+02  0.45594000000E+02  0.51100000000E-03 0. -1.
         11   -1    0    0    0    0 -0.00000000000E+00 -0.00000000000E+00 -0.45593999997E+02  0.45594000000E+02  0.51100000000E-03 0.  1.
         23    2    1    2    0    0  0.00000000000E+00  0.00000000000E+00  0.22204460493E-15  0.91188000000E+02  0.91188000000E+02 0.  0.
    9900012    2    3    3    0    0 -0.32363081357E+02  0.17555489328E+02  0.46445833175E+00  0.54367082548E+02  0.39999996285E+02 0.  0.
         12    1    3    3    0    0  0.32363081357E+02 -0.17555489328E+02 -0.46445833175E+00  0.36820917452E+02  0.00000000000E+00 0. -1.
         11    1    4    4    0    0 -0.32301176298E+02  0.15500139140E+02  0.34254212438E+01  0.35991024084E+02  0.51100000000E-03 0.  1.
        -11    1    4    4    0    0 -0.59651184554E+01  0.67813159673E+01  0.21055496460E+01  0.92737384052E+01  0.51100000000E-03 0. -1.
         12    1    4    4    0    0  0.59032133967E+01 -0.47259657798E+01 -0.50665125580E+01  0.91023200592E+01  0.00000000000E+00 0. -1.
</event>
<event>
 8    1  0.2553474E-006  0.9118800E+02  0.7816164E-02  0.1184000E+00
        -11   -1    0    0    0    0  0.00000000000E+00  0.00000000000E+00  0.45593999997E+02  0.45594000000E+02  0.51100000000E-03 0.  1.
         11   -1    0    0    0    0 -0.00000000000E+00 -0.00000000000E+00 -0.45593999997E+02  0.45594000000E+02  0.51100000000E-03 0. -1.
         23    2    1    2    0    0 -0.17763568394E-14  0.00000000000E+00  0.35527136788E-14  0.91188000000E+02  0.91188000000E+02 0.  0.
    9900012    2    3    3    0    0 -0.87894351995E+01 -0.33093025467E+02  0.13541731080E+02  0.54367068639E+02  0.39999964575E+02 0.  0.
         12    1    3    3    0    0  0.87894351995E+01  0.33093025467E+02 -0.13541731080E+02  0.36820931361E+02  0.00000000000E+00 0. -1.
         11    1    4    4    0    0  0.15424700022E+01  0.46296598285E+01 -0.14082578695E+01  0.50789914671E+01  0.51100000000E-03 0. -1.
        -11    1    4    4    0    0 -0.19250456478E+00  0.36640576239E+01  0.37143090242E+01  0.52209642851E+01  0.51100000000E-03 0.  1.
         12    1    4    4    0    0 -0.10139400637E+02 -0.41386742919E+02  0.11235679925E+02  0.44067112886E+02  0.00000000000E+00 0. -1.
</event>
<event>
 8    1  0.2553474E-006  0.9118800E+02  0.7816164E-02  0.1184000E+00
        -11   -1    0    0    0    0  0.00000000000E+00  0.00000000000E+00  0.45593999997E+02  0.45594000000E+02  0.51100000000E-03 0.  1.
         11   -1    0    0    0    0 -0.00000000000E+00 -0.00000000000E+00 -0.45593999997E+02  0.45594000000E+02  0.51100000000E-03 0. -1.
         23    2    1    2    0    0  0.17763568394E-14  0.35527136788E-14  0.00000000000E+00  0.91188000000E+02  0.91188000000E+02 0.  0.
    9900012    2    3    3    0    0 -0.79308552790E+01 -0.24052831733E+02  0.26727171434E+02  0.54367097340E+02  0.40000030007E+02 0.  0.
         12    1    3    3    0    0  0.79308552790E+01  0.24052831733E+02 -0.26727171434E+02  0.36820902660E+02  0.00000000000E+00 0. -1.
         11    1    4    4    0    0 -0.12043272804E+01 -0.14743769977E+02  0.20608137664E+02  0.25367784602E+02  0.51100000000E-03 0. -1.
        -11    1    4    4    0    0 -0.13866785123E+02 -0.10807338857E+02  0.10511241518E+02  0.20483468977E+02  0.51100000000E-03 0.  1.
         12    1    4    4    0    0  0.71402571243E+01  0.14982771018E+01 -0.43922077483E+01  0.85158437620E+01  0.00000000000E+00 0. -1.
</event>
<event>
 8    1  0.2553474E-006  0.9118800E+02  0.7816164E-02  0.1184000E+00
        -11   -1    0    0    0    0  0.00000000000E+00  0.00000000000E+00  0.45593999997E+02  0.45594000000E+02  0.51100000000E-03 0. -1.
         11   -1    0    0    0    0 -0.00000000000E+00 -0.00000000000E+00 -0.45593999997E+02  0.45594000000E+02  0.51100000000E-03 0.  1.
         23    2    1    2    0    0  0.00000000000E+00 -0.35527136788E-14  0.17763568394E-14  0.91188000000E+02  0.91188000000E+02 0.  0.
    9900012    2    3    3    0    0  0.25721442378E+02 -0.24707320712E+02  0.91507086572E+01  0.54367085241E+02  0.40000002424E+02 0.  0.
        -12    1    3    3    0    0 -0.25721442378E+02  0.24707320712E+02 -0.91507086572E+01  0.36820914759E+02  0.00000000000E+00 0.  1.
         11    1    4    4    0    0  0.14003595932E+02  0.15645713934E+01 -0.77680125545E+01  0.16090077750E+02  0.51100000000E-03 0. -1.
        -11    1    4    4    0    0  0.91968031841E+01 -0.10904825014E+02  0.17641908399E+02  0.22687735225E+02  0.51100000000E-03 0.  1.
         12    1    4    4    0    0  0.25210432615E+01 -0.15367067091E+02 -0.72318718761E+00  0.15589272267E+02  0.00000000000E+00 0. -1.
</event>
<event>
 8    1  0.2553474E-006  0.9118800E+02  0.7816164E-02  0.1184000E+00
        -11   -1    0    0    0    0  0.00000000000E+00  0.00000000000E+00  0.45593999997E+02  0.45594000000E+02  0.51100000000E-03 0.  1.
         11   -1    0    0    0    0 -0.00000000000E+00 -0.00000000000E+00 -0.45593999997E+02  0.45594000000E+02  0.51100000000E-03 0. -1.
         23    2    1    2    0    0  0.00000000000E+00 -0.88817841970E-15 -0.35527136788E-14  0.91188000000E+02  0.91188000000E+02 0.  0.
    9900012    2    3    3    0    0  0.27083184345E+02  0.18851410233E+01 -0.24874218453E+02  0.54367090525E+02  0.40000014469E+02 0.  0.
        -12    1    3    3    0    0 -0.27083184345E+02 -0.18851410233E+01  0.24874218453E+02  0.36820909475E+02  0.00000000000E+00 0.  1.
         11    1    4    4    0    0  0.24549330777E+02 -0.10333198340E+02 -0.16782648972E+02  0.31481771492E+02  0.51100000000E-03 0.  1.
        -11    1    4    4    0    0  0.80499385642E+01  0.51301923813E+01 -0.98683112968E+01  0.13729674172E+02  0.51100000000E-03 0. -1.
        -12    1    4    4    0    0 -0.55160849960E+01  0.70881469823E+01  0.17767418156E+01  0.91556448602E+01  0.00000000000E+00 0.  1.
</event>
<event>
 8    1  0.2553474E-006  0.9118800E+02  0.7816164E-02  0.1184000E+00
        -11   -1    0    0    0    0  0.00000000000E+00  0.00000000000E+00  0.45593999997E+02  0.45594000000E+02  0.51100000000E-03 0.  1.
         11   -1    0    0    0    0 -0.00000000000E+00 -0.00000000000E+00 -0.45593999997E+02  0.45594000000E+02  0.51100000000E-03 0. -1.
         23    2    1    2    0    0  0.35527136788E-14  0.35527136788E-14  0.00000000000E+00  0.91188000000E+02  0.91188000000E+02 0.  0.
    9900012    2    3    3    0    0  0.18240460412E+02  0.26589537987E+02 -0.17778132034E+02  0.54367083322E+02  0.39999998049E+02 0.  0.
        -12    1    3    3    0    0 -0.18240460412E+02 -0.26589537987E+02  0.17778132034E+02  0.36820916678E+02  0.00000000000E+00 0.  1.
         11    1    4    4    0    0 -0.20489407655E+00  0.25890574231E+02 -0.66396225040E+01  0.26729167643E+02  0.51100000000E-03 0. -1.
        -11    1    4    4    0    0 -0.20455088711E+01  0.40433390143E+01 -0.19148011252E+01  0.49192642272E+01  0.51100000000E-03 0.  1.
        -12    1    4    4    0    0  0.20490863359E+02 -0.33443752584E+01 -0.92237084044E+01  0.22718651452E+02  0.00000000000E+00 0.  1.
</event>
<event>
 8    1  0.2553474E-006  0.9118800E+02  0.7816164E-02  0.1184000E+00
        -11   -1    0    0    0    0  0.00000000000E+00  0.00000000000E+00  0.45593999997E+02  0.45594000000E+02  0.51100000000E-03 0.  1.
         11   -1    0    0    0    0 -0.00000000000E+00 -0.00000000000E+00 -0.45593999997E+02  0.45594000000E+02  0.51100000000E-03 0. -1.
         23    2    1    2    0    0  0.00000000000E+00  0.35527136788E-14  0.00000000000E+00  0.91188000000E+02  0.91188000000E+02 0.  0.
    9900012    2    3    3    0    0 -0.12087438738E+02  0.29729884126E+02 -0.18050139177E+02  0.54367085974E+02  0.40000004096E+02 0.  0.
        -12    1    3    3    0    0  0.12087438738E+02 -0.29729884126E+02  0.18050139177E+02  0.36820914026E+02  0.00000000000E+00 0.  1.
         11    1    4    4    0    0 -0.45136431177E+01  0.52145583509E+01 -0.74107836370E+00  0.69364104832E+01  0.51100000000E-03 0.  1.
        -11    1    4    4    0    0 -0.19287563645E+02  0.35856005139E+01 -0.11545340848E+02  0.22763161862E+02  0.51100000000E-03 0. -1.
        -12    1    4    4    0    0  0.11713768024E+02  0.20929725261E+02 -0.57637199649E+01  0.24667513629E+02  0.00000000000E+00 0.  1.
</event>
<event>
 8    1  0.3200407E-006  0.9118800E+02  0.7816164E-02  0.1184000E+00
        -11   -1    0    0    0    0  0.00000000000E+00  0.00000000000E+00  0.45593999997E+02  0.45594000000E+02  0.51100000000E-03 0.  1.
         11   -1    0    0    0    0 -0.00000000000E+00 -0.00000000000E+00 -0.45593999997E+02  0.45594000000E+02  0.51100000000E-03 0. -1.
         23    2    1    2    0    0  0.88817841970E-15  0.00000000000E+00  0.00000000000E+00  0.91188000000E+02  0.91188000000E+02 0.  0.
    9900012    2    3    3    0    0 -0.42943825394E+01 -0.41087884537E+01 -0.36338065651E+02  0.54367097252E+02  0.40000029805E+02 0.  0.
        -12    1    3    3    0    0  0.42943825394E+01  0.41087884537E+01  0.36338065651E+02  0.36820902748E+02  0.00000000000E+00 0.  1.
         11    1    4    4    0    0 -0.14823733360E+02 -0.53993439939E+00 -0.27031461186E+02  0.30833982778E+02  0.51100000000E-03 0. -1.
        -11    1    4    4    0    0 -0.18242688849E+01  0.75592725675E+00 -0.10223326361E+02  0.10412290100E+02  0.51100000000E-03 0.  1.
        -12    1    4    4    0    0  0.12353619705E+02 -0.43247813111E+01  0.91672189547E+00  0.13120824374E+02  0.00000000000E+00 0.  1.
</event>
<event>
 8    1  0.2553474E-006  0.9118800E+02  0.7816164E-02  0.1184000E+00
        -11   -1    0    0    0    0  0.00000000000E+00  0.00000000000E+00  0.45593999997E+02  0.45594000000E+02  0.51100000000E-03 0. -1.
         11   -1    0    0    0    0 -0.00000000000E+00 -0.00000000000E+00 -0.45593999997E+02  0.45594000000E+02  0.51100000000E-03 0.  1.
         23    2    1    2    0    0 -0.35527136788E-14  0.00000000000E+00  0.00000000000E+00  0.91188000000E+02  0.91188000000E+02 0.  0.
    9900012    2    3    3    0    0 -0.27128406518E+02 -0.18874212470E+02 -0.16235552926E+02  0.54367088613E+02  0.40000010111E+02 0.  0.
         12    1    3    3    0    0  0.27128406518E+02  0.18874212470E+02  0.16235552926E+02  0.36820911387E+02  0.00000000000E+00 0. -1.
         11    1    4    4    0    0  0.14598636752E+00  0.30703829220E+00  0.45678583252E+01  0.45804928198E+01  0.51100000000E-03 0. -1.
        -11    1    4    4    0    0 -0.68862917619E+01 -0.22195980263E+02 -0.48910054294E+01  0.23748778672E+02  0.51100000000E-03 0.  1.
        -12    1    4    4    0    0 -0.20388101124E+02  0.30147295007E+01 -0.15912405822E+02  0.26037817121E+02  0.00000000000E+00 0.  1.
</event>
<event>
 8    1  0.2553474E-006  0.9118800E+02  0.7816164E-02  0.1184000E+00
        -11   -1    0    0    0    0  0.00000000000E+00  0.00000000000E+00  0.45593999997E+02  0.45594000000E+02  0.51100000000E-03 0. -1.
         11   -1    0    0    0    0 -0.00000000000E+00 -0.00000000000E+00 -0.45593999997E+02  0.45594000000E+02  0.51100000000E-03 0.  1.
         23    2    1    2    0    0 -0.88817841970E-15  0.00000000000E+00 -0.88817841970E-15  0.91188000000E+02  0.91188000000E+02 0.  0.
    9900012    2    3    3    0    0 -0.58700969391E+01 -0.35983198506E+02 -0.51508170579E+01  0.54367088426E+02  0.40000009684E+02 0.  0.
         12    1    3    3    0    0  0.58700969391E+01  0.35983198506E+02  0.51508170579E+01  0.36820911574E+02  0.00000000000E+00 0. -1.
         11    1    4    4    0    0  0.39862933870E+01 -0.23103075763E+01  0.45116324575E+01  0.64484791817E+01  0.51100000000E-03 0. -1.
        -11    1    4    4    0    0  0.54009733536E+01 -0.25120046462E+02 -0.14847076107E+02  0.29675291348E+02  0.51100000000E-03 0.  1.
         12    1    4    4    0    0 -0.15257363680E+02 -0.85528444675E+01  0.51846265913E+01  0.18243317895E+02  0.00000000000E+00 0. -1.
</event>
<event>
 8    1  0.2553474E-006  0.9118800E+02  0.7816164E-02  0.1184000E+00
        -11   -1    0    0    0    0  0.00000000000E+00  0.00000000000E+00  0.45593999997E+02  0.45594000000E+02  0.51100000000E-03 0.  1.
         11   -1    0    0    0    0 -0.00000000000E+00 -0.00000000000E+00 -0.45593999997E+02  0.45594000000E+02  0.51100000000E-03 0. -1.
         23    2    1    2    0    0  0.00000000000E+00  0.00000000000E+00 -0.44408920985E-15  0.91188000000E+02  0.91188000000E+02 0.  0.
    9900012    2    3    3    0    0 -0.36075907355E+02  0.69748535572E+01 -0.23790918191E+01  0.54367085407E+02  0.40000002802E+02 0.  0.
         12    1    3    3    0    0  0.36075907355E+02 -0.69748535572E+01  0.23790918191E+01  0.36820914593E+02  0.00000000000E+00 0. -1.
         11    1    4    4    0    0  0.44944086238E+01  0.42230072951E+01  0.84424708057E+01  0.10455085512E+02  0.51100000000E-03 0. -1.
        -11    1    4    4    0    0 -0.29163653201E+02  0.18767633169E+01 -0.16874109884E+01  0.29272653871E+02  0.51100000000E-03 0.  1.
        -12    1    4    4    0    0 -0.11406662777E+02  0.87508294526E+00 -0.91341516364E+01  0.14639346023E+02  0.00000000000E+00 0.  1.
</event>
<event>
 8    1  0.2553474E-006  0.9118800E+02  0.7816164E-02  0.1184000E+00
        -11   -1    0    0    0    0  0.00000000000E+00  0.00000000000E+00  0.45593999997E+02  0.45594000000E+02  0.51100000000E-03 0.  1.
         11   -1    0    0    0    0 -0.00000000000E+00 -0.00000000000E+00 -0.45593999997E+02  0.45594000000E+02  0.51100000000E-03 0. -1.
         23    2    1    2    0    0  0.17763568394E-14 -0.15543122345E-14 -0.71054273576E-14  0.91188000000E+02  0.91188000000E+02 0.  0.
    9900012    2    3    3    0    0  0.11396129965E+02  0.16008269478E+01 -0.34976455762E+02  0.54366988569E+02  0.39999782041E+02 0.  0.
        -12    1    3    3    0    0 -0.11396129965E+02 -0.16008269478E+01  0.34976455762E+02  0.36821011431E+02  0.00000000000E+00 0.  1.
         11    1    4    4    0    0  0.94668263058E+01  0.18181268320E+01 -0.13553521210E+02  0.16632027024E+02  0.51100000000E-03 0. -1.
        -11    1    4    4    0    0  0.10913159750E+02  0.11747796174E+02 -0.12320346229E+02  0.20221243832E+02  0.51100000000E-03 0.  1.
        -12    1    4    4    0    0 -0.89838560908E+01 -0.11965096058E+02 -0.91025883233E+01  0.17513717712E+02  0.00000000000E+00 0.  1.
</event>
<event>
 8    1  0.2553474E-006  0.9118800E+02  0.7816164E-02  0.1184000E+00
        -11   -1    0    0    0    0  0.00000000000E+00  0.00000000000E+00  0.45593999997E+02  0.45594000000E+02  0.51100000000E-03 0.  1.
         11   -1    0    0    0    0 -0.00000000000E+00 -0.00000000000E+00 -0.45593999997E+02  0.45594000000E+02  0.51100000000E-03 0. -1.
         23    2    1    2    0    0  0.35527136788E-14  0.35527136788E-14  0.00000000000E+00  0.91188000000E+02  0.91188000000E+02 0.  0.
    9900012    2    3    3    0    0  0.25954406518E+02  0.26109811880E+02 -0.65410203928E+00  0.54367063787E+02  0.39999953514E+02 0.  0.
         12    1    3    3    0    0 -0.25954406518E+02 -0.26109811880E+02  0.65410203928E+00  0.36820936213E+02  0.00000000000E+00 0. -1.
         11    1    4    4    0    0  0.15091773049E+02 -0.48595975444E+01 -0.15190401896E+01  0.15927485219E+02  0.51100000000E-03 0. -1.
        -11    1    4    4    0    0  0.33882125132E+01  0.11373086621E+01  0.62670492812E+01  0.72145243767E+01  0.51100000000E-03 0.  1.
        -12    1    4    4    0    0  0.74744209563E+01  0.29832100763E+02 -0.54021111309E+01  0.31225054191E+02  0.00000000000E+00 0.  1.
</event>
<event>
 8    1  0.2553474E-006  0.9118800E+02  0.7816164E-02  0.1184000E+00
        -11   -1    0    0    0    0  0.00000000000E+00  0.00000000000E+00  0.45593999997E+02  0.45594000000E+02  0.51100000000E-03 0.  1.
         11   -1    0    0    0    0 -0.00000000000E+00 -0.00000000000E+00 -0.45593999997E+02  0.45594000000E+02  0.51100000000E-03 0. -1.
         23    2    1    2    0    0 -0.17763568394E-14 -0.35527136788E-14  0.00000000000E+00  0.91188000000E+02  0.91188000000E+02 0.  0.
    9900012    2    3    3    0    0 -0.15015558710E+02 -0.29943295195E+02 -0.15287557213E+02  0.54367118207E+02  0.40000077576E+02 0.  0.
        -12    1    3    3    0    0  0.15015558710E+02  0.29943295195E+02  0.15287557213E+02  0.36820881793E+02  0.00000000000E+00 0.  1.
         11    1    4    4    0    0 -0.23998176602E+02 -0.17707427437E+02 -0.52727860879E+01  0.30286428314E+02  0.51100000000E-03 0. -1.
        -11    1    4    4    0    0  0.73546198550E+01 -0.15454485320E+01  0.21379409964E+01  0.78134266709E+01  0.51100000000E-03 0.  1.
        -12    1    4    4    0    0  0.16279980367E+01 -0.10690419226E+02 -0.12152712121E+02  0.16267263222E+02  0.00000000000E+00 0.  1.
</event>
<event>
 8    1  0.2553474E-006  0.9118800E+02  0.7816164E-02  0.1184000E+00
        -11   -1    0    0    0    0  0.00000000000E+00  0.00000000000E+00  0.45593999997E+02  0.45594000000E+02  0.51100000000E-03 0. -1.
         11   -1    0    0    0    0 -0.00000000000E+00 -0.00000000000E+00 -0.45593999997E+02  0.45594000000E+02  0.51100000000E-03 0.  1.
         23    2    1    2    0    0  0.17763568394E-14  0.22204460493E-14  0.00000000000E+00  0.91188000000E+02  0.91188000000E+02 0.  0.
    9900012    2    3    3    0    0  0.11295437487E+02  0.20584019446E+01  0.34985064642E+02  0.54367100030E+02  0.40000036138E+02 0.  0.
        -12    1    3    3    0    0 -0.11295437487E+02 -0.20584019446E+01 -0.34985064642E+02  0.36820899970E+02  0.00000000000E+00 0.  1.
         11    1    4    4    0    0  0.47114919878E+01  0.17111123289E+02  0.18278784836E+02  0.25477493446E+02  0.51100000000E-03 0. -1.
        -11    1    4    4    0    0  0.26390416655E+01  0.10931706116E+01 -0.22808895112E+01  0.36554097064E+01  0.51100000000E-03 0.  1.
        -12    1    4    4    0    0  0.39449038336E+01 -0.16145891956E+02  0.18987169318E+02  0.25234196877E+02  0.00000000000E+00 0.  1.
</event>
<event>
 8    1  0.2553474E-006  0.9118800E+02  0.7816164E-02  0.1184000E+00
        -11   -1    0    0    0    0  0.00000000000E+00  0.00000000000E+00  0.45593999997E+02  0.45594000000E+02  0.51100000000E-03 0.  1.
         11   -1    0    0    0    0 -0.00000000000E+00 -0.00000000000E+00 -0.45593999997E+02  0.45594000000E+02  0.51100000000E-03 0. -1.
         23    2    1    2    0    0  0.35527136788E-14 -0.71054273576E-14  0.11102230246E-15  0.91188000000E+02  0.91188000000E+02 0.  0.
    9900012    2    3    3    0    0 -0.19657793445E+02  0.31120894456E+02 -0.91653083287E+00  0.54367096377E+02  0.40000027811E+02 0.  0.
        -12    1    3    3    0    0  0.19657793445E+02 -0.31120894456E+02  0.91653083287E+00  0.36820903623E+02  0.00000000000E+00 0.  1.
         11    1    4    4    0    0 -0.12810024370E+02  0.20799462724E+02  0.63250685013E+01  0.25233328472E+02  0.51100000000E-03 0.  1.
        -11    1    4    4    0    0 -0.14278839422E+02  0.22906765418E+01 -0.10321711248E+02  0.17767109433E+02  0.51100000000E-03 0. -1.
         12    1    4    4    0    0  0.74310703473E+01  0.80307551898E+01  0.30801119140E+01  0.11366658472E+02  0.00000000000E+00 0. -1.
</event>
<event>
 8    1  0.2553474E-006  0.9118800E+02  0.7816164E-02  0.1184000E+00
        -11   -1    0    0    0    0  0.00000000000E+00  0.00000000000E+00  0.45593999997E+02  0.45594000000E+02  0.51100000000E-03 0. -1.
         11   -1    0    0    0    0 -0.00000000000E+00 -0.00000000000E+00 -0.45593999997E+02  0.45594000000E+02  0.51100000000E-03 0.  1.
         23    2    1    2    0    0  0.00000000000E+00  0.00000000000E+00  0.71054273576E-14  0.91188000000E+02  0.91188000000E+02 0.  0.
    9900012    2    3    3    0    0 -0.10663928631E+02  0.22292805807E+02  0.27296365303E+02  0.54367080357E+02  0.39999991290E+02 0.  0.
        -12    1    3    3    0    0  0.10663928631E+02 -0.22292805807E+02 -0.27296365303E+02  0.36820919643E+02  0.00000000000E+00 0.  1.
         11    1    4    4    0    0 -0.13846097940E+02  0.56616877515E+01 -0.19377379124E+01  0.15083897535E+02  0.51100000000E-03 0. -1.
        -11    1    4    4    0    0 -0.21670644392E+01  0.12207526017E+02  0.38728816559E+01  0.12989190596E+02  0.51100000000E-03 0.  1.
        -12    1    4    4    0    0  0.53492337485E+01  0.44235920385E+01  0.25361221559E+02  0.26293992226E+02  0.00000000000E+00 0.  1.
</event>
<event>
 8    1  0.2553474E-006  0.9118800E+02  0.7816164E-02  0.1184000E+00
        -11   -1    0    0    0    0  0.00000000000E+00  0.00000000000E+00  0.45593999997E+02  0.45594000000E+02  0.51100000000E-03 0. -1.
         11   -1    0    0    0    0 -0.00000000000E+00 -0.00000000000E+00 -0.45593999997E+02  0.45594000000E+02  0.51100000000E-03 0.  1.
         23    2    1    2    0    0 -0.17763568394E-14  0.00000000000E+00 -0.88817841970E-15  0.91188000000E+02  0.91188000000E+02 0.  0.
    9900012    2    3    3    0    0 -0.12331522212E+02  0.33880109839E+02  0.74736969460E+01  0.54367021892E+02  0.39999858007E+02 0.  0.
         12    1    3    3    0    0  0.12331522212E+02 -0.33880109839E+02 -0.74736969460E+01  0.36820978108E+02  0.00000000000E+00 0. -1.
         11    1    4    4    0    0  0.65287603501E+01 -0.48316811713E+00  0.22847595265E+01  0.69338509858E+01  0.51100000000E-03 0. -1.
        -11    1    4    4    0    0 -0.19274087079E+01  0.28742498273E+02  0.65419864382E+01  0.29540543294E+02  0.51100000000E-03 0.  1.
         12    1    4    4    0    0 -0.16932873854E+02  0.56207796831E+01 -0.13530490188E+01  0.17892627612E+02  0.00000000000E+00 0. -1.
</event>
<event>
 8    1  0.2553474E-006  0.9118800E+02  0.7816164E-02  0.1184000E+00
        -11   -1    0    0    0    0  0.00000000000E+00  0.00000000000E+00  0.45593999997E+02  0.45594000000E+02  0.51100000000E-03 0.  1.
         11   -1    0    0    0    0 -0.00000000000E+00 -0.00000000000E+00 -0.45593999997E+02  0.45594000000E+02  0.51100000000E-03 0. -1.
         23    2    1    2    0    0  0.00000000000E+00 -0.17763568394E-14  0.13322676296E-14  0.91188000000E+02  0.91188000000E+02 0.  0.
    9900012    2    3    3    0    0  0.34077310654E+02 -0.13704474117E+02  0.25884411139E+01  0.54367139884E+02  0.40000126994E+02 0.  0.
        -12    1    3    3    0    0 -0.34077310654E+02  0.13704474117E+02 -0.25884411139E+01  0.36820860116E+02  0.00000000000E+00 0.  1.
         11    1    4    4    0    0  0.14110560560E+02 -0.13260084264E+02 -0.10038622807E+02  0.21810816173E+02  0.51100000000E-03 0. -1.
        -11    1    4    4    0    0  0.13628218934E+02 -0.96089728711E+01  0.13930313238E+01  0.16733237806E+02  0.51100000000E-03 0.  1.
        -12    1    4    4    0    0  0.63385311606E+01  0.91645830179E+01  0.11234032598E+02  0.15823085905E+02  0.00000000000E+00 0.  1.
</event>
<event>
 8    1  0.2553474E-006  0.9118800E+02  0.7816164E-02  0.1184000E+00
        -11   -1    0    0    0    0  0.00000000000E+00  0.00000000000E+00  0.45593999997E+02  0.45594000000E+02  0.51100000000E-03 0.  1.
         11   -1    0    0    0    0 -0.00000000000E+00 -0.00000000000E+00 -0.45593999997E+02  0.45594000000E+02  0.51100000000E-03 0. -1.
         23    2    1    2    0    0 -0.35527136788E-14  0.00000000000E+00  0.00000000000E+00  0.91188000000E+02  0.91188000000E+02 0.  0.
    9900012    2    3    3    0    0  0.23691444450E+02 -0.16587409855E+02  0.22789402384E+02  0.54367033597E+02  0.39999884691E+02 0.  0.
         12    1    3    3    0    0 -0.23691444450E+02  0.16587409855E+02 -0.22789402384E+02  0.36820966403E+02  0.00000000000E+00 0. -1.
         11    1    4    4    0    0  0.19987997828E+02 -0.10812172708E+02  0.76456935001E+01  0.23976650417E+02  0.51100000000E-03 0. -1.
        -11    1    4    4    0    0  0.14525328603E+02 -0.20290688800E+01  0.64982956071E+01  0.16041512946E+02  0.51100000000E-03 0.  1.
         12    1    4    4    0    0 -0.10821881981E+02 -0.37461682666E+01  0.86454132765E+01  0.14348870234E+02  0.00000000000E+00 0. -1.
</event>
<event>
 8    1  0.2553474E-006  0.9118800E+02  0.7816164E-02  0.1184000E+00
        -11   -1    0    0    0    0  0.00000000000E+00  0.00000000000E+00  0.45593999997E+02  0.45594000000E+02  0.51100000000E-03 0.  1.
         11   -1    0    0    0    0 -0.00000000000E+00 -0.00000000000E+00 -0.45593999997E+02  0.45594000000E+02  0.51100000000E-03 0. -1.
         23    2    1    2    0    0  0.71054273576E-14  0.00000000000E+00  0.00000000000E+00  0.91188000000E+02  0.91188000000E+02 0.  0.
    9900012    2    3    3    0    0  0.24567741876E+02 -0.21876094225E+02  0.16542071368E+02  0.54367115104E+02  0.40000070502E+02 0.  0.
        -12    1    3    3    0    0 -0.24567741876E+02  0.21876094225E+02 -0.16542071368E+02  0.36820884896E+02  0.00000000000E+00 0.  1.
         11    1    4    4    0    0  0.16449112917E+01  0.34035518983E+01  0.14551376962E+01  0.40505955930E+01  0.51100000000E-03 0. -1.
        -11    1    4    4    0    0 -0.39062163416E+01 -0.19250911004E+02  0.11008596342E+02  0.22517666271E+02  0.51100000000E-03 0.  1.
         12    1    4    4    0    0  0.26829046926E+02 -0.60287351189E+01  0.40783373298E+01  0.27798853240E+02  0.00000000000E+00 0. -1.
</event>
<event>
 8    1  0.2553474E-006  0.9118800E+02  0.7816164E-02  0.1184000E+00
        -11   -1    0    0    0    0  0.00000000000E+00  0.00000000000E+00  0.45593999997E+02  0.45594000000E+02  0.51100000000E-03 0.  1.
         11   -1    0    0    0    0 -0.00000000000E+00 -0.00000000000E+00 -0.45593999997E+02  0.45594000000E+02  0.51100000000E-03 0. -1.
         23    2    1    2    0    0 -0.35527136788E-14 -0.88817841970E-15 -0.35527136788E-14  0.91188000000E+02  0.91188000000E+02 0.  0.
    9900012    2    3    3    0    0 -0.19185333679E+02 -0.66739839824E+01 -0.30710937770E+02  0.54367071314E+02  0.39999970675E+02 0.  0.
        -12    1    3    3    0    0  0.19185333679E+02  0.66739839824E+01  0.30710937770E+02  0.36820928686E+02  0.00000000000E+00 0.  1.
         11    1    4    4    0    0 -0.14498787154E+02 -0.91978786017E+01 -0.29489565343E+01  0.17421599944E+02  0.51100000000E-03 0. -1.
        -11    1    4    4    0    0  0.54132402948E+01 -0.19833080538E+01 -0.24848189792E+02  0.25508218627E+02  0.51100000000E-03 0.  1.
        -12    1    4    4    0    0 -0.10099786819E+02  0.45072026731E+01 -0.29137914444E+01  0.11437252743E+02  0.00000000000E+00 0.  1.
</event>
<event>
 8    1  0.2553474E-006  0.9118800E+02  0.7816164E-02  0.1184000E+00
        -11   -1    0    0    0    0  0.00000000000E+00  0.00000000000E+00  0.45593999997E+02  0.45594000000E+02  0.51100000000E-03 0.  1.
         11   -1    0    0    0    0 -0.00000000000E+00 -0.00000000000E+00 -0.45593999997E+02  0.45594000000E+02  0.51100000000E-03 0. -1.
         23    2    1    2    0    0  0.00000000000E+00  0.35527136788E-14  0.00000000000E+00  0.91188000000E+02  0.91188000000E+02 0.  0.
    9900012    2    3    3    0    0  0.97413377405E+01 -0.18164808883E+02 -0.30511114620E+02  0.54367054085E+02  0.39999931397E+02 0.  0.
        -12    1    3    3    0    0 -0.97413377405E+01  0.18164808883E+02  0.30511114620E+02  0.36820945915E+02  0.00000000000E+00 0.  1.
         11    1    4    4    0    0 -0.14625203883E+01  0.84686106886E+01  0.20057862530E+01  0.88249369196E+01  0.51100000000E-03 0.  1.
        -11    1    4    4    0    0  0.42801253151E+01 -0.76485174364E+01 -0.19832747189E+02  0.21683107550E+02  0.51100000000E-03 0. -1.
        -12    1    4    4    0    0  0.69237328137E+01 -0.18984902135E+02 -0.12684153684E+02  0.23859009615E+02  0.00000000000E+00 0.  1.
</event>
<event>
 8    1  0.2553474E-006  0.9118800E+02  0.7816164E-02  0.1184000E+00
        -11   -1    0    0    0    0  0.00000000000E+00  0.00000000000E+00  0.45593999997E+02  0.45594000000E+02  0.51100000000E-03 0. -1.
         11   -1    0    0    0    0 -0.00000000000E+00 -0.00000000000E+00 -0.45593999997E+02  0.45594000000E+02  0.51100000000E-03 0.  1.
         23    2    1    2    0    0  0.66613381478E-15  0.35527136788E-14 -0.35527136788E-14  0.91188000000E+02  0.91188000000E+02 0.  0.
    9900012    2    3    3    0    0 -0.16710962667E+01  0.23057711955E+02 -0.28658844328E+02  0.54367082011E+02  0.39999995061E+02 0.  0.
         12    1    3    3    0    0  0.16710962667E+01 -0.23057711955E+02  0.28658844328E+02  0.36820917989E+02  0.00000000000E+00 0. -1.
         11    1    4    4    0    0  0.67191581763E+01 -0.17086769922E+01 -0.18310285278E+01  0.71707272568E+01  0.51100000000E-03 0. -1.
        -11    1    4    4    0    0  0.10098307056E+01  0.28643024937E+02 -0.19650517475E+02  0.34750330544E+02  0.51100000000E-03 0.  1.
        -12    1    4    4    0    0 -0.94000851485E+01 -0.38766359904E+01 -0.71772983249E+01  0.12446024210E+02  0.00000000000E+00 0.  1.
</event>
<event>
 8    1  0.2553474E-006  0.9118800E+02  0.7816164E-02  0.1184000E+00
        -11   -1    0    0    0    0  0.00000000000E+00  0.00000000000E+00  0.45593999997E+02  0.45594000000E+02  0.51100000000E-03 0. -1.
         11   -1    0    0    0    0 -0.00000000000E+00 -0.00000000000E+00 -0.45593999997E+02  0.45594000000E+02  0.51100000000E-03 0.  1.
         23    2    1    2    0    0  0.35527136788E-14  0.00000000000E+00 -0.35527136788E-14  0.91188000000E+02  0.91188000000E+02 0.  0.
    9900012    2    3    3    0    0  0.26012375731E+02  0.16753320660E+02 -0.19961511081E+02  0.54367090601E+02  0.40000014644E+02 0.  0.
         12    1    3    3    0    0 -0.26012375731E+02 -0.16753320660E+02  0.19961511081E+02  0.36820909399E+02  0.00000000000E+00 0. -1.
         11    1    4    4    0    0  0.10159941590E+02  0.10597625105E+02 -0.14780230471E+02  0.20832409463E+02  0.51100000000E-03 0.  1.
        -11    1    4    4    0    0  0.14699686569E+02 -0.30703850332E+01  0.83000077543E+01  0.17158035390E+02  0.51100000000E-03 0. -1.
         12    1    4    4    0    0  0.11527475715E+01  0.92260805890E+01 -0.13481288364E+02  0.16376645748E+02  0.00000000000E+00 0. -1.
</event>
<event>
 8    1  0.2553474E-006  0.9118800E+02  0.7816164E-02  0.1184000E+00
        -11   -1    0    0    0    0  0.00000000000E+00  0.00000000000E+00  0.45593999997E+02  0.45594000000E+02  0.51100000000E-03 0.  1.
         11   -1    0    0    0    0 -0.00000000000E+00 -0.00000000000E+00 -0.45593999997E+02  0.45594000000E+02  0.51100000000E-03 0. -1.
         23    2    1    2    0    0 -0.15265566589E-15  0.00000000000E+00  0.00000000000E+00  0.91188000000E+02  0.91188000000E+02 0.  0.
    9900012    2    3    3    0    0 -0.23989214381E-01  0.14550581834E+02 -0.33823928612E+02  0.54367107100E+02  0.40000052256E+02 0.  0.
        -12    1    3    3    0    0  0.23989214381E-01 -0.14550581834E+02  0.33823928612E+02  0.36820892900E+02  0.00000000000E+00 0.  1.
         11    1    4    4    0    0 -0.98265638955E+01  0.88443803498E+01 -0.26632223127E+02  0.29733141959E+02  0.51100000000E-03 0. -1.
        -11    1    4    4    0    0 -0.20864163541E+01  0.21744371599E+01  0.58846644761E+01  0.66113982199E+01  0.51100000000E-03 0.  1.
        -12    1    4    4    0    0  0.11888991035E+02  0.35317643242E+01 -0.13076369961E+02  0.18022566921E+02  0.00000000000E+00 0.  1.
</event>
<event>
 8    1  0.2553474E-006  0.9118800E+02  0.7816164E-02  0.1184000E+00
        -11   -1    0    0    0    0  0.00000000000E+00  0.00000000000E+00  0.45593999997E+02  0.45594000000E+02  0.51100000000E-03 0.  1.
         11   -1    0    0    0    0 -0.00000000000E+00 -0.00000000000E+00 -0.45593999997E+02  0.45594000000E+02  0.51100000000E-03 0. -1.
         23    2    1    2    0    0 -0.71054273576E-14  0.17763568394E-14  0.00000000000E+00  0.91188000000E+02  0.91188000000E+02 0.  0.
    9900012    2    3    3    0    0  0.24667573424E+02 -0.13782412889E+02  0.23608126540E+02  0.54366977168E+02  0.39999756049E+02 0.  0.
         12    1    3    3    0    0 -0.24667573424E+02  0.13782412889E+02 -0.23608126540E+02  0.36821022832E+02  0.00000000000E+00 0. -1.
         11    1    4    4    0    0  0.66035546589E+01 -0.31653599054E+01 -0.84232886598E+01  0.11161461803E+02  0.51100000000E-03 0. -1.
        -11    1    4    4    0    0  0.50705663652E+00 -0.48669732649E+01  0.21269095734E+02  0.21824732960E+02  0.51100000000E-03 0.  1.
        -12    1    4    4    0    0  0.17556962129E+02 -0.57500797185E+01  0.10762319466E+02  0.21380782405E+02  0.00000000000E+00 0.  1.
</event>
<event>
 8    1  0.2553474E-006  0.9118800E+02  0.7816164E-02  0.1184000E+00
        -11   -1    0    0    0    0  0.00000000000E+00  0.00000000000E+00  0.45593999997E+02  0.45594000000E+02  0.51100000000E-03 0.  1.
         11   -1    0    0    0    0 -0.00000000000E+00 -0.00000000000E+00 -0.45593999997E+02  0.45594000000E+02  0.51100000000E-03 0. -1.
         23    2    1    2    0    0  0.00000000000E+00  0.00000000000E+00  0.00000000000E+00  0.91188000000E+02  0.91188000000E+02 0.  0.
    9900012    2    3    3    0    0  0.33695571252E+02  0.95165115761E+01 -0.11394032059E+02  0.54367089078E+02  0.40000011170E+02 0.  0.
        -12    1    3    3    0    0 -0.33695571252E+02 -0.95165115761E+01  0.11394032059E+02  0.36820910922E+02  0.00000000000E+00 0.  1.
         11    1    4    4    0    0  0.65696467677E+01 -0.21358226755E-01 -0.50545622728E+01  0.82891082064E+01  0.51100000000E-03 0. -1.
        -11    1    4    4    0    0  0.16352465923E+02 -0.85621301816E+01 -0.14516519834E+02  0.23482814213E+02  0.51100000000E-03 0.  1.
        -12    1    4    4    0    0  0.10773458561E+02  0.18099999985E+02  0.81770500481E+01  0.22595166658E+02  0.00000000000E+00 0.  1.
</event>
<event>
 8    1  0.2553474E-006  0.9118800E+02  0.7816164E-02  0.1184000E+00
        -11   -1    0    0    0    0  0.00000000000E+00  0.00000000000E+00  0.45593999997E+02  0.45594000000E+02  0.51100000000E-03 0.  1.
         11   -1    0    0    0    0 -0.00000000000E+00 -0.00000000000E+00 -0.45593999997E+02  0.45594000000E+02  0.51100000000E-03 0. -1.
         23    2    1    2    0    0  0.00000000000E+00  0.35527136788E-14  0.00000000000E+00  0.91188000000E+02  0.91188000000E+02 0.  0.
    9900012    2    3    3    0    0  0.24838006147E+02  0.21620505301E+02  0.16474407568E+02  0.54367096921E+02  0.40000029051E+02 0.  0.
         12    1    3    3    0    0 -0.24838006147E+02 -0.21620505301E+02 -0.16474407568E+02  0.36820903079E+02  0.00000000000E+00 0. -1.
         11    1    4    4    0    0 -0.53167347906E+01  0.11471336626E+02  0.52335348570E+01  0.13683900035E+02  0.51100000000E-03 0. -1.
        -11    1    4    4    0    0  0.44176674256E+01 -0.65986371321E+01  0.48934159681E+01  0.93275568925E+01  0.51100000000E-03 0.  1.
        -12    1    4    4    0    0  0.25737073512E+02  0.16747805808E+02  0.63474567427E+01  0.31355639994E+02  0.00000000000E+00 0.  1.
</event>
<event>
 8    1  0.2553474E-006  0.9118800E+02  0.7816164E-02  0.1184000E+00
        -11   -1    0    0    0    0  0.00000000000E+00  0.00000000000E+00  0.45593999997E+02  0.45594000000E+02  0.51100000000E-03 0. -1.
         11   -1    0    0    0    0 -0.00000000000E+00 -0.00000000000E+00 -0.45593999997E+02  0.45594000000E+02  0.51100000000E-03 0.  1.
         23    2    1    2    0    0  0.00000000000E+00  0.35527136788E-14  0.00000000000E+00  0.91188000000E+02  0.91188000000E+02 0.  0.
    9900012    2    3    3    0    0  0.28892437822E+02  0.18105522537E+02 -0.13899522626E+02  0.54367086936E+02  0.40000006289E+02 0.  0.
         12    1    3    3    0    0 -0.28892437822E+02 -0.18105522537E+02  0.13899522626E+02  0.36820913064E+02  0.00000000000E+00 0. -1.
         11    1    4    4    0    0  0.20354850916E+01 -0.66780993824E+01  0.13861210656E+01  0.71176922376E+01  0.51100000000E-03 0. -1.
        -11    1    4    4    0    0  0.16972307322E+02 -0.10099185785E+01 -0.72328515005E+01  0.18476831234E+02  0.51100000000E-03 0.  1.
        -12    1    4    4    0    0  0.98846454084E+01  0.25793540498E+02 -0.80527921910E+01  0.28772563465E+02  0.00000000000E+00 0.  1.
</event>
<event>
 8    1  0.2553474E-006  0.9118800E+02  0.7816164E-02  0.1184000E+00
        -11   -1    0    0    0    0  0.00000000000E+00  0.00000000000E+00  0.45593999997E+02  0.45594000000E+02  0.51100000000E-03 0. -1.
         11   -1    0    0    0    0 -0.00000000000E+00 -0.00000000000E+00 -0.45593999997E+02  0.45594000000E+02  0.51100000000E-03 0.  1.
         23    2    1    2    0    0 -0.17763568394E-14  0.00000000000E+00  0.35527136788E-14  0.91188000000E+02  0.91188000000E+02 0.  0.
    9900012    2    3    3    0    0  0.79407663173E+01 -0.26836898431E+02 -0.23927075365E+02  0.54367084441E+02  0.40000000600E+02 0.  0.
         12    1    3    3    0    0 -0.79407663173E+01  0.26836898431E+02  0.23927075365E+02  0.36820915559E+02  0.00000000000E+00 0. -1.
         11    1    4    4    0    0 -0.44224215565E+01 -0.47859814616E+01 -0.11409247601E+01  0.66155226962E+01  0.51100000000E-03 0. -1.
        -11    1    4    4    0    0  0.23496614843E+01 -0.28969594323E+02 -0.11845654781E+02  0.31385949751E+02  0.51100000000E-03 0.  1.
        -12    1    4    4    0    0  0.10013526390E+02  0.69186773532E+01 -0.10940495824E+02  0.16365611994E+02  0.00000000000E+00 0.  1.
</event>
<event>
 8    1  0.2553474E-006  0.9118800E+02  0.7816164E-02  0.1184000E+00
        -11   -1    0    0    0    0  0.00000000000E+00  0.00000000000E+00  0.45593999997E+02  0.45594000000E+02  0.51100000000E-03 0. -1.
         11   -1    0    0    0    0 -0.00000000000E+00 -0.00000000000E+00 -0.45593999997E+02  0.45594000000E+02  0.51100000000E-03 0.  1.
         23    2    1    2    0    0 -0.35527136788E-14  0.26645352591E-14 -0.35527136788E-14  0.91188000000E+02  0.91188000000E+02 0.  0.
    9900012    2    3    3    0    0 -0.22851744952E+02 -0.20844893116E+01  0.28796383420E+02  0.54367095053E+02  0.40000024792E+02 0.  0.
        -12    1    3    3    0    0  0.22851744952E+02  0.20844893116E+01 -0.28796383420E+02  0.36820904947E+02  0.00000000000E+00 0.  1.
         11    1    4    4    0    0 -0.71133023854E+01 -0.13759994542E+02  0.56898542885E+01  0.16501847251E+02  0.51100000000E-03 0. -1.
        -11    1    4    4    0    0  0.17537902288E+01  0.61328429912E+01 -0.20747758605E+01  0.67076253961E+01  0.51100000000E-03 0.  1.
         12    1    4    4    0    0 -0.17492232795E+02  0.55426622387E+01  0.25181304992E+02  0.31157622406E+02  0.00000000000E+00 0. -1.
</event>
<event>
 8    1  0.2553474E-006  0.9118800E+02  0.7816164E-02  0.1184000E+00
        -11   -1    0    0    0    0  0.00000000000E+00  0.00000000000E+00  0.45593999997E+02  0.45594000000E+02  0.51100000000E-03 0. -1.
         11   -1    0    0    0    0 -0.00000000000E+00 -0.00000000000E+00 -0.45593999997E+02  0.45594000000E+02  0.51100000000E-03 0.  1.
         23    2    1    2    0    0  0.00000000000E+00  0.77715611724E-15  0.00000000000E+00  0.91188000000E+02  0.91188000000E+02 0.  0.
    9900012    2    3    3    0    0  0.18361199082E+02 -0.64420627262E+00 -0.31909665745E+02  0.54367144478E+02  0.40000137465E+02 0.  0.
         12    1    3    3    0    0 -0.18361199082E+02  0.64420627262E+00  0.31909665745E+02  0.36820855522E+02  0.00000000000E+00 0. -1.
         11    1    4    4    0    0  0.55168110169E+01  0.12521820654E+02 -0.12665393153E+02  0.18645197244E+02  0.51100000000E-03 0. -1.
        -11    1    4    4    0    0  0.19220923677E+02 -0.52475951466E+01 -0.12465256960E+02  0.23502421007E+02  0.51100000000E-03 0.  1.
        -12    1    4    4    0    0 -0.63765356126E+01 -0.79184317799E+01 -0.67790156316E+01  0.12219526227E+02  0.00000000000E+00 0.  1.
</event>
<event>
 8    1  0.2553474E-006  0.9118800E+02  0.7816164E-02  0.1184000E+00
        -11   -1    0    0    0    0  0.00000000000E+00  0.00000000000E+00  0.45593999997E+02  0.45594000000E+02  0.51100000000E-03 0.  1.
         11   -1    0    0    0    0 -0.00000000000E+00 -0.00000000000E+00 -0.45593999997E+02  0.45594000000E+02  0.51100000000E-03 0. -1.
         23    2    1    2    0    0  0.36082248300E-15  0.88817841970E-15  0.00000000000E+00  0.91188000000E+02  0.91188000000E+02 0.  0.
    9900012    2    3    3    0    0 -0.12961580454E+00 -0.48790297861E+01  0.36496046651E+02  0.54367039216E+02  0.39999897501E+02 0.  0.
         12    1    3    3    0    0  0.12961580454E+00  0.48790297861E+01 -0.36496046651E+02  0.36820960784E+02  0.00000000000E+00 0. -1.
         11    1    4    4    0    0 -0.93138230109E+00  0.10224587075E+01 -0.28230722491E+01  0.31436653741E+01  0.51100000000E-03 0. -1.
        -11    1    4    4    0    0  0.15176268314E+01 -0.13373334169E+02  0.25533700483E+01  0.13699231980E+02  0.51100000000E-03 0.  1.
        -12    1    4    4    0    0 -0.71586033482E+00  0.74718456752E+01  0.36765748852E+02  0.37524141861E+02  0.00000000000E+00 0.  1.
</event>
<event>
 8    1  0.2553474E-006  0.9118800E+02  0.7816164E-02  0.1184000E+00
        -11   -1    0    0    0    0  0.00000000000E+00  0.00000000000E+00  0.45593999997E+02  0.45594000000E+02  0.51100000000E-03 0. -1.
         11   -1    0    0    0    0 -0.00000000000E+00 -0.00000000000E+00 -0.45593999997E+02  0.45594000000E+02  0.51100000000E-03 0.  1.
         23    2    1    2    0    0  0.00000000000E+00 -0.44408920985E-15 -0.35527136788E-14  0.91188000000E+02  0.91188000000E+02 0.  0.
    9900012    2    3    3    0    0 -0.30781816844E+02 -0.36229452065E+01 -0.19877979195E+02  0.54367081528E+02  0.39999993960E+02 0.  0.
         12    1    3    3    0    0  0.30781816844E+02  0.36229452065E+01  0.19877979195E+02  0.36820918472E+02  0.00000000000E+00 0. -1.
         11    1    4    4    0    0  0.12071091512E+01 -0.12416916543E+02 -0.13783307783E+02  0.18590763907E+02  0.51100000000E-03 0.  1.
        -11    1    4    4    0    0 -0.44343191206E+01  0.60639421167E+01 -0.20987410116E+01  0.77999547532E+01  0.51100000000E-03 0. -1.
        -12    1    4    4    0    0 -0.27554606875E+02  0.27300292197E+01 -0.39959304003E+01  0.27976362868E+02  0.00000000000E+00 0.  1.
</event>
<event>
 8    1  0.2553474E-006  0.9118800E+02  0.7816164E-02  0.1184000E+00
        -11   -1    0    0    0    0  0.00000000000E+00  0.00000000000E+00  0.45593999997E+02  0.45594000000E+02  0.51100000000E-03 0.  1.
         11   -1    0    0    0    0 -0.00000000000E+00 -0.00000000000E+00 -0.45593999997E+02  0.45594000000E+02  0.51100000000E-03 0. -1.
         23    2    1    2    0    0 -0.17763568394E-14  0.00000000000E+00 -0.44408920985E-15  0.91188000000E+02  0.91188000000E+02 0.  0.
    9900012    2    3    3    0    0  0.10353015781E+02 -0.35220115307E+02 -0.28526842772E+01  0.54367092005E+02  0.40000017843E+02 0.  0.
        -12    1    3    3    0    0 -0.10353015781E+02  0.35220115307E+02  0.28526842772E+01  0.36820907995E+02  0.00000000000E+00 0.  1.
         11    1    4    4    0    0 -0.45867919607E+01 -0.15764960321E+02 -0.60933299232E+01  0.17512889659E+02  0.51100000000E-03 0. -1.
        -11    1    4    4    0    0 -0.49980042558E+01 -0.15593013788E+02  0.72404378125E+00  0.16390435174E+02  0.51100000000E-03 0.  1.
        -12    1    4    4    0    0  0.19937811998E+02 -0.38621411987E+01  0.25166018647E+01  0.20463767171E+02  0.00000000000E+00 0.  1.
</event>
<event>
 8    1  0.2553474E-006  0.9118800E+02  0.7816164E-02  0.1184000E+00
        -11   -1    0    0    0    0  0.00000000000E+00  0.00000000000E+00  0.45593999997E+02  0.45594000000E+02  0.51100000000E-03 0.  1.
         11   -1    0    0    0    0 -0.00000000000E+00 -0.00000000000E+00 -0.45593999997E+02  0.45594000000E+02  0.51100000000E-03 0. -1.
         23    2    1    2    0    0  0.00000000000E+00  0.14432899320E-14  0.00000000000E+00  0.91188000000E+02  0.91188000000E+02 0.  0.
    9900012    2    3    3    0    0  0.34814262960E+02 -0.88863782665E+00  0.11956249656E+02  0.54367156875E+02  0.40000165727E+02 0.  0.
         12    1    3    3    0    0 -0.34814262960E+02  0.88863782665E+00 -0.11956249656E+02  0.36820843125E+02  0.00000000000E+00 0. -1.
         11    1    4    4    0    0  0.12445425792E+02  0.11628375772E+02 -0.41440815939E+01  0.17529436920E+02  0.51100000000E-03 0. -1.
        -11    1    4    4    0    0  0.15930608870E+02 -0.52805588832E+01 -0.13942339753E+01  0.16840798369E+02  0.51100000000E-03 0.  1.
         12    1    4    4    0    0  0.64382282982E+01 -0.72364547152E+01  0.17494565225E+02  0.19996921585E+02  0.00000000000E+00 0. -1.
</event>
<event>
 8    1  0.2553474E-006  0.9118800E+02  0.7816164E-02  0.1184000E+00
        -11   -1    0    0    0    0  0.00000000000E+00  0.00000000000E+00  0.45593999997E+02  0.45594000000E+02  0.51100000000E-03 0. -1.
         11   -1    0    0    0    0 -0.00000000000E+00 -0.00000000000E+00 -0.45593999997E+02  0.45594000000E+02  0.51100000000E-03 0.  1.
         23    2    1    2    0    0  0.00000000000E+00  0.00000000000E+00  0.35527136788E-14  0.91188000000E+02  0.91188000000E+02 0.  0.
    9900012    2    3    3    0    0 -0.94579237668E+01 -0.26989737392E+02  0.23192287907E+02  0.54367075721E+02  0.39999980721E+02 0.  0.
        -12    1    3    3    0    0  0.94579237668E+01  0.26989737392E+02 -0.23192287907E+02  0.36820924279E+02  0.00000000000E+00 0.  1.
         11    1    4    4    0    0 -0.62384233806E+01 -0.24398885535E+02 -0.14889332652E+01  0.25227771684E+02  0.51100000000E-03 0.  1.
        -11    1    4    4    0    0 -0.69092681932E+01 -0.57566426216E+01  0.21563737734E+02  0.23363897504E+02  0.51100000000E-03 0. -1.
        -12    1    4    4    0    0  0.36897678070E+01  0.31657907647E+01  0.31174834372E+01  0.57754065326E+01  0.00000000000E+00 0.  1.
</event>
<event>
 8    1  0.2553474E-006  0.9118800E+02  0.7816164E-02  0.1184000E+00
        -11   -1    0    0    0    0  0.00000000000E+00  0.00000000000E+00  0.45593999997E+02  0.45594000000E+02  0.51100000000E-03 0.  1.
         11   -1    0    0    0    0 -0.00000000000E+00 -0.00000000000E+00 -0.45593999997E+02  0.45594000000E+02  0.51100000000E-03 0. -1.
         23    2    1    2    0    0  0.00000000000E+00  0.00000000000E+00  0.88817841970E-15  0.91188000000E+02  0.91188000000E+02 0.  0.
    9900012    2    3    3    0    0 -0.35883616542E+02  0.79980048129E+01 -0.20441634048E+01  0.54367073597E+02  0.39999975879E+02 0.  0.
         12    1    3    3    0    0  0.35883616542E+02 -0.79980048129E+01  0.20441634048E+01  0.36820926403E+02  0.00000000000E+00 0. -1.
         11    1    4    4    0    0  0.43432936540E+01  0.13452091110E+01 -0.56919908574E+01  0.72850907680E+01  0.51100000000E-03 0. -1.
        -11    1    4    4    0    0 -0.13571958634E+02 -0.31177098452E+01  0.11011745355E+02  0.17753216944E+02  0.51100000000E-03 0.  1.
        -12    1    4    4    0    0 -0.26654951562E+02  0.97705055471E+01 -0.73639179026E+01  0.29328765885E+02  0.00000000000E+00 0.  1.
</event>
<event>
 8    1  0.2553474E-006  0.9118800E+02  0.7816164E-02  0.1184000E+00
        -11   -1    0    0    0    0  0.00000000000E+00  0.00000000000E+00  0.45593999997E+02  0.45594000000E+02  0.51100000000E-03 0. -1.
         11   -1    0    0    0    0 -0.00000000000E+00 -0.00000000000E+00 -0.45593999997E+02  0.45594000000E+02  0.51100000000E-03 0.  1.
         23    2    1    2    0    0  0.00000000000E+00  0.00000000000E+00  0.15543122345E-14  0.91188000000E+02  0.91188000000E+02 0.  0.
    9900012    2    3    3    0    0  0.34203851646E+02 -0.13529184341E+02 -0.16796826794E+01  0.54367304321E+02  0.40000501858E+02 0.  0.
        -12    1    3    3    0    0 -0.34203851646E+02  0.13529184341E+02  0.16796826794E+01  0.36820695679E+02  0.00000000000E+00 0.  1.
         11    1    4    4    0    0 -0.29463700051E+00 -0.89469988137E+01  0.64764108277E+00  0.89752458445E+01  0.51100000000E-03 0. -1.
        -11    1    4    4    0    0  0.16061029879E+02  0.13579198477E+01 -0.15183231290E+02  0.22143422042E+02  0.51100000000E-03 0.  1.
        -12    1    4    4    0    0  0.18437458768E+02 -0.59401053752E+01  0.12855907528E+02  0.23248636434E+02  0.00000000000E+00 0.  1.
</event>
<event>
 8    1  0.2553474E-006  0.9118800E+02  0.7816164E-02  0.1184000E+00
        -11   -1    0    0    0    0  0.00000000000E+00  0.00000000000E+00  0.45593999997E+02  0.45594000000E+02  0.51100000000E-03 0. -1.
         11   -1    0    0    0    0 -0.00000000000E+00 -0.00000000000E+00 -0.45593999997E+02  0.45594000000E+02  0.51100000000E-03 0.  1.
         23    2    1    2    0    0  0.00000000000E+00  0.17763568394E-14  0.71054273576E-14  0.91188000000E+02  0.91188000000E+02 0.  0.
    9900012    2    3    3    0    0  0.17461967113E+02  0.87227279965E+01  0.31221367834E+02  0.54367080829E+02  0.39999992366E+02 0.  0.
        -12    1    3    3    0    0 -0.17461967113E+02 -0.87227279965E+01 -0.31221367834E+02  0.36820919171E+02  0.00000000000E+00 0.  1.
         11    1    4    4    0    0 -0.43561343389E+01 -0.72369251944E+00  0.24962164740E+02  0.25349739763E+02  0.51100000000E-03 0. -1.
        -11    1    4    4    0    0  0.16789469187E+02  0.21574560424E+01 -0.18266563401E+01  0.17025791195E+02  0.51100000000E-03 0.  1.
        -12    1    4    4    0    0  0.50286322650E+01  0.72889644736E+01  0.80858594335E+01  0.11991549872E+02  0.00000000000E+00 0.  1.
</event>
<event>
 8    1  0.2553474E-006  0.9118800E+02  0.7816164E-02  0.1184000E+00
        -11   -1    0    0    0    0  0.00000000000E+00  0.00000000000E+00  0.45593999997E+02  0.45594000000E+02  0.51100000000E-03 0. -1.
         11   -1    0    0    0    0 -0.00000000000E+00 -0.00000000000E+00 -0.45593999997E+02  0.45594000000E+02  0.51100000000E-03 0.  1.
         23    2    1    2    0    0  0.44408920985E-15  0.00000000000E+00  0.17763568394E-14  0.91188000000E+02  0.91188000000E+02 0.  0.
    9900012    2    3    3    0    0  0.24551462462E+01 -0.33659794614E+02 -0.14723134198E+02  0.54367079355E+02  0.39999989006E+02 0.  0.
         12    1    3    3    0    0 -0.24551462462E+01  0.33659794614E+02  0.14723134198E+02  0.36820920645E+02  0.00000000000E+00 0. -1.
         11    1    4    4    0    0  0.50758137300E+01 -0.66425952008E+01  0.67510961747E+01  0.10745476064E+02  0.51100000000E-03 0. -1.
        -11    1    4    4    0    0  0.49538956522E+00 -0.29245505302E+02 -0.90463200772E+01  0.30616676802E+02  0.51100000000E-03 0.  1.
        -12    1    4    4    0    0 -0.31160570490E+01  0.22283058895E+01 -0.12427910295E+02  0.13004926489E+02  0.00000000000E+00 0.  1.
</event>
<event>
 8    1  0.2553474E-006  0.9118800E+02  0.7816164E-02  0.1184000E+00
        -11   -1    0    0    0    0  0.00000000000E+00  0.00000000000E+00  0.45593999997E+02  0.45594000000E+02  0.51100000000E-03 0. -1.
         11   -1    0    0    0    0 -0.00000000000E+00 -0.00000000000E+00 -0.45593999997E+02  0.45594000000E+02  0.51100000000E-03 0.  1.
         23    2    1    2    0    0 -0.35527136788E-14 -0.11102230246E-14  0.00000000000E+00  0.91188000000E+02  0.91188000000E+02 0.  0.
    9900012    2    3    3    0    0  0.20490350787E+02  0.17105519135E+01  0.30545104772E+02  0.54367029225E+02  0.39999874725E+02 0.  0.
        -12    1    3    3    0    0 -0.20490350787E+02 -0.17105519135E+01 -0.30545104772E+02  0.36820970775E+02  0.00000000000E+00 0.  1.
         11    1    4    4    0    0  0.24145667352E+02  0.12767836696E+02  0.23871224147E+02  0.36274870755E+02  0.51100000000E-03 0.  1.
        -11    1    4    4    0    0 -0.59860842096E+01 -0.12452828668E+02  0.67434186329E+01  0.15374649301E+02  0.51100000000E-03 0. -1.
         12    1    4    4    0    0  0.23307676447E+01  0.13955438859E+01 -0.69538007310E-01  0.27175091693E+01  0.00000000000E+00 0. -1.
</event>
<event>
 8    1  0.2553474E-006  0.9118800E+02  0.7816164E-02  0.1184000E+00
        -11   -1    0    0    0    0  0.00000000000E+00  0.00000000000E+00  0.45593999997E+02  0.45594000000E+02  0.51100000000E-03 0.  1.
         11   -1    0    0    0    0 -0.00000000000E+00 -0.00000000000E+00 -0.45593999997E+02  0.45594000000E+02  0.51100000000E-03 0. -1.
         23    2    1    2    0    0 -0.17763568394E-14 -0.44408920985E-15  0.00000000000E+00  0.91188000000E+02  0.91188000000E+02 0.  0.
    9900012    2    3    3    0    0 -0.43814936184E+01 -0.25717118017E+01 -0.36468738294E+02  0.54367081208E+02  0.39999993231E+02 0.  0.
        -12    1    3    3    0    0  0.43814936184E+01  0.25717118017E+01  0.36468738294E+02  0.36820918792E+02  0.00000000000E+00 0.  1.
         11    1    4    4    0    0  0.99665927693E+01  0.11084972588E+02 -0.20466276146E+02  0.25319519116E+02  0.51100000000E-03 0. -1.
        -11    1    4    4    0    0 -0.81087446044E+01 -0.74481358203E+01 -0.26222277593E+00  0.11013411247E+02  0.51100000000E-03 0.  1.
         12    1    4    4    0    0 -0.62393417833E+01 -0.62085485697E+01 -0.15740239372E+02  0.18034150846E+02  0.00000000000E+00 0. -1.
</event>
<event>
 8    1  0.2553474E-006  0.9118800E+02  0.7816164E-02  0.1184000E+00
        -11   -1    0    0    0    0  0.00000000000E+00  0.00000000000E+00  0.45593999997E+02  0.45594000000E+02  0.51100000000E-03 0. -1.
         11   -1    0    0    0    0 -0.00000000000E+00 -0.00000000000E+00 -0.45593999997E+02  0.45594000000E+02  0.51100000000E-03 0.  1.
         23    2    1    2    0    0  0.35527136788E-14 -0.17763568394E-14  0.35527136788E-14  0.91188000000E+02  0.91188000000E+02 0.  0.
    9900012    2    3    3    0    0 -0.27644897907E+02  0.86476014019E+01 -0.22732284152E+02  0.54367107384E+02  0.40000052902E+02 0.  0.
         12    1    3    3    0    0  0.27644897907E+02 -0.86476014019E+01  0.22732284152E+02  0.36820892616E+02  0.00000000000E+00 0. -1.
         11    1    4    4    0    0 -0.31232875809E+02  0.15161811862E+02 -0.13507428878E+02  0.37253505947E+02  0.51100000000E-03 0. -1.
        -11    1    4    4    0    0  0.25831747131E+01  0.21280897069E+01 -0.75427853079E+01  0.82519796328E+01  0.51100000000E-03 0.  1.
        -12    1    4    4    0    0  0.10048031882E+01 -0.86423001667E+01 -0.16820699660E+01  0.88616218036E+01  0.00000000000E+00 0.  1.
</event>
<event>
 8    1  0.2553474E-006  0.9118800E+02  0.7816164E-02  0.1184000E+00
        -11   -1    0    0    0    0  0.00000000000E+00  0.00000000000E+00  0.45593999997E+02  0.45594000000E+02  0.51100000000E-03 0. -1.
         11   -1    0    0    0    0 -0.00000000000E+00 -0.00000000000E+00 -0.45593999997E+02  0.45594000000E+02  0.51100000000E-03 0.  1.
         23    2    1    2    0    0  0.35527136788E-14  0.00000000000E+00  0.35527136788E-14  0.91188000000E+02  0.91188000000E+02 0.  0.
    9900012    2    3    3    0    0  0.26828617518E+02  0.11953711152E+02  0.22206221572E+02  0.54367052094E+02  0.39999926859E+02 0.  0.
        -12    1    3    3    0    0 -0.26828617518E+02 -0.11953711152E+02 -0.22206221572E+02  0.36820947906E+02  0.00000000000E+00 0.  1.
         11    1    4    4    0    0  0.25234152184E+01  0.15608574251E+02  0.24570795933E+02  0.29218474079E+02  0.51100000000E-03 0. -1.
        -11    1    4    4    0    0  0.47298573407E+01 -0.20609340016E+01 -0.19150312128E+01  0.55033030291E+01  0.51100000000E-03 0.  1.
        -12    1    4    4    0    0  0.19575344958E+02 -0.15939290974E+01 -0.44954314803E+00  0.19645274985E+02  0.00000000000E+00 0.  1.
</event>
<event>
 8    1  0.2553474E-006  0.9118800E+02  0.7816164E-02  0.1184000E+00
        -11   -1    0    0    0    0  0.00000000000E+00  0.00000000000E+00  0.45593999997E+02  0.45594000000E+02  0.51100000000E-03 0.  1.
         11   -1    0    0    0    0 -0.00000000000E+00 -0.00000000000E+00 -0.45593999997E+02  0.45594000000E+02  0.51100000000E-03 0. -1.
         23    2    1    2    0    0  0.35527136788E-14  0.44408920985E-15  0.35527136788E-14  0.91188000000E+02  0.91188000000E+02 0.  0.
    9900012    2    3    3    0    0 -0.31969244433E+02  0.19996939847E+01 -0.18158914514E+02  0.54367115410E+02  0.40000071200E+02 0.  0.
        -12    1    3    3    0    0  0.31969244433E+02 -0.19996939847E+01  0.18158914514E+02  0.36820884590E+02  0.00000000000E+00 0.  1.
         11    1    4    4    0    0 -0.14501552919E+02  0.11774277209E+01 -0.50844171238E+01  0.15412094953E+02  0.51100000000E-03 0. -1.
        -11    1    4    4    0    0 -0.85098917092E+01 -0.86978173964E+01  0.77072929564E+01  0.14403910904E+02  0.51100000000E-03 0.  1.
         12    1    4    4    0    0 -0.89577998054E+01  0.95200836602E+01 -0.20781790347E+02  0.24551109553E+02  0.00000000000E+00 0. -1.
</event>
<event>
 8    1  0.2553474E-006  0.9118800E+02  0.7816164E-02  0.1184000E+00
        -11   -1    0    0    0    0  0.00000000000E+00  0.00000000000E+00  0.45593999997E+02  0.45594000000E+02  0.51100000000E-03 0. -1.
         11   -1    0    0    0    0 -0.00000000000E+00 -0.00000000000E+00 -0.45593999997E+02  0.45594000000E+02  0.51100000000E-03 0.  1.
         23    2    1    2    0    0  0.00000000000E+00  0.00000000000E+00  0.00000000000E+00  0.91188000000E+02  0.91188000000E+02 0.  0.
    9900012    2    3    3    0    0 -0.12426797961E+02 -0.33702138551E+02  0.80945094239E+01  0.54367074790E+02  0.39999978599E+02 0.  0.
        -12    1    3    3    0    0  0.12426797961E+02  0.33702138551E+02 -0.80945094239E+01  0.36820925210E+02  0.00000000000E+00 0.  1.
         11    1    4    4    0    0  0.33037145204E+00 -0.77988533033E+01  0.20234860869E+01  0.80638548070E+01  0.51100000000E-03 0. -1.
        -11    1    4    4    0    0 -0.11765026240E+02 -0.27174577648E+02  0.17742695124E+02  0.34520671246E+02  0.51100000000E-03 0.  1.
        -12    1    4    4    0    0 -0.99214317319E+00  0.12712923998E+01 -0.11671671787E+02  0.11782548737E+02  0.00000000000E+00 0.  1.
</event>
<event>
 8    1  0.2553474E-006  0.9118800E+02  0.7816164E-02  0.1184000E+00
        -11   -1    0    0    0    0  0.00000000000E+00  0.00000000000E+00  0.45593999997E+02  0.45594000000E+02  0.51100000000E-03 0. -1.
         11   -1    0    0    0    0 -0.00000000000E+00 -0.00000000000E+00 -0.45593999997E+02  0.45594000000E+02  0.51100000000E-03 0.  1.
         23    2    1    2    0    0 -0.17763568394E-14  0.00000000000E+00  0.00000000000E+00  0.91188000000E+02  0.91188000000E+02 0.  0.
    9900012    2    3    3    0    0 -0.11694509115E+02  0.27956153724E+02 -0.20915818556E+02  0.54367088274E+02  0.40000009338E+02 0.  0.
         12    1    3    3    0    0  0.11694509115E+02 -0.27956153724E+02  0.20915818556E+02  0.36820911726E+02  0.00000000000E+00 0. -1.
         11    1    4    4    0    0  0.63114646493E+01  0.12310221640E+02  0.23255475209E+00  0.13835831194E+02  0.51100000000E-03 0. -1.
        -11    1    4    4    0    0 -0.16141143983E+02 -0.14857066917E+01 -0.15417234260E+02  0.22370403795E+02  0.51100000000E-03 0.  1.
        -12    1    4    4    0    0 -0.18648297809E+01  0.17131638776E+02 -0.57311390487E+01  0.18160853285E+02  0.00000000000E+00 0.  1.
</event>
<event>
 8    1  0.2553474E-006  0.9118800E+02  0.7816164E-02  0.1184000E+00
        -11   -1    0    0    0    0  0.00000000000E+00  0.00000000000E+00  0.45593999997E+02  0.45594000000E+02  0.51100000000E-03 0.  1.
         11   -1    0    0    0    0 -0.00000000000E+00 -0.00000000000E+00 -0.45593999997E+02  0.45594000000E+02  0.51100000000E-03 0. -1.
         23    2    1    2    0    0 -0.55511151231E-15 -0.71054273576E-14 -0.53290705182E-14  0.91188000000E+02  0.91188000000E+02 0.  0.
    9900012    2    3    3    0    0  0.70785601532E+00  0.33806008180E+02  0.14574921419E+02  0.54367142004E+02  0.40000131825E+02 0.  0.
         12    1    3    3    0    0 -0.70785601532E+00 -0.33806008180E+02 -0.14574921419E+02  0.36820857996E+02  0.00000000000E+00 0. -1.
         11    1    4    4    0    0  0.18899757334E+00  0.18817981988E+02 -0.45173149173E+00  0.18824351989E+02  0.51100000000E-03 0. -1.
        -11    1    4    4    0    0  0.71419979624E+01  0.44815477004E+01  0.20351977236E+02  0.22029420836E+02  0.51100000000E-03 0.  1.
         12    1    4    4    0    0 -0.66231395204E+01  0.10506478491E+02 -0.53253243252E+01  0.13513369179E+02  0.00000000000E+00 0. -1.
</event>
<event>
 8    1  0.2553474E-006  0.9118800E+02  0.7816164E-02  0.1184000E+00
        -11   -1    0    0    0    0  0.00000000000E+00  0.00000000000E+00  0.45593999997E+02  0.45594000000E+02  0.51100000000E-03 0. -1.
         11   -1    0    0    0    0 -0.00000000000E+00 -0.00000000000E+00 -0.45593999997E+02  0.45594000000E+02  0.51100000000E-03 0.  1.
         23    2    1    2    0    0  0.00000000000E+00  0.00000000000E+00 -0.44408920985E-15  0.91188000000E+02  0.91188000000E+02 0.  0.
    9900012    2    3    3    0    0 -0.34403363650E+02 -0.12968562668E+02 -0.20002804806E+01  0.54367134039E+02  0.40000113669E+02 0.  0.
         12    1    3    3    0    0  0.34403363650E+02  0.12968562668E+02  0.20002804806E+01  0.36820865961E+02  0.00000000000E+00 0. -1.
         11    1    4    4    0    0 -0.57357735871E+01  0.32499585443E+01  0.45513716179E+01  0.80110119865E+01  0.51100000000E-03 0. -1.
        -11    1    4    4    0    0 -0.16162499410E+02 -0.12204269773E+02  0.12064216383E+02  0.23573627321E+02  0.51100000000E-03 0.  1.
        -12    1    4    4    0    0 -0.12505090653E+02 -0.40142514386E+01 -0.18615868482E+02  0.22782494731E+02  0.00000000000E+00 0.  1.
</event>
<event>
 8    1  0.2553474E-006  0.9118800E+02  0.7816164E-02  0.1184000E+00
        -11   -1    0    0    0    0  0.00000000000E+00  0.00000000000E+00  0.45593999997E+02  0.45594000000E+02  0.51100000000E-03 0. -1.
         11   -1    0    0    0    0 -0.00000000000E+00 -0.00000000000E+00 -0.45593999997E+02  0.45594000000E+02  0.51100000000E-03 0.  1.
         23    2    1    2    0    0  0.00000000000E+00 -0.22204460493E-15  0.00000000000E+00  0.91188000000E+02  0.91188000000E+02 0.  0.
    9900012    2    3    3    0    0 -0.36229737872E+02  0.17105387802E+01 -0.63451070320E+01  0.54367078875E+02  0.39999987912E+02 0.  0.
         12    1    3    3    0    0  0.36229737872E+02 -0.17105387802E+01  0.63451070320E+01  0.36820921125E+02  0.00000000000E+00 0. -1.
         11    1    4    4    0    0 -0.33732692462E+02  0.47899494083E+01 -0.25326756348E+01  0.34165078695E+02  0.51100000000E-03 0. -1.
        -11    1    4    4    0    0 -0.86804727504E+01  0.47199308856E+01 -0.16683373098E+01  0.10020564075E+02  0.51100000000E-03 0.  1.
         12    1    4    4    0    0  0.61834273404E+01 -0.77993415137E+01 -0.21440940874E+01  0.10181436106E+02  0.00000000000E+00 0. -1.
</event>
<event>
 8    1  0.2553474E-006  0.9118800E+02  0.7816164E-02  0.1184000E+00
        -11   -1    0    0    0    0  0.00000000000E+00  0.00000000000E+00  0.45593999997E+02  0.45594000000E+02  0.51100000000E-03 0. -1.
         11   -1    0    0    0    0 -0.00000000000E+00 -0.00000000000E+00 -0.45593999997E+02  0.45594000000E+02  0.51100000000E-03 0.  1.
         23    2    1    2    0    0  0.17763568394E-14  0.53290705182E-14  0.71054273576E-14  0.91188000000E+02  0.91188000000E+02 0.  0.
    9900012    2    3    3    0    0  0.79678298105E+01  0.15090352445E+02  0.32627818530E+02  0.54367087589E+02  0.40000007776E+02 0.  0.
        -12    1    3    3    0    0 -0.79678298105E+01 -0.15090352445E+02 -0.32627818530E+02  0.36820912411E+02  0.00000000000E+00 0.  1.
         11    1    4    4    0    0 -0.79580323841E+01 -0.23158992497E+01  0.11502800892E+02  0.14177732448E+02  0.51100000000E-03 0. -1.
        -11    1    4    4    0    0 -0.30234287100E+01  0.26399323181E+01 -0.38316088726E+01  0.55490170861E+01  0.51100000000E-03 0.  1.
         12    1    4    4    0    0  0.18949290905E+02  0.14766319377E+02  0.24956626510E+02  0.34640338054E+02  0.00000000000E+00 0. -1.
</event>
<event>
 8    1  0.2553474E-006  0.9118800E+02  0.7816164E-02  0.1184000E+00
        -11   -1    0    0    0    0  0.00000000000E+00  0.00000000000E+00  0.45593999997E+02  0.45594000000E+02  0.51100000000E-03 0. -1.
         11   -1    0    0    0    0 -0.00000000000E+00 -0.00000000000E+00 -0.45593999997E+02  0.45594000000E+02  0.51100000000E-03 0.  1.
         23    2    1    2    0    0 -0.35527136788E-14  0.35527136788E-14  0.00000000000E+00  0.91188000000E+02  0.91188000000E+02 0.  0.
    9900012    2    3    3    0    0  0.23967625903E+02  0.13404484104E+02  0.24528597018E+02  0.54367090761E+02  0.40000015007E+02 0.  0.
        -12    1    3    3    0    0 -0.23967625903E+02 -0.13404484104E+02 -0.24528597018E+02  0.36820909239E+02  0.00000000000E+00 0.  1.
         11    1    4    4    0    0  0.79144830545E+01 -0.24785778861E+01  0.98885343238E+01  0.12906025790E+02  0.51100000000E-03 0. -1.
        -11    1    4    4    0    0 -0.59699116115E+01 -0.51908359799E+01  0.69629876816E+00  0.79416279851E+01  0.51100000000E-03 0.  1.
         12    1    4    4    0    0  0.22023054460E+02  0.21073897970E+02  0.13943763926E+02  0.33519436986E+02  0.00000000000E+00 0. -1.
</event>
<event>
 8    1  0.2553474E-006  0.9118800E+02  0.7816164E-02  0.1184000E+00
        -11   -1    0    0    0    0  0.00000000000E+00  0.00000000000E+00  0.45593999997E+02  0.45594000000E+02  0.51100000000E-03 0. -1.
         11   -1    0    0    0    0 -0.00000000000E+00 -0.00000000000E+00 -0.45593999997E+02  0.45594000000E+02  0.51100000000E-03 0.  1.
         23    2    1    2    0    0  0.17763568394E-14  0.00000000000E+00  0.17763568394E-14  0.91188000000E+02  0.91188000000E+02 0.  0.
    9900012    2    3    3    0    0  0.13492989140E+02 -0.32211413053E+02  0.11668063400E+02  0.54367087595E+02  0.40000007791E+02 0.  0.
        -12    1    3    3    0    0 -0.13492989140E+02  0.32211413053E+02 -0.11668063400E+02  0.36820912405E+02  0.00000000000E+00 0.  1.
         11    1    4    4    0    0 -0.73628282502E+01 -0.14540836486E+02 -0.16248947895E+01  0.16379482559E+02  0.51100000000E-03 0. -1.
        -11    1    4    4    0    0  0.12589629985E+02 -0.18845971215E+02  0.17503774480E+02  0.28636541961E+02  0.51100000000E-03 0.  1.
        -12    1    4    4    0    0  0.82661874052E+01  0.11753946488E+01 -0.42108162903E+01  0.93510630748E+01  0.00000000000E+00 0.  1.
</event>
<event>
 8    1  0.2553474E-006  0.9118800E+02  0.7816164E-02  0.1184000E+00
        -11   -1    0    0    0    0  0.00000000000E+00  0.00000000000E+00  0.45593999997E+02  0.45594000000E+02  0.51100000000E-03 0.  1.
         11   -1    0    0    0    0 -0.00000000000E+00 -0.00000000000E+00 -0.45593999997E+02  0.45594000000E+02  0.51100000000E-03 0. -1.
         23    2    1    2    0    0  0.35527136788E-14 -0.35527136788E-14 -0.35527136788E-14  0.91188000000E+02  0.91188000000E+02 0.  0.
    9900012    2    3    3    0    0  0.26332056490E+02  0.19940204250E+02 -0.16272402397E+02  0.54367081702E+02  0.39999994356E+02 0.  0.
        -12    1    3    3    0    0 -0.26332056490E+02 -0.19940204250E+02  0.16272402397E+02  0.36820918298E+02  0.00000000000E+00 0.  1.
         11    1    4    4    0    0 -0.29010808834E+01 -0.78200702301E+01 -0.18682891856E+01  0.85475302537E+01  0.51100000000E-03 0. -1.
        -11    1    4    4    0    0  0.11238482663E+02  0.92884645942E+01  0.27637255683E+01  0.14839718540E+02  0.51100000000E-03 0.  1.
         12    1    4    4    0    0  0.17994654711E+02  0.18471809886E+02 -0.17167838779E+02  0.30979832908E+02  0.00000000000E+00 0. -1.
</event>
<event>
 8    1  0.2553474E-006  0.9118800E+02  0.7816164E-02  0.1184000E+00
        -11   -1    0    0    0    0  0.00000000000E+00  0.00000000000E+00  0.45593999997E+02  0.45594000000E+02  0.51100000000E-03 0. -1.
         11   -1    0    0    0    0 -0.00000000000E+00 -0.00000000000E+00 -0.45593999997E+02  0.45594000000E+02  0.51100000000E-03 0.  1.
         23    2    1    2    0    0  0.00000000000E+00  0.35527136788E-14  0.00000000000E+00  0.91188000000E+02  0.91188000000E+02 0.  0.
    9900012    2    3    3    0    0  0.85362974734E+01 -0.30167322392E+02 -0.19309291235E+02  0.54367021702E+02  0.39999857573E+02 0.  0.
         12    1    3    3    0    0 -0.85362974734E+01  0.30167322392E+02  0.19309291235E+02  0.36820978298E+02  0.00000000000E+00 0. -1.
         11    1    4    4    0    0  0.11775745802E+02 -0.17603763106E+02  0.48538571364E+01  0.21728336200E+02  0.51100000000E-03 0. -1.
        -11    1    4    4    0    0  0.33092029114E+01 -0.29423434855E+01  0.13224720802E+01  0.46213787726E+01  0.51100000000E-03 0.  1.
         12    1    4    4    0    0 -0.65486512402E+01 -0.96212158009E+01 -0.25485620451E+02  0.28017306729E+02  0.00000000000E+00 0. -1.
</event>
<event>
 8    1  0.2553474E-006  0.9118800E+02  0.7816164E-02  0.1184000E+00
        -11   -1    0    0    0    0  0.00000000000E+00  0.00000000000E+00  0.45593999997E+02  0.45594000000E+02  0.51100000000E-03 0. -1.
         11   -1    0    0    0    0 -0.00000000000E+00 -0.00000000000E+00 -0.45593999997E+02  0.45594000000E+02  0.51100000000E-03 0.  1.
         23    2    1    2    0    0  0.71054273576E-14 -0.88817841970E-15 -0.17763568394E-14  0.91188000000E+02  0.91188000000E+02 0.  0.
    9900012    2    3    3    0    0 -0.33798698564E+02  0.12722291644E+01  0.14553694423E+02  0.54367073707E+02  0.39999976131E+02 0.  0.
        -12    1    3    3    0    0  0.33798698564E+02 -0.12722291644E+01 -0.14553694423E+02  0.36820926293E+02  0.00000000000E+00 0.  1.
         11    1    4    4    0    0 -0.75452426299E+01 -0.11190658005E+02  0.13822639770E+02  0.19319080812E+02  0.51100000000E-03 0. -1.
        -11    1    4    4    0    0 -0.76815463464E+01  0.80134275859E+01  0.89479061996E+01  0.14257847017E+02  0.51100000000E-03 0.  1.
        -12    1    4    4    0    0 -0.18571909588E+02  0.44494595832E+01 -0.82168515467E+01  0.20790145879E+02  0.00000000000E+00 0.  1.
</event>
<event>
 8    1  0.2553474E-006  0.9118800E+02  0.7816164E-02  0.1184000E+00
        -11   -1    0    0    0    0  0.00000000000E+00  0.00000000000E+00  0.45593999997E+02  0.45594000000E+02  0.51100000000E-03 0.  1.
         11   -1    0    0    0    0 -0.00000000000E+00 -0.00000000000E+00 -0.45593999997E+02  0.45594000000E+02  0.51100000000E-03 0. -1.
         23    2    1    2    0    0  0.35527136788E-14  0.00000000000E+00  0.00000000000E+00  0.91188000000E+02  0.91188000000E+02 0.  0.
    9900012    2    3    3    0    0  0.22426342287E+02 -0.25132846421E+02  0.14872092393E+02  0.54367082986E+02  0.39999997284E+02 0.  0.
         12    1    3    3    0    0 -0.22426342287E+02  0.25132846421E+02 -0.14872092393E+02  0.36820917014E+02  0.00000000000E+00 0. -1.
         11    1    4    4    0    0 -0.57559384784E+01 -0.10699903530E+02  0.49285095740E+01  0.13111406110E+02  0.51100000000E-03 0. -1.
        -11    1    4    4    0    0  0.54472165184E+01  0.66967246554E+00  0.12687766954E+02  0.13823894515E+02  0.51100000000E-03 0.  1.
        -12    1    4    4    0    0  0.22735064247E+02 -0.15102615357E+02 -0.27441841354E+01  0.27431782361E+02  0.00000000000E+00 0.  1.
</event>
<event>
 8    1  0.2553474E-006  0.9118800E+02  0.7816164E-02  0.1184000E+00
        -11   -1    0    0    0    0  0.00000000000E+00  0.00000000000E+00  0.45593999997E+02  0.45594000000E+02  0.51100000000E-03 0.  1.
         11   -1    0    0    0    0 -0.00000000000E+00 -0.00000000000E+00 -0.45593999997E+02  0.45594000000E+02  0.51100000000E-03 0. -1.
         23    2    1    2    0    0  0.00000000000E+00 -0.17763568394E-14 -0.17763568394E-14  0.91188000000E+02  0.91188000000E+02 0.  0.
    9900012    2    3    3    0    0 -0.34649565265E+02 -0.11883215849E+02 -0.37385252336E+01  0.54367085252E+02  0.40000002449E+02 0.  0.
        -12    1    3    3    0    0  0.34649565265E+02  0.11883215849E+02  0.37385252336E+01  0.36820914748E+02  0.00000000000E+00 0.  1.
         11    1    4    4    0    0 -0.22877112076E+02  0.15192657315E+01 -0.19229062108E+02  0.29923690533E+02  0.51100000000E-03 0. -1.
        -11    1    4    4    0    0 -0.11075277993E+02 -0.88230468727E+01  0.12791677674E+02  0.19082320528E+02  0.51100000000E-03 0.  1.
         12    1    4    4    0    0 -0.69717519560E+00 -0.45794347077E+01  0.26988592003E+01  0.53610741908E+01  0.00000000000E+00 0. -1.
</event>
<event>
 8    1  0.2553474E-006  0.9118800E+02  0.7816164E-02  0.1184000E+00
        -11   -1    0    0    0    0  0.00000000000E+00  0.00000000000E+00  0.45593999997E+02  0.45594000000E+02  0.51100000000E-03 0.  1.
         11   -1    0    0    0    0 -0.00000000000E+00 -0.00000000000E+00 -0.45593999997E+02  0.45594000000E+02  0.51100000000E-03 0. -1.
         23    2    1    2    0    0  0.35527136788E-14  0.00000000000E+00  0.00000000000E+00  0.91188000000E+02  0.91188000000E+02 0.  0.
    9900012    2    3    3    0    0  0.21155420881E+02 -0.24659596721E+02  0.17324200751E+02  0.54367143481E+02  0.40000135194E+02 0.  0.
         12    1    3    3    0    0 -0.21155420881E+02  0.24659596721E+02 -0.17324200751E+02  0.36820856519E+02  0.00000000000E+00 0. -1.
         11    1    4    4    0    0 -0.93856884842E+01 -0.14510196617E+02  0.18527525649E+01  0.17380150935E+02  0.51100000000E-03 0. -1.
        -11    1    4    4    0    0  0.17404713928E+02 -0.11242590270E+01  0.59841816747E+01  0.18439047043E+02  0.51100000000E-03 0.  1.
        -12    1    4    4    0    0  0.13136395438E+02 -0.90251410766E+01  0.94872665113E+01  0.18547945504E+02  0.00000000000E+00 0.  1.
</event>
<event>
 8    1  0.2553474E-006  0.9118800E+02  0.7816164E-02  0.1184000E+00
        -11   -1    0    0    0    0  0.00000000000E+00  0.00000000000E+00  0.45593999997E+02  0.45594000000E+02  0.51100000000E-03 0.  1.
         11   -1    0    0    0    0 -0.00000000000E+00 -0.00000000000E+00 -0.45593999997E+02  0.45594000000E+02  0.51100000000E-03 0. -1.
         23    2    1    2    0    0  0.00000000000E+00 -0.35527136788E-14  0.00000000000E+00  0.91188000000E+02  0.91188000000E+02 0.  0.
    9900012    2    3    3    0    0 -0.10691782176E+02  0.27925908493E+02  0.21485121254E+02  0.54367068364E+02  0.39999963949E+02 0.  0.
         12    1    3    3    0    0  0.10691782176E+02 -0.27925908493E+02 -0.21485121254E+02  0.36820931636E+02  0.00000000000E+00 0. -1.
         11    1    4    4    0    0 -0.16214069353E+01  0.19662352349E+02  0.67044449998E+00  0.19740480147E+02  0.51100000000E-03 0. -1.
        -11    1    4    4    0    0 -0.39624148898E+01  0.14569567112E+02  0.21729194476E+02  0.26459986969E+02  0.51100000000E-03 0.  1.
         12    1    4    4    0    0 -0.51079603508E+01 -0.63060109677E+01 -0.91451772152E+00  0.81666012474E+01  0.00000000000E+00 0. -1.
</event>
<event>
 8    1  0.2553474E-006  0.9118800E+02  0.7816164E-02  0.1184000E+00
        -11   -1    0    0    0    0  0.00000000000E+00  0.00000000000E+00  0.45593999997E+02  0.45594000000E+02  0.51100000000E-03 0. -1.
         11   -1    0    0    0    0 -0.00000000000E+00 -0.00000000000E+00 -0.45593999997E+02  0.45594000000E+02  0.51100000000E-03 0.  1.
         23    2    1    2    0    0  0.35527136788E-14  0.00000000000E+00  0.00000000000E+00  0.91188000000E+02  0.91188000000E+02 0.  0.
    9900012    2    3    3    0    0  0.30042612877E+02 -0.92551364144E+01  0.19172028846E+02  0.54367043622E+02  0.39999907545E+02 0.  0.
         12    1    3    3    0    0 -0.30042612877E+02  0.92551364144E+01 -0.19172028846E+02  0.36820956378E+02  0.00000000000E+00 0. -1.
         11    1    4    4    0    0 -0.31985083075E+01  0.46937056983E+01 -0.58477522602E+01  0.81521491236E+01  0.51100000000E-03 0. -1.
        -11    1    4    4    0    0  0.19086443674E+02 -0.98857309131E+01  0.22778524251E+02  0.31319022576E+02  0.51100000000E-03 0.  1.
        -12    1    4    4    0    0  0.14154677510E+02 -0.40631111996E+01  0.22412568553E+01  0.14895871922E+02  0.00000000000E+00 0.  1.
</event>
<event>
 8    1  0.2553474E-006  0.9118800E+02  0.7816164E-02  0.1184000E+00
        -11   -1    0    0    0    0  0.00000000000E+00  0.00000000000E+00  0.45593999997E+02  0.45594000000E+02  0.51100000000E-03 0. -1.
         11   -1    0    0    0    0 -0.00000000000E+00 -0.00000000000E+00 -0.45593999997E+02  0.45594000000E+02  0.51100000000E-03 0.  1.
         23    2    1    2    0    0  0.22204460493E-15  0.00000000000E+00  0.00000000000E+00  0.91188000000E+02  0.91188000000E+02 0.  0.
    9900012    2    3    3    0    0  0.18687656382E+01  0.41904008758E+01 -0.36533946648E+02  0.54367068423E+02  0.39999964083E+02 0.  0.
         12    1    3    3    0    0 -0.18687656382E+01 -0.41904008758E+01  0.36533946648E+02  0.36820931577E+02  0.00000000000E+00 0. -1.
         11    1    4    4    0    0  0.98004354746E+01  0.98731913698E+01 -0.16689739907E+02  0.21727306822E+02  0.51100000000E-03 0. -1.
        -11    1    4    4    0    0  0.85770503942E+01 -0.32556218210E+01 -0.60425296046E+01  0.10985309790E+02  0.51100000000E-03 0.  1.
        -12    1    4    4    0    0 -0.16508720231E+02 -0.24271686730E+01 -0.13801677136E+02  0.21654451810E+02  0.00000000000E+00 0.  1.
</event>
<event>
 8    1  0.2553474E-006  0.9118800E+02  0.7816164E-02  0.1184000E+00
        -11   -1    0    0    0    0  0.00000000000E+00  0.00000000000E+00  0.45593999997E+02  0.45594000000E+02  0.51100000000E-03 0.  1.
         11   -1    0    0    0    0 -0.00000000000E+00 -0.00000000000E+00 -0.45593999997E+02  0.45594000000E+02  0.51100000000E-03 0. -1.
         23    2    1    2    0    0  0.35527136788E-14  0.88817841970E-15 -0.35527136788E-14  0.91188000000E+02  0.91188000000E+02 0.  0.
    9900012    2    3    3    0    0 -0.17137770357E+02  0.79419450261E+01  0.31606994375E+02  0.54367085331E+02  0.40000002629E+02 0.  0.
         12    1    3    3    0    0  0.17137770357E+02 -0.79419450261E+01 -0.31606994375E+02  0.36820914669E+02  0.00000000000E+00 0. -1.
         11    1    4    4    0    0 -0.13414408583E+02  0.10384137363E+02  0.74069996906E+01  0.18510545942E+02  0.51100000000E-03 0. -1.
        -11    1    4    4    0    0 -0.32679232540E+01 -0.86533672215E+01 -0.15370500965E+01  0.93767057075E+01  0.51100000000E-03 0.  1.
        -12    1    4    4    0    0 -0.45543851980E+00  0.62111748848E+01  0.25737044781E+02  0.26479833681E+02  0.00000000000E+00 0.  1.
</event>
<event>
 8    1  0.2553474E-006  0.9118800E+02  0.7816164E-02  0.1184000E+00
        -11   -1    0    0    0    0  0.00000000000E+00  0.00000000000E+00  0.45593999997E+02  0.45594000000E+02  0.51100000000E-03 0. -1.
         11   -1    0    0    0    0 -0.00000000000E+00 -0.00000000000E+00 -0.45593999997E+02  0.45594000000E+02  0.51100000000E-03 0.  1.
         23    2    1    2    0    0  0.00000000000E+00  0.35527136788E-14  0.00000000000E+00  0.91188000000E+02  0.91188000000E+02 0.  0.
    9900012    2    3    3    0    0 -0.12670406258E+02  0.31101099439E+02  0.15098410086E+02  0.54367087896E+02  0.40000008476E+02 0.  0.
        -12    1    3    3    0    0  0.12670406258E+02 -0.31101099439E+02 -0.15098410086E+02  0.36820912104E+02  0.00000000000E+00 0.  1.
         11    1    4    4    0    0 -0.12401478230E+02  0.86014217144E+00  0.11557369281E+01  0.12484880254E+02  0.51100000000E-03 0. -1.
        -11    1    4    4    0    0  0.10547186819E+02  0.43272291791E+01  0.45061811513E+01  0.12258618642E+02  0.51100000000E-03 0.  1.
         12    1    4    4    0    0 -0.10816114847E+02  0.25913728089E+02  0.94364920064E+01  0.29623589000E+02  0.00000000000E+00 0. -1.
</event>
<event>
 8    1  0.2553474E-006  0.9118800E+02  0.7816164E-02  0.1184000E+00
        -11   -1    0    0    0    0  0.00000000000E+00  0.00000000000E+00  0.45593999997E+02  0.45594000000E+02  0.51100000000E-03 0.  1.
         11   -1    0    0    0    0 -0.00000000000E+00 -0.00000000000E+00 -0.45593999997E+02  0.45594000000E+02  0.51100000000E-03 0. -1.
         23    2    1    2    0    0  0.00000000000E+00 -0.88817841970E-15  0.00000000000E+00  0.91188000000E+02  0.91188000000E+02 0.  0.
    9900012    2    3    3    0    0  0.34286862379E+02 -0.77953550926E+01  0.10928111065E+02  0.54367080616E+02  0.39999991880E+02 0.  0.
         12    1    3    3    0    0 -0.34286862379E+02  0.77953550926E+01 -0.10928111065E+02  0.36820919384E+02  0.00000000000E+00 0. -1.
         11    1    4    4    0    0  0.38829050990E+02 -0.10928877948E+02 -0.13382151718E+01  0.40359960284E+02  0.51100000000E-03 0.  1.
        -11    1    4    4    0    0  0.39893648326E+00  0.34003874984E+00  0.36613437848E+01  0.36986774989E+01  0.51100000000E-03 0. -1.
        -12    1    4    4    0    0 -0.49411250942E+01  0.27934841057E+01  0.86049824522E+01  0.10308442833E+02  0.00000000000E+00 0.  1.
</event>
<event>
 8    1  0.2553474E-006  0.9118800E+02  0.7816164E-02  0.1184000E+00
        -11   -1    0    0    0    0  0.00000000000E+00  0.00000000000E+00  0.45593999997E+02  0.45594000000E+02  0.51100000000E-03 0.  1.
         11   -1    0    0    0    0 -0.00000000000E+00 -0.00000000000E+00 -0.45593999997E+02  0.45594000000E+02  0.51100000000E-03 0. -1.
         23    2    1    2    0    0 -0.35527136788E-14  0.00000000000E+00 -0.35527136788E-14  0.91188000000E+02  0.91188000000E+02 0.  0.
    9900012    2    3    3    0    0  0.23648955914E+02  0.92325521465E+01  0.26669579101E+02  0.54367087676E+02  0.40000007975E+02 0.  0.
         12    1    3    3    0    0 -0.23648955914E+02 -0.92325521465E+01 -0.26669579101E+02  0.36820912324E+02  0.00000000000E+00 0. -1.
         11    1    4    4    0    0  0.15653394277E+02 -0.40774309626E+01  0.22042619773E+02  0.27341018312E+02  0.51100000000E-03 0. -1.
        -11    1    4    4    0    0  0.14411643725E+02  0.33822741769E+01  0.27832058962E+01  0.15062585728E+02  0.51100000000E-03 0.  1.
         12    1    4    4    0    0 -0.64160820878E+01  0.99277089321E+01  0.18437534311E+01  0.11963483636E+02  0.00000000000E+00 0. -1.
</event>
<event>
 8    1  0.2553474E-006  0.9118800E+02  0.7816164E-02  0.1184000E+00
        -11   -1    0    0    0    0  0.00000000000E+00  0.00000000000E+00  0.45593999997E+02  0.45594000000E+02  0.51100000000E-03 0.  1.
         11   -1    0    0    0    0 -0.00000000000E+00 -0.00000000000E+00 -0.45593999997E+02  0.45594000000E+02  0.51100000000E-03 0. -1.
         23    2    1    2    0    0  0.71054273576E-14  0.00000000000E+00  0.88817841970E-15  0.91188000000E+02  0.91188000000E+02 0.  0.
    9900012    2    3    3    0    0  0.35051800305E+02 -0.84182256782E+01  0.75022916195E+01  0.54367087359E+02  0.40000007251E+02 0.  0.
         12    1    3    3    0    0 -0.35051800305E+02  0.84182256782E+01 -0.75022916195E+01  0.36820912641E+02  0.00000000000E+00 0. -1.
         11    1    4    4    0    0  0.12710121948E+02  0.26451444939E+01  0.53892222531E+01  0.14056589418E+02  0.51100000000E-03 0.  1.
        -11    1    4    4    0    0  0.11742295434E+02  0.97629671208E+01 -0.46850826013E+01  0.15973322394E+02  0.51100000000E-03 0. -1.
         12    1    4    4    0    0  0.10599382924E+02 -0.20826337293E+02  0.67981519677E+01  0.24337175546E+02  0.00000000000E+00 0. -1.
</event>
<event>
 8    1  0.2553474E-006  0.9118800E+02  0.7816164E-02  0.1184000E+00
        -11   -1    0    0    0    0  0.00000000000E+00  0.00000000000E+00  0.45593999997E+02  0.45594000000E+02  0.51100000000E-03 0. -1.
         11   -1    0    0    0    0 -0.00000000000E+00 -0.00000000000E+00 -0.45593999997E+02  0.45594000000E+02  0.51100000000E-03 0.  1.
         23    2    1    2    0    0  0.35527136788E-14 -0.15543122345E-14  0.00000000000E+00  0.91188000000E+02  0.91188000000E+02 0.  0.
    9900012    2    3    3    0    0  0.21098164307E+02  0.61093039487E+00  0.30170740098E+02  0.54367091115E+02  0.40000015814E+02 0.  0.
        -12    1    3    3    0    0 -0.21098164307E+02 -0.61093039487E+00 -0.30170740098E+02  0.36820908885E+02  0.00000000000E+00 0.  1.
         11    1    4    4    0    0  0.26300165839E+02  0.12636830579E+02  0.26236537976E+02  0.39239573589E+02  0.51100000000E-03 0. -1.
        -11    1    4    4    0    0 -0.41025210995E+01 -0.51696927821E+01  0.47565577329E+01  0.81351855885E+01  0.51100000000E-03 0.  1.
         12    1    4    4    0    0 -0.10994804321E+01 -0.68562074019E+01 -0.82235561115E+00  0.69923319365E+01  0.00000000000E+00 0. -1.
</event>
<event>
 8    1  0.2553474E-006  0.9118800E+02  0.7816164E-02  0.1184000E+00
        -11   -1    0    0    0    0  0.00000000000E+00  0.00000000000E+00  0.45593999997E+02  0.45594000000E+02  0.51100000000E-03 0.  1.
         11   -1    0    0    0    0 -0.00000000000E+00 -0.00000000000E+00 -0.45593999997E+02  0.45594000000E+02  0.51100000000E-03 0. -1.
         23    2    1    2    0    0  0.00000000000E+00  0.00000000000E+00  0.00000000000E+00  0.91188000000E+02  0.91188000000E+02 0.  0.
    9900012    2    3    3    0    0 -0.19624721191E+02 -0.20598030224E+02  0.23374600031E+02  0.54367075819E+02  0.39999980944E+02 0.  0.
         12    1    3    3    0    0  0.19624721191E+02  0.20598030224E+02 -0.23374600031E+02  0.36820924181E+02  0.00000000000E+00 0. -1.
         11    1    4    4    0    0 -0.49285211795E+01 -0.13858269842E+01 -0.38738529875E+01  0.64200914851E+01  0.51100000000E-03 0. -1.
        -11    1    4    4    0    0 -0.11128793015E+02 -0.20512669343E+02  0.31470645002E+01  0.23548325902E+02  0.51100000000E-03 0.  1.
        -12    1    4    4    0    0 -0.35674069973E+01  0.13004661032E+01  0.24101388518E+02  0.24398658432E+02  0.00000000000E+00 0.  1.
</event>
<event>
 8    1  0.2553474E-006  0.9118800E+02  0.7816164E-02  0.1184000E+00
        -11   -1    0    0    0    0  0.00000000000E+00  0.00000000000E+00  0.45593999997E+02  0.45594000000E+02  0.51100000000E-03 0. -1.
         11   -1    0    0    0    0 -0.00000000000E+00 -0.00000000000E+00 -0.45593999997E+02  0.45594000000E+02  0.51100000000E-03 0.  1.
         23    2    1    2    0    0  0.00000000000E+00  0.71054273576E-14 -0.17763568394E-14  0.91188000000E+02  0.91188000000E+02 0.  0.
    9900012    2    3    3    0    0 -0.92546600936E+01 -0.34191583568E+02 -0.10053154578E+02  0.54367095105E+02  0.40000024911E+02 0.  0.
         12    1    3    3    0    0  0.92546600936E+01  0.34191583568E+02  0.10053154578E+02  0.36820904895E+02  0.00000000000E+00 0. -1.
         11    1    4    4    0    0 -0.12624348643E+02 -0.50607846136E+01  0.48121899915E+00  0.13609455961E+02  0.51100000000E-03 0. -1.
        -11    1    4    4    0    0 -0.48706289030E+01 -0.23927600705E+02 -0.16370639489E+02  0.29398145162E+02  0.51100000000E-03 0.  1.
         12    1    4    4    0    0  0.82403174526E+01 -0.52031982488E+01  0.58362659115E+01  0.11359493982E+02  0.00000000000E+00 0. -1.
</event>
<event>
 8    1  0.2553474E-006  0.9118800E+02  0.7816164E-02  0.1184000E+00
        -11   -1    0    0    0    0  0.00000000000E+00  0.00000000000E+00  0.45593999997E+02  0.45594000000E+02  0.51100000000E-03 0. -1.
         11   -1    0    0    0    0 -0.00000000000E+00 -0.00000000000E+00 -0.45593999997E+02  0.45594000000E+02  0.51100000000E-03 0.  1.
         23    2    1    2    0    0  0.00000000000E+00  0.71054273576E-14  0.00000000000E+00  0.91188000000E+02  0.91188000000E+02 0.  0.
    9900012    2    3    3    0    0 -0.12227712138E+02  0.21474390403E+02  0.27296767122E+02  0.54367083626E+02  0.39999998742E+02 0.  0.
         12    1    3    3    0    0  0.12227712138E+02 -0.21474390403E+02 -0.27296767122E+02  0.36820916374E+02  0.00000000000E+00 0. -1.
         11    1    4    4    0    0 -0.10462982347E+02  0.10249545734E+00 -0.15739016406E+00  0.10464668023E+02  0.51100000000E-03 0.  1.
        -11    1    4    4    0    0 -0.73314901702E+01  0.24950341597E+02  0.15597944652E+02  0.30324349483E+02  0.51100000000E-03 0. -1.
         12    1    4    4    0    0  0.55667603790E+01 -0.35784466510E+01  0.11856212634E+02  0.13578066120E+02  0.00000000000E+00 0. -1.
</event>
<event>
 8    1  0.2553474E-006  0.9118800E+02  0.7816164E-02  0.1184000E+00
        -11   -1    0    0    0    0  0.00000000000E+00  0.00000000000E+00  0.45593999997E+02  0.45594000000E+02  0.51100000000E-03 0. -1.
         11   -1    0    0    0    0 -0.00000000000E+00 -0.00000000000E+00 -0.45593999997E+02  0.45594000000E+02  0.51100000000E-03 0.  1.
         23    2    1    2    0    0  0.00000000000E+00  0.00000000000E+00 -0.35527136788E-14  0.91188000000E+02  0.91188000000E+02 0.  0.
    9900012    2    3    3    0    0  0.23171060030E+02 -0.46838107952E+01 -0.28230190550E+02  0.54367085223E+02  0.40000002384E+02 0.  0.
         12    1    3    3    0    0 -0.23171060030E+02  0.46838107952E+01  0.28230190550E+02  0.36820914777E+02  0.00000000000E+00 0. -1.
         11    1    4    4    0    0  0.14743760615E+02 -0.81512484041E+01  0.67958967792E+01  0.18166054632E+02  0.51100000000E-03 0. -1.
        -11    1    4    4    0    0  0.73116545009E+00  0.54705483272E+00 -0.32141137539E+01  0.33413170142E+01  0.51100000000E-03 0.  1.
         12    1    4    4    0    0  0.76961339650E+01  0.29203827762E+01 -0.31811973576E+02  0.32859713577E+02  0.00000000000E+00 0. -1.
</event>
<event>
 8    1  0.2553474E-006  0.9118800E+02  0.7816164E-02  0.1184000E+00
        -11   -1    0    0    0    0  0.00000000000E+00  0.00000000000E+00  0.45593999997E+02  0.45594000000E+02  0.51100000000E-03 0. -1.
         11   -1    0    0    0    0 -0.00000000000E+00 -0.00000000000E+00 -0.45593999997E+02  0.45594000000E+02  0.51100000000E-03 0.  1.
         23    2    1    2    0    0 -0.17763568394E-14  0.00000000000E+00  0.00000000000E+00  0.91188000000E+02  0.91188000000E+02 0.  0.
    9900012    2    3    3    0    0 -0.92031838805E+01  0.66820755849E+01 -0.35020215281E+02  0.54367296504E+02  0.40000484037E+02 0.  0.
         12    1    3    3    0    0  0.92031838805E+01 -0.66820755849E+01  0.35020215281E+02  0.36820703496E+02  0.00000000000E+00 0. -1.
         11    1    4    4    0    0  0.85298902552E+01 -0.35052007368E+01  0.28043275381E+01  0.96389684704E+01  0.51100000000E-03 0. -1.
        -11    1    4    4    0    0 -0.18903121229E+02  0.11365162463E+02 -0.33636869865E+02  0.40223549378E+02  0.51100000000E-03 0.  1.
        -12    1    4    4    0    0  0.11700470933E+01 -0.11778861417E+01 -0.41876729542E+01  0.45047786554E+01  0.00000000000E+00 0.  1.
</event>
<event>
 8    1  0.2553474E-006  0.9118800E+02  0.7816164E-02  0.1184000E+00
        -11   -1    0    0    0    0  0.00000000000E+00  0.00000000000E+00  0.45593999997E+02  0.45594000000E+02  0.51100000000E-03 0. -1.
         11   -1    0    0    0    0 -0.00000000000E+00 -0.00000000000E+00 -0.45593999997E+02  0.45594000000E+02  0.51100000000E-03 0.  1.
         23    2    1    2    0    0  0.88817841970E-15  0.00000000000E+00  0.00000000000E+00  0.91188000000E+02  0.91188000000E+02 0.  0.
    9900012    2    3    3    0    0  0.56546849093E+01  0.57227388043E+01  0.35931226802E+02  0.54367105655E+02  0.40000048963E+02 0.  0.
        -12    1    3    3    0    0 -0.56546849093E+01 -0.57227388043E+01 -0.35931226802E+02  0.36820894345E+02  0.00000000000E+00 0.  1.
         11    1    4    4    0    0  0.66300314431E+01 -0.52238842435E+01 -0.20623239766E+01  0.86890427534E+01  0.51100000000E-03 0. -1.
        -11    1    4    4    0    0  0.81003906621E+01  0.66478374936E+01  0.58479628253E+01  0.12000364231E+02  0.51100000000E-03 0.  1.
         12    1    4    4    0    0 -0.90757371959E+01  0.42987855542E+01  0.32145587953E+02  0.33677698671E+02  0.00000000000E+00 0. -1.
</event>
<event>
 8    1  0.2553474E-006  0.9118800E+02  0.7816164E-02  0.1184000E+00
        -11   -1    0    0    0    0  0.00000000000E+00  0.00000000000E+00  0.45593999997E+02  0.45594000000E+02  0.51100000000E-03 0. -1.
         11   -1    0    0    0    0 -0.00000000000E+00 -0.00000000000E+00 -0.45593999997E+02  0.45594000000E+02  0.51100000000E-03 0.  1.
         23    2    1    2    0    0  0.00000000000E+00  0.17763568394E-14  0.71054273576E-14  0.91188000000E+02  0.91188000000E+02 0.  0.
    9900012    2    3    3    0    0  0.30786483451E+01 -0.62603669144E+01  0.36153998523E+02  0.54367056520E+02  0.39999936949E+02 0.  0.
        -12    1    3    3    0    0 -0.30786483451E+01  0.62603669144E+01 -0.36153998523E+02  0.36820943480E+02  0.00000000000E+00 0.  1.
         11    1    4    4    0    0 -0.92291316563E+01  0.31781975321E+01  0.32715513027E+01  0.10294700524E+02  0.51100000000E-03 0. -1.
        -11    1    4    4    0    0  0.22759705963E+01  0.77158885163E+01  0.16350903318E+02  0.18222706092E+02  0.51100000000E-03 0.  1.
        -12    1    4    4    0    0  0.10031809405E+02 -0.17154452963E+02  0.16531543902E+02  0.25849649904E+02  0.00000000000E+00 0.  1.
</event>
<event>
 8    1  0.2553474E-006  0.9118800E+02  0.7816164E-02  0.1184000E+00
        -11   -1    0    0    0    0  0.00000000000E+00  0.00000000000E+00  0.45593999997E+02  0.45594000000E+02  0.51100000000E-03 0.  1.
         11   -1    0    0    0    0 -0.00000000000E+00 -0.00000000000E+00 -0.45593999997E+02  0.45594000000E+02  0.51100000000E-03 0. -1.
         23    2    1    2    0    0 -0.35527136788E-14  0.00000000000E+00 -0.17763568394E-14  0.91188000000E+02  0.91188000000E+02 0.  0.
    9900012    2    3    3    0    0  0.23223888957E+02  0.23918184546E+02  0.15631734263E+02  0.54367086291E+02  0.40000004818E+02 0.  0.
         12    1    3    3    0    0 -0.23223888957E+02 -0.23918184546E+02 -0.15631734263E+02  0.36820913709E+02  0.00000000000E+00 0. -1.
         11    1    4    4    0    0  0.50310594066E+01  0.66914310129E+01  0.19179152132E+02  0.20926697888E+02  0.51100000000E-03 0. -1.
        -11    1    4    4    0    0  0.96802671317E+01  0.52650594164E+01  0.89217405925E+01  0.14178359491E+02  0.51100000000E-03 0.  1.
        -12    1    4    4    0    0  0.85125624189E+01  0.11961694117E+02 -0.12469158461E+02  0.19262028912E+02  0.00000000000E+00 0.  1.
</event>
<event>
 8    1  0.2553474E-006  0.9118800E+02  0.7816164E-02  0.1184000E+00
        -11   -1    0    0    0    0  0.00000000000E+00  0.00000000000E+00  0.45593999997E+02  0.45594000000E+02  0.51100000000E-03 0.  1.
         11   -1    0    0    0    0 -0.00000000000E+00 -0.00000000000E+00 -0.45593999997E+02  0.45594000000E+02  0.51100000000E-03 0. -1.
         23    2    1    2    0    0  0.00000000000E+00  0.00000000000E+00  0.35527136788E-14  0.91188000000E+02  0.91188000000E+02 0.  0.
    9900012    2    3    3    0    0  0.20344199513E+01 -0.29725060316E+02 -0.21634729282E+02  0.54367087648E+02  0.40000007911E+02 0.  0.
        -12    1    3    3    0    0 -0.20344199513E+01  0.29725060316E+02  0.21634729282E+02  0.36820912352E+02  0.00000000000E+00 0.  1.
         11    1    4    4    0    0  0.69593071790E-01 -0.49636580597E+01  0.22664875913E+01  0.54570789615E+01  0.51100000000E-03 0. -1.
        -11    1    4    4    0    0  0.47521051959E+00 -0.51403668392E+01  0.91146267724E+01  0.10474999653E+02  0.51100000000E-03 0.  1.
         12    1    4    4    0    0  0.14896163599E+01 -0.19621035417E+02 -0.33015843646E+02  0.38435009033E+02  0.00000000000E+00 0. -1.
</event>
<event>
 8    1  0.2553474E-006  0.9118800E+02  0.7816164E-02  0.1184000E+00
        -11   -1    0    0    0    0  0.00000000000E+00  0.00000000000E+00  0.45593999997E+02  0.45594000000E+02  0.51100000000E-03 0. -1.
         11   -1    0    0    0    0 -0.00000000000E+00 -0.00000000000E+00 -0.45593999997E+02  0.45594000000E+02  0.51100000000E-03 0.  1.
         23    2    1    2    0    0 -0.71054273576E-14  0.17763568394E-14  0.00000000000E+00  0.91188000000E+02  0.91188000000E+02 0.  0.
    9900012    2    3    3    0    0  0.35543140477E+02 -0.92286463560E+01 -0.26997472210E+01  0.54367199037E+02  0.40000261843E+02 0.  0.
        -12    1    3    3    0    0 -0.35543140477E+02  0.92286463560E+01  0.26997472210E+01  0.36820800963E+02  0.00000000000E+00 0.  1.
         11    1    4    4    0    0  0.25292751251E+01 -0.19225438809E+01 -0.29858019920E+01  0.43598648407E+01  0.51100000000E-03 0. -1.
        -11    1    4    4    0    0  0.32497834519E+02  0.89772282204E+01  0.21883579670E+00  0.33715690180E+02  0.51100000000E-03 0.  1.
         12    1    4    4    0    0  0.51603083281E+00 -0.16283330695E+02  0.67218974328E-01  0.16291644016E+02  0.00000000000E+00 0. -1.
</event>
<event>
 8    1  0.2553474E-006  0.9118800E+02  0.7816164E-02  0.1184000E+00
        -11   -1    0    0    0    0  0.00000000000E+00  0.00000000000E+00  0.45593999997E+02  0.45594000000E+02  0.51100000000E-03 0.  1.
         11   -1    0    0    0    0 -0.00000000000E+00 -0.00000000000E+00 -0.45593999997E+02  0.45594000000E+02  0.51100000000E-03 0. -1.
         23    2    1    2    0    0  0.00000000000E+00  0.00000000000E+00  0.00000000000E+00  0.91188000000E+02  0.91188000000E+02 0.  0.
    9900012    2    3    3    0    0  0.24016041350E+02 -0.15939270036E+02 -0.22911756446E+02  0.54367093508E+02  0.40000021271E+02 0.  0.
        -12    1    3    3    0    0 -0.24016041350E+02  0.15939270036E+02  0.22911756446E+02  0.36820906492E+02  0.00000000000E+00 0.  1.
         11    1    4    4    0    0  0.13724652211E+02 -0.13293022745E+01  0.25274030251E+01  0.14018590840E+02  0.51100000000E-03 0. -1.
        -11    1    4    4    0    0  0.12180126767E+02 -0.11783471809E+02 -0.24665139128E+01  0.17125693769E+02  0.51100000000E-03 0.  1.
         12    1    4    4    0    0 -0.18887376278E+01 -0.28264959530E+01 -0.22972645558E+02  0.23222808899E+02  0.00000000000E+00 0. -1.
</event>
<event>
 8    1  0.2553474E-006  0.9118800E+02  0.7816164E-02  0.1184000E+00
        -11   -1    0    0    0    0  0.00000000000E+00  0.00000000000E+00  0.45593999997E+02  0.45594000000E+02  0.51100000000E-03 0.  1.
         11   -1    0    0    0    0 -0.00000000000E+00 -0.00000000000E+00 -0.45593999997E+02  0.45594000000E+02  0.51100000000E-03 0. -1.
         23    2    1    2    0    0  0.00000000000E+00  0.00000000000E+00  0.00000000000E+00  0.91188000000E+02  0.91188000000E+02 0.  0.
    9900012    2    3    3    0    0 -0.29069055083E+02  0.20351781623E+02  0.98272897548E+01  0.54367073850E+02  0.39999976455E+02 0.  0.
        -12    1    3    3    0    0  0.29069055083E+02 -0.20351781623E+02 -0.98272897548E+01  0.36820926150E+02  0.00000000000E+00 0.  1.
         11    1    4    4    0    0 -0.16666024598E+02  0.22025687422E+02  0.13222382470E+02  0.30622192618E+02  0.51100000000E-03 0. -1.
        -11    1    4    4    0    0 -0.61586357766E+01 -0.66866275038E+01  0.63819944807E+01  0.11107188475E+02  0.51100000000E-03 0.  1.
         12    1    4    4    0    0 -0.62443947086E+01  0.50127217048E+01 -0.97770871960E+01  0.12637692756E+02  0.00000000000E+00 0. -1.
</event>
<event>
 8    1  0.2553474E-006  0.9118800E+02  0.7816164E-02  0.1184000E+00
        -11   -1    0    0    0    0  0.00000000000E+00  0.00000000000E+00  0.45593999997E+02  0.45594000000E+02  0.51100000000E-03 0. -1.
         11   -1    0    0    0    0 -0.00000000000E+00 -0.00000000000E+00 -0.45593999997E+02  0.45594000000E+02  0.51100000000E-03 0.  1.
         23    2    1    2    0    0  0.00000000000E+00 -0.44408920985E-15 -0.35527136788E-14  0.91188000000E+02  0.91188000000E+02 0.  0.
    9900012    2    3    3    0    0 -0.34287429506E+02  0.37511676727E+01 -0.12887045529E+02  0.54367149610E+02  0.40000149165E+02 0.  0.
         12    1    3    3    0    0  0.34287429506E+02 -0.37511676727E+01  0.12887045529E+02  0.36820850390E+02  0.00000000000E+00 0. -1.
         11    1    4    4    0    0 -0.17001909523E+02  0.17217204949E+01  0.10823230363E+02  0.20227989635E+02  0.51100000000E-03 0. -1.
        -11    1    4    4    0    0 -0.12651720491E+02 -0.68658204062E+01 -0.15726759979E+02  0.21319861654E+02  0.51100000000E-03 0.  1.
         12    1    4    4    0    0 -0.46337994907E+01  0.88952675841E+01 -0.79835159131E+01  0.12819298321E+02  0.00000000000E+00 0. -1.
</event>
<event>
 8    1  0.2553474E-006  0.9118800E+02  0.7816164E-02  0.1184000E+00
        -11   -1    0    0    0    0  0.00000000000E+00  0.00000000000E+00  0.45593999997E+02  0.45594000000E+02  0.51100000000E-03 0.  1.
         11   -1    0    0    0    0 -0.00000000000E+00 -0.00000000000E+00 -0.45593999997E+02  0.45594000000E+02  0.51100000000E-03 0. -1.
         23    2    1    2    0    0  0.00000000000E+00  0.35527136788E-14 -0.17763568394E-14  0.91188000000E+02  0.91188000000E+02 0.  0.
    9900012    2    3    3    0    0  0.29125565161E+02  0.18534160870E+02  0.12804911090E+02  0.54367090002E+02  0.40000013277E+02 0.  0.
         12    1    3    3    0    0 -0.29125565161E+02 -0.18534160870E+02 -0.12804911090E+02  0.36820909998E+02  0.00000000000E+00 0. -1.
         11    1    4    4    0    0  0.15859364621E+02 -0.79543759196E+00  0.21866911908E+00  0.15880805508E+02  0.51100000000E-03 0. -1.
        -11    1    4    4    0    0 -0.37522036472E+01 -0.29611364951E+00  0.11920870222E+02  0.12500954469E+02  0.51100000000E-03 0.  1.
         12    1    4    4    0    0  0.17018404187E+02  0.19625712112E+02  0.66537174820E+00  0.25985330025E+02  0.00000000000E+00 0. -1.
</event>
<event>
 8    1  0.2553474E-006  0.9118800E+02  0.7816164E-02  0.1184000E+00
        -11   -1    0    0    0    0  0.00000000000E+00  0.00000000000E+00  0.45593999997E+02  0.45594000000E+02  0.51100000000E-03 0. -1.
         11   -1    0    0    0    0 -0.00000000000E+00 -0.00000000000E+00 -0.45593999997E+02  0.45594000000E+02  0.51100000000E-03 0.  1.
         23    2    1    2    0    0 -0.44408920985E-15  0.00000000000E+00 -0.35527136788E-14  0.91188000000E+02  0.91188000000E+02 0.  0.
    9900012    2    3    3    0    0 -0.37732465817E+01  0.20277319937E+02 -0.30501966954E+02  0.54367121661E+02  0.40000085450E+02 0.  0.
         12    1    3    3    0    0  0.37732465817E+01 -0.20277319937E+02  0.30501966954E+02  0.36820878339E+02  0.00000000000E+00 0. -1.
         11    1    4    4    0    0  0.28171660654E+01  0.72680517525E+01  0.77459149973E+01  0.10989094609E+02  0.51100000000E-03 0. -1.
        -11    1    4    4    0    0  0.42044111259E+01  0.11546486030E+01 -0.67774187140E+01  0.80587648556E+01  0.51100000000E-03 0.  1.
        -12    1    4    4    0    0 -0.10794823773E+02  0.11854619582E+02 -0.31470463237E+02  0.35319262196E+02  0.00000000000E+00 0.  1.
</event>
<event>
 8    1  0.2553474E-006  0.9118800E+02  0.7816164E-02  0.1184000E+00
        -11   -1    0    0    0    0  0.00000000000E+00  0.00000000000E+00  0.45593999997E+02  0.45594000000E+02  0.51100000000E-03 0. -1.
         11   -1    0    0    0    0 -0.00000000000E+00 -0.00000000000E+00 -0.45593999997E+02  0.45594000000E+02  0.51100000000E-03 0.  1.
         23    2    1    2    0    0 -0.13322676296E-14  0.00000000000E+00 -0.35527136788E-14  0.91188000000E+02  0.91188000000E+02 0.  0.
    9900012    2    3    3    0    0  0.38531118923E+01  0.25805497857E+02  0.25980954436E+02  0.54367079530E+02  0.39999989404E+02 0.  0.
        -12    1    3    3    0    0 -0.38531118923E+01 -0.25805497857E+02 -0.25980954436E+02  0.36820920470E+02  0.00000000000E+00 0.  1.
         11    1    4    4    0    0 -0.32797200371E+01  0.36617506483E+01  0.21856478132E+01  0.53797804747E+01  0.51100000000E-03 0. -1.
        -11    1    4    4    0    0 -0.12946499235E+02  0.17333381785E+02  0.83000902977E+01  0.23172170070E+02  0.51100000000E-03 0.  1.
        -12    1    4    4    0    0  0.20079331165E+02  0.48103654236E+01  0.15495216325E+02  0.25815128985E+02  0.00000000000E+00 0.  1.
</event>
<event>
 8    1  0.2553474E-006  0.9118800E+02  0.7816164E-02  0.1184000E+00
        -11   -1    0    0    0    0  0.00000000000E+00  0.00000000000E+00  0.45593999997E+02  0.45594000000E+02  0.51100000000E-03 0.  1.
         11   -1    0    0    0    0 -0.00000000000E+00 -0.00000000000E+00 -0.45593999997E+02  0.45594000000E+02  0.51100000000E-03 0. -1.
         23    2    1    2    0    0 -0.17763568394E-14  0.00000000000E+00 -0.22204460493E-15  0.91188000000E+02  0.91188000000E+02 0.  0.
    9900012    2    3    3    0    0 -0.58981116338E+01  0.36311693518E+02 -0.15662547752E+01  0.54367082562E+02  0.39999996316E+02 0.  0.
         12    1    3    3    0    0  0.58981116338E+01 -0.36311693518E+02  0.15662547752E+01  0.36820917438E+02  0.00000000000E+00 0. -1.
         11    1    4    4    0    0  0.65808002914E+01  0.45306845989E+01 -0.81772581632E+01  0.11432479466E+02  0.51100000000E-03 0. -1.
        -11    1    4    4    0    0 -0.15980956705E+02  0.33711694964E+02  0.28035465489E+01  0.37412955350E+02  0.51100000000E-03 0.  1.
        -12    1    4    4    0    0  0.35020447797E+01 -0.19306860452E+01  0.38074568392E+01  0.55216477456E+01  0.00000000000E+00 0.  1.
</event>
<event>
 8    1  0.2553474E-006  0.9118800E+02  0.7816164E-02  0.1184000E+00
        -11   -1    0    0    0    0  0.00000000000E+00  0.00000000000E+00  0.45593999997E+02  0.45594000000E+02  0.51100000000E-03 0. -1.
         11   -1    0    0    0    0 -0.00000000000E+00 -0.00000000000E+00 -0.45593999997E+02  0.45594000000E+02  0.51100000000E-03 0.  1.
         23    2    1    2    0    0  0.35527136788E-14 -0.35527136788E-14  0.35527136788E-14  0.91188000000E+02  0.91188000000E+02 0.  0.
    9900012    2    3    3    0    0  0.28320131342E+02 -0.16029621825E+02  0.17227919481E+02  0.54367084412E+02  0.40000000533E+02 0.  0.
        -12    1    3    3    0    0 -0.28320131342E+02  0.16029621825E+02 -0.17227919481E+02  0.36820915588E+02  0.00000000000E+00 0.  1.
         11    1    4    4    0    0  0.10746772874E+02  0.33740239052E-01  0.14166212960E+02  0.17781334469E+02  0.51100000000E-03 0. -1.
        -11    1    4    4    0    0  0.21613303224E+02 -0.50287934062E+01 -0.44591112448E+01  0.22634206696E+02  0.51100000000E-03 0.  1.
         12    1    4    4    0    0 -0.40399447558E+01 -0.11034568658E+02  0.75208177659E+01  0.13951543247E+02  0.00000000000E+00 0. -1.
</event>
<event>
 8    1  0.2553474E-006  0.9118800E+02  0.7816164E-02  0.1184000E+00
        -11   -1    0    0    0    0  0.00000000000E+00  0.00000000000E+00  0.45593999997E+02  0.45594000000E+02  0.51100000000E-03 0. -1.
         11   -1    0    0    0    0 -0.00000000000E+00 -0.00000000000E+00 -0.45593999997E+02  0.45594000000E+02  0.51100000000E-03 0.  1.
         23    2    1    2    0    0  0.44408920985E-15  0.35527136788E-14  0.00000000000E+00  0.91188000000E+02  0.91188000000E+02 0.  0.
    9900012    2    3    3    0    0 -0.34544504886E+01  0.28540961161E+02 -0.23005654328E+02  0.54367084432E+02  0.40000000581E+02 0.  0.
         12    1    3    3    0    0  0.34544504886E+01 -0.28540961161E+02  0.23005654328E+02  0.36820915568E+02  0.00000000000E+00 0. -1.
         11    1    4    4    0    0 -0.97774969535E+01  0.57608705274E+01  0.13674492458E+01  0.11430529017E+02  0.51100000000E-03 0. -1.
        -11    1    4    4    0    0  0.48852796105E+01  0.84899794615E+01 -0.26651674630E+02  0.28394673250E+02  0.51100000000E-03 0.  1.
         12    1    4    4    0    0  0.14377668544E+01  0.14290111172E+02  0.22785710567E+01  0.14541882165E+02  0.00000000000E+00 0. -1.
</event>
<event>
 8    1  0.2553474E-006  0.9118800E+02  0.7816164E-02  0.1184000E+00
        -11   -1    0    0    0    0  0.00000000000E+00  0.00000000000E+00  0.45593999997E+02  0.45594000000E+02  0.51100000000E-03 0.  1.
         11   -1    0    0    0    0 -0.00000000000E+00 -0.00000000000E+00 -0.45593999997E+02  0.45594000000E+02  0.51100000000E-03 0. -1.
         23    2    1    2    0    0 -0.17763568394E-14 -0.35527136788E-14  0.35527136788E-14  0.91188000000E+02  0.91188000000E+02 0.  0.
    9900012    2    3    3    0    0 -0.43140114735E+01 -0.30416666035E+02  0.20297676449E+02  0.54367082889E+02  0.39999997061E+02 0.  0.
         12    1    3    3    0    0  0.43140114735E+01  0.30416666035E+02 -0.20297676449E+02  0.36820917111E+02  0.00000000000E+00 0. -1.
         11    1    4    4    0    0 -0.52805842608E+01  0.18514898079E+01 -0.46092286683E+01  0.72496602556E+01  0.51100000000E-03 0. -1.
        -11    1    4    4    0    0  0.83451711435E+01 -0.12107668626E+02  0.64240225357E+00  0.14719042152E+02  0.51100000000E-03 0.  1.
        -12    1    4    4    0    0 -0.73785983562E+01 -0.20160487217E+02  0.24264502864E+02  0.32398380481E+02  0.00000000000E+00 0.  1.
</event>
<event>
 8    1  0.2553474E-006  0.9118800E+02  0.7816164E-02  0.1184000E+00
        -11   -1    0    0    0    0  0.00000000000E+00  0.00000000000E+00  0.45593999997E+02  0.45594000000E+02  0.51100000000E-03 0. -1.
         11   -1    0    0    0    0 -0.00000000000E+00 -0.00000000000E+00 -0.45593999997E+02  0.45594000000E+02  0.51100000000E-03 0.  1.
         23    2    1    2    0    0  0.00000000000E+00  0.00000000000E+00 -0.35527136788E-14  0.91188000000E+02  0.91188000000E+02 0.  0.
    9900012    2    3    3    0    0  0.74927749797E+01  0.26528363822E+02 -0.24410738098E+02  0.54367083411E+02  0.39999998251E+02 0.  0.
         12    1    3    3    0    0 -0.74927749797E+01 -0.26528363822E+02  0.24410738098E+02  0.36820916589E+02  0.00000000000E+00 0. -1.
         11    1    4    4    0    0  0.76890093884E+00  0.24636119321E+01  0.20690147518E+01  0.33077809345E+01  0.51100000000E-03 0. -1.
        -11    1    4    4    0    0 -0.14682466508E+01  0.53458012193E+01 -0.29841035575E+02  0.30351618463E+02  0.51100000000E-03 0.  1.
         12    1    4    4    0    0  0.81921206917E+01  0.18718950671E+02  0.33612827245E+01  0.20707684013E+02  0.00000000000E+00 0. -1.
</event>
<event>
 8    1  0.2553474E-006  0.9118800E+02  0.7816164E-02  0.1184000E+00
        -11   -1    0    0    0    0  0.00000000000E+00  0.00000000000E+00  0.45593999997E+02  0.45594000000E+02  0.51100000000E-03 0.  1.
         11   -1    0    0    0    0 -0.00000000000E+00 -0.00000000000E+00 -0.45593999997E+02  0.45594000000E+02  0.51100000000E-03 0. -1.
         23    2    1    2    0    0 -0.62172489379E-14  0.00000000000E+00 -0.71054273576E-14  0.91188000000E+02  0.91188000000E+02 0.  0.
    9900012    2    3    3    0    0 -0.73216716482E+01  0.10420162921E+02 -0.34548426683E+02  0.54367075822E+02  0.39999980952E+02 0.  0.
        -12    1    3    3    0    0  0.73216716482E+01 -0.10420162921E+02  0.34548426683E+02  0.36820924178E+02  0.00000000000E+00 0.  1.
         11    1    4    4    0    0  0.89142191376E+01 -0.58387637492E+01 -0.20246831823E+02  0.22879874652E+02  0.51100000000E-03 0. -1.
        -11    1    4    4    0    0 -0.16566568133E+02  0.62369897721E+01 -0.67940522044E+01  0.18960758602E+02  0.51100000000E-03 0.  1.
         12    1    4    4    0    0  0.33067734761E+00  0.10021936898E+02 -0.75075426559E+01  0.12526442569E+02  0.00000000000E+00 0. -1.
</event>
<event>
 8    1  0.2553474E-006  0.9118800E+02  0.7816164E-02  0.1184000E+00
        -11   -1    0    0    0    0  0.00000000000E+00  0.00000000000E+00  0.45593999997E+02  0.45594000000E+02  0.51100000000E-03 0.  1.
         11   -1    0    0    0    0 -0.00000000000E+00 -0.00000000000E+00 -0.45593999997E+02  0.45594000000E+02  0.51100000000E-03 0. -1.
         23    2    1    2    0    0 -0.88817841970E-15  0.00000000000E+00  0.00000000000E+00  0.91188000000E+02  0.91188000000E+02 0.  0.
    9900012    2    3    3    0    0 -0.32452718322E+01  0.18215957307E+02 -0.31834367686E+02  0.54367083990E+02  0.39999999571E+02 0.  0.
        -12    1    3    3    0    0  0.32452718322E+01 -0.18215957307E+02  0.31834367686E+02  0.36820916010E+02  0.00000000000E+00 0.  1.
         11    1    4    4    0    0 -0.20076657058E+02  0.13076871880E+02 -0.15678347618E+02  0.28633674600E+02  0.51100000000E-03 0. -1.
        -11    1    4    4    0    0  0.14350929696E+02  0.52187530864E+00 -0.14032826812E+02  0.20078390513E+02  0.51100000000E-03 0.  1.
         12    1    4    4    0    0  0.24804555292E+01  0.46172101175E+01 -0.21231932558E+01  0.56550188773E+01  0.00000000000E+00 0. -1.
</event>
<event>
 8    1  0.2553474E-006  0.9118800E+02  0.7816164E-02  0.1184000E+00
        -11   -1    0    0    0    0  0.00000000000E+00  0.00000000000E+00  0.45593999997E+02  0.45594000000E+02  0.51100000000E-03 0. -1.
         11   -1    0    0    0    0 -0.00000000000E+00 -0.00000000000E+00 -0.45593999997E+02  0.45594000000E+02  0.51100000000E-03 0.  1.
         23    2    1    2    0    0 -0.35527136788E-14  0.00000000000E+00  0.00000000000E+00  0.91188000000E+02  0.91188000000E+02 0.  0.
    9900012    2    3    3    0    0  0.26381374334E+02 -0.12138659538E+02 -0.22637490343E+02  0.54367082899E+02  0.39999997085E+02 0.  0.
         12    1    3    3    0    0 -0.26381374334E+02  0.12138659538E+02  0.22637490343E+02  0.36820917101E+02  0.00000000000E+00 0. -1.
         11    1    4    4    0    0 -0.46588878147E+01 -0.78188112179E+01  0.45534873418E+01  0.10177096431E+02  0.51100000000E-03 0. -1.
        -11    1    4    4    0    0  0.24862895702E+02  0.30174993262E+01 -0.17489112785E+02  0.30547306774E+02  0.51100000000E-03 0.  1.
        -12    1    4    4    0    0  0.61773664470E+01 -0.73373476467E+01 -0.97018648998E+01  0.13642679694E+02  0.00000000000E+00 0.  1.
</event>
<event>
 8    1  0.2553474E-006  0.9118800E+02  0.7816164E-02  0.1184000E+00
        -11   -1    0    0    0    0  0.00000000000E+00  0.00000000000E+00  0.45593999997E+02  0.45594000000E+02  0.51100000000E-03 0.  1.
         11   -1    0    0    0    0 -0.00000000000E+00 -0.00000000000E+00 -0.45593999997E+02  0.45594000000E+02  0.51100000000E-03 0. -1.
         23    2    1    2    0    0  0.00000000000E+00  0.00000000000E+00  0.71054273576E-14  0.91188000000E+02  0.91188000000E+02 0.  0.
    9900012    2    3    3    0    0 -0.69479191956E+01 -0.77331529314E+01  0.35322865719E+02  0.54367080973E+02  0.39999992694E+02 0.  0.
         12    1    3    3    0    0  0.69479191956E+01  0.77331529314E+01 -0.35322865719E+02  0.36820919027E+02  0.00000000000E+00 0. -1.
         11    1    4    4    0    0  0.15899281903E+01 -0.59751462183E+01  0.10188700661E+01  0.62664455996E+01  0.51100000000E-03 0. -1.
        -11    1    4    4    0    0 -0.53426988764E+01 -0.23738138961E+01  0.40597180337E+02  0.41015978292E+02  0.51100000000E-03 0.  1.
        -12    1    4    4    0    0 -0.31951485096E+01  0.61580718298E+00 -0.62931846842E+01  0.70846570809E+01  0.00000000000E+00 0.  1.
</event>
<event>
 8    1  0.2553474E-006  0.9118800E+02  0.7816164E-02  0.1184000E+00
        -11   -1    0    0    0    0  0.00000000000E+00  0.00000000000E+00  0.45593999997E+02  0.45594000000E+02  0.51100000000E-03 0.  1.
         11   -1    0    0    0    0 -0.00000000000E+00 -0.00000000000E+00 -0.45593999997E+02  0.45594000000E+02  0.51100000000E-03 0. -1.
         23    2    1    2    0    0 -0.35527136788E-14  0.44408920985E-15  0.00000000000E+00  0.91188000000E+02  0.91188000000E+02 0.  0.
    9900012    2    3    3    0    0  0.19751381568E+02 -0.21884111760E+01  0.30998039278E+02  0.54367018802E+02  0.39999850963E+02 0.  0.
         12    1    3    3    0    0 -0.19751381568E+02  0.21884111760E+01 -0.30998039278E+02  0.36820981198E+02  0.00000000000E+00 0. -1.
         11    1    4    4    0    0 -0.82442195688E+00 -0.13279819308E+01  0.20637517085E+02  0.20696625795E+02  0.51100000000E-03 0. -1.
        -11    1    4    4    0    0 -0.10887826016E+01  0.73992908728E+00  0.11824455343E+02  0.11897507597E+02  0.51100000000E-03 0.  1.
         12    1    4    4    0    0  0.21664586126E+02 -0.16003583325E+01 -0.14639331504E+01  0.21772885410E+02  0.00000000000E+00 0. -1.
</event>
<event>
 8    1  0.2553474E-006  0.9118800E+02  0.7816164E-02  0.1184000E+00
        -11   -1    0    0    0    0  0.00000000000E+00  0.00000000000E+00  0.45593999997E+02  0.45594000000E+02  0.51100000000E-03 0. -1.
         11   -1    0    0    0    0 -0.00000000000E+00 -0.00000000000E+00 -0.45593999997E+02  0.45594000000E+02  0.51100000000E-03 0.  1.
         23    2    1    2    0    0  0.00000000000E+00  0.00000000000E+00  0.00000000000E+00  0.91188000000E+02  0.91188000000E+02 0.  0.
    9900012    2    3    3    0    0  0.28327888894E+02 -0.19755320570E+02  0.12768508058E+02  0.54367125784E+02  0.40000094850E+02 0.  0.
        -12    1    3    3    0    0 -0.28327888894E+02  0.19755320570E+02 -0.12768508058E+02  0.36820874216E+02  0.00000000000E+00 0.  1.
         11    1    4    4    0    0  0.12000325890E+02 -0.12173396887E+02 -0.30416479840E+01  0.17362345347E+02  0.51100000000E-03 0. -1.
        -11    1    4    4    0    0 -0.10965402489E+01  0.87127904145E+01  0.79682415929E+00  0.88175986712E+01  0.51100000000E-03 0.  1.
         12    1    4    4    0    0  0.17424103253E+02 -0.16294714097E+02  0.15013331882E+02  0.28187181766E+02  0.00000000000E+00 0. -1.
</event>
<event>
 8    1  0.2553474E-006  0.9118800E+02  0.7816164E-02  0.1184000E+00
        -11   -1    0    0    0    0  0.00000000000E+00  0.00000000000E+00  0.45593999997E+02  0.45594000000E+02  0.51100000000E-03 0. -1.
         11   -1    0    0    0    0 -0.00000000000E+00 -0.00000000000E+00 -0.45593999997E+02  0.45594000000E+02  0.51100000000E-03 0.  1.
         23    2    1    2    0    0  0.35527136788E-14  0.35527136788E-14  0.00000000000E+00  0.91188000000E+02  0.91188000000E+02 0.  0.
    9900012    2    3    3    0    0  0.22622906705E+02  0.20637540158E+02  0.20446877043E+02  0.54367098974E+02  0.40000033730E+02 0.  0.
        -12    1    3    3    0    0 -0.22622906705E+02 -0.20637540158E+02 -0.20446877043E+02  0.36820901026E+02  0.00000000000E+00 0.  1.
         11    1    4    4    0    0  0.32274138638E+02  0.15111299663E+02  0.19268059295E+02  0.40512090930E+02  0.51100000000E-03 0. -1.
        -11    1    4    4    0    0  0.81994182148E+00 -0.20644711250E+00 -0.14059945574E+01  0.16406541248E+01  0.51100000000E-03 0.  1.
         12    1    4    4    0    0 -0.10471173754E+02  0.57326876079E+01  0.25848123054E+01  0.12214353918E+02  0.00000000000E+00 0. -1.
</event>
<event>
 8    1  0.2553474E-006  0.9118800E+02  0.7816164E-02  0.1184000E+00
        -11   -1    0    0    0    0  0.00000000000E+00  0.00000000000E+00  0.45593999997E+02  0.45594000000E+02  0.51100000000E-03 0.  1.
         11   -1    0    0    0    0 -0.00000000000E+00 -0.00000000000E+00 -0.45593999997E+02  0.45594000000E+02  0.51100000000E-03 0. -1.
         23    2    1    2    0    0 -0.44408920985E-15  0.00000000000E+00 -0.35527136788E-14  0.91188000000E+02  0.91188000000E+02 0.  0.
    9900012    2    3    3    0    0  0.25885451942E+01  0.18859741523E+02 -0.31518113313E+02  0.54367056457E+02  0.39999936805E+02 0.  0.
        -12    1    3    3    0    0 -0.25885451942E+01 -0.18859741523E+02  0.31518113313E+02  0.36820943543E+02  0.00000000000E+00 0.  1.
         11    1    4    4    0    0 -0.42163202788E+01  0.30057920868E+01 -0.31301564140E+02  0.31726961100E+02  0.51100000000E-03 0. -1.
        -11    1    4    4    0    0 -0.17918171960E+01  0.45407788218E+01  0.54737096954E+01  0.73342197446E+01  0.51100000000E-03 0.  1.
         12    1    4    4    0    0  0.85966826690E+01  0.11313170615E+02 -0.56902588688E+01  0.15305875613E+02  0.00000000000E+00 0. -1.
</event>
<event>
 8    1  0.2553474E-006  0.9118800E+02  0.7816164E-02  0.1184000E+00
        -11   -1    0    0    0    0  0.00000000000E+00  0.00000000000E+00  0.45593999997E+02  0.45594000000E+02  0.51100000000E-03 0. -1.
         11   -1    0    0    0    0 -0.00000000000E+00 -0.00000000000E+00 -0.45593999997E+02  0.45594000000E+02  0.51100000000E-03 0.  1.
         23    2    1    2    0    0 -0.35527136788E-14  0.35527136788E-14 -0.35527136788E-14  0.91188000000E+02  0.91188000000E+02 0.  0.
    9900012    2    3    3    0    0  0.25520081771E+02 -0.93578702077E+01  0.24838164613E+02  0.54367099281E+02  0.40000034430E+02 0.  0.
        -12    1    3    3    0    0 -0.25520081771E+02  0.93578702077E+01 -0.24838164613E+02  0.36820900719E+02  0.00000000000E+00 0.  1.
         11    1    4    4    0    0  0.23839227723E+02  0.18880292744E+01  0.10939271402E+02  0.26297168898E+02  0.51100000000E-03 0. -1.
        -11    1    4    4    0    0  0.72744023725E+01  0.86122704797E+00  0.12723430015E+02  0.14681427502E+02  0.51100000000E-03 0.  1.
        -12    1    4    4    0    0 -0.55935483239E+01 -0.12107126530E+02  0.11754631965E+01  0.13388502881E+02  0.00000000000E+00 0.  1.
</event>
<event>
 8    1  0.2553474E-006  0.9118800E+02  0.7816164E-02  0.1184000E+00
        -11   -1    0    0    0    0  0.00000000000E+00  0.00000000000E+00  0.45593999997E+02  0.45594000000E+02  0.51100000000E-03 0. -1.
         11   -1    0    0    0    0 -0.00000000000E+00 -0.00000000000E+00 -0.45593999997E+02  0.45594000000E+02  0.51100000000E-03 0.  1.
         23    2    1    2    0    0  0.35527136788E-14 -0.88817841970E-15  0.00000000000E+00  0.91188000000E+02  0.91188000000E+02 0.  0.
    9900012    2    3    3    0    0 -0.23269661096E+02  0.42909324261E+01 -0.28211529518E+02  0.54367087106E+02  0.40000006676E+02 0.  0.
        -12    1    3    3    0    0  0.23269661096E+02 -0.42909324261E+01  0.28211529518E+02  0.36820912894E+02  0.00000000000E+00 0.  1.
         11    1    4    4    0    0  0.26673566945E+01 -0.16675857983E+01 -0.98736678349E+01  0.10362671031E+02  0.51100000000E-03 0.  1.
        -11    1    4    4    0    0 -0.20303947607E+02 -0.16688828568E+01  0.30588965169E+01  0.20600784126E+02  0.51100000000E-03 0. -1.
         12    1    4    4    0    0 -0.56330701830E+01  0.76274010812E+01 -0.21396758200E+02  0.23403631949E+02  0.00000000000E+00 0. -1.
</event>
<event>
 8    1  0.2553474E-006  0.9118800E+02  0.7816164E-02  0.1184000E+00
        -11   -1    0    0    0    0  0.00000000000E+00  0.00000000000E+00  0.45593999997E+02  0.45594000000E+02  0.51100000000E-03 0. -1.
         11   -1    0    0    0    0 -0.00000000000E+00 -0.00000000000E+00 -0.45593999997E+02  0.45594000000E+02  0.51100000000E-03 0.  1.
         23    2    1    2    0    0 -0.17763568394E-14  0.35527136788E-14  0.35527136788E-14  0.91188000000E+02  0.91188000000E+02 0.  0.
    9900012    2    3    3    0    0  0.12573579966E+02  0.19809971020E+02  0.28376880187E+02  0.54367120134E+02  0.40000081969E+02 0.  0.
        -12    1    3    3    0    0 -0.12573579966E+02 -0.19809971020E+02 -0.28376880187E+02  0.36820879866E+02  0.00000000000E+00 0.  1.
         11    1    4    4    0    0  0.25759823886E+01 -0.72475098496E+01  0.19848284014E+02  0.21286532428E+02  0.51100000000E-03 0. -1.
        -11    1    4    4    0    0  0.11067469207E+01  0.60692243489E+01  0.82291309938E+01  0.10284890379E+02  0.51100000000E-03 0.  1.
        -12    1    4    4    0    0  0.88908506566E+01  0.20988256521E+02  0.29946517966E+00  0.22795697326E+02  0.00000000000E+00 0.  1.
</event>
<event>
 8    1  0.2553474E-006  0.9118800E+02  0.7816164E-02  0.1184000E+00
        -11   -1    0    0    0    0  0.00000000000E+00  0.00000000000E+00  0.45593999997E+02  0.45594000000E+02  0.51100000000E-03 0. -1.
         11   -1    0    0    0    0 -0.00000000000E+00 -0.00000000000E+00 -0.45593999997E+02  0.45594000000E+02  0.51100000000E-03 0.  1.
         23    2    1    2    0    0  0.17763568394E-14 -0.44408920985E-15  0.00000000000E+00  0.91188000000E+02  0.91188000000E+02 0.  0.
    9900012    2    3    3    0    0  0.14529924701E+02 -0.33201497501E+01  0.33669443228E+02  0.54367170114E+02  0.40000195909E+02 0.  0.
        -12    1    3    3    0    0 -0.14529924701E+02  0.33201497501E+01 -0.33669443228E+02  0.36820829886E+02  0.00000000000E+00 0.  1.
         11    1    4    4    0    0  0.41704897969E+01  0.54729552029E+01  0.14473595636E+02  0.16025953784E+02  0.51100000000E-03 0. -1.
        -11    1    4    4    0    0 -0.10332523911E+02 -0.63775601839E+01  0.49978834443E+01  0.13130619310E+02  0.51100000000E-03 0.  1.
        -12    1    4    4    0    0  0.20691958816E+02 -0.24155447690E+01  0.14197964148E+02  0.25210597020E+02  0.00000000000E+00 0.  1.
</event>
<event>
 8    1  0.2553474E-006  0.9118800E+02  0.7816164E-02  0.1184000E+00
        -11   -1    0    0    0    0  0.00000000000E+00  0.00000000000E+00  0.45593999997E+02  0.45594000000E+02  0.51100000000E-03 0. -1.
         11   -1    0    0    0    0 -0.00000000000E+00 -0.00000000000E+00 -0.45593999997E+02  0.45594000000E+02  0.51100000000E-03 0.  1.
         23    2    1    2    0    0  0.11657341759E-14 -0.71054273576E-14 -0.17763568394E-14  0.91188000000E+02  0.91188000000E+02 0.  0.
    9900012    2    3    3    0    0 -0.27114170086E+00  0.34213679409E+02  0.13606584204E+02  0.54366966470E+02  0.39999731660E+02 0.  0.
        -12    1    3    3    0    0  0.27114170086E+00 -0.34213679409E+02 -0.13606584204E+02  0.36821033530E+02  0.00000000000E+00 0.  1.
         11    1    4    4    0    0 -0.72725606912E+01  0.69310242116E+01  0.93634553416E+01  0.13733300107E+02  0.51100000000E-03 0. -1.
        -11    1    4    4    0    0  0.58872105296E+00  0.10428973733E+02 -0.12317691494E+02  0.16150405865E+02  0.51100000000E-03 0.  1.
         12    1    4    4    0    0  0.64126979374E+01  0.16853681465E+02  0.16560820356E+02  0.24483260498E+02  0.00000000000E+00 0. -1.
</event>
<event>
 8    1  0.2553474E-006  0.9118800E+02  0.7816164E-02  0.1184000E+00
        -11   -1    0    0    0    0  0.00000000000E+00  0.00000000000E+00  0.45593999997E+02  0.45594000000E+02  0.51100000000E-03 0.  1.
         11   -1    0    0    0    0 -0.00000000000E+00 -0.00000000000E+00 -0.45593999997E+02  0.45594000000E+02  0.51100000000E-03 0. -1.
         23    2    1    2    0    0  0.00000000000E+00 -0.71054273576E-14  0.66613381478E-15  0.91188000000E+02  0.91188000000E+02 0.  0.
    9900012    2    3    3    0    0 -0.85632547178E+01 -0.35783618101E+02 -0.14080165608E+01  0.54367093351E+02  0.40000020913E+02 0.  0.
         12    1    3    3    0    0  0.85632547178E+01  0.35783618101E+02  0.14080165608E+01  0.36820906649E+02  0.00000000000E+00 0. -1.
         11    1    4    4    0    0 -0.10967814838E+02 -0.68613338257E+01 -0.22733328137E+01  0.13135406599E+02  0.51100000000E-03 0. -1.
        -11    1    4    4    0    0  0.39652257153E+01  0.30897343659E+01  0.69818296286E+01  0.86032214112E+01  0.51100000000E-03 0.  1.
        -12    1    4    4    0    0 -0.15606655951E+01 -0.32012018642E+02 -0.61165133758E+01  0.32628465341E+02  0.00000000000E+00 0.  1.
</event>
<event>
 8    1  0.2553474E-006  0.9118800E+02  0.7816164E-02  0.1184000E+00
        -11   -1    0    0    0    0  0.00000000000E+00  0.00000000000E+00  0.45593999997E+02  0.45594000000E+02  0.51100000000E-03 0.  1.
         11   -1    0    0    0    0 -0.00000000000E+00 -0.00000000000E+00 -0.45593999997E+02  0.45594000000E+02  0.51100000000E-03 0. -1.
         23    2    1    2    0    0 -0.17763568394E-14  0.00000000000E+00  0.00000000000E+00  0.91188000000E+02  0.91188000000E+02 0.  0.
    9900012    2    3    3    0    0 -0.14972377072E+02 -0.52833578499E+01  0.33221895040E+02  0.54367078564E+02  0.39999987203E+02 0.  0.
         12    1    3    3    0    0  0.14972377072E+02  0.52833578499E+01 -0.33221895040E+02  0.36820921436E+02  0.00000000000E+00 0. -1.
         11    1    4    4    0    0  0.50474489613E+01  0.84057353259E+01  0.18600990707E+02  0.21026887143E+02  0.51100000000E-03 0. -1.
        -11    1    4    4    0    0 -0.81149439980E+01 -0.62675581991E+01  0.16252789468E+02  0.19216861545E+02  0.51100000000E-03 0.  1.
         12    1    4    4    0    0 -0.11904882035E+02 -0.74215349768E+01 -0.16318851361E+01  0.14123329876E+02  0.00000000000E+00 0. -1.
</event>
<event>
 8    1  0.2553474E-006  0.9118800E+02  0.7816164E-02  0.1184000E+00
        -11   -1    0    0    0    0  0.00000000000E+00  0.00000000000E+00  0.45593999997E+02  0.45594000000E+02  0.51100000000E-03 0. -1.
         11   -1    0    0    0    0 -0.00000000000E+00 -0.00000000000E+00 -0.45593999997E+02  0.45594000000E+02  0.51100000000E-03 0.  1.
         23    2    1    2    0    0  0.00000000000E+00 -0.35527136788E-14  0.00000000000E+00  0.91188000000E+02  0.91188000000E+02 0.  0.
    9900012    2    3    3    0    0  0.90365155956E+01 -0.24865726654E+02 -0.25608934950E+02  0.54367074898E+02  0.39999978844E+02 0.  0.
         12    1    3    3    0    0 -0.90365155956E+01  0.24865726654E+02  0.25608934950E+02  0.36820925102E+02  0.00000000000E+00 0. -1.
         11    1    4    4    0    0 -0.94466043772E+00 -0.38309457398E+01  0.32739436399E+01  0.51271079394E+01  0.51100000000E-03 0.  1.
        -11    1    4    4    0    0  0.16336126667E+02 -0.18664312221E+02 -0.62030305020E+01  0.25567619617E+02  0.51100000000E-03 0. -1.
        -12    1    4    4    0    0 -0.63549506342E+01 -0.23704686930E+01 -0.22679848088E+02  0.23672347342E+02  0.00000000000E+00 0.  1.
</event>
<event>
 8    1  0.2553474E-006  0.9118800E+02  0.7816164E-02  0.1184000E+00
        -11   -1    0    0    0    0  0.00000000000E+00  0.00000000000E+00  0.45593999997E+02  0.45594000000E+02  0.51100000000E-03 0. -1.
         11   -1    0    0    0    0 -0.00000000000E+00 -0.00000000000E+00 -0.45593999997E+02  0.45594000000E+02  0.51100000000E-03 0.  1.
         23    2    1    2    0    0 -0.88817841970E-15  0.00000000000E+00  0.88817841970E-15  0.91188000000E+02  0.91188000000E+02 0.  0.
    9900012    2    3    3    0    0 -0.51356557506E+01  0.36186004251E+02  0.44694837612E+01  0.54367107171E+02  0.40000052417E+02 0.  0.
        -12    1    3    3    0    0  0.51356557506E+01 -0.36186004251E+02 -0.44694837612E+01  0.36820892829E+02  0.00000000000E+00 0.  1.
         11    1    4    4    0    0  0.53352537842E+01  0.81536226667E+01  0.15418874064E+02  0.18239741588E+02  0.51100000000E-03 0. -1.
        -11    1    4    4    0    0 -0.19406955382E+01  0.22075294020E+02 -0.12752661792E+02  0.25567856544E+02  0.51100000000E-03 0.  1.
        -12    1    4    4    0    0 -0.85302139967E+01  0.59570875645E+01  0.18032714890E+01  0.10559509039E+02  0.00000000000E+00 0.  1.
</event>
<event>
 8    1  0.2553474E-006  0.9118800E+02  0.7816164E-02  0.1184000E+00
        -11   -1    0    0    0    0  0.00000000000E+00  0.00000000000E+00  0.45593999997E+02  0.45594000000E+02  0.51100000000E-03 0. -1.
         11   -1    0    0    0    0 -0.00000000000E+00 -0.00000000000E+00 -0.45593999997E+02  0.45594000000E+02  0.51100000000E-03 0.  1.
         23    2    1    2    0    0  0.00000000000E+00  0.00000000000E+00  0.00000000000E+00  0.91188000000E+02  0.91188000000E+02 0.  0.
    9900012    2    3    3    0    0 -0.32891349804E+02  0.15813078660E+02  0.48868682156E+01  0.54367138663E+02  0.40000124210E+02 0.  0.
        -12    1    3    3    0    0  0.32891349804E+02 -0.15813078660E+02 -0.48868682156E+01  0.36820861337E+02  0.00000000000E+00 0.  1.
         11    1    4    4    0    0 -0.29156661251E+02  0.10087970719E+02  0.91389030759E+01  0.32177594662E+02  0.51100000000E-03 0. -1.
        -11    1    4    4    0    0 -0.46458183691E+01  0.13039197650E+02 -0.34273820331E+00  0.13846363183E+02  0.51100000000E-03 0.  1.
        -12    1    4    4    0    0  0.91112981681E+00 -0.73140897084E+01 -0.39092966570E+01  0.83431808178E+01  0.00000000000E+00 0.  1.
</event>
<event>
 8    1  0.2553474E-006  0.9118800E+02  0.7816164E-02  0.1184000E+00
        -11   -1    0    0    0    0  0.00000000000E+00  0.00000000000E+00  0.45593999997E+02  0.45594000000E+02  0.51100000000E-03 0.  1.
         11   -1    0    0    0    0 -0.00000000000E+00 -0.00000000000E+00 -0.45593999997E+02  0.45594000000E+02  0.51100000000E-03 0. -1.
         23    2    1    2    0    0  0.71054273576E-14 -0.17763568394E-14 -0.22204460493E-15  0.91188000000E+02  0.91188000000E+02 0.  0.
    9900012    2    3    3    0    0  0.35916662855E+02 -0.79126180581E+01 -0.17784784862E+01  0.54367093155E+02  0.40000020464E+02 0.  0.
        -12    1    3    3    0    0 -0.35916662855E+02  0.79126180581E+01  0.17784784862E+01  0.36820906845E+02  0.00000000000E+00 0.  1.
         11    1    4    4    0    0  0.51938124811E+01  0.38752065907E+00 -0.43052577028E+01  0.67573000895E+01  0.51100000000E-03 0. -1.
        -11    1    4    4    0    0  0.15620835423E+02  0.10771371723E+02 -0.86320778639E+01  0.20845760159E+02  0.51100000000E-03 0.  1.
        -12    1    4    4    0    0  0.15102014951E+02 -0.19071510440E+02  0.11158857081E+02  0.26764032906E+02  0.00000000000E+00 0.  1.
</event>
<event>
 8    1  0.2553474E-006  0.9118800E+02  0.7816164E-02  0.1184000E+00
        -11   -1    0    0    0    0  0.00000000000E+00  0.00000000000E+00  0.45593999997E+02  0.45594000000E+02  0.51100000000E-03 0.  1.
         11   -1    0    0    0    0 -0.00000000000E+00 -0.00000000000E+00 -0.45593999997E+02  0.45594000000E+02  0.51100000000E-03 0. -1.
         23    2    1    2    0    0  0.00000000000E+00  0.88817841970E-15 -0.88817841970E-15  0.91188000000E+02  0.91188000000E+02 0.  0.
    9900012    2    3    3    0    0  0.36432518209E+02 -0.21328935000E+01 -0.48890765326E+01  0.54367072702E+02  0.39999973838E+02 0.  0.
        -12    1    3    3    0    0 -0.36432518209E+02  0.21328935000E+01  0.48890765326E+01  0.36820927298E+02  0.00000000000E+00 0.  1.
         11    1    4    4    0    0  0.16567127332E+02 -0.11458271555E+02  0.65492521803E+01  0.21181463581E+02  0.51100000000E-03 0. -1.
        -11    1    4    4    0    0 -0.67416712809E+00 -0.34773786104E+01 -0.79877552410E+01  0.87379000548E+01  0.51100000000E-03 0.  1.
         12    1    4    4    0    0  0.20539558005E+02  0.12802756665E+02 -0.34505734719E+01  0.24447709066E+02  0.00000000000E+00 0. -1.
</event>
<event>
 8    1  0.2553474E-006  0.9118800E+02  0.7816164E-02  0.1184000E+00
        -11   -1    0    0    0    0  0.00000000000E+00  0.00000000000E+00  0.45593999997E+02  0.45594000000E+02  0.51100000000E-03 0. -1.
         11   -1    0    0    0    0 -0.00000000000E+00 -0.00000000000E+00 -0.45593999997E+02  0.45594000000E+02  0.51100000000E-03 0.  1.
         23    2    1    2    0    0 -0.35527136788E-14  0.00000000000E+00 -0.17763568394E-14  0.91188000000E+02  0.91188000000E+02 0.  0.
    9900012    2    3    3    0    0 -0.18587646594E+02 -0.30268847688E+02  0.96995173422E+01  0.54367022515E+02  0.39999859427E+02 0.  0.
        -12    1    3    3    0    0  0.18587646594E+02  0.30268847688E+02 -0.96995173422E+01  0.36820977485E+02  0.00000000000E+00 0.  1.
         11    1    4    4    0    0 -0.83199256499E+01 -0.24857840480E+02 -0.10768804609E+02  0.28339028726E+02  0.51100000000E-03 0. -1.
        -11    1    4    4    0    0 -0.96862610835E+01  0.79191965988E+00  0.10828469549E+02  0.14550138953E+02  0.51100000000E-03 0.  1.
         12    1    4    4    0    0 -0.58145986078E+00 -0.62029268677E+01  0.96398524018E+01  0.11477854836E+02  0.00000000000E+00 0. -1.
</event>
<event>
 8    1  0.2553474E-006  0.9118800E+02  0.7816164E-02  0.1184000E+00
        -11   -1    0    0    0    0  0.00000000000E+00  0.00000000000E+00  0.45593999997E+02  0.45594000000E+02  0.51100000000E-03 0. -1.
         11   -1    0    0    0    0 -0.00000000000E+00 -0.00000000000E+00 -0.45593999997E+02  0.45594000000E+02  0.51100000000E-03 0.  1.
         23    2    1    2    0    0  0.35527136788E-14 -0.35527136788E-14 -0.35527136788E-14  0.91188000000E+02  0.91188000000E+02 0.  0.
    9900012    2    3    3    0    0  0.18790573623E+02 -0.22019694191E+02 -0.22755809380E+02  0.54367089502E+02  0.40000012138E+02 0.  0.
         12    1    3    3    0    0 -0.18790573623E+02  0.22019694191E+02  0.22755809380E+02  0.36820910498E+02  0.00000000000E+00 0. -1.
         11    1    4    4    0    0 -0.15893271235E+01 -0.94438209874E+01  0.65810063379E+01  0.11619869200E+02  0.51100000000E-03 0. -1.
        -11    1    4    4    0    0  0.18158988826E+02 -0.14876691505E+02 -0.14549278854E+02  0.27617862711E+02  0.51100000000E-03 0.  1.
         12    1    4    4    0    0  0.22209119208E+01  0.23008183010E+01 -0.14787536864E+02  0.15129357591E+02  0.00000000000E+00 0. -1.
</event>
<event>
 8    1  0.2553474E-006  0.9118800E+02  0.7816164E-02  0.1184000E+00
        -11   -1    0    0    0    0  0.00000000000E+00  0.00000000000E+00  0.45593999997E+02  0.45594000000E+02  0.51100000000E-03 0. -1.
         11   -1    0    0    0    0 -0.00000000000E+00 -0.00000000000E+00 -0.45593999997E+02  0.45594000000E+02  0.51100000000E-03 0.  1.
         23    2    1    2    0    0  0.35527136788E-14  0.00000000000E+00  0.35527136788E-14  0.91188000000E+02  0.91188000000E+02 0.  0.
    9900012    2    3    3    0    0 -0.21031864535E+02 -0.19371854607E+01 -0.30160784136E+02  0.54367286902E+02  0.40000462148E+02 0.  0.
         12    1    3    3    0    0  0.21031864535E+02  0.19371854607E+01  0.30160784136E+02  0.36820713098E+02  0.00000000000E+00 0. -1.
         11    1    4    4    0    0  0.17310369521E+01 -0.40192757393E+01 -0.15425919233E+02  0.16034651566E+02  0.51100000000E-03 0. -1.
        -11    1    4    4    0    0 -0.17389414097E+02 -0.60091808062E+01 -0.20089571386E+02  0.27241381304E+02  0.51100000000E-03 0.  1.
         12    1    4    4    0    0 -0.53734873902E+01  0.80912710848E+01  0.53547064829E+01  0.11091254033E+02  0.00000000000E+00 0. -1.
</event>
<event>
 8    1  0.2553474E-006  0.9118800E+02  0.7816164E-02  0.1184000E+00
        -11   -1    0    0    0    0  0.00000000000E+00  0.00000000000E+00  0.45593999997E+02  0.45594000000E+02  0.51100000000E-03 0.  1.
         11   -1    0    0    0    0 -0.00000000000E+00 -0.00000000000E+00 -0.45593999997E+02  0.45594000000E+02  0.51100000000E-03 0. -1.
         23    2    1    2    0    0  0.17763568394E-14  0.00000000000E+00 -0.35527136788E-14  0.91188000000E+02  0.91188000000E+02 0.  0.
    9900012    2    3    3    0    0 -0.13986317423E+02  0.15615658281E+02 -0.30270667535E+02  0.54367093281E+02  0.40000020752E+02 0.  0.
        -12    1    3    3    0    0  0.13986317423E+02 -0.15615658281E+02  0.30270667535E+02  0.36820906719E+02  0.00000000000E+00 0.  1.
         11    1    4    4    0    0  0.52965042191E+01  0.18096935954E+02 -0.55028102872E+01  0.19642631422E+02  0.51100000000E-03 0. -1.
        -11    1    4    4    0    0 -0.41348096887E+01 -0.49772017486E+01 -0.15488327705E+02  0.16785633255E+02  0.51100000000E-03 0.  1.
         12    1    4    4    0    0 -0.15148011953E+02  0.24959240756E+01 -0.92795295434E+01  0.17938828604E+02  0.00000000000E+00 0. -1.
</event>
<event>
 8    1  0.2553474E-006  0.9118800E+02  0.7816164E-02  0.1184000E+00
        -11   -1    0    0    0    0  0.00000000000E+00  0.00000000000E+00  0.45593999997E+02  0.45594000000E+02  0.51100000000E-03 0. -1.
         11   -1    0    0    0    0 -0.00000000000E+00 -0.00000000000E+00 -0.45593999997E+02  0.45594000000E+02  0.51100000000E-03 0.  1.
         23    2    1    2    0    0 -0.11102230246E-15  0.00000000000E+00  0.00000000000E+00  0.91188000000E+02  0.91188000000E+02 0.  0.
    9900012    2    3    3    0    0 -0.33273649311E+00  0.23970883202E+02  0.27947556683E+02  0.54367083667E+02  0.39999998835E+02 0.  0.
        -12    1    3    3    0    0  0.33273649311E+00 -0.23970883202E+02 -0.27947556683E+02  0.36820916333E+02  0.00000000000E+00 0.  1.
         11    1    4    4    0    0  0.61125132094E+01  0.96240130439E+01  0.49753809890E+01  0.12439407584E+02  0.51100000000E-03 0. -1.
        -11    1    4    4    0    0 -0.79916217460E+01  0.22946727375E+02  0.99747829165E+01  0.26266225649E+02  0.51100000000E-03 0.  1.
         12    1    4    4    0    0  0.15463720435E+01 -0.85998572174E+01  0.12997392777E+02  0.15661450433E+02  0.00000000000E+00 0. -1.
</event>
<event>
 8    1  0.2553474E-006  0.9118800E+02  0.7816164E-02  0.1184000E+00
        -11   -1    0    0    0    0  0.00000000000E+00  0.00000000000E+00  0.45593999997E+02  0.45594000000E+02  0.51100000000E-03 0. -1.
         11   -1    0    0    0    0 -0.00000000000E+00 -0.00000000000E+00 -0.45593999997E+02  0.45594000000E+02  0.51100000000E-03 0.  1.
         23    2    1    2    0    0  0.00000000000E+00  0.71054273576E-14  0.17763568394E-14  0.91188000000E+02  0.91188000000E+02 0.  0.
    9900012    2    3    3    0    0  0.11774180710E+02 -0.32013778181E+02 -0.13866142955E+02  0.54367037964E+02  0.39999894646E+02 0.  0.
         12    1    3    3    0    0 -0.11774180710E+02  0.32013778181E+02  0.13866142955E+02  0.36820962036E+02  0.00000000000E+00 0. -1.
         11    1    4    4    0    0  0.60573138830E+00 -0.10908435287E+02  0.19281890659E+01  0.11094087806E+02  0.51100000000E-03 0. -1.
        -11    1    4    4    0    0 -0.12629374278E+01  0.55516296854E+01 -0.12425129366E+02  0.13667459279E+02  0.51100000000E-03 0.  1.
         12    1    4    4    0    0  0.12431386749E+02 -0.26656972580E+02 -0.33692026541E+01  0.29605490879E+02  0.00000000000E+00 0. -1.
</event>
<event>
 8    1  0.2553474E-006  0.9118800E+02  0.7816164E-02  0.1184000E+00
        -11   -1    0    0    0    0  0.00000000000E+00  0.00000000000E+00  0.45593999997E+02  0.45594000000E+02  0.51100000000E-03 0. -1.
         11   -1    0    0    0    0 -0.00000000000E+00 -0.00000000000E+00 -0.45593999997E+02  0.45594000000E+02  0.51100000000E-03 0.  1.
         23    2    1    2    0    0  0.00000000000E+00  0.35527136788E-14  0.35527136788E-14  0.91188000000E+02  0.91188000000E+02 0.  0.
    9900012    2    3    3    0    0 -0.23226707686E+01  0.27109802104E+02 -0.24808139725E+02  0.54367082490E+02  0.39999996153E+02 0.  0.
        -12    1    3    3    0    0  0.23226707686E+01 -0.27109802104E+02  0.24808139725E+02  0.36820917510E+02  0.00000000000E+00 0.  1.
         11    1    4    4    0    0 -0.78366503894E+01  0.58068668196E+00 -0.72074765100E+01  0.10662926627E+02  0.51100000000E-03 0. -1.
        -11    1    4    4    0    0  0.79894153462E+00 -0.55453652199E+01 -0.82333359827E+01  0.99587752592E+01  0.51100000000E-03 0.  1.
         12    1    4    4    0    0  0.47150380861E+01  0.32074480642E+02 -0.93673272328E+01  0.33745380604E+02  0.00000000000E+00 0. -1.
</event>
<event>
 8    1  0.2553474E-006  0.9118800E+02  0.7816164E-02  0.1184000E+00
        -11   -1    0    0    0    0  0.00000000000E+00  0.00000000000E+00  0.45593999997E+02  0.45594000000E+02  0.51100000000E-03 0. -1.
         11   -1    0    0    0    0 -0.00000000000E+00 -0.00000000000E+00 -0.45593999997E+02  0.45594000000E+02  0.51100000000E-03 0.  1.
         23    2    1    2    0    0  0.35527136788E-14 -0.35527136788E-14  0.00000000000E+00  0.91188000000E+02  0.91188000000E+02 0.  0.
    9900012    2    3    3    0    0 -0.18636816563E+02  0.31180607044E+02 -0.60182395461E+01  0.54367076675E+02  0.39999982897E+02 0.  0.
        -12    1    3    3    0    0  0.18636816563E+02 -0.31180607044E+02  0.60182395461E+01  0.36820923325E+02  0.00000000000E+00 0.  1.
         11    1    4    4    0    0  0.33382969098E+01  0.11013679040E+02 -0.34274729828E+01  0.12008035791E+02  0.51100000000E-03 0. -1.
        -11    1    4    4    0    0 -0.20750642486E+02  0.25743083128E+02 -0.85024720089E+01  0.34140701853E+02  0.51100000000E-03 0.  1.
        -12    1    4    4    0    0 -0.12244709869E+01 -0.55761551233E+01  0.59117054455E+01  0.82183390312E+01  0.00000000000E+00 0.  1.
</event>
<event>
 8    1  0.2553474E-006  0.9118800E+02  0.7816164E-02  0.1184000E+00
        -11   -1    0    0    0    0  0.00000000000E+00  0.00000000000E+00  0.45593999997E+02  0.45594000000E+02  0.51100000000E-03 0. -1.
         11   -1    0    0    0    0 -0.00000000000E+00 -0.00000000000E+00 -0.45593999997E+02  0.45594000000E+02  0.51100000000E-03 0.  1.
         23    2    1    2    0    0  0.00000000000E+00 -0.71054273576E-14  0.00000000000E+00  0.91188000000E+02  0.91188000000E+02 0.  0.
    9900012    2    3    3    0    0  0.66249485241E+01 -0.32059144289E+02 -0.16855273185E+02  0.54367096839E+02  0.40000028863E+02 0.  0.
         12    1    3    3    0    0 -0.66249485241E+01  0.32059144289E+02  0.16855273185E+02  0.36820903161E+02  0.00000000000E+00 0. -1.
         11    1    4    4    0    0 -0.57634176622E+01 -0.16556178787E+02 -0.10034488228E+02  0.20199381017E+02  0.51100000000E-03 0. -1.
        -11    1    4    4    0    0  0.38077102307E+01  0.58503204034E+01  0.47168779010E+01  0.84245975226E+01  0.51100000000E-03 0.  1.
        -12    1    4    4    0    0  0.85806559556E+01 -0.21353285905E+02 -0.11537662858E+02  0.25743118299E+02  0.00000000000E+00 0.  1.
</event>
<event>
 8    1  0.2553474E-006  0.9118800E+02  0.7816164E-02  0.1184000E+00
        -11   -1    0    0    0    0  0.00000000000E+00  0.00000000000E+00  0.45593999997E+02  0.45594000000E+02  0.51100000000E-03 0. -1.
         11   -1    0    0    0    0 -0.00000000000E+00 -0.00000000000E+00 -0.45593999997E+02  0.45594000000E+02  0.51100000000E-03 0.  1.
         23    2    1    2    0    0 -0.35527136788E-14  0.00000000000E+00 -0.35527136788E-14  0.91188000000E+02  0.91188000000E+02 0.  0.
    9900012    2    3    3    0    0  0.25590278513E+02  0.18399410629E+02  0.19036209135E+02  0.54367110221E+02  0.40000059371E+02 0.  0.
        -12    1    3    3    0    0 -0.25590278513E+02 -0.18399410629E+02 -0.19036209135E+02  0.36820889779E+02  0.00000000000E+00 0.  1.
         11    1    4    4    0    0  0.15438011595E+02  0.10798852013E+02  0.49063843186E+01  0.19468436356E+02  0.51100000000E-03 0. -1.
        -11    1    4    4    0    0 -0.62543147243E+01  0.12895418080E+02  0.39041021217E+01  0.14854301524E+02  0.51100000000E-03 0.  1.
        -12    1    4    4    0    0  0.16406581642E+02 -0.52948594637E+01  0.10225722695E+02  0.20044372341E+02  0.00000000000E+00 0.  1.
</event>
<event>
 8    1  0.2553474E-006  0.9118800E+02  0.7816164E-02  0.1184000E+00
        -11   -1    0    0    0    0  0.00000000000E+00  0.00000000000E+00  0.45593999997E+02  0.45594000000E+02  0.51100000000E-03 0. -1.
         11   -1    0    0    0    0 -0.00000000000E+00 -0.00000000000E+00 -0.45593999997E+02  0.45594000000E+02  0.51100000000E-03 0.  1.
         23    2    1    2    0    0  0.00000000000E+00  0.88817841970E-15  0.00000000000E+00  0.91188000000E+02  0.91188000000E+02 0.  0.
    9900012    2    3    3    0    0  0.27223002322E+02 -0.60560207894E+01  0.24041860605E+02  0.54367105055E+02  0.40000047593E+02 0.  0.
        -12    1    3    3    0    0 -0.27223002322E+02  0.60560207894E+01 -0.24041860605E+02  0.36820894945E+02  0.00000000000E+00 0.  1.
         11    1    4    4    0    0  0.19777812078E+02  0.70800975698E+01  0.22532177028E+02  0.30805659124E+02  0.51100000000E-03 0. -1.
        -11    1    4    4    0    0  0.50326131751E+01  0.38622703649E+01  0.47168710274E+00  0.63613533722E+01  0.51100000000E-03 0.  1.
        -12    1    4    4    0    0  0.24125770683E+01 -0.16998388724E+02  0.10379964749E+01  0.17200092558E+02  0.00000000000E+00 0.  1.
</event>
<event>
 8    1  0.2553474E-006  0.9118800E+02  0.7816164E-02  0.1184000E+00
        -11   -1    0    0    0    0  0.00000000000E+00  0.00000000000E+00  0.45593999997E+02  0.45594000000E+02  0.51100000000E-03 0. -1.
         11   -1    0    0    0    0 -0.00000000000E+00 -0.00000000000E+00 -0.45593999997E+02  0.45594000000E+02  0.51100000000E-03 0.  1.
         23    2    1    2    0    0  0.88817841970E-15 -0.35527136788E-14 -0.35527136788E-14  0.91188000000E+02  0.91188000000E+02 0.  0.
    9900012    2    3    3    0    0 -0.58696451182E+01 -0.24922568183E+02 -0.26461134653E+02  0.54367098521E+02  0.40000032697E+02 0.  0.
         12    1    3    3    0    0  0.58696451182E+01  0.24922568183E+02  0.26461134653E+02  0.36820901479E+02  0.00000000000E+00 0. -1.
         11    1    4    4    0    0 -0.14510991055E+01 -0.16695221917E+01  0.38118867304E+01  0.44072070146E+01  0.51100000000E-03 0. -1.
        -11    1    4    4    0    0 -0.13849650469E+02 -0.25390617497E+02 -0.17035601645E+02  0.33566471347E+02  0.51100000000E-03 0.  1.
        -12    1    4    4    0    0  0.94311044562E+01  0.21375715055E+01 -0.13237419738E+02  0.16393420159E+02  0.00000000000E+00 0.  1.
</event>
<event>
 8    1  0.2553474E-006  0.9118800E+02  0.7816164E-02  0.1184000E+00
        -11   -1    0    0    0    0  0.00000000000E+00  0.00000000000E+00  0.45593999997E+02  0.45594000000E+02  0.51100000000E-03 0.  1.
         11   -1    0    0    0    0 -0.00000000000E+00 -0.00000000000E+00 -0.45593999997E+02  0.45594000000E+02  0.51100000000E-03 0. -1.
         23    2    1    2    0    0 -0.13322676296E-14  0.17763568394E-14  0.00000000000E+00  0.91188000000E+02  0.91188000000E+02 0.  0.
    9900012    2    3    3    0    0 -0.18368895623E+01 -0.14883841044E+02 -0.33628514730E+02  0.54367083519E+02  0.39999998499E+02 0.  0.
        -12    1    3    3    0    0  0.18368895623E+01  0.14883841044E+02  0.33628514730E+02  0.36820916481E+02  0.00000000000E+00 0.  1.
         11    1    4    4    0    0  0.15409314920E+01 -0.87833483923E+01 -0.12133767841E+01  0.89996645673E+01  0.51100000000E-03 0. -1.
        -11    1    4    4    0    0  0.11444565686E+02 -0.11250798169E+02 -0.16475204213E+02  0.22999802114E+02  0.51100000000E-03 0.  1.
        -12    1    4    4    0    0 -0.14822386740E+02  0.51503055168E+01 -0.15939933734E+02  0.22367616838E+02  0.00000000000E+00 0.  1.
</event>
<event>
 8    1  0.2553474E-006  0.9118800E+02  0.7816164E-02  0.1184000E+00
        -11   -1    0    0    0    0  0.00000000000E+00  0.00000000000E+00  0.45593999997E+02  0.45594000000E+02  0.51100000000E-03 0. -1.
         11   -1    0    0    0    0 -0.00000000000E+00 -0.00000000000E+00 -0.45593999997E+02  0.45594000000E+02  0.51100000000E-03 0.  1.
         23    2    1    2    0    0  0.00000000000E+00  0.00000000000E+00  0.35527136788E-14  0.91188000000E+02  0.91188000000E+02 0.  0.
    9900012    2    3    3    0    0 -0.24918964290E+02 -0.72127406704E+01 -0.26130474492E+02  0.54367080586E+02  0.39999991813E+02 0.  0.
         12    1    3    3    0    0  0.24918964290E+02  0.72127406704E+01  0.26130474492E+02  0.36820919414E+02  0.00000000000E+00 0. -1.
         11    1    4    4    0    0 -0.10330153237E+02  0.94030636248E+00 -0.29243827952E+02  0.31028981864E+02  0.51100000000E-03 0. -1.
        -11    1    4    4    0    0 -0.13923529043E+02 -0.10338633971E+02 -0.22698994073E+01  0.17490124556E+02  0.51100000000E-03 0.  1.
         12    1    4    4    0    0 -0.66528201004E+00  0.21855869385E+01  0.53832528671E+01  0.58479741663E+01  0.00000000000E+00 0. -1.
</event>
<event>
 8    1  0.2553474E-006  0.9118800E+02  0.7816164E-02  0.1184000E+00
        -11   -1    0    0    0    0  0.00000000000E+00  0.00000000000E+00  0.45593999997E+02  0.45594000000E+02  0.51100000000E-03 0.  1.
         11   -1    0    0    0    0 -0.00000000000E+00 -0.00000000000E+00 -0.45593999997E+02  0.45594000000E+02  0.51100000000E-03 0. -1.
         23    2    1    2    0    0  0.00000000000E+00 -0.88817841970E-15  0.00000000000E+00  0.91188000000E+02  0.91188000000E+02 0.  0.
    9900012    2    3    3    0    0  0.36226128077E+02  0.59558178449E+01  0.28241126503E+01  0.54367085646E+02  0.40000003346E+02 0.  0.
        -12    1    3    3    0    0 -0.36226128077E+02 -0.59558178449E+01 -0.28241126503E+01  0.36820914354E+02  0.00000000000E+00 0.  1.
         11    1    4    4    0    0  0.21451470340E+01 -0.11806318079E+02  0.39751980206E+01  0.12640925676E+02  0.51100000000E-03 0. -1.
        -11    1    4    4    0    0  0.14148146215E+02  0.89818222182E+01  0.74094370572E+01  0.18323289264E+02  0.51100000000E-03 0.  1.
         12    1    4    4    0    0  0.19932834828E+02  0.87803137057E+01 -0.85605224275E+01  0.23402870706E+02  0.00000000000E+00 0. -1.
</event>
<event>
 8    1  0.2553474E-006  0.9118800E+02  0.7816164E-02  0.1184000E+00
        -11   -1    0    0    0    0  0.00000000000E+00  0.00000000000E+00  0.45593999997E+02  0.45594000000E+02  0.51100000000E-03 0.  1.
         11   -1    0    0    0    0 -0.00000000000E+00 -0.00000000000E+00 -0.45593999997E+02  0.45594000000E+02  0.51100000000E-03 0. -1.
         23    2    1    2    0    0  0.00000000000E+00  0.35527136788E-14  0.00000000000E+00  0.91188000000E+02  0.91188000000E+02 0.  0.
    9900012    2    3    3    0    0 -0.32665377196E+02 -0.13536835602E+02 -0.10271657563E+02  0.54367085637E+02  0.40000003326E+02 0.  0.
        -12    1    3    3    0    0  0.32665377196E+02  0.13536835602E+02  0.10271657563E+02  0.36820914363E+02  0.00000000000E+00 0.  1.
         11    1    4    4    0    0 -0.11666967055E+02 -0.26571824479E+01 -0.64547684360E+01  0.13595689561E+02  0.51100000000E-03 0. -1.
        -11    1    4    4    0    0  0.27433399572E+01  0.61728959010E+01 -0.88258058065E+01  0.11114198411E+02  0.51100000000E-03 0.  1.
        -12    1    4    4    0    0 -0.23741750099E+02 -0.17052549055E+02  0.50089166800E+01  0.29657197665E+02  0.00000000000E+00 0.  1.
</event>
<event>
 8    1  0.2553474E-006  0.9118800E+02  0.7816164E-02  0.1184000E+00
        -11   -1    0    0    0    0  0.00000000000E+00  0.00000000000E+00  0.45593999997E+02  0.45594000000E+02  0.51100000000E-03 0.  1.
         11   -1    0    0    0    0 -0.00000000000E+00 -0.00000000000E+00 -0.45593999997E+02  0.45594000000E+02  0.51100000000E-03 0. -1.
         23    2    1    2    0    0  0.00000000000E+00  0.00000000000E+00 -0.35527136788E-14  0.91188000000E+02  0.91188000000E+02 0.  0.
    9900012    2    3    3    0    0 -0.27488445932E+02  0.22610735899E+02 -0.94297335735E+01  0.54367083215E+02  0.39999997805E+02 0.  0.
        -12    1    3    3    0    0  0.27488445932E+02 -0.22610735899E+02  0.94297335735E+01  0.36820916785E+02  0.00000000000E+00 0.  1.
         11    1    4    4    0    0  0.54969503680E+01 -0.21612785686E+01  0.15998493820E+01  0.61194041136E+01  0.51100000000E-03 0.  1.
        -11    1    4    4    0    0 -0.18258812199E+02  0.13288071512E+02 -0.17408464277E+02  0.28513359959E+02  0.51100000000E-03 0. -1.
         12    1    4    4    0    0 -0.14726584101E+02  0.11483942956E+02  0.63788813212E+01  0.19734319142E+02  0.00000000000E+00 0. -1.
</event>
<event>
 8    1  0.2553474E-006  0.9118800E+02  0.7816164E-02  0.1184000E+00
        -11   -1    0    0    0    0  0.00000000000E+00  0.00000000000E+00  0.45593999997E+02  0.45594000000E+02  0.51100000000E-03 0. -1.
         11   -1    0    0    0    0 -0.00000000000E+00 -0.00000000000E+00 -0.45593999997E+02  0.45594000000E+02  0.51100000000E-03 0.  1.
         23    2    1    2    0    0 -0.13322676296E-14 -0.35527136788E-14  0.00000000000E+00  0.91188000000E+02  0.91188000000E+02 0.  0.
    9900012    2    3    3    0    0 -0.25988369322E+01 -0.28631787271E+02  0.23005329746E+02  0.54367103862E+02  0.40000044873E+02 0.  0.
        -12    1    3    3    0    0  0.25988369322E+01  0.28631787271E+02 -0.23005329746E+02  0.36820896138E+02  0.00000000000E+00 0.  1.
         11    1    4    4    0    0 -0.79217038276E+01 -0.10261247155E+02  0.15860593342E+02  0.20484262402E+02  0.51100000000E-03 0. -1.
        -11    1    4    4    0    0  0.25441123848E+01 -0.30921859353E+01  0.15665912962E+02  0.16169568667E+02  0.51100000000E-03 0.  1.
        -12    1    4    4    0    0  0.27787545106E+01 -0.15278354181E+02 -0.85211765583E+01  0.17713272793E+02  0.00000000000E+00 0.  1.
</event>
<event>
 8    1  0.2553474E-006  0.9118800E+02  0.7816164E-02  0.1184000E+00
        -11   -1    0    0    0    0  0.00000000000E+00  0.00000000000E+00  0.45593999997E+02  0.45594000000E+02  0.51100000000E-03 0.  1.
         11   -1    0    0    0    0 -0.00000000000E+00 -0.00000000000E+00 -0.45593999997E+02  0.45594000000E+02  0.51100000000E-03 0. -1.
         23    2    1    2    0    0  0.00000000000E+00  0.17763568394E-14  0.35527136788E-14  0.91188000000E+02  0.91188000000E+02 0.  0.
    9900012    2    3    3    0    0  0.22713844029E+02  0.12190033297E+02  0.26291901917E+02  0.54367085715E+02  0.40000003505E+02 0.  0.
         12    1    3    3    0    0 -0.22713844029E+02 -0.12190033297E+02 -0.26291901917E+02  0.36820914285E+02  0.00000000000E+00 0. -1.
         11    1    4    4    0    0  0.13050374692E+02 -0.10324934829E+02  0.74998844207E+01  0.18252803221E+02  0.51100000000E-03 0. -1.
        -11    1    4    4    0    0  0.35817955816E+01  0.71590944820E+01  0.17859656548E+02  0.19571643407E+02  0.51100000000E-03 0.  1.
        -12    1    4    4    0    0  0.60816737550E+01  0.15355873644E+02  0.93236094893E+00  0.16542639087E+02  0.00000000000E+00 0.  1.
</event>
<event>
 8    1  0.2553474E-006  0.9118800E+02  0.7816164E-02  0.1184000E+00
        -11   -1    0    0    0    0  0.00000000000E+00  0.00000000000E+00  0.45593999997E+02  0.45594000000E+02  0.51100000000E-03 0.  1.
         11   -1    0    0    0    0 -0.00000000000E+00 -0.00000000000E+00 -0.45593999997E+02  0.45594000000E+02  0.51100000000E-03 0. -1.
         23    2    1    2    0    0  0.00000000000E+00  0.00000000000E+00 -0.19428902931E-15  0.91188000000E+02  0.91188000000E+02 0.  0.
    9900012    2    3    3    0    0  0.35024175929E+02 -0.11358863991E+02  0.21670751755E+00  0.54367304014E+02  0.40000501159E+02 0.  0.
        -12    1    3    3    0    0 -0.35024175929E+02  0.11358863991E+02 -0.21670751755E+00  0.36820695986E+02  0.00000000000E+00 0.  1.
         11    1    4    4    0    0  0.20234772386E+01 -0.10581986524E+02 -0.69759679415E+01  0.12834992322E+02  0.51100000000E-03 0. -1.
        -11    1    4    4    0    0  0.19303823407E+02  0.11254524954E+02  0.13401339797E+01  0.22385215867E+02  0.51100000000E-03 0.  1.
        -12    1    4    4    0    0  0.13696875284E+02 -0.12031402421E+02  0.58525414793E+01  0.19147095825E+02  0.00000000000E+00 0.  1.
</event>
<event>
 8    1  0.2553474E-006  0.9118800E+02  0.7816164E-02  0.1184000E+00
        -11   -1    0    0    0    0  0.00000000000E+00  0.00000000000E+00  0.45593999997E+02  0.45594000000E+02  0.51100000000E-03 0. -1.
         11   -1    0    0    0    0 -0.00000000000E+00 -0.00000000000E+00 -0.45593999997E+02  0.45594000000E+02  0.51100000000E-03 0.  1.
         23    2    1    2    0    0 -0.11102230246E-14  0.00000000000E+00  0.35527136788E-14  0.91188000000E+02  0.91188000000E+02 0.  0.
    9900012    2    3    3    0    0 -0.50061523631E+00  0.19035941914E+02  0.31514478814E+02  0.54367081012E+02  0.39999992784E+02 0.  0.
        -12    1    3    3    0    0  0.50061523631E+00 -0.19035941914E+02 -0.31514478814E+02  0.36820918988E+02  0.00000000000E+00 0.  1.
         11    1    4    4    0    0  0.17593128556E+02  0.15723289607E+02  0.21065910305E+02  0.31630880255E+02  0.51100000000E-03 0. -1.
        -11    1    4    4    0    0 -0.55477879855E+01 -0.27910543694E+01  0.38049834687E+01  0.72832572029E+01  0.51100000000E-03 0.  1.
         12    1    4    4    0    0 -0.12545955807E+02  0.61037066758E+01  0.66435850407E+01  0.15452943554E+02  0.00000000000E+00 0. -1.
</event>
<event>
 8    1  0.2553474E-006  0.9118800E+02  0.7816164E-02  0.1184000E+00
        -11   -1    0    0    0    0  0.00000000000E+00  0.00000000000E+00  0.45593999997E+02  0.45594000000E+02  0.51100000000E-03 0. -1.
         11   -1    0    0    0    0 -0.00000000000E+00 -0.00000000000E+00 -0.45593999997E+02  0.45594000000E+02  0.51100000000E-03 0.  1.
         23    2    1    2    0    0 -0.35527136788E-14  0.35527136788E-14 -0.17763568394E-14  0.91188000000E+02  0.91188000000E+02 0.  0.
    9900012    2    3    3    0    0 -0.29902225118E+02  0.17365859142E+02 -0.12651672223E+02  0.54367069257E+02  0.39999965984E+02 0.  0.
         12    1    3    3    0    0  0.29902225118E+02 -0.17365859142E+02  0.12651672223E+02  0.36820930743E+02  0.00000000000E+00 0. -1.
         11    1    4    4    0    0 -0.65613966509E+01 -0.27761662933E+00  0.88164886934E+00  0.66261830637E+01  0.51100000000E-03 0. -1.
        -11    1    4    4    0    0  0.57383085178E+01 -0.59786254444E+01 -0.31342505475E+01  0.88597784174E+01  0.51100000000E-03 0.  1.
        -12    1    4    4    0    0 -0.29079136985E+02  0.23622101215E+02 -0.10399070545E+02  0.38881107775E+02  0.00000000000E+00 0.  1.
</event>
<event>
 8    1  0.2553474E-006  0.9118800E+02  0.7816164E-02  0.1184000E+00
        -11   -1    0    0    0    0  0.00000000000E+00  0.00000000000E+00  0.45593999997E+02  0.45594000000E+02  0.51100000000E-03 0. -1.
         11   -1    0    0    0    0 -0.00000000000E+00 -0.00000000000E+00 -0.45593999997E+02  0.45594000000E+02  0.51100000000E-03 0.  1.
         23    2    1    2    0    0  0.17763568394E-14  0.00000000000E+00  0.17763568394E-14  0.91188000000E+02  0.91188000000E+02 0.  0.
    9900012    2    3    3    0    0  0.11299848421E+02 -0.34159730987E+02  0.78234226959E+01  0.54367085588E+02  0.40000003215E+02 0.  0.
        -12    1    3    3    0    0 -0.11299848421E+02  0.34159730987E+02 -0.78234226959E+01  0.36820914412E+02  0.00000000000E+00 0.  1.
         11    1    4    4    0    0 -0.10152757283E+01 -0.29593823874E+02  0.16771219632E+02  0.34030853714E+02  0.51100000000E-03 0. -1.
        -11    1    4    4    0    0  0.14524094103E+02 -0.18139524771E+01 -0.80081001953E+01  0.16684405956E+02  0.51100000000E-03 0.  1.
        -12    1    4    4    0    0 -0.22089699534E+01 -0.27519546362E+01 -0.93969674059E+00  0.36518259185E+01  0.00000000000E+00 0.  1.
</event>
<event>
 8    1  0.2553474E-006  0.9118800E+02  0.7816164E-02  0.1184000E+00
        -11   -1    0    0    0    0  0.00000000000E+00  0.00000000000E+00  0.45593999997E+02  0.45594000000E+02  0.51100000000E-03 0. -1.
         11   -1    0    0    0    0 -0.00000000000E+00 -0.00000000000E+00 -0.45593999997E+02  0.45594000000E+02  0.51100000000E-03 0.  1.
         23    2    1    2    0    0  0.00000000000E+00  0.00000000000E+00  0.35527136788E-14  0.91188000000E+02  0.91188000000E+02 0.  0.
    9900012    2    3    3    0    0  0.73894846249E+01 -0.17489376670E+02  0.31548330761E+02  0.54367082669E+02  0.39999996560E+02 0.  0.
        -12    1    3    3    0    0 -0.73894846249E+01  0.17489376670E+02 -0.31548330761E+02  0.36820917331E+02  0.00000000000E+00 0.  1.
         11    1    4    4    0    0 -0.44687205186E+01  0.26067366938E+01  0.84569802438E+01  0.99138819022E+01  0.51100000000E-03 0. -1.
        -11    1    4    4    0    0  0.74621412631E+01  0.67256689713E+01  0.24943109208E+01  0.10350833907E+02  0.51100000000E-03 0.  1.
        -12    1    4    4    0    0  0.43960638804E+01 -0.26821782335E+02  0.20597039596E+02  0.34102366859E+02  0.00000000000E+00 0.  1.
</event>
<event>
 8    1  0.2553474E-006  0.9118800E+02  0.7816164E-02  0.1184000E+00
        -11   -1    0    0    0    0  0.00000000000E+00  0.00000000000E+00  0.45593999997E+02  0.45594000000E+02  0.51100000000E-03 0. -1.
         11   -1    0    0    0    0 -0.00000000000E+00 -0.00000000000E+00 -0.45593999997E+02  0.45594000000E+02  0.51100000000E-03 0.  1.
         23    2    1    2    0    0 -0.88817841970E-15  0.00000000000E+00  0.00000000000E+00  0.91188000000E+02  0.91188000000E+02 0.  0.
    9900012    2    3    3    0    0 -0.55979519184E+01  0.30561082638E+02  0.19760092049E+02  0.54367108166E+02  0.40000054685E+02 0.  0.
         12    1    3    3    0    0  0.55979519184E+01 -0.30561082638E+02 -0.19760092049E+02  0.36820891834E+02  0.00000000000E+00 0. -1.
         11    1    4    4    0    0 -0.55873343545E+01  0.72187442065E-01 -0.31908476212E+01  0.64346736528E+01  0.51100000000E-03 0. -1.
        -11    1    4    4    0    0  0.35012889691E+01 -0.47118541472E+01  0.20225450534E+00  0.58737978426E+01  0.51100000000E-03 0.  1.
        -12    1    4    4    0    0 -0.35119065331E+01  0.35200749343E+02  0.22748685165E+02  0.42058636670E+02  0.00000000000E+00 0.  1.
</event>
<event>
 8    1  0.2553474E-006  0.9118800E+02  0.7816164E-02  0.1184000E+00
        -11   -1    0    0    0    0  0.00000000000E+00  0.00000000000E+00  0.45593999997E+02  0.45594000000E+02  0.51100000000E-03 0.  1.
         11   -1    0    0    0    0 -0.00000000000E+00 -0.00000000000E+00 -0.45593999997E+02  0.45594000000E+02  0.51100000000E-03 0. -1.
         23    2    1    2    0    0 -0.88817841970E-15 -0.15265566589E-14  0.71054273576E-14  0.91188000000E+02  0.91188000000E+02 0.  0.
    9900012    2    3    3    0    0 -0.64457410349E+01  0.94520892870E-01 -0.36252138725E+02  0.54367162505E+02  0.40000178562E+02 0.  0.
        -12    1    3    3    0    0  0.64457410349E+01 -0.94520892870E-01  0.36252138725E+02  0.36820837495E+02  0.00000000000E+00 0.  1.
         11    1    4    4    0    0 -0.28338686907E+01 -0.42670471332E+01 -0.41098147084E-01  0.51225181612E+01  0.51100000000E-03 0. -1.
        -11    1    4    4    0    0  0.31301092055E+01 -0.87886629154E+01  0.82831013882E+00  0.93661239275E+01  0.51100000000E-03 0.  1.
        -12    1    4    4    0    0 -0.67419815497E+01  0.13150230942E+02 -0.37039350717E+02  0.39878520416E+02  0.00000000000E+00 0.  1.
</event>
<event>
 8    1  0.2553474E-006  0.9118800E+02  0.7816164E-02  0.1184000E+00
        -11   -1    0    0    0    0  0.00000000000E+00  0.00000000000E+00  0.45593999997E+02  0.45594000000E+02  0.51100000000E-03 0.  1.
         11   -1    0    0    0    0 -0.00000000000E+00 -0.00000000000E+00 -0.45593999997E+02  0.45594000000E+02  0.51100000000E-03 0. -1.
         23    2    1    2    0    0  0.00000000000E+00  0.35527136788E-14  0.00000000000E+00  0.91188000000E+02  0.91188000000E+02 0.  0.
    9900012    2    3    3    0    0 -0.35680373344E+02 -0.85295706958E+01 -0.31523285421E+01  0.54367084837E+02  0.40000001502E+02 0.  0.
         12    1    3    3    0    0  0.35680373344E+02  0.85295706958E+01  0.31523285421E+01  0.36820915163E+02  0.00000000000E+00 0. -1.
         11    1    4    4    0    0 -0.20650589146E+01  0.85736280094E+00 -0.13331472798E+02  0.13517681255E+02  0.51100000000E-03 0. -1.
        -11    1    4    4    0    0  0.35711763488E+00  0.15010690200E+01  0.44599442711E+01  0.47193054966E+01  0.51100000000E-03 0.  1.
        -12    1    4    4    0    0 -0.33972432064E+02 -0.10888002517E+02  0.57191999848E+01  0.36130098085E+02  0.00000000000E+00 0.  1.
</event>
<event>
 8    1  0.2553474E-006  0.9118800E+02  0.7816164E-02  0.1184000E+00
        -11   -1    0    0    0    0  0.00000000000E+00  0.00000000000E+00  0.45593999997E+02  0.45594000000E+02  0.51100000000E-03 0. -1.
         11   -1    0    0    0    0 -0.00000000000E+00 -0.00000000000E+00 -0.45593999997E+02  0.45594000000E+02  0.51100000000E-03 0.  1.
         23    2    1    2    0    0  0.00000000000E+00  0.00000000000E+00  0.00000000000E+00  0.91188000000E+02  0.91188000000E+02 0.  0.
    9900012    2    3    3    0    0  0.99384835300E+01  0.96479073573E+01  0.34116327007E+02  0.54367090998E+02  0.40000015549E+02 0.  0.
        -12    1    3    3    0    0 -0.99384835300E+01 -0.96479073573E+01 -0.34116327007E+02  0.36820909002E+02  0.00000000000E+00 0.  1.
         11    1    4    4    0    0  0.12830088955E+02  0.24014571513E+02  0.21289968405E+02  0.34562603815E+02  0.51100000000E-03 0. -1.
        -11    1    4    4    0    0 -0.22981885087E+01 -0.79032281109E+01  0.92953555985E+01  0.12415567686E+02  0.51100000000E-03 0.  1.
         12    1    4    4    0    0 -0.59341691601E+00 -0.64634360443E+01  0.35310030032E+01  0.73889194977E+01  0.00000000000E+00 0. -1.
</event>
<event>
 8    1  0.2723043E-006  0.9118800E+02  0.7816164E-02  0.1184000E+00
        -11   -1    0    0    0    0  0.00000000000E+00  0.00000000000E+00  0.45593999997E+02  0.45594000000E+02  0.51100000000E-03 0.  1.
         11   -1    0    0    0    0 -0.00000000000E+00 -0.00000000000E+00 -0.45593999997E+02  0.45594000000E+02  0.51100000000E-03 0. -1.
         23    2    1    2    0    0 -0.35527136788E-14  0.35527136788E-14 -0.35527136788E-14  0.91188000000E+02  0.91188000000E+02 0.  0.
    9900012    2    3    3    0    0 -0.26989325361E+02  0.18244377659E+02 -0.17160982042E+02  0.54367077901E+02  0.39999985690E+02 0.  0.
        -12    1    3    3    0    0  0.26989325361E+02 -0.18244377659E+02  0.17160982042E+02  0.36820922099E+02  0.00000000000E+00 0.  1.
         11    1    4    4    0    0 -0.21166467298E+02  0.20423691391E+02 -0.19171458783E+02  0.35109704358E+02  0.51100000000E-03 0. -1.
        -11    1    4    4    0    0 -0.51276320372E+01  0.60139057056E+01 -0.42028506993E+01  0.89511801684E+01  0.51100000000E-03 0.  1.
        -12    1    4    4    0    0 -0.69522602524E+00 -0.81932194379E+01  0.62133274410E+01  0.10306193375E+02  0.00000000000E+00 0.  1.
</event>
<event>
 8    1  0.2553474E-006  0.9118800E+02  0.7816164E-02  0.1184000E+00
        -11   -1    0    0    0    0  0.00000000000E+00  0.00000000000E+00  0.45593999997E+02  0.45594000000E+02  0.51100000000E-03 0. -1.
         11   -1    0    0    0    0 -0.00000000000E+00 -0.00000000000E+00 -0.45593999997E+02  0.45594000000E+02  0.51100000000E-03 0.  1.
         23    2    1    2    0    0 -0.66613381478E-15  0.00000000000E+00  0.00000000000E+00  0.91188000000E+02  0.91188000000E+02 0.  0.
    9900012    2    3    3    0    0  0.19751973211E+01 -0.89471198146E+01 -0.35662685935E+02  0.54367088475E+02  0.40000009796E+02 0.  0.
         12    1    3    3    0    0 -0.19751973211E+01  0.89471198146E+01  0.35662685935E+02  0.36820911525E+02  0.00000000000E+00 0. -1.
         11    1    4    4    0    0  0.10210226078E+02  0.78057970757E+01 -0.61573229459E+01  0.14251028408E+02  0.51100000000E-03 0. -1.
        -11    1    4    4    0    0 -0.12751354979E+02 -0.93566070520E+01 -0.26653357218E+02  0.30992653977E+02  0.51100000000E-03 0.  1.
         12    1    4    4    0    0  0.45163262213E+01 -0.73963098383E+01 -0.28520057716E+01  0.91234060900E+01  0.00000000000E+00 0. -1.
</event>
<event>
 8    1  0.2553474E-006  0.9118800E+02  0.7816164E-02  0.1184000E+00
        -11   -1    0    0    0    0  0.00000000000E+00  0.00000000000E+00  0.45593999997E+02  0.45594000000E+02  0.51100000000E-03 0.  1.
         11   -1    0    0    0    0 -0.00000000000E+00 -0.00000000000E+00 -0.45593999997E+02  0.45594000000E+02  0.51100000000E-03 0. -1.
         23    2    1    2    0    0 -0.35527136788E-14  0.00000000000E+00  0.35527136788E-14  0.91188000000E+02  0.91188000000E+02 0.  0.
    9900012    2    3    3    0    0  0.26766985839E+02  0.18050400917E+02 -0.17705704697E+02  0.54367075473E+02  0.39999980156E+02 0.  0.
        -12    1    3    3    0    0 -0.26766985839E+02 -0.18050400917E+02  0.17705704697E+02  0.36820924527E+02  0.00000000000E+00 0.  1.
         11    1    4    4    0    0 -0.24754664700E+01  0.46353437300E-01  0.57603750608E+01  0.62699285473E+01  0.51100000000E-03 0. -1.
        -11    1    4    4    0    0  0.29071689970E+01  0.18419504226E+01  0.50095584534E+01  0.60778358892E+01  0.51100000000E-03 0.  1.
         12    1    4    4    0    0  0.26335283312E+02  0.16162097057E+02 -0.28475638212E+02  0.42019311037E+02  0.00000000000E+00 0. -1.
</event>
<event>
 8    1  0.2553474E-006  0.9118800E+02  0.7816164E-02  0.1184000E+00
        -11   -1    0    0    0    0  0.00000000000E+00  0.00000000000E+00  0.45593999997E+02  0.45594000000E+02  0.51100000000E-03 0. -1.
         11   -1    0    0    0    0 -0.00000000000E+00 -0.00000000000E+00 -0.45593999997E+02  0.45594000000E+02  0.51100000000E-03 0.  1.
         23    2    1    2    0    0  0.17763568394E-14  0.71054273576E-14  0.00000000000E+00  0.91188000000E+02  0.91188000000E+02 0.  0.
    9900012    2    3    3    0    0 -0.14230771447E+02 -0.30897076699E+02 -0.14093814252E+02  0.54367084684E+02  0.40000001155E+02 0.  0.
         12    1    3    3    0    0  0.14230771447E+02  0.30897076699E+02  0.14093814252E+02  0.36820915316E+02  0.00000000000E+00 0. -1.
         11    1    4    4    0    0 -0.23293602590E+01 -0.21525863590E+02  0.96541291208E+01  0.23706347923E+02  0.51100000000E-03 0. -1.
        -11    1    4    4    0    0 -0.41130220359E+01  0.20257666311E+01 -0.10807152660E+02  0.11739473140E+02  0.51100000000E-03 0.  1.
        -12    1    4    4    0    0 -0.77883891516E+01 -0.11396979740E+02 -0.12940790713E+02  0.18921263621E+02  0.00000000000E+00 0.  1.
</event>
<event>
 8    1  0.2553474E-006  0.9118800E+02  0.7816164E-02  0.1184000E+00
        -11   -1    0    0    0    0  0.00000000000E+00  0.00000000000E+00  0.45593999997E+02  0.45594000000E+02  0.51100000000E-03 0.  1.
         11   -1    0    0    0    0 -0.00000000000E+00 -0.00000000000E+00 -0.45593999997E+02  0.45594000000E+02  0.51100000000E-03 0. -1.
         23    2    1    2    0    0 -0.17763568394E-14  0.00000000000E+00  0.35527136788E-14  0.91188000000E+02  0.91188000000E+02 0.  0.
    9900012    2    3    3    0    0 -0.15654534064E+02  0.27154745810E+02  0.19321872578E+02  0.54367089954E+02  0.40000013167E+02 0.  0.
         12    1    3    3    0    0  0.15654534064E+02 -0.27154745810E+02 -0.19321872578E+02  0.36820910046E+02  0.00000000000E+00 0. -1.
         11    1    4    4    0    0 -0.14231380942E+02  0.46162795365E+01 -0.45844078937E+01  0.15647972274E+02  0.51100000000E-03 0. -1.
        -11    1    4    4    0    0  0.35201560424E+01  0.57874620439E+01 -0.23625989626E+01  0.71741263991E+01  0.51100000000E-03 0.  1.
         12    1    4    4    0    0 -0.49433091640E+01  0.16751004229E+02  0.26268879434E+02  0.31544991281E+02  0.00000000000E+00 0. -1.
</event>
<event>
 8    1  0.2553474E-006  0.9118800E+02  0.7816164E-02  0.1184000E+00
        -11   -1    0    0    0    0  0.00000000000E+00  0.00000000000E+00  0.45593999997E+02  0.45594000000E+02  0.51100000000E-03 0. -1.
         11   -1    0    0    0    0 -0.00000000000E+00 -0.00000000000E+00 -0.45593999997E+02  0.45594000000E+02  0.51100000000E-03 0.  1.
         23    2    1    2    0    0 -0.35527136788E-14  0.00000000000E+00 -0.35527136788E-14  0.91188000000E+02  0.91188000000E+02 0.  0.
    9900012    2    3    3    0    0  0.19155934334E+02  0.11728270111E+02 -0.29176678504E+02  0.54367072411E+02  0.39999973174E+02 0.  0.
         12    1    3    3    0    0 -0.19155934334E+02 -0.11728270111E+02  0.29176678504E+02  0.36820927589E+02  0.00000000000E+00 0. -1.
         11    1    4    4    0    0 -0.25402764054E+01 -0.95278731225E+00  0.25888450742E+01  0.37500569273E+01  0.51100000000E-03 0. -1.
        -11    1    4    4    0    0  0.16336663374E+02 -0.74237482949E+01 -0.10157333560E+02  0.20619651652E+02  0.51100000000E-03 0.  1.
        -12    1    4    4    0    0  0.53595473649E+01  0.20104805718E+02 -0.21608190018E+02  0.29997363831E+02  0.00000000000E+00 0.  1.
</event>
<event>
 8    1  0.2553474E-006  0.9118800E+02  0.7816164E-02  0.1184000E+00
        -11   -1    0    0    0    0  0.00000000000E+00  0.00000000000E+00  0.45593999997E+02  0.45594000000E+02  0.51100000000E-03 0. -1.
         11   -1    0    0    0    0 -0.00000000000E+00 -0.00000000000E+00 -0.45593999997E+02  0.45594000000E+02  0.51100000000E-03 0.  1.
         23    2    1    2    0    0  0.00000000000E+00 -0.17763568394E-14  0.35527136788E-14  0.91188000000E+02  0.91188000000E+02 0.  0.
    9900012    2    3    3    0    0  0.28971660537E+02 -0.78630481600E+01  0.21321201647E+02  0.54367105384E+02  0.40000048343E+02 0.  0.
        -12    1    3    3    0    0 -0.28971660537E+02  0.78630481600E+01 -0.21321201647E+02  0.36820894616E+02  0.00000000000E+00 0.  1.
         11    1    4    4    0    0  0.30412632867E+02 -0.10975515625E+02  0.17125974318E+02  0.36588101587E+02  0.51100000000E-03 0. -1.
        -11    1    4    4    0    0 -0.84346569559E+01 -0.19307735300E+01  0.22268242519E+01  0.89347675346E+01  0.51100000000E-03 0.  1.
         12    1    4    4    0    0  0.69936846266E+01  0.50432409948E+01  0.19684030768E+01  0.88442362622E+01  0.00000000000E+00 0. -1.
</event>
<event>
 8    1  0.2553474E-006  0.9118800E+02  0.7816164E-02  0.1184000E+00
        -11   -1    0    0    0    0  0.00000000000E+00  0.00000000000E+00  0.45593999997E+02  0.45594000000E+02  0.51100000000E-03 0.  1.
         11   -1    0    0    0    0 -0.00000000000E+00 -0.00000000000E+00 -0.45593999997E+02  0.45594000000E+02  0.51100000000E-03 0. -1.
         23    2    1    2    0    0 -0.17763568394E-14  0.88817841970E-15 -0.71054273576E-14  0.91188000000E+02  0.91188000000E+02 0.  0.
    9900012    2    3    3    0    0 -0.91117700195E+01 -0.78673418156E+01 -0.34797417189E+02  0.54367086606E+02  0.40000005536E+02 0.  0.
        -12    1    3    3    0    0  0.91117700195E+01  0.78673418156E+01  0.34797417189E+02  0.36820913394E+02  0.00000000000E+00 0.  1.
         11    1    4    4    0    0  0.45301274926E+01 -0.65112329780E+01 -0.38092553094E+02  0.38909649336E+02  0.51100000000E-03 0. -1.
        -11    1    4    4    0    0 -0.43133788053E+00  0.45222613677E+00  0.19597475613E+01  0.20569811888E+01  0.51100000000E-03 0.  1.
        -12    1    4    4    0    0 -0.13210559632E+02 -0.18083349744E+01  0.13353883438E+01  0.13400456081E+02  0.00000000000E+00 0.  1.
</event>
<event>
 8    1  0.2553474E-006  0.9118800E+02  0.7816164E-02  0.1184000E+00
        -11   -1    0    0    0    0  0.00000000000E+00  0.00000000000E+00  0.45593999997E+02  0.45594000000E+02  0.51100000000E-03 0.  1.
         11   -1    0    0    0    0 -0.00000000000E+00 -0.00000000000E+00 -0.45593999997E+02  0.45594000000E+02  0.51100000000E-03 0. -1.
         23    2    1    2    0    0  0.35527136788E-14  0.88817841970E-15  0.00000000000E+00  0.91188000000E+02  0.91188000000E+02 0.  0.
    9900012    2    3    3    0    0  0.18616156338E+02  0.76476450245E+01  0.30833960454E+02  0.54367070239E+02  0.39999968223E+02 0.  0.
         12    1    3    3    0    0 -0.18616156338E+02 -0.76476450245E+01 -0.30833960454E+02  0.36820929761E+02  0.00000000000E+00 0. -1.
         11    1    4    4    0    0  0.54442779316E+01  0.11342232886E+02  0.19368735060E+02  0.23096196811E+02  0.51100000000E-03 0. -1.
        -11    1    4    4    0    0 -0.83800076016E+00 -0.22809924731E+01  0.16225898803E+02  0.16406857230E+02  0.51100000000E-03 0.  1.
         12    1    4    4    0    0  0.14009879167E+02 -0.14135953888E+01 -0.47606734102E+01  0.14864016197E+02  0.00000000000E+00 0. -1.
</event>
<event>
 8    1  0.2553474E-006  0.9118800E+02  0.7816164E-02  0.1184000E+00
        -11   -1    0    0    0    0  0.00000000000E+00  0.00000000000E+00  0.45593999997E+02  0.45594000000E+02  0.51100000000E-03 0.  1.
         11   -1    0    0    0    0 -0.00000000000E+00 -0.00000000000E+00 -0.45593999997E+02  0.45594000000E+02  0.51100000000E-03 0. -1.
         23    2    1    2    0    0 -0.17763568394E-14  0.00000000000E+00  0.35527136788E-14  0.91188000000E+02  0.91188000000E+02 0.  0.
    9900012    2    3    3    0    0  0.10667620917E+02  0.30868219021E+02  0.17004004793E+02  0.54367064915E+02  0.39999956086E+02 0.  0.
         12    1    3    3    0    0 -0.10667620917E+02 -0.30868219021E+02 -0.17004004793E+02  0.36820935085E+02  0.00000000000E+00 0. -1.
         11    1    4    4    0    0 -0.52224291517E+01  0.13112356145E+02 -0.16418853407E+01  0.14209272946E+02  0.51100000000E-03 0. -1.
        -11    1    4    4    0    0  0.21489741760E+02  0.11606716615E+02  0.62164854700E+01  0.25202570570E+02  0.51100000000E-03 0.  1.
        -12    1    4    4    0    0 -0.55996916917E+01  0.61491462613E+01  0.12429404664E+02  0.14955221399E+02  0.00000000000E+00 0.  1.
</event>
<event>
 8    1  0.2553474E-006  0.9118800E+02  0.7816164E-02  0.1184000E+00
        -11   -1    0    0    0    0  0.00000000000E+00  0.00000000000E+00  0.45593999997E+02  0.45594000000E+02  0.51100000000E-03 0.  1.
         11   -1    0    0    0    0 -0.00000000000E+00 -0.00000000000E+00 -0.45593999997E+02  0.45594000000E+02  0.51100000000E-03 0. -1.
         23    2    1    2    0    0  0.44408920985E-15 -0.66613381478E-15  0.00000000000E+00  0.91188000000E+02  0.91188000000E+02 0.  0.
    9900012    2    3    3    0    0 -0.14941632023E+01  0.11037484820E+01  0.36774026692E+02  0.54367084428E+02  0.40000000571E+02 0.  0.
         12    1    3    3    0    0  0.14941632023E+01 -0.11037484820E+01 -0.36774026692E+02  0.36820915572E+02  0.00000000000E+00 0. -1.
         11    1    4    4    0    0  0.84596311240E+01 -0.10283438717E+02  0.13449622415E+02  0.18926352368E+02  0.51100000000E-03 0. -1.
        -11    1    4    4    0    0 -0.97624591448E+01  0.60747090352E+01  0.26750121962E+02  0.29116605635E+02  0.51100000000E-03 0.  1.
         12    1    4    4    0    0 -0.19133518147E+00  0.53124781635E+01 -0.34257176849E+01  0.63241264255E+01  0.00000000000E+00 0. -1.
</event>
<event>
 8    1  0.2553474E-006  0.9118800E+02  0.7816164E-02  0.1184000E+00
        -11   -1    0    0    0    0  0.00000000000E+00  0.00000000000E+00  0.45593999997E+02  0.45594000000E+02  0.51100000000E-03 0. -1.
         11   -1    0    0    0    0 -0.00000000000E+00 -0.00000000000E+00 -0.45593999997E+02  0.45594000000E+02  0.51100000000E-03 0.  1.
         23    2    1    2    0    0 -0.71054273576E-14  0.00000000000E+00 -0.35527136788E-14  0.91188000000E+02  0.91188000000E+02 0.  0.
    9900012    2    3    3    0    0  0.33910584733E+02 -0.38378457168E+01  0.13824703535E+02  0.54367092291E+02  0.40000018495E+02 0.  0.
        -12    1    3    3    0    0 -0.33910584733E+02  0.38378457168E+01 -0.13824703535E+02  0.36820907709E+02  0.00000000000E+00 0.  1.
         11    1    4    4    0    0  0.15874471011E+02 -0.32083236733E+01  0.10715880115E+01  0.16230849386E+02  0.51100000000E-03 0. -1.
        -11    1    4    4    0    0  0.86743933711E+01 -0.14694766048E+02  0.16214114823E+00  0.17064804118E+02  0.51100000000E-03 0.  1.
         12    1    4    4    0    0  0.93617203514E+01  0.14065244004E+02  0.12590974375E+02  0.21071438787E+02  0.00000000000E+00 0. -1.
</event>
<event>
 8    1  0.2553474E-006  0.9118800E+02  0.7816164E-02  0.1184000E+00
        -11   -1    0    0    0    0  0.00000000000E+00  0.00000000000E+00  0.45593999997E+02  0.45594000000E+02  0.51100000000E-03 0.  1.
         11   -1    0    0    0    0 -0.00000000000E+00 -0.00000000000E+00 -0.45593999997E+02  0.45594000000E+02  0.51100000000E-03 0. -1.
         23    2    1    2    0    0  0.00000000000E+00  0.00000000000E+00  0.00000000000E+00  0.91188000000E+02  0.91188000000E+02 0.  0.
    9900012    2    3    3    0    0  0.64499736312E+01  0.63780778254E+01 -0.35686149986E+02  0.54367036712E+02  0.39999891793E+02 0.  0.
        -12    1    3    3    0    0 -0.64499736312E+01 -0.63780778254E+01  0.35686149986E+02  0.36820963288E+02  0.00000000000E+00 0.  1.
         11    1    4    4    0    0  0.13060778202E+01 -0.46898161162E+01 -0.34010669725E+02  0.34357326291E+02  0.51100000000E-03 0. -1.
        -11    1    4    4    0    0 -0.31985704757E+01 -0.24629240601E+01 -0.54658871425E+00  0.40737706731E+01  0.51100000000E-03 0.  1.
         12    1    4    4    0    0  0.83424662866E+01  0.13530818002E+02 -0.11288915472E+01  0.15935939748E+02  0.00000000000E+00 0. -1.
</event>
<event>
 8    1  0.2553474E-006  0.9118800E+02  0.7816164E-02  0.1184000E+00
        -11   -1    0    0    0    0  0.00000000000E+00  0.00000000000E+00  0.45593999997E+02  0.45594000000E+02  0.51100000000E-03 0.  1.
         11   -1    0    0    0    0 -0.00000000000E+00 -0.00000000000E+00 -0.45593999997E+02  0.45594000000E+02  0.51100000000E-03 0. -1.
         23    2    1    2    0    0  0.00000000000E+00  0.00000000000E+00  0.00000000000E+00  0.91188000000E+02  0.91188000000E+02 0.  0.
    9900012    2    3    3    0    0 -0.16300721396E+02  0.29683092712E+02 -0.14456146069E+02  0.54367086511E+02  0.40000005319E+02 0.  0.
        -12    1    3    3    0    0  0.16300721396E+02 -0.29683092712E+02  0.14456146069E+02  0.36820913489E+02  0.00000000000E+00 0.  1.
         11    1    4    4    0    0 -0.63648601404E+01  0.20560624650E+02  0.73471735823E+01  0.22742728299E+02  0.51100000000E-03 0. -1.
        -11    1    4    4    0    0 -0.52993242973E+01 -0.30638695540E+01 -0.16409711227E+02  0.17514244416E+02  0.51100000000E-03 0.  1.
        -12    1    4    4    0    0 -0.46365369588E+01  0.12186337617E+02 -0.53936084240E+01  0.14110113795E+02  0.00000000000E+00 0.  1.
</event>
<event>
 8    1  0.2553474E-006  0.9118800E+02  0.7816164E-02  0.1184000E+00
        -11   -1    0    0    0    0  0.00000000000E+00  0.00000000000E+00  0.45593999997E+02  0.45594000000E+02  0.51100000000E-03 0.  1.
         11   -1    0    0    0    0 -0.00000000000E+00 -0.00000000000E+00 -0.45593999997E+02  0.45594000000E+02  0.51100000000E-03 0. -1.
         23    2    1    2    0    0 -0.88817841970E-15 -0.25535129566E-14 -0.71054273576E-14  0.91188000000E+02  0.91188000000E+02 0.  0.
    9900012    2    3    3    0    0 -0.79583703821E+01 -0.53806259884E+00 -0.35946532047E+02  0.54367104618E+02  0.40000046598E+02 0.  0.
        -12    1    3    3    0    0  0.79583703821E+01  0.53806259884E+00  0.35946532047E+02  0.36820895382E+02  0.00000000000E+00 0.  1.
         11    1    4    4    0    0 -0.79783897968E+01 -0.14629144331E+02 -0.25464819472E+02  0.30432278893E+02  0.51100000000E-03 0. -1.
        -11    1    4    4    0    0 -0.38303431465E+01  0.11430655266E+02  0.42873295768E+00  0.12062968981E+02  0.51100000000E-03 0.  1.
        -12    1    4    4    0    0  0.38503625612E+01  0.26604264657E+01 -0.10910445533E+02  0.11871856744E+02  0.00000000000E+00 0.  1.
</event>
<event>
 8    1  0.2553474E-006  0.9118800E+02  0.7816164E-02  0.1184000E+00
        -11   -1    0    0    0    0  0.00000000000E+00  0.00000000000E+00  0.45593999997E+02  0.45594000000E+02  0.51100000000E-03 0. -1.
         11   -1    0    0    0    0 -0.00000000000E+00 -0.00000000000E+00 -0.45593999997E+02  0.45594000000E+02  0.51100000000E-03 0.  1.
         23    2    1    2    0    0  0.00000000000E+00 -0.17763568394E-14  0.00000000000E+00  0.91188000000E+02  0.91188000000E+02 0.  0.
    9900012    2    3    3    0    0 -0.20752430360E+02 -0.82192461763E+01  0.29284144202E+02  0.54367075579E+02  0.39999980398E+02 0.  0.
        -12    1    3    3    0    0  0.20752430360E+02  0.82192461763E+01 -0.29284144202E+02  0.36820924421E+02  0.00000000000E+00 0.  1.
         11    1    4    4    0    0 -0.14144354057E+02  0.12113812611E+01  0.76177493919E+01  0.16110875280E+02  0.51100000000E-03 0. -1.
        -11    1    4    4    0    0 -0.13239280101E+02  0.37071721575E+01  0.18755011049E+02  0.23254507148E+02  0.51100000000E-03 0.  1.
         12    1    4    4    0    0  0.66312037969E+01 -0.13137799595E+02  0.29113837614E+01  0.15001693151E+02  0.00000000000E+00 0. -1.
</event>
<event>
 8    1  0.2553474E-006  0.9118800E+02  0.7816164E-02  0.1184000E+00
        -11   -1    0    0    0    0  0.00000000000E+00  0.00000000000E+00  0.45593999997E+02  0.45594000000E+02  0.51100000000E-03 0. -1.
         11   -1    0    0    0    0 -0.00000000000E+00 -0.00000000000E+00 -0.45593999997E+02  0.45594000000E+02  0.51100000000E-03 0.  1.
         23    2    1    2    0    0  0.00000000000E+00  0.00000000000E+00 -0.35527136788E-14  0.91188000000E+02  0.91188000000E+02 0.  0.
    9900012    2    3    3    0    0 -0.21484111535E+02  0.34957898862E+01 -0.29698360649E+02  0.54367079036E+02  0.39999988279E+02 0.  0.
         12    1    3    3    0    0  0.21484111535E+02 -0.34957898862E+01  0.29698360649E+02  0.36820920964E+02  0.00000000000E+00 0. -1.
         11    1    4    4    0    0 -0.60715769813E+00 -0.38070430060E+01 -0.46342339859E+01  0.60281292137E+01  0.51100000000E-03 0. -1.
        -11    1    4    4    0    0 -0.18834616509E+02 -0.11731411798E+02 -0.13344587923E+02  0.25892988026E+02  0.51100000000E-03 0.  1.
        -12    1    4    4    0    0 -0.20423373277E+01  0.19034244690E+02 -0.11719538740E+02  0.22445961796E+02  0.00000000000E+00 0.  1.
</event>
<event>
 8    1  0.2553474E-006  0.9118800E+02  0.7816164E-02  0.1184000E+00
        -11   -1    0    0    0    0  0.00000000000E+00  0.00000000000E+00  0.45593999997E+02  0.45594000000E+02  0.51100000000E-03 0. -1.
         11   -1    0    0    0    0 -0.00000000000E+00 -0.00000000000E+00 -0.45593999997E+02  0.45594000000E+02  0.51100000000E-03 0.  1.
         23    2    1    2    0    0  0.00000000000E+00  0.00000000000E+00  0.00000000000E+00  0.91188000000E+02  0.91188000000E+02 0.  0.
    9900012    2    3    3    0    0 -0.90656559112E+01 -0.19381505814E+02 -0.29965827681E+02  0.54367085925E+02  0.40000003984E+02 0.  0.
         12    1    3    3    0    0  0.90656559112E+01  0.19381505814E+02  0.29965827681E+02  0.36820914075E+02  0.00000000000E+00 0. -1.
         11    1    4    4    0    0  0.57239173780E+01 -0.17313736125E+02 -0.29983985977E+01  0.18480234933E+02  0.51100000000E-03 0. -1.
        -11    1    4    4    0    0 -0.81782119416E+01 -0.96450513026E+01 -0.98299304542E+01  0.16016794254E+02  0.51100000000E-03 0.  1.
        -12    1    4    4    0    0 -0.66113613476E+01  0.75772816138E+01 -0.17137498629E+02  0.19870056738E+02  0.00000000000E+00 0.  1.
</event>
<event>
 8    1  0.2553474E-006  0.9118800E+02  0.7816164E-02  0.1184000E+00
        -11   -1    0    0    0    0  0.00000000000E+00  0.00000000000E+00  0.45593999997E+02  0.45594000000E+02  0.51100000000E-03 0. -1.
         11   -1    0    0    0    0 -0.00000000000E+00 -0.00000000000E+00 -0.45593999997E+02  0.45594000000E+02  0.51100000000E-03 0.  1.
         23    2    1    2    0    0  0.00000000000E+00  0.35527136788E-14  0.44408920985E-15  0.91188000000E+02  0.91188000000E+02 0.  0.
    9900012    2    3    3    0    0  0.32277913835E+02 -0.17395606924E+02 -0.33625551464E+01  0.54367114094E+02  0.40000068199E+02 0.  0.
         12    1    3    3    0    0 -0.32277913835E+02  0.17395606924E+02  0.33625551464E+01  0.36820885906E+02  0.00000000000E+00 0. -1.
         11    1    4    4    0    0 -0.52708158995E+01 -0.46415757831E+01  0.77194801091E+00  0.70655240421E+01  0.51100000000E-03 0. -1.
        -11    1    4    4    0    0  0.15292557075E+02 -0.10786298741E+02  0.96430601809E+01  0.21052200653E+02  0.51100000000E-03 0.  1.
         12    1    4    4    0    0  0.22256172659E+02 -0.19677323999E+01 -0.13777563338E+02  0.26249389398E+02  0.00000000000E+00 0. -1.
</event>
<event>
 8    1  0.2553474E-006  0.9118800E+02  0.7816164E-02  0.1184000E+00
        -11   -1    0    0    0    0  0.00000000000E+00  0.00000000000E+00  0.45593999997E+02  0.45594000000E+02  0.51100000000E-03 0.  1.
         11   -1    0    0    0    0 -0.00000000000E+00 -0.00000000000E+00 -0.45593999997E+02  0.45594000000E+02  0.51100000000E-03 0. -1.
         23    2    1    2    0    0  0.00000000000E+00  0.17763568394E-14  0.00000000000E+00  0.91188000000E+02  0.91188000000E+02 0.  0.
    9900012    2    3    3    0    0  0.18708256395E+02 -0.97909909058E+01  0.30164838510E+02  0.54367084169E+02  0.39999999980E+02 0.  0.
         12    1    3    3    0    0 -0.18708256395E+02  0.97909909058E+01 -0.30164838510E+02  0.36820915831E+02  0.00000000000E+00 0. -1.
         11    1    4    4    0    0 -0.15246743180E+01  0.48291388034E+01  0.81232236513E+01  0.95724592508E+01  0.51100000000E-03 0. -1.
        -11    1    4    4    0    0  0.26124139395E+02 -0.94400988116E+01  0.83334704628E+01  0.29000566459E+02  0.51100000000E-03 0.  1.
        -12    1    4    4    0    0 -0.58912086819E+01 -0.51800308977E+01  0.13708144396E+02  0.15794058460E+02  0.00000000000E+00 0.  1.
</event>
<event>
 8    1  0.2553474E-006  0.9118800E+02  0.7816164E-02  0.1184000E+00
        -11   -1    0    0    0    0  0.00000000000E+00  0.00000000000E+00  0.45593999997E+02  0.45594000000E+02  0.51100000000E-03 0. -1.
         11   -1    0    0    0    0 -0.00000000000E+00 -0.00000000000E+00 -0.45593999997E+02  0.45594000000E+02  0.51100000000E-03 0.  1.
         23    2    1    2    0    0 -0.35527136788E-14 -0.35527136788E-14  0.35527136788E-14  0.91188000000E+02  0.91188000000E+02 0.  0.
    9900012    2    3    3    0    0 -0.25759147485E+02  0.82732259657E+01  0.24975784974E+02  0.54367220784E+02  0.40000311420E+02 0.  0.
        -12    1    3    3    0    0  0.25759147485E+02 -0.82732259657E+01 -0.24975784974E+02  0.36820779216E+02  0.00000000000E+00 0.  1.
         11    1    4    4    0    0 -0.34791291453E+01 -0.79197728002E+01  0.10839632246E+02  0.13868120576E+02  0.51100000000E-03 0.  1.
        -11    1    4    4    0    0 -0.23424451062E+02  0.21713737838E+02  0.98758195047E+01  0.33432366498E+02  0.51100000000E-03 0. -1.
         12    1    4    4    0    0  0.11444327230E+01 -0.55207390721E+01  0.42603332234E+01  0.70667337105E+01  0.00000000000E+00 0. -1.
</event>
<event>
 8    1  0.2553474E-006  0.9118800E+02  0.7816164E-02  0.1184000E+00
        -11   -1    0    0    0    0  0.00000000000E+00  0.00000000000E+00  0.45593999997E+02  0.45594000000E+02  0.51100000000E-03 0.  1.
         11   -1    0    0    0    0 -0.00000000000E+00 -0.00000000000E+00 -0.45593999997E+02  0.45594000000E+02  0.51100000000E-03 0. -1.
         23    2    1    2    0    0  0.00000000000E+00 -0.88817841970E-15 -0.35527136788E-14  0.91188000000E+02  0.91188000000E+02 0.  0.
    9900012    2    3    3    0    0  0.20970978111E+02 -0.59320797042E+01 -0.29678423932E+02  0.54367077420E+02  0.39999984595E+02 0.  0.
        -12    1    3    3    0    0 -0.20970978111E+02  0.59320797042E+01  0.29678423932E+02  0.36820922580E+02  0.00000000000E+00 0.  1.
         11    1    4    4    0    0 -0.34604084402E+01 -0.22742623155E+01 -0.74561135283E+01  0.85287938690E+01  0.51100000000E-03 0. -1.
        -11    1    4    4    0    0  0.17813066605E+02  0.12546405851E+02 -0.16803516009E+02  0.27515010307E+02  0.51100000000E-03 0.  1.
         12    1    4    4    0    0  0.66183199464E+01 -0.16204223240E+02 -0.54187943939E+01  0.18323273245E+02  0.00000000000E+00 0. -1.
</event>
<event>
 8    1  0.2553474E-006  0.9118800E+02  0.7816164E-02  0.1184000E+00
        -11   -1    0    0    0    0  0.00000000000E+00  0.00000000000E+00  0.45593999997E+02  0.45594000000E+02  0.51100000000E-03 0.  1.
         11   -1    0    0    0    0 -0.00000000000E+00 -0.00000000000E+00 -0.45593999997E+02  0.45594000000E+02  0.51100000000E-03 0. -1.
         23    2    1    2    0    0  0.35527136788E-14  0.00000000000E+00  0.44408920985E-15  0.91188000000E+02  0.91188000000E+02 0.  0.
    9900012    2    3    3    0    0 -0.21117174319E+02 -0.30147200945E+02 -0.99497882991E+00  0.54367098885E+02  0.40000033528E+02 0.  0.
         12    1    3    3    0    0  0.21117174319E+02  0.30147200945E+02  0.99497882991E+00  0.36820901115E+02  0.00000000000E+00 0. -1.
         11    1    4    4    0    0 -0.14778800641E+02 -0.28804117484E+02  0.81847568505E+01  0.33392819249E+02  0.51100000000E-03 0. -1.
        -11    1    4    4    0    0  0.20037483935E+01 -0.25628309109E+01  0.41064646816E+01  0.52389085070E+01  0.51100000000E-03 0.  1.
         12    1    4    4    0    0 -0.83421220714E+01  0.12197474499E+01 -0.13286200362E+02  0.15735371129E+02  0.00000000000E+00 0. -1.
</event>
<event>
 8    1  0.2553474E-006  0.9118800E+02  0.7816164E-02  0.1184000E+00
        -11   -1    0    0    0    0  0.00000000000E+00  0.00000000000E+00  0.45593999997E+02  0.45594000000E+02  0.51100000000E-03 0.  1.
         11   -1    0    0    0    0 -0.00000000000E+00 -0.00000000000E+00 -0.45593999997E+02  0.45594000000E+02  0.51100000000E-03 0. -1.
         23    2    1    2    0    0  0.00000000000E+00  0.71054273576E-14  0.00000000000E+00  0.91188000000E+02  0.91188000000E+02 0.  0.
    9900012    2    3    3    0    0 -0.62581279357E+01 -0.33806921583E+02 -0.13179823694E+02  0.54367083868E+02  0.39999999294E+02 0.  0.
        -12    1    3    3    0    0  0.62581279357E+01  0.33806921583E+02  0.13179823694E+02  0.36820916132E+02  0.00000000000E+00 0.  1.
         11    1    4    4    0    0  0.28428284418E+00 -0.13477007137E+02 -0.19557915833E+02  0.23753370500E+02  0.51100000000E-03 0. -1.
        -11    1    4    4    0    0 -0.20153135055E+01 -0.17537918453E+02  0.13142753342E+02  0.22008453782E+02  0.51100000000E-03 0.  1.
         12    1    4    4    0    0 -0.45270972745E+01 -0.27919959932E+01 -0.67646612026E+01  0.86052595861E+01  0.00000000000E+00 0. -1.
</event>
<event>
 8    1  0.2553474E-006  0.9118800E+02  0.7816164E-02  0.1184000E+00
        -11   -1    0    0    0    0  0.00000000000E+00  0.00000000000E+00  0.45593999997E+02  0.45594000000E+02  0.51100000000E-03 0.  1.
         11   -1    0    0    0    0 -0.00000000000E+00 -0.00000000000E+00 -0.45593999997E+02  0.45594000000E+02  0.51100000000E-03 0. -1.
         23    2    1    2    0    0  0.35527136788E-14  0.00000000000E+00  0.35527136788E-14  0.91188000000E+02  0.91188000000E+02 0.  0.
    9900012    2    3    3    0    0 -0.28258947552E+02  0.67476358253E+01  0.22620364428E+02  0.54367087561E+02  0.40000007713E+02 0.  0.
         12    1    3    3    0    0  0.28258947552E+02 -0.67476358253E+01 -0.22620364428E+02  0.36820912439E+02  0.00000000000E+00 0. -1.
         11    1    4    4    0    0 -0.28269519086E+00  0.17612441218E+02  0.50110161696E+01  0.18313609299E+02  0.51100000000E-03 0. -1.
        -11    1    4    4    0    0 -0.13486408000E+02 -0.96304224368E+00  0.10496733569E+02  0.17117011041E+02  0.51100000000E-03 0.  1.
         12    1    4    4    0    0 -0.14489844361E+02 -0.99017631494E+01  0.71126146889E+01  0.18936467221E+02  0.00000000000E+00 0. -1.
</event>
<event>
 8    1  0.2553474E-006  0.9118800E+02  0.7816164E-02  0.1184000E+00
        -11   -1    0    0    0    0  0.00000000000E+00  0.00000000000E+00  0.45593999997E+02  0.45594000000E+02  0.51100000000E-03 0. -1.
         11   -1    0    0    0    0 -0.00000000000E+00 -0.00000000000E+00 -0.45593999997E+02  0.45594000000E+02  0.51100000000E-03 0.  1.
         23    2    1    2    0    0 -0.35527136788E-14  0.00000000000E+00 -0.35527136788E-14  0.91188000000E+02  0.91188000000E+02 0.  0.
    9900012    2    3    3    0    0 -0.25713913680E+02 -0.17900598580E+02 -0.19342784703E+02  0.54367080588E+02  0.39999991816E+02 0.  0.
         12    1    3    3    0    0  0.25713913680E+02  0.17900598580E+02  0.19342784703E+02  0.36820919412E+02  0.00000000000E+00 0. -1.
         11    1    4    4    0    0 -0.22514615529E+02 -0.30017095841E+01  0.15110167900E+01  0.22764036216E+02  0.51100000000E-03 0. -1.
        -11    1    4    4    0    0 -0.85373149823E+01 -0.16135638318E+02 -0.16449778517E+02  0.24573151701E+02  0.51100000000E-03 0.  1.
         12    1    4    4    0    0  0.53380168314E+01  0.12367493217E+01 -0.44040229764E+01  0.70298926701E+01  0.00000000000E+00 0. -1.
</event>
<event>
 8    1  0.2553474E-006  0.9118800E+02  0.7816164E-02  0.1184000E+00
        -11   -1    0    0    0    0  0.00000000000E+00  0.00000000000E+00  0.45593999997E+02  0.45594000000E+02  0.51100000000E-03 0.  1.
         11   -1    0    0    0    0 -0.00000000000E+00 -0.00000000000E+00 -0.45593999997E+02  0.45594000000E+02  0.51100000000E-03 0. -1.
         23    2    1    2    0    0  0.00000000000E+00  0.00000000000E+00 -0.17763568394E-14  0.91188000000E+02  0.91188000000E+02 0.  0.
    9900012    2    3    3    0    0  0.71004594955E+01 -0.33373371901E+02 -0.13841287610E+02  0.54367085837E+02  0.40000003782E+02 0.  0.
        -12    1    3    3    0    0 -0.71004594955E+01  0.33373371901E+02  0.13841287610E+02  0.36820914163E+02  0.00000000000E+00 0.  1.
         11    1    4    4    0    0  0.77298479887E+01 -0.54299882677E+01 -0.11938922808E+01  0.95215913352E+01  0.51100000000E-03 0. -1.
        -11    1    4    4    0    0 -0.13551197863E+02 -0.25339901043E+02 -0.38372905452E+01  0.28990866619E+02  0.51100000000E-03 0.  1.
        -12    1    4    4    0    0  0.12921809369E+02 -0.26034825912E+01 -0.88101047836E+01  0.15854627882E+02  0.00000000000E+00 0.  1.
</event>
<event>
 8    1  0.2553474E-006  0.9118800E+02  0.7816164E-02  0.1184000E+00
        -11   -1    0    0    0    0  0.00000000000E+00  0.00000000000E+00  0.45593999997E+02  0.45594000000E+02  0.51100000000E-03 0.  1.
         11   -1    0    0    0    0 -0.00000000000E+00 -0.00000000000E+00 -0.45593999997E+02  0.45594000000E+02  0.51100000000E-03 0. -1.
         23    2    1    2    0    0 -0.17763568394E-14  0.00000000000E+00  0.00000000000E+00  0.91188000000E+02  0.91188000000E+02 0.  0.
    9900012    2    3    3    0    0  0.81345903549E+01 -0.29740753905E+02  0.20126980562E+02  0.54367090864E+02  0.40000015243E+02 0.  0.
         12    1    3    3    0    0 -0.81345903549E+01  0.29740753905E+02 -0.20126980562E+02  0.36820909136E+02  0.00000000000E+00 0. -1.
         11    1    4    4    0    0 -0.40503638037E+00 -0.45000901490E+01 -0.11781220687E+01  0.46693508852E+01  0.51100000000E-03 0. -1.
        -11    1    4    4    0    0 -0.11240380144E+02 -0.17753794127E+02  0.20790659523E+01  0.21115536157E+02  0.51100000000E-03 0.  1.
        -12    1    4    4    0    0  0.19780006879E+02 -0.74868696286E+01  0.19226036678E+02  0.28582203822E+02  0.00000000000E+00 0.  1.
</event>
<event>
 8    1  0.2553474E-006  0.9118800E+02  0.7816164E-02  0.1184000E+00
        -11   -1    0    0    0    0  0.00000000000E+00  0.00000000000E+00  0.45593999997E+02  0.45594000000E+02  0.51100000000E-03 0. -1.
         11   -1    0    0    0    0 -0.00000000000E+00 -0.00000000000E+00 -0.45593999997E+02  0.45594000000E+02  0.51100000000E-03 0.  1.
         23    2    1    2    0    0  0.35527136788E-14  0.00000000000E+00  0.71054273576E-14  0.91188000000E+02  0.91188000000E+02 0.  0.
    9900012    2    3    3    0    0 -0.18975207007E+02 -0.20153954345E+02 -0.24280506664E+02  0.54367036398E+02  0.39999891076E+02 0.  0.
         12    1    3    3    0    0  0.18975207007E+02  0.20153954345E+02  0.24280506664E+02  0.36820963602E+02  0.00000000000E+00 0. -1.
         11    1    4    4    0    0  0.22479746596E+01  0.68340981835E+01  0.12335945325E+01  0.72993180355E+01  0.51100000000E-03 0.  1.
        -11    1    4    4    0    0 -0.28560359295E+01 -0.24065288856E+01  0.32929395909E+01  0.49791338522E+01  0.51100000000E-03 0. -1.
        -12    1    4    4    0    0 -0.18367145737E+02 -0.24581523643E+02 -0.28807040788E+02  0.42088584510E+02  0.00000000000E+00 0.  1.
</event>
<event>
 8    1  0.2553474E-006  0.9118800E+02  0.7816164E-02  0.1184000E+00
        -11   -1    0    0    0    0  0.00000000000E+00  0.00000000000E+00  0.45593999997E+02  0.45594000000E+02  0.51100000000E-03 0. -1.
         11   -1    0    0    0    0 -0.00000000000E+00 -0.00000000000E+00 -0.45593999997E+02  0.45594000000E+02  0.51100000000E-03 0.  1.
         23    2    1    2    0    0  0.00000000000E+00 -0.35527136788E-14 -0.44408920985E-15  0.91188000000E+02  0.91188000000E+02 0.  0.
    9900012    2    3    3    0    0 -0.31442769303E+02 -0.18983166931E+02  0.26022861689E+01  0.54367078481E+02  0.39999987013E+02 0.  0.
         12    1    3    3    0    0  0.31442769303E+02  0.18983166931E+02 -0.26022861689E+01  0.36820921519E+02  0.00000000000E+00 0. -1.
         11    1    4    4    0    0  0.10268599001E+01  0.62142170673E-01  0.14001257202E+02  0.14038999480E+02  0.51100000000E-03 0. -1.
        -11    1    4    4    0    0 -0.88199655126E+01 -0.28417044167E+01  0.51978489217E+00  0.92810156896E+01  0.51100000000E-03 0.  1.
         12    1    4    4    0    0 -0.23649663691E+02 -0.16203604685E+02 -0.11918755925E+02  0.31047063312E+02  0.00000000000E+00 0. -1.
</event>
<event>
 8    1  0.2553474E-006  0.9118800E+02  0.7816164E-02  0.1184000E+00
        -11   -1    0    0    0    0  0.00000000000E+00  0.00000000000E+00  0.45593999997E+02  0.45594000000E+02  0.51100000000E-03 0. -1.
         11   -1    0    0    0    0 -0.00000000000E+00 -0.00000000000E+00 -0.45593999997E+02  0.45594000000E+02  0.51100000000E-03 0.  1.
         23    2    1    2    0    0  0.00000000000E+00  0.00000000000E+00  0.00000000000E+00  0.91188000000E+02  0.91188000000E+02 0.  0.
    9900012    2    3    3    0    0  0.31876267680E+02  0.10612259373E+02  0.15068627411E+02  0.54367081729E+02  0.39999994418E+02 0.  0.
        -12    1    3    3    0    0 -0.31876267680E+02 -0.10612259373E+02 -0.15068627411E+02  0.36820918271E+02  0.00000000000E+00 0.  1.
         11    1    4    4    0    0  0.23032844878E+01 -0.50656700838E+01  0.10494236734E+02  0.11878347432E+02  0.51100000000E-03 0. -1.
        -11    1    4    4    0    0  0.25252924855E+02  0.22639932784E+02  0.50097836784E+01  0.34283738171E+02  0.51100000000E-03 0.  1.
        -12    1    4    4    0    0  0.43200583371E+01 -0.69620033268E+01 -0.43539300145E+00  0.82049961258E+01  0.00000000000E+00 0.  1.
</event>
<event>
 8    1  0.2553474E-006  0.9118800E+02  0.7816164E-02  0.1184000E+00
        -11   -1    0    0    0    0  0.00000000000E+00  0.00000000000E+00  0.45593999997E+02  0.45594000000E+02  0.51100000000E-03 0.  1.
         11   -1    0    0    0    0 -0.00000000000E+00 -0.00000000000E+00 -0.45593999997E+02  0.45594000000E+02  0.51100000000E-03 0. -1.
         23    2    1    2    0    0  0.44408920985E-15  0.00000000000E+00  0.22204460493E-15  0.91188000000E+02  0.91188000000E+02 0.  0.
    9900012    2    3    3    0    0 -0.26705207330E+01  0.36721394026E+02  0.43152829422E+00  0.54367099999E+02  0.40000036068E+02 0.  0.
        -12    1    3    3    0    0  0.26705207330E+01 -0.36721394026E+02 -0.43152829422E+00  0.36820900001E+02  0.00000000000E+00 0.  1.
         11    1    4    4    0    0 -0.14951905925E+01  0.18387611844E+02 -0.59452589965E+01  0.19382620283E+02  0.51100000000E-03 0. -1.
        -11    1    4    4    0    0 -0.32659712594E+01  0.25860494786E+02  0.74249630770E+01  0.27102801253E+02  0.51100000000E-03 0.  1.
        -12    1    4    4    0    0  0.20906411189E+01 -0.75267126040E+01 -0.10481757863E+01  0.78816784628E+01  0.00000000000E+00 0.  1.
</event>
<event>
 8    1  0.2553474E-006  0.9118800E+02  0.7816164E-02  0.1184000E+00
        -11   -1    0    0    0    0  0.00000000000E+00  0.00000000000E+00  0.45593999997E+02  0.45594000000E+02  0.51100000000E-03 0. -1.
         11   -1    0    0    0    0 -0.00000000000E+00 -0.00000000000E+00 -0.45593999997E+02  0.45594000000E+02  0.51100000000E-03 0.  1.
         23    2    1    2    0    0  0.00000000000E+00  0.17763568394E-14 -0.35527136788E-14  0.91188000000E+02  0.91188000000E+02 0.  0.
    9900012    2    3    3    0    0 -0.24390299228E+02  0.72550951818E+01 -0.26613149266E+02  0.54367043788E+02  0.39999907923E+02 0.  0.
         12    1    3    3    0    0  0.24390299228E+02 -0.72550951818E+01  0.26613149266E+02  0.36820956212E+02  0.00000000000E+00 0. -1.
         11    1    4    4    0    0  0.36003069033E+01  0.15932852238E+01 -0.18913726523E+02  0.19319156785E+02  0.51100000000E-03 0. -1.
        -11    1    4    4    0    0 -0.11446233512E+02 -0.68691619570E+01 -0.42460054982E+01  0.14008219392E+02  0.51100000000E-03 0.  1.
        -12    1    4    4    0    0 -0.16544372620E+02  0.12530971915E+02 -0.34534172441E+01  0.21039667611E+02  0.00000000000E+00 0.  1.
</event>
<event>
 8    1  0.2553474E-006  0.9118800E+02  0.7816164E-02  0.1184000E+00
        -11   -1    0    0    0    0  0.00000000000E+00  0.00000000000E+00  0.45593999997E+02  0.45594000000E+02  0.51100000000E-03 0. -1.
         11   -1    0    0    0    0 -0.00000000000E+00 -0.00000000000E+00 -0.45593999997E+02  0.45594000000E+02  0.51100000000E-03 0.  1.
         23    2    1    2    0    0  0.00000000000E+00  0.00000000000E+00  0.00000000000E+00  0.91188000000E+02  0.91188000000E+02 0.  0.
    9900012    2    3    3    0    0 -0.13854716604E+01  0.32558808845E+02  0.17140143452E+02  0.54367080909E+02  0.39999992549E+02 0.  0.
        -12    1    3    3    0    0  0.13854716604E+01 -0.32558808845E+02 -0.17140143452E+02  0.36820919091E+02  0.00000000000E+00 0.  1.
         11    1    4    4    0    0 -0.37756256591E+01  0.60149012814E+01 -0.11480330812E+02  0.13499347479E+02  0.51100000000E-03 0.  1.
        -11    1    4    4    0    0  0.66557776078E+00  0.19321924163E+02  0.27098581732E+02  0.33288329475E+02  0.51100000000E-03 0. -1.
         12    1    4    4    0    0  0.17245762379E+01  0.72219834003E+01  0.15218925321E+01  0.75794039550E+01  0.00000000000E+00 0. -1.
</event>
<event>
 8    1  0.2553474E-006  0.9118800E+02  0.7816164E-02  0.1184000E+00
        -11   -1    0    0    0    0  0.00000000000E+00  0.00000000000E+00  0.45593999997E+02  0.45594000000E+02  0.51100000000E-03 0. -1.
         11   -1    0    0    0    0 -0.00000000000E+00 -0.00000000000E+00 -0.45593999997E+02  0.45594000000E+02  0.51100000000E-03 0.  1.
         23    2    1    2    0    0  0.17763568394E-14 -0.44408920985E-15  0.00000000000E+00  0.91188000000E+02  0.91188000000E+02 0.  0.
    9900012    2    3    3    0    0 -0.12161240028E+02 -0.32794574927E+01 -0.34599537692E+02  0.54367100922E+02  0.40000038171E+02 0.  0.
         12    1    3    3    0    0  0.12161240028E+02  0.32794574927E+01  0.34599537692E+02  0.36820899078E+02  0.00000000000E+00 0. -1.
         11    1    4    4    0    0 -0.44588736140E+01 -0.78117096619E+01 -0.23290015130E+02  0.24966560972E+02  0.51100000000E-03 0. -1.
        -11    1    4    4    0    0 -0.43415414019E+01 -0.81666553094E+01 -0.13211747173E+02  0.16127414681E+02  0.51100000000E-03 0.  1.
         12    1    4    4    0    0 -0.33608250120E+01  0.12698907479E+02  0.19022246113E+01  0.13273125268E+02  0.00000000000E+00 0. -1.
</event>
<event>
 8    1  0.2553474E-006  0.9118800E+02  0.7816164E-02  0.1184000E+00
        -11   -1    0    0    0    0  0.00000000000E+00  0.00000000000E+00  0.45593999997E+02  0.45594000000E+02  0.51100000000E-03 0. -1.
         11   -1    0    0    0    0 -0.00000000000E+00 -0.00000000000E+00 -0.45593999997E+02  0.45594000000E+02  0.51100000000E-03 0.  1.
         23    2    1    2    0    0  0.00000000000E+00 -0.35527136788E-14  0.88817841970E-15  0.91188000000E+02  0.91188000000E+02 0.  0.
    9900012    2    3    3    0    0 -0.33592594360E+02  0.13486983050E+02 -0.67393066638E+01  0.54367090697E+02  0.40000014861E+02 0.  0.
         12    1    3    3    0    0  0.33592594360E+02 -0.13486983050E+02  0.67393066638E+01  0.36820909303E+02  0.00000000000E+00 0. -1.
         11    1    4    4    0    0 -0.22024806735E+02  0.19577220083E+02 -0.35292929007E+01  0.29678537135E+02  0.51100000000E-03 0. -1.
        -11    1    4    4    0    0 -0.17173586391E+01 -0.54248301207E+00 -0.10879337774E+02  0.11027402195E+02  0.51100000000E-03 0.  1.
        -12    1    4    4    0    0 -0.98504289861E+01 -0.55477540205E+01  0.76693240105E+01  0.13661151367E+02  0.00000000000E+00 0.  1.
</event>
<event>
 8    1  0.2553474E-006  0.9118800E+02  0.7816164E-02  0.1184000E+00
        -11   -1    0    0    0    0  0.00000000000E+00  0.00000000000E+00  0.45593999997E+02  0.45594000000E+02  0.51100000000E-03 0. -1.
         11   -1    0    0    0    0 -0.00000000000E+00 -0.00000000000E+00 -0.45593999997E+02  0.45594000000E+02  0.51100000000E-03 0.  1.
         23    2    1    2    0    0  0.35527136788E-14  0.17763568394E-14  0.00000000000E+00  0.91188000000E+02  0.91188000000E+02 0.  0.
    9900012    2    3    3    0    0 -0.30619368790E+02  0.81505858903E+01  0.18756381503E+02  0.54367086886E+02  0.40000006173E+02 0.  0.
        -12    1    3    3    0    0  0.30619368790E+02 -0.81505858903E+01 -0.18756381503E+02  0.36820913114E+02  0.00000000000E+00 0.  1.
         11    1    4    4    0    0 -0.10315712965E+02 -0.14512921881E+02  0.55662866971E+01  0.18655358033E+02  0.51100000000E-03 0. -1.
        -11    1    4    4    0    0 -0.10885044928E+02  0.20784261137E+02  0.10718788958E+02  0.25794614769E+02  0.51100000000E-03 0.  1.
        -12    1    4    4    0    0 -0.94186108972E+01  0.18792466345E+01  0.24713058479E+01  0.99171140833E+01  0.00000000000E+00 0.  1.
</event>
<event>
 8    1  0.2553474E-006  0.9118800E+02  0.7816164E-02  0.1184000E+00
        -11   -1    0    0    0    0  0.00000000000E+00  0.00000000000E+00  0.45593999997E+02  0.45594000000E+02  0.51100000000E-03 0. -1.
         11   -1    0    0    0    0 -0.00000000000E+00 -0.00000000000E+00 -0.45593999997E+02  0.45594000000E+02  0.51100000000E-03 0.  1.
         23    2    1    2    0    0 -0.35527136788E-14  0.00000000000E+00  0.00000000000E+00  0.91188000000E+02  0.91188000000E+02 0.  0.
    9900012    2    3    3    0    0  0.17514421974E+02 -0.26180409383E+02  0.19068611049E+02  0.54367071985E+02  0.39999972204E+02 0.  0.
        -12    1    3    3    0    0 -0.17514421974E+02  0.26180409383E+02 -0.19068611049E+02  0.36820928015E+02  0.00000000000E+00 0.  1.
         11    1    4    4    0    0  0.73104655137E+00 -0.47743222268E+01 -0.94956736811E+00  0.49224242232E+01  0.51100000000E-03 0. -1.
        -11    1    4    4    0    0 -0.22952303324E+01  0.44652719572E+00  0.20299920462E+02  0.20434143972E+02  0.51100000000E-03 0.  1.
        -12    1    4    4    0    0  0.19078605755E+02 -0.21852614352E+02 -0.28174204515E+00  0.29010503790E+02  0.00000000000E+00 0.  1.
</event>
<event>
 8    1  0.2553474E-006  0.9118800E+02  0.7816164E-02  0.1184000E+00
        -11   -1    0    0    0    0  0.00000000000E+00  0.00000000000E+00  0.45593999997E+02  0.45594000000E+02  0.51100000000E-03 0. -1.
         11   -1    0    0    0    0 -0.00000000000E+00 -0.00000000000E+00 -0.45593999997E+02  0.45594000000E+02  0.51100000000E-03 0.  1.
         23    2    1    2    0    0  0.00000000000E+00  0.35527136788E-14  0.26645352591E-14  0.91188000000E+02  0.91188000000E+02 0.  0.
    9900012    2    3    3    0    0 -0.28794816051E+02 -0.21874084186E+02 -0.69399835564E+01  0.54367077115E+02  0.39999983898E+02 0.  0.
        -12    1    3    3    0    0  0.28794816051E+02  0.21874084186E+02  0.69399835564E+01  0.36820922885E+02  0.00000000000E+00 0.  1.
         11    1    4    4    0    0 -0.19954143899E+02 -0.12247546464E+02  0.26727664227E+01  0.23565099909E+02  0.51100000000E-03 0. -1.
        -11    1    4    4    0    0 -0.98742433900E+01 -0.11622383490E+02  0.49754251062E+01  0.16041674967E+02  0.51100000000E-03 0.  1.
        -12    1    4    4    0    0  0.10335712380E+01  0.19958457679E+01 -0.14588175085E+02  0.14760302238E+02  0.00000000000E+00 0.  1.
</event>
<event>
 8    1  0.2553474E-006  0.9118800E+02  0.7816164E-02  0.1184000E+00
        -11   -1    0    0    0    0  0.00000000000E+00  0.00000000000E+00  0.45593999997E+02  0.45594000000E+02  0.51100000000E-03 0.  1.
         11   -1    0    0    0    0 -0.00000000000E+00 -0.00000000000E+00 -0.45593999997E+02  0.45594000000E+02  0.51100000000E-03 0. -1.
         23    2    1    2    0    0 -0.22204460493E-15  0.35527136788E-14  0.71054273576E-14  0.91188000000E+02  0.91188000000E+02 0.  0.
    9900012    2    3    3    0    0 -0.17396622615E+01  0.13157012467E+02  0.34345981464E+02  0.54367084142E+02  0.39999999920E+02 0.  0.
         12    1    3    3    0    0  0.17396622615E+01 -0.13157012467E+02 -0.34345981464E+02  0.36820915858E+02  0.00000000000E+00 0. -1.
         11    1    4    4    0    0  0.12767525267E+01  0.95993266244E+00 -0.33529286385E+01  0.37139868668E+01  0.51100000000E-03 0. -1.
        -11    1    4    4    0    0 -0.88789790553E+01 -0.85047466825E+01  0.12878149362E+02  0.17804879007E+02  0.51100000000E-03 0.  1.
         12    1    4    4    0    0  0.58625642670E+01  0.20701826487E+02  0.24820760741E+02  0.32848218269E+02  0.00000000000E+00 0. -1.
</event>
<event>
 8    1  0.2553474E-006  0.9118800E+02  0.7816164E-02  0.1184000E+00
        -11   -1    0    0    0    0  0.00000000000E+00  0.00000000000E+00  0.45593999997E+02  0.45594000000E+02  0.51100000000E-03 0.  1.
         11   -1    0    0    0    0 -0.00000000000E+00 -0.00000000000E+00 -0.45593999997E+02  0.45594000000E+02  0.51100000000E-03 0. -1.
         23    2    1    2    0    0  0.35527136788E-14  0.00000000000E+00  0.35527136788E-14  0.91188000000E+02  0.91188000000E+02 0.  0.
    9900012    2    3    3    0    0  0.13666623975E+02 -0.23760230196E+02  0.24585657790E+02  0.54367085850E+02  0.40000003813E+02 0.  0.
         12    1    3    3    0    0 -0.13666623975E+02  0.23760230196E+02 -0.24585657790E+02  0.36820914150E+02  0.00000000000E+00 0. -1.
         11    1    4    4    0    0 -0.15791925768E+01 -0.96762924198E+01  0.23124081819E+02  0.25116680602E+02  0.51100000000E-03 0. -1.
        -11    1    4    4    0    0 -0.38177350853E+01  0.10826928657E+01  0.27940495254E+01  0.48532502547E+01  0.51100000000E-03 0.  1.
        -12    1    4    4    0    0  0.19063551637E+02 -0.15166630642E+02 -0.13324735548E+01  0.24397154994E+02  0.00000000000E+00 0.  1.
</event>
<event>
 8    1  0.2553474E-006  0.9118800E+02  0.7816164E-02  0.1184000E+00
        -11   -1    0    0    0    0  0.00000000000E+00  0.00000000000E+00  0.45593999997E+02  0.45594000000E+02  0.51100000000E-03 0.  1.
         11   -1    0    0    0    0 -0.00000000000E+00 -0.00000000000E+00 -0.45593999997E+02  0.45594000000E+02  0.51100000000E-03 0. -1.
         23    2    1    2    0    0 -0.35527136788E-14  0.35527136788E-14  0.00000000000E+00  0.91188000000E+02  0.91188000000E+02 0.  0.
    9900012    2    3    3    0    0 -0.17366658494E+02  0.31165832366E+02 -0.91033092646E+01  0.54367079671E+02  0.39999989726E+02 0.  0.
        -12    1    3    3    0    0  0.17366658494E+02 -0.31165832366E+02  0.91033092646E+01  0.36820920329E+02  0.00000000000E+00 0.  1.
         11    1    4    4    0    0  0.30751965109E-01  0.64616538529E+00  0.13088335573E+01  0.14599729211E+01  0.51100000000E-03 0. -1.
        -11    1    4    4    0    0 -0.12761757150E+02 -0.37464076295E+00  0.94529745855E+01  0.15885890911E+02  0.51100000000E-03 0.  1.
         12    1    4    4    0    0 -0.46356533085E+01  0.30894307744E+02 -0.19865117407E+02  0.37021215839E+02  0.00000000000E+00 0. -1.
</event>
<event>
 8    1  0.2553474E-006  0.9118800E+02  0.7816164E-02  0.1184000E+00
        -11   -1    0    0    0    0  0.00000000000E+00  0.00000000000E+00  0.45593999997E+02  0.45594000000E+02  0.51100000000E-03 0.  1.
         11   -1    0    0    0    0 -0.00000000000E+00 -0.00000000000E+00 -0.45593999997E+02  0.45594000000E+02  0.51100000000E-03 0. -1.
         23    2    1    2    0    0 -0.22204460493E-14 -0.35527136788E-14  0.00000000000E+00  0.91188000000E+02  0.91188000000E+02 0.  0.
    9900012    2    3    3    0    0 -0.29580427394E+01 -0.18069037792E+02 -0.31945894117E+02  0.54367078033E+02  0.39999985992E+02 0.  0.
         12    1    3    3    0    0  0.29580427394E+01  0.18069037792E+02  0.31945894117E+02  0.36820921967E+02  0.00000000000E+00 0. -1.
         11    1    4    4    0    0  0.10062116971E+01 -0.58974993627E+01 -0.57671871524E+01  0.83098380624E+01  0.51100000000E-03 0. -1.
        -11    1    4    4    0    0  0.11768992119E+02 -0.65636427898E+01 -0.26078243873E+02  0.29354137459E+02  0.51100000000E-03 0.  1.
        -12    1    4    4    0    0 -0.15733246556E+02 -0.56078956393E+01 -0.10046309136E+00  0.16703102512E+02  0.00000000000E+00 0.  1.
</event>
<event>
 8    1  0.2553474E-006  0.9118800E+02  0.7816164E-02  0.1184000E+00
        -11   -1    0    0    0    0  0.00000000000E+00  0.00000000000E+00  0.45593999997E+02  0.45594000000E+02  0.51100000000E-03 0.  1.
         11   -1    0    0    0    0 -0.00000000000E+00 -0.00000000000E+00 -0.45593999997E+02  0.45594000000E+02  0.51100000000E-03 0. -1.
         23    2    1    2    0    0  0.16653345369E-15  0.00000000000E+00  0.17763568394E-14  0.91188000000E+02  0.91188000000E+02 0.  0.
    9900012    2    3    3    0    0  0.45630013826E+00  0.35842217830E+02 -0.84207283581E+01  0.54367062276E+02  0.39999950070E+02 0.  0.
        -12    1    3    3    0    0 -0.45630013826E+00 -0.35842217830E+02  0.84207283581E+01  0.36820937724E+02  0.00000000000E+00 0.  1.
         11    1    4    4    0    0 -0.12924240066E+01  0.37444314537E+01 -0.33684142917E+01  0.51997444001E+01  0.51100000000E-03 0. -1.
        -11    1    4    4    0    0  0.14071807350E+02  0.21304864145E+02  0.95129422746E+01  0.27247184613E+02  0.51100000000E-03 0.  1.
        -12    1    4    4    0    0 -0.12323083205E+02  0.10792922232E+02 -0.14565256341E+02  0.21920133263E+02  0.00000000000E+00 0.  1.
</event>
<event>
 8    1  0.2553474E-006  0.9118800E+02  0.7816164E-02  0.1184000E+00
        -11   -1    0    0    0    0  0.00000000000E+00  0.00000000000E+00  0.45593999997E+02  0.45594000000E+02  0.51100000000E-03 0. -1.
         11   -1    0    0    0    0 -0.00000000000E+00 -0.00000000000E+00 -0.45593999997E+02  0.45594000000E+02  0.51100000000E-03 0.  1.
         23    2    1    2    0    0  0.17763568394E-14  0.17763568394E-14  0.00000000000E+00  0.91188000000E+02  0.91188000000E+02 0.  0.
    9900012    2    3    3    0    0  0.98882795368E+01  0.10729243831E+02  0.33806574566E+02  0.54367092498E+02  0.40000018968E+02 0.  0.
        -12    1    3    3    0    0 -0.98882795368E+01 -0.10729243831E+02 -0.33806574566E+02  0.36820907502E+02  0.00000000000E+00 0.  1.
         11    1    4    4    0    0  0.25475272398E+01  0.16462222578E+01  0.54689248713E+01  0.62537254711E+01  0.51100000000E-03 0. -1.
        -11    1    4    4    0    0  0.62507406316E+01 -0.10187672385E+02 -0.20371749868E+01  0.12124789040E+02  0.51100000000E-03 0.  1.
        -12    1    4    4    0    0  0.10900116654E+01  0.19270693958E+02  0.30374824682E+02  0.35988577987E+02  0.00000000000E+00 0.  1.
</event>
<event>
 8    1  0.2553474E-006  0.9118800E+02  0.7816164E-02  0.1184000E+00
        -11   -1    0    0    0    0  0.00000000000E+00  0.00000000000E+00  0.45593999997E+02  0.45594000000E+02  0.51100000000E-03 0.  1.
         11   -1    0    0    0    0 -0.00000000000E+00 -0.00000000000E+00 -0.45593999997E+02  0.45594000000E+02  0.51100000000E-03 0. -1.
         23    2    1    2    0    0  0.00000000000E+00  0.00000000000E+00  0.35527136788E-14  0.91188000000E+02  0.91188000000E+02 0.  0.
    9900012    2    3    3    0    0 -0.19397303676E+02  0.25386716089E+02  0.18304070983E+02  0.54367085316E+02  0.40000002594E+02 0.  0.
         12    1    3    3    0    0  0.19397303676E+02 -0.25386716089E+02 -0.18304070983E+02  0.36820914684E+02  0.00000000000E+00 0. -1.
         11    1    4    4    0    0  0.13145566991E+01 -0.13516382118E+01  0.13953453896E+01  0.23456287405E+01  0.51100000000E-03 0. -1.
        -11    1    4    4    0    0  0.16845671759E+01  0.23011096621E+01 -0.93233203635E+01  0.97497269249E+01  0.51100000000E-03 0.  1.
        -12    1    4    4    0    0 -0.22396427551E+02  0.24437244638E+02  0.26232045957E+02  0.42271729650E+02  0.00000000000E+00 0.  1.
</event>
<event>
 8    1  0.2553474E-006  0.9118800E+02  0.7816164E-02  0.1184000E+00
        -11   -1    0    0    0    0  0.00000000000E+00  0.00000000000E+00  0.45593999997E+02  0.45594000000E+02  0.51100000000E-03 0.  1.
         11   -1    0    0    0    0 -0.00000000000E+00 -0.00000000000E+00 -0.45593999997E+02  0.45594000000E+02  0.51100000000E-03 0. -1.
         23    2    1    2    0    0  0.00000000000E+00  0.00000000000E+00 -0.88817841970E-15  0.91188000000E+02  0.91188000000E+02 0.  0.
    9900012    2    3    3    0    0  0.32950397562E+02  0.15485036306E+02  0.55013859108E+01  0.54367078015E+02  0.39999985950E+02 0.  0.
         12    1    3    3    0    0 -0.32950397562E+02 -0.15485036306E+02 -0.55013859108E+01  0.36820921985E+02  0.00000000000E+00 0. -1.
         11    1    4    4    0    0  0.19826172851E+02  0.23375519804E+01 -0.50324559400E+01  0.20588027886E+02  0.51100000000E-03 0. -1.
        -11    1    4    4    0    0 -0.74493890797E+01  0.49987619761E+01  0.69804541221E+01  0.11366959091E+02  0.51100000000E-03 0.  1.
        -12    1    4    4    0    0  0.20573613791E+02  0.81487223494E+01  0.35533877287E+01  0.22412091038E+02  0.00000000000E+00 0.  1.
</event>
<event>
 8    1  0.2553474E-006  0.9118800E+02  0.7816164E-02  0.1184000E+00
        -11   -1    0    0    0    0  0.00000000000E+00  0.00000000000E+00  0.45593999997E+02  0.45594000000E+02  0.51100000000E-03 0.  1.
         11   -1    0    0    0    0 -0.00000000000E+00 -0.00000000000E+00 -0.45593999997E+02  0.45594000000E+02  0.51100000000E-03 0. -1.
         23    2    1    2    0    0  0.00000000000E+00 -0.17763568394E-14 -0.71054273576E-14  0.91188000000E+02  0.91188000000E+02 0.  0.
    9900012    2    3    3    0    0 -0.39063249461E+01  0.15216281224E+02  0.33301432976E+02  0.54367081664E+02  0.39999994269E+02 0.  0.
         12    1    3    3    0    0  0.39063249461E+01 -0.15216281224E+02 -0.33301432976E+02  0.36820918336E+02  0.00000000000E+00 0. -1.
         11    1    4    4    0    0  0.19262137139E+01 -0.90378116195E+00 -0.76861395332E+00  0.22622748132E+01  0.51100000000E-03 0.  1.
        -11    1    4    4    0    0 -0.67971033173E+01  0.56717960370E+01 -0.59930296205E+01  0.10690476513E+02  0.51100000000E-03 0. -1.
        -12    1    4    4    0    0  0.96456465733E+00  0.10448266349E+02  0.40063076549E+02  0.41414330337E+02  0.00000000000E+00 0.  1.
</event>
<event>
 8    1  0.2553474E-006  0.9118800E+02  0.7816164E-02  0.1184000E+00
        -11   -1    0    0    0    0  0.00000000000E+00  0.00000000000E+00  0.45593999997E+02  0.45594000000E+02  0.51100000000E-03 0.  1.
         11   -1    0    0    0    0 -0.00000000000E+00 -0.00000000000E+00 -0.45593999997E+02  0.45594000000E+02  0.51100000000E-03 0. -1.
         23    2    1    2    0    0  0.17763568394E-14  0.35527136788E-14 -0.35527136788E-14  0.91188000000E+02  0.91188000000E+02 0.  0.
    9900012    2    3    3    0    0 -0.93512589683E+01 -0.26268035517E+02  0.24048364749E+02  0.54367087717E+02  0.40000008069E+02 0.  0.
         12    1    3    3    0    0  0.93512589683E+01  0.26268035517E+02 -0.24048364749E+02  0.36820912283E+02  0.00000000000E+00 0. -1.
         11    1    4    4    0    0  0.32886292228E+01 -0.18826290336E+02  0.55604919834E+01  0.19903852927E+02  0.51100000000E-03 0. -1.
        -11    1    4    4    0    0  0.57280611183E+01 -0.80316296680E+01  0.26803540389E+01  0.10222624777E+02  0.51100000000E-03 0.  1.
         12    1    4    4    0    0 -0.18367949309E+02  0.58988448629E+00  0.15807518727E+02  0.24240610014E+02  0.00000000000E+00 0. -1.
</event>
<event>
 8    1  0.2553474E-006  0.9118800E+02  0.7816164E-02  0.1184000E+00
        -11   -1    0    0    0    0  0.00000000000E+00  0.00000000000E+00  0.45593999997E+02  0.45594000000E+02  0.51100000000E-03 0.  1.
         11   -1    0    0    0    0 -0.00000000000E+00 -0.00000000000E+00 -0.45593999997E+02  0.45594000000E+02  0.51100000000E-03 0. -1.
         23    2    1    2    0    0  0.00000000000E+00  0.00000000000E+00  0.00000000000E+00  0.91188000000E+02  0.91188000000E+02 0.  0.
    9900012    2    3    3    0    0 -0.33289580630E+02 -0.44818087073E+01 -0.15082981458E+02  0.54367094016E+02  0.40000022428E+02 0.  0.
        -12    1    3    3    0    0  0.33289580630E+02  0.44818087073E+01  0.15082981458E+02  0.36820905984E+02  0.00000000000E+00 0.  1.
         11    1    4    4    0    0 -0.15465491080E+02  0.38964492623E+01 -0.91628768218E+01  0.18393532644E+02  0.51100000000E-03 0.  1.
        -11    1    4    4    0    0 -0.24925136094E+02 -0.17233578648E+01 -0.84783542695E+00  0.24999023917E+02  0.51100000000E-03 0. -1.
        -12    1    4    4    0    0  0.71010465438E+01 -0.66549001047E+01 -0.50722692093E+01  0.10974537455E+02  0.00000000000E+00 0.  1.
</event>
<event>
 8    1  0.2553474E-006  0.9118800E+02  0.7816164E-02  0.1184000E+00
        -11   -1    0    0    0    0  0.00000000000E+00  0.00000000000E+00  0.45593999997E+02  0.45594000000E+02  0.51100000000E-03 0.  1.
         11   -1    0    0    0    0 -0.00000000000E+00 -0.00000000000E+00 -0.45593999997E+02  0.45594000000E+02  0.51100000000E-03 0. -1.
         23    2    1    2    0    0  0.00000000000E+00 -0.17763568394E-14  0.00000000000E+00  0.91188000000E+02  0.91188000000E+02 0.  0.
    9900012    2    3    3    0    0  0.21414495374E+02  0.12380388579E+02  0.27274977015E+02  0.54367095548E+02  0.40000025922E+02 0.  0.
         12    1    3    3    0    0 -0.21414495374E+02 -0.12380388579E+02 -0.27274977015E+02  0.36820904452E+02  0.00000000000E+00 0. -1.
         11    1    4    4    0    0  0.19093685289E+02 -0.60268241703E+01  0.35351080377E+01  0.20331955552E+02  0.51100000000E-03 0. -1.
        -11    1    4    4    0    0  0.61494168236E+01  0.13021186397E+02  0.69459632394E+01  0.15987902552E+02  0.51100000000E-03 0.  1.
         12    1    4    4    0    0 -0.38286067383E+01  0.53860263528E+01  0.16793905737E+02  0.18047237444E+02  0.00000000000E+00 0. -1.
</event>
<event>
 8    1  0.2553474E-006  0.9118800E+02  0.7816164E-02  0.1184000E+00
        -11   -1    0    0    0    0  0.00000000000E+00  0.00000000000E+00  0.45593999997E+02  0.45594000000E+02  0.51100000000E-03 0.  1.
         11   -1    0    0    0    0 -0.00000000000E+00 -0.00000000000E+00 -0.45593999997E+02  0.45594000000E+02  0.51100000000E-03 0. -1.
         23    2    1    2    0    0  0.00000000000E+00  0.17763568394E-14  0.00000000000E+00  0.91188000000E+02  0.91188000000E+02 0.  0.
    9900012    2    3    3    0    0 -0.27987712148E+02  0.94271902120E+01  0.21990811601E+02  0.54367085543E+02  0.40000003113E+02 0.  0.
         12    1    3    3    0    0  0.27987712148E+02 -0.94271902120E+01 -0.21990811601E+02  0.36820914457E+02  0.00000000000E+00 0. -1.
         11    1    4    4    0    0 -0.77133520299E+01  0.18989506235E+02  0.18147826362E+02  0.27375915482E+02  0.51100000000E-03 0. -1.
        -11    1    4    4    0    0 -0.67644730401E+01 -0.10575683718E+02  0.47271444492E+01  0.13414509925E+02  0.51100000000E-03 0.  1.
        -12    1    4    4    0    0 -0.13509887078E+02  0.10133676960E+01 -0.88415921017E+00  0.13576660136E+02  0.00000000000E+00 0.  1.
</event>
<event>
 8    1  0.2553474E-006  0.9118800E+02  0.7816164E-02  0.1184000E+00
        -11   -1    0    0    0    0  0.00000000000E+00  0.00000000000E+00  0.45593999997E+02  0.45594000000E+02  0.51100000000E-03 0. -1.
         11   -1    0    0    0    0 -0.00000000000E+00 -0.00000000000E+00 -0.45593999997E+02  0.45594000000E+02  0.51100000000E-03 0.  1.
         23    2    1    2    0    0  0.00000000000E+00  0.00000000000E+00  0.17763568394E-14  0.91188000000E+02  0.91188000000E+02 0.  0.
    9900012    2    3    3    0    0 -0.33120549305E+02 -0.12501585559E+02  0.10125120008E+02  0.54367102633E+02  0.40000042072E+02 0.  0.
        -12    1    3    3    0    0  0.33120549305E+02  0.12501585559E+02 -0.10125120008E+02  0.36820897367E+02  0.00000000000E+00 0.  1.
         11    1    4    4    0    0 -0.10547299028E+02 -0.13345699705E+02 -0.12871476568E+02  0.21331388297E+02  0.51100000000E-03 0. -1.
        -11    1    4    4    0    0 -0.13969770207E+02  0.38201333978E+01  0.15780591559E+02  0.21419032869E+02  0.51100000000E-03 0.  1.
         12    1    4    4    0    0 -0.86034800696E+01 -0.29760192518E+01  0.72160050172E+01  0.11616681467E+02  0.00000000000E+00 0. -1.
</event>
<event>
 8    1  0.2553474E-006  0.9118800E+02  0.7816164E-02  0.1184000E+00
        -11   -1    0    0    0    0  0.00000000000E+00  0.00000000000E+00  0.45593999997E+02  0.45594000000E+02  0.51100000000E-03 0.  1.
         11   -1    0    0    0    0 -0.00000000000E+00 -0.00000000000E+00 -0.45593999997E+02  0.45594000000E+02  0.51100000000E-03 0. -1.
         23    2    1    2    0    0  0.35527136788E-14  0.00000000000E+00  0.00000000000E+00  0.91188000000E+02  0.91188000000E+02 0.  0.
    9900012    2    3    3    0    0 -0.24415883649E+02 -0.26472484612E+01  0.27434251537E+02  0.54367062259E+02  0.39999950031E+02 0.  0.
         12    1    3    3    0    0  0.24415883649E+02  0.26472484612E+01 -0.27434251537E+02  0.36820937741E+02  0.00000000000E+00 0. -1.
         11    1    4    4    0    0 -0.97548066395E+01 -0.28608809606E+01  0.15840550010E-01  0.10165684612E+02  0.51100000000E-03 0. -1.
        -11    1    4    4    0    0 -0.97042750852E+00 -0.14474467397E+02  0.13025098036E+02  0.19496284649E+02  0.51100000000E-03 0.  1.
        -12    1    4    4    0    0 -0.13690649501E+02  0.14688099897E+02  0.14393312951E+02  0.24705092998E+02  0.00000000000E+00 0.  1.
</event>
<event>
 8    1  0.2553474E-006  0.9118800E+02  0.7816164E-02  0.1184000E+00
        -11   -1    0    0    0    0  0.00000000000E+00  0.00000000000E+00  0.45593999997E+02  0.45594000000E+02  0.51100000000E-03 0. -1.
         11   -1    0    0    0    0 -0.00000000000E+00 -0.00000000000E+00 -0.45593999997E+02  0.45594000000E+02  0.51100000000E-03 0.  1.
         23    2    1    2    0    0 -0.17763568394E-14  0.00000000000E+00 -0.71054273576E-14  0.91188000000E+02  0.91188000000E+02 0.  0.
    9900012    2    3    3    0    0 -0.12446012989E+02  0.72589572757E+00 -0.34646054630E+02  0.54367092008E+02  0.40000017852E+02 0.  0.
         12    1    3    3    0    0  0.12446012989E+02 -0.72589572757E+00  0.34646054630E+02  0.36820907992E+02  0.00000000000E+00 0. -1.
         11    1    4    4    0    0 -0.12461623157E+02 -0.12263790199E+01 -0.11210534343E+02  0.16806907441E+02  0.51100000000E-03 0. -1.
        -11    1    4    4    0    0 -0.12083501484E+02 -0.88582560442E+00 -0.13141307736E+01  0.12186986299E+02  0.51100000000E-03 0.  1.
         12    1    4    4    0    0  0.12099111652E+02  0.28381003519E+01 -0.22121389513E+02  0.25373198268E+02  0.00000000000E+00 0. -1.
</event>
<event>
 8    1  0.2553474E-006  0.9118800E+02  0.7816164E-02  0.1184000E+00
        -11   -1    0    0    0    0  0.00000000000E+00  0.00000000000E+00  0.45593999997E+02  0.45594000000E+02  0.51100000000E-03 0.  1.
         11   -1    0    0    0    0 -0.00000000000E+00 -0.00000000000E+00 -0.45593999997E+02  0.45594000000E+02  0.51100000000E-03 0. -1.
         23    2    1    2    0    0  0.00000000000E+00  0.53290705182E-14 -0.35527136788E-14  0.91188000000E+02  0.91188000000E+02 0.  0.
    9900012    2    3    3    0    0  0.12606335932E+02  0.13868034254E+02  0.31694426246E+02  0.54367099213E+02  0.40000034275E+02 0.  0.
         12    1    3    3    0    0 -0.12606335932E+02 -0.13868034254E+02 -0.31694426246E+02  0.36820900787E+02  0.00000000000E+00 0. -1.
         11    1    4    4    0    0 -0.12260051021E+02  0.46258071331E+01  0.91550556359E+01  0.15985055103E+02  0.51100000000E-03 0. -1.
        -11    1    4    4    0    0  0.33236265884E+01 -0.30085656302E+01  0.92080352286E+01  0.10241380468E+02  0.51100000000E-03 0.  1.
        -12    1    4    4    0    0  0.21542760365E+02  0.12250792751E+02  0.13331335382E+02  0.28140663642E+02  0.00000000000E+00 0.  1.
</event>
<event>
 8    1  0.2553474E-006  0.9118800E+02  0.7816164E-02  0.1184000E+00
        -11   -1    0    0    0    0  0.00000000000E+00  0.00000000000E+00  0.45593999997E+02  0.45594000000E+02  0.51100000000E-03 0.  1.
         11   -1    0    0    0    0 -0.00000000000E+00 -0.00000000000E+00 -0.45593999997E+02  0.45594000000E+02  0.51100000000E-03 0. -1.
         23    2    1    2    0    0 -0.17763568394E-14  0.17763568394E-14  0.71054273576E-14  0.91188000000E+02  0.91188000000E+02 0.  0.
    9900012    2    3    3    0    0  0.81266316427E+01  0.57748038192E+01 -0.35445585588E+02  0.54367081507E+02  0.39999993911E+02 0.  0.
        -12    1    3    3    0    0 -0.81266316427E+01 -0.57748038192E+01  0.35445585588E+02  0.36820918493E+02  0.00000000000E+00 0.  1.
         11    1    4    4    0    0 -0.66554583450E+00 -0.33484720471E+00 -0.17276786995E+02  0.17292843694E+02  0.51100000000E-03 0. -1.
        -11    1    4    4    0    0  0.95599039502E+01 -0.11158584523E+02 -0.11029137942E+02  0.18372470060E+02  0.51100000000E-03 0.  1.
        -12    1    4    4    0    0 -0.76772647303E+00  0.17268235547E+02 -0.71396606512E+01  0.18701767753E+02  0.00000000000E+00 0.  1.
</event>
<event>
 8    1  0.2553474E-006  0.9118800E+02  0.7816164E-02  0.1184000E+00
        -11   -1    0    0    0    0  0.00000000000E+00  0.00000000000E+00  0.45593999997E+02  0.45594000000E+02  0.51100000000E-03 0.  1.
         11   -1    0    0    0    0 -0.00000000000E+00 -0.00000000000E+00 -0.45593999997E+02  0.45594000000E+02  0.51100000000E-03 0. -1.
         23    2    1    2    0    0 -0.44408920985E-15  0.00000000000E+00  0.88817841970E-15  0.91188000000E+02  0.91188000000E+02 0.  0.
    9900012    2    3    3    0    0 -0.32488575851E+01 -0.36045636290E+02  0.67773732020E+01  0.54367139626E+02  0.40000126404E+02 0.  0.
         12    1    3    3    0    0  0.32488575851E+01  0.36045636290E+02 -0.67773732020E+01  0.36820860374E+02  0.00000000000E+00 0. -1.
         11    1    4    4    0    0 -0.86732385610E+01  0.22114036160E+01  0.65841186921E+01  0.11111525201E+02  0.51100000000E-03 0. -1.
        -11    1    4    4    0    0  0.24718069560E+01 -0.14796994609E+02 -0.94383406903E+01  0.17724084019E+02  0.51100000000E-03 0.  1.
         12    1    4    4    0    0  0.29525740200E+01 -0.23460045298E+02  0.96315952001E+01  0.25531530405E+02  0.00000000000E+00 0. -1.
</event>
<event>
 8    1  0.2553474E-006  0.9118800E+02  0.7816164E-02  0.1184000E+00
        -11   -1    0    0    0    0  0.00000000000E+00  0.00000000000E+00  0.45593999997E+02  0.45594000000E+02  0.51100000000E-03 0.  1.
         11   -1    0    0    0    0 -0.00000000000E+00 -0.00000000000E+00 -0.45593999997E+02  0.45594000000E+02  0.51100000000E-03 0. -1.
         23    2    1    2    0    0  0.00000000000E+00  0.22204460493E-15  0.00000000000E+00  0.91188000000E+02  0.91188000000E+02 0.  0.
    9900012    2    3    3    0    0 -0.36175408244E+02  0.13249269298E+01  0.67353720792E+01  0.54367070761E+02  0.39999969414E+02 0.  0.
         12    1    3    3    0    0  0.36175408244E+02 -0.13249269298E+01 -0.67353720792E+01  0.36820929239E+02  0.00000000000E+00 0. -1.
         11    1    4    4    0    0  0.62526961685E+01 -0.32360970871E+00 -0.21845624281E+01  0.66312326066E+01  0.51100000000E-03 0. -1.
        -11    1    4    4    0    0 -0.14138413924E+02 -0.83914296457E+01  0.62867968585E+01  0.17602120747E+02  0.51100000000E-03 0.  1.
         12    1    4    4    0    0 -0.28289690488E+02  0.10039966284E+02  0.26331376488E+01  0.30133717407E+02  0.00000000000E+00 0. -1.
</event>
<event>
 8    1  0.2553474E-006  0.9118800E+02  0.7816164E-02  0.1184000E+00
        -11   -1    0    0    0    0  0.00000000000E+00  0.00000000000E+00  0.45593999997E+02  0.45594000000E+02  0.51100000000E-03 0.  1.
         11   -1    0    0    0    0 -0.00000000000E+00 -0.00000000000E+00 -0.45593999997E+02  0.45594000000E+02  0.51100000000E-03 0. -1.
         23    2    1    2    0    0 -0.66613381478E-15  0.00000000000E+00  0.00000000000E+00  0.91188000000E+02  0.91188000000E+02 0.  0.
    9900012    2    3    3    0    0  0.83571797505E+00 -0.16469610765E+02 -0.32921616177E+02  0.54367091334E+02  0.40000016315E+02 0.  0.
        -12    1    3    3    0    0 -0.83571797505E+00  0.16469610765E+02  0.32921616177E+02  0.36820908666E+02  0.00000000000E+00 0.  1.
         11    1    4    4    0    0  0.89721178373E+01 -0.14958520099E+02 -0.35763125852E+02  0.39790167039E+02  0.51100000000E-03 0. -1.
        -11    1    4    4    0    0 -0.96341806618E+01  0.17485151587E+01  0.43132794464E+01  0.10699491676E+02  0.51100000000E-03 0.  1.
        -12    1    4    4    0    0  0.14977807995E+01 -0.32596058246E+01 -0.14717697708E+01  0.38774326188E+01  0.00000000000E+00 0.  1.
</event>
<event>
 8    1  0.2553474E-006  0.9118800E+02  0.7816164E-02  0.1184000E+00
        -11   -1    0    0    0    0  0.00000000000E+00  0.00000000000E+00  0.45593999997E+02  0.45594000000E+02  0.51100000000E-03 0. -1.
         11   -1    0    0    0    0 -0.00000000000E+00 -0.00000000000E+00 -0.45593999997E+02  0.45594000000E+02  0.51100000000E-03 0.  1.
         23    2    1    2    0    0  0.00000000000E+00  0.88817841970E-15  0.00000000000E+00  0.91188000000E+02  0.91188000000E+02 0.  0.
    9900012    2    3    3    0    0  0.35292813824E+02  0.53453091102E+01  0.90346334711E+01  0.54367086934E+02  0.40000006282E+02 0.  0.
        -12    1    3    3    0    0 -0.35292813824E+02 -0.53453091102E+01 -0.90346334711E+01  0.36820913066E+02  0.00000000000E+00 0.  1.
         11    1    4    4    0    0 -0.89287601469E+00  0.89200939090E+01  0.13203792695E+01  0.90613853576E+01  0.51100000000E-03 0. -1.
        -11    1    4    4    0    0  0.33631523442E+01  0.18711886602E+01  0.11209066908E+02  0.11851384809E+02  0.51100000000E-03 0.  1.
         12    1    4    4    0    0  0.32822537494E+02 -0.54459734590E+01 -0.34948127060E+01  0.33454316767E+02  0.00000000000E+00 0. -1.
</event>
<event>
 8    1  0.2553474E-006  0.9118800E+02  0.7816164E-02  0.1184000E+00
        -11   -1    0    0    0    0  0.00000000000E+00  0.00000000000E+00  0.45593999997E+02  0.45594000000E+02  0.51100000000E-03 0.  1.
         11   -1    0    0    0    0 -0.00000000000E+00 -0.00000000000E+00 -0.45593999997E+02  0.45594000000E+02  0.51100000000E-03 0. -1.
         23    2    1    2    0    0  0.00000000000E+00  0.88817841970E-15  0.00000000000E+00  0.91188000000E+02  0.91188000000E+02 0.  0.
    9900012    2    3    3    0    0  0.34944777409E+02 -0.69555985545E+01  0.92877281645E+01  0.54367085917E+02  0.40000003966E+02 0.  0.
         12    1    3    3    0    0 -0.34944777409E+02  0.69555985545E+01 -0.92877281645E+01  0.36820914083E+02  0.00000000000E+00 0. -1.
         11    1    4    4    0    0  0.42380276499E+01 -0.11954285807E+02  0.11642536946E+02  0.17216692316E+02  0.51100000000E-03 0. -1.
        -11    1    4    4    0    0  0.25284075817E+02 -0.38280048660E+01 -0.58213447182E+01  0.26226440203E+02  0.51100000000E-03 0.  1.
         12    1    4    4    0    0  0.54226739426E+01  0.88266921181E+01  0.34665359365E+01  0.10923953398E+02  0.00000000000E+00 0. -1.
</event>
<event>
 8    1  0.2553474E-006  0.9118800E+02  0.7816164E-02  0.1184000E+00
        -11   -1    0    0    0    0  0.00000000000E+00  0.00000000000E+00  0.45593999997E+02  0.45594000000E+02  0.51100000000E-03 0. -1.
         11   -1    0    0    0    0 -0.00000000000E+00 -0.00000000000E+00 -0.45593999997E+02  0.45594000000E+02  0.51100000000E-03 0.  1.
         23    2    1    2    0    0 -0.88817841970E-15 -0.71054273576E-14  0.35527136788E-14  0.91188000000E+02  0.91188000000E+02 0.  0.
    9900012    2    3    3    0    0 -0.31709979365E+01 -0.29227976532E+02  0.22168685952E+02  0.54367075556E+02  0.39999980346E+02 0.  0.
        -12    1    3    3    0    0  0.31709979365E+01  0.29227976532E+02 -0.22168685952E+02  0.36820924444E+02  0.00000000000E+00 0.  1.
         11    1    4    4    0    0  0.33237866538E+00  0.97830992043E+00  0.71056516382E+01  0.71803796099E+01  0.51100000000E-03 0. -1.
        -11    1    4    4    0    0  0.10656181743E+02 -0.60681604743E+00 -0.87397706522E+00  0.10709167625E+02  0.51100000000E-03 0.  1.
        -12    1    4    4    0    0 -0.14159558344E+02 -0.29599470405E+02  0.15937011379E+02  0.36477528322E+02  0.00000000000E+00 0.  1.
</event>
<event>
 8    1  0.2553474E-006  0.9118800E+02  0.7816164E-02  0.1184000E+00
        -11   -1    0    0    0    0  0.00000000000E+00  0.00000000000E+00  0.45593999997E+02  0.45594000000E+02  0.51100000000E-03 0. -1.
         11   -1    0    0    0    0 -0.00000000000E+00 -0.00000000000E+00 -0.45593999997E+02  0.45594000000E+02  0.51100000000E-03 0.  1.
         23    2    1    2    0    0  0.17763568394E-14  0.00000000000E+00 -0.71054273576E-14  0.91188000000E+02  0.91188000000E+02 0.  0.
    9900012    2    3    3    0    0 -0.97798162529E+01  0.15507318278E+02  0.31932079931E+02  0.54367089435E+02  0.40000011986E+02 0.  0.
        -12    1    3    3    0    0  0.97798162529E+01 -0.15507318278E+02 -0.31932079931E+02  0.36820910565E+02  0.00000000000E+00 0.  1.
         11    1    4    4    0    0 -0.97965618521E+01 -0.52030862396E+01  0.24181650290E+02  0.26604453416E+02  0.51100000000E-03 0. -1.
        -11    1    4    4    0    0 -0.67068154372E+01  0.18342132713E+02  0.57562729613E+01  0.20360498138E+02  0.51100000000E-03 0.  1.
         12    1    4    4    0    0  0.67235610364E+01  0.23682718050E+01  0.19941566789E+01  0.74021378812E+01  0.00000000000E+00 0. -1.
</event>
<event>
 8    1  0.2553474E-006  0.9118800E+02  0.7816164E-02  0.1184000E+00
        -11   -1    0    0    0    0  0.00000000000E+00  0.00000000000E+00  0.45593999997E+02  0.45594000000E+02  0.51100000000E-03 0.  1.
         11   -1    0    0    0    0 -0.00000000000E+00 -0.00000000000E+00 -0.45593999997E+02  0.45594000000E+02  0.51100000000E-03 0. -1.
         23    2    1    2    0    0  0.00000000000E+00  0.13322676296E-14  0.00000000000E+00  0.91188000000E+02  0.91188000000E+02 0.  0.
    9900012    2    3    3    0    0  0.24770752366E+02  0.31578872828E+01 -0.27059476730E+02  0.54367113186E+02  0.40000066130E+02 0.  0.
        -12    1    3    3    0    0 -0.24770752366E+02 -0.31578872828E+01  0.27059476730E+02  0.36820886814E+02  0.00000000000E+00 0.  1.
         11    1    4    4    0    0  0.11445746062E+02 -0.68304579953E+01 -0.45900286547E+01  0.14097113983E+02  0.51100000000E-03 0. -1.
        -11    1    4    4    0    0 -0.32194748225E+01  0.15417686835E+02 -0.81972132924E+01  0.17755686173E+02  0.51100000000E-03 0.  1.
        -12    1    4    4    0    0  0.16544481126E+02 -0.54293415567E+01 -0.14272234783E+02  0.22514313029E+02  0.00000000000E+00 0.  1.
</event>
<event>
 8    1  0.2553474E-006  0.9118800E+02  0.7816164E-02  0.1184000E+00
        -11   -1    0    0    0    0  0.00000000000E+00  0.00000000000E+00  0.45593999997E+02  0.45594000000E+02  0.51100000000E-03 0.  1.
         11   -1    0    0    0    0 -0.00000000000E+00 -0.00000000000E+00 -0.45593999997E+02  0.45594000000E+02  0.51100000000E-03 0. -1.
         23    2    1    2    0    0  0.17763568394E-14  0.00000000000E+00  0.17763568394E-14  0.91188000000E+02  0.91188000000E+02 0.  0.
    9900012    2    3    3    0    0  0.85905007594E+01 -0.35360846394E+02  0.56197690778E+01  0.54367245452E+02  0.40000367655E+02 0.  0.
        -12    1    3    3    0    0 -0.85905007594E+01  0.35360846394E+02 -0.56197690778E+01  0.36820754548E+02  0.00000000000E+00 0.  1.
         11    1    4    4    0    0 -0.47223209527E+01  0.22937301774E+01  0.15325298391E+01  0.54690183101E+01  0.51100000000E-03 0.  1.
        -11    1    4    4    0    0  0.13600359008E+02 -0.71249299874E+01  0.92632277584E+01  0.17931586133E+02  0.51100000000E-03 0. -1.
         12    1    4    4    0    0 -0.28753729590E+00 -0.30529646584E+02 -0.51759885197E+01  0.30966641009E+02  0.00000000000E+00 0. -1.
</event>
<event>
 8    1  0.2553474E-006  0.9118800E+02  0.7816164E-02  0.1184000E+00
        -11   -1    0    0    0    0  0.00000000000E+00  0.00000000000E+00  0.45593999997E+02  0.45594000000E+02  0.51100000000E-03 0. -1.
         11   -1    0    0    0    0 -0.00000000000E+00 -0.00000000000E+00 -0.45593999997E+02  0.45594000000E+02  0.51100000000E-03 0.  1.
         23    2    1    2    0    0  0.00000000000E+00  0.00000000000E+00  0.00000000000E+00  0.91188000000E+02  0.91188000000E+02 0.  0.
    9900012    2    3    3    0    0 -0.11653134539E+02  0.26715899058E+02  0.22499891596E+02  0.54367082997E+02  0.39999997309E+02 0.  0.
        -12    1    3    3    0    0  0.11653134539E+02 -0.26715899058E+02 -0.22499891596E+02  0.36820917003E+02  0.00000000000E+00 0.  1.
         11    1    4    4    0    0 -0.62331103298E+01  0.13708024444E+02 -0.40805540789E+01  0.15601683255E+02  0.51100000000E-03 0. -1.
        -11    1    4    4    0    0  0.15208758806E+01 -0.99636880742E+00 -0.40157204332E+01  0.44081543874E+01  0.51100000000E-03 0.  1.
         12    1    4    4    0    0 -0.69409000894E+01  0.14004243422E+02  0.30596166108E+02  0.34357245355E+02  0.00000000000E+00 0. -1.
</event>
<event>
 8    1  0.2553474E-006  0.9118800E+02  0.7816164E-02  0.1184000E+00
        -11   -1    0    0    0    0  0.00000000000E+00  0.00000000000E+00  0.45593999997E+02  0.45594000000E+02  0.51100000000E-03 0. -1.
         11   -1    0    0    0    0 -0.00000000000E+00 -0.00000000000E+00 -0.45593999997E+02  0.45594000000E+02  0.51100000000E-03 0.  1.
         23    2    1    2    0    0  0.88817841970E-15  0.00000000000E+00  0.00000000000E+00  0.91188000000E+02  0.91188000000E+02 0.  0.
    9900012    2    3    3    0    0 -0.47958706112E+01  0.17753962280E+02  0.31899463970E+02  0.54367090816E+02  0.40000015133E+02 0.  0.
        -12    1    3    3    0    0  0.47958706112E+01 -0.17753962280E+02 -0.31899463970E+02  0.36820909184E+02  0.00000000000E+00 0.  1.
         11    1    4    4    0    0 -0.49761430491E+01  0.17904015691E+02  0.17781342313E+02  0.25719485069E+02  0.51100000000E-03 0. -1.
        -11    1    4    4    0    0 -0.86580056076E+01 -0.56182870779E+01  0.15010217136E+02  0.18216279244E+02  0.51100000000E-03 0.  1.
         12    1    4    4    0    0  0.88382780455E+01  0.54682336670E+01 -0.89209547875E+00  0.10431326502E+02  0.00000000000E+00 0. -1.
</event>
<event>
 8    1  0.2553474E-006  0.9118800E+02  0.7816164E-02  0.1184000E+00
        -11   -1    0    0    0    0  0.00000000000E+00  0.00000000000E+00  0.45593999997E+02  0.45594000000E+02  0.51100000000E-03 0. -1.
         11   -1    0    0    0    0 -0.00000000000E+00 -0.00000000000E+00 -0.45593999997E+02  0.45594000000E+02  0.51100000000E-03 0.  1.
         23    2    1    2    0    0  0.00000000000E+00  0.00000000000E+00 -0.17763568394E-14  0.91188000000E+02  0.91188000000E+02 0.  0.
    9900012    2    3    3    0    0  0.10427161942E+02  0.32643519198E+02  0.13470507074E+02  0.54367087293E+02  0.40000007101E+02 0.  0.
        -12    1    3    3    0    0 -0.10427161942E+02 -0.32643519198E+02 -0.13470507074E+02  0.36820912707E+02  0.00000000000E+00 0.  1.
         11    1    4    4    0    0  0.32322766033E+01  0.16533778159E+02  0.17283796879E+02  0.24135928966E+02  0.51100000000E-03 0. -1.
        -11    1    4    4    0    0 -0.35544350897E+01  0.41918286587E+01 -0.11266510063E+02  0.12535536908E+02  0.51100000000E-03 0.  1.
         12    1    4    4    0    0  0.10749320429E+02  0.11917912380E+02  0.74532202580E+01  0.17695621419E+02  0.00000000000E+00 0. -1.
</event>
<event>
 8    1  0.2553474E-006  0.9118800E+02  0.7816164E-02  0.1184000E+00
        -11   -1    0    0    0    0  0.00000000000E+00  0.00000000000E+00  0.45593999997E+02  0.45594000000E+02  0.51100000000E-03 0.  1.
         11   -1    0    0    0    0 -0.00000000000E+00 -0.00000000000E+00 -0.45593999997E+02  0.45594000000E+02  0.51100000000E-03 0. -1.
         23    2    1    2    0    0  0.44408920985E-15  0.00000000000E+00 -0.35527136788E-14  0.91188000000E+02  0.91188000000E+02 0.  0.
    9900012    2    3    3    0    0 -0.31495668533E+01 -0.18250664253E+02  0.31824127984E+02  0.54367059776E+02  0.39999944371E+02 0.  0.
         12    1    3    3    0    0  0.31495668533E+01  0.18250664253E+02 -0.31824127984E+02  0.36820940224E+02  0.00000000000E+00 0. -1.
         11    1    4    4    0    0 -0.71570025680E+01  0.52570430989E+01  0.92966838617E+01  0.12856419369E+02  0.51100000000E-03 0. -1.
        -11    1    4    4    0    0 -0.81720814051E+01 -0.20250388849E+02  0.11106889341E+02  0.24499472528E+02  0.51100000000E-03 0.  1.
         12    1    4    4    0    0  0.12179517120E+02 -0.32573185027E+01  0.11420554781E+02  0.17011167879E+02  0.00000000000E+00 0. -1.
</event>
<event>
 8    1  0.2553474E-006  0.9118800E+02  0.7816164E-02  0.1184000E+00
        -11   -1    0    0    0    0  0.00000000000E+00  0.00000000000E+00  0.45593999997E+02  0.45594000000E+02  0.51100000000E-03 0.  1.
         11   -1    0    0    0    0 -0.00000000000E+00 -0.00000000000E+00 -0.45593999997E+02  0.45594000000E+02  0.51100000000E-03 0. -1.
         23    2    1    2    0    0 -0.35527136788E-14 -0.71054273576E-14 -0.27755575616E-15  0.91188000000E+02  0.91188000000E+02 0.  0.
    9900012    2    3    3    0    0  0.11151615204E+02  0.35089404598E+02 -0.39372029184E+00  0.54367084037E+02  0.39999999679E+02 0.  0.
         12    1    3    3    0    0 -0.11151615204E+02 -0.35089404598E+02  0.39372029184E+00  0.36820915963E+02  0.00000000000E+00 0. -1.
         11    1    4    4    0    0 -0.44544774082E+01  0.73140458723E+00 -0.33431875329E+01  0.56173147314E+01  0.51100000000E-03 0. -1.
        -11    1    4    4    0    0  0.19369718564E+02  0.69535254689E+01  0.44187829311E+01  0.21049065455E+02  0.51100000000E-03 0.  1.
         12    1    4    4    0    0 -0.37636259521E+01  0.27404474542E+02 -0.14693156900E+01  0.27700703850E+02  0.00000000000E+00 0. -1.
</event>
<event>
 8    1  0.2553474E-006  0.9118800E+02  0.7816164E-02  0.1184000E+00
        -11   -1    0    0    0    0  0.00000000000E+00  0.00000000000E+00  0.45593999997E+02  0.45594000000E+02  0.51100000000E-03 0.  1.
         11   -1    0    0    0    0 -0.00000000000E+00 -0.00000000000E+00 -0.45593999997E+02  0.45594000000E+02  0.51100000000E-03 0. -1.
         23    2    1    2    0    0  0.00000000000E+00  0.17763568394E-14 -0.35527136788E-14  0.91188000000E+02  0.91188000000E+02 0.  0.
    9900012    2    3    3    0    0  0.17753391522E+02  0.12131238036E+02  0.29890293001E+02  0.54367089331E+02  0.40000011748E+02 0.  0.
         12    1    3    3    0    0 -0.17753391522E+02 -0.12131238036E+02 -0.29890293001E+02  0.36820910669E+02  0.00000000000E+00 0. -1.
         11    1    4    4    0    0  0.62247750509E+00 -0.90759756872E+01  0.28352189442E+01  0.95288656009E+01  0.51100000000E-03 0. -1.
        -11    1    4    4    0    0  0.17662735489E+01  0.33658539098E+01 -0.42273406090E+01  0.56849893295E+01  0.51100000000E-03 0.  1.
        -12    1    4    4    0    0  0.15364640468E+02  0.17841359814E+02  0.31282414666E+02  0.39153234400E+02  0.00000000000E+00 0.  1.
</event>
<event>
 8    1  0.2553474E-006  0.9118800E+02  0.7816164E-02  0.1184000E+00
        -11   -1    0    0    0    0  0.00000000000E+00  0.00000000000E+00  0.45593999997E+02  0.45594000000E+02  0.51100000000E-03 0.  1.
         11   -1    0    0    0    0 -0.00000000000E+00 -0.00000000000E+00 -0.45593999997E+02  0.45594000000E+02  0.51100000000E-03 0. -1.
         23    2    1    2    0    0  0.00000000000E+00 -0.35527136788E-14  0.13322676296E-14  0.91188000000E+02  0.91188000000E+02 0.  0.
    9900012    2    3    3    0    0  0.29924137021E+02 -0.21385469982E+02  0.17283347803E+01  0.54367089583E+02  0.40000012322E+02 0.  0.
        -12    1    3    3    0    0 -0.29924137021E+02  0.21385469982E+02 -0.17283347803E+01  0.36820910417E+02  0.00000000000E+00 0.  1.
         11    1    4    4    0    0 -0.19839406803E+01 -0.24808281472E+00  0.76150910444E+01  0.78731936075E+01  0.51100000000E-03 0.  1.
        -11    1    4    4    0    0  0.12885473841E+02 -0.21754160701E+02 -0.97040930347E+01  0.27082251860E+02  0.51100000000E-03 0. -1.
         12    1    4    4    0    0  0.19022603861E+02  0.61677353375E+00  0.38173367706E+01  0.19411644116E+02  0.00000000000E+00 0. -1.
</event>
<event>
 8    1  0.2553474E-006  0.9118800E+02  0.7816164E-02  0.1184000E+00
        -11   -1    0    0    0    0  0.00000000000E+00  0.00000000000E+00  0.45593999997E+02  0.45594000000E+02  0.51100000000E-03 0.  1.
         11   -1    0    0    0    0 -0.00000000000E+00 -0.00000000000E+00 -0.45593999997E+02  0.45594000000E+02  0.51100000000E-03 0. -1.
         23    2    1    2    0    0 -0.71054273576E-14 -0.35527136788E-14  0.00000000000E+00  0.91188000000E+02  0.91188000000E+02 0.  0.
    9900012    2    3    3    0    0 -0.30130258685E+02 -0.16588235912E+02 -0.13144320385E+02  0.54367146975E+02  0.40000143159E+02 0.  0.
         12    1    3    3    0    0  0.30130258685E+02  0.16588235912E+02  0.13144320385E+02  0.36820853025E+02  0.00000000000E+00 0. -1.
         11    1    4    4    0    0 -0.10776461905E+02  0.27970883215E+01 -0.14153588270E+02  0.18007773195E+02  0.51100000000E-03 0. -1.
        -11    1    4    4    0    0  0.23552542621E+01  0.37552415976E+01 -0.10755223957E+01  0.45613387049E+01  0.51100000000E-03 0.  1.
         12    1    4    4    0    0 -0.21709051043E+02 -0.23140565831E+02  0.20847902805E+01  0.31798035075E+02  0.00000000000E+00 0. -1.
</event>
<event>
 8    1  0.2553474E-006  0.9118800E+02  0.7816164E-02  0.1184000E+00
        -11   -1    0    0    0    0  0.00000000000E+00  0.00000000000E+00  0.45593999997E+02  0.45594000000E+02  0.51100000000E-03 0. -1.
         11   -1    0    0    0    0 -0.00000000000E+00 -0.00000000000E+00 -0.45593999997E+02  0.45594000000E+02  0.51100000000E-03 0.  1.
         23    2    1    2    0    0  0.00000000000E+00  0.00000000000E+00 -0.35527136788E-14  0.91188000000E+02  0.91188000000E+02 0.  0.
    9900012    2    3    3    0    0  0.10700501516E+02  0.22190610037E+02 -0.27365240700E+02  0.54367077889E+02  0.39999985665E+02 0.  0.
         12    1    3    3    0    0 -0.10700501516E+02 -0.22190610037E+02  0.27365240700E+02  0.36820922111E+02  0.00000000000E+00 0. -1.
         11    1    4    4    0    0 -0.48400219925E+00  0.11108209711E+02  0.50206530008E+01  0.12199735158E+02  0.51100000000E-03 0. -1.
        -11    1    4    4    0    0  0.11092840836E+02  0.16179923781E+02 -0.16999017261E+02  0.25957804982E+02  0.51100000000E-03 0.  1.
        -12    1    4    4    0    0  0.91662879013E-01 -0.50975234556E+01 -0.15386876440E+02  0.16209537749E+02  0.00000000000E+00 0.  1.
</event>
<event>
 8    1  0.2553474E-006  0.9118800E+02  0.7816164E-02  0.1184000E+00
        -11   -1    0    0    0    0  0.00000000000E+00  0.00000000000E+00  0.45593999997E+02  0.45594000000E+02  0.51100000000E-03 0.  1.
         11   -1    0    0    0    0 -0.00000000000E+00 -0.00000000000E+00 -0.45593999997E+02  0.45594000000E+02  0.51100000000E-03 0. -1.
         23    2    1    2    0    0  0.44408920985E-15  0.14432899320E-14 -0.71054273576E-14  0.91188000000E+02  0.91188000000E+02 0.  0.
    9900012    2    3    3    0    0 -0.22385819642E+01  0.88651448160E+00 -0.36742051642E+02  0.54367142921E+02  0.40000133917E+02 0.  0.
        -12    1    3    3    0    0  0.22385819642E+01 -0.88651448160E+00  0.36742051642E+02  0.36820857079E+02  0.00000000000E+00 0.  1.
         11    1    4    4    0    0 -0.94998097830E+01  0.65733610291E+01 -0.15387680513E+02  0.19241522106E+02  0.51100000000E-03 0. -1.
        -11    1    4    4    0    0  0.44594830791E+01 -0.12681020136E+02 -0.10672902046E+01  0.13484597498E+02  0.51100000000E-03 0.  1.
        -12    1    4    4    0    0  0.28017447397E+01  0.69941735889E+01 -0.20287080925E+02  0.21641023318E+02  0.00000000000E+00 0.  1.
</event>
<event>
 8    1  0.2553474E-006  0.9118800E+02  0.7816164E-02  0.1184000E+00
        -11   -1    0    0    0    0  0.00000000000E+00  0.00000000000E+00  0.45593999997E+02  0.45594000000E+02  0.51100000000E-03 0.  1.
         11   -1    0    0    0    0 -0.00000000000E+00 -0.00000000000E+00 -0.45593999997E+02  0.45594000000E+02  0.51100000000E-03 0. -1.
         23    2    1    2    0    0  0.00000000000E+00  0.00000000000E+00  0.00000000000E+00  0.91188000000E+02  0.91188000000E+02 0.  0.
    9900012    2    3    3    0    0  0.31555502274E+02  0.18653159210E+02 -0.34770028765E+01  0.54367087175E+02  0.40000006832E+02 0.  0.
         12    1    3    3    0    0 -0.31555502274E+02 -0.18653159210E+02  0.34770028765E+01  0.36820912825E+02  0.00000000000E+00 0. -1.
         11    1    4    4    0    0 -0.54809818570E+01  0.54753715112E+01 -0.10006452429E+02  0.12655036380E+02  0.51100000000E-03 0. -1.
        -11    1    4    4    0    0  0.15920402751E+02  0.98426885351E+01 -0.17234893232E+01  0.18796493212E+02  0.51100000000E-03 0.  1.
         12    1    4    4    0    0  0.21116081380E+02  0.33350991638E+01  0.82529388752E+01  0.22915557584E+02  0.00000000000E+00 0. -1.
</event>
<event>
 8    1  0.2553474E-006  0.9118800E+02  0.7816164E-02  0.1184000E+00
        -11   -1    0    0    0    0  0.00000000000E+00  0.00000000000E+00  0.45593999997E+02  0.45594000000E+02  0.51100000000E-03 0. -1.
         11   -1    0    0    0    0 -0.00000000000E+00 -0.00000000000E+00 -0.45593999997E+02  0.45594000000E+02  0.51100000000E-03 0.  1.
         23    2    1    2    0    0  0.00000000000E+00  0.88817841970E-15  0.00000000000E+00  0.91188000000E+02  0.91188000000E+02 0.  0.
    9900012    2    3    3    0    0  0.91018251374E+01  0.58506165770E+01 -0.35195297532E+02  0.54367056183E+02  0.39999936181E+02 0.  0.
         12    1    3    3    0    0 -0.91018251374E+01 -0.58506165770E+01  0.35195297532E+02  0.36820943817E+02  0.00000000000E+00 0. -1.
         11    1    4    4    0    0  0.90615768850E+01  0.34570974420E+01 -0.35057173141E+01  0.10312795572E+02  0.51100000000E-03 0. -1.
        -11    1    4    4    0    0 -0.10629239098E+02 -0.95019605699E+01 -0.18357190492E+02  0.23243373712E+02  0.51100000000E-03 0.  1.
        -12    1    4    4    0    0  0.10669487350E+02  0.11895479705E+02 -0.13332389726E+02  0.20810886899E+02  0.00000000000E+00 0.  1.
</event>
<event>
 8    1  0.2553474E-006  0.9118800E+02  0.7816164E-02  0.1184000E+00
        -11   -1    0    0    0    0  0.00000000000E+00  0.00000000000E+00  0.45593999997E+02  0.45594000000E+02  0.51100000000E-03 0.  1.
         11   -1    0    0    0    0 -0.00000000000E+00 -0.00000000000E+00 -0.45593999997E+02  0.45594000000E+02  0.51100000000E-03 0. -1.
         23    2    1    2    0    0  0.00000000000E+00  0.00000000000E+00  0.00000000000E+00  0.91188000000E+02  0.91188000000E+02 0.  0.
    9900012    2    3    3    0    0  0.12635453018E+02  0.11556613056E+02  0.32597075770E+02  0.54367091171E+02  0.40000015942E+02 0.  0.
         12    1    3    3    0    0 -0.12635453018E+02 -0.11556613056E+02 -0.32597075770E+02  0.36820908829E+02  0.00000000000E+00 0. -1.
         11    1    4    4    0    0  0.47353413773E+01  0.11214595567E+02 -0.31499383723E+01  0.12574288199E+02  0.51100000000E-03 0. -1.
        -11    1    4    4    0    0 -0.64765145786E+00  0.92064248813E+01  0.13275509221E+02  0.16168390670E+02  0.51100000000E-03 0.  1.
         12    1    4    4    0    0  0.85477630981E+01 -0.88644073928E+01  0.22471504921E+02  0.25624412302E+02  0.00000000000E+00 0. -1.
</event>
<event>
 8    1  0.2553474E-006  0.9118800E+02  0.7816164E-02  0.1184000E+00
        -11   -1    0    0    0    0  0.00000000000E+00  0.00000000000E+00  0.45593999997E+02  0.45594000000E+02  0.51100000000E-03 0.  1.
         11   -1    0    0    0    0 -0.00000000000E+00 -0.00000000000E+00 -0.45593999997E+02  0.45594000000E+02  0.51100000000E-03 0. -1.
         23    2    1    2    0    0  0.19984014443E-14  0.00000000000E+00  0.00000000000E+00  0.91188000000E+02  0.91188000000E+02 0.  0.
    9900012    2    3    3    0    0  0.18382407573E+01  0.10455302073E+01 -0.36760170926E+02  0.54367049048E+02  0.39999919915E+02 0.  0.
        -12    1    3    3    0    0 -0.18382407573E+01 -0.10455302073E+01  0.36760170926E+02  0.36820950952E+02  0.00000000000E+00 0.  1.
         11    1    4    4    0    0 -0.36235368925E+01 -0.14003994369E+02 -0.81576447538E+01  0.16606897545E+02  0.51100000000E-03 0.  1.
        -11    1    4    4    0    0  0.10729125313E+02  0.13350474722E+02 -0.27042160197E+02  0.32009806835E+02  0.51100000000E-03 0. -1.
        -12    1    4    4    0    0 -0.52673476633E+01  0.16990498546E+01 -0.15603659758E+01  0.57503446673E+01  0.00000000000E+00 0.  1.
</event>
<event>
 8    1  0.2553474E-006  0.9118800E+02  0.7816164E-02  0.1184000E+00
        -11   -1    0    0    0    0  0.00000000000E+00  0.00000000000E+00  0.45593999997E+02  0.45594000000E+02  0.51100000000E-03 0. -1.
         11   -1    0    0    0    0 -0.00000000000E+00 -0.00000000000E+00 -0.45593999997E+02  0.45594000000E+02  0.51100000000E-03 0.  1.
         23    2    1    2    0    0  0.00000000000E+00  0.35527136788E-14  0.00000000000E+00  0.91188000000E+02  0.91188000000E+02 0.  0.
    9900012    2    3    3    0    0 -0.17063399442E+02  0.27917223796E+02 -0.16889308587E+02  0.54367085705E+02  0.40000003482E+02 0.  0.
         12    1    3    3    0    0  0.17063399442E+02 -0.27917223796E+02  0.16889308587E+02  0.36820914295E+02  0.00000000000E+00 0. -1.
         11    1    4    4    0    0 -0.10544285962E+00 -0.12133726376E+01  0.25036175974E+01  0.27841502634E+01  0.51100000000E-03 0. -1.
        -11    1    4    4    0    0 -0.21441926796E+02  0.91895217657E+01 -0.20581362589E+02  0.31109420138E+02  0.51100000000E-03 0.  1.
        -12    1    4    4    0    0  0.44839702145E+01  0.19941074668E+02  0.11884364051E+01  0.20473515304E+02  0.00000000000E+00 0.  1.
</event>
<event>
 8    1  0.2553474E-006  0.9118800E+02  0.7816164E-02  0.1184000E+00
        -11   -1    0    0    0    0  0.00000000000E+00  0.00000000000E+00  0.45593999997E+02  0.45594000000E+02  0.51100000000E-03 0.  1.
         11   -1    0    0    0    0 -0.00000000000E+00 -0.00000000000E+00 -0.45593999997E+02  0.45594000000E+02  0.51100000000E-03 0. -1.
         23    2    1    2    0    0  0.35527136788E-14 -0.35527136788E-14  0.00000000000E+00  0.91188000000E+02  0.91188000000E+02 0.  0.
    9900012    2    3    3    0    0  0.30172839858E+02 -0.16567575039E+02 -0.13072861828E+02  0.54367020598E+02  0.39999855056E+02 0.  0.
        -12    1    3    3    0    0 -0.30172839858E+02  0.16567575039E+02  0.13072861828E+02  0.36820979402E+02  0.00000000000E+00 0.  1.
         11    1    4    4    0    0  0.12716647035E+02 -0.21085041717E+02 -0.12378881452E+02  0.27559550110E+02  0.51100000000E-03 0. -1.
        -11    1    4    4    0    0  0.57889486893E+01  0.61720242043E+01 -0.90283499098E+01  0.12374041864E+02  0.51100000000E-03 0.  1.
        -12    1    4    4    0    0  0.11667244134E+02 -0.16545575264E+01  0.83343695340E+01  0.14433428623E+02  0.00000000000E+00 0.  1.
</event>
<event>
 8    1  0.2553474E-006  0.9118800E+02  0.7816164E-02  0.1184000E+00
        -11   -1    0    0    0    0  0.00000000000E+00  0.00000000000E+00  0.45593999997E+02  0.45594000000E+02  0.51100000000E-03 0. -1.
         11   -1    0    0    0    0 -0.00000000000E+00 -0.00000000000E+00 -0.45593999997E+02  0.45594000000E+02  0.51100000000E-03 0.  1.
         23    2    1    2    0    0 -0.35527136788E-14  0.35527136788E-14  0.17763568394E-14  0.91188000000E+02  0.91188000000E+02 0.  0.
    9900012    2    3    3    0    0  0.29507883685E+02 -0.17005521460E+02 -0.13995602741E+02  0.54367083991E+02  0.39999999573E+02 0.  0.
         12    1    3    3    0    0 -0.29507883685E+02  0.17005521460E+02  0.13995602741E+02  0.36820916009E+02  0.00000000000E+00 0. -1.
         11    1    4    4    0    0 -0.40426155633E+01  0.82816059794E+00  0.19360832274E+01  0.45581804586E+01  0.51100000000E-03 0. -1.
        -11    1    4    4    0    0  0.25314268052E+02 -0.22712485587E+02 -0.19947333796E+02  0.39427976037E+02  0.51100000000E-03 0.  1.
        -12    1    4    4    0    0  0.82362311958E+01  0.48788035286E+01  0.40156478274E+01  0.10380927495E+02  0.00000000000E+00 0.  1.
</event>
<event>
 8    1  0.2553474E-006  0.9118800E+02  0.7816164E-02  0.1184000E+00
        -11   -1    0    0    0    0  0.00000000000E+00  0.00000000000E+00  0.45593999997E+02  0.45594000000E+02  0.51100000000E-03 0. -1.
         11   -1    0    0    0    0 -0.00000000000E+00 -0.00000000000E+00 -0.45593999997E+02  0.45594000000E+02  0.51100000000E-03 0.  1.
         23    2    1    2    0    0  0.00000000000E+00  0.17763568394E-14  0.35527136788E-14  0.91188000000E+02  0.91188000000E+02 0.  0.
    9900012    2    3    3    0    0  0.18083694120E+02  0.80341151172E+01  0.31051780556E+02  0.54367081021E+02  0.39999992805E+02 0.  0.
        -12    1    3    3    0    0 -0.18083694120E+02 -0.80341151172E+01 -0.31051780556E+02  0.36820918979E+02  0.00000000000E+00 0.  1.
         11    1    4    4    0    0  0.14922357719E+02  0.45076542186E+01  0.36591505504E+02  0.39773533684E+02  0.51100000000E-03 0. -1.
        -11    1    4    4    0    0  0.56184669849E+01  0.50856772481E+01  0.79740452460E+00  0.76201796940E+01  0.51100000000E-03 0.  1.
         12    1    4    4    0    0 -0.24571305836E+01 -0.15592163495E+01 -0.63371294728E+01  0.69733676430E+01  0.00000000000E+00 0. -1.
</event>
<event>
 8    1  0.2553474E-006  0.9118800E+02  0.7816164E-02  0.1184000E+00
        -11   -1    0    0    0    0  0.00000000000E+00  0.00000000000E+00  0.45593999997E+02  0.45594000000E+02  0.51100000000E-03 0.  1.
         11   -1    0    0    0    0 -0.00000000000E+00 -0.00000000000E+00 -0.45593999997E+02  0.45594000000E+02  0.51100000000E-03 0. -1.
         23    2    1    2    0    0 -0.35527136788E-14 -0.17763568394E-14  0.35527136788E-14  0.91188000000E+02  0.91188000000E+02 0.  0.
    9900012    2    3    3    0    0 -0.30283168125E+02 -0.70080358538E+01  0.19738227399E+02  0.54367075798E+02  0.39999980897E+02 0.  0.
         12    1    3    3    0    0  0.30283168125E+02  0.70080358538E+01 -0.19738227399E+02  0.36820924202E+02  0.00000000000E+00 0. -1.
         11    1    4    4    0    0 -0.39653279229E+01  0.10810416574E+00 -0.10900033863E+02  0.11599407335E+02  0.51100000000E-03 0. -1.
        -11    1    4    4    0    0 -0.10432130068E+02  0.28979227017E+01  0.86966293958E+01  0.13887356006E+02  0.51100000000E-03 0.  1.
        -12    1    4    4    0    0 -0.15885710135E+02 -0.10014062721E+02  0.21941631866E+02  0.28880312457E+02  0.00000000000E+00 0.  1.
</event>
<event>
 8    1  0.2553474E-006  0.9118800E+02  0.7816164E-02  0.1184000E+00
        -11   -1    0    0    0    0  0.00000000000E+00  0.00000000000E+00  0.45593999997E+02  0.45594000000E+02  0.51100000000E-03 0. -1.
         11   -1    0    0    0    0 -0.00000000000E+00 -0.00000000000E+00 -0.45593999997E+02  0.45594000000E+02  0.51100000000E-03 0.  1.
         23    2    1    2    0    0  0.00000000000E+00 -0.35527136788E-14  0.00000000000E+00  0.91188000000E+02  0.91188000000E+02 0.  0.
    9900012    2    3    3    0    0 -0.22451615136E+02  0.28604997519E+02  0.57843561449E+01  0.54367086360E+02  0.40000004975E+02 0.  0.
         12    1    3    3    0    0  0.22451615136E+02 -0.28604997519E+02 -0.57843561449E+01  0.36820913640E+02  0.00000000000E+00 0. -1.
         11    1    4    4    0    0 -0.10533976641E+01  0.77252937381E+00  0.83807848025E+01  0.84819810445E+01  0.51100000000E-03 0. -1.
        -11    1    4    4    0    0 -0.10124460494E+02  0.31893232625E+02 -0.44623693276E+01  0.33757898748E+02  0.51100000000E-03 0.  1.
        -12    1    4    4    0    0 -0.11273756978E+02 -0.40607644804E+01  0.18659406701E+01  0.12127206568E+02  0.00000000000E+00 0.  1.
</event>
<event>
 8    1  0.2553474E-006  0.9118800E+02  0.7816164E-02  0.1184000E+00
        -11   -1    0    0    0    0  0.00000000000E+00  0.00000000000E+00  0.45593999997E+02  0.45594000000E+02  0.51100000000E-03 0. -1.
         11   -1    0    0    0    0 -0.00000000000E+00 -0.00000000000E+00 -0.45593999997E+02  0.45594000000E+02  0.51100000000E-03 0.  1.
         23    2    1    2    0    0 -0.35527136788E-14 -0.88817841970E-15  0.35527136788E-14  0.91188000000E+02  0.91188000000E+02 0.  0.
    9900012    2    3    3    0    0  0.23694194718E+02 -0.40108476678E+01  0.27897630930E+02  0.54367087818E+02  0.40000008299E+02 0.  0.
        -12    1    3    3    0    0 -0.23694194718E+02  0.40108476678E+01 -0.27897630930E+02  0.36820912182E+02  0.00000000000E+00 0.  1.
         11    1    4    4    0    0 -0.13394938885E+01  0.55532510958E+00  0.51870607710E+01  0.53859288482E+01  0.51100000000E-03 0. -1.
        -11    1    4    4    0    0  0.16138840707E+01 -0.44695949073E+01  0.25001749357E+02  0.25449349139E+02  0.51100000000E-03 0.  1.
         12    1    4    4    0    0  0.23419804536E+02 -0.96577870093E-01 -0.22911791976E+01  0.23531809831E+02  0.00000000000E+00 0. -1.
</event>
<event>
 8    1  0.2553474E-006  0.9118800E+02  0.7816164E-02  0.1184000E+00
        -11   -1    0    0    0    0  0.00000000000E+00  0.00000000000E+00  0.45593999997E+02  0.45594000000E+02  0.51100000000E-03 0. -1.
         11   -1    0    0    0    0 -0.00000000000E+00 -0.00000000000E+00 -0.45593999997E+02  0.45594000000E+02  0.51100000000E-03 0.  1.
         23    2    1    2    0    0 -0.35527136788E-14 -0.44408920985E-15  0.00000000000E+00  0.91188000000E+02  0.91188000000E+02 0.  0.
    9900012    2    3    3    0    0  0.28674161508E+02  0.27306227274E+01 -0.22937194389E+02  0.54367099344E+02  0.40000034574E+02 0.  0.
         12    1    3    3    0    0 -0.28674161508E+02 -0.27306227274E+01  0.22937194389E+02  0.36820900656E+02  0.00000000000E+00 0. -1.
         11    1    4    4    0    0  0.12721271668E+02  0.12385910037E-01 -0.21542528130E+01  0.12902391705E+02  0.51100000000E-03 0. -1.
        -11    1    4    4    0    0  0.20833192569E+02 -0.48307559866E+01 -0.23786730152E+02  0.31986976218E+02  0.51100000000E-03 0.  1.
        -12    1    4    4    0    0 -0.48803027289E+01  0.75489928040E+01  0.30037885754E+01  0.94777314208E+01  0.00000000000E+00 0.  1.
</event>
<event>
 8    1  0.2553474E-006  0.9118800E+02  0.7816164E-02  0.1184000E+00
        -11   -1    0    0    0    0  0.00000000000E+00  0.00000000000E+00  0.45593999997E+02  0.45594000000E+02  0.51100000000E-03 0.  1.
         11   -1    0    0    0    0 -0.00000000000E+00 -0.00000000000E+00 -0.45593999997E+02  0.45594000000E+02  0.51100000000E-03 0. -1.
         23    2    1    2    0    0  0.35527136788E-14 -0.17763568394E-14  0.00000000000E+00  0.91188000000E+02  0.91188000000E+02 0.  0.
    9900012    2    3    3    0    0  0.30629442190E+02 -0.14106888231E+02 -0.14785549304E+02  0.54367088922E+02  0.40000010816E+02 0.  0.
        -12    1    3    3    0    0 -0.30629442190E+02  0.14106888231E+02  0.14785549304E+02  0.36820911078E+02  0.00000000000E+00 0.  1.
         11    1    4    4    0    0  0.12046304067E+02 -0.22131398001E+01 -0.26583892918E+02  0.29269690678E+02  0.51100000000E-03 0.  1.
        -11    1    4    4    0    0  0.46635450856E+01 -0.40217527866E+01  0.31400231441E+01  0.69125171862E+01  0.51100000000E-03 0. -1.
        -12    1    4    4    0    0  0.13919593037E+02 -0.78719956439E+01  0.86583204700E+01  0.18184881058E+02  0.00000000000E+00 0.  1.
</event>
<event>
 8    1  0.2553474E-006  0.9118800E+02  0.7816164E-02  0.1184000E+00
        -11   -1    0    0    0    0  0.00000000000E+00  0.00000000000E+00  0.45593999997E+02  0.45594000000E+02  0.51100000000E-03 0. -1.
         11   -1    0    0    0    0 -0.00000000000E+00 -0.00000000000E+00 -0.45593999997E+02  0.45594000000E+02  0.51100000000E-03 0.  1.
         23    2    1    2    0    0  0.00000000000E+00 -0.35527136788E-14  0.00000000000E+00  0.91188000000E+02  0.91188000000E+02 0.  0.
    9900012    2    3    3    0    0  0.23123205590E+02 -0.22993596970E+02  0.17099360153E+02  0.54367132873E+02  0.40000111010E+02 0.  0.
        -12    1    3    3    0    0 -0.23123205590E+02  0.22993596970E+02 -0.17099360153E+02  0.36820867127E+02  0.00000000000E+00 0.  1.
         11    1    4    4    0    0  0.72786529060E+01  0.29267740343E+01  0.74548304438E+01  0.10822166677E+02  0.51100000000E-03 0. -1.
        -11    1    4    4    0    0 -0.34291390155E+01  0.23541536164E+00 -0.64337050854E+01  0.72943112195E+01  0.51100000000E-03 0.  1.
         12    1    4    4    0    0  0.19273691700E+02 -0.26155786366E+02  0.16078234794E+02  0.36250654977E+02  0.00000000000E+00 0. -1.
</event>
<event>
 8    1  0.2553474E-006  0.9118800E+02  0.7816164E-02  0.1184000E+00
        -11   -1    0    0    0    0  0.00000000000E+00  0.00000000000E+00  0.45593999997E+02  0.45594000000E+02  0.51100000000E-03 0.  1.
         11   -1    0    0    0    0 -0.00000000000E+00 -0.00000000000E+00 -0.45593999997E+02  0.45594000000E+02  0.51100000000E-03 0. -1.
         23    2    1    2    0    0 -0.71054273576E-14  0.00000000000E+00  0.88817841970E-15  0.91188000000E+02  0.91188000000E+02 0.  0.
    9900012    2    3    3    0    0  0.33868411407E+02 -0.13723931962E+02  0.45110668217E+01  0.54367281327E+02  0.40000449439E+02 0.  0.
         12    1    3    3    0    0 -0.33868411407E+02  0.13723931962E+02 -0.45110668217E+01  0.36820718673E+02  0.00000000000E+00 0. -1.
         11    1    4    4    0    0  0.71648220518E+00  0.42387299921E+01  0.31617360043E+01  0.53363614494E+01  0.51100000000E-03 0. -1.
        -11    1    4    4    0    0 -0.75784101609E+00 -0.80665715832E+01  0.97943859582E+01  0.12711172120E+02  0.51100000000E-03 0.  1.
        -12    1    4    4    0    0  0.33909770217E+02 -0.98960903713E+01 -0.84450551408E+01  0.36319747758E+02  0.00000000000E+00 0.  1.
</event>
<event>
 8    1  0.2553474E-006  0.9118800E+02  0.7816164E-02  0.1184000E+00
        -11   -1    0    0    0    0  0.00000000000E+00  0.00000000000E+00  0.45593999997E+02  0.45594000000E+02  0.51100000000E-03 0.  1.
         11   -1    0    0    0    0 -0.00000000000E+00 -0.00000000000E+00 -0.45593999997E+02  0.45594000000E+02  0.51100000000E-03 0. -1.
         23    2    1    2    0    0  0.00000000000E+00  0.00000000000E+00  0.00000000000E+00  0.91188000000E+02  0.91188000000E+02 0.  0.
    9900012    2    3    3    0    0 -0.26253971770E+02 -0.24137445734E+02  0.91593604623E+01  0.54367065678E+02  0.39999957825E+02 0.  0.
        -12    1    3    3    0    0  0.26253971770E+02  0.24137445734E+02 -0.91593604623E+01  0.36820934322E+02  0.00000000000E+00 0.  1.
         11    1    4    4    0    0  0.74517889260E+01 -0.44744537912E+00  0.95038318833E+00  0.75254630443E+01  0.51100000000E-03 0.  1.
        -11    1    4    4    0    0 -0.78738877633E+01  0.32887400977E+01 -0.27939092945E+00  0.85376799829E+01  0.51100000000E-03 0. -1.
         12    1    4    4    0    0 -0.25831872933E+02 -0.26978740453E+02  0.84883682034E+01  0.38303922650E+02  0.00000000000E+00 0. -1.
</event>
<event>
 8    1  0.2553474E-006  0.9118800E+02  0.7816164E-02  0.1184000E+00
        -11   -1    0    0    0    0  0.00000000000E+00  0.00000000000E+00  0.45593999997E+02  0.45594000000E+02  0.51100000000E-03 0.  1.
         11   -1    0    0    0    0 -0.00000000000E+00 -0.00000000000E+00 -0.45593999997E+02  0.45594000000E+02  0.51100000000E-03 0. -1.
         23    2    1    2    0    0  0.74940054162E-15  0.00000000000E+00  0.00000000000E+00  0.91188000000E+02  0.91188000000E+02 0.  0.
    9900012    2    3    3    0    0  0.19155275217E+00  0.22680448013E+02 -0.29005862056E+02  0.54367089526E+02  0.40000012191E+02 0.  0.
        -12    1    3    3    0    0 -0.19155275217E+00 -0.22680448013E+02  0.29005862056E+02  0.36820910474E+02  0.00000000000E+00 0.  1.
         11    1    4    4    0    0 -0.10444648651E+02  0.14254288511E+02 -0.28542040064E+02  0.33569680929E+02  0.51100000000E-03 0. -1.
        -11    1    4    4    0    0  0.50354861623E+01  0.12624237989E+02  0.10645165661E+01  0.13633073809E+02  0.51100000000E-03 0.  1.
        -12    1    4    4    0    0  0.56007152413E+01 -0.41980784873E+01 -0.15283385588E+01  0.71643347876E+01  0.00000000000E+00 0.  1.
</event>
<event>
 8    1  0.2553474E-006  0.9118800E+02  0.7816164E-02  0.1184000E+00
        -11   -1    0    0    0    0  0.00000000000E+00  0.00000000000E+00  0.45593999997E+02  0.45594000000E+02  0.51100000000E-03 0. -1.
         11   -1    0    0    0    0 -0.00000000000E+00 -0.00000000000E+00 -0.45593999997E+02  0.45594000000E+02  0.51100000000E-03 0.  1.
         23    2    1    2    0    0  0.00000000000E+00  0.35527136788E-14 -0.88817841970E-15  0.91188000000E+02  0.91188000000E+02 0.  0.
    9900012    2    3    3    0    0 -0.19408335337E+02 -0.31100616199E+02  0.34422172551E+01  0.54367072960E+02  0.39999974426E+02 0.  0.
         12    1    3    3    0    0  0.19408335337E+02  0.31100616199E+02 -0.34422172551E+01  0.36820927040E+02  0.00000000000E+00 0. -1.
         11    1    4    4    0    0  0.72148993238E+01 -0.36567483116E+01  0.91075361490E+01  0.12180878270E+02  0.51100000000E-03 0. -1.
        -11    1    4    4    0    0 -0.48697564932E+01 -0.16631787426E+02 -0.42578471525E+00  0.17335286966E+02  0.51100000000E-03 0.  1.
        -12    1    4    4    0    0 -0.21753478168E+02 -0.10812080461E+02 -0.52395341786E+01  0.24850907724E+02  0.00000000000E+00 0.  1.
</event>
<event>
 8    1  0.2553474E-006  0.9118800E+02  0.7816164E-02  0.1184000E+00
        -11   -1    0    0    0    0  0.00000000000E+00  0.00000000000E+00  0.45593999997E+02  0.45594000000E+02  0.51100000000E-03 0.  1.
         11   -1    0    0    0    0 -0.00000000000E+00 -0.00000000000E+00 -0.45593999997E+02  0.45594000000E+02  0.51100000000E-03 0. -1.
         23    2    1    2    0    0  0.35527136788E-14  0.00000000000E+00  0.17763568394E-14  0.91188000000E+02  0.91188000000E+02 0.  0.
    9900012    2    3    3    0    0 -0.19091091092E+02 -0.27601520596E+02 -0.15148135265E+02  0.54367086102E+02  0.40000004386E+02 0.  0.
        -12    1    3    3    0    0  0.19091091092E+02  0.27601520596E+02  0.15148135265E+02  0.36820913898E+02  0.00000000000E+00 0.  1.
         11    1    4    4    0    0 -0.16425128994E+02 -0.78490094232E+01 -0.10026336489E+02  0.20782666697E+02  0.51100000000E-03 0. -1.
        -11    1    4    4    0    0 -0.88240115824E+01 -0.21791241508E+02  0.24228695347E+01  0.23634544292E+02  0.51100000000E-03 0.  1.
        -12    1    4    4    0    0  0.61580494842E+01  0.20387303350E+01 -0.75446683106E+01  0.99498751121E+01  0.00000000000E+00 0.  1.
</event>
<event>
 8    1  0.2553474E-006  0.9118800E+02  0.7816164E-02  0.1184000E+00
        -11   -1    0    0    0    0  0.00000000000E+00  0.00000000000E+00  0.45593999997E+02  0.45594000000E+02  0.51100000000E-03 0.  1.
         11   -1    0    0    0    0 -0.00000000000E+00 -0.00000000000E+00 -0.45593999997E+02  0.45594000000E+02  0.51100000000E-03 0. -1.
         23    2    1    2    0    0 -0.71054273576E-14  0.39968028887E-14  0.00000000000E+00  0.91188000000E+02  0.91188000000E+02 0.  0.
    9900012    2    3    3    0    0  0.32953308244E+02  0.29103891043E+01 -0.16167481539E+02  0.54367104461E+02  0.40000046240E+02 0.  0.
        -12    1    3    3    0    0 -0.32953308244E+02 -0.29103891043E+01  0.16167481539E+02  0.36820895539E+02  0.00000000000E+00 0.  1.
         11    1    4    4    0    0  0.12747483710E+02  0.18804721308E+02 -0.84502316442E+01  0.24238859287E+02  0.51100000000E-03 0. -1.
        -11    1    4    4    0    0  0.16957497507E+02 -0.10040932246E+02  0.26678919594E+00  0.19709089751E+02  0.51100000000E-03 0.  1.
         12    1    4    4    0    0  0.32483270270E+01 -0.58533999577E+01 -0.79840390909E+01  0.10419155424E+02  0.00000000000E+00 0. -1.
</event>
<event>
 8    1  0.2553474E-006  0.9118800E+02  0.7816164E-02  0.1184000E+00
        -11   -1    0    0    0    0  0.00000000000E+00  0.00000000000E+00  0.45593999997E+02  0.45594000000E+02  0.51100000000E-03 0.  1.
         11   -1    0    0    0    0 -0.00000000000E+00 -0.00000000000E+00 -0.45593999997E+02  0.45594000000E+02  0.51100000000E-03 0. -1.
         23    2    1    2    0    0  0.00000000000E+00  0.00000000000E+00  0.71054273576E-14  0.91188000000E+02  0.91188000000E+02 0.  0.
    9900012    2    3    3    0    0  0.93565690784E+01 -0.15104934052E+02 -0.32250198098E+02  0.54367086174E+02  0.40000004551E+02 0.  0.
        -12    1    3    3    0    0 -0.93565690784E+01  0.15104934052E+02  0.32250198098E+02  0.36820913826E+02  0.00000000000E+00 0.  1.
         11    1    4    4    0    0 -0.52336971882E+01  0.28176700704E+01 -0.28502765891E+01  0.65920351773E+01  0.51100000000E-03 0. -1.
        -11    1    4    4    0    0  0.14759903555E+02 -0.22205636578E+02 -0.10934308675E+02  0.28818468996E+02  0.51100000000E-03 0.  1.
        -12    1    4    4    0    0 -0.16963728880E+00  0.42830324555E+01 -0.18465612834E+02  0.18956582001E+02  0.00000000000E+00 0.  1.
</event>
<event>
 8    1  0.2553474E-006  0.9118800E+02  0.7816164E-02  0.1184000E+00
        -11   -1    0    0    0    0  0.00000000000E+00  0.00000000000E+00  0.45593999997E+02  0.45594000000E+02  0.51100000000E-03 0. -1.
         11   -1    0    0    0    0 -0.00000000000E+00 -0.00000000000E+00 -0.45593999997E+02  0.45594000000E+02  0.51100000000E-03 0.  1.
         23    2    1    2    0    0  0.71054273576E-14  0.00000000000E+00  0.00000000000E+00  0.91188000000E+02  0.91188000000E+02 0.  0.
    9900012    2    3    3    0    0  0.33389262645E+02  0.12961356047E+02  0.85404075411E+01  0.54367106861E+02  0.40000051712E+02 0.  0.
         12    1    3    3    0    0 -0.33389262645E+02 -0.12961356047E+02 -0.85404075411E+01  0.36820893139E+02  0.00000000000E+00 0. -1.
         11    1    4    4    0    0  0.86850541136E+01  0.11270954727E+01  0.99935023711E+01  0.13287987021E+02  0.51100000000E-03 0. -1.
        -11    1    4    4    0    0 -0.58846746230E+01 -0.74953989636E+00  0.45327171166E+01  0.74657035968E+01  0.51100000000E-03 0.  1.
        -12    1    4    4    0    0  0.30588883155E+02  0.12583800470E+02 -0.59858119466E+01  0.33613416244E+02  0.00000000000E+00 0.  1.
</event>
<event>
 8    1  0.2553474E-006  0.9118800E+02  0.7816164E-02  0.1184000E+00
        -11   -1    0    0    0    0  0.00000000000E+00  0.00000000000E+00  0.45593999997E+02  0.45594000000E+02  0.51100000000E-03 0.  1.
         11   -1    0    0    0    0 -0.00000000000E+00 -0.00000000000E+00 -0.45593999997E+02  0.45594000000E+02  0.51100000000E-03 0. -1.
         23    2    1    2    0    0 -0.88817841970E-15 -0.11102230246E-15 -0.71054273576E-14  0.91188000000E+02  0.91188000000E+02 0.  0.
    9900012    2    3    3    0    0 -0.54309569285E+01  0.87310288800E+00 -0.36407660595E+02  0.54367145151E+02  0.40000139001E+02 0.  0.
        -12    1    3    3    0    0  0.54309569285E+01 -0.87310288800E+00  0.36407660595E+02  0.36820854849E+02  0.00000000000E+00 0.  1.
         11    1    4    4    0    0  0.58151937236E+01  0.11652809866E+01 -0.33042649297E+01  0.67891475759E+01  0.51100000000E-03 0. -1.
        -11    1    4    4    0    0 -0.12031007676E+02 -0.54019015459E+01  0.86693860538E+00  0.13216552834E+02  0.51100000000E-03 0.  1.
        -12    1    4    4    0    0  0.78485702391E+00  0.51097234473E+01 -0.33970334270E+02  0.34361444741E+02  0.00000000000E+00 0.  1.
</event>
<event>
 8    1  0.2553474E-006  0.9118800E+02  0.7816164E-02  0.1184000E+00
        -11   -1    0    0    0    0  0.00000000000E+00  0.00000000000E+00  0.45593999997E+02  0.45594000000E+02  0.51100000000E-03 0. -1.
         11   -1    0    0    0    0 -0.00000000000E+00 -0.00000000000E+00 -0.45593999997E+02  0.45594000000E+02  0.51100000000E-03 0.  1.
         23    2    1    2    0    0  0.17763568394E-14  0.00000000000E+00 -0.71054273576E-14  0.91188000000E+02  0.91188000000E+02 0.  0.
    9900012    2    3    3    0    0  0.24583528086E+01 -0.12127723548E+02 -0.34679296725E+02  0.54367098350E+02  0.40000032309E+02 0.  0.
         12    1    3    3    0    0 -0.24583528086E+01  0.12127723548E+02  0.34679296725E+02  0.36820901650E+02  0.00000000000E+00 0. -1.
         11    1    4    4    0    0 -0.10057889727E+02  0.73925996935E-01  0.38578526359E+01  0.10772633756E+02  0.51100000000E-03 0. -1.
        -11    1    4    4    0    0  0.23915798725E+01 -0.51189724666E+01 -0.40251292144E+01  0.69372327952E+01  0.51100000000E-03 0.  1.
         12    1    4    4    0    0  0.10124662663E+02 -0.70826770780E+01 -0.34512020146E+02  0.36657231799E+02  0.00000000000E+00 0. -1.
</event>
<event>
 8    1  0.2553474E-006  0.9118800E+02  0.7816164E-02  0.1184000E+00
        -11   -1    0    0    0    0  0.00000000000E+00  0.00000000000E+00  0.45593999997E+02  0.45594000000E+02  0.51100000000E-03 0. -1.
         11   -1    0    0    0    0 -0.00000000000E+00 -0.00000000000E+00 -0.45593999997E+02  0.45594000000E+02  0.51100000000E-03 0.  1.
         23    2    1    2    0    0  0.17763568394E-14  0.00000000000E+00  0.35527136788E-14  0.91188000000E+02  0.91188000000E+02 0.  0.
    9900012    2    3    3    0    0  0.13744809803E+02  0.20807991518E+02  0.27090360836E+02  0.54367082606E+02  0.39999996416E+02 0.  0.
        -12    1    3    3    0    0 -0.13744809803E+02 -0.20807991518E+02 -0.27090360836E+02  0.36820917394E+02  0.00000000000E+00 0.  1.
         11    1    4    4    0    0  0.70710362672E+01  0.62994587787E+01 -0.29471262438E+01  0.99180788541E+01  0.51100000000E-03 0. -1.
        -11    1    4    4    0    0 -0.83532067577E+01  0.13486113488E+02  0.22703581687E+02  0.27696641345E+02  0.51100000000E-03 0.  1.
         12    1    4    4    0    0  0.15026980293E+02  0.10224192516E+01  0.73339053931E+01  0.16752362406E+02  0.00000000000E+00 0. -1.
</event>
<event>
 8    1  0.2553474E-006  0.9118800E+02  0.7816164E-02  0.1184000E+00
        -11   -1    0    0    0    0  0.00000000000E+00  0.00000000000E+00  0.45593999997E+02  0.45594000000E+02  0.51100000000E-03 0.  1.
         11   -1    0    0    0    0 -0.00000000000E+00 -0.00000000000E+00 -0.45593999997E+02  0.45594000000E+02  0.51100000000E-03 0. -1.
         23    2    1    2    0    0 -0.88817841970E-15  0.00000000000E+00  0.00000000000E+00  0.91188000000E+02  0.91188000000E+02 0.  0.
    9900012    2    3    3    0    0 -0.63146833345E+01  0.33981108445E+02  0.12695847896E+02  0.54367142995E+02  0.40000134086E+02 0.  0.
         12    1    3    3    0    0  0.63146833345E+01 -0.33981108445E+02 -0.12695847896E+02  0.36820857005E+02  0.00000000000E+00 0. -1.
         11    1    4    4    0    0  0.71486355013E+01 -0.41826793835E+01  0.72053991104E+01  0.10977958506E+02  0.51100000000E-03 0. -1.
        -11    1    4    4    0    0 -0.65260398786E+01  0.75327083612E+01  0.66154134140E+01  0.11962214956E+02  0.51100000000E-03 0.  1.
         12    1    4    4    0    0 -0.69372789572E+01  0.30631079467E+02 -0.11249646280E+01  0.31426969533E+02  0.00000000000E+00 0. -1.
</event>
<event>
 8    1  0.2553474E-006  0.9118800E+02  0.7816164E-02  0.1184000E+00
        -11   -1    0    0    0    0  0.00000000000E+00  0.00000000000E+00  0.45593999997E+02  0.45594000000E+02  0.51100000000E-03 0. -1.
         11   -1    0    0    0    0 -0.00000000000E+00 -0.00000000000E+00 -0.45593999997E+02  0.45594000000E+02  0.51100000000E-03 0.  1.
         23    2    1    2    0    0  0.00000000000E+00 -0.17763568394E-14  0.00000000000E+00  0.91188000000E+02  0.91188000000E+02 0.  0.
    9900012    2    3    3    0    0 -0.19112388692E+02 -0.15751921738E+02 -0.27246543627E+02  0.54367074162E+02  0.39999977167E+02 0.  0.
         12    1    3    3    0    0  0.19112388692E+02  0.15751921738E+02  0.27246543627E+02  0.36820925838E+02  0.00000000000E+00 0. -1.
         11    1    4    4    0    0 -0.18194732182E+02  0.33682043519E+00 -0.23206470790E+02  0.29490710639E+02  0.51100000000E-03 0.  1.
        -11    1    4    4    0    0 -0.10142434457E+00 -0.11977495876E+02 -0.11316988902E+02  0.16478620465E+02  0.51100000000E-03 0. -1.
         12    1    4    4    0    0 -0.81623216491E+00 -0.41112462971E+01  0.72769160646E+01  0.83977430583E+01  0.00000000000E+00 0. -1.
</event>
<event>
 8    1  0.2553474E-006  0.9118800E+02  0.7816164E-02  0.1184000E+00
        -11   -1    0    0    0    0  0.00000000000E+00  0.00000000000E+00  0.45593999997E+02  0.45594000000E+02  0.51100000000E-03 0. -1.
         11   -1    0    0    0    0 -0.00000000000E+00 -0.00000000000E+00 -0.45593999997E+02  0.45594000000E+02  0.51100000000E-03 0.  1.
         23    2    1    2    0    0  0.00000000000E+00  0.00000000000E+00 -0.35527136788E-14  0.91188000000E+02  0.91188000000E+02 0.  0.
    9900012    2    3    3    0    0 -0.17408703544E+02 -0.22261092842E+02  0.23604285994E+02  0.54367061244E+02  0.39999947718E+02 0.  0.
        -12    1    3    3    0    0  0.17408703544E+02  0.22261092842E+02 -0.23604285994E+02  0.36820938756E+02  0.00000000000E+00 0.  1.
         11    1    4    4    0    0 -0.57675572774E+01 -0.19697306799E+02  0.17014478376E+02  0.26659727808E+02  0.51100000000E-03 0. -1.
        -11    1    4    4    0    0 -0.24393527146E+01  0.97334339453E+01 -0.18178960703E+01  0.10197790173E+02  0.51100000000E-03 0.  1.
        -12    1    4    4    0    0 -0.92017935516E+01 -0.12297219988E+02  0.84077036881E+01  0.17509543263E+02  0.00000000000E+00 0.  1.
</event>
<event>
 8    1  0.2553474E-006  0.9118800E+02  0.7816164E-02  0.1184000E+00
        -11   -1    0    0    0    0  0.00000000000E+00  0.00000000000E+00  0.45593999997E+02  0.45594000000E+02  0.51100000000E-03 0.  1.
         11   -1    0    0    0    0 -0.00000000000E+00 -0.00000000000E+00 -0.45593999997E+02  0.45594000000E+02  0.51100000000E-03 0. -1.
         23    2    1    2    0    0  0.17763568394E-14 -0.35527136788E-14  0.00000000000E+00  0.91188000000E+02  0.91188000000E+02 0.  0.
    9900012    2    3    3    0    0  0.83216405885E+01 -0.26138443466E+02 -0.24562421537E+02  0.54367075504E+02  0.39999980227E+02 0.  0.
        -12    1    3    3    0    0 -0.83216405885E+01  0.26138443466E+02  0.24562421537E+02  0.36820924496E+02  0.00000000000E+00 0.  1.
         11    1    4    4    0    0 -0.31312952832E+01 -0.26040797632E+02 -0.12239271518E+02  0.28943529830E+02  0.51100000000E-03 0. -1.
        -11    1    4    4    0    0  0.64596195630E+01 -0.82770206610E+01 -0.93655787286E+00  0.10541010238E+02  0.51100000000E-03 0.  1.
        -12    1    4    4    0    0  0.49933163088E+01  0.81793748268E+01 -0.11386592147E+02  0.14882535437E+02  0.00000000000E+00 0.  1.
</event>
<event>
 8    1  0.2553474E-006  0.9118800E+02  0.7816164E-02  0.1184000E+00
        -11   -1    0    0    0    0  0.00000000000E+00  0.00000000000E+00  0.45593999997E+02  0.45594000000E+02  0.51100000000E-03 0. -1.
         11   -1    0    0    0    0 -0.00000000000E+00 -0.00000000000E+00 -0.45593999997E+02  0.45594000000E+02  0.51100000000E-03 0.  1.
         23    2    1    2    0    0  0.25535129566E-14  0.35527136788E-14 -0.35527136788E-14  0.91188000000E+02  0.91188000000E+02 0.  0.
    9900012    2    3    3    0    0 -0.58446148993E+00 -0.28409822472E+02 -0.23416220492E+02  0.54367095744E+02  0.40000026367E+02 0.  0.
         12    1    3    3    0    0  0.58446148993E+00  0.28409822472E+02  0.23416220492E+02  0.36820904256E+02  0.00000000000E+00 0. -1.
         11    1    4    4    0    0  0.14514710717E+02 -0.18789447668E+02 -0.18732908853E+02  0.30243049536E+02  0.51100000000E-03 0. -1.
        -11    1    4    4    0    0 -0.39983752988E+01 -0.45105341505E+01 -0.92816716282E+01  0.11067129340E+02  0.51100000000E-03 0.  1.
         12    1    4    4    0    0 -0.11100796908E+02 -0.51098406533E+01  0.45983599889E+01  0.13056916868E+02  0.00000000000E+00 0. -1.
</event>
<event>
 8    1  0.2553474E-006  0.9118800E+02  0.7816164E-02  0.1184000E+00
        -11   -1    0    0    0    0  0.00000000000E+00  0.00000000000E+00  0.45593999997E+02  0.45594000000E+02  0.51100000000E-03 0. -1.
         11   -1    0    0    0    0 -0.00000000000E+00 -0.00000000000E+00 -0.45593999997E+02  0.45594000000E+02  0.51100000000E-03 0.  1.
         23    2    1    2    0    0  0.00000000000E+00 -0.35527136788E-14  0.00000000000E+00  0.91188000000E+02  0.91188000000E+02 0.  0.
    9900012    2    3    3    0    0 -0.72153844499E+01  0.26845432090E+02 -0.24146250198E+02  0.54367076662E+02  0.39999982866E+02 0.  0.
         12    1    3    3    0    0  0.72153844499E+01 -0.26845432090E+02  0.24146250198E+02  0.36820923338E+02  0.00000000000E+00 0. -1.
         11    1    4    4    0    0 -0.73031048210E+01 -0.62065394098E+01 -0.66653531195E+01  0.11674048310E+02  0.51100000000E-03 0. -1.
        -11    1    4    4    0    0  0.21136576174E+01  0.31941831975E+02 -0.21142596961E+02  0.38363492867E+02  0.51100000000E-03 0.  1.
        -12    1    4    4    0    0 -0.20259372462E+01  0.11101395247E+01  0.36616998821E+01  0.43295354851E+01  0.00000000000E+00 0.  1.
</event>
<event>
 8    1  0.2553474E-006  0.9118800E+02  0.7816164E-02  0.1184000E+00
        -11   -1    0    0    0    0  0.00000000000E+00  0.00000000000E+00  0.45593999997E+02  0.45594000000E+02  0.51100000000E-03 0.  1.
         11   -1    0    0    0    0 -0.00000000000E+00 -0.00000000000E+00 -0.45593999997E+02  0.45594000000E+02  0.51100000000E-03 0. -1.
         23    2    1    2    0    0  0.00000000000E+00  0.00000000000E+00 -0.35527136788E-14  0.91188000000E+02  0.91188000000E+02 0.  0.
    9900012    2    3    3    0    0  0.18627582969E+02  0.58958074435E+01 -0.31209480536E+02  0.54367094688E+02  0.40000023960E+02 0.  0.
        -12    1    3    3    0    0 -0.18627582969E+02 -0.58958074435E+01  0.31209480536E+02  0.36820905312E+02  0.00000000000E+00 0.  1.
         11    1    4    4    0    0  0.24162098876E+01 -0.28286994494E+01 -0.15496592533E+02  0.15936875201E+02  0.51100000000E-03 0. -1.
        -11    1    4    4    0    0 -0.55015803656E+01  0.72709274751E+01  0.31345013480E+01  0.96415181288E+01  0.51100000000E-03 0.  1.
         12    1    4    4    0    0  0.21712953447E+02  0.14535794179E+01 -0.18847389351E+02  0.28788701358E+02  0.00000000000E+00 0. -1.
</event>
<event>
 8    1  0.2553474E-006  0.9118800E+02  0.7816164E-02  0.1184000E+00
        -11   -1    0    0    0    0  0.00000000000E+00  0.00000000000E+00  0.45593999997E+02  0.45594000000E+02  0.51100000000E-03 0.  1.
         11   -1    0    0    0    0 -0.00000000000E+00 -0.00000000000E+00 -0.45593999997E+02  0.45594000000E+02  0.51100000000E-03 0. -1.
         23    2    1    2    0    0 -0.35527136788E-14  0.00000000000E+00  0.00000000000E+00  0.91188000000E+02  0.91188000000E+02 0.  0.
    9900012    2    3    3    0    0 -0.20194356127E+02 -0.30015124029E+02 -0.68600662732E+01  0.54367079328E+02  0.39999988944E+02 0.  0.
        -12    1    3    3    0    0  0.20194356127E+02  0.30015124029E+02  0.68600662732E+01  0.36820920672E+02  0.00000000000E+00 0.  1.
         11    1    4    4    0    0  0.41919062162E+01 -0.18233274681E+02 -0.12929855788E+01  0.18753564868E+02  0.51100000000E-03 0. -1.
        -11    1    4    4    0    0 -0.82862096364E+01 -0.15407072449E+02 -0.74282722506E+01  0.19005745986E+02  0.51100000000E-03 0.  1.
        -12    1    4    4    0    0 -0.16100052707E+02  0.36252231003E+01  0.18611915563E+01  0.16607768474E+02  0.00000000000E+00 0.  1.
</event>
<event>
 8    1  0.2553474E-006  0.9118800E+02  0.7816164E-02  0.1184000E+00
        -11   -1    0    0    0    0  0.00000000000E+00  0.00000000000E+00  0.45593999997E+02  0.45594000000E+02  0.51100000000E-03 0.  1.
         11   -1    0    0    0    0 -0.00000000000E+00 -0.00000000000E+00 -0.45593999997E+02  0.45594000000E+02  0.51100000000E-03 0. -1.
         23    2    1    2    0    0  0.71054273576E-14 -0.17763568394E-14  0.17763568394E-14  0.91188000000E+02  0.91188000000E+02 0.  0.
    9900012    2    3    3    0    0  0.32999936600E+02 -0.12684893088E+02  0.10289728372E+02  0.54367070650E+02  0.39999969160E+02 0.  0.
         12    1    3    3    0    0 -0.32999936600E+02  0.12684893088E+02 -0.10289728372E+02  0.36820929350E+02  0.00000000000E+00 0. -1.
         11    1    4    4    0    0  0.25974241699E+02  0.14800746827E+01 -0.29006813731E+01  0.26177582119E+02  0.51100000000E-03 0. -1.
        -11    1    4    4    0    0  0.17739958221E+01 -0.15888812512E+02  0.25370769302E+01  0.16187593515E+02  0.51100000000E-03 0.  1.
        -12    1    4    4    0    0  0.52516990785E+01  0.17238447409E+01  0.10653332815E+02  0.12001895015E+02  0.00000000000E+00 0.  1.
</event>
<event>
 8    1  0.2553474E-006  0.9118800E+02  0.7816164E-02  0.1184000E+00
        -11   -1    0    0    0    0  0.00000000000E+00  0.00000000000E+00  0.45593999997E+02  0.45594000000E+02  0.51100000000E-03 0.  1.
         11   -1    0    0    0    0 -0.00000000000E+00 -0.00000000000E+00 -0.45593999997E+02  0.45594000000E+02  0.51100000000E-03 0. -1.
         23    2    1    2    0    0 -0.71054273576E-14  0.00000000000E+00 -0.17763568394E-14  0.91188000000E+02  0.91188000000E+02 0.  0.
    9900012    2    3    3    0    0 -0.33813120066E+02  0.42030035648E+01  0.13956580342E+02  0.54367102911E+02  0.40000042707E+02 0.  0.
        -12    1    3    3    0    0  0.33813120066E+02 -0.42030035648E+01 -0.13956580342E+02  0.36820897089E+02  0.00000000000E+00 0.  1.
         11    1    4    4    0    0  0.15641257947E+01 -0.35450638704E-01 -0.47521426468E+01  0.50030596884E+01  0.51100000000E-03 0. -1.
        -11    1    4    4    0    0 -0.45990168310E+01  0.38679633766E+01 -0.70241833652E+01  0.92439844604E+01  0.51100000000E-03 0.  1.
        -12    1    4    4    0    0 -0.30778229030E+02  0.37049082690E+00  0.25732906354E+02  0.40120058762E+02  0.00000000000E+00 0.  1.
</event>
<event>
 8    1  0.2553474E-006  0.9118800E+02  0.7816164E-02  0.1184000E+00
        -11   -1    0    0    0    0  0.00000000000E+00  0.00000000000E+00  0.45593999997E+02  0.45594000000E+02  0.51100000000E-03 0.  1.
         11   -1    0    0    0    0 -0.00000000000E+00 -0.00000000000E+00 -0.45593999997E+02  0.45594000000E+02  0.51100000000E-03 0. -1.
         23    2    1    2    0    0  0.00000000000E+00 -0.44408920985E-15  0.71054273576E-14  0.91188000000E+02  0.91188000000E+02 0.  0.
    9900012    2    3    3    0    0 -0.10971964775E+02 -0.20089563933E+01  0.35090739012E+02  0.54367083645E+02  0.39999998785E+02 0.  0.
         12    1    3    3    0    0  0.10971964775E+02  0.20089563933E+01 -0.35090739012E+02  0.36820916355E+02  0.00000000000E+00 0. -1.
         11    1    4    4    0    0  0.10439486196E+02  0.86248545044E+00  0.11446923386E+02  0.15516404495E+02  0.51100000000E-03 0. -1.
        -11    1    4    4    0    0 -0.90764903752E+01  0.15551533617E+01  0.24035953448E+02  0.25739623888E+02  0.51100000000E-03 0.  1.
         12    1    4    4    0    0 -0.12334960596E+02 -0.44265952054E+01 -0.39213782118E+00  0.13111055262E+02  0.00000000000E+00 0. -1.
</event>
<event>
 8    1  0.2553474E-006  0.9118800E+02  0.7816164E-02  0.1184000E+00
        -11   -1    0    0    0    0  0.00000000000E+00  0.00000000000E+00  0.45593999997E+02  0.45594000000E+02  0.51100000000E-03 0.  1.
         11   -1    0    0    0    0 -0.00000000000E+00 -0.00000000000E+00 -0.45593999997E+02  0.45594000000E+02  0.51100000000E-03 0. -1.
         23    2    1    2    0    0 -0.71054273576E-14  0.00000000000E+00  0.00000000000E+00  0.91188000000E+02  0.91188000000E+02 0.  0.
    9900012    2    3    3    0    0 -0.33701934816E+02 -0.48015869258E+01 -0.14032283995E+02  0.54367073322E+02  0.39999975251E+02 0.  0.
        -12    1    3    3    0    0  0.33701934816E+02  0.48015869258E+01  0.14032283995E+02  0.36820926678E+02  0.00000000000E+00 0.  1.
         11    1    4    4    0    0 -0.24769465569E+01 -0.11648183909E+02 -0.53742154380E+01  0.13065130863E+02  0.51100000000E-03 0. -1.
        -11    1    4    4    0    0 -0.89297352096E+01 -0.86847035050E+01  0.92276384342E+00  0.12490626055E+02  0.51100000000E-03 0.  1.
         12    1    4    4    0    0 -0.22295253049E+02  0.15531300489E+02 -0.95808324003E+01  0.28811316403E+02  0.00000000000E+00 0. -1.
</event>
<event>
 8    1  0.2553474E-006  0.9118800E+02  0.7816164E-02  0.1184000E+00
        -11   -1    0    0    0    0  0.00000000000E+00  0.00000000000E+00  0.45593999997E+02  0.45594000000E+02  0.51100000000E-03 0.  1.
         11   -1    0    0    0    0 -0.00000000000E+00 -0.00000000000E+00 -0.45593999997E+02  0.45594000000E+02  0.51100000000E-03 0. -1.
         23    2    1    2    0    0 -0.35527136788E-14  0.00000000000E+00  0.00000000000E+00  0.91188000000E+02  0.91188000000E+02 0.  0.
    9900012    2    3    3    0    0  0.23059557919E+02 -0.11431677462E+02 -0.26331601752E+02  0.54367085945E+02  0.40000004028E+02 0.  0.
        -12    1    3    3    0    0 -0.23059557919E+02  0.11431677462E+02  0.26331601752E+02  0.36820914055E+02  0.00000000000E+00 0.  1.
         11    1    4    4    0    0  0.54097774089E+01 -0.10725219590E+02 -0.70630420860E+01  0.13934941358E+02  0.51100000000E-03 0. -1.
        -11    1    4    4    0    0 -0.61888770112E+01 -0.60205765790E+01  0.10022078620E+01  0.86921782002E+01  0.51100000000E-03 0.  1.
         12    1    4    4    0    0  0.23838657521E+02  0.53141187071E+01 -0.20270767528E+02  0.31739966387E+02  0.00000000000E+00 0. -1.
</event>
<event>
 8    1  0.2553474E-006  0.9118800E+02  0.7816164E-02  0.1184000E+00
        -11   -1    0    0    0    0  0.00000000000E+00  0.00000000000E+00  0.45593999997E+02  0.45594000000E+02  0.51100000000E-03 0.  1.
         11   -1    0    0    0    0 -0.00000000000E+00 -0.00000000000E+00 -0.45593999997E+02  0.45594000000E+02  0.51100000000E-03 0. -1.
         23    2    1    2    0    0 -0.17763568394E-14 -0.17763568394E-14 -0.71054273576E-14  0.91188000000E+02  0.91188000000E+02 0.  0.
    9900012    2    3    3    0    0 -0.11762722014E+02  0.10040126103E+02 -0.33415776932E+02  0.54367083264E+02  0.39999997916E+02 0.  0.
        -12    1    3    3    0    0  0.11762722014E+02 -0.10040126103E+02  0.33415776932E+02  0.36820916736E+02  0.00000000000E+00 0.  1.
         11    1    4    4    0    0  0.23181560992E+01  0.17056191827E+02 -0.24898599457E+02  0.30269254740E+02  0.51100000000E-03 0. -1.
        -11    1    4    4    0    0 -0.32454428590E+01 -0.94874795662E+01  0.11126795522E+00  0.10027838685E+02  0.51100000000E-03 0.  1.
        -12    1    4    4    0    0 -0.10835435254E+02  0.24714138425E+01 -0.86284454302E+01  0.14069989839E+02  0.00000000000E+00 0.  1.
</event>
<event>
 8    1  0.2553474E-006  0.9118800E+02  0.7816164E-02  0.1184000E+00
        -11   -1    0    0    0    0  0.00000000000E+00  0.00000000000E+00  0.45593999997E+02  0.45594000000E+02  0.51100000000E-03 0. -1.
         11   -1    0    0    0    0 -0.00000000000E+00 -0.00000000000E+00 -0.45593999997E+02  0.45594000000E+02  0.51100000000E-03 0.  1.
         23    2    1    2    0    0  0.00000000000E+00  0.00000000000E+00  0.35527136788E-14  0.91188000000E+02  0.91188000000E+02 0.  0.
    9900012    2    3    3    0    0  0.92737625614E+01  0.25308785323E+02  0.25084709474E+02  0.54367082901E+02  0.39999997090E+02 0.  0.
        -12    1    3    3    0    0 -0.92737625614E+01 -0.25308785323E+02 -0.25084709474E+02  0.36820917099E+02  0.00000000000E+00 0.  1.
         11    1    4    4    0    0 -0.34281715074E+01  0.11543338598E+02 -0.83945039620E+01  0.14678852915E+02  0.51100000000E-03 0. -1.
        -11    1    4    4    0    0 -0.15693838780E+00 -0.83827199831E+00 -0.12011545545E+00  0.86125349606E+00  0.51100000000E-03 0.  1.
         12    1    4    4    0    0  0.12858872457E+02  0.14603718723E+02  0.33599328892E+02  0.38826976490E+02  0.00000000000E+00 0. -1.
</event>
<event>
 8    1  0.2553474E-006  0.9118800E+02  0.7816164E-02  0.1184000E+00
        -11   -1    0    0    0    0  0.00000000000E+00  0.00000000000E+00  0.45593999997E+02  0.45594000000E+02  0.51100000000E-03 0.  1.
         11   -1    0    0    0    0 -0.00000000000E+00 -0.00000000000E+00 -0.45593999997E+02  0.45594000000E+02  0.51100000000E-03 0. -1.
         23    2    1    2    0    0 -0.88817841970E-15 -0.71054273576E-14 -0.38857805862E-15  0.91188000000E+02  0.91188000000E+02 0.  0.
    9900012    2    3    3    0    0 -0.56397465914E+01 -0.36384956015E+02  0.32954899903E+00  0.54367077030E+02  0.39999983705E+02 0.  0.
        -12    1    3    3    0    0  0.56397465914E+01  0.36384956015E+02 -0.32954899903E+00  0.36820922970E+02  0.00000000000E+00 0.  1.
         11    1    4    4    0    0 -0.56856679869E+01 -0.42789221080E+02 -0.57382602205E+01  0.43545055881E+02  0.51100000000E-03 0. -1.
        -11    1    4    4    0    0  0.28458686885E+01  0.21203597820E+01  0.11662660137E+01  0.37356486549E+01  0.51100000000E-03 0.  1.
         12    1    4    4    0    0 -0.27999472930E+01  0.42839052831E+01  0.49015432058E+01  0.70863724935E+01  0.00000000000E+00 0. -1.
</event>
<event>
 8    1  0.2553474E-006  0.9118800E+02  0.7816164E-02  0.1184000E+00
        -11   -1    0    0    0    0  0.00000000000E+00  0.00000000000E+00  0.45593999997E+02  0.45594000000E+02  0.51100000000E-03 0.  1.
         11   -1    0    0    0    0 -0.00000000000E+00 -0.00000000000E+00 -0.45593999997E+02  0.45594000000E+02  0.51100000000E-03 0. -1.
         23    2    1    2    0    0 -0.13322676296E-14 -0.35527136788E-14  0.00000000000E+00  0.91188000000E+02  0.91188000000E+02 0.  0.
    9900012    2    3    3    0    0  0.30517076611E+01  0.22026584904E+02 -0.29347890796E+02  0.54367054109E+02  0.39999931452E+02 0.  0.
        -12    1    3    3    0    0 -0.30517076611E+01 -0.22026584904E+02  0.29347890796E+02  0.36820945891E+02  0.00000000000E+00 0.  1.
         11    1    4    4    0    0  0.74632233654E+01  0.20289794028E+02 -0.16207452179E+02  0.27019566079E+02  0.51100000000E-03 0. -1.
        -11    1    4    4    0    0 -0.45440763416E+01  0.10903744296E+02 -0.61947770490E+00  0.11828948489E+02  0.51100000000E-03 0.  1.
        -12    1    4    4    0    0  0.13256063733E+00 -0.91669534200E+01 -0.12520960912E+02  0.15518539541E+02  0.00000000000E+00 0.  1.
</event>
<event>
 8    1  0.2553474E-006  0.9118800E+02  0.7816164E-02  0.1184000E+00
        -11   -1    0    0    0    0  0.00000000000E+00  0.00000000000E+00  0.45593999997E+02  0.45594000000E+02  0.51100000000E-03 0. -1.
         11   -1    0    0    0    0 -0.00000000000E+00 -0.00000000000E+00 -0.45593999997E+02  0.45594000000E+02  0.51100000000E-03 0.  1.
         23    2    1    2    0    0  0.00000000000E+00 -0.35527136788E-14  0.00000000000E+00  0.91188000000E+02  0.91188000000E+02 0.  0.
    9900012    2    3    3    0    0  0.23850518923E+01  0.25626346158E+02  0.26332367309E+02  0.54366923725E+02  0.39999634213E+02 0.  0.
        -12    1    3    3    0    0 -0.23850518923E+01 -0.25626346158E+02 -0.26332367309E+02  0.36821076275E+02  0.00000000000E+00 0.  1.
         11    1    4    4    0    0  0.27015192571E+01  0.15940523660E+02  0.15415180228E+02  0.22338896181E+02  0.51100000000E-03 0. -1.
        -11    1    4    4    0    0  0.53088409797E+01 -0.74942029836E+01  0.10494349175E+02  0.13945545374E+02  0.51100000000E-03 0.  1.
         12    1    4    4    0    0 -0.56253083444E+01  0.17180025482E+02  0.42283790650E+00  0.18082482170E+02  0.00000000000E+00 0. -1.
</event>
<event>
 8    1  0.2553474E-006  0.9118800E+02  0.7816164E-02  0.1184000E+00
        -11   -1    0    0    0    0  0.00000000000E+00  0.00000000000E+00  0.45593999997E+02  0.45594000000E+02  0.51100000000E-03 0.  1.
         11   -1    0    0    0    0 -0.00000000000E+00 -0.00000000000E+00 -0.45593999997E+02  0.45594000000E+02  0.51100000000E-03 0. -1.
         23    2    1    2    0    0  0.17763568394E-14  0.00000000000E+00  0.35527136788E-14  0.91188000000E+02  0.91188000000E+02 0.  0.
    9900012    2    3    3    0    0 -0.14456337643E+02  0.18546483470E+02  0.28334045828E+02  0.54367137705E+02  0.40000122026E+02 0.  0.
         12    1    3    3    0    0  0.14456337643E+02 -0.18546483470E+02 -0.28334045828E+02  0.36820862295E+02  0.00000000000E+00 0. -1.
         11    1    4    4    0    0 -0.73454756598E+01  0.16965688689E+01 -0.76852890097E+01  0.10765594550E+02  0.51100000000E-03 0. -1.
        -11    1    4    4    0    0 -0.10841711404E+02  0.71955655653E+01  0.13153282914E+02  0.18502100466E+02  0.51100000000E-03 0.  1.
         12    1    4    4    0    0  0.37308494206E+01  0.96543490363E+01  0.22866051924E+02  0.25099442689E+02  0.00000000000E+00 0. -1.
</event>
<event>
 8    1  0.2553474E-006  0.9118800E+02  0.7816164E-02  0.1184000E+00
        -11   -1    0    0    0    0  0.00000000000E+00  0.00000000000E+00  0.45593999997E+02  0.45594000000E+02  0.51100000000E-03 0. -1.
         11   -1    0    0    0    0 -0.00000000000E+00 -0.00000000000E+00 -0.45593999997E+02  0.45594000000E+02  0.51100000000E-03 0.  1.
         23    2    1    2    0    0 -0.35527136788E-14  0.00000000000E+00  0.00000000000E+00  0.91188000000E+02  0.91188000000E+02 0.  0.
    9900012    2    3    3    0    0  0.17069601089E+02 -0.19173069567E+02 -0.26397010181E+02  0.54367081700E+02  0.39999994352E+02 0.  0.
         12    1    3    3    0    0 -0.17069601089E+02  0.19173069567E+02  0.26397010181E+02  0.36820918300E+02  0.00000000000E+00 0. -1.
         11    1    4    4    0    0 -0.18323794378E+01 -0.12219147302E+02 -0.15991094007E+02  0.20208420596E+02  0.51100000000E-03 0.  1.
        -11    1    4    4    0    0 -0.46190313440E+01 -0.45004163471E+01 -0.81642187152E+01  0.10404021595E+02  0.51100000000E-03 0. -1.
        -12    1    4    4    0    0  0.23521011871E+02 -0.24535059186E+01 -0.22416974582E+01  0.23754639509E+02  0.00000000000E+00 0.  1.
</event>
<event>
 8    1  0.2553474E-006  0.9118800E+02  0.7816164E-02  0.1184000E+00
        -11   -1    0    0    0    0  0.00000000000E+00  0.00000000000E+00  0.45593999997E+02  0.45594000000E+02  0.51100000000E-03 0. -1.
         11   -1    0    0    0    0 -0.00000000000E+00 -0.00000000000E+00 -0.45593999997E+02  0.45594000000E+02  0.51100000000E-03 0.  1.
         23    2    1    2    0    0  0.00000000000E+00  0.00000000000E+00  0.35527136788E-14  0.91188000000E+02  0.91188000000E+02 0.  0.
    9900012    2    3    3    0    0  0.23596959369E+02  0.19560872119E+02  0.20404612129E+02  0.54366913573E+02  0.39999611070E+02 0.  0.
        -12    1    3    3    0    0 -0.23596959369E+02 -0.19560872119E+02 -0.20404612129E+02  0.36821086427E+02  0.00000000000E+00 0.  1.
         11    1    4    4    0    0  0.16877624082E+02  0.18789935846E+02  0.51796358869E+01  0.25782639740E+02  0.51100000000E-03 0. -1.
        -11    1    4    4    0    0  0.96037591451E+01 -0.92642605320E+01  0.11101482747E+02  0.17358042297E+02  0.51100000000E-03 0.  1.
        -12    1    4    4    0    0 -0.28844238583E+01  0.10035196805E+02  0.41234934951E+01  0.11226231537E+02  0.00000000000E+00 0.  1.
</event>
<event>
 8    1  0.2553474E-006  0.9118800E+02  0.7816164E-02  0.1184000E+00
        -11   -1    0    0    0    0  0.00000000000E+00  0.00000000000E+00  0.45593999997E+02  0.45594000000E+02  0.51100000000E-03 0.  1.
         11   -1    0    0    0    0 -0.00000000000E+00 -0.00000000000E+00 -0.45593999997E+02  0.45594000000E+02  0.51100000000E-03 0. -1.
         23    2    1    2    0    0 -0.35527136788E-14  0.00000000000E+00  0.17763568394E-14  0.91188000000E+02  0.91188000000E+02 0.  0.
    9900012    2    3    3    0    0 -0.24755550780E+02 -0.26333611820E+02  0.70343720797E+01  0.54367098375E+02  0.40000032366E+02 0.  0.
        -12    1    3    3    0    0  0.24755550780E+02  0.26333611820E+02 -0.70343720797E+01  0.36820901625E+02  0.00000000000E+00 0.  1.
         11    1    4    4    0    0 -0.27581289404E+01 -0.16577340323E+01 -0.70482105495E+01  0.77480726367E+01  0.51100000000E-03 0.  1.
        -11    1    4    4    0    0 -0.23554587388E+02 -0.25322234453E+02  0.22390943354E+01  0.34656134932E+02  0.51100000000E-03 0. -1.
        -12    1    4    4    0    0  0.15571655484E+01  0.64635666538E+00  0.11843488294E+02  0.11962890806E+02  0.00000000000E+00 0.  1.
</event>
<event>
 8    1  0.2553474E-006  0.9118800E+02  0.7816164E-02  0.1184000E+00
        -11   -1    0    0    0    0  0.00000000000E+00  0.00000000000E+00  0.45593999997E+02  0.45594000000E+02  0.51100000000E-03 0.  1.
         11   -1    0    0    0    0 -0.00000000000E+00 -0.00000000000E+00 -0.45593999997E+02  0.45594000000E+02  0.51100000000E-03 0. -1.
         23    2    1    2    0    0  0.35527136788E-14  0.35527136788E-14  0.00000000000E+00  0.91188000000E+02  0.91188000000E+02 0.  0.
    9900012    2    3    3    0    0 -0.31874868726E+02  0.16598274054E+02  0.80169052967E+01  0.54367072141E+02  0.39999972559E+02 0.  0.
         12    1    3    3    0    0  0.31874868726E+02 -0.16598274054E+02 -0.80169052967E+01  0.36820927859E+02  0.00000000000E+00 0. -1.
         11    1    4    4    0    0 -0.32168065951E+02  0.31142787070E+01 -0.23430244138E+00  0.32319314609E+02  0.51100000000E-03 0.  1.
        -11    1    4    4    0    0 -0.36646690600E+01 -0.20692697560E+01  0.29746145002E+01  0.51536402987E+01  0.51100000000E-03 0. -1.
         12    1    4    4    0    0  0.39578662849E+01  0.15553265103E+02  0.52765932378E+01  0.16894117233E+02  0.00000000000E+00 0. -1.
</event>
<event>
 8    1  0.2553474E-006  0.9118800E+02  0.7816164E-02  0.1184000E+00
        -11   -1    0    0    0    0  0.00000000000E+00  0.00000000000E+00  0.45593999997E+02  0.45594000000E+02  0.51100000000E-03 0.  1.
         11   -1    0    0    0    0 -0.00000000000E+00 -0.00000000000E+00 -0.45593999997E+02  0.45594000000E+02  0.51100000000E-03 0. -1.
         23    2    1    2    0    0  0.35527136788E-14  0.35527136788E-14  0.00000000000E+00  0.91188000000E+02  0.91188000000E+02 0.  0.
    9900012    2    3    3    0    0  0.28154347061E+02  0.20980822291E+02 -0.11086813474E+02  0.54367087526E+02  0.40000007633E+02 0.  0.
        -12    1    3    3    0    0 -0.28154347061E+02 -0.20980822291E+02  0.11086813474E+02  0.36820912474E+02  0.00000000000E+00 0.  1.
         11    1    4    4    0    0  0.12239750610E+02  0.78908645864E+01  0.31612180757E+01  0.14902031368E+02  0.51100000000E-03 0. -1.
        -11    1    4    4    0    0 -0.65491694000E+01  0.12246031161E+02 -0.25344664631E+01  0.14116671687E+02  0.51100000000E-03 0.  1.
        -12    1    4    4    0    0  0.22463765851E+02  0.84392654412E+00 -0.11713565087E+02  0.25348384471E+02  0.00000000000E+00 0.  1.
</event>
<event>
 8    1  0.2553474E-006  0.9118800E+02  0.7816164E-02  0.1184000E+00
        -11   -1    0    0    0    0  0.00000000000E+00  0.00000000000E+00  0.45593999997E+02  0.45594000000E+02  0.51100000000E-03 0.  1.
         11   -1    0    0    0    0 -0.00000000000E+00 -0.00000000000E+00 -0.45593999997E+02  0.45594000000E+02  0.51100000000E-03 0. -1.
         23    2    1    2    0    0  0.71054273576E-14 -0.35527136788E-14  0.00000000000E+00  0.91188000000E+02  0.91188000000E+02 0.  0.
    9900012    2    3    3    0    0 -0.28840446535E+02  0.19110264530E+02  0.12601870841E+02  0.54367072317E+02  0.39999972962E+02 0.  0.
         12    1    3    3    0    0  0.28840446535E+02 -0.19110264530E+02 -0.12601870841E+02  0.36820927683E+02  0.00000000000E+00 0. -1.
         11    1    4    4    0    0  0.48747099978E+01  0.18771348537E+00  0.10325913446E+02  0.11420268065E+02  0.51100000000E-03 0. -1.
        -11    1    4    4    0    0 -0.16817818218E+02  0.15978811910E+01  0.70054691125E+01  0.18288489048E+02  0.51100000000E-03 0.  1.
        -12    1    4    4    0    0 -0.16897338315E+02  0.17324669854E+02 -0.47295117175E+01  0.24658315205E+02  0.00000000000E+00 0.  1.
</event>
<event>
 8    1  0.2553474E-006  0.9118800E+02  0.7816164E-02  0.1184000E+00
        -11   -1    0    0    0    0  0.00000000000E+00  0.00000000000E+00  0.45593999997E+02  0.45594000000E+02  0.51100000000E-03 0. -1.
         11   -1    0    0    0    0 -0.00000000000E+00 -0.00000000000E+00 -0.45593999997E+02  0.45594000000E+02  0.51100000000E-03 0.  1.
         23    2    1    2    0    0  0.00000000000E+00 -0.35527136788E-14  0.00000000000E+00  0.91188000000E+02  0.91188000000E+02 0.  0.
    9900012    2    3    3    0    0 -0.21243156313E+02  0.20840662155E+02  0.21683518591E+02  0.54367083829E+02  0.39999999205E+02 0.  0.
        -12    1    3    3    0    0  0.21243156313E+02 -0.20840662155E+02 -0.21683518591E+02  0.36820916171E+02  0.00000000000E+00 0.  1.
         11    1    4    4    0    0 -0.25893546462E+02  0.22261746948E+02  0.56609105889E+01  0.34613682764E+02  0.51100000000E-03 0. -1.
        -11    1    4    4    0    0 -0.15456218902E+01  0.30416718559E+01  0.78993482694E+01  0.86046741977E+01  0.51100000000E-03 0.  1.
         12    1    4    4    0    0  0.61960120388E+01 -0.44627566485E+01  0.81232597323E+01  0.11148726868E+02  0.00000000000E+00 0. -1.
</event>
<event>
 8    1  0.2553474E-006  0.9118800E+02  0.7816164E-02  0.1184000E+00
        -11   -1    0    0    0    0  0.00000000000E+00  0.00000000000E+00  0.45593999997E+02  0.45594000000E+02  0.51100000000E-03 0.  1.
         11   -1    0    0    0    0 -0.00000000000E+00 -0.00000000000E+00 -0.45593999997E+02  0.45594000000E+02  0.51100000000E-03 0. -1.
         23    2    1    2    0    0  0.35527136788E-14 -0.71054273576E-14  0.00000000000E+00  0.91188000000E+02  0.91188000000E+02 0.  0.
    9900012    2    3    3    0    0  0.26157536631E+02 -0.19507607660E+02 -0.17059202710E+02  0.54367083712E+02  0.39999998938E+02 0.  0.
        -12    1    3    3    0    0 -0.26157536631E+02  0.19507607660E+02  0.17059202710E+02  0.36820916288E+02  0.00000000000E+00 0.  1.
         11    1    4    4    0    0  0.18155200881E+00  0.62694392692E+01 -0.18418901011E+01  0.65369250637E+01  0.51100000000E-03 0. -1.
        -11    1    4    4    0    0 -0.38383587684E+01 -0.94854350390E+01  0.80954442815E+00  0.10264591485E+02  0.51100000000E-03 0.  1.
         12    1    4    4    0    0  0.29814343391E+02 -0.16291611890E+02 -0.16026857037E+02  0.37565567163E+02  0.00000000000E+00 0. -1.
</event>
<event>
 8    1  0.2553474E-006  0.9118800E+02  0.7816164E-02  0.1184000E+00
        -11   -1    0    0    0    0  0.00000000000E+00  0.00000000000E+00  0.45593999997E+02  0.45594000000E+02  0.51100000000E-03 0. -1.
         11   -1    0    0    0    0 -0.00000000000E+00 -0.00000000000E+00 -0.45593999997E+02  0.45594000000E+02  0.51100000000E-03 0.  1.
         23    2    1    2    0    0  0.00000000000E+00 -0.88817841970E-15  0.00000000000E+00  0.91188000000E+02  0.91188000000E+02 0.  0.
    9900012    2    3    3    0    0 -0.36117759396E+02  0.66948985876E+01 -0.25430807908E+01  0.54367062059E+02  0.39999949577E+02 0.  0.
        -12    1    3    3    0    0  0.36117759396E+02 -0.66948985876E+01  0.25430807908E+01  0.36820937941E+02  0.00000000000E+00 0.  1.
         11    1    4    4    0    0 -0.14249986308E+02  0.52233654705E+00  0.70087414684E+00  0.14276770296E+02  0.51100000000E-03 0. -1.
        -11    1    4    4    0    0 -0.29865574318E+02  0.92750934428E+01 -0.37510251380E+01  0.31496826468E+02  0.51100000000E-03 0.  1.
        -12    1    4    4    0    0  0.79978012293E+01 -0.31025314023E+01  0.50707020044E+00  0.85934652960E+01  0.00000000000E+00 0.  1.
</event>
<event>
 8    1  0.2553474E-006  0.9118800E+02  0.7816164E-02  0.1184000E+00
        -11   -1    0    0    0    0  0.00000000000E+00  0.00000000000E+00  0.45593999997E+02  0.45594000000E+02  0.51100000000E-03 0. -1.
         11   -1    0    0    0    0 -0.00000000000E+00 -0.00000000000E+00 -0.45593999997E+02  0.45594000000E+02  0.51100000000E-03 0.  1.
         23    2    1    2    0    0  0.35527136788E-14 -0.44408920985E-15  0.00000000000E+00  0.91188000000E+02  0.91188000000E+02 0.  0.
    9900012    2    3    3    0    0 -0.12365629945E+02 -0.34529032933E+01 -0.34510115339E+02  0.54367090101E+02  0.40000013503E+02 0.  0.
         12    1    3    3    0    0  0.12365629945E+02  0.34529032933E+01  0.34510115339E+02  0.36820909899E+02  0.00000000000E+00 0. -1.
         11    1    4    4    0    0  0.78791684235E+01 -0.76063039889E+00 -0.14637590007E+02  0.16640880239E+02  0.51100000000E-03 0. -1.
        -11    1    4    4    0    0 -0.20529266544E+02 -0.11979630056E+01 -0.25003923047E+02  0.32374095635E+02  0.51100000000E-03 0.  1.
        -12    1    4    4    0    0  0.28446817452E+00 -0.14943098888E+01  0.51313977153E+01  0.53521142270E+01  0.00000000000E+00 0.  1.
</event>
<event>
 8    1  0.2553474E-006  0.9118800E+02  0.7816164E-02  0.1184000E+00
        -11   -1    0    0    0    0  0.00000000000E+00  0.00000000000E+00  0.45593999997E+02  0.45594000000E+02  0.51100000000E-03 0.  1.
         11   -1    0    0    0    0 -0.00000000000E+00 -0.00000000000E+00 -0.45593999997E+02  0.45594000000E+02  0.51100000000E-03 0. -1.
         23    2    1    2    0    0  0.00000000000E+00  0.00000000000E+00  0.00000000000E+00  0.91188000000E+02  0.91188000000E+02 0.  0.
    9900012    2    3    3    0    0  0.12547572729E+02  0.32752476924E+02  0.11207775980E+02  0.54367074313E+02  0.39999977511E+02 0.  0.
         12    1    3    3    0    0 -0.12547572729E+02 -0.32752476924E+02 -0.11207775980E+02  0.36820925687E+02  0.00000000000E+00 0. -1.
         11    1    4    4    0    0 -0.85139995122E+01 -0.27232775665E+01  0.53029227197E+01  0.10393527699E+02  0.51100000000E-03 0. -1.
        -11    1    4    4    0    0  0.21651719937E+01  0.99678747303E+00 -0.28272532018E+01  0.36979610540E+01  0.51100000000E-03 0.  1.
        -12    1    4    4    0    0  0.18896400248E+02  0.34478967017E+02  0.87321064622E+01  0.40275585560E+02  0.00000000000E+00 0.  1.
</event>
<event>
 8    1  0.2553474E-006  0.9118800E+02  0.7816164E-02  0.1184000E+00
        -11   -1    0    0    0    0  0.00000000000E+00  0.00000000000E+00  0.45593999997E+02  0.45594000000E+02  0.51100000000E-03 0. -1.
         11   -1    0    0    0    0 -0.00000000000E+00 -0.00000000000E+00 -0.45593999997E+02  0.45594000000E+02  0.51100000000E-03 0.  1.
         23    2    1    2    0    0  0.00000000000E+00 -0.35527136788E-14 -0.17763568394E-14  0.91188000000E+02  0.91188000000E+02 0.  0.
    9900012    2    3    3    0    0  0.28888256111E+02 -0.17741217940E+02 -0.14369685683E+02  0.54367217530E+02  0.40000304002E+02 0.  0.
         12    1    3    3    0    0 -0.28888256111E+02  0.17741217940E+02  0.14369685683E+02  0.36820782470E+02  0.00000000000E+00 0. -1.
         11    1    4    4    0    0  0.62514935517E+01  0.75819565949E+01  0.54351136875E+01  0.11229768408E+02  0.51100000000E-03 0. -1.
        -11    1    4    4    0    0  0.16917626118E+02 -0.87414010207E+01 -0.38532625096E+01  0.19428479032E+02  0.51100000000E-03 0.  1.
        -12    1    4    4    0    0  0.57191364406E+01 -0.16581773514E+02 -0.15951536861E+02  0.23708970090E+02  0.00000000000E+00 0.  1.
</event>
<event>
 8    1  0.2553474E-006  0.9118800E+02  0.7816164E-02  0.1184000E+00
        -11   -1    0    0    0    0  0.00000000000E+00  0.00000000000E+00  0.45593999997E+02  0.45594000000E+02  0.51100000000E-03 0. -1.
         11   -1    0    0    0    0 -0.00000000000E+00 -0.00000000000E+00 -0.45593999997E+02  0.45594000000E+02  0.51100000000E-03 0.  1.
         23    2    1    2    0    0  0.00000000000E+00  0.11102230246E-15  0.00000000000E+00  0.91188000000E+02  0.91188000000E+02 0.  0.
    9900012    2    3    3    0    0 -0.23206535297E+02 -0.63315404706E+00 -0.28580350002E+02  0.54367074282E+02  0.39999977440E+02 0.  0.
         12    1    3    3    0    0  0.23206535297E+02  0.63315404706E+00  0.28580350002E+02  0.36820925718E+02  0.00000000000E+00 0. -1.
         11    1    4    4    0    0 -0.28356116610E+02 -0.13481883444E+01 -0.20545822822E+02  0.35043084862E+02  0.51100000000E-03 0. -1.
        -11    1    4    4    0    0 -0.43070035096E+01  0.48151935495E+01 -0.60022417197E+01  0.88183487158E+01  0.51100000000E-03 0.  1.
         12    1    4    4    0    0  0.94565848225E+01 -0.41001592521E+01 -0.20322854608E+01  0.10505640704E+02  0.00000000000E+00 0. -1.
</event>
<event>
 8    1  0.2553474E-006  0.9118800E+02  0.7816164E-02  0.1184000E+00
        -11   -1    0    0    0    0  0.00000000000E+00  0.00000000000E+00  0.45593999997E+02  0.45594000000E+02  0.51100000000E-03 0.  1.
         11   -1    0    0    0    0 -0.00000000000E+00 -0.00000000000E+00 -0.45593999997E+02  0.45594000000E+02  0.51100000000E-03 0. -1.
         23    2    1    2    0    0  0.00000000000E+00 -0.71054273576E-14 -0.35527136788E-14  0.91188000000E+02  0.91188000000E+02 0.  0.
    9900012    2    3    3    0    0  0.10742143601E+02  0.26543611971E+02  0.23147843434E+02  0.54367086903E+02  0.40000006214E+02 0.  0.
        -12    1    3    3    0    0 -0.10742143601E+02 -0.26543611971E+02 -0.23147843434E+02  0.36820913097E+02  0.00000000000E+00 0.  1.
         11    1    4    4    0    0  0.12028795135E+02  0.47701923097E+01 -0.31706759836E+01  0.13322906347E+02  0.51100000000E-03 0. -1.
        -11    1    4    4    0    0 -0.52446437632E+01 -0.31095103246E+01  0.33834243398E+01  0.69730124900E+01  0.51100000000E-03 0.  1.
         12    1    4    4    0    0  0.39579922292E+01  0.24882929986E+02  0.22935095078E+02  0.34071168066E+02  0.00000000000E+00 0. -1.
</event>
<event>
 8    1  0.2553474E-006  0.9118800E+02  0.7816164E-02  0.1184000E+00
        -11   -1    0    0    0    0  0.00000000000E+00  0.00000000000E+00  0.45593999997E+02  0.45594000000E+02  0.51100000000E-03 0.  1.
         11   -1    0    0    0    0 -0.00000000000E+00 -0.00000000000E+00 -0.45593999997E+02  0.45594000000E+02  0.51100000000E-03 0. -1.
         23    2    1    2    0    0  0.88817841970E-15 -0.22204460493E-15  0.00000000000E+00  0.91188000000E+02  0.91188000000E+02 0.  0.
    9900012    2    3    3    0    0 -0.24218995519E+01 -0.18145643379E+01 -0.36696286661E+02  0.54367140479E+02  0.40000128350E+02 0.  0.
        -12    1    3    3    0    0  0.24218995519E+01  0.18145643379E+01  0.36696286661E+02  0.36820859521E+02  0.00000000000E+00 0.  1.
         11    1    4    4    0    0  0.53459095222E+01  0.10741412828E+02 -0.82637615373E+01  0.14568680557E+02  0.51100000000E-03 0.  1.
        -11    1    4    4    0    0  0.37501560657E+01  0.13063051378E+01 -0.19088681534E+02  0.19497381019E+02  0.51100000000E-03 0. -1.
        -12    1    4    4    0    0 -0.11517965140E+02 -0.13862282303E+02 -0.93438435893E+01  0.20301078903E+02  0.00000000000E+00 0.  1.
</event>
<event>
 8    1  0.2553474E-006  0.9118800E+02  0.7816164E-02  0.1184000E+00
        -11   -1    0    0    0    0  0.00000000000E+00  0.00000000000E+00  0.45593999997E+02  0.45594000000E+02  0.51100000000E-03 0.  1.
         11   -1    0    0    0    0 -0.00000000000E+00 -0.00000000000E+00 -0.45593999997E+02  0.45594000000E+02  0.51100000000E-03 0. -1.
         23    2    1    2    0    0  0.00000000000E+00 -0.35527136788E-14  0.35527136788E-14  0.91188000000E+02  0.91188000000E+02 0.  0.
    9900012    2    3    3    0    0 -0.93233198444E+01  0.29305572112E+02 -0.20249560212E+02  0.54367006823E+02  0.39999823654E+02 0.  0.
        -12    1    3    3    0    0  0.93233198444E+01 -0.29305572112E+02  0.20249560212E+02  0.36820993177E+02  0.00000000000E+00 0.  1.
         11    1    4    4    0    0 -0.24052060395E+00  0.45608741844E+01 -0.10303584919E+02  0.11270460768E+02  0.51100000000E-03 0. -1.
        -11    1    4    4    0    0 -0.90175208212E+01 -0.58263049397E+01  0.61266299387E+00  0.10753458384E+02  0.51100000000E-03 0.  1.
         12    1    4    4    0    0 -0.65278419227E-01  0.30571002868E+02 -0.10558638287E+02  0.32343087671E+02  0.00000000000E+00 0. -1.
</event>
<event>
 8    1  0.2553474E-006  0.9118800E+02  0.7816164E-02  0.1184000E+00
        -11   -1    0    0    0    0  0.00000000000E+00  0.00000000000E+00  0.45593999997E+02  0.45594000000E+02  0.51100000000E-03 0.  1.
         11   -1    0    0    0    0 -0.00000000000E+00 -0.00000000000E+00 -0.45593999997E+02  0.45594000000E+02  0.51100000000E-03 0. -1.
         23    2    1    2    0    0  0.71054273576E-14  0.00000000000E+00 -0.15543122345E-14  0.91188000000E+02  0.91188000000E+02 0.  0.
    9900012    2    3    3    0    0  0.36589517546E+02 -0.40121968203E+01 -0.93836653261E+00  0.54367203575E+02  0.40000272189E+02 0.  0.
        -12    1    3    3    0    0 -0.36589517546E+02  0.40121968203E+01  0.93836653261E+00  0.36820796425E+02  0.00000000000E+00 0.  1.
         11    1    4    4    0    0  0.15489390062E+02  0.79807277084E+01 -0.13124931454E+02  0.21814606235E+02  0.51100000000E-03 0. -1.
        -11    1    4    4    0    0  0.20395324365E+02 -0.25421525708E+01  0.67839683830E+01  0.21643798717E+02  0.51100000000E-03 0.  1.
        -12    1    4    4    0    0  0.70480311984E+00 -0.94507719579E+01  0.54025965386E+01  0.10908798623E+02  0.00000000000E+00 0.  1.
</event>
<event>
 8    1  0.2553474E-006  0.9118800E+02  0.7816164E-02  0.1184000E+00
        -11   -1    0    0    0    0  0.00000000000E+00  0.00000000000E+00  0.45593999997E+02  0.45594000000E+02  0.51100000000E-03 0.  1.
         11   -1    0    0    0    0 -0.00000000000E+00 -0.00000000000E+00 -0.45593999997E+02  0.45594000000E+02  0.51100000000E-03 0. -1.
         23    2    1    2    0    0  0.00000000000E+00  0.00000000000E+00  0.00000000000E+00  0.91188000000E+02  0.91188000000E+02 0.  0.
    9900012    2    3    3    0    0  0.32880999840E+02 -0.12428059481E+02  0.10961839733E+02  0.54367099097E+02  0.40000034012E+02 0.  0.
        -12    1    3    3    0    0 -0.32880999840E+02  0.12428059481E+02 -0.10961839733E+02  0.36820900903E+02  0.00000000000E+00 0.  1.
         11    1    4    4    0    0  0.11223867722E+02 -0.12907253049E+02  0.13494922692E+02  0.21787274420E+02  0.51100000000E-03 0.  1.
        -11    1    4    4    0    0 -0.24613832282E+00  0.37152583933E+01 -0.88114503797E+01  0.95658448167E+01  0.51100000000E-03 0. -1.
         12    1    4    4    0    0  0.21903270441E+02 -0.32360648259E+01  0.62783674200E+01  0.23013979861E+02  0.00000000000E+00 0. -1.
</event>
<event>
 8    1  0.2553474E-006  0.9118800E+02  0.7816164E-02  0.1184000E+00
        -11   -1    0    0    0    0  0.00000000000E+00  0.00000000000E+00  0.45593999997E+02  0.45594000000E+02  0.51100000000E-03 0.  1.
         11   -1    0    0    0    0 -0.00000000000E+00 -0.00000000000E+00 -0.45593999997E+02  0.45594000000E+02  0.51100000000E-03 0. -1.
         23    2    1    2    0    0 -0.17763568394E-14  0.00000000000E+00  0.17763568394E-14  0.91188000000E+02  0.91188000000E+02 0.  0.
    9900012    2    3    3    0    0  0.12019326300E+02  0.32483759734E+02 -0.12494784747E+02  0.54367102441E+02  0.40000041635E+02 0.  0.
         12    1    3    3    0    0 -0.12019326300E+02 -0.32483759734E+02  0.12494784747E+02  0.36820897559E+02  0.00000000000E+00 0. -1.
         11    1    4    4    0    0  0.21491542723E+02  0.28641468354E+02 -0.49383907848E+01  0.36147030609E+02  0.51100000000E-03 0.  1.
        -11    1    4    4    0    0 -0.22241041316E+00 -0.19299404781E+01 -0.70417657443E+01  0.73048341323E+01  0.51100000000E-03 0. -1.
        -12    1    4    4    0    0 -0.92498060095E+01  0.57722318584E+01 -0.51462821792E+00  0.10915237700E+02  0.00000000000E+00 0.  1.
</event>
<event>
 8    1  0.2553474E-006  0.9118800E+02  0.7816164E-02  0.1184000E+00
        -11   -1    0    0    0    0  0.00000000000E+00  0.00000000000E+00  0.45593999997E+02  0.45594000000E+02  0.51100000000E-03 0.  1.
         11   -1    0    0    0    0 -0.00000000000E+00 -0.00000000000E+00 -0.45593999997E+02  0.45594000000E+02  0.51100000000E-03 0. -1.
         23    2    1    2    0    0  0.00000000000E+00  0.35527136788E-14  0.35527136788E-14  0.91188000000E+02  0.91188000000E+02 0.  0.
    9900012    2    3    3    0    0  0.14892843489E+02  0.26753551798E+02 -0.20450674945E+02  0.54367089817E+02  0.40000012855E+02 0.  0.
        -12    1    3    3    0    0 -0.14892843489E+02 -0.26753551798E+02  0.20450674945E+02  0.36820910183E+02  0.00000000000E+00 0.  1.
         11    1    4    4    0    0 -0.28521957570E+01  0.69972239209E+00 -0.65915445041E+01  0.72161687392E+01  0.51100000000E-03 0. -1.
        -11    1    4    4    0    0 -0.49542555219E+01  0.59041489494E+01  0.69274122483E+01  0.10363043149E+02  0.51100000000E-03 0.  1.
         12    1    4    4    0    0  0.22699294768E+02  0.20149680457E+02 -0.20786542689E+02  0.36787877928E+02  0.00000000000E+00 0. -1.
</event>
<event>
 8    1  0.2553474E-006  0.9118800E+02  0.7816164E-02  0.1184000E+00
        -11   -1    0    0    0    0  0.00000000000E+00  0.00000000000E+00  0.45593999997E+02  0.45594000000E+02  0.51100000000E-03 0. -1.
         11   -1    0    0    0    0 -0.00000000000E+00 -0.00000000000E+00 -0.45593999997E+02  0.45594000000E+02  0.51100000000E-03 0.  1.
         23    2    1    2    0    0  0.00000000000E+00  0.00000000000E+00  0.88817841970E-15  0.91188000000E+02  0.91188000000E+02 0.  0.
    9900012    2    3    3    0    0 -0.22387951653E+02 -0.28527604362E+02  0.63828610713E+01  0.54367007275E+02  0.39999824684E+02 0.  0.
         12    1    3    3    0    0  0.22387951653E+02  0.28527604362E+02 -0.63828610713E+01  0.36820992725E+02  0.00000000000E+00 0. -1.
         11    1    4    4    0    0 -0.13147047249E+02 -0.32586988718E+02  0.11863527436E+02  0.37087733397E+02  0.51100000000E-03 0. -1.
        -11    1    4    4    0    0 -0.67525672791E+01  0.31707932702E+01  0.32650073819E+01  0.81431792493E+01  0.51100000000E-03 0.  1.
         12    1    4    4    0    0 -0.24883371246E+01  0.88859108598E+00 -0.87456737469E+01  0.91360946279E+01  0.00000000000E+00 0. -1.
</event>
<event>
 8    1  0.2553474E-006  0.9118800E+02  0.7816164E-02  0.1184000E+00
        -11   -1    0    0    0    0  0.00000000000E+00  0.00000000000E+00  0.45593999997E+02  0.45594000000E+02  0.51100000000E-03 0.  1.
         11   -1    0    0    0    0 -0.00000000000E+00 -0.00000000000E+00 -0.45593999997E+02  0.45594000000E+02  0.51100000000E-03 0. -1.
         23    2    1    2    0    0 -0.71054273576E-14  0.00000000000E+00  0.35527136788E-14  0.91188000000E+02  0.91188000000E+02 0.  0.
    9900012    2    3    3    0    0  0.21988594298E+02  0.83101658103E+01 -0.28341196016E+02  0.54367074881E+02  0.39999978807E+02 0.  0.
        -12    1    3    3    0    0 -0.21988594298E+02 -0.83101658103E+01  0.28341196016E+02  0.36820925119E+02  0.00000000000E+00 0.  1.
         11    1    4    4    0    0 -0.29586292793E+01  0.86886219870E+01  0.18776111606E+01  0.93686211994E+01  0.51100000000E-03 0. -1.
        -11    1    4    4    0    0  0.70117697053E+01 -0.71375518004E+01 -0.10015992173E+01  0.10055484143E+02  0.51100000000E-03 0.  1.
         12    1    4    4    0    0  0.17935453872E+02  0.67590956237E+01 -0.29217207959E+02  0.34942969539E+02  0.00000000000E+00 0. -1.
</event>
<event>
 8    1  0.2553474E-006  0.9118800E+02  0.7816164E-02  0.1184000E+00
        -11   -1    0    0    0    0  0.00000000000E+00  0.00000000000E+00  0.45593999997E+02  0.45594000000E+02  0.51100000000E-03 0. -1.
         11   -1    0    0    0    0 -0.00000000000E+00 -0.00000000000E+00 -0.45593999997E+02  0.45594000000E+02  0.51100000000E-03 0.  1.
         23    2    1    2    0    0  0.00000000000E+00  0.00000000000E+00  0.00000000000E+00  0.91188000000E+02  0.91188000000E+02 0.  0.
    9900012    2    3    3    0    0  0.28174753818E+02 -0.23535387622E+02  0.28361569172E+01  0.54367149802E+02  0.40000149604E+02 0.  0.
        -12    1    3    3    0    0 -0.28174753818E+02  0.23535387622E+02 -0.28361569172E+01  0.36820850198E+02  0.00000000000E+00 0.  1.
         11    1    4    4    0    0  0.18397800206E+02 -0.12144071057E+02  0.83148596940E+01  0.23560441554E+02  0.51100000000E-03 0. -1.
        -11    1    4    4    0    0 -0.59741195783E+01 -0.61508403219E+01  0.61386042858E+01  0.10545397301E+02  0.51100000000E-03 0.  1.
         12    1    4    4    0    0  0.15751073190E+02 -0.52404762435E+01 -0.11617307063E+02  0.20261310947E+02  0.00000000000E+00 0. -1.
</event>
<event>
 8    1  0.2553474E-006  0.9118800E+02  0.7816164E-02  0.1184000E+00
        -11   -1    0    0    0    0  0.00000000000E+00  0.00000000000E+00  0.45593999997E+02  0.45594000000E+02  0.51100000000E-03 0.  1.
         11   -1    0    0    0    0 -0.00000000000E+00 -0.00000000000E+00 -0.45593999997E+02  0.45594000000E+02  0.51100000000E-03 0. -1.
         23    2    1    2    0    0  0.00000000000E+00  0.35527136788E-14  0.00000000000E+00  0.91188000000E+02  0.91188000000E+02 0.  0.
    9900012    2    3    3    0    0  0.18940415728E+02  0.25994399098E+02 -0.17925742779E+02  0.54367076783E+02  0.39999983142E+02 0.  0.
        -12    1    3    3    0    0 -0.18940415728E+02 -0.25994399098E+02  0.17925742779E+02  0.36820923217E+02  0.00000000000E+00 0.  1.
         11    1    4    4    0    0 -0.15172653322E+01  0.14316579843E+02 -0.64958306742E+01  0.15794377762E+02  0.51100000000E-03 0. -1.
        -11    1    4    4    0    0  0.12995347565E+02  0.15247442147E+02  0.45809717399E+01  0.20551127772E+02  0.51100000000E-03 0.  1.
         12    1    4    4    0    0  0.74623334959E+01 -0.35696228922E+01 -0.16010883844E+02  0.18021571249E+02  0.00000000000E+00 0. -1.
</event>
<event>
 8    1  0.2553474E-006  0.9118800E+02  0.7816164E-02  0.1184000E+00
        -11   -1    0    0    0    0  0.00000000000E+00  0.00000000000E+00  0.45593999997E+02  0.45594000000E+02  0.51100000000E-03 0. -1.
         11   -1    0    0    0    0 -0.00000000000E+00 -0.00000000000E+00 -0.45593999997E+02  0.45594000000E+02  0.51100000000E-03 0.  1.
         23    2    1    2    0    0  0.17763568394E-14  0.00000000000E+00  0.00000000000E+00  0.91188000000E+02  0.91188000000E+02 0.  0.
    9900012    2    3    3    0    0 -0.92091823999E+01 -0.59626415264E+01 -0.35148509962E+02  0.54367083567E+02  0.39999998608E+02 0.  0.
         12    1    3    3    0    0  0.92091823999E+01  0.59626415264E+01  0.35148509962E+02  0.36820916433E+02  0.00000000000E+00 0. -1.
         11    1    4    4    0    0  0.79227101858E+01  0.45857966410E+01 -0.29832837724E+01  0.96280241924E+01  0.51100000000E-03 0. -1.
        -11    1    4    4    0    0  0.13932835070E+01  0.58343949326E+01 -0.92473366228E+01  0.11022460616E+02  0.51100000000E-03 0.  1.
         12    1    4    4    0    0 -0.18525176093E+02 -0.16382833100E+02 -0.22917889566E+02  0.33716598758E+02  0.00000000000E+00 0. -1.
</event>
<event>
 8    1  0.2553474E-006  0.9118800E+02  0.7816164E-02  0.1184000E+00
        -11   -1    0    0    0    0  0.00000000000E+00  0.00000000000E+00  0.45593999997E+02  0.45594000000E+02  0.51100000000E-03 0.  1.
         11   -1    0    0    0    0 -0.00000000000E+00 -0.00000000000E+00 -0.45593999997E+02  0.45594000000E+02  0.51100000000E-03 0. -1.
         23    2    1    2    0    0  0.35527136788E-14 -0.35527136788E-14  0.00000000000E+00  0.91188000000E+02  0.91188000000E+02 0.  0.
    9900012    2    3    3    0    0  0.20751810039E+02 -0.13745407270E+02  0.27133139225E+02  0.54367067296E+02  0.39999961516E+02 0.  0.
         12    1    3    3    0    0 -0.20751810039E+02  0.13745407270E+02 -0.27133139225E+02  0.36820932704E+02  0.00000000000E+00 0. -1.
         11    1    4    4    0    0  0.21252477694E+01  0.93806821297E+01  0.95410080256E+00  0.96656186508E+01  0.51100000000E-03 0. -1.
        -11    1    4    4    0    0 -0.18732988701E+01 -0.26959443990E+01  0.12060758550E+02  0.12499570469E+02  0.51100000000E-03 0.  1.
         12    1    4    4    0    0  0.20499861140E+02 -0.20430145001E+02  0.14118279873E+02  0.32201878177E+02  0.00000000000E+00 0. -1.
</event>
<event>
 8    1  0.2553474E-006  0.9118800E+02  0.7816164E-02  0.1184000E+00
        -11   -1    0    0    0    0  0.00000000000E+00  0.00000000000E+00  0.45593999997E+02  0.45594000000E+02  0.51100000000E-03 0.  1.
         11   -1    0    0    0    0 -0.00000000000E+00 -0.00000000000E+00 -0.45593999997E+02  0.45594000000E+02  0.51100000000E-03 0. -1.
         23    2    1    2    0    0  0.00000000000E+00  0.44408920985E-15  0.00000000000E+00  0.91188000000E+02  0.91188000000E+02 0.  0.
    9900012    2    3    3    0    0  0.48281612021E+01 -0.12698063159E+01 -0.36480887811E+02  0.54367099358E+02  0.40000034606E+02 0.  0.
        -12    1    3    3    0    0 -0.48281612021E+01  0.12698063159E+01  0.36480887811E+02  0.36820900642E+02  0.00000000000E+00 0.  1.
         11    1    4    4    0    0 -0.10764843047E+01 -0.10555101365E+02 -0.90608825821E+01  0.13952368140E+02  0.51100000000E-03 0. -1.
        -11    1    4    4    0    0  0.13205547491E+02 -0.39447209477E+01 -0.17758981345E+02  0.22479517934E+02  0.51100000000E-03 0.  1.
        -12    1    4    4    0    0 -0.73009019841E+01  0.13230015997E+02 -0.96610238838E+01  0.17935213284E+02  0.00000000000E+00 0.  1.
</event>
<event>
 8    1  0.2553474E-006  0.9118800E+02  0.7816164E-02  0.1184000E+00
        -11   -1    0    0    0    0  0.00000000000E+00  0.00000000000E+00  0.45593999997E+02  0.45594000000E+02  0.51100000000E-03 0.  1.
         11   -1    0    0    0    0 -0.00000000000E+00 -0.00000000000E+00 -0.45593999997E+02  0.45594000000E+02  0.51100000000E-03 0. -1.
         23    2    1    2    0    0 -0.35527136788E-14 -0.88817841970E-15  0.00000000000E+00  0.91188000000E+02  0.91188000000E+02 0.  0.
    9900012    2    3    3    0    0 -0.29391954660E+02 -0.66334067759E+01 -0.21163425281E+02  0.54367086734E+02  0.40000005827E+02 0.  0.
        -12    1    3    3    0    0  0.29391954660E+02  0.66334067759E+01  0.21163425281E+02  0.36820913266E+02  0.00000000000E+00 0.  1.
         11    1    4    4    0    0 -0.10749583517E+02 -0.37417691734E+01 -0.11059612852E+02  0.15870394419E+02  0.51100000000E-03 0. -1.
        -11    1    4    4    0    0 -0.14098274980E+02 -0.10399301241E+01 -0.21703724232E+02  0.25901630410E+02  0.51100000000E-03 0.  1.
        -12    1    4    4    0    0 -0.45440961630E+01 -0.18517074784E+01  0.11599911804E+02  0.12595061905E+02  0.00000000000E+00 0.  1.
</event>
<event>
 8    1  0.2553474E-006  0.9118800E+02  0.7816164E-02  0.1184000E+00
        -11   -1    0    0    0    0  0.00000000000E+00  0.00000000000E+00  0.45593999997E+02  0.45594000000E+02  0.51100000000E-03 0.  1.
         11   -1    0    0    0    0 -0.00000000000E+00 -0.00000000000E+00 -0.45593999997E+02  0.45594000000E+02  0.51100000000E-03 0. -1.
         23    2    1    2    0    0  0.35527136788E-14  0.00000000000E+00  0.00000000000E+00  0.91188000000E+02  0.91188000000E+02 0.  0.
    9900012    2    3    3    0    0 -0.17630362162E+02  0.26954260375E+02  0.17844289511E+02  0.54367075372E+02  0.39999979925E+02 0.  0.
         12    1    3    3    0    0  0.17630362162E+02 -0.26954260375E+02 -0.17844289511E+02  0.36820924628E+02  0.00000000000E+00 0. -1.
         11    1    4    4    0    0  0.14107949829E+01  0.20248734303E+02 -0.63119184166E+01  0.21256573048E+02  0.51100000000E-03 0. -1.
        -11    1    4    4    0    0 -0.16406391045E+02  0.32219501559E+01  0.23269822186E+02  0.28653712757E+02  0.51100000000E-03 0.  1.
        -12    1    4    4    0    0 -0.26347661004E+01  0.34835759157E+01  0.88638574165E+00  0.44567895673E+01  0.00000000000E+00 0.  1.
</event>
<event>
 8    1  0.2553474E-006  0.9118800E+02  0.7816164E-02  0.1184000E+00
        -11   -1    0    0    0    0  0.00000000000E+00  0.00000000000E+00  0.45593999997E+02  0.45594000000E+02  0.51100000000E-03 0.  1.
         11   -1    0    0    0    0 -0.00000000000E+00 -0.00000000000E+00 -0.45593999997E+02  0.45594000000E+02  0.51100000000E-03 0. -1.
         23    2    1    2    0    0  0.00000000000E+00 -0.35527136788E-14  0.00000000000E+00  0.91188000000E+02  0.91188000000E+02 0.  0.
    9900012    2    3    3    0    0 -0.12423733737E+02 -0.21729833945E+02  0.27004503235E+02  0.54367108672E+02  0.40000055839E+02 0.  0.
         12    1    3    3    0    0  0.12423733737E+02  0.21729833945E+02 -0.27004503235E+02  0.36820891328E+02  0.00000000000E+00 0. -1.
         11    1    4    4    0    0  0.70522756219E+01 -0.14049307495E+02  0.15530094492E+02  0.22097544382E+02  0.51100000000E-03 0. -1.
        -11    1    4    4    0    0 -0.66812381274E+01 -0.69272704004E+01  0.16004697578E+02  0.18675555224E+02  0.51100000000E-03 0.  1.
         12    1    4    4    0    0 -0.12794771231E+02 -0.75325604899E+00 -0.45302888345E+01  0.13594009065E+02  0.00000000000E+00 0. -1.
</event>
<event>
 8    1  0.2553474E-006  0.9118800E+02  0.7816164E-02  0.1184000E+00
        -11   -1    0    0    0    0  0.00000000000E+00  0.00000000000E+00  0.45593999997E+02  0.45594000000E+02  0.51100000000E-03 0. -1.
         11   -1    0    0    0    0 -0.00000000000E+00 -0.00000000000E+00 -0.45593999997E+02  0.45594000000E+02  0.51100000000E-03 0.  1.
         23    2    1    2    0    0  0.00000000000E+00  0.17763568394E-14 -0.35527136788E-14  0.91188000000E+02  0.91188000000E+02 0.  0.
    9900012    2    3    3    0    0 -0.20118454284E+02 -0.12430964455E+02  0.28222323520E+02  0.54367073546E+02  0.39999975763E+02 0.  0.
        -12    1    3    3    0    0  0.20118454284E+02  0.12430964455E+02 -0.28222323520E+02  0.36820926454E+02  0.00000000000E+00 0.  1.
         11    1    4    4    0    0 -0.21230765160E+02 -0.12901798915E+02  0.15096607969E+02  0.29070764988E+02  0.51100000000E-03 0. -1.
        -11    1    4    4    0    0  0.25218844541E+01 -0.10286404729E+02  0.48376575289E+01  0.11643579951E+02  0.51100000000E-03 0.  1.
         12    1    4    4    0    0 -0.14095735778E+01  0.10757239190E+02  0.82880580217E+01  0.13652728607E+02  0.00000000000E+00 0. -1.
</event>
<event>
 8    1  0.2553474E-006  0.9118800E+02  0.7816164E-02  0.1184000E+00
        -11   -1    0    0    0    0  0.00000000000E+00  0.00000000000E+00  0.45593999997E+02  0.45594000000E+02  0.51100000000E-03 0.  1.
         11   -1    0    0    0    0 -0.00000000000E+00 -0.00000000000E+00 -0.45593999997E+02  0.45594000000E+02  0.51100000000E-03 0. -1.
         23    2    1    2    0    0  0.71054273576E-14  0.00000000000E+00 -0.35527136788E-14  0.91188000000E+02  0.91188000000E+02 0.  0.
    9900012    2    3    3    0    0  0.29506055927E+02  0.14242458739E+02 -0.16802746789E+02  0.54366983353E+02  0.39999770149E+02 0.  0.
        -12    1    3    3    0    0 -0.29506055927E+02 -0.14242458739E+02  0.16802746789E+02  0.36821016647E+02  0.00000000000E+00 0.  1.
         11    1    4    4    0    0  0.24943762760E+01  0.64126182988E+01 -0.23669134972E+02  0.24648966246E+02  0.51100000000E-03 0. -1.
        -11    1    4    4    0    0  0.47047589144E+01  0.18920141775E+00  0.35712792974E+01  0.59097030128E+01  0.51100000000E-03 0.  1.
         12    1    4    4    0    0  0.22306920736E+02  0.76406390222E+01  0.32951088853E+01  0.23808314093E+02  0.00000000000E+00 0. -1.
</event>
<event>
 8    1  0.2553474E-006  0.9118800E+02  0.7816164E-02  0.1184000E+00
        -11   -1    0    0    0    0  0.00000000000E+00  0.00000000000E+00  0.45593999997E+02  0.45594000000E+02  0.51100000000E-03 0.  1.
         11   -1    0    0    0    0 -0.00000000000E+00 -0.00000000000E+00 -0.45593999997E+02  0.45594000000E+02  0.51100000000E-03 0. -1.
         23    2    1    2    0    0  0.14210854715E-13  0.00000000000E+00  0.17763568394E-14  0.91188000000E+02  0.91188000000E+02 0.  0.
    9900012    2    3    3    0    0  0.34537823269E+02  0.11332441309E+02  0.58731905704E+01  0.54367084345E+02  0.40000000381E+02 0.  0.
         12    1    3    3    0    0 -0.34537823269E+02 -0.11332441309E+02 -0.58731905704E+01  0.36820915655E+02  0.00000000000E+00 0. -1.
         11    1    4    4    0    0  0.52824725283E+00 -0.12973777067E+00 -0.11469384643E+02  0.11482275967E+02  0.51100000000E-03 0. -1.
        -11    1    4    4    0    0  0.12249810685E+02  0.72062124706E+01  0.14879469874E+02  0.20576345253E+02  0.51100000000E-03 0.  1.
         12    1    4    4    0    0  0.21759765331E+02  0.42559666093E+01  0.24631053387E+01  0.22308463124E+02  0.00000000000E+00 0. -1.
</event>
<event>
 8    1  0.2553474E-006  0.9118800E+02  0.7816164E-02  0.1184000E+00
        -11   -1    0    0    0    0  0.00000000000E+00  0.00000000000E+00  0.45593999997E+02  0.45594000000E+02  0.51100000000E-03 0. -1.
         11   -1    0    0    0    0 -0.00000000000E+00 -0.00000000000E+00 -0.45593999997E+02  0.45594000000E+02  0.51100000000E-03 0.  1.
         23    2    1    2    0    0 -0.17763568394E-14  0.00000000000E+00  0.35527136788E-14  0.91188000000E+02  0.91188000000E+02 0.  0.
    9900012    2    3    3    0    0 -0.10968550635E+02  0.20737782182E+02 -0.28379820914E+02  0.54367096318E+02  0.40000027677E+02 0.  0.
         12    1    3    3    0    0  0.10968550635E+02 -0.20737782182E+02  0.28379820914E+02  0.36820903682E+02  0.00000000000E+00 0. -1.
         11    1    4    4    0    0  0.83202320537E+01 -0.14064531867E+01 -0.19963344671E+02  0.21673474634E+02  0.51100000000E-03 0. -1.
        -11    1    4    4    0    0 -0.10869163847E+02  0.18560775447E+02 -0.21784262531E+01  0.21619126928E+02  0.51100000000E-03 0.  1.
        -12    1    4    4    0    0 -0.84196188409E+01  0.35834599213E+01 -0.62380499891E+01  0.11074494756E+02  0.00000000000E+00 0.  1.
</event>
<event>
 8    1  0.2553474E-006  0.9118800E+02  0.7816164E-02  0.1184000E+00
        -11   -1    0    0    0    0  0.00000000000E+00  0.00000000000E+00  0.45593999997E+02  0.45594000000E+02  0.51100000000E-03 0. -1.
         11   -1    0    0    0    0 -0.00000000000E+00 -0.00000000000E+00 -0.45593999997E+02  0.45594000000E+02  0.51100000000E-03 0.  1.
         23    2    1    2    0    0 -0.17763568394E-14  0.00000000000E+00 -0.35527136788E-14  0.91188000000E+02  0.91188000000E+02 0.  0.
    9900012    2    3    3    0    0  0.95019364592E+01 -0.17403694839E+02  0.31025938399E+02  0.54367024402E+02  0.39999863728E+02 0.  0.
        -12    1    3    3    0    0 -0.95019364592E+01  0.17403694839E+02 -0.31025938399E+02  0.36820975598E+02  0.00000000000E+00 0.  1.
         11    1    4    4    0    0  0.23429892947E+01 -0.79219552056E+01  0.18474318767E+02  0.20237278159E+02  0.51100000000E-03 0. -1.
        -11    1    4    4    0    0  0.16704037089E+02 -0.13237768826E+02  0.68118568585E+01  0.22375539606E+02  0.51100000000E-03 0.  1.
        -12    1    4    4    0    0 -0.95450899241E+01  0.37560291933E+01  0.57397627735E+01  0.11754206637E+02  0.00000000000E+00 0.  1.
</event>
<event>
 8    1  0.2553474E-006  0.9118800E+02  0.7816164E-02  0.1184000E+00
        -11   -1    0    0    0    0  0.00000000000E+00  0.00000000000E+00  0.45593999997E+02  0.45594000000E+02  0.51100000000E-03 0. -1.
         11   -1    0    0    0    0 -0.00000000000E+00 -0.00000000000E+00 -0.45593999997E+02  0.45594000000E+02  0.51100000000E-03 0.  1.
         23    2    1    2    0    0  0.35527136788E-14  0.00000000000E+00  0.00000000000E+00  0.91188000000E+02  0.91188000000E+02 0.  0.
    9900012    2    3    3    0    0  0.31217266941E+02  0.48539836990E+01 -0.18913015994E+02  0.54367067272E+02  0.39999961459E+02 0.  0.
         12    1    3    3    0    0 -0.31217266941E+02 -0.48539836990E+01  0.18913015994E+02  0.36820932728E+02  0.00000000000E+00 0. -1.
         11    1    4    4    0    0  0.94027603383E+01  0.82916052750E+01 -0.12288875599E+02  0.17555030156E+02  0.51100000000E-03 0. -1.
        -11    1    4    4    0    0  0.99668807846E+01  0.12230140562E+02 -0.67708279658E+01  0.17168551550E+02  0.51100000000E-03 0.  1.
        -12    1    4    4    0    0  0.11847625818E+02 -0.15667762138E+02  0.14668757093E+00  0.19643485566E+02  0.00000000000E+00 0.  1.
</event>
<event>
 8    1  0.2553474E-006  0.9118800E+02  0.7816164E-02  0.1184000E+00
        -11   -1    0    0    0    0  0.00000000000E+00  0.00000000000E+00  0.45593999997E+02  0.45594000000E+02  0.51100000000E-03 0.  1.
         11   -1    0    0    0    0 -0.00000000000E+00 -0.00000000000E+00 -0.45593999997E+02  0.45594000000E+02  0.51100000000E-03 0. -1.
         23    2    1    2    0    0 -0.88817841970E-15  0.00000000000E+00  0.00000000000E+00  0.91188000000E+02  0.91188000000E+02 0.  0.
    9900012    2    3    3    0    0  0.45574816851E+01 -0.17994215106E+02  0.31799661882E+02  0.54367069642E+02  0.39999966864E+02 0.  0.
         12    1    3    3    0    0 -0.45574816851E+01  0.17994215106E+02 -0.31799661882E+02  0.36820930358E+02  0.00000000000E+00 0. -1.
         11    1    4    4    0    0  0.15623574695E+01 -0.13370070720E+02  0.70789055589E+00  0.13479646183E+02  0.51100000000E-03 0. -1.
        -11    1    4    4    0    0  0.65366987279E+01 -0.14559669206E+02  0.19884205152E+02  0.25496941237E+02  0.51100000000E-03 0.  1.
        -12    1    4    4    0    0 -0.35415745124E+01  0.99355248204E+01  0.11207566174E+02  0.15390482222E+02  0.00000000000E+00 0.  1.
</event>
<event>
 8    1  0.2553474E-006  0.9118800E+02  0.7816164E-02  0.1184000E+00
        -11   -1    0    0    0    0  0.00000000000E+00  0.00000000000E+00  0.45593999997E+02  0.45594000000E+02  0.51100000000E-03 0. -1.
         11   -1    0    0    0    0 -0.00000000000E+00 -0.00000000000E+00 -0.45593999997E+02  0.45594000000E+02  0.51100000000E-03 0.  1.
         23    2    1    2    0    0  0.33306690739E-15  0.00000000000E+00 -0.17763568394E-14  0.91188000000E+02  0.91188000000E+02 0.  0.
    9900012    2    3    3    0    0 -0.59530198620E+00 -0.33979839494E+02  0.14170263338E+02  0.54367078779E+02  0.39999987692E+02 0.  0.
        -12    1    3    3    0    0  0.59530198620E+00  0.33979839494E+02 -0.14170263338E+02  0.36820921221E+02  0.00000000000E+00 0.  1.
         11    1    4    4    0    0  0.71891982124E+01 -0.25667291921E+02  0.24372168571E+02  0.36117821732E+02  0.51100000000E-03 0. -1.
        -11    1    4    4    0    0 -0.85473784206E+00  0.22923747312E+01 -0.13450685223E+01  0.27919112231E+01  0.51100000000E-03 0.  1.
         12    1    4    4    0    0 -0.69297623565E+01 -0.10604922304E+02 -0.88568367111E+01  0.15457345824E+02  0.00000000000E+00 0. -1.
</event>
<event>
 8    1  0.2553474E-006  0.9118800E+02  0.7816164E-02  0.1184000E+00
        -11   -1    0    0    0    0  0.00000000000E+00  0.00000000000E+00  0.45593999997E+02  0.45594000000E+02  0.51100000000E-03 0.  1.
         11   -1    0    0    0    0 -0.00000000000E+00 -0.00000000000E+00 -0.45593999997E+02  0.45594000000E+02  0.51100000000E-03 0. -1.
         23    2    1    2    0    0  0.00000000000E+00  0.17763568394E-14  0.00000000000E+00  0.91188000000E+02  0.91188000000E+02 0.  0.
    9900012    2    3    3    0    0 -0.25594842782E+02 -0.19473019425E+01  0.26398702172E+02  0.54367089660E+02  0.40000012499E+02 0.  0.
         12    1    3    3    0    0  0.25594842782E+02  0.19473019425E+01 -0.26398702172E+02  0.36820910340E+02  0.00000000000E+00 0. -1.
         11    1    4    4    0    0 -0.24169377198E+02  0.10140154086E+02  0.76006670552E+01  0.27290138493E+02  0.51100000000E-03 0.  1.
        -11    1    4    4    0    0  0.40749135586E+01 -0.47560285062E+01  0.16469906681E+02  0.17620515145E+02  0.51100000000E-03 0. -1.
         12    1    4    4    0    0 -0.55003791425E+01 -0.73314275219E+01  0.23281284359E+01  0.94564360218E+01  0.00000000000E+00 0. -1.
</event>
<event>
 8    1  0.2553474E-006  0.9118800E+02  0.7816164E-02  0.1184000E+00
        -11   -1    0    0    0    0  0.00000000000E+00  0.00000000000E+00  0.45593999997E+02  0.45594000000E+02  0.51100000000E-03 0. -1.
         11   -1    0    0    0    0 -0.00000000000E+00 -0.00000000000E+00 -0.45593999997E+02  0.45594000000E+02  0.51100000000E-03 0.  1.
         23    2    1    2    0    0  0.00000000000E+00  0.00000000000E+00  0.00000000000E+00  0.91188000000E+02  0.91188000000E+02 0.  0.
    9900012    2    3    3    0    0  0.30936023744E+02  0.93862518837E+01 -0.17624997729E+02  0.54367084280E+02  0.40000000233E+02 0.  0.
         12    1    3    3    0    0 -0.30936023744E+02 -0.93862518837E+01  0.17624997729E+02  0.36820915720E+02  0.00000000000E+00 0. -1.
         11    1    4    4    0    0 -0.53925109091E+01  0.64628341379E+01 -0.10062009775E+02  0.13118362702E+02  0.51100000000E-03 0. -1.
        -11    1    4    4    0    0 -0.77751191337E+00  0.23090614239E+01 -0.29898581347E+01  0.38568823370E+01  0.51100000000E-03 0.  1.
         12    1    4    4    0    0  0.37106046566E+02  0.61435632189E+00 -0.45731298192E+01  0.37391839241E+02  0.00000000000E+00 0. -1.
</event>
<event>
 8    1  0.2553474E-006  0.9118800E+02  0.7816164E-02  0.1184000E+00
        -11   -1    0    0    0    0  0.00000000000E+00  0.00000000000E+00  0.45593999997E+02  0.45594000000E+02  0.51100000000E-03 0.  1.
         11   -1    0    0    0    0 -0.00000000000E+00 -0.00000000000E+00 -0.45593999997E+02  0.45594000000E+02  0.51100000000E-03 0. -1.
         23    2    1    2    0    0  0.00000000000E+00  0.35527136788E-14  0.00000000000E+00  0.91188000000E+02  0.91188000000E+02 0.  0.
    9900012    2    3    3    0    0  0.29617715838E+01 -0.15590781462E+02  0.33225491520E+02  0.54367111305E+02  0.40000061843E+02 0.  0.
         12    1    3    3    0    0 -0.29617715838E+01  0.15590781462E+02 -0.33225491520E+02  0.36820888695E+02  0.00000000000E+00 0. -1.
         11    1    4    4    0    0 -0.19493843179E+00 -0.24108916071E+01  0.67701732023E+00  0.25117229239E+01  0.51100000000E-03 0. -1.
        -11    1    4    4    0    0  0.41718709312E+01  0.81239493674E+01 -0.36548885618E+01  0.98367307095E+01  0.51100000000E-03 0.  1.
        -12    1    4    4    0    0 -0.10151609156E+01 -0.21303839223E+02  0.36203362762E+02  0.42018657672E+02  0.00000000000E+00 0.  1.
</event>
<event>
 8    1  0.2553474E-006  0.9118800E+02  0.7816164E-02  0.1184000E+00
        -11   -1    0    0    0    0  0.00000000000E+00  0.00000000000E+00  0.45593999997E+02  0.45594000000E+02  0.51100000000E-03 0. -1.
         11   -1    0    0    0    0 -0.00000000000E+00 -0.00000000000E+00 -0.45593999997E+02  0.45594000000E+02  0.51100000000E-03 0.  1.
         23    2    1    2    0    0 -0.35527136788E-14 -0.17763568394E-14 -0.35527136788E-14  0.91188000000E+02  0.91188000000E+02 0.  0.
    9900012    2    3    3    0    0  0.17089998383E+02  0.84208404779E+01  0.31508734617E+02  0.54367096206E+02  0.40000027420E+02 0.  0.
        -12    1    3    3    0    0 -0.17089998383E+02 -0.84208404779E+01 -0.31508734617E+02  0.36820903794E+02  0.00000000000E+00 0.  1.
         11    1    4    4    0    0  0.18033716336E+02 -0.86425780252E+01  0.48695004332E+01  0.20582058073E+02  0.51100000000E-03 0. -1.
        -11    1    4    4    0    0  0.19819218724E+01  0.12649781813E+02  0.25249509762E+02  0.28310470461E+02  0.51100000000E-03 0.  1.
         12    1    4    4    0    0 -0.29256398255E+01  0.44136366901E+01  0.13897244212E+01  0.54745676713E+01  0.00000000000E+00 0. -1.
</event>
<event>
 8    1  0.2553474E-006  0.9118800E+02  0.7816164E-02  0.1184000E+00
        -11   -1    0    0    0    0  0.00000000000E+00  0.00000000000E+00  0.45593999997E+02  0.45594000000E+02  0.51100000000E-03 0.  1.
         11   -1    0    0    0    0 -0.00000000000E+00 -0.00000000000E+00 -0.45593999997E+02  0.45594000000E+02  0.51100000000E-03 0. -1.
         23    2    1    2    0    0 -0.35527136788E-14  0.17763568394E-14  0.35527136788E-14  0.91188000000E+02  0.91188000000E+02 0.  0.
    9900012    2    3    3    0    0  0.25120411146E+02 -0.14021738579E+02 -0.22981145159E+02  0.54367119487E+02  0.40000080496E+02 0.  0.
        -12    1    3    3    0    0 -0.25120411146E+02  0.14021738579E+02  0.22981145159E+02  0.36820880513E+02  0.00000000000E+00 0.  1.
         11    1    4    4    0    0  0.14756473867E+02  0.95373638448E+01 -0.11205624513E+02  0.20839406208E+02  0.51100000000E-03 0. -1.
        -11    1    4    4    0    0  0.88662706164E+01 -0.36651620267E+01 -0.94087372234E+01  0.13437578045E+02  0.51100000000E-03 0.  1.
        -12    1    4    4    0    0  0.14976666622E+01 -0.19893940397E+02 -0.23667834219E+01  0.20090135234E+02  0.00000000000E+00 0.  1.
</event>
<event>
 8    1  0.2553474E-006  0.9118800E+02  0.7816164E-02  0.1184000E+00
        -11   -1    0    0    0    0  0.00000000000E+00  0.00000000000E+00  0.45593999997E+02  0.45594000000E+02  0.51100000000E-03 0.  1.
         11   -1    0    0    0    0 -0.00000000000E+00 -0.00000000000E+00 -0.45593999997E+02  0.45594000000E+02  0.51100000000E-03 0. -1.
         23    2    1    2    0    0  0.00000000000E+00 -0.35527136788E-14  0.00000000000E+00  0.91188000000E+02  0.91188000000E+02 0.  0.
    9900012    2    3    3    0    0 -0.13900830096E+02 -0.21626777081E+02  0.26359618664E+02  0.54367081211E+02  0.39999993238E+02 0.  0.
        -12    1    3    3    0    0  0.13900830096E+02  0.21626777081E+02 -0.26359618664E+02  0.36820918789E+02  0.00000000000E+00 0.  1.
         11    1    4    4    0    0 -0.15229007738E+02 -0.26409043213E+02  0.11688459030E+02  0.32649353973E+02  0.51100000000E-03 0. -1.
        -11    1    4    4    0    0  0.60459360147E+01  0.51181858578E+00  0.14074085358E+02  0.15326290467E+02  0.51100000000E-03 0.  1.
         12    1    4    4    0    0 -0.47177583729E+01  0.42704475461E+01  0.59707427675E+00  0.63914367712E+01  0.00000000000E+00 0. -1.
</event>
<event>
 8    1  0.2553474E-006  0.9118800E+02  0.7816164E-02  0.1184000E+00
        -11   -1    0    0    0    0  0.00000000000E+00  0.00000000000E+00  0.45593999997E+02  0.45594000000E+02  0.51100000000E-03 0. -1.
         11   -1    0    0    0    0 -0.00000000000E+00 -0.00000000000E+00 -0.45593999997E+02  0.45594000000E+02  0.51100000000E-03 0.  1.
         23    2    1    2    0    0  0.35527136788E-14  0.00000000000E+00 -0.35527136788E-14  0.91188000000E+02  0.91188000000E+02 0.  0.
    9900012    2    3    3    0    0  0.31669049116E+02 -0.16883042772E+01 -0.18708273704E+02  0.54367101747E+02  0.40000040052E+02 0.  0.
         12    1    3    3    0    0 -0.31669049116E+02  0.16883042772E+01  0.18708273704E+02  0.36820898253E+02  0.00000000000E+00 0. -1.
         11    1    4    4    0    0  0.10200148692E+02 -0.26481321140E+01 -0.12268405067E+02  0.16173107314E+02  0.51100000000E-03 0. -1.
        -11    1    4    4    0    0  0.26699437004E+02 -0.54240136634E+01 -0.10243250127E+02  0.29106769556E+02  0.51100000000E-03 0.  1.
         12    1    4    4    0    0 -0.52305365802E+01  0.63838415002E+01  0.38033814902E+01  0.90872248776E+01  0.00000000000E+00 0. -1.
</event>
<event>
 8    1  0.2553474E-006  0.9118800E+02  0.7816164E-02  0.1184000E+00
        -11   -1    0    0    0    0  0.00000000000E+00  0.00000000000E+00  0.45593999997E+02  0.45594000000E+02  0.51100000000E-03 0. -1.
         11   -1    0    0    0    0 -0.00000000000E+00 -0.00000000000E+00 -0.45593999997E+02  0.45594000000E+02  0.51100000000E-03 0.  1.
         23    2    1    2    0    0  0.00000000000E+00  0.17763568394E-14 -0.53290705182E-14  0.91188000000E+02  0.91188000000E+02 0.  0.
    9900012    2    3    3    0    0 -0.34890500591E+02  0.95941119481E+01 -0.68107363616E+01  0.54367080058E+02  0.39999990608E+02 0.  0.
         12    1    3    3    0    0  0.34890500591E+02 -0.95941119481E+01  0.68107363616E+01  0.36820919942E+02  0.00000000000E+00 0. -1.
         11    1    4    4    0    0 -0.12974869990E+00 -0.58734109349E+01 -0.37442854766E+01  0.69665963516E+01  0.51100000000E-03 0. -1.
        -11    1    4    4    0    0 -0.20137802437E+02  0.13575402889E+02  0.11324559085E+02  0.26796796251E+02  0.51100000000E-03 0.  1.
        -12    1    4    4    0    0 -0.14622949455E+02  0.18921199943E+01 -0.14391009970E+02  0.20603687456E+02  0.00000000000E+00 0.  1.
</event>
<event>
 8    1  0.2553474E-006  0.9118800E+02  0.7816164E-02  0.1184000E+00
        -11   -1    0    0    0    0  0.00000000000E+00  0.00000000000E+00  0.45593999997E+02  0.45594000000E+02  0.51100000000E-03 0.  1.
         11   -1    0    0    0    0 -0.00000000000E+00 -0.00000000000E+00 -0.45593999997E+02  0.45594000000E+02  0.51100000000E-03 0. -1.
         23    2    1    2    0    0 -0.35527136788E-14 -0.88817841970E-15  0.00000000000E+00  0.91188000000E+02  0.91188000000E+02 0.  0.
    9900012    2    3    3    0    0  0.30400385915E+02  0.42109667487E+01 -0.20343688247E+02  0.54367063616E+02  0.39999953125E+02 0.  0.
        -12    1    3    3    0    0 -0.30400385915E+02 -0.42109667487E+01  0.20343688247E+02  0.36820936384E+02  0.00000000000E+00 0.  1.
         11    1    4    4    0    0  0.19269708137E+02 -0.22982484900E+01 -0.14486515494E+02  0.24216992572E+02  0.51100000000E-03 0.  1.
        -11    1    4    4    0    0  0.13667981109E+02  0.79271107354E+00 -0.14198725018E+02  0.19724246268E+02  0.51100000000E-03 0. -1.
        -12    1    4    4    0    0 -0.25373033314E+01  0.57165041652E+01  0.83415522653E+01  0.10425824776E+02  0.00000000000E+00 0.  1.
</event>
<event>
 8    1  0.2553474E-006  0.9118800E+02  0.7816164E-02  0.1184000E+00
        -11   -1    0    0    0    0  0.00000000000E+00  0.00000000000E+00  0.45593999997E+02  0.45594000000E+02  0.51100000000E-03 0.  1.
         11   -1    0    0    0    0 -0.00000000000E+00 -0.00000000000E+00 -0.45593999997E+02  0.45594000000E+02  0.51100000000E-03 0. -1.
         23    2    1    2    0    0 -0.35527136788E-14 -0.35527136788E-14  0.00000000000E+00  0.91188000000E+02  0.91188000000E+02 0.  0.
    9900012    2    3    3    0    0  0.23227467354E+02 -0.24852385108E+02 -0.14093381182E+02  0.54367086399E+02  0.40000005064E+02 0.  0.
        -12    1    3    3    0    0 -0.23227467354E+02  0.24852385108E+02  0.14093381182E+02  0.36820913601E+02  0.00000000000E+00 0.  1.
         11    1    4    4    0    0  0.73955461931E+01 -0.18874147900E+02 -0.12152771921E+02  0.23635088916E+02  0.51100000000E-03 0. -1.
        -11    1    4    4    0    0  0.18971296612E+02  0.39864318316E+01 -0.46569955337E+01  0.19937134738E+02  0.51100000000E-03 0.  1.
        -12    1    4    4    0    0 -0.31393754515E+01 -0.99646690397E+01  0.27163862726E+01  0.10794862745E+02  0.00000000000E+00 0.  1.
</event>
<event>
 8    1  0.2553474E-006  0.9118800E+02  0.7816164E-02  0.1184000E+00
        -11   -1    0    0    0    0  0.00000000000E+00  0.00000000000E+00  0.45593999997E+02  0.45594000000E+02  0.51100000000E-03 0.  1.
         11   -1    0    0    0    0 -0.00000000000E+00 -0.00000000000E+00 -0.45593999997E+02  0.45594000000E+02  0.51100000000E-03 0. -1.
         23    2    1    2    0    0  0.71054273576E-14 -0.17763568394E-14  0.35527136788E-14  0.91188000000E+02  0.91188000000E+02 0.  0.
    9900012    2    3    3    0    0 -0.22747366303E+02  0.10407959330E+02 -0.27018717176E+02  0.54367090601E+02  0.40000014643E+02 0.  0.
        -12    1    3    3    0    0  0.22747366303E+02 -0.10407959330E+02  0.27018717176E+02  0.36820909399E+02  0.00000000000E+00 0.  1.
         11    1    4    4    0    0 -0.83397237861E+01 -0.19772957300E+01 -0.20385806790E+01  0.88100228534E+01  0.51100000000E-03 0. -1.
        -11    1    4    4    0    0  0.29745996940E+01 -0.65599914140E+01 -0.17274480427E+02  0.18716020009E+02  0.51100000000E-03 0.  1.
         12    1    4    4    0    0 -0.17382242211E+02  0.18945246474E+02 -0.77056560700E+01  0.26841047738E+02  0.00000000000E+00 0. -1.
</event>
<event>
 8    1  0.2553474E-006  0.9118800E+02  0.7816164E-02  0.1184000E+00
        -11   -1    0    0    0    0  0.00000000000E+00  0.00000000000E+00  0.45593999997E+02  0.45594000000E+02  0.51100000000E-03 0.  1.
         11   -1    0    0    0    0 -0.00000000000E+00 -0.00000000000E+00 -0.45593999997E+02  0.45594000000E+02  0.51100000000E-03 0. -1.
         23    2    1    2    0    0  0.17763568394E-14  0.44408920985E-15  0.00000000000E+00  0.91188000000E+02  0.91188000000E+02 0.  0.
    9900012    2    3    3    0    0  0.58147422977E+01 -0.34053203640E+01 -0.36199058103E+02  0.54367092321E+02  0.40000018564E+02 0.  0.
        -12    1    3    3    0    0 -0.58147422977E+01  0.34053203640E+01  0.36199058103E+02  0.36820907679E+02  0.00000000000E+00 0.  1.
         11    1    4    4    0    0 -0.34319782315E+01  0.11526342131E+02 -0.69588159186E+01  0.13894608909E+02  0.51100000000E-03 0. -1.
        -11    1    4    4    0    0 -0.59639299890E+01 -0.49830312763E+00 -0.24867557131E+01  0.64807963367E+01  0.51100000000E-03 0.  1.
         12    1    4    4    0    0  0.15210650518E+02 -0.14433359367E+02 -0.26753486471E+02  0.33991687075E+02  0.00000000000E+00 0. -1.
</event>
<event>
 8    1  0.2553474E-006  0.9118800E+02  0.7816164E-02  0.1184000E+00
        -11   -1    0    0    0    0  0.00000000000E+00  0.00000000000E+00  0.45593999997E+02  0.45594000000E+02  0.51100000000E-03 0.  1.
         11   -1    0    0    0    0 -0.00000000000E+00 -0.00000000000E+00 -0.45593999997E+02  0.45594000000E+02  0.51100000000E-03 0. -1.
         23    2    1    2    0    0  0.17763568394E-14  0.00000000000E+00  0.00000000000E+00  0.91188000000E+02  0.91188000000E+02 0.  0.
    9900012    2    3    3    0    0 -0.13464383935E+02 -0.20366386815E+02  0.27562669528E+02  0.54367080699E+02  0.39999992069E+02 0.  0.
         12    1    3    3    0    0  0.13464383935E+02  0.20366386815E+02 -0.27562669528E+02  0.36820919301E+02  0.00000000000E+00 0. -1.
         11    1    4    4    0    0  0.38382039204E+01  0.64626506743E+01  0.22901279396E+01  0.78576300061E+01  0.51100000000E-03 0. -1.
        -11    1    4    4    0    0 -0.18860241836E+02 -0.18422561630E+02  0.27054388165E+02  0.37776175275E+02  0.51100000000E-03 0.  1.
         12    1    4    4    0    0  0.15576539808E+01 -0.84064758599E+01 -0.17818465767E+01  0.87332754182E+01  0.00000000000E+00 0. -1.
</event>
<event>
 8    1  0.2553474E-006  0.9118800E+02  0.7816164E-02  0.1184000E+00
        -11   -1    0    0    0    0  0.00000000000E+00  0.00000000000E+00  0.45593999997E+02  0.45594000000E+02  0.51100000000E-03 0.  1.
         11   -1    0    0    0    0 -0.00000000000E+00 -0.00000000000E+00 -0.45593999997E+02  0.45594000000E+02  0.51100000000E-03 0. -1.
         23    2    1    2    0    0  0.00000000000E+00  0.00000000000E+00 -0.97144514655E-15  0.91188000000E+02  0.91188000000E+02 0.  0.
    9900012    2    3    3    0    0  0.32362578663E+02  0.17562058867E+02 -0.13267676460E+00  0.54367081862E+02  0.39999994721E+02 0.  0.
        -12    1    3    3    0    0 -0.32362578663E+02 -0.17562058867E+02  0.13267676460E+00  0.36820918138E+02  0.00000000000E+00 0.  1.
         11    1    4    4    0    0  0.24367628367E+02 -0.68142981404E+01  0.83428526567E+01  0.26642431610E+02  0.51100000000E-03 0. -1.
        -11    1    4    4    0    0  0.50569619710E+01  0.11038057079E+02 -0.69289172592E+01  0.13979322698E+02  0.51100000000E-03 0.  1.
         12    1    4    4    0    0  0.29379883248E+01  0.13338299929E+02 -0.15466121621E+01  0.13745327554E+02  0.00000000000E+00 0. -1.
</event>
<event>
 8    1  0.2553474E-006  0.9118800E+02  0.7816164E-02  0.1184000E+00
        -11   -1    0    0    0    0  0.00000000000E+00  0.00000000000E+00  0.45593999997E+02  0.45594000000E+02  0.51100000000E-03 0.  1.
         11   -1    0    0    0    0 -0.00000000000E+00 -0.00000000000E+00 -0.45593999997E+02  0.45594000000E+02  0.51100000000E-03 0. -1.
         23    2    1    2    0    0  0.00000000000E+00  0.00000000000E+00  0.00000000000E+00  0.91188000000E+02  0.91188000000E+02 0.  0.
    9900012    2    3    3    0    0 -0.97164488677E+00  0.58881674949E+01 -0.36334103228E+02  0.54367059387E+02  0.39999943485E+02 0.  0.
        -12    1    3    3    0    0  0.97164488677E+00 -0.58881674949E+01  0.36334103228E+02  0.36820940613E+02  0.00000000000E+00 0.  1.
         11    1    4    4    0    0 -0.34516110382E+00  0.46919716432E+01  0.50562829093E+01  0.69064992006E+01  0.51100000000E-03 0.  1.
        -11    1    4    4    0    0 -0.43564288115E+01  0.11471689121E+02 -0.22898771683E+02  0.25979450882E+02  0.51100000000E-03 0. -1.
         12    1    4    4    0    0  0.37299450285E+01 -0.10275493269E+02 -0.18491614455E+02  0.21481109305E+02  0.00000000000E+00 0. -1.
</event>
<event>
 8    1  0.2553474E-006  0.9118800E+02  0.7816164E-02  0.1184000E+00
        -11   -1    0    0    0    0  0.00000000000E+00  0.00000000000E+00  0.45593999997E+02  0.45594000000E+02  0.51100000000E-03 0. -1.
         11   -1    0    0    0    0 -0.00000000000E+00 -0.00000000000E+00 -0.45593999997E+02  0.45594000000E+02  0.51100000000E-03 0.  1.
         23    2    1    2    0    0 -0.83266726847E-16  0.00000000000E+00  0.35527136788E-14  0.91188000000E+02  0.91188000000E+02 0.  0.
    9900012    2    3    3    0    0  0.14472859655E+00  0.35398777576E+02  0.10133373941E+02  0.54367086545E+02  0.40000005396E+02 0.  0.
         12    1    3    3    0    0 -0.14472859655E+00 -0.35398777576E+02 -0.10133373941E+02  0.36820913455E+02  0.00000000000E+00 0. -1.
         11    1    4    4    0    0  0.39232413683E+01  0.59560566636E+01 -0.60460405655E+01  0.93499219566E+01  0.51100000000E-03 0. -1.
        -11    1    4    4    0    0 -0.12779650588E+02  0.14033663248E+02 -0.25455202241E+01  0.19150531240E+02  0.51100000000E-03 0.  1.
         12    1    4    4    0    0  0.90011378162E+01  0.15409057664E+02  0.18724934731E+02  0.25866633348E+02  0.00000000000E+00 0. -1.
</event>
<event>
 8    1  0.2553474E-006  0.9118800E+02  0.7816164E-02  0.1184000E+00
        -11   -1    0    0    0    0  0.00000000000E+00  0.00000000000E+00  0.45593999997E+02  0.45594000000E+02  0.51100000000E-03 0.  1.
         11   -1    0    0    0    0 -0.00000000000E+00 -0.00000000000E+00 -0.45593999997E+02  0.45594000000E+02  0.51100000000E-03 0. -1.
         23    2    1    2    0    0  0.00000000000E+00  0.00000000000E+00  0.35527136788E-14  0.91188000000E+02  0.91188000000E+02 0.  0.
    9900012    2    3    3    0    0  0.61034510495E+01 -0.19844812787E+02 -0.30409058262E+02  0.54367088365E+02  0.40000009546E+02 0.  0.
        -12    1    3    3    0    0 -0.61034510495E+01  0.19844812787E+02  0.30409058262E+02  0.36820911635E+02  0.00000000000E+00 0.  1.
         11    1    4    4    0    0 -0.65267210475E+01 -0.32887712331E+00 -0.20298949887E+02  0.21324952862E+02  0.51100000000E-03 0. -1.
        -11    1    4    4    0    0  0.32790608686E+01 -0.20155333010E+02 -0.11700984640E+02  0.23535138213E+02  0.51100000000E-03 0.  1.
        -12    1    4    4    0    0  0.93511112285E+01  0.63939734636E+00  0.15908762653E+01  0.95069972897E+01  0.00000000000E+00 0.  1.
</event>
<event>
 8    1  0.2553474E-006  0.9118800E+02  0.7816164E-02  0.1184000E+00
        -11   -1    0    0    0    0  0.00000000000E+00  0.00000000000E+00  0.45593999997E+02  0.45594000000E+02  0.51100000000E-03 0. -1.
         11   -1    0    0    0    0 -0.00000000000E+00 -0.00000000000E+00 -0.45593999997E+02  0.45594000000E+02  0.51100000000E-03 0.  1.
         23    2    1    2    0    0  0.35527136788E-14 -0.17763568394E-14  0.00000000000E+00  0.91188000000E+02  0.91188000000E+02 0.  0.
    9900012    2    3    3    0    0  0.29114279739E+02 -0.14414368251E+02 -0.17331013602E+02  0.54367091140E+02  0.40000015872E+02 0.  0.
         12    1    3    3    0    0 -0.29114279739E+02  0.14414368251E+02  0.17331013602E+02  0.36820908860E+02  0.00000000000E+00 0. -1.
         11    1    4    4    0    0 -0.32509061773E+01 -0.31862002724E+01  0.35179947937E+01  0.57529601753E+01  0.51100000000E-03 0. -1.
        -11    1    4    4    0    0 -0.96712127626E+00 -0.49652584870E+01 -0.12790258708E+02  0.13754266010E+02  0.51100000000E-03 0.  1.
        -12    1    4    4    0    0  0.33332307193E+02 -0.62629094921E+01 -0.80587496875E+01  0.34859864954E+02  0.00000000000E+00 0.  1.
</event>
<event>
 8    1  0.2553474E-006  0.9118800E+02  0.7816164E-02  0.1184000E+00
        -11   -1    0    0    0    0  0.00000000000E+00  0.00000000000E+00  0.45593999997E+02  0.45594000000E+02  0.51100000000E-03 0. -1.
         11   -1    0    0    0    0 -0.00000000000E+00 -0.00000000000E+00 -0.45593999997E+02  0.45594000000E+02  0.51100000000E-03 0.  1.
         23    2    1    2    0    0  0.00000000000E+00  0.00000000000E+00  0.00000000000E+00  0.91188000000E+02  0.91188000000E+02 0.  0.
    9900012    2    3    3    0    0 -0.47462474696E+01  0.12050929926E+02  0.34467790676E+02  0.54367076991E+02  0.39999983616E+02 0.  0.
        -12    1    3    3    0    0  0.47462474696E+01 -0.12050929926E+02 -0.34467790676E+02  0.36820923009E+02  0.00000000000E+00 0.  1.
         11    1    4    4    0    0 -0.24854253271E+01 -0.42321382114E+00  0.15024742658E+01  0.29349409151E+01  0.51100000000E-03 0. -1.
        -11    1    4    4    0    0 -0.38365055145E+01  0.48794860293E+01 -0.77813657335E+01  0.99537837737E+01  0.51100000000E-03 0.  1.
        -12    1    4    4    0    0  0.15756833720E+01  0.75946577181E+01  0.40746682144E+02  0.41478352302E+02  0.00000000000E+00 0.  1.
</event>
<event>
 8    1  0.2553474E-006  0.9118800E+02  0.7816164E-02  0.1184000E+00
        -11   -1    0    0    0    0  0.00000000000E+00  0.00000000000E+00  0.45593999997E+02  0.45594000000E+02  0.51100000000E-03 0.  1.
         11   -1    0    0    0    0 -0.00000000000E+00 -0.00000000000E+00 -0.45593999997E+02  0.45594000000E+02  0.51100000000E-03 0. -1.
         23    2    1    2    0    0  0.00000000000E+00  0.35527136788E-14  0.00000000000E+00  0.91188000000E+02  0.91188000000E+02 0.  0.
    9900012    2    3    3    0    0  0.22469718999E+02  0.23747640957E+02 -0.16939322872E+02  0.54367090420E+02  0.40000014230E+02 0.  0.
         12    1    3    3    0    0 -0.22469718999E+02 -0.23747640957E+02  0.16939322872E+02  0.36820909580E+02  0.00000000000E+00 0. -1.
         11    1    4    4    0    0  0.22032511530E+02  0.21927138285E+01  0.83707214259E-01  0.22141512265E+02  0.51100000000E-03 0. -1.
        -11    1    4    4    0    0  0.84248995554E+01  0.98918210072E+01 -0.60628573092E+01  0.14338245861E+02  0.51100000000E-03 0.  1.
         12    1    4    4    0    0 -0.79876920862E+01  0.11663106122E+02 -0.10960172777E+02  0.17887332294E+02  0.00000000000E+00 0. -1.
</event>
<event>
 8    1  0.2553474E-006  0.9118800E+02  0.7816164E-02  0.1184000E+00
        -11   -1    0    0    0    0  0.00000000000E+00  0.00000000000E+00  0.45593999997E+02  0.45594000000E+02  0.51100000000E-03 0. -1.
         11   -1    0    0    0    0 -0.00000000000E+00 -0.00000000000E+00 -0.45593999997E+02  0.45594000000E+02  0.51100000000E-03 0.  1.
         23    2    1    2    0    0  0.22204460493E-15  0.00000000000E+00  0.00000000000E+00  0.91188000000E+02  0.91188000000E+02 0.  0.
    9900012    2    3    3    0    0  0.18494148126E+01  0.22565054729E+02  0.29037516628E+02  0.54367090152E+02  0.40000013620E+02 0.  0.
        -12    1    3    3    0    0 -0.18494148126E+01 -0.22565054729E+02 -0.29037516628E+02  0.36820909848E+02  0.00000000000E+00 0.  1.
         11    1    4    4    0    0 -0.13835734902E+02  0.12746404590E+02  0.52224739853E-01  0.18812259778E+02  0.51100000000E-03 0. -1.
        -11    1    4    4    0    0  0.46147766260E+01 -0.85790247718E+00  0.37751806617E+01  0.60236325633E+01  0.51100000000E-03 0.  1.
         12    1    4    4    0    0  0.11070373089E+02  0.10676552616E+02  0.25210111227E+02  0.29531197811E+02  0.00000000000E+00 0. -1.
</event>
<event>
 8    1  0.2553474E-006  0.9118800E+02  0.7816164E-02  0.1184000E+00
        -11   -1    0    0    0    0  0.00000000000E+00  0.00000000000E+00  0.45593999997E+02  0.45594000000E+02  0.51100000000E-03 0. -1.
         11   -1    0    0    0    0 -0.00000000000E+00 -0.00000000000E+00 -0.45593999997E+02  0.45594000000E+02  0.51100000000E-03 0.  1.
         23    2    1    2    0    0  0.00000000000E+00  0.88817841970E-15  0.00000000000E+00  0.91188000000E+02  0.91188000000E+02 0.  0.
    9900012    2    3    3    0    0 -0.35939087854E+02  0.40423371518E+01 -0.69152694833E+01  0.54367089128E+02  0.40000011285E+02 0.  0.
         12    1    3    3    0    0  0.35939087854E+02 -0.40423371518E+01  0.69152694833E+01  0.36820910872E+02  0.00000000000E+00 0. -1.
         11    1    4    4    0    0 -0.91060912866E+01 -0.21597433978E+01  0.10482341569E+02  0.14052219579E+02  0.51100000000E-03 0. -1.
        -11    1    4    4    0    0 -0.30716972027E+02  0.57249953110E+01 -0.11619721986E+02  0.33336554727E+02  0.51100000000E-03 0.  1.
        -12    1    4    4    0    0  0.38839754592E+01  0.47708523861E+00 -0.57778890659E+01  0.69783148216E+01  0.00000000000E+00 0.  1.
</event>
<event>
 8    1  0.2553474E-006  0.9118800E+02  0.7816164E-02  0.1184000E+00
        -11   -1    0    0    0    0  0.00000000000E+00  0.00000000000E+00  0.45593999997E+02  0.45594000000E+02  0.51100000000E-03 0. -1.
         11   -1    0    0    0    0 -0.00000000000E+00 -0.00000000000E+00 -0.45593999997E+02  0.45594000000E+02  0.51100000000E-03 0.  1.
         23    2    1    2    0    0  0.00000000000E+00  0.00000000000E+00 -0.71054273576E-14  0.91188000000E+02  0.91188000000E+02 0.  0.
    9900012    2    3    3    0    0  0.69894994561E+01 -0.22883018861E+02  0.27987378234E+02  0.54367095676E+02  0.40000026212E+02 0.  0.
        -12    1    3    3    0    0 -0.69894994561E+01  0.22883018861E+02 -0.27987378234E+02  0.36820904324E+02  0.00000000000E+00 0.  1.
         11    1    4    4    0    0  0.14494570364E+00 -0.13182656342E+02  0.16914143505E+02  0.21445085410E+02  0.51100000000E-03 0. -1.
        -11    1    4    4    0    0  0.46313110388E+01  0.33237657236E+01 -0.79370864117E+01  0.97720929944E+01  0.51100000000E-03 0.  1.
        -12    1    4    4    0    0  0.22132427136E+01 -0.13024128243E+02  0.19010321140E+02  0.23149917271E+02  0.00000000000E+00 0.  1.
</event>
<event>
 8    1  0.2553474E-006  0.9118800E+02  0.7816164E-02  0.1184000E+00
        -11   -1    0    0    0    0  0.00000000000E+00  0.00000000000E+00  0.45593999997E+02  0.45594000000E+02  0.51100000000E-03 0.  1.
         11   -1    0    0    0    0 -0.00000000000E+00 -0.00000000000E+00 -0.45593999997E+02  0.45594000000E+02  0.51100000000E-03 0. -1.
         23    2    1    2    0    0  0.00000000000E+00  0.00000000000E+00  0.00000000000E+00  0.91188000000E+02  0.91188000000E+02 0.  0.
    9900012    2    3    3    0    0  0.30172629480E+02  0.16008961284E+02  0.13751546893E+02  0.54367089459E+02  0.40000012040E+02 0.  0.
         12    1    3    3    0    0 -0.30172629480E+02 -0.16008961284E+02 -0.13751546893E+02  0.36820910541E+02  0.00000000000E+00 0. -1.
         11    1    4    4    0    0  0.73681419974E+01  0.59836955643E+00 -0.34558474281E+01  0.81602968284E+01  0.51100000000E-03 0. -1.
        -11    1    4    4    0    0  0.27067910306E+01  0.16610134119E+02  0.19711211172E+02  0.25918239123E+02  0.51100000000E-03 0.  1.
        -12    1    4    4    0    0  0.20097696452E+02 -0.11995423911E+01 -0.25038168502E+01  0.20288553507E+02  0.00000000000E+00 0.  1.
</event>
<event>
 8    1  0.2553474E-006  0.9118800E+02  0.7816164E-02  0.1184000E+00
        -11   -1    0    0    0    0  0.00000000000E+00  0.00000000000E+00  0.45593999997E+02  0.45594000000E+02  0.51100000000E-03 0. -1.
         11   -1    0    0    0    0 -0.00000000000E+00 -0.00000000000E+00 -0.45593999997E+02  0.45594000000E+02  0.51100000000E-03 0.  1.
         23    2    1    2    0    0  0.00000000000E+00  0.00000000000E+00  0.35527136788E-14  0.91188000000E+02  0.91188000000E+02 0.  0.
    9900012    2    3    3    0    0 -0.13975896520E+02 -0.31777730439E+02 -0.12273431079E+02  0.54366987713E+02  0.39999780090E+02 0.  0.
         12    1    3    3    0    0  0.13975896520E+02  0.31777730439E+02  0.12273431079E+02  0.36821012287E+02  0.00000000000E+00 0. -1.
         11    1    4    4    0    0  0.31881928460E+01 -0.72545892280E+01 -0.42190295121E+01  0.89774076868E+01  0.51100000000E-03 0. -1.
        -11    1    4    4    0    0 -0.25027746248E+02 -0.93845430138E+01 -0.50369681647E+00  0.26734087614E+02  0.51100000000E-03 0.  1.
        -12    1    4    4    0    0  0.78636568819E+01 -0.15138598197E+02 -0.75507047501E+01  0.18655492412E+02  0.00000000000E+00 0.  1.
</event>
<event>
 8    1  0.2553474E-006  0.9118800E+02  0.7816164E-02  0.1184000E+00
        -11   -1    0    0    0    0  0.00000000000E+00  0.00000000000E+00  0.45593999997E+02  0.45594000000E+02  0.51100000000E-03 0. -1.
         11   -1    0    0    0    0 -0.00000000000E+00 -0.00000000000E+00 -0.45593999997E+02  0.45594000000E+02  0.51100000000E-03 0.  1.
         23    2    1    2    0    0  0.00000000000E+00  0.17763568394E-14 -0.71054273576E-14  0.91188000000E+02  0.91188000000E+02 0.  0.
    9900012    2    3    3    0    0 -0.12564199630E+02 -0.49037123975E+01  0.34261831822E+02  0.54367100670E+02  0.40000037598E+02 0.  0.
        -12    1    3    3    0    0  0.12564199630E+02  0.49037123975E+01 -0.34261831822E+02  0.36820899330E+02  0.00000000000E+00 0.  1.
         11    1    4    4    0    0 -0.34451262801E+01 -0.55621835985E+01  0.52463111592E+01  0.83863318864E+01  0.51100000000E-03 0. -1.
        -11    1    4    4    0    0  0.65492288722E+01 -0.11735677235E+02  0.41121600329E+01  0.14054478979E+02  0.51100000000E-03 0.  1.
         12    1    4    4    0    0 -0.15668302223E+02  0.12394148436E+02  0.24903360630E+02  0.31926289804E+02  0.00000000000E+00 0. -1.
</event>
<event>
 8    1  0.2553474E-006  0.9118800E+02  0.7816164E-02  0.1184000E+00
        -11   -1    0    0    0    0  0.00000000000E+00  0.00000000000E+00  0.45593999997E+02  0.45594000000E+02  0.51100000000E-03 0. -1.
         11   -1    0    0    0    0 -0.00000000000E+00 -0.00000000000E+00 -0.45593999997E+02  0.45594000000E+02  0.51100000000E-03 0.  1.
         23    2    1    2    0    0 -0.44408920985E-15 -0.13322676296E-14 -0.71054273576E-14  0.91188000000E+02  0.91188000000E+02 0.  0.
    9900012    2    3    3    0    0 -0.31769658534E+01  0.67361078394E+00  0.36677422135E+02  0.54367079887E+02  0.39999990218E+02 0.  0.
        -12    1    3    3    0    0  0.31769658534E+01 -0.67361078394E+00 -0.36677422135E+02  0.36820920113E+02  0.00000000000E+00 0.  1.
         11    1    4    4    0    0 -0.72715413000E+01 -0.13242122829E+02  0.13814295817E+02  0.20471050268E+02  0.51100000000E-03 0. -1.
        -11    1    4    4    0    0  0.34422694479E+01 -0.77460619808E+00 -0.26744550104E+01  0.44274082235E+01  0.51100000000E-03 0.  1.
         12    1    4    4    0    0  0.65230599876E+00  0.14690339811E+02  0.25537581328E+02  0.29468621396E+02  0.00000000000E+00 0. -1.
</event>
<event>
 8    1  0.2553474E-006  0.9118800E+02  0.7816164E-02  0.1184000E+00
        -11   -1    0    0    0    0  0.00000000000E+00  0.00000000000E+00  0.45593999997E+02  0.45594000000E+02  0.51100000000E-03 0. -1.
         11   -1    0    0    0    0 -0.00000000000E+00 -0.00000000000E+00 -0.45593999997E+02  0.45594000000E+02  0.51100000000E-03 0.  1.
         23    2    1    2    0    0  0.11102230246E-15  0.71054273576E-14 -0.35527136788E-14  0.91188000000E+02  0.91188000000E+02 0.  0.
    9900012    2    3    3    0    0  0.29458836107E+00 -0.33151777172E+02  0.16020382763E+02  0.54367085076E+02  0.40000002049E+02 0.  0.
        -12    1    3    3    0    0 -0.29458836107E+00  0.33151777172E+02 -0.16020382763E+02  0.36820914924E+02  0.00000000000E+00 0.  1.
         11    1    4    4    0    0  0.74411122857E+01 -0.22860600461E+02  0.13855143546E+02  0.27747832500E+02  0.51100000000E-03 0. -1.
        -11    1    4    4    0    0 -0.17811597376E+01 -0.10891277394E+02 -0.89848040939E+01  0.14230922604E+02  0.51100000000E-03 0.  1.
        -12    1    4    4    0    0 -0.53653641870E+01  0.60010068365E+00  0.11150043310E+02  0.12388329973E+02  0.00000000000E+00 0.  1.
</event>
<event>
 8    1  0.2553474E-006  0.9118800E+02  0.7816164E-02  0.1184000E+00
        -11   -1    0    0    0    0  0.00000000000E+00  0.00000000000E+00  0.45593999997E+02  0.45594000000E+02  0.51100000000E-03 0.  1.
         11   -1    0    0    0    0 -0.00000000000E+00 -0.00000000000E+00 -0.45593999997E+02  0.45594000000E+02  0.51100000000E-03 0. -1.
         23    2    1    2    0    0  0.44408920985E-15  0.00000000000E+00  0.00000000000E+00  0.91188000000E+02  0.91188000000E+02 0.  0.
    9900012    2    3    3    0    0  0.18430073333E+01 -0.14072461697E+02  0.33975708842E+02  0.54367086845E+02  0.40000006082E+02 0.  0.
         12    1    3    3    0    0 -0.18430073333E+01  0.14072461697E+02 -0.33975708842E+02  0.36820913155E+02  0.00000000000E+00 0. -1.
         11    1    4    4    0    0  0.51190108607E+01 -0.12069841407E+02 -0.15175100294E+01  0.13198037003E+02  0.51100000000E-03 0. -1.
        -11    1    4    4    0    0 -0.42711544075E+01  0.49078208811E+01  0.33183336421E+02  0.33815133921E+02  0.51100000000E-03 0.  1.
         12    1    4    4    0    0  0.99515088013E+00 -0.69104411716E+01  0.23098824500E+01  0.73539159223E+01  0.00000000000E+00 0. -1.
</event>
<event>
 8    1  0.2553474E-006  0.9118800E+02  0.7816164E-02  0.1184000E+00
        -11   -1    0    0    0    0  0.00000000000E+00  0.00000000000E+00  0.45593999997E+02  0.45594000000E+02  0.51100000000E-03 0. -1.
         11   -1    0    0    0    0 -0.00000000000E+00 -0.00000000000E+00 -0.45593999997E+02  0.45594000000E+02  0.51100000000E-03 0.  1.
         23    2    1    2    0    0  0.00000000000E+00  0.00000000000E+00  0.35527136788E-14  0.91188000000E+02  0.91188000000E+02 0.  0.
    9900012    2    3    3    0    0 -0.46629517575E+01  0.31899791495E+02  0.17788746186E+02  0.54367091438E+02  0.40000016550E+02 0.  0.
        -12    1    3    3    0    0  0.46629517575E+01 -0.31899791495E+02 -0.17788746186E+02  0.36820908562E+02  0.00000000000E+00 0.  1.
         11    1    4    4    0    0  0.89374061271E+01 -0.93424088610E-01  0.15017965129E+02  0.17476419348E+02  0.51100000000E-03 0. -1.
        -11    1    4    4    0    0 -0.13446794032E+02  0.23154303347E+02  0.60695431939E+01  0.27455006612E+02  0.51100000000E-03 0.  1.
        -12    1    4    4    0    0 -0.15356385286E+00  0.88389122363E+01 -0.32987621367E+01  0.94356654780E+01  0.00000000000E+00 0.  1.
</event>
<event>
 8    1  0.2553474E-006  0.9118800E+02  0.7816164E-02  0.1184000E+00
        -11   -1    0    0    0    0  0.00000000000E+00  0.00000000000E+00  0.45593999997E+02  0.45594000000E+02  0.51100000000E-03 0.  1.
         11   -1    0    0    0    0 -0.00000000000E+00 -0.00000000000E+00 -0.45593999997E+02  0.45594000000E+02  0.51100000000E-03 0. -1.
         23    2    1    2    0    0  0.22204460493E-15 -0.44408920985E-15  0.00000000000E+00  0.91188000000E+02  0.91188000000E+02 0.  0.
    9900012    2    3    3    0    0 -0.17256030844E+01  0.17569064088E+01 -0.36738483618E+02  0.54367073821E+02  0.39999976390E+02 0.  0.
        -12    1    3    3    0    0  0.17256030844E+01 -0.17569064088E+01  0.36738483618E+02  0.36820926179E+02  0.00000000000E+00 0.  1.
         11    1    4    4    0    0 -0.12701757384E+02  0.57989196488E+01 -0.27430940161E+02  0.30780165498E+02  0.51100000000E-03 0. -1.
        -11    1    4    4    0    0  0.62312273759E+01 -0.88366921493E+01  0.14293862015E+01  0.10906808329E+02  0.51100000000E-03 0.  1.
         12    1    4    4    0    0  0.47449269237E+01  0.47946789094E+01 -0.10736929658E+02  0.12680099993E+02  0.00000000000E+00 0. -1.
</event>
<event>
 8    1  0.2553474E-006  0.9118800E+02  0.7816164E-02  0.1184000E+00
        -11   -1    0    0    0    0  0.00000000000E+00  0.00000000000E+00  0.45593999997E+02  0.45594000000E+02  0.51100000000E-03 0. -1.
         11   -1    0    0    0    0 -0.00000000000E+00 -0.00000000000E+00 -0.45593999997E+02  0.45594000000E+02  0.51100000000E-03 0.  1.
         23    2    1    2    0    0  0.71054273576E-14  0.00000000000E+00  0.17763568394E-14  0.91188000000E+02  0.91188000000E+02 0.  0.
    9900012    2    3    3    0    0 -0.33380657544E+02  0.81570921851E+01  0.13228051637E+02  0.54366976100E+02  0.39999753613E+02 0.  0.
        -12    1    3    3    0    0  0.33380657544E+02 -0.81570921851E+01 -0.13228051637E+02  0.36821023900E+02  0.00000000000E+00 0.  1.
         11    1    4    4    0    0 -0.98941181724E+01  0.12855000315E+02  0.17491408904E+02  0.23855691003E+02  0.51100000000E-03 0. -1.
        -11    1    4    4    0    0 -0.22739635856E+02  0.24914246437E+01 -0.43353422344E+01  0.23282899909E+02  0.51100000000E-03 0.  1.
        -12    1    4    4    0    0 -0.74690351523E+00 -0.71893327734E+01  0.71984967582E-01  0.72283851878E+01  0.00000000000E+00 0.  1.
</event>
<event>
 8    1  0.2553474E-006  0.9118800E+02  0.7816164E-02  0.1184000E+00
        -11   -1    0    0    0    0  0.00000000000E+00  0.00000000000E+00  0.45593999997E+02  0.45594000000E+02  0.51100000000E-03 0.  1.
         11   -1    0    0    0    0 -0.00000000000E+00 -0.00000000000E+00 -0.45593999997E+02  0.45594000000E+02  0.51100000000E-03 0. -1.
         23    2    1    2    0    0  0.00000000000E+00  0.13322676296E-14  0.00000000000E+00  0.91188000000E+02  0.91188000000E+02 0.  0.
    9900012    2    3    3    0    0  0.36468481821E+02  0.15361961306E+01 -0.48445765717E+01  0.54367082208E+02  0.39999995509E+02 0.  0.
        -12    1    3    3    0    0 -0.36468481821E+02 -0.15361961306E+01  0.48445765717E+01  0.36820917792E+02  0.00000000000E+00 0.  1.
         11    1    4    4    0    0  0.13751360206E+02 -0.51193969720E+01 -0.27270093273E+01  0.14924634435E+02  0.51100000000E-03 0. -1.
        -11    1    4    4    0    0 -0.20851489634E+00 -0.10543197961E+02  0.11006437735E+01  0.10602543029E+02  0.51100000000E-03 0.  1.
        -12    1    4    4    0    0  0.22925636512E+02  0.17198791063E+02 -0.32182110180E+01  0.28839904744E+02  0.00000000000E+00 0.  1.
</event>
<event>
 8    1  0.2553474E-006  0.9118800E+02  0.7816164E-02  0.1184000E+00
        -11   -1    0    0    0    0  0.00000000000E+00  0.00000000000E+00  0.45593999997E+02  0.45594000000E+02  0.51100000000E-03 0. -1.
         11   -1    0    0    0    0 -0.00000000000E+00 -0.00000000000E+00 -0.45593999997E+02  0.45594000000E+02  0.51100000000E-03 0.  1.
         23    2    1    2    0    0 -0.17763568394E-14 -0.71054273576E-14 -0.35527136788E-14  0.91188000000E+02  0.91188000000E+02 0.  0.
    9900012    2    3    3    0    0 -0.37032791660E+01 -0.32969425933E+02 -0.15971357280E+02  0.54367060627E+02  0.39999946311E+02 0.  0.
         12    1    3    3    0    0  0.37032791660E+01  0.32969425933E+02  0.15971357280E+02  0.36820939373E+02  0.00000000000E+00 0. -1.
         11    1    4    4    0    0 -0.74331059159E+01 -0.12304353830E+01  0.79574398735E+01  0.10958370517E+02  0.51100000000E-03 0. -1.
        -11    1    4    4    0    0 -0.60499841965E+01 -0.69539509322E+01 -0.36039971426E+01  0.98968953723E+01  0.51100000000E-03 0.  1.
        -12    1    4    4    0    0  0.97798109464E+01 -0.24785039618E+02 -0.20324800011E+02  0.33511794737E+02  0.00000000000E+00 0.  1.
</event>
<event>
 8    1  0.2553474E-006  0.9118800E+02  0.7816164E-02  0.1184000E+00
        -11   -1    0    0    0    0  0.00000000000E+00  0.00000000000E+00  0.45593999997E+02  0.45594000000E+02  0.51100000000E-03 0. -1.
         11   -1    0    0    0    0 -0.00000000000E+00 -0.00000000000E+00 -0.45593999997E+02  0.45594000000E+02  0.51100000000E-03 0.  1.
         23    2    1    2    0    0 -0.35527136788E-14  0.17763568394E-14 -0.35527136788E-14  0.91188000000E+02  0.91188000000E+02 0.  0.
    9900012    2    3    3    0    0  0.18049827802E+02 -0.13562774130E+02  0.29086707572E+02  0.54367059176E+02  0.39999943004E+02 0.  0.
        -12    1    3    3    0    0 -0.18049827802E+02  0.13562774130E+02 -0.29086707572E+02  0.36820940824E+02  0.00000000000E+00 0.  1.
         11    1    4    4    0    0  0.24317059779E+02  0.30763253572E+01  0.13708175476E+02  0.28083754185E+02  0.51100000000E-03 0.  1.
        -11    1    4    4    0    0 -0.54845952962E+01 -0.11873269105E+02  0.36184754227E+01  0.13570138888E+02  0.51100000000E-03 0. -1.
        -12    1    4    4    0    0 -0.78263668059E+00 -0.47658303820E+01  0.11760056674E+02  0.12713166103E+02  0.00000000000E+00 0.  1.
</event>
<event>
 8    1  0.2553474E-006  0.9118800E+02  0.7816164E-02  0.1184000E+00
        -11   -1    0    0    0    0  0.00000000000E+00  0.00000000000E+00  0.45593999997E+02  0.45594000000E+02  0.51100000000E-03 0. -1.
         11   -1    0    0    0    0 -0.00000000000E+00 -0.00000000000E+00 -0.45593999997E+02  0.45594000000E+02  0.51100000000E-03 0.  1.
         23    2    1    2    0    0  0.00000000000E+00 -0.71054273576E-14  0.00000000000E+00  0.91188000000E+02  0.91188000000E+02 0.  0.
    9900012    2    3    3    0    0 -0.16060374733E+02 -0.32999532385E+02  0.29792153427E+01  0.54367075266E+02  0.39999979684E+02 0.  0.
         12    1    3    3    0    0  0.16060374733E+02  0.32999532385E+02 -0.29792153427E+01  0.36820924734E+02  0.00000000000E+00 0. -1.
         11    1    4    4    0    0 -0.11560295425E+02 -0.61475107653E+01  0.13910642872E+02  0.19103358456E+02  0.51100000000E-03 0. -1.
        -11    1    4    4    0    0 -0.42727488418E+01 -0.51261035409E+00 -0.75727001862E+01  0.87100482440E+01  0.51100000000E-03 0.  1.
         12    1    4    4    0    0 -0.22733046602E+00 -0.26339411266E+02 -0.33587273430E+01  0.26553668566E+02  0.00000000000E+00 0. -1.
</event>
<event>
 8    1  0.2553474E-006  0.9118800E+02  0.7816164E-02  0.1184000E+00
        -11   -1    0    0    0    0  0.00000000000E+00  0.00000000000E+00  0.45593999997E+02  0.45594000000E+02  0.51100000000E-03 0. -1.
         11   -1    0    0    0    0 -0.00000000000E+00 -0.00000000000E+00 -0.45593999997E+02  0.45594000000E+02  0.51100000000E-03 0.  1.
         23    2    1    2    0    0  0.35527136788E-14  0.00000000000E+00 -0.17763568394E-14  0.91188000000E+02  0.91188000000E+02 0.  0.
    9900012    2    3    3    0    0 -0.21428080211E+02  0.28632438719E+02  0.87636005186E+01  0.54367083899E+02  0.39999999364E+02 0.  0.
        -12    1    3    3    0    0  0.21428080211E+02 -0.28632438719E+02 -0.87636005186E+01  0.36820916101E+02  0.00000000000E+00 0.  1.
         11    1    4    4    0    0  0.35596442539E+01  0.45729912229E+01  0.80031988748E+00  0.58501135137E+01  0.51100000000E-03 0. -1.
        -11    1    4    4    0    0  0.70078078195E+01  0.10798079375E+02  0.47974327578E+01  0.13737658096E+02  0.51100000000E-03 0.  1.
         12    1    4    4    0    0 -0.31995532284E+02  0.13261368121E+02  0.31658478733E+01  0.34779312289E+02  0.00000000000E+00 0. -1.
</event>
<event>
 8    1  0.2553474E-006  0.9118800E+02  0.7816164E-02  0.1184000E+00
        -11   -1    0    0    0    0  0.00000000000E+00  0.00000000000E+00  0.45593999997E+02  0.45594000000E+02  0.51100000000E-03 0.  1.
         11   -1    0    0    0    0 -0.00000000000E+00 -0.00000000000E+00 -0.45593999997E+02  0.45594000000E+02  0.51100000000E-03 0. -1.
         23    2    1    2    0    0  0.00000000000E+00 -0.35527136788E-14  0.00000000000E+00  0.91188000000E+02  0.91188000000E+02 0.  0.
    9900012    2    3    3    0    0  0.17491703105E+02 -0.29543928398E+02  0.13303244047E+02  0.54367086311E+02  0.40000004864E+02 0.  0.
         12    1    3    3    0    0 -0.17491703105E+02  0.29543928398E+02 -0.13303244047E+02  0.36820913689E+02  0.00000000000E+00 0. -1.
         11    1    4    4    0    0  0.14925125618E+02 -0.15052602604E+02 -0.42820403907E+01  0.21625819985E+02  0.51100000000E-03 0. -1.
        -11    1    4    4    0    0 -0.67567839705E+01 -0.10697547237E+02  0.20235163922E+00  0.12654350752E+02  0.51100000000E-03 0.  1.
        -12    1    4    4    0    0  0.93233614573E+01 -0.37937785569E+01  0.17382932798E+02  0.20086915574E+02  0.00000000000E+00 0.  1.
</event>
<event>
 8    1  0.2553474E-006  0.9118800E+02  0.7816164E-02  0.1184000E+00
        -11   -1    0    0    0    0  0.00000000000E+00  0.00000000000E+00  0.45593999997E+02  0.45594000000E+02  0.51100000000E-03 0.  1.
         11   -1    0    0    0    0 -0.00000000000E+00 -0.00000000000E+00 -0.45593999997E+02  0.45594000000E+02  0.51100000000E-03 0. -1.
         23    2    1    2    0    0  0.17763568394E-14  0.00000000000E+00 -0.88817841970E-15  0.91188000000E+02  0.91188000000E+02 0.  0.
    9900012    2    3    3    0    0 -0.11674664492E+02  0.34830704132E+02  0.25108228778E+01  0.54367082401E+02  0.39999995949E+02 0.  0.
        -12    1    3    3    0    0  0.11674664492E+02 -0.34830704132E+02 -0.25108228778E+01  0.36820917599E+02  0.00000000000E+00 0.  1.
         11    1    4    4    0    0  0.11915306796E+02  0.17234875214E+02 -0.22115488374E+01  0.21069086554E+02  0.51100000000E-03 0. -1.
        -11    1    4    4    0    0 -0.23713796638E+02  0.11668605108E+02  0.62866693239E+01  0.27166573350E+02  0.51100000000E-03 0.  1.
        -12    1    4    4    0    0  0.12382535006E+00  0.59272238106E+01 -0.15642976087E+01  0.61314224962E+01  0.00000000000E+00 0.  1.
</event>
<event>
 8    1  0.2553474E-006  0.9118800E+02  0.7816164E-02  0.1184000E+00
        -11   -1    0    0    0    0  0.00000000000E+00  0.00000000000E+00  0.45593999997E+02  0.45594000000E+02  0.51100000000E-03 0. -1.
         11   -1    0    0    0    0 -0.00000000000E+00 -0.00000000000E+00 -0.45593999997E+02  0.45594000000E+02  0.51100000000E-03 0.  1.
         23    2    1    2    0    0 -0.35527136788E-14 -0.71054273576E-14  0.00000000000E+00  0.91188000000E+02  0.91188000000E+02 0.  0.
    9900012    2    3    3    0    0 -0.94319887834E+01 -0.34288020015E+02  0.95471776723E+01  0.54367091124E+02  0.40000015835E+02 0.  0.
         12    1    3    3    0    0  0.94319887834E+01  0.34288020015E+02 -0.95471776723E+01  0.36820908876E+02  0.00000000000E+00 0. -1.
         11    1    4    4    0    0  0.46679467290E+01 -0.98956938770E+01  0.51736376992E+01  0.12102933995E+02  0.51100000000E-03 0. -1.
        -11    1    4    4    0    0  0.23291773343E+01 -0.85642373279E+01  0.14740230582E+02  0.17205976460E+02  0.51100000000E-03 0.  1.
         12    1    4    4    0    0 -0.16429112847E+02 -0.15828088810E+02 -0.10366690609E+02  0.25058180670E+02  0.00000000000E+00 0. -1.
</event>
<event>
 8    1  0.2553474E-006  0.9118800E+02  0.7816164E-02  0.1184000E+00
        -11   -1    0    0    0    0  0.00000000000E+00  0.00000000000E+00  0.45593999997E+02  0.45594000000E+02  0.51100000000E-03 0.  1.
         11   -1    0    0    0    0 -0.00000000000E+00 -0.00000000000E+00 -0.45593999997E+02  0.45594000000E+02  0.51100000000E-03 0. -1.
         23    2    1    2    0    0  0.00000000000E+00  0.00000000000E+00 -0.88817841970E-15  0.91188000000E+02  0.91188000000E+02 0.  0.
    9900012    2    3    3    0    0  0.11941339339E+02  0.34688644106E+02  0.31436011840E+01  0.54367084157E+02  0.39999999952E+02 0.  0.
        -12    1    3    3    0    0 -0.11941339339E+02 -0.34688644106E+02 -0.31436011840E+01  0.36820915843E+02  0.00000000000E+00 0.  1.
         11    1    4    4    0    0  0.23926384933E+01  0.90560023446E+01 -0.79407843982E+01  0.12279737560E+02  0.51100000000E-03 0. -1.
        -11    1    4    4    0    0  0.75638727234E+01  0.31698122582E+02  0.44651348557E+01  0.32892561094E+02  0.51100000000E-03 0.  1.
         12    1    4    4    0    0  0.19848281227E+01 -0.60654808203E+01  0.66192507265E+01  0.91947855026E+01  0.00000000000E+00 0. -1.
</event>
<event>
 8    1  0.2553474E-006  0.9118800E+02  0.7816164E-02  0.1184000E+00
        -11   -1    0    0    0    0  0.00000000000E+00  0.00000000000E+00  0.45593999997E+02  0.45594000000E+02  0.51100000000E-03 0.  1.
         11   -1    0    0    0    0 -0.00000000000E+00 -0.00000000000E+00 -0.45593999997E+02  0.45594000000E+02  0.51100000000E-03 0. -1.
         23    2    1    2    0    0 -0.88817841970E-15  0.00000000000E+00  0.00000000000E+00  0.91188000000E+02  0.91188000000E+02 0.  0.
    9900012    2    3    3    0    0  0.72258582157E+01  0.35699958282E+02  0.53925957201E+01  0.54367080174E+02  0.39999990872E+02 0.  0.
        -12    1    3    3    0    0 -0.72258582157E+01 -0.35699958282E+02 -0.53925957201E+01  0.36820919826E+02  0.00000000000E+00 0.  1.
         11    1    4    4    0    0 -0.52188950767E+01  0.17078255500E+02  0.15089971597E+02  0.23379711714E+02  0.51100000000E-03 0. -1.
        -11    1    4    4    0    0  0.16292907605E+02  0.83257398017E+01 -0.45717555949E+01  0.18859420218E+02  0.51100000000E-03 0.  1.
         12    1    4    4    0    0 -0.38481543124E+01  0.10295962980E+02 -0.51256202823E+01  0.12127948242E+02  0.00000000000E+00 0. -1.
</event>
<event>
 8    1  0.2553474E-006  0.9118800E+02  0.7816164E-02  0.1184000E+00
        -11   -1    0    0    0    0  0.00000000000E+00  0.00000000000E+00  0.45593999997E+02  0.45594000000E+02  0.51100000000E-03 0. -1.
         11   -1    0    0    0    0 -0.00000000000E+00 -0.00000000000E+00 -0.45593999997E+02  0.45594000000E+02  0.51100000000E-03 0.  1.
         23    2    1    2    0    0  0.00000000000E+00  0.00000000000E+00  0.00000000000E+00  0.91188000000E+02  0.91188000000E+02 0.  0.
    9900012    2    3    3    0    0  0.95975093944E+01 -0.31748596316E+02  0.15990454555E+02  0.54367079432E+02  0.39999989181E+02 0.  0.
        -12    1    3    3    0    0 -0.95975093944E+01  0.31748596316E+02 -0.15990454555E+02  0.36820920568E+02  0.00000000000E+00 0.  1.
         11    1    4    4    0    0  0.10744344539E+02 -0.16388457027E+02  0.23526484684E+01  0.19737208982E+02  0.51100000000E-03 0. -1.
        -11    1    4    4    0    0 -0.11753644244E+02  0.15411005712E+01  0.57256843297E+01  0.13164596663E+02  0.51100000000E-03 0.  1.
        -12    1    4    4    0    0  0.10606809100E+02 -0.16901239860E+02  0.79121217569E+01  0.21465273788E+02  0.00000000000E+00 0.  1.
</event>
<event>
 8    1  0.2553474E-006  0.9118800E+02  0.7816164E-02  0.1184000E+00
        -11   -1    0    0    0    0  0.00000000000E+00  0.00000000000E+00  0.45593999997E+02  0.45594000000E+02  0.51100000000E-03 0.  1.
         11   -1    0    0    0    0 -0.00000000000E+00 -0.00000000000E+00 -0.45593999997E+02  0.45594000000E+02  0.51100000000E-03 0. -1.
         23    2    1    2    0    0  0.00000000000E+00  0.00000000000E+00  0.00000000000E+00  0.91188000000E+02  0.91188000000E+02 0.  0.
    9900012    2    3    3    0    0  0.76606040666E+00 -0.11657536548E+02  0.34918387784E+02  0.54367098160E+02  0.40000031875E+02 0.  0.
         12    1    3    3    0    0 -0.76606040666E+00  0.11657536548E+02 -0.34918387784E+02  0.36820901840E+02  0.00000000000E+00 0. -1.
         11    1    4    4    0    0  0.96935071055E+01 -0.12581884573E+02  0.14027191478E+02  0.21190327992E+02  0.51100000000E-03 0. -1.
        -11    1    4    4    0    0 -0.16180056925E+02 -0.20345579694E+01  0.19149901921E+02  0.25152582613E+02  0.51100000000E-03 0.  1.
         12    1    4    4    0    0  0.72526102264E+01  0.29589059943E+01  0.17412943848E+01  0.80241875547E+01  0.00000000000E+00 0. -1.
</event>
<event>
 8    1  0.2553474E-006  0.9118800E+02  0.7816164E-02  0.1184000E+00
        -11   -1    0    0    0    0  0.00000000000E+00  0.00000000000E+00  0.45593999997E+02  0.45594000000E+02  0.51100000000E-03 0.  1.
         11   -1    0    0    0    0 -0.00000000000E+00 -0.00000000000E+00 -0.45593999997E+02  0.45594000000E+02  0.51100000000E-03 0. -1.
         23    2    1    2    0    0 -0.35527136788E-14  0.16653345369E-14  0.00000000000E+00  0.91188000000E+02  0.91188000000E+02 0.  0.
    9900012    2    3    3    0    0 -0.93579817895E+01  0.36208336322E+00 -0.35610071832E+02  0.54367080085E+02  0.39999990670E+02 0.  0.
        -12    1    3    3    0    0  0.93579817895E+01 -0.36208336322E+00  0.35610071832E+02  0.36820919915E+02  0.00000000000E+00 0.  1.
         11    1    4    4    0    0 -0.13215907733E+02  0.60104441427E+01 -0.22872180434E+02  0.27091000241E+02  0.51100000000E-03 0. -1.
        -11    1    4    4    0    0  0.11296851141E+02 -0.76632476051E+01 -0.13899810534E+02  0.19482015879E+02  0.51100000000E-03 0.  1.
        -12    1    4    4    0    0 -0.74389251978E+01  0.20148868256E+01  0.11619191360E+01  0.77940639654E+01  0.00000000000E+00 0.  1.
</event>
<event>
 8    1  0.2553474E-006  0.9118800E+02  0.7816164E-02  0.1184000E+00
        -11   -1    0    0    0    0  0.00000000000E+00  0.00000000000E+00  0.45593999997E+02  0.45594000000E+02  0.51100000000E-03 0. -1.
         11   -1    0    0    0    0 -0.00000000000E+00 -0.00000000000E+00 -0.45593999997E+02  0.45594000000E+02  0.51100000000E-03 0.  1.
         23    2    1    2    0    0 -0.17763568394E-14  0.00000000000E+00  0.00000000000E+00  0.91188000000E+02  0.91188000000E+02 0.  0.
    9900012    2    3    3    0    0 -0.12566371764E+02  0.27340404664E+02  0.21221877125E+02  0.54367088887E+02  0.40000010735E+02 0.  0.
        -12    1    3    3    0    0  0.12566371764E+02 -0.27340404664E+02 -0.21221877125E+02  0.36820911113E+02  0.00000000000E+00 0.  1.
         11    1    4    4    0    0 -0.18054214964E+02  0.39294968068E+01  0.11970674135E+02  0.22015736704E+02  0.51100000000E-03 0. -1.
        -11    1    4    4    0    0  0.11863230168E+01  0.98794360738E+01 -0.59151626252E+01  0.11575826907E+02  0.51100000000E-03 0.  1.
         12    1    4    4    0    0  0.43015201827E+01  0.13531471783E+02  0.15166365615E+02  0.20775525276E+02  0.00000000000E+00 0. -1.
</event>
<event>
 8    1  0.2553474E-006  0.9118800E+02  0.7816164E-02  0.1184000E+00
        -11   -1    0    0    0    0  0.00000000000E+00  0.00000000000E+00  0.45593999997E+02  0.45594000000E+02  0.51100000000E-03 0. -1.
         11   -1    0    0    0    0 -0.00000000000E+00 -0.00000000000E+00 -0.45593999997E+02  0.45594000000E+02  0.51100000000E-03 0.  1.
         23    2    1    2    0    0  0.00000000000E+00  0.00000000000E+00 -0.35527136788E-14  0.91188000000E+02  0.91188000000E+02 0.  0.
    9900012    2    3    3    0    0  0.20410033456E+02 -0.19276015144E+02 -0.23825300898E+02  0.54367093053E+02  0.40000020233E+02 0.  0.
         12    1    3    3    0    0 -0.20410033456E+02  0.19276015144E+02  0.23825300898E+02  0.36820906947E+02  0.00000000000E+00 0. -1.
         11    1    4    4    0    0 -0.28830086244E+01 -0.35958416915E+01  0.73141246809E+01  0.86451278942E+01  0.51100000000E-03 0. -1.
        -11    1    4    4    0    0  0.78906765425E+01 -0.13550524123E+02 -0.73885519855E+01  0.17334075718E+02  0.51100000000E-03 0.  1.
        -12    1    4    4    0    0  0.15402365538E+02 -0.21296493295E+01 -0.23750873594E+02  0.28387889441E+02  0.00000000000E+00 0.  1.
</event>
<event>
 8    1  0.2553474E-006  0.9118800E+02  0.7816164E-02  0.1184000E+00
        -11   -1    0    0    0    0  0.00000000000E+00  0.00000000000E+00  0.45593999997E+02  0.45594000000E+02  0.51100000000E-03 0.  1.
         11   -1    0    0    0    0 -0.00000000000E+00 -0.00000000000E+00 -0.45593999997E+02  0.45594000000E+02  0.51100000000E-03 0. -1.
         23    2    1    2    0    0  0.17763568394E-14  0.00000000000E+00  0.13322676296E-14  0.91188000000E+02  0.91188000000E+02 0.  0.
    9900012    2    3    3    0    0  0.11327184728E+02  0.34968070698E+02  0.21701372428E+01  0.54367074185E+02  0.39999977219E+02 0.  0.
        -12    1    3    3    0    0 -0.11327184728E+02 -0.34968070698E+02 -0.21701372428E+01  0.36820925815E+02  0.00000000000E+00 0.  1.
         11    1    4    4    0    0  0.33607330081E+01  0.18462899316E+02  0.15980106525E+02  0.24648265300E+02  0.51100000000E-03 0. -1.
        -11    1    4    4    0    0  0.45369754460E+01  0.12995012240E+02  0.13061262576E+01  0.13826078814E+02  0.51100000000E-03 0.  1.
        -12    1    4    4    0    0  0.34294762743E+01  0.35101591421E+01 -0.15116095540E+02  0.15892730070E+02  0.00000000000E+00 0.  1.
</event>
<event>
 8    1  0.2553474E-006  0.9118800E+02  0.7816164E-02  0.1184000E+00
        -11   -1    0    0    0    0  0.00000000000E+00  0.00000000000E+00  0.45593999997E+02  0.45594000000E+02  0.51100000000E-03 0. -1.
         11   -1    0    0    0    0 -0.00000000000E+00 -0.00000000000E+00 -0.45593999997E+02  0.45594000000E+02  0.51100000000E-03 0.  1.
         23    2    1    2    0    0  0.00000000000E+00  0.00000000000E+00 -0.17763568394E-14  0.91188000000E+02  0.91188000000E+02 0.  0.
    9900012    2    3    3    0    0 -0.86884349825E+01  0.33283460734E+02  0.13134009977E+02  0.54367083676E+02  0.39999998855E+02 0.  0.
        -12    1    3    3    0    0  0.86884349825E+01 -0.33283460734E+02 -0.13134009977E+02  0.36820916324E+02  0.00000000000E+00 0.  1.
         11    1    4    4    0    0 -0.23916322209E+01  0.17413658139E+02 -0.46657555814E+01  0.18185837068E+02  0.51100000000E-03 0. -1.
        -11    1    4    4    0    0  0.22586699316E+01  0.14195452135E+02  0.22175758429E+02  0.26426818071E+02  0.51100000000E-03 0.  1.
        -12    1    4    4    0    0 -0.85554726933E+01  0.16743504593E+01 -0.43759928704E+01  0.97544285362E+01  0.00000000000E+00 0.  1.
</event>
<event>
 8    1  0.2553474E-006  0.9118800E+02  0.7816164E-02  0.1184000E+00
        -11   -1    0    0    0    0  0.00000000000E+00  0.00000000000E+00  0.45593999997E+02  0.45594000000E+02  0.51100000000E-03 0.  1.
         11   -1    0    0    0    0 -0.00000000000E+00 -0.00000000000E+00 -0.45593999997E+02  0.45594000000E+02  0.51100000000E-03 0. -1.
         23    2    1    2    0    0  0.15543122345E-14 -0.17763568394E-14 -0.71054273576E-14  0.91188000000E+02  0.91188000000E+02 0.  0.
    9900012    2    3    3    0    0  0.18327104914E+01 -0.94001699700E+01  0.35553592341E+02  0.54367082690E+02  0.39999996608E+02 0.  0.
         12    1    3    3    0    0 -0.18327104914E+01  0.94001699700E+01 -0.35553592341E+02  0.36820917310E+02  0.00000000000E+00 0. -1.
         11    1    4    4    0    0 -0.10224877840E+02  0.55650209939E+01  0.33043870537E+01  0.12101097453E+02  0.51100000000E-03 0. -1.
        -11    1    4    4    0    0  0.22935111856E+01 -0.11993129110E+02  0.50476082135E+01  0.13212633665E+02  0.51100000000E-03 0.  1.
        -12    1    4    4    0    0  0.97640771461E+01 -0.29720618535E+01  0.27201597074E+02  0.29053351572E+02  0.00000000000E+00 0.  1.
</event>
<event>
 8    1  0.2553474E-006  0.9118800E+02  0.7816164E-02  0.1184000E+00
        -11   -1    0    0    0    0  0.00000000000E+00  0.00000000000E+00  0.45593999997E+02  0.45594000000E+02  0.51100000000E-03 0. -1.
         11   -1    0    0    0    0 -0.00000000000E+00 -0.00000000000E+00 -0.45593999997E+02  0.45594000000E+02  0.51100000000E-03 0.  1.
         23    2    1    2    0    0  0.00000000000E+00  0.00000000000E+00 -0.88817841970E-15  0.91188000000E+02  0.91188000000E+02 0.  0.
    9900012    2    3    3    0    0 -0.35178142148E+02 -0.98527913953E+01 -0.46040195034E+01  0.54367133921E+02  0.40000113398E+02 0.  0.
        -12    1    3    3    0    0  0.35178142148E+02  0.98527913953E+01  0.46040195034E+01  0.36820866079E+02  0.00000000000E+00 0.  1.
         11    1    4    4    0    0 -0.11283764064E+00  0.79928344563E+01  0.17685546914E+01  0.81869359919E+01  0.51100000000E-03 0. -1.
        -11    1    4    4    0    0 -0.13826356364E+02 -0.17584800894E+02 -0.10220802282E+02  0.24593864120E+02  0.51100000000E-03 0.  1.
         12    1    4    4    0    0 -0.21238948143E+02 -0.26082495731E+00  0.38482280874E+01  0.21586333809E+02  0.00000000000E+00 0. -1.
</event>
<event>
 8    1  0.2553474E-006  0.9118800E+02  0.7816164E-02  0.1184000E+00
        -11   -1    0    0    0    0  0.00000000000E+00  0.00000000000E+00  0.45593999997E+02  0.45594000000E+02  0.51100000000E-03 0.  1.
         11   -1    0    0    0    0 -0.00000000000E+00 -0.00000000000E+00 -0.45593999997E+02  0.45594000000E+02  0.51100000000E-03 0. -1.
         23    2    1    2    0    0 -0.44408920985E-15  0.35527136788E-14  0.35527136788E-14  0.91188000000E+02  0.91188000000E+02 0.  0.
    9900012    2    3    3    0    0  0.21809503393E+01  0.20603888105E+02  0.30438502540E+02  0.54367093082E+02  0.40000020299E+02 0.  0.
         12    1    3    3    0    0 -0.21809503393E+01 -0.20603888105E+02 -0.30438502540E+02  0.36820906918E+02  0.00000000000E+00 0. -1.
         11    1    4    4    0    0  0.25720878285E+00 -0.27072452319E+01  0.50952753801E+01  0.57755661682E+01  0.51100000000E-03 0. -1.
        -11    1    4    4    0    0  0.93333813318E+01  0.14106367893E+02 -0.36314357508E+01  0.17299969598E+02  0.51100000000E-03 0.  1.
         12    1    4    4    0    0 -0.74096397753E+01  0.92047654430E+01  0.28974662910E+02  0.31291557315E+02  0.00000000000E+00 0. -1.
</event>
<event>
 8    1  0.2553474E-006  0.9118800E+02  0.7816164E-02  0.1184000E+00
        -11   -1    0    0    0    0  0.00000000000E+00  0.00000000000E+00  0.45593999997E+02  0.45594000000E+02  0.51100000000E-03 0.  1.
         11   -1    0    0    0    0 -0.00000000000E+00 -0.00000000000E+00 -0.45593999997E+02  0.45594000000E+02  0.51100000000E-03 0. -1.
         23    2    1    2    0    0  0.00000000000E+00  0.00000000000E+00 -0.39968028887E-14  0.91188000000E+02  0.91188000000E+02 0.  0.
    9900012    2    3    3    0    0  0.24051874051E+02 -0.27812387832E+02  0.19388787575E+01  0.54367070990E+02  0.39999969937E+02 0.  0.
        -12    1    3    3    0    0 -0.24051874051E+02  0.27812387832E+02 -0.19388787575E+01  0.36820929010E+02  0.00000000000E+00 0.  1.
         11    1    4    4    0    0  0.74194003961E+01 -0.57047876870E+00 -0.15297904282E+02  0.17011726072E+02  0.51100000000E-03 0. -1.
        -11    1    4    4    0    0 -0.56449746501E+00 -0.34121845345E+01  0.34852859265E+01  0.49100793208E+01  0.51100000000E-03 0.  1.
         12    1    4    4    0    0  0.17196971120E+02 -0.23829724529E+02  0.13751497113E+02  0.32445265597E+02  0.00000000000E+00 0. -1.
</event>
<event>
 8    1  0.2553474E-006  0.9118800E+02  0.7816164E-02  0.1184000E+00
        -11   -1    0    0    0    0  0.00000000000E+00  0.00000000000E+00  0.45593999997E+02  0.45594000000E+02  0.51100000000E-03 0.  1.
         11   -1    0    0    0    0 -0.00000000000E+00 -0.00000000000E+00 -0.45593999997E+02  0.45594000000E+02  0.51100000000E-03 0. -1.
         23    2    1    2    0    0  0.00000000000E+00  0.00000000000E+00  0.00000000000E+00  0.91188000000E+02  0.91188000000E+02 0.  0.
    9900012    2    3    3    0    0  0.34071529623E+02 -0.12961338103E+02  0.51879484205E+01  0.54367078975E+02  0.39999988140E+02 0.  0.
        -12    1    3    3    0    0 -0.34071529623E+02  0.12961338103E+02 -0.51879484205E+01  0.36820921025E+02  0.00000000000E+00 0.  1.
         11    1    4    4    0    0  0.16618784964E+02  0.86238705962E+01 -0.45118189654E+01  0.19259067173E+02  0.51100000000E-03 0. -1.
        -11    1    4    4    0    0 -0.29008649013E+01  0.88779720878E+00 -0.58802278497E+00  0.30901411159E+01  0.51100000000E-03 0.  1.
        -12    1    4    4    0    0  0.20353609560E+02 -0.22473005908E+02  0.10287790171E+02  0.32017870686E+02  0.00000000000E+00 0.  1.
</event>
<event>
 8    1  0.2553474E-006  0.9118800E+02  0.7816164E-02  0.1184000E+00
        -11   -1    0    0    0    0  0.00000000000E+00  0.00000000000E+00  0.45593999997E+02  0.45594000000E+02  0.51100000000E-03 0. -1.
         11   -1    0    0    0    0 -0.00000000000E+00 -0.00000000000E+00 -0.45593999997E+02  0.45594000000E+02  0.51100000000E-03 0.  1.
         23    2    1    2    0    0  0.00000000000E+00  0.00000000000E+00  0.00000000000E+00  0.91188000000E+02  0.91188000000E+02 0.  0.
    9900012    2    3    3    0    0 -0.28274521701E+02 -0.89066710301E+01 -0.21840383852E+02  0.54367085657E+02  0.40000003372E+02 0.  0.
         12    1    3    3    0    0  0.28274521701E+02  0.89066710301E+01  0.21840383852E+02  0.36820914343E+02  0.00000000000E+00 0. -1.
         11    1    4    4    0    0 -0.40376238381E+01 -0.15495695651E+02 -0.14401715770E+01  0.16077720125E+02  0.51100000000E-03 0. -1.
        -11    1    4    4    0    0 -0.12891040287E+02  0.79921502709E+01 -0.22024823650E+02  0.26742218358E+02  0.51100000000E-03 0.  1.
         12    1    4    4    0    0 -0.11345857577E+02 -0.14031256497E+01  0.16246113755E+01  0.11547147174E+02  0.00000000000E+00 0. -1.
</event>
<event>
 8    1  0.2553474E-006  0.9118800E+02  0.7816164E-02  0.1184000E+00
        -11   -1    0    0    0    0  0.00000000000E+00  0.00000000000E+00  0.45593999997E+02  0.45594000000E+02  0.51100000000E-03 0.  1.
         11   -1    0    0    0    0 -0.00000000000E+00 -0.00000000000E+00 -0.45593999997E+02  0.45594000000E+02  0.51100000000E-03 0. -1.
         23    2    1    2    0    0 -0.26645352591E-14  0.00000000000E+00  0.00000000000E+00  0.91188000000E+02  0.91188000000E+02 0.  0.
    9900012    2    3    3    0    0 -0.56224126552E+01 -0.19313224520E+02 -0.30841026127E+02  0.54367067666E+02  0.39999962357E+02 0.  0.
        -12    1    3    3    0    0  0.56224126552E+01  0.19313224520E+02  0.30841026127E+02  0.36820932334E+02  0.00000000000E+00 0.  1.
         11    1    4    4    0    0  0.74630739010E+01 -0.13265239977E+01 -0.72345573368E+01  0.10478356650E+02  0.51100000000E-03 0. -1.
        -11    1    4    4    0    0  0.63890917980E+01  0.37807420349E+01 -0.24278834960E+01  0.78108336859E+01  0.51100000000E-03 0.  1.
         12    1    4    4    0    0 -0.19474578354E+02 -0.21767442557E+02 -0.21178585294E+02  0.36077877330E+02  0.00000000000E+00 0. -1.
</event>
<event>
 8    1  0.2553474E-006  0.9118800E+02  0.7816164E-02  0.1184000E+00
        -11   -1    0    0    0    0  0.00000000000E+00  0.00000000000E+00  0.45593999997E+02  0.45594000000E+02  0.51100000000E-03 0. -1.
         11   -1    0    0    0    0 -0.00000000000E+00 -0.00000000000E+00 -0.45593999997E+02  0.45594000000E+02  0.51100000000E-03 0.  1.
         23    2    1    2    0    0  0.24424906542E-14  0.35527136788E-14  0.00000000000E+00  0.91188000000E+02  0.91188000000E+02 0.  0.
    9900012    2    3    3    0    0  0.17223776912E+01  0.12258507732E+02 -0.34677694850E+02  0.54367080446E+02  0.39999991492E+02 0.  0.
         12    1    3    3    0    0 -0.17223776912E+01 -0.12258507732E+02  0.34677694850E+02  0.36820919554E+02  0.00000000000E+00 0. -1.
         11    1    4    4    0    0 -0.72273406672E+01 -0.21702126251E+01 -0.20155096865E+01  0.78106693385E+01  0.51100000000E-03 0. -1.
        -11    1    4    4    0    0  0.10004313621E+02  0.17227369786E+02 -0.76088194897E+01  0.21325165768E+02  0.51100000000E-03 0.  1.
         12    1    4    4    0    0 -0.10545952628E+01 -0.27986494282E+01 -0.25053365673E+02  0.25231245339E+02  0.00000000000E+00 0. -1.
</event>
<event>
 8    1  0.2553474E-006  0.9118800E+02  0.7816164E-02  0.1184000E+00
        -11   -1    0    0    0    0  0.00000000000E+00  0.00000000000E+00  0.45593999997E+02  0.45594000000E+02  0.51100000000E-03 0.  1.
         11   -1    0    0    0    0 -0.00000000000E+00 -0.00000000000E+00 -0.45593999997E+02  0.45594000000E+02  0.51100000000E-03 0. -1.
         23    2    1    2    0    0  0.35527136788E-14  0.00000000000E+00 -0.88817841970E-15  0.91188000000E+02  0.91188000000E+02 0.  0.
    9900012    2    3    3    0    0 -0.28284866190E+02  0.23051751020E+02 -0.49360514091E+01  0.54367061881E+02  0.39999949170E+02 0.  0.
        -12    1    3    3    0    0  0.28284866190E+02 -0.23051751020E+02  0.49360514091E+01  0.36820938119E+02  0.00000000000E+00 0.  1.
         11    1    4    4    0    0 -0.16034119516E+02  0.29351145577E+01 -0.12165237462E+02  0.20339638367E+02  0.51100000000E-03 0.  1.
        -11    1    4    4    0    0  0.70601392992E+01  0.49413766010E+01  0.89692246549E+00  0.86641352602E+01  0.51100000000E-03 0. -1.
         12    1    4    4    0    0 -0.19310885973E+02  0.15175259861E+02  0.63322635875E+01  0.25363288254E+02  0.00000000000E+00 0. -1.
</event>
<event>
 8    1  0.2553474E-006  0.9118800E+02  0.7816164E-02  0.1184000E+00
        -11   -1    0    0    0    0  0.00000000000E+00  0.00000000000E+00  0.45593999997E+02  0.45594000000E+02  0.51100000000E-03 0.  1.
         11   -1    0    0    0    0 -0.00000000000E+00 -0.00000000000E+00 -0.45593999997E+02  0.45594000000E+02  0.51100000000E-03 0. -1.
         23    2    1    2    0    0  0.00000000000E+00  0.00000000000E+00  0.00000000000E+00  0.91188000000E+02  0.91188000000E+02 0.  0.
    9900012    2    3    3    0    0 -0.11696500561E+02 -0.34838965636E+02 -0.22843417357E+01  0.54367083810E+02  0.39999999161E+02 0.  0.
        -12    1    3    3    0    0  0.11696500561E+02  0.34838965636E+02  0.22843417357E+01  0.36820916190E+02  0.00000000000E+00 0.  1.
         11    1    4    4    0    0 -0.68011179074E+01 -0.26141504519E+01 -0.49917072515E+00  0.73032978202E+01  0.51100000000E-03 0. -1.
        -11    1    4    4    0    0 -0.17946455980E+02 -0.27913784229E+02  0.13655896601E+00  0.33185437782E+02  0.51100000000E-03 0.  1.
        -12    1    4    4    0    0  0.13051073326E+02 -0.43110309550E+01 -0.19217299766E+01  0.13878348207E+02  0.00000000000E+00 0.  1.
</event>
<event>
 8    1  0.2553474E-006  0.9118800E+02  0.7816164E-02  0.1184000E+00
        -11   -1    0    0    0    0  0.00000000000E+00  0.00000000000E+00  0.45593999997E+02  0.45594000000E+02  0.51100000000E-03 0.  1.
         11   -1    0    0    0    0 -0.00000000000E+00 -0.00000000000E+00 -0.45593999997E+02  0.45594000000E+02  0.51100000000E-03 0. -1.
         23    2    1    2    0    0  0.00000000000E+00  0.00000000000E+00  0.17763568394E-14  0.91188000000E+02  0.91188000000E+02 0.  0.
    9900012    2    3    3    0    0 -0.33757759956E+02  0.42615623555E+01 -0.14072398008E+02  0.54367086695E+02  0.40000005738E+02 0.  0.
        -12    1    3    3    0    0  0.33757759956E+02 -0.42615623555E+01  0.14072398008E+02  0.36820913305E+02  0.00000000000E+00 0.  1.
         11    1    4    4    0    0 -0.10525903843E+02  0.16806054401E+02 -0.42899856245E+01  0.20288964812E+02  0.51100000000E-03 0. -1.
        -11    1    4    4    0    0 -0.22686674378E+02 -0.69584620127E+01 -0.11198450536E+01  0.23756250570E+02  0.51100000000E-03 0.  1.
         12    1    4    4    0    0 -0.54518173429E+00 -0.55860300324E+01 -0.86625673303E+01  0.10321871313E+02  0.00000000000E+00 0. -1.
</event>
<event>
 8    1  0.2553474E-006  0.9118800E+02  0.7816164E-02  0.1184000E+00
        -11   -1    0    0    0    0  0.00000000000E+00  0.00000000000E+00  0.45593999997E+02  0.45594000000E+02  0.51100000000E-03 0. -1.
         11   -1    0    0    0    0 -0.00000000000E+00 -0.00000000000E+00 -0.45593999997E+02  0.45594000000E+02  0.51100000000E-03 0.  1.
         23    2    1    2    0    0  0.00000000000E+00  0.17763568394E-14  0.00000000000E+00  0.91188000000E+02  0.91188000000E+02 0.  0.
    9900012    2    3    3    0    0 -0.58099351803E+01 -0.10525102461E+02 -0.34802970567E+02  0.54367083541E+02  0.39999998549E+02 0.  0.
         12    1    3    3    0    0  0.58099351803E+01  0.10525102461E+02  0.34802970567E+02  0.36820916459E+02  0.00000000000E+00 0. -1.
         11    1    4    4    0    0 -0.35314704981E+01 -0.23466863435E+02 -0.21850160236E+02  0.32258246480E+02  0.51100000000E-03 0. -1.
        -11    1    4    4    0    0 -0.70836472190E+01  0.66564606435E+01 -0.51657309005E+01  0.11007783711E+02  0.51100000000E-03 0.  1.
         12    1    4    4    0    0  0.48051825367E+01  0.62853003303E+01 -0.77870794297E+01  0.11101053351E+02  0.00000000000E+00 0. -1.
</event>
<event>
 8    1  0.2553474E-006  0.9118800E+02  0.7816164E-02  0.1184000E+00
        -11   -1    0    0    0    0  0.00000000000E+00  0.00000000000E+00  0.45593999997E+02  0.45594000000E+02  0.51100000000E-03 0.  1.
         11   -1    0    0    0    0 -0.00000000000E+00 -0.00000000000E+00 -0.45593999997E+02  0.45594000000E+02  0.51100000000E-03 0. -1.
         23    2    1    2    0    0  0.35527136788E-14 -0.17763568394E-14  0.00000000000E+00  0.91188000000E+02  0.91188000000E+02 0.  0.
    9900012    2    3    3    0    0  0.27996493129E+02 -0.98883526363E+01 -0.21776062953E+02  0.54367081175E+02  0.39999993154E+02 0.  0.
        -12    1    3    3    0    0 -0.27996493129E+02  0.98883526363E+01  0.21776062953E+02  0.36820918825E+02  0.00000000000E+00 0.  1.
         11    1    4    4    0    0 -0.15821838621E+01 -0.68870037195E+01 -0.67732376944E+01  0.97883029751E+01  0.51100000000E-03 0. -1.
        -11    1    4    4    0    0  0.59604462821E+01  0.43662545395E+01  0.79339941001E+01  0.10841557140E+02  0.51100000000E-03 0.  1.
        -12    1    4    4    0    0  0.23618230709E+02 -0.73676034563E+01 -0.22936819359E+02  0.33737221060E+02  0.00000000000E+00 0.  1.
</event>
<event>
 8    1  0.2553474E-006  0.9118800E+02  0.7816164E-02  0.1184000E+00
        -11   -1    0    0    0    0  0.00000000000E+00  0.00000000000E+00  0.45593999997E+02  0.45594000000E+02  0.51100000000E-03 0.  1.
         11   -1    0    0    0    0 -0.00000000000E+00 -0.00000000000E+00 -0.45593999997E+02  0.45594000000E+02  0.51100000000E-03 0. -1.
         23    2    1    2    0    0  0.35527136788E-14 -0.88817841970E-15  0.00000000000E+00  0.91188000000E+02  0.91188000000E+02 0.  0.
    9900012    2    3    3    0    0  0.17263618406E+02 -0.63541693304E+01 -0.31896197579E+02  0.54367144383E+02  0.40000137250E+02 0.  0.
        -12    1    3    3    0    0 -0.17263618406E+02  0.63541693304E+01  0.31896197579E+02  0.36820855617E+02  0.00000000000E+00 0.  1.
         11    1    4    4    0    0  0.99089410988E+01 -0.49131182306E+00 -0.34023207423E+02  0.35440191092E+02  0.51100000000E-03 0. -1.
        -11    1    4    4    0    0  0.12317470383E+02 -0.55173190509E+01 -0.49674772044E-01  0.13496790507E+02  0.51100000000E-03 0.  1.
        -12    1    4    4    0    0 -0.49627930763E+01 -0.34553845645E+00  0.21766846160E+01  0.54301627840E+01  0.00000000000E+00 0.  1.
</event>
<event>
 8    1  0.2553474E-006  0.9118800E+02  0.7816164E-02  0.1184000E+00
        -11   -1    0    0    0    0  0.00000000000E+00  0.00000000000E+00  0.45593999997E+02  0.45594000000E+02  0.51100000000E-03 0.  1.
         11   -1    0    0    0    0 -0.00000000000E+00 -0.00000000000E+00 -0.45593999997E+02  0.45594000000E+02  0.51100000000E-03 0. -1.
         23    2    1    2    0    0  0.35527136788E-14 -0.35527136788E-14  0.00000000000E+00  0.91188000000E+02  0.91188000000E+02 0.  0.
    9900012    2    3    3    0    0  0.30555564761E+02 -0.13859731019E+02  0.15167281160E+02  0.54367067101E+02  0.39999961070E+02 0.  0.
         12    1    3    3    0    0 -0.30555564761E+02  0.13859731019E+02 -0.15167281160E+02  0.36820932899E+02  0.00000000000E+00 0. -1.
         11    1    4    4    0    0  0.14321842979E+02 -0.18210623179E+02  0.18689870281E+01  0.23242957980E+02  0.51100000000E-03 0. -1.
        -11    1    4    4    0    0 -0.40373380086E+00  0.10416367515E+02  0.45858885062E+01  0.11388331170E+02  0.51100000000E-03 0.  1.
         12    1    4    4    0    0  0.16637455583E+02 -0.60654753541E+01  0.87124056258E+01  0.19735777951E+02  0.00000000000E+00 0. -1.
</event>
<event>
 8    1  0.2553474E-006  0.9118800E+02  0.7816164E-02  0.1184000E+00
        -11   -1    0    0    0    0  0.00000000000E+00  0.00000000000E+00  0.45593999997E+02  0.45594000000E+02  0.51100000000E-03 0.  1.
         11   -1    0    0    0    0 -0.00000000000E+00 -0.00000000000E+00 -0.45593999997E+02  0.45594000000E+02  0.51100000000E-03 0. -1.
         23    2    1    2    0    0 -0.35527136788E-14  0.00000000000E+00 -0.35527136788E-14  0.91188000000E+02  0.91188000000E+02 0.  0.
    9900012    2    3    3    0    0  0.14255259688E+02  0.16253023635E+02  0.29806139633E+02  0.54367093359E+02  0.40000020930E+02 0.  0.
         12    1    3    3    0    0 -0.14255259688E+02 -0.16253023635E+02 -0.29806139633E+02  0.36820906641E+02  0.00000000000E+00 0. -1.
         11    1    4    4    0    0 -0.46740241583E+01  0.21726475920E+02  0.87549922602E+01  0.23885898507E+02  0.51100000000E-03 0. -1.
        -11    1    4    4    0    0  0.66177783485E+01  0.29118128578E+00  0.17115346803E+01  0.68417196694E+01  0.51100000000E-03 0.  1.
         12    1    4    4    0    0  0.12311505498E+02 -0.57646335704E+01  0.19339612692E+02  0.23639475183E+02  0.00000000000E+00 0. -1.
</event>
<event>
 8    1  0.2553474E-006  0.9118800E+02  0.7816164E-02  0.1184000E+00
        -11   -1    0    0    0    0  0.00000000000E+00  0.00000000000E+00  0.45593999997E+02  0.45594000000E+02  0.51100000000E-03 0. -1.
         11   -1    0    0    0    0 -0.00000000000E+00 -0.00000000000E+00 -0.45593999997E+02  0.45594000000E+02  0.51100000000E-03 0.  1.
         23    2    1    2    0    0 -0.88817841970E-15  0.17763568394E-14 -0.71054273576E-14  0.91188000000E+02  0.91188000000E+02 0.  0.
    9900012    2    3    3    0    0 -0.74809254367E+01 -0.10818342249E+02  0.34391574457E+02  0.54367066171E+02  0.39999958949E+02 0.  0.
        -12    1    3    3    0    0  0.74809254367E+01  0.10818342249E+02 -0.34391574457E+02  0.36820933829E+02  0.00000000000E+00 0.  1.
         11    1    4    4    0    0 -0.11591381968E+02  0.39424723538E+01  0.86515549647E+01  0.14991751991E+02  0.51100000000E-03 0. -1.
        -11    1    4    4    0    0 -0.16334938501E+00 -0.39232886764E+01 -0.50836572651E+01  0.64235853315E+01  0.51100000000E-03 0.  1.
         12    1    4    4    0    0  0.42738059163E+01 -0.10837525926E+02  0.30823676758E+02  0.32951728848E+02  0.00000000000E+00 0. -1.
</event>
<event>
 8    1  0.2553474E-006  0.9118800E+02  0.7816164E-02  0.1184000E+00
        -11   -1    0    0    0    0  0.00000000000E+00  0.00000000000E+00  0.45593999997E+02  0.45594000000E+02  0.51100000000E-03 0. -1.
         11   -1    0    0    0    0 -0.00000000000E+00 -0.00000000000E+00 -0.45593999997E+02  0.45594000000E+02  0.51100000000E-03 0.  1.
         23    2    1    2    0    0  0.00000000000E+00  0.00000000000E+00  0.00000000000E+00  0.91188000000E+02  0.91188000000E+02 0.  0.
    9900012    2    3    3    0    0 -0.21864679948E+02  0.25382755679E+02  0.15278346386E+02  0.54367131143E+02  0.40000107067E+02 0.  0.
        -12    1    3    3    0    0  0.21864679948E+02 -0.25382755679E+02 -0.15278346386E+02  0.36820868857E+02  0.00000000000E+00 0.  1.
         11    1    4    4    0    0  0.34917377107E+00  0.52708145609E+00 -0.49851432051E+01  0.50250761408E+01  0.51100000000E-03 0. -1.
        -11    1    4    4    0    0  0.55273070407E+01  0.20050068127E+01 -0.29281447998E+01  0.65685011739E+01  0.51100000000E-03 0.  1.
         12    1    4    4    0    0 -0.27741160760E+02  0.22850667410E+02  0.23191634391E+02  0.42773553828E+02  0.00000000000E+00 0. -1.
</event>
<event>
 8    1  0.2553474E-006  0.9118800E+02  0.7816164E-02  0.1184000E+00
        -11   -1    0    0    0    0  0.00000000000E+00  0.00000000000E+00  0.45593999997E+02  0.45594000000E+02  0.51100000000E-03 0. -1.
         11   -1    0    0    0    0 -0.00000000000E+00 -0.00000000000E+00 -0.45593999997E+02  0.45594000000E+02  0.51100000000E-03 0.  1.
         23    2    1    2    0    0  0.17763568394E-14  0.35527136788E-14  0.00000000000E+00  0.91188000000E+02  0.91188000000E+02 0.  0.
    9900012    2    3    3    0    0 -0.38623527347E+01 -0.23753864924E+02  0.27867810426E+02  0.54367099340E+02  0.40000034565E+02 0.  0.
        -12    1    3    3    0    0  0.38623527347E+01  0.23753864924E+02 -0.27867810426E+02  0.36820900660E+02  0.00000000000E+00 0.  1.
         11    1    4    4    0    0 -0.11764724490E+02 -0.13406348684E+02  0.71356188398E+01  0.19210829858E+02  0.51100000000E-03 0. -1.
        -11    1    4    4    0    0  0.16827794264E+02 -0.63989379335E+01  0.97869585216E+01  0.20491598860E+02  0.51100000000E-03 0.  1.
        -12    1    4    4    0    0 -0.89254225085E+01 -0.39485783070E+01  0.10945233065E+02  0.14664670622E+02  0.00000000000E+00 0.  1.
</event>
<event>
 8    1  0.2553474E-006  0.9118800E+02  0.7816164E-02  0.1184000E+00
        -11   -1    0    0    0    0  0.00000000000E+00  0.00000000000E+00  0.45593999997E+02  0.45594000000E+02  0.51100000000E-03 0. -1.
         11   -1    0    0    0    0 -0.00000000000E+00 -0.00000000000E+00 -0.45593999997E+02  0.45594000000E+02  0.51100000000E-03 0.  1.
         23    2    1    2    0    0  0.17763568394E-14 -0.35527136788E-14  0.00000000000E+00  0.91188000000E+02  0.91188000000E+02 0.  0.
    9900012    2    3    3    0    0 -0.88796119473E+01  0.11159042694E+02  0.33947132342E+02  0.54367088327E+02  0.40000009459E+02 0.  0.
        -12    1    3    3    0    0  0.88796119473E+01 -0.11159042694E+02 -0.33947132342E+02  0.36820911673E+02  0.00000000000E+00 0.  1.
         11    1    4    4    0    0 -0.15930967135E+02  0.13146838252E+02  0.84617322596E+01  0.22321200303E+02  0.51100000000E-03 0. -1.
        -11    1    4    4    0    0 -0.37870952399E+01  0.46896996347E+01  0.45840893398E+01  0.75729286512E+01  0.51100000000E-03 0.  1.
        -12    1    4    4    0    0  0.10838450427E+02 -0.66774951924E+01  0.20901310743E+02  0.24472959373E+02  0.00000000000E+00 0.  1.
</event>
<event>
 8    1  0.2553474E-006  0.9118800E+02  0.7816164E-02  0.1184000E+00
        -11   -1    0    0    0    0  0.00000000000E+00  0.00000000000E+00  0.45593999997E+02  0.45594000000E+02  0.51100000000E-03 0.  1.
         11   -1    0    0    0    0 -0.00000000000E+00 -0.00000000000E+00 -0.45593999997E+02  0.45594000000E+02  0.51100000000E-03 0. -1.
         23    2    1    2    0    0 -0.17763568394E-14 -0.35527136788E-14 -0.35527136788E-14  0.91188000000E+02  0.91188000000E+02 0.  0.
    9900012    2    3    3    0    0 -0.63836092857E+01 -0.21996051550E+02 -0.28830463743E+02  0.54367185357E+02  0.40000230658E+02 0.  0.
        -12    1    3    3    0    0  0.63836092857E+01  0.21996051550E+02  0.28830463743E+02  0.36820814643E+02  0.00000000000E+00 0.  1.
         11    1    4    4    0    0  0.21024442558E+01  0.39680707926E+01 -0.12318449970E+02  0.13111447959E+02  0.51100000000E-03 0. -1.
        -11    1    4    4    0    0 -0.11059771468E+02 -0.26925025683E+02 -0.51421864763E+01  0.29558715043E+02  0.51100000000E-03 0.  1.
        -12    1    4    4    0    0  0.25737179269E+01  0.96090334049E+00 -0.11369827297E+02  0.11697022355E+02  0.00000000000E+00 0.  1.
</event>
<event>
 8    1  0.2553474E-006  0.9118800E+02  0.7816164E-02  0.1184000E+00
        -11   -1    0    0    0    0  0.00000000000E+00  0.00000000000E+00  0.45593999997E+02  0.45594000000E+02  0.51100000000E-03 0.  1.
         11   -1    0    0    0    0 -0.00000000000E+00 -0.00000000000E+00 -0.45593999997E+02  0.45594000000E+02  0.51100000000E-03 0. -1.
         23    2    1    2    0    0  0.17763568394E-14  0.00000000000E+00  0.17763568394E-14  0.91188000000E+02  0.91188000000E+02 0.  0.
    9900012    2    3    3    0    0 -0.60079007668E+01  0.35939270358E+02  0.52965814823E+01  0.54367084736E+02  0.40000001273E+02 0.  0.
         12    1    3    3    0    0  0.60079007668E+01 -0.35939270358E+02 -0.52965814823E+01  0.36820915264E+02  0.00000000000E+00 0. -1.
         11    1    4    4    0    0 -0.10645092941E+02  0.25781031620E+02 -0.73890691727E+01  0.28854426673E+02  0.51100000000E-03 0. -1.
        -11    1    4    4    0    0  0.40735845710E+01  0.50318710598E+01  0.17375145888E+02  0.18542101081E+02  0.51100000000E-03 0.  1.
        -12    1    4    4    0    0  0.56360760350E+00  0.51263676779E+01 -0.46894952329E+01  0.69705569819E+01  0.00000000000E+00 0.  1.
</event>
<event>
 8    1  0.2553474E-006  0.9118800E+02  0.7816164E-02  0.1184000E+00
        -11   -1    0    0    0    0  0.00000000000E+00  0.00000000000E+00  0.45593999997E+02  0.45594000000E+02  0.51100000000E-03 0.  1.
         11   -1    0    0    0    0 -0.00000000000E+00 -0.00000000000E+00 -0.45593999997E+02  0.45594000000E+02  0.51100000000E-03 0. -1.
         23    2    1    2    0    0 -0.35527136788E-14  0.00000000000E+00  0.00000000000E+00  0.91188000000E+02  0.91188000000E+02 0.  0.
    9900012    2    3    3    0    0 -0.31066228270E+02 -0.69891089833E+01 -0.18488426531E+02  0.54367080690E+02  0.39999992048E+02 0.  0.
        -12    1    3    3    0    0  0.31066228270E+02  0.69891089833E+01  0.18488426531E+02  0.36820919310E+02  0.00000000000E+00 0.  1.
         11    1    4    4    0    0 -0.21340306876E+00 -0.12037913948E+02 -0.15765868633E+02  0.19837326612E+02  0.51100000000E-03 0. -1.
        -11    1    4    4    0    0 -0.43073076639E+01  0.65084504717E+01 -0.12426862691E+01  0.79029802150E+01  0.51100000000E-03 0.  1.
         12    1    4    4    0    0 -0.26545517537E+02 -0.14596455073E+01 -0.14798716291E+01  0.26626773863E+02  0.00000000000E+00 0. -1.
</event>
<event>
 8    1  0.2553474E-006  0.9118800E+02  0.7816164E-02  0.1184000E+00
        -11   -1    0    0    0    0  0.00000000000E+00  0.00000000000E+00  0.45593999997E+02  0.45594000000E+02  0.51100000000E-03 0. -1.
         11   -1    0    0    0    0 -0.00000000000E+00 -0.00000000000E+00 -0.45593999997E+02  0.45594000000E+02  0.51100000000E-03 0.  1.
         23    2    1    2    0    0  0.35527136788E-14  0.88817841970E-15  0.00000000000E+00  0.91188000000E+02  0.91188000000E+02 0.  0.
    9900012    2    3    3    0    0  0.30894737122E+02  0.46650564436E+01  0.19481544328E+02  0.54367107793E+02  0.40000053836E+02 0.  0.
        -12    1    3    3    0    0 -0.30894737122E+02 -0.46650564436E+01 -0.19481544328E+02  0.36820892207E+02  0.00000000000E+00 0.  1.
         11    1    4    4    0    0  0.32607214286E+01  0.12304799673E+02  0.43838656323E+01  0.13463234283E+02  0.51100000000E-03 0. -1.
        -11    1    4    4    0    0  0.12785217534E+02  0.74478955604E+01  0.12883763819E+02  0.19619487916E+02  0.51100000000E-03 0.  1.
        -12    1    4    4    0    0  0.14848798160E+02 -0.15087638790E+02  0.22139148772E+01  0.21284385594E+02  0.00000000000E+00 0.  1.
</event>
<event>
 8    1  0.2553474E-006  0.9118800E+02  0.7816164E-02  0.1184000E+00
        -11   -1    0    0    0    0  0.00000000000E+00  0.00000000000E+00  0.45593999997E+02  0.45594000000E+02  0.51100000000E-03 0. -1.
         11   -1    0    0    0    0 -0.00000000000E+00 -0.00000000000E+00 -0.45593999997E+02  0.45594000000E+02  0.51100000000E-03 0.  1.
         23    2    1    2    0    0  0.00000000000E+00  0.00000000000E+00  0.00000000000E+00  0.91188000000E+02  0.91188000000E+02 0.  0.
    9900012    2    3    3    0    0  0.27952450160E+02  0.13229106708E+02  0.19985767139E+02  0.54367087160E+02  0.40000006799E+02 0.  0.
        -12    1    3    3    0    0 -0.27952450160E+02 -0.13229106708E+02 -0.19985767139E+02  0.36820912840E+02  0.00000000000E+00 0.  1.
         11    1    4    4    0    0  0.14516756416E+02 -0.67991318415E+01  0.14224678591E+02  0.21431423003E+02  0.51100000000E-03 0. -1.
        -11    1    4    4    0    0  0.18387074344E+02  0.19956342482E+02  0.30945986484E+01  0.27311474681E+02  0.51100000000E-03 0.  1.
        -12    1    4    4    0    0 -0.49513805994E+01  0.71896066986E-01  0.26664898992E+01  0.56241894765E+01  0.00000000000E+00 0.  1.
</event>
<event>
 8    1  0.2553474E-006  0.9118800E+02  0.7816164E-02  0.1184000E+00
        -11   -1    0    0    0    0  0.00000000000E+00  0.00000000000E+00  0.45593999997E+02  0.45594000000E+02  0.51100000000E-03 0.  1.
         11   -1    0    0    0    0 -0.00000000000E+00 -0.00000000000E+00 -0.45593999997E+02  0.45594000000E+02  0.51100000000E-03 0. -1.
         23    2    1    2    0    0  0.44408920985E-15  0.00000000000E+00 -0.71054273576E-14  0.91188000000E+02  0.91188000000E+02 0.  0.
    9900012    2    3    3    0    0 -0.26419676940E+01  0.10188588681E+02 -0.35284460344E+02  0.54367075590E+02  0.39999980423E+02 0.  0.
        -12    1    3    3    0    0  0.26419676940E+01 -0.10188588681E+02  0.35284460344E+02  0.36820924410E+02  0.00000000000E+00 0.  1.
         11    1    4    4    0    0  0.82044990989E+01 -0.11227495180E+02 -0.15590777885E+02  0.20891213675E+02  0.51100000000E-03 0. -1.
        -11    1    4    4    0    0  0.24583589927E+01  0.11142654739E+01 -0.11683033432E+01  0.29410966401E+01  0.51100000000E-03 0.  1.
        -12    1    4    4    0    0 -0.13304825786E+02  0.20301818388E+02 -0.18525379116E+02  0.30534765275E+02  0.00000000000E+00 0.  1.
</event>
<event>
 8    1  0.2553474E-006  0.9118800E+02  0.7816164E-02  0.1184000E+00
        -11   -1    0    0    0    0  0.00000000000E+00  0.00000000000E+00  0.45593999997E+02  0.45594000000E+02  0.51100000000E-03 0. -1.
         11   -1    0    0    0    0 -0.00000000000E+00 -0.00000000000E+00 -0.45593999997E+02  0.45594000000E+02  0.51100000000E-03 0.  1.
         23    2    1    2    0    0 -0.35527136788E-14  0.00000000000E+00 -0.35527136788E-14  0.91188000000E+02  0.91188000000E+02 0.  0.
    9900012    2    3    3    0    0 -0.26924531600E+02  0.18919096484E+02 -0.16520169399E+02  0.54367100899E+02  0.40000038119E+02 0.  0.
         12    1    3    3    0    0  0.26924531600E+02 -0.18919096484E+02  0.16520169399E+02  0.36820899101E+02  0.00000000000E+00 0. -1.
         11    1    4    4    0    0  0.69019352911E+01 -0.38443190542E+01 -0.38632522671E+01  0.87943287460E+01  0.51100000000E-03 0. -1.
        -11    1    4    4    0    0 -0.17977621241E+02  0.20865776047E+02 -0.10453722817E+02  0.29459392332E+02  0.51100000000E-03 0.  1.
         12    1    4    4    0    0 -0.15848845650E+02  0.18976394914E+01 -0.22031943146E+01  0.16113379821E+02  0.00000000000E+00 0. -1.
</event>
<event>
 8    1  0.2553474E-006  0.9118800E+02  0.7816164E-02  0.1184000E+00
        -11   -1    0    0    0    0  0.00000000000E+00  0.00000000000E+00  0.45593999997E+02  0.45594000000E+02  0.51100000000E-03 0.  1.
         11   -1    0    0    0    0 -0.00000000000E+00 -0.00000000000E+00 -0.45593999997E+02  0.45594000000E+02  0.51100000000E-03 0. -1.
         23    2    1    2    0    0 -0.35527136788E-14  0.14432899320E-14 -0.35527136788E-14  0.91188000000E+02  0.91188000000E+02 0.  0.
    9900012    2    3    3    0    0  0.23487719078E+02  0.65432364271E+00  0.28349246097E+02  0.54367070610E+02  0.39999969070E+02 0.  0.
         12    1    3    3    0    0 -0.23487719078E+02 -0.65432364271E+00 -0.28349246097E+02  0.36820929390E+02  0.00000000000E+00 0. -1.
         11    1    4    4    0    0  0.31640547337E+01 -0.11920201037E+02  0.12027738226E+02  0.17226982389E+02  0.51100000000E-03 0. -1.
        -11    1    4    4    0    0  0.25236864097E+01 -0.20621285279E+01  0.13541359051E+02  0.13928021121E+02  0.51100000000E-03 0.  1.
         12    1    4    4    0    0  0.17799977934E+02  0.14636653208E+02  0.27801488202E+01  0.23212067100E+02  0.00000000000E+00 0. -1.
</event>
<event>
 8    1  0.2553474E-006  0.9118800E+02  0.7816164E-02  0.1184000E+00
        -11   -1    0    0    0    0  0.00000000000E+00  0.00000000000E+00  0.45593999997E+02  0.45594000000E+02  0.51100000000E-03 0.  1.
         11   -1    0    0    0    0 -0.00000000000E+00 -0.00000000000E+00 -0.45593999997E+02  0.45594000000E+02  0.51100000000E-03 0. -1.
         23    2    1    2    0    0  0.00000000000E+00 -0.35527136788E-14  0.00000000000E+00  0.91188000000E+02  0.91188000000E+02 0.  0.
    9900012    2    3    3    0    0  0.93470229331E+01 -0.29554337628E+02  0.19873463467E+02  0.54367078495E+02  0.39999987044E+02 0.  0.
         12    1    3    3    0    0 -0.93470229331E+01  0.29554337628E+02 -0.19873463467E+02  0.36820921505E+02  0.00000000000E+00 0. -1.
         11    1    4    4    0    0  0.64575456275E+01 -0.52983617925E+01  0.37553110815E-01  0.83530798939E+01  0.51100000000E-03 0. -1.
        -11    1    4    4    0    0 -0.78504404814E+00 -0.32300393018E+02  0.17985766475E+02  0.36978635444E+02  0.51100000000E-03 0.  1.
         12    1    4    4    0    0  0.36745213537E+01  0.80444171835E+01  0.18501438815E+01  0.90353631572E+01  0.00000000000E+00 0. -1.
</event>
<event>
 8    1  0.2553474E-006  0.9118800E+02  0.7816164E-02  0.1184000E+00
        -11   -1    0    0    0    0  0.00000000000E+00  0.00000000000E+00  0.45593999997E+02  0.45594000000E+02  0.51100000000E-03 0. -1.
         11   -1    0    0    0    0 -0.00000000000E+00 -0.00000000000E+00 -0.45593999997E+02  0.45594000000E+02  0.51100000000E-03 0.  1.
         23    2    1    2    0    0  0.00000000000E+00  0.00000000000E+00  0.17763568394E-14  0.91188000000E+02  0.91188000000E+02 0.  0.
    9900012    2    3    3    0    0  0.35592517594E+02 -0.74139263139E+01 -0.58297306814E+01  0.54367090561E+02  0.40000014553E+02 0.  0.
        -12    1    3    3    0    0 -0.35592517594E+02  0.74139263139E+01  0.58297306814E+01  0.36820909439E+02  0.00000000000E+00 0.  1.
         11    1    4    4    0    0  0.18654323243E+02  0.14200467570E+02  0.44639309484E+01  0.23865534451E+02  0.51100000000E-03 0. -1.
        -11    1    4    4    0    0  0.17337211947E+02 -0.17696912168E+02 -0.88436359125E+01  0.26305313433E+02  0.51100000000E-03 0.  1.
        -12    1    4    4    0    0 -0.39901759574E+00 -0.39174817152E+01 -0.14500257173E+01  0.41962426779E+01  0.00000000000E+00 0.  1.
</event>
<event>
 8    1  0.2553474E-006  0.9118800E+02  0.7816164E-02  0.1184000E+00
        -11   -1    0    0    0    0  0.00000000000E+00  0.00000000000E+00  0.45593999997E+02  0.45594000000E+02  0.51100000000E-03 0.  1.
         11   -1    0    0    0    0 -0.00000000000E+00 -0.00000000000E+00 -0.45593999997E+02  0.45594000000E+02  0.51100000000E-03 0. -1.
         23    2    1    2    0    0 -0.35527136788E-14 -0.35527136788E-14 -0.35527136788E-14  0.91188000000E+02  0.91188000000E+02 0.  0.
    9900012    2    3    3    0    0  0.27040549526E+02  0.18027403501E+02  0.17308975030E+02  0.54367092729E+02  0.40000019494E+02 0.  0.
         12    1    3    3    0    0 -0.27040549526E+02 -0.18027403501E+02 -0.17308975030E+02  0.36820907271E+02  0.00000000000E+00 0. -1.
         11    1    4    4    0    0  0.11625508631E+02  0.18880553317E+02 -0.25339458012E+01  0.22317003071E+02  0.51100000000E-03 0. -1.
        -11    1    4    4    0    0  0.18468006401E+02  0.22549020509E+01  0.20454971063E+02  0.27650636252E+02  0.51100000000E-03 0.  1.
         12    1    4    4    0    0 -0.30529655055E+01 -0.31080518669E+01 -0.61205023196E+00  0.43994534060E+01  0.00000000000E+00 0. -1.
</event>
<event>
 8    1  0.2553474E-006  0.9118800E+02  0.7816164E-02  0.1184000E+00
        -11   -1    0    0    0    0  0.00000000000E+00  0.00000000000E+00  0.45593999997E+02  0.45594000000E+02  0.51100000000E-03 0.  1.
         11   -1    0    0    0    0 -0.00000000000E+00 -0.00000000000E+00 -0.45593999997E+02  0.45594000000E+02  0.51100000000E-03 0. -1.
         23    2    1    2    0    0  0.00000000000E+00  0.71054273576E-14  0.00000000000E+00  0.91188000000E+02  0.91188000000E+02 0.  0.
    9900012    2    3    3    0    0  0.11416201323E+02 -0.32790092967E+02  0.12258063017E+02  0.54367082597E+02  0.39999996397E+02 0.  0.
         12    1    3    3    0    0 -0.11416201323E+02  0.32790092967E+02 -0.12258063017E+02  0.36820917403E+02  0.00000000000E+00 0. -1.
         11    1    4    4    0    0 -0.13202612232E+02 -0.20802060290E+02  0.33937897056E+01  0.24870715528E+02  0.51100000000E-03 0. -1.
        -11    1    4    4    0    0  0.17562659683E+02 -0.56697742570E+01  0.75261592513E+01  0.19930790968E+02  0.51100000000E-03 0.  1.
         12    1    4    4    0    0  0.70561538711E+01 -0.63182584207E+01  0.13381140596E+01  0.95655761018E+01  0.00000000000E+00 0. -1.
</event>
<event>
 8    1  0.2553474E-006  0.9118800E+02  0.7816164E-02  0.1184000E+00
        -11   -1    0    0    0    0  0.00000000000E+00  0.00000000000E+00  0.45593999997E+02  0.45594000000E+02  0.51100000000E-03 0.  1.
         11   -1    0    0    0    0 -0.00000000000E+00 -0.00000000000E+00 -0.45593999997E+02  0.45594000000E+02  0.51100000000E-03 0. -1.
         23    2    1    2    0    0  0.26645352591E-14  0.88817841970E-15  0.00000000000E+00  0.91188000000E+02  0.91188000000E+02 0.  0.
    9900012    2    3    3    0    0  0.47400612895E+01 -0.58008588614E+01  0.36050806582E+02  0.54367098331E+02  0.40000032264E+02 0.  0.
         12    1    3    3    0    0 -0.47400612895E+01  0.58008588614E+01 -0.36050806582E+02  0.36820901669E+02  0.00000000000E+00 0. -1.
         11    1    4    4    0    0 -0.89788863987E+01 -0.47096220139E+01  0.78210850652E+01  0.12805089314E+02  0.51100000000E-03 0. -1.
        -11    1    4    4    0    0  0.19135574612E+02  0.21542729344E+01  0.29395048288E+02  0.35140859006E+02  0.51100000000E-03 0.  1.
        -12    1    4    4    0    0 -0.54166269236E+01 -0.32455097818E+01 -0.11653267712E+01  0.64211500105E+01  0.00000000000E+00 0.  1.
</event>
<event>
 8    1  0.2553474E-006  0.9118800E+02  0.7816164E-02  0.1184000E+00
        -11   -1    0    0    0    0  0.00000000000E+00  0.00000000000E+00  0.45593999997E+02  0.45594000000E+02  0.51100000000E-03 0.  1.
         11   -1    0    0    0    0 -0.00000000000E+00 -0.00000000000E+00 -0.45593999997E+02  0.45594000000E+02  0.51100000000E-03 0. -1.
         23    2    1    2    0    0 -0.35527136788E-14  0.11102230246E-14 -0.71054273576E-14  0.91188000000E+02  0.91188000000E+02 0.  0.
    9900012    2    3    3    0    0  0.12223013472E+02  0.19330343769E+01  0.34679125380E+02  0.54367076365E+02  0.39999982189E+02 0.  0.
         12    1    3    3    0    0 -0.12223013472E+02 -0.19330343769E+01 -0.34679125380E+02  0.36820923635E+02  0.00000000000E+00 0. -1.
         11    1    4    4    0    0 -0.17478488206E+01  0.12333706015E+02 -0.45113563766E+00  0.12465103417E+02  0.51100000000E-03 0. -1.
        -11    1    4    4    0    0 -0.10101863386E+01 -0.42784092937E+01  0.17178940907E+02  0.17732492027E+02  0.51100000000E-03 0.  1.
         12    1    4    4    0    0  0.14981048631E+02 -0.61222623445E+01  0.17951320110E+02  0.24169480921E+02  0.00000000000E+00 0. -1.
</event>
<event>
 8    1  0.2553474E-006  0.9118800E+02  0.7816164E-02  0.1184000E+00
        -11   -1    0    0    0    0  0.00000000000E+00  0.00000000000E+00  0.45593999997E+02  0.45594000000E+02  0.51100000000E-03 0.  1.
         11   -1    0    0    0    0 -0.00000000000E+00 -0.00000000000E+00 -0.45593999997E+02  0.45594000000E+02  0.51100000000E-03 0. -1.
         23    2    1    2    0    0  0.00000000000E+00  0.00000000000E+00 -0.35527136788E-14  0.91188000000E+02  0.91188000000E+02 0.  0.
    9900012    2    3    3    0    0 -0.21390791127E+02  0.21411682337E+02 -0.20970325160E+02  0.54367073574E+02  0.39999975827E+02 0.  0.
        -12    1    3    3    0    0  0.21390791127E+02 -0.21411682337E+02  0.20970325160E+02  0.36820926426E+02  0.00000000000E+00 0.  1.
         11    1    4    4    0    0 -0.14790083620E+02 -0.62023856816E+00 -0.23294283288E+01  0.14985242940E+02  0.51100000000E-03 0. -1.
        -11    1    4    4    0    0 -0.15641747196E+02  0.75568222009E+01 -0.70300088105E+01  0.18740086480E+02  0.51100000000E-03 0.  1.
        -12    1    4    4    0    0  0.90410396886E+01  0.14475098704E+02 -0.11610888020E+02  0.20641744155E+02  0.00000000000E+00 0.  1.
</event>
<event>
 8    1  0.2553474E-006  0.9118800E+02  0.7816164E-02  0.1184000E+00
        -11   -1    0    0    0    0  0.00000000000E+00  0.00000000000E+00  0.45593999997E+02  0.45594000000E+02  0.51100000000E-03 0. -1.
         11   -1    0    0    0    0 -0.00000000000E+00 -0.00000000000E+00 -0.45593999997E+02  0.45594000000E+02  0.51100000000E-03 0.  1.
         23    2    1    2    0    0 -0.22204460493E-15  0.00000000000E+00  0.71054273576E-14  0.91188000000E+02  0.91188000000E+02 0.  0.
    9900012    2    3    3    0    0  0.13011163934E+01 -0.30323212602E+02 -0.20846828276E+02  0.54367076933E+02  0.39999983483E+02 0.  0.
         12    1    3    3    0    0 -0.13011163934E+01  0.30323212602E+02  0.20846828276E+02  0.36820923067E+02  0.00000000000E+00 0. -1.
         11    1    4    4    0    0  0.96677808783E+00 -0.26284767324E+02  0.28811808129E+01  0.26459872568E+02  0.51100000000E-03 0. -1.
        -11    1    4    4    0    0 -0.53885478745E+01 -0.64980317420E+01 -0.14354689659E+02  0.16652867026E+02  0.51100000000E-03 0.  1.
         12    1    4    4    0    0  0.57228861801E+01  0.24595864642E+01 -0.93733194301E+01  0.11254337339E+02  0.00000000000E+00 0. -1.
</event>
<event>
 8    1  0.2553474E-006  0.9118800E+02  0.7816164E-02  0.1184000E+00
        -11   -1    0    0    0    0  0.00000000000E+00  0.00000000000E+00  0.45593999997E+02  0.45594000000E+02  0.51100000000E-03 0. -1.
         11   -1    0    0    0    0 -0.00000000000E+00 -0.00000000000E+00 -0.45593999997E+02  0.45594000000E+02  0.51100000000E-03 0.  1.
         23    2    1    2    0    0 -0.35527136788E-14  0.00000000000E+00  0.35527136788E-14  0.91188000000E+02  0.91188000000E+02 0.  0.
    9900012    2    3    3    0    0  0.29829973223E+02 -0.19242923631E+02  0.97807341538E+01  0.54367079684E+02  0.39999989755E+02 0.  0.
        -12    1    3    3    0    0 -0.29829973223E+02  0.19242923631E+02 -0.97807341538E+01  0.36820920316E+02  0.00000000000E+00 0.  1.
         11    1    4    4    0    0  0.26286454254E+02 -0.14332700564E+02 -0.60700828992E+01  0.30549138931E+02  0.51100000000E-03 0. -1.
        -11    1    4    4    0    0 -0.21610340808E+01  0.16153410144E+01 -0.24016223400E+01  0.36120887332E+01  0.51100000000E-03 0.  1.
         12    1    4    4    0    0  0.57045530490E+01 -0.65255640813E+01  0.18252439393E+02  0.20205852020E+02  0.00000000000E+00 0. -1.
</event>
<event>
 8    1  0.2553474E-006  0.9118800E+02  0.7816164E-02  0.1184000E+00
        -11   -1    0    0    0    0  0.00000000000E+00  0.00000000000E+00  0.45593999997E+02  0.45594000000E+02  0.51100000000E-03 0.  1.
         11   -1    0    0    0    0 -0.00000000000E+00 -0.00000000000E+00 -0.45593999997E+02  0.45594000000E+02  0.51100000000E-03 0. -1.
         23    2    1    2    0    0  0.00000000000E+00  0.00000000000E+00  0.00000000000E+00  0.91188000000E+02  0.91188000000E+02 0.  0.
    9900012    2    3    3    0    0  0.22826549584E+02 -0.23632437880E+02  0.16620111121E+02  0.54367196373E+02  0.40000255771E+02 0.  0.
        -12    1    3    3    0    0 -0.22826549584E+02  0.23632437880E+02 -0.16620111121E+02  0.36820803627E+02  0.00000000000E+00 0.  1.
         11    1    4    4    0    0  0.18921678081E+02 -0.17981822394E+02  0.67558152524E+01  0.26963250509E+02  0.51100000000E-03 0. -1.
        -11    1    4    4    0    0 -0.52378045293E+01 -0.12716449898E+02  0.72909653924E+01  0.15566016539E+02  0.51100000000E-03 0.  1.
        -12    1    4    4    0    0  0.91426760325E+01  0.70658344115E+01  0.25733304761E+01  0.11837929325E+02  0.00000000000E+00 0.  1.
</event>
<event>
 8    1  0.2553474E-006  0.9118800E+02  0.7816164E-02  0.1184000E+00
        -11   -1    0    0    0    0  0.00000000000E+00  0.00000000000E+00  0.45593999997E+02  0.45594000000E+02  0.51100000000E-03 0.  1.
         11   -1    0    0    0    0 -0.00000000000E+00 -0.00000000000E+00 -0.45593999997E+02  0.45594000000E+02  0.51100000000E-03 0. -1.
         23    2    1    2    0    0  0.44408920985E-15  0.35527136788E-14  0.00000000000E+00  0.91188000000E+02  0.91188000000E+02 0.  0.
    9900012    2    3    3    0    0  0.33616805330E+01  0.22649220963E+02  0.28835612931E+02  0.54367072807E+02  0.39999974079E+02 0.  0.
         12    1    3    3    0    0 -0.33616805330E+01 -0.22649220963E+02 -0.28835612931E+02  0.36820927193E+02  0.00000000000E+00 0. -1.
         11    1    4    4    0    0  0.43527000568E+01  0.16687544314E+02  0.73610399659E+01  0.18751134437E+02  0.51100000000E-03 0. -1.
        -11    1    4    4    0    0 -0.91892593310E+01  0.71942402495E+01  0.24218116125E+02  0.26883391317E+02  0.51100000000E-03 0.  1.
         12    1    4    4    0    0  0.81982398072E+01 -0.12325636007E+01 -0.27435431600E+01  0.87325470533E+01  0.00000000000E+00 0. -1.
</event>
<event>
 8    1  0.2553474E-006  0.9118800E+02  0.7816164E-02  0.1184000E+00
        -11   -1    0    0    0    0  0.00000000000E+00  0.00000000000E+00  0.45593999997E+02  0.45594000000E+02  0.51100000000E-03 0.  1.
         11   -1    0    0    0    0 -0.00000000000E+00 -0.00000000000E+00 -0.45593999997E+02  0.45594000000E+02  0.51100000000E-03 0. -1.
         23    2    1    2    0    0  0.00000000000E+00  0.35527136788E-14  0.00000000000E+00  0.91188000000E+02  0.91188000000E+02 0.  0.
    9900012    2    3    3    0    0 -0.17261792039E+02  0.31320336446E+02 -0.87662195601E+01  0.54367088212E+02  0.40000009197E+02 0.  0.
         12    1    3    3    0    0  0.17261792039E+02 -0.31320336446E+02  0.87662195601E+01  0.36820911788E+02  0.00000000000E+00 0. -1.
         11    1    4    4    0    0  0.76694142501E+01  0.10238328815E+02 -0.13306793254E+02  0.18458440856E+02  0.51100000000E-03 0. -1.
        -11    1    4    4    0    0 -0.25300525392E+02  0.22475374904E+02  0.53398980394E+01  0.34260379063E+02  0.51100000000E-03 0.  1.
         12    1    4    4    0    0  0.36931910286E+00 -0.13933672729E+01 -0.79932434552E+00  0.16482682931E+01  0.00000000000E+00 0. -1.
</event>
<event>
 8    1  0.2553474E-006  0.9118800E+02  0.7816164E-02  0.1184000E+00
        -11   -1    0    0    0    0  0.00000000000E+00  0.00000000000E+00  0.45593999997E+02  0.45594000000E+02  0.51100000000E-03 0.  1.
         11   -1    0    0    0    0 -0.00000000000E+00 -0.00000000000E+00 -0.45593999997E+02  0.45594000000E+02  0.51100000000E-03 0. -1.
         23    2    1    2    0    0 -0.47184478547E-15  0.88817841970E-15 -0.71054273576E-14  0.91188000000E+02  0.91188000000E+02 0.  0.
    9900012    2    3    3    0    0  0.93157918646E-01  0.67683907316E+01  0.36193401792E+02  0.54367053180E+02  0.39999929334E+02 0.  0.
         12    1    3    3    0    0 -0.93157918646E-01 -0.67683907316E+01 -0.36193401792E+02  0.36820946820E+02  0.00000000000E+00 0. -1.
         11    1    4    4    0    0 -0.33288167457E+01 -0.54285320838E+00 -0.72621408354E+01  0.80071468268E+01  0.51100000000E-03 0. -1.
        -11    1    4    4    0    0  0.62376945125E+01  0.57080988696E+01  0.11677916373E+02  0.14417522555E+02  0.51100000000E-03 0.  1.
         12    1    4    4    0    0 -0.28157198482E+01  0.16031450704E+01  0.31777626254E+02  0.31942383798E+02  0.00000000000E+00 0. -1.
</event>
<event>
 8    1  0.2553474E-006  0.9118800E+02  0.7816164E-02  0.1184000E+00
        -11   -1    0    0    0    0  0.00000000000E+00  0.00000000000E+00  0.45593999997E+02  0.45594000000E+02  0.51100000000E-03 0. -1.
         11   -1    0    0    0    0 -0.00000000000E+00 -0.00000000000E+00 -0.45593999997E+02  0.45594000000E+02  0.51100000000E-03 0.  1.
         23    2    1    2    0    0  0.00000000000E+00  0.00000000000E+00  0.00000000000E+00  0.91188000000E+02  0.91188000000E+02 0.  0.
    9900012    2    3    3    0    0  0.18682751678E+02 -0.85357712967E+01 -0.30559351195E+02  0.54367101758E+02  0.40000040078E+02 0.  0.
         12    1    3    3    0    0 -0.18682751678E+02  0.85357712967E+01  0.30559351195E+02  0.36820898242E+02  0.00000000000E+00 0. -1.
         11    1    4    4    0    0  0.54701158223E+01  0.98645395293E+01 -0.37910192196E+01  0.11899711518E+02  0.51100000000E-03 0. -1.
        -11    1    4    4    0    0 -0.70245777793E+01 -0.56702090802E+01 -0.65012210951E+01  0.11124829885E+02  0.51100000000E-03 0.  1.
        -12    1    4    4    0    0  0.20237213635E+02 -0.12730101746E+02 -0.20267110880E+02  0.31342560355E+02  0.00000000000E+00 0.  1.
</event>
<event>
 8    1  0.2553474E-006  0.9118800E+02  0.7816164E-02  0.1184000E+00
        -11   -1    0    0    0    0  0.00000000000E+00  0.00000000000E+00  0.45593999997E+02  0.45594000000E+02  0.51100000000E-03 0.  1.
         11   -1    0    0    0    0 -0.00000000000E+00 -0.00000000000E+00 -0.45593999997E+02  0.45594000000E+02  0.51100000000E-03 0. -1.
         23    2    1    2    0    0  0.00000000000E+00 -0.44408920985E-15  0.35527136788E-14  0.91188000000E+02  0.91188000000E+02 0.  0.
    9900012    2    3    3    0    0  0.29578056223E+02 -0.23820576713E+01 -0.21800109261E+02  0.54367076974E+02  0.39999983577E+02 0.  0.
         12    1    3    3    0    0 -0.29578056223E+02  0.23820576713E+01  0.21800109261E+02  0.36820923026E+02  0.00000000000E+00 0. -1.
         11    1    4    4    0    0  0.27123978474E+01 -0.67045344497E+01  0.68731110531E+01  0.99773513559E+01  0.51100000000E-03 0.  1.
        -11    1    4    4    0    0  0.13261182492E+02 -0.42583586438E-01 -0.26901720548E+02  0.29992721503E+02  0.51100000000E-03 0. -1.
        -12    1    4    4    0    0  0.13604475884E+02  0.43650603648E+01 -0.17714997660E+01  0.14397004115E+02  0.00000000000E+00 0.  1.
</event>
<event>
 8    1  0.2553474E-006  0.9118800E+02  0.7816164E-02  0.1184000E+00
        -11   -1    0    0    0    0  0.00000000000E+00  0.00000000000E+00  0.45593999997E+02  0.45594000000E+02  0.51100000000E-03 0.  1.
         11   -1    0    0    0    0 -0.00000000000E+00 -0.00000000000E+00 -0.45593999997E+02  0.45594000000E+02  0.51100000000E-03 0. -1.
         23    2    1    2    0    0  0.00000000000E+00 -0.88817841970E-15 -0.44408920985E-15  0.91188000000E+02  0.91188000000E+02 0.  0.
    9900012    2    3    3    0    0  0.36035265746E+02  0.70150433915E+01  0.28330945171E+01  0.54367114137E+02  0.40000068298E+02 0.  0.
        -12    1    3    3    0    0 -0.36035265746E+02 -0.70150433915E+01 -0.28330945171E+01  0.36820885863E+02  0.00000000000E+00 0.  1.
         11    1    4    4    0    0  0.31831029081E+02 -0.23061757225E+01  0.15776182273E+01  0.31953430776E+02  0.51100000000E-03 0. -1.
        -11    1    4    4    0    0  0.44651949943E+00 -0.60628849542E+01 -0.16808133541E+01  0.63073835640E+01  0.51100000000E-03 0.  1.
         12    1    4    4    0    0  0.37577171654E+01  0.15384104068E+02  0.29362896439E+01  0.16106299797E+02  0.00000000000E+00 0. -1.
</event>
<event>
 8    1  0.2723224E-006  0.9118800E+02  0.7816164E-02  0.1184000E+00
        -11   -1    0    0    0    0  0.00000000000E+00  0.00000000000E+00  0.45593999997E+02  0.45594000000E+02  0.51100000000E-03 0.  1.
         11   -1    0    0    0    0 -0.00000000000E+00 -0.00000000000E+00 -0.45593999997E+02  0.45594000000E+02  0.51100000000E-03 0. -1.
         23    2    1    2    0    0  0.00000000000E+00 -0.35527136788E-14  0.17763568394E-14  0.91188000000E+02  0.91188000000E+02 0.  0.
    9900012    2    3    3    0    0 -0.16707123977E+02 -0.30069451700E+02  0.13133176274E+02  0.54367078825E+02  0.39999987797E+02 0.  0.
         12    1    3    3    0    0  0.16707123977E+02  0.30069451700E+02 -0.13133176274E+02  0.36820921175E+02  0.00000000000E+00 0. -1.
         11    1    4    4    0    0 -0.37275246515E+01 -0.15154443060E+02  0.81049658595E+00  0.15627171512E+02  0.51100000000E-03 0. -1.
        -11    1    4    4    0    0 -0.15282863552E+02 -0.23389685959E+02  0.96663583444E+01  0.29564874624E+02  0.51100000000E-03 0.  1.
         12    1    4    4    0    0  0.23032642257E+01  0.84746773195E+01  0.26563213433E+01  0.91750326889E+01  0.00000000000E+00 0. -1.
</event>
<event>
 8    1  0.2553474E-006  0.9118800E+02  0.7816164E-02  0.1184000E+00
        -11   -1    0    0    0    0  0.00000000000E+00  0.00000000000E+00  0.45593999997E+02  0.45594000000E+02  0.51100000000E-03 0.  1.
         11   -1    0    0    0    0 -0.00000000000E+00 -0.00000000000E+00 -0.45593999997E+02  0.45594000000E+02  0.51100000000E-03 0. -1.
         23    2    1    2    0    0  0.00000000000E+00 -0.17763568394E-14 -0.35527136788E-14  0.91188000000E+02  0.91188000000E+02 0.  0.
    9900012    2    3    3    0    0 -0.18000465090E+02 -0.11407519458E+02 -0.30027163952E+02  0.54367098073E+02  0.40000031678E+02 0.  0.
        -12    1    3    3    0    0  0.18000465090E+02  0.11407519458E+02  0.30027163952E+02  0.36820901927E+02  0.00000000000E+00 0.  1.
         11    1    4    4    0    0 -0.28252534825E+01  0.26322098330E+01 -0.31467348416E+02  0.31703384716E+02  0.51100000000E-03 0. -1.
        -11    1    4    4    0    0 -0.13688881406E+02 -0.13176730036E+02 -0.17080088871E+01  0.19076922792E+02  0.51100000000E-03 0.  1.
         12    1    4    4    0    0 -0.14863302017E+01 -0.86299925551E+00  0.31481933511E+01  0.35867905654E+01  0.00000000000E+00 0. -1.
</event>
<event>
 8    1  0.2553474E-006  0.9118800E+02  0.7816164E-02  0.1184000E+00
        -11   -1    0    0    0    0  0.00000000000E+00  0.00000000000E+00  0.45593999997E+02  0.45594000000E+02  0.51100000000E-03 0.  1.
         11   -1    0    0    0    0 -0.00000000000E+00 -0.00000000000E+00 -0.45593999997E+02  0.45594000000E+02  0.51100000000E-03 0. -1.
         23    2    1    2    0    0  0.00000000000E+00  0.00000000000E+00  0.00000000000E+00  0.91188000000E+02  0.91188000000E+02 0.  0.
    9900012    2    3    3    0    0  0.48435764506E+01  0.17146467058E+02  0.32222974380E+02  0.54367059717E+02  0.39999944237E+02 0.  0.
         12    1    3    3    0    0 -0.48435764506E+01 -0.17146467058E+02 -0.32222974380E+02  0.36820940283E+02  0.00000000000E+00 0. -1.
         11    1    4    4    0    0 -0.45948364887E+00 -0.77446079347E+01  0.56358025937E+01  0.95891787147E+01  0.51100000000E-03 0. -1.
        -11    1    4    4    0    0  0.13782720619E+01  0.47811989327E+01  0.23543710347E+02  0.24063785951E+02  0.51100000000E-03 0.  1.
        -12    1    4    4    0    0  0.39247880375E+01  0.20109876060E+02  0.30434614395E+01  0.20714095052E+02  0.00000000000E+00 0.  1.
</event>
<event>
 8    1  0.2553474E-006  0.9118800E+02  0.7816164E-02  0.1184000E+00
        -11   -1    0    0    0    0  0.00000000000E+00  0.00000000000E+00  0.45593999997E+02  0.45594000000E+02  0.51100000000E-03 0. -1.
         11   -1    0    0    0    0 -0.00000000000E+00 -0.00000000000E+00 -0.45593999997E+02  0.45594000000E+02  0.51100000000E-03 0.  1.
         23    2    1    2    0    0 -0.88817841970E-15  0.00000000000E+00  0.00000000000E+00  0.91188000000E+02  0.91188000000E+02 0.  0.
    9900012    2    3    3    0    0  0.32622925884E+01 -0.36127356330E+02 -0.63211050724E+01  0.54367016884E+02  0.39999846590E+02 0.  0.
         12    1    3    3    0    0 -0.32622925884E+01  0.36127356330E+02  0.63211050724E+01  0.36820983116E+02  0.00000000000E+00 0. -1.
         11    1    4    4    0    0  0.69501146454E+01 -0.14546052817E+02  0.13302958644E+02  0.20901207025E+02  0.51100000000E-03 0.  1.
        -11    1    4    4    0    0  0.98235688658E+00 -0.10498781528E+02 -0.18618950403E+02  0.21397540816E+02  0.51100000000E-03 0. -1.
         12    1    4    4    0    0 -0.46701789436E+01 -0.11082521985E+02 -0.10051133135E+01  0.12068269043E+02  0.00000000000E+00 0. -1.
</event>
<event>
 8    1  0.2553474E-006  0.9118800E+02  0.7816164E-02  0.1184000E+00
        -11   -1    0    0    0    0  0.00000000000E+00  0.00000000000E+00  0.45593999997E+02  0.45594000000E+02  0.51100000000E-03 0.  1.
         11   -1    0    0    0    0 -0.00000000000E+00 -0.00000000000E+00 -0.45593999997E+02  0.45594000000E+02  0.51100000000E-03 0. -1.
         23    2    1    2    0    0  0.35527136788E-14  0.13322676296E-14  0.00000000000E+00  0.91188000000E+02  0.91188000000E+02 0.  0.
    9900012    2    3    3    0    0  0.17151836436E+02  0.18784230333E+01  0.32527948602E+02  0.54367062933E+02  0.39999951569E+02 0.  0.
         12    1    3    3    0    0 -0.17151836436E+02 -0.18784230333E+01 -0.32527948602E+02  0.36820937067E+02  0.00000000000E+00 0. -1.
         11    1    4    4    0    0 -0.78465401746E+01  0.12177197894E+02  0.66673638796E+01  0.15946977225E+02  0.51100000000E-03 0. -1.
        -11    1    4    4    0    0  0.65780940625E+01 -0.62858235635E+00  0.11076109462E+02  0.12897543888E+02  0.51100000000E-03 0.  1.
         12    1    4    4    0    0  0.18420282548E+02 -0.96701925044E+01  0.14784475261E+02  0.25522541820E+02  0.00000000000E+00 0. -1.
</event>
<event>
 8    1  0.2553474E-006  0.9118800E+02  0.7816164E-02  0.1184000E+00
        -11   -1    0    0    0    0  0.00000000000E+00  0.00000000000E+00  0.45593999997E+02  0.45594000000E+02  0.51100000000E-03 0. -1.
         11   -1    0    0    0    0 -0.00000000000E+00 -0.00000000000E+00 -0.45593999997E+02  0.45594000000E+02  0.51100000000E-03 0.  1.
         23    2    1    2    0    0  0.35527136788E-14 -0.88817841970E-15  0.00000000000E+00  0.91188000000E+02  0.91188000000E+02 0.  0.
    9900012    2    3    3    0    0  0.21423970250E+02  0.59072405523E+01 -0.29358106397E+02  0.54367076553E+02  0.39999982619E+02 0.  0.
         12    1    3    3    0    0 -0.21423970250E+02 -0.59072405523E+01  0.29358106397E+02  0.36820923447E+02  0.00000000000E+00 0. -1.
         11    1    4    4    0    0  0.17674519475E+02  0.14495806751E+02 -0.39175666138E+01  0.23191903339E+02  0.51100000000E-03 0. -1.
        -11    1    4    4    0    0  0.32420939542E+01 -0.10867690286E+02 -0.26336283408E+02  0.28674338516E+02  0.51100000000E-03 0.  1.
        -12    1    4    4    0    0  0.50735682129E+00  0.22791240869E+01  0.89574362442E+00  0.25008346983E+01  0.00000000000E+00 0.  1.
</event>
<event>
 8    1  0.2553474E-006  0.9118800E+02  0.7816164E-02  0.1184000E+00
        -11   -1    0    0    0    0  0.00000000000E+00  0.00000000000E+00  0.45593999997E+02  0.45594000000E+02  0.51100000000E-03 0.  1.
         11   -1    0    0    0    0 -0.00000000000E+00 -0.00000000000E+00 -0.45593999997E+02  0.45594000000E+02  0.51100000000E-03 0. -1.
         23    2    1    2    0    0  0.00000000000E+00  0.00000000000E+00  0.17763568394E-14  0.91188000000E+02  0.91188000000E+02 0.  0.
    9900012    2    3    3    0    0 -0.19423385586E+02  0.29400883757E+02 -0.10681821428E+02  0.54367065977E+02  0.39999958507E+02 0.  0.
         12    1    3    3    0    0  0.19423385586E+02 -0.29400883757E+02  0.10681821428E+02  0.36820934023E+02  0.00000000000E+00 0. -1.
         11    1    4    4    0    0 -0.88216919595E+01  0.23416880751E+02 -0.16702010636E+02  0.30085373733E+02  0.51100000000E-03 0. -1.
        -11    1    4    4    0    0 -0.21765063071E+01  0.88808717607E+01 -0.47502075312E+01  0.10303957239E+02  0.51100000000E-03 0.  1.
         12    1    4    4    0    0 -0.84251873193E+01 -0.28968687543E+01  0.10770396739E+02  0.13977735005E+02  0.00000000000E+00 0. -1.
</event>
<event>
 8    1  0.2553474E-006  0.9118800E+02  0.7816164E-02  0.1184000E+00
        -11   -1    0    0    0    0  0.00000000000E+00  0.00000000000E+00  0.45593999997E+02  0.45594000000E+02  0.51100000000E-03 0.  1.
         11   -1    0    0    0    0 -0.00000000000E+00 -0.00000000000E+00 -0.45593999997E+02  0.45594000000E+02  0.51100000000E-03 0. -1.
         23    2    1    2    0    0  0.00000000000E+00  0.35527136788E-14  0.17763568394E-14  0.91188000000E+02  0.91188000000E+02 0.  0.
    9900012    2    3    3    0    0 -0.27435322144E+02  0.23465987054E+02  0.72409074357E+01  0.54367079451E+02  0.39999989225E+02 0.  0.
        -12    1    3    3    0    0  0.27435322144E+02 -0.23465987054E+02 -0.72409074357E+01  0.36820920549E+02  0.00000000000E+00 0.  1.
         11    1    4    4    0    0 -0.72167188125E+01 -0.40289405006E+00 -0.55695396988E+00  0.72493828717E+01  0.51100000000E-03 0. -1.
        -11    1    4    4    0    0  0.82491291824E+01  0.10180037795E+02 -0.35134718249E+01  0.13565610428E+02  0.51100000000E-03 0.  1.
         12    1    4    4    0    0 -0.28467732514E+02  0.13688843309E+02  0.11311333231E+02  0.33552086151E+02  0.00000000000E+00 0. -1.
</event>
<event>
 8    1  0.2553474E-006  0.9118800E+02  0.7816164E-02  0.1184000E+00
        -11   -1    0    0    0    0  0.00000000000E+00  0.00000000000E+00  0.45593999997E+02  0.45594000000E+02  0.51100000000E-03 0. -1.
         11   -1    0    0    0    0 -0.00000000000E+00 -0.00000000000E+00 -0.45593999997E+02  0.45594000000E+02  0.51100000000E-03 0.  1.
         23    2    1    2    0    0  0.00000000000E+00  0.35527136788E-14 -0.35527136788E-14  0.91188000000E+02  0.91188000000E+02 0.  0.
    9900012    2    3    3    0    0  0.28314152848E+02 -0.16971171253E+02  0.16311542377E+02  0.54367104846E+02  0.40000047118E+02 0.  0.
        -12    1    3    3    0    0 -0.28314152848E+02  0.16971171253E+02 -0.16311542377E+02  0.36820895154E+02  0.00000000000E+00 0.  1.
         11    1    4    4    0    0  0.10769001524E+02  0.33531882447E+00 -0.83450363584E+01  0.13628039647E+02  0.51100000000E-03 0. -1.
        -11    1    4    4    0    0  0.97721445897E+01 -0.15476880351E+02  0.42004845280E+01  0.18779582152E+02  0.51100000000E-03 0.  1.
         12    1    4    4    0    0  0.77730067338E+01 -0.18296097269E+01  0.20456094208E+02  0.21959483046E+02  0.00000000000E+00 0. -1.
</event>
<event>
 8    1  0.2553474E-006  0.9118800E+02  0.7816164E-02  0.1184000E+00
        -11   -1    0    0    0    0  0.00000000000E+00  0.00000000000E+00  0.45593999997E+02  0.45594000000E+02  0.51100000000E-03 0. -1.
         11   -1    0    0    0    0 -0.00000000000E+00 -0.00000000000E+00 -0.45593999997E+02  0.45594000000E+02  0.51100000000E-03 0.  1.
         23    2    1    2    0    0  0.00000000000E+00  0.44408920985E-15  0.00000000000E+00  0.91188000000E+02  0.91188000000E+02 0.  0.
    9900012    2    3    3    0    0 -0.82001449909E+01 -0.68922344169E+00  0.35889593568E+02  0.54367077506E+02  0.39999984790E+02 0.  0.
        -12    1    3    3    0    0  0.82001449909E+01  0.68922344169E+00 -0.35889593568E+02  0.36820922494E+02  0.00000000000E+00 0.  1.
         11    1    4    4    0    0  0.10918047475E+01 -0.16409789311E+01 -0.16712897651E+01  0.25841941102E+01  0.51100000000E-03 0.  1.
        -11    1    4    4    0    0 -0.18594057307E+02  0.62954611034E+01  0.96361219846E+01  0.21868393741E+02  0.51100000000E-03 0. -1.
         12    1    4    4    0    0  0.93021075689E+01 -0.53437056140E+01  0.27924761349E+02  0.29914489655E+02  0.00000000000E+00 0. -1.
</event>
<event>
 8    1  0.2553474E-006  0.9118800E+02  0.7816164E-02  0.1184000E+00
        -11   -1    0    0    0    0  0.00000000000E+00  0.00000000000E+00  0.45593999997E+02  0.45594000000E+02  0.51100000000E-03 0. -1.
         11   -1    0    0    0    0 -0.00000000000E+00 -0.00000000000E+00 -0.45593999997E+02  0.45594000000E+02  0.51100000000E-03 0.  1.
         23    2    1    2    0    0  0.00000000000E+00  0.00000000000E+00 -0.88817841970E-15  0.91188000000E+02  0.91188000000E+02 0.  0.
    9900012    2    3    3    0    0  0.32104344597E+02 -0.17487792222E+02  0.43895011036E+01  0.54367088295E+02  0.40000009387E+02 0.  0.
        -12    1    3    3    0    0 -0.32104344597E+02  0.17487792222E+02 -0.43895011036E+01  0.36820911705E+02  0.00000000000E+00 0.  1.
         11    1    4    4    0    0  0.33188758268E+02 -0.47164987446E+01  0.23453081900E+01  0.33604159066E+02  0.51100000000E-03 0. -1.
        -11    1    4    4    0    0 -0.47456125805E+01 -0.66116206064E+01 -0.59093447473E+01  0.10057570353E+02  0.51100000000E-03 0.  1.
         12    1    4    4    0    0  0.36611989099E+01 -0.61596728714E+01  0.79535376608E+01  0.10705358876E+02  0.00000000000E+00 0. -1.
</event>
<event>
 8    1  0.2553474E-006  0.9118800E+02  0.7816164E-02  0.1184000E+00
        -11   -1    0    0    0    0  0.00000000000E+00  0.00000000000E+00  0.45593999997E+02  0.45594000000E+02  0.51100000000E-03 0.  1.
         11   -1    0    0    0    0 -0.00000000000E+00 -0.00000000000E+00 -0.45593999997E+02  0.45594000000E+02  0.51100000000E-03 0. -1.
         23    2    1    2    0    0 -0.71054273576E-14  0.16653345369E-15 -0.17763568394E-14  0.91188000000E+02  0.91188000000E+02 0.  0.
    9900012    2    3    3    0    0 -0.33499043233E+02 -0.43326515416E+00 -0.15277622237E+02  0.54367090758E+02  0.40000015000E+02 0.  0.
         12    1    3    3    0    0  0.33499043233E+02  0.43326515416E+00  0.15277622237E+02  0.36820909242E+02  0.00000000000E+00 0. -1.
         11    1    4    4    0    0 -0.13321962002E+02 -0.78373654917E+01 -0.86659128873E+01  0.17719960944E+02  0.51100000000E-03 0. -1.
        -11    1    4    4    0    0 -0.60110547448E+01 -0.16870293342E+01  0.10771462780E+02  0.12450030434E+02  0.51100000000E-03 0.  1.
        -12    1    4    4    0    0 -0.14166026486E+02  0.90911296717E+01 -0.17383172129E+02  0.24197099380E+02  0.00000000000E+00 0.  1.
</event>
<event>
 8    1  0.2553474E-006  0.9118800E+02  0.7816164E-02  0.1184000E+00
        -11   -1    0    0    0    0  0.00000000000E+00  0.00000000000E+00  0.45593999997E+02  0.45594000000E+02  0.51100000000E-03 0. -1.
         11   -1    0    0    0    0 -0.00000000000E+00 -0.00000000000E+00 -0.45593999997E+02  0.45594000000E+02  0.51100000000E-03 0.  1.
         23    2    1    2    0    0 -0.88817841970E-15  0.00000000000E+00 -0.35527136788E-14  0.91188000000E+02  0.91188000000E+02 0.  0.
    9900012    2    3    3    0    0 -0.79333366401E+00 -0.24849283078E+02  0.27159953957E+02  0.54367090902E+02  0.40000015330E+02 0.  0.
        -12    1    3    3    0    0  0.79333366401E+00  0.24849283078E+02 -0.27159953957E+02  0.36820909098E+02  0.00000000000E+00 0.  1.
         11    1    4    4    0    0 -0.87465668172E+01 -0.21785813210E+02  0.16986451868E+02  0.28976950074E+02  0.51100000000E-03 0. -1.
        -11    1    4    4    0    0  0.56664626806E+00  0.88482244128E+01  0.17493817274E+01  0.90372838808E+01  0.51100000000E-03 0.  1.
         12    1    4    4    0    0  0.73865868851E+01 -0.11911694282E+02  0.84241203619E+01  0.16352856947E+02  0.00000000000E+00 0. -1.
</event>
<event>
 8    1  0.2553474E-006  0.9118800E+02  0.7816164E-02  0.1184000E+00
        -11   -1    0    0    0    0  0.00000000000E+00  0.00000000000E+00  0.45593999997E+02  0.45594000000E+02  0.51100000000E-03 0.  1.
         11   -1    0    0    0    0 -0.00000000000E+00 -0.00000000000E+00 -0.45593999997E+02  0.45594000000E+02  0.51100000000E-03 0. -1.
         23    2    1    2    0    0  0.00000000000E+00  0.00000000000E+00  0.00000000000E+00  0.91188000000E+02  0.91188000000E+02 0.  0.
    9900012    2    3    3    0    0 -0.60490236556E+01  0.90955794008E+01  0.35163330069E+02  0.54367081579E+02  0.39999994076E+02 0.  0.
         12    1    3    3    0    0  0.60490236556E+01 -0.90955794008E+01 -0.35163330069E+02  0.36820918421E+02  0.00000000000E+00 0. -1.
         11    1    4    4    0    0  0.30865584740E+01  0.11674951060E+01  0.31451415445E+02  0.31624063967E+02  0.51100000000E-03 0. -1.
        -11    1    4    4    0    0  0.14303074515E+01  0.14495393908E+01  0.90296535184E+01  0.92564348847E+01  0.51100000000E-03 0.  1.
         12    1    4    4    0    0 -0.10565889581E+02  0.64785449041E+01 -0.53177388948E+01  0.13486582728E+02  0.00000000000E+00 0. -1.
</event>
<event>
 8    1  0.2553474E-006  0.9118800E+02  0.7816164E-02  0.1184000E+00
        -11   -1    0    0    0    0  0.00000000000E+00  0.00000000000E+00  0.45593999997E+02  0.45594000000E+02  0.51100000000E-03 0.  1.
         11   -1    0    0    0    0 -0.00000000000E+00 -0.00000000000E+00 -0.45593999997E+02  0.45594000000E+02  0.51100000000E-03 0. -1.
         23    2    1    2    0    0 -0.71054273576E-14  0.11102230246E-14  0.00000000000E+00  0.91188000000E+02  0.91188000000E+02 0.  0.
    9900012    2    3    3    0    0  0.34650222372E+02 -0.10204815334E+01 -0.12413810548E+02  0.54367055073E+02  0.39999933650E+02 0.  0.
        -12    1    3    3    0    0 -0.34650222372E+02  0.10204815334E+01  0.12413810548E+02  0.36820944927E+02  0.00000000000E+00 0.  1.
         11    1    4    4    0    0  0.19225186134E+02 -0.97843095531E+01 -0.20321979454E+02  0.29636520452E+02  0.51100000000E-03 0. -1.
        -11    1    4    4    0    0 -0.12881993797E+01 -0.27296328914E+01  0.17765387825E+00  0.30235599093E+01  0.51100000000E-03 0.  1.
        -12    1    4    4    0    0  0.16713235618E+02  0.11493460911E+02  0.77305150275E+01  0.21706974712E+02  0.00000000000E+00 0.  1.
</event>
<event>
 8    1  0.2553474E-006  0.9118800E+02  0.7816164E-02  0.1184000E+00
        -11   -1    0    0    0    0  0.00000000000E+00  0.00000000000E+00  0.45593999997E+02  0.45594000000E+02  0.51100000000E-03 0.  1.
         11   -1    0    0    0    0 -0.00000000000E+00 -0.00000000000E+00 -0.45593999997E+02  0.45594000000E+02  0.51100000000E-03 0. -1.
         23    2    1    2    0    0  0.44408920985E-15  0.00000000000E+00  0.00000000000E+00  0.91188000000E+02  0.91188000000E+02 0.  0.
    9900012    2    3    3    0    0  0.72734755606E+00  0.32247359408E+02 -0.17758371942E+02  0.54367068490E+02  0.39999964236E+02 0.  0.
         12    1    3    3    0    0 -0.72734755606E+00 -0.32247359408E+02  0.17758371942E+02  0.36820931510E+02  0.00000000000E+00 0. -1.
         11    1    4    4    0    0  0.25077590978E+01  0.33220251140E+02 -0.12244585954E+02  0.35493715316E+02  0.51100000000E-03 0. -1.
        -11    1    4    4    0    0  0.10300266390E+01  0.37717925251E+01  0.53874129474E+01  0.66566952955E+01  0.51100000000E-03 0.  1.
         12    1    4    4    0    0 -0.28104381808E+01 -0.47446842573E+01 -0.10901198936E+02  0.12216657878E+02  0.00000000000E+00 0. -1.
</event>
<event>
 8    1  0.2553474E-006  0.9118800E+02  0.7816164E-02  0.1184000E+00
        -11   -1    0    0    0    0  0.00000000000E+00  0.00000000000E+00  0.45593999997E+02  0.45594000000E+02  0.51100000000E-03 0.  1.
         11   -1    0    0    0    0 -0.00000000000E+00 -0.00000000000E+00 -0.45593999997E+02  0.45594000000E+02  0.51100000000E-03 0. -1.
         23    2    1    2    0    0  0.35527136788E-14 -0.35527136788E-14 -0.44408920985E-15  0.91188000000E+02  0.91188000000E+02 0.  0.
    9900012    2    3    3    0    0  0.30784283467E+02 -0.20016013592E+02  0.27324854662E+01  0.54367090376E+02  0.40000014131E+02 0.  0.
        -12    1    3    3    0    0 -0.30784283467E+02  0.20016013592E+02 -0.27324854662E+01  0.36820909624E+02  0.00000000000E+00 0.  1.
         11    1    4    4    0    0 -0.22415496002E+01  0.18029449663E+01 -0.41845299754E+01  0.50779372325E+01  0.51100000000E-03 0. -1.
        -11    1    4    4    0    0  0.27306702211E+02 -0.73099902254E+01  0.14697313441E+02  0.31860680554E+02  0.51100000000E-03 0.  1.
        -12    1    4    4    0    0  0.57191308560E+01 -0.14508968333E+02 -0.77802979994E+01  0.17428472589E+02  0.00000000000E+00 0.  1.
</event>
<event>
 8    1  0.2553474E-006  0.9118800E+02  0.7816164E-02  0.1184000E+00
        -11   -1    0    0    0    0  0.00000000000E+00  0.00000000000E+00  0.45593999997E+02  0.45594000000E+02  0.51100000000E-03 0. -1.
         11   -1    0    0    0    0 -0.00000000000E+00 -0.00000000000E+00 -0.45593999997E+02  0.45594000000E+02  0.51100000000E-03 0.  1.
         23    2    1    2    0    0  0.35527136788E-14  0.00000000000E+00  0.71054273576E-14  0.91188000000E+02  0.91188000000E+02 0.  0.
    9900012    2    3    3    0    0 -0.16267351153E+02  0.13304774681E+02 -0.30234474660E+02  0.54367255835E+02  0.40000391325E+02 0.  0.
         12    1    3    3    0    0  0.16267351153E+02 -0.13304774681E+02  0.30234474660E+02  0.36820744165E+02  0.00000000000E+00 0. -1.
         11    1    4    4    0    0 -0.13514488187E+02 -0.61860447473E+01  0.94351619220E-01  0.14863291797E+02  0.51100000000E-03 0. -1.
        -11    1    4    4    0    0 -0.86153628580E+01  0.57135561042E+01 -0.12637713918E+02  0.16327308837E+02  0.51100000000E-03 0.  1.
         12    1    4    4    0    0  0.58624998917E+01  0.13777263324E+02 -0.17691112361E+02  0.23176655200E+02  0.00000000000E+00 0. -1.
</event>
<event>
 8    1  0.2553474E-006  0.9118800E+02  0.7816164E-02  0.1184000E+00
        -11   -1    0    0    0    0  0.00000000000E+00  0.00000000000E+00  0.45593999997E+02  0.45594000000E+02  0.51100000000E-03 0.  1.
         11   -1    0    0    0    0 -0.00000000000E+00 -0.00000000000E+00 -0.45593999997E+02  0.45594000000E+02  0.51100000000E-03 0. -1.
         23    2    1    2    0    0 -0.71054273576E-14  0.17763568394E-14  0.17763568394E-14  0.91188000000E+02  0.91188000000E+02 0.  0.
    9900012    2    3    3    0    0  0.33238026460E+02  0.89165186706E+01  0.13096131305E+02  0.54367090678E+02  0.40000014818E+02 0.  0.
         12    1    3    3    0    0 -0.33238026460E+02 -0.89165186706E+01 -0.13096131305E+02  0.36820909322E+02  0.00000000000E+00 0. -1.
         11    1    4    4    0    0  0.15209288286E+02 -0.13900230602E+02  0.35095995174E+01  0.20901104038E+02  0.51100000000E-03 0. -1.
        -11    1    4    4    0    0  0.15942782506E+01  0.52736792730E+01 -0.30617185696E+01  0.63029784289E+01  0.51100000000E-03 0.  1.
        -12    1    4    4    0    0  0.16434459924E+02  0.17543070000E+02  0.12648250357E+02  0.27163008211E+02  0.00000000000E+00 0.  1.
</event>
<event>
 8    1  0.2553474E-006  0.9118800E+02  0.7816164E-02  0.1184000E+00
        -11   -1    0    0    0    0  0.00000000000E+00  0.00000000000E+00  0.45593999997E+02  0.45594000000E+02  0.51100000000E-03 0. -1.
         11   -1    0    0    0    0 -0.00000000000E+00 -0.00000000000E+00 -0.45593999997E+02  0.45594000000E+02  0.51100000000E-03 0.  1.
         23    2    1    2    0    0 -0.44408920985E-15  0.35527136788E-14 -0.35527136788E-14  0.91188000000E+02  0.91188000000E+02 0.  0.
    9900012    2    3    3    0    0  0.20457732516E+01  0.25204755686E+02 -0.26764062072E+02  0.54367083173E+02  0.39999997710E+02 0.  0.
         12    1    3    3    0    0 -0.20457732516E+01 -0.25204755686E+02  0.26764062072E+02  0.36820916827E+02  0.00000000000E+00 0. -1.
         11    1    4    4    0    0  0.40973179806E+01  0.62685133459E+01  0.18811240954E+01  0.77214572670E+01  0.51100000000E-03 0. -1.
        -11    1    4    4    0    0 -0.13368223090E+02  0.15331329333E+02 -0.62223464554E+01  0.21271498381E+02  0.51100000000E-03 0.  1.
        -12    1    4    4    0    0  0.11316678361E+02  0.36049130067E+01 -0.22422839712E+02  0.25374127525E+02  0.00000000000E+00 0.  1.
</event>
<event>
 8    1  0.2553474E-006  0.9118800E+02  0.7816164E-02  0.1184000E+00
        -11   -1    0    0    0    0  0.00000000000E+00  0.00000000000E+00  0.45593999997E+02  0.45594000000E+02  0.51100000000E-03 0. -1.
         11   -1    0    0    0    0 -0.00000000000E+00 -0.00000000000E+00 -0.45593999997E+02  0.45594000000E+02  0.51100000000E-03 0.  1.
         23    2    1    2    0    0  0.00000000000E+00 -0.71054273576E-14  0.44408920985E-15  0.91188000000E+02  0.91188000000E+02 0.  0.
    9900012    2    3    3    0    0  0.20593094310E+02  0.30468904244E+02 -0.18303223314E+01  0.54367085577E+02  0.40000003190E+02 0.  0.
         12    1    3    3    0    0 -0.20593094310E+02 -0.30468904244E+02  0.18303223314E+01  0.36820914423E+02  0.00000000000E+00 0. -1.
         11    1    4    4    0    0  0.97937189628E+01 -0.26131786594E+01  0.27702926150E+01  0.10508099508E+02  0.51100000000E-03 0. -1.
        -11    1    4    4    0    0  0.13937957435E+02  0.52566133170E+01  0.21611992543E+01  0.15052223208E+02  0.51100000000E-03 0.  1.
         12    1    4    4    0    0 -0.31385820887E+01  0.27825469587E+02 -0.67618142007E+01  0.28806762861E+02  0.00000000000E+00 0. -1.
</event>
<event>
 8    1  0.2553474E-006  0.9118800E+02  0.7816164E-02  0.1184000E+00
        -11   -1    0    0    0    0  0.00000000000E+00  0.00000000000E+00  0.45593999997E+02  0.45594000000E+02  0.51100000000E-03 0. -1.
         11   -1    0    0    0    0 -0.00000000000E+00 -0.00000000000E+00 -0.45593999997E+02  0.45594000000E+02  0.51100000000E-03 0.  1.
         23    2    1    2    0    0  0.00000000000E+00  0.00000000000E+00  0.00000000000E+00  0.91188000000E+02  0.91188000000E+02 0.  0.
    9900012    2    3    3    0    0 -0.11429035794E+02  0.18634097871E+01 -0.34952607362E+02  0.54367083165E+02  0.39999997690E+02 0.  0.
         12    1    3    3    0    0  0.11429035794E+02 -0.18634097871E+01  0.34952607362E+02  0.36820916835E+02  0.00000000000E+00 0. -1.
         11    1    4    4    0    0 -0.70693547801E+01  0.99383520957E+00  0.56344672246E+01  0.90945426821E+01  0.51100000000E-03 0. -1.
        -11    1    4    4    0    0 -0.49580102846E+01 -0.66348609435E+01 -0.34813536977E+02  0.35785270752E+02  0.51100000000E-03 0.  1.
        -12    1    4    4    0    0  0.59832927071E+00  0.75044355210E+01 -0.57735376099E+01  0.94872697304E+01  0.00000000000E+00 0.  1.
</event>
<event>
 8    1  0.2553474E-006  0.9118800E+02  0.7816164E-02  0.1184000E+00
        -11   -1    0    0    0    0  0.00000000000E+00  0.00000000000E+00  0.45593999997E+02  0.45594000000E+02  0.51100000000E-03 0. -1.
         11   -1    0    0    0    0 -0.00000000000E+00 -0.00000000000E+00 -0.45593999997E+02  0.45594000000E+02  0.51100000000E-03 0.  1.
         23    2    1    2    0    0  0.00000000000E+00  0.00000000000E+00  0.35527136788E-14  0.91188000000E+02  0.91188000000E+02 0.  0.
    9900012    2    3    3    0    0 -0.21342958680E+02 -0.15930924887E+02  0.25425650198E+02  0.54367082834E+02  0.39999996936E+02 0.  0.
        -12    1    3    3    0    0  0.21342958680E+02  0.15930924887E+02 -0.25425650198E+02  0.36820917166E+02  0.00000000000E+00 0.  1.
         11    1    4    4    0    0 -0.64553027540E+01  0.46993005384E+01  0.19584558879E+02  0.21149688081E+02  0.51100000000E-03 0. -1.
        -11    1    4    4    0    0 -0.19777096432E+02 -0.13121818316E+02  0.39690726508E+01  0.24063856656E+02  0.51100000000E-03 0.  1.
        -12    1    4    4    0    0  0.48894405067E+01 -0.75084071093E+01  0.18720186689E+01  0.91535380965E+01  0.00000000000E+00 0.  1.
</event>
<event>
 8    1  0.2553474E-006  0.9118800E+02  0.7816164E-02  0.1184000E+00
        -11   -1    0    0    0    0  0.00000000000E+00  0.00000000000E+00  0.45593999997E+02  0.45594000000E+02  0.51100000000E-03 0.  1.
         11   -1    0    0    0    0 -0.00000000000E+00 -0.00000000000E+00 -0.45593999997E+02  0.45594000000E+02  0.51100000000E-03 0. -1.
         23    2    1    2    0    0 -0.71054273576E-14 -0.35527136788E-14  0.00000000000E+00  0.91188000000E+02  0.91188000000E+02 0.  0.
    9900012    2    3    3    0    0  0.27585678783E+02  0.24269638980E+02 -0.24071099388E+01  0.54367092510E+02  0.40000018995E+02 0.  0.
         12    1    3    3    0    0 -0.27585678783E+02 -0.24269638980E+02  0.24071099388E+01  0.36820907490E+02  0.00000000000E+00 0. -1.
         11    1    4    4    0    0  0.80750404060E-01 -0.20180164473E+01  0.30881357348E+01  0.36899178293E+01  0.51100000000E-03 0. -1.
        -11    1    4    4    0    0 -0.28826461931E+01  0.16942308932E+02 -0.76511780756E+01  0.18812017628E+02  0.51100000000E-03 0.  1.
        -12    1    4    4    0    0  0.30387574572E+02  0.93453464949E+01  0.21559324020E+01  0.31865157053E+02  0.00000000000E+00 0.  1.
</event>
<event>
 8    1  0.2553474E-006  0.9118800E+02  0.7816164E-02  0.1184000E+00
        -11   -1    0    0    0    0  0.00000000000E+00  0.00000000000E+00  0.45593999997E+02  0.45594000000E+02  0.51100000000E-03 0.  1.
         11   -1    0    0    0    0 -0.00000000000E+00 -0.00000000000E+00 -0.45593999997E+02  0.45594000000E+02  0.51100000000E-03 0. -1.
         23    2    1    2    0    0 -0.35527136788E-14 -0.35527136788E-14  0.44408920985E-15  0.91188000000E+02  0.91188000000E+02 0.  0.
    9900012    2    3    3    0    0 -0.26743523270E+02 -0.25086734095E+02 -0.33498790908E+01  0.54367055493E+02  0.39999934607E+02 0.  0.
         12    1    3    3    0    0  0.26743523270E+02  0.25086734095E+02  0.33498790908E+01  0.36820944507E+02  0.00000000000E+00 0. -1.
         11    1    4    4    0    0 -0.18268728506E+02 -0.96787191441E+01  0.26827163608E+01  0.20847566113E+02  0.51100000000E-03 0.  1.
        -11    1    4    4    0    0  0.53715300202E+01 -0.15786890364E+02 -0.95656669346E+01  0.19224495476E+02  0.51100000000E-03 0. -1.
         12    1    4    4    0    0 -0.13846324784E+02  0.37887541320E+00  0.35330714830E+01  0.14294993904E+02  0.00000000000E+00 0. -1.
</event>
<event>
 8    1  0.2553474E-006  0.9118800E+02  0.7816164E-02  0.1184000E+00
        -11   -1    0    0    0    0  0.00000000000E+00  0.00000000000E+00  0.45593999997E+02  0.45594000000E+02  0.51100000000E-03 0.  1.
         11   -1    0    0    0    0 -0.00000000000E+00 -0.00000000000E+00 -0.45593999997E+02  0.45594000000E+02  0.51100000000E-03 0. -1.
         23    2    1    2    0    0  0.00000000000E+00  0.88817841970E-15  0.00000000000E+00  0.91188000000E+02  0.91188000000E+02 0.  0.
    9900012    2    3    3    0    0 -0.36704439598E+02  0.93369620739E+00 -0.27737081030E+01  0.54367066668E+02  0.39999960082E+02 0.  0.
         12    1    3    3    0    0  0.36704439598E+02 -0.93369620739E+00  0.27737081030E+01  0.36820933332E+02  0.00000000000E+00 0. -1.
         11    1    4    4    0    0 -0.12101980628E+02 -0.10112872683E+02 -0.58533835263E+01  0.16822313396E+02  0.51100000000E-03 0. -1.
        -11    1    4    4    0    0 -0.87367694900E+01 -0.84305936682E+01  0.26131200483E+01  0.12419116207E+02  0.51100000000E-03 0.  1.
        -12    1    4    4    0    0 -0.15865689480E+02  0.19477162558E+02  0.46655537512E+00  0.25125637065E+02  0.00000000000E+00 0.  1.
</event>
<event>
 8    1  0.2553474E-006  0.9118800E+02  0.7816164E-02  0.1184000E+00
        -11   -1    0    0    0    0  0.00000000000E+00  0.00000000000E+00  0.45593999997E+02  0.45594000000E+02  0.51100000000E-03 0. -1.
         11   -1    0    0    0    0 -0.00000000000E+00 -0.00000000000E+00 -0.45593999997E+02  0.45594000000E+02  0.51100000000E-03 0.  1.
         23    2    1    2    0    0  0.00000000000E+00 -0.35527136788E-14  0.00000000000E+00  0.91188000000E+02  0.91188000000E+02 0.  0.
    9900012    2    3    3    0    0  0.22319541245E+02 -0.24852572589E+02 -0.15490897793E+02  0.54367079315E+02  0.39999988913E+02 0.  0.
         12    1    3    3    0    0 -0.22319541245E+02  0.24852572589E+02  0.15490897793E+02  0.36820920685E+02  0.00000000000E+00 0. -1.
         11    1    4    4    0    0  0.25270380967E+01 -0.83677437637E+01 -0.93214934919E+01  0.12778704880E+02  0.51100000000E-03 0. -1.
        -11    1    4    4    0    0  0.12537875770E+02 -0.10864486136E+01 -0.17194543632E+02  0.21308003905E+02  0.51100000000E-03 0.  1.
         12    1    4    4    0    0  0.72546273778E+01 -0.15398380212E+02  0.11025139331E+02  0.20280370530E+02  0.00000000000E+00 0. -1.
</event>
<event>
 8    1  0.2553474E-006  0.9118800E+02  0.7816164E-02  0.1184000E+00
        -11   -1    0    0    0    0  0.00000000000E+00  0.00000000000E+00  0.45593999997E+02  0.45594000000E+02  0.51100000000E-03 0.  1.
         11   -1    0    0    0    0 -0.00000000000E+00 -0.00000000000E+00 -0.45593999997E+02  0.45594000000E+02  0.51100000000E-03 0. -1.
         23    2    1    2    0    0  0.00000000000E+00  0.00000000000E+00  0.00000000000E+00  0.91188000000E+02  0.91188000000E+02 0.  0.
    9900012    2    3    3    0    0 -0.87702038785E+01  0.89198130393E+01  0.34630904895E+02  0.54367094055E+02  0.40000022518E+02 0.  0.
         12    1    3    3    0    0  0.87702038785E+01 -0.89198130393E+01 -0.34630904895E+02  0.36820905945E+02  0.00000000000E+00 0. -1.
         11    1    4    4    0    0 -0.61125566629E+01 -0.11257469372E+02  0.29809942089E+02  0.32445748770E+02  0.51100000000E-03 0. -1.
        -11    1    4    4    0    0  0.94542895030E+00  0.96840356532E+01  0.47474762228E+01  0.10826491268E+02  0.51100000000E-03 0.  1.
         12    1    4    4    0    0 -0.36030761659E+01  0.10493246758E+02  0.73486583208E-01  0.11094854017E+02  0.00000000000E+00 0. -1.
</event>
<event>
 8    1  0.2553474E-006  0.9118800E+02  0.7816164E-02  0.1184000E+00
        -11   -1    0    0    0    0  0.00000000000E+00  0.00000000000E+00  0.45593999997E+02  0.45594000000E+02  0.51100000000E-03 0.  1.
         11   -1    0    0    0    0 -0.00000000000E+00 -0.00000000000E+00 -0.45593999997E+02  0.45594000000E+02  0.51100000000E-03 0. -1.
         23    2    1    2    0    0  0.00000000000E+00  0.17763568394E-14  0.44408920985E-14  0.91188000000E+02  0.91188000000E+02 0.  0.
    9900012    2    3    3    0    0  0.34863980668E+02 -0.98529129130E+01 -0.65727741555E+01  0.54367103746E+02  0.40000044609E+02 0.  0.
         12    1    3    3    0    0 -0.34863980668E+02  0.98529129130E+01  0.65727741555E+01  0.36820896254E+02  0.00000000000E+00 0. -1.
         11    1    4    4    0    0  0.50222175762E+00  0.16109583445E+01  0.70786454472E+01  0.72769935488E+01  0.51100000000E-03 0. -1.
        -11    1    4    4    0    0  0.17127037398E+02 -0.82239744852E+01  0.67727360804E+01  0.20170253361E+02  0.51100000000E-03 0.  1.
         12    1    4    4    0    0  0.17234721512E+02 -0.32398967723E+01 -0.20424155683E+02  0.26919856836E+02  0.00000000000E+00 0. -1.
</event>
<event>
 8    1  0.2553474E-006  0.9118800E+02  0.7816164E-02  0.1184000E+00
        -11   -1    0    0    0    0  0.00000000000E+00  0.00000000000E+00  0.45593999997E+02  0.45594000000E+02  0.51100000000E-03 0. -1.
         11   -1    0    0    0    0 -0.00000000000E+00 -0.00000000000E+00 -0.45593999997E+02  0.45594000000E+02  0.51100000000E-03 0.  1.
         23    2    1    2    0    0  0.71054273576E-14  0.00000000000E+00  0.88817841970E-15  0.91188000000E+02  0.91188000000E+02 0.  0.
    9900012    2    3    3    0    0  0.35993834372E+02  0.70759863202E+01  0.31865514693E+01  0.54367084674E+02  0.40000001130E+02 0.  0.
         12    1    3    3    0    0 -0.35993834372E+02 -0.70759863202E+01 -0.31865514693E+01  0.36820915326E+02  0.00000000000E+00 0. -1.
         11    1    4    4    0    0  0.15695215251E+02 -0.14738514580E+02 -0.11598726501E+01  0.21561746187E+02  0.51100000000E-03 0. -1.
        -11    1    4    4    0    0  0.13391563118E+02  0.57814573484E+01 -0.79059325135E+00  0.14607677768E+02  0.51100000000E-03 0.  1.
         12    1    4    4    0    0  0.69070560029E+01  0.16033043552E+02  0.51370173708E+01  0.18197660719E+02  0.00000000000E+00 0. -1.
</event>
<event>
 8    1  0.2553474E-006  0.9118800E+02  0.7816164E-02  0.1184000E+00
        -11   -1    0    0    0    0  0.00000000000E+00  0.00000000000E+00  0.45593999997E+02  0.45594000000E+02  0.51100000000E-03 0.  1.
         11   -1    0    0    0    0 -0.00000000000E+00 -0.00000000000E+00 -0.45593999997E+02  0.45594000000E+02  0.51100000000E-03 0. -1.
         23    2    1    2    0    0  0.00000000000E+00 -0.35527136788E-14  0.00000000000E+00  0.91188000000E+02  0.91188000000E+02 0.  0.
    9900012    2    3    3    0    0  0.21904273841E+01 -0.29598313585E+02  0.21792582165E+02  0.54367152962E+02  0.40000156807E+02 0.  0.
         12    1    3    3    0    0 -0.21904273841E+01  0.29598313585E+02 -0.21792582165E+02  0.36820847038E+02  0.00000000000E+00 0. -1.
         11    1    4    4    0    0  0.77748185489E+01  0.55145415126E+01  0.63056778191E+01  0.11428890785E+02  0.51100000000E-03 0. -1.
        -11    1    4    4    0    0 -0.37897559108E+01  0.23726591619E+00  0.44756562887E+01  0.58694160233E+01  0.51100000000E-03 0.  1.
         12    1    4    4    0    0 -0.17946352541E+01 -0.35350121014E+02  0.11011248057E+02  0.37068846153E+02  0.00000000000E+00 0. -1.
</event>
<event>
 8    1  0.2553474E-006  0.9118800E+02  0.7816164E-02  0.1184000E+00
        -11   -1    0    0    0    0  0.00000000000E+00  0.00000000000E+00  0.45593999997E+02  0.45594000000E+02  0.51100000000E-03 0.  1.
         11   -1    0    0    0    0 -0.00000000000E+00 -0.00000000000E+00 -0.45593999997E+02  0.45594000000E+02  0.51100000000E-03 0. -1.
         23    2    1    2    0    0  0.00000000000E+00  0.17763568394E-14  0.17763568394E-14  0.91188000000E+02  0.91188000000E+02 0.  0.
    9900012    2    3    3    0    0 -0.32096358395E+02 -0.15430460949E+02 -0.93544423982E+01  0.54367069269E+02  0.39999966012E+02 0.  0.
        -12    1    3    3    0    0  0.32096358395E+02  0.15430460949E+02  0.93544423982E+01  0.36820930731E+02  0.00000000000E+00 0.  1.
         11    1    4    4    0    0 -0.24230917316E+02 -0.23712263165E+01 -0.13816919917E+02  0.27994059092E+02  0.51100000000E-03 0. -1.
        -11    1    4    4    0    0 -0.12074274473E+02  0.46595405822E-02  0.48859905148E+00  0.12084157193E+02  0.51100000000E-03 0.  1.
        -12    1    4    4    0    0  0.42088333945E+01 -0.13063894173E+02  0.39738784673E+01  0.14288852984E+02  0.00000000000E+00 0.  1.
</event>
<event>
 8    1  0.2553474E-006  0.9118800E+02  0.7816164E-02  0.1184000E+00
        -11   -1    0    0    0    0  0.00000000000E+00  0.00000000000E+00  0.45593999997E+02  0.45594000000E+02  0.51100000000E-03 0.  1.
         11   -1    0    0    0    0 -0.00000000000E+00 -0.00000000000E+00 -0.45593999997E+02  0.45594000000E+02  0.51100000000E-03 0. -1.
         23    2    1    2    0    0 -0.53290705182E-14 -0.17763568394E-14 -0.71054273576E-14  0.91188000000E+02  0.91188000000E+02 0.  0.
    9900012    2    3    3    0    0 -0.11835980904E+02 -0.10818938453E+02 -0.33145751736E+02  0.54367072101E+02  0.39999972469E+02 0.  0.
        -12    1    3    3    0    0  0.11835980904E+02  0.10818938453E+02  0.33145751736E+02  0.36820927899E+02  0.00000000000E+00 0.  1.
         11    1    4    4    0    0 -0.16151068604E+02 -0.16456913653E+02 -0.20364314154E+02  0.30763489972E+02  0.51100000000E-03 0. -1.
        -11    1    4    4    0    0 -0.28613114203E+01  0.77797981658E+01  0.55537309029E+00  0.83078759063E+01  0.51100000000E-03 0.  1.
        -12    1    4    4    0    0  0.71763991203E+01 -0.21418229651E+01 -0.13336810672E+02  0.15295706222E+02  0.00000000000E+00 0.  1.
</event>
<event>
 8    1  0.2553474E-006  0.9118800E+02  0.7816164E-02  0.1184000E+00
        -11   -1    0    0    0    0  0.00000000000E+00  0.00000000000E+00  0.45593999997E+02  0.45594000000E+02  0.51100000000E-03 0.  1.
         11   -1    0    0    0    0 -0.00000000000E+00 -0.00000000000E+00 -0.45593999997E+02  0.45594000000E+02  0.51100000000E-03 0. -1.
         23    2    1    2    0    0  0.00000000000E+00  0.17763568394E-14  0.35527136788E-14  0.91188000000E+02  0.91188000000E+02 0.  0.
    9900012    2    3    3    0    0 -0.22019005943E+02  0.12298081169E+02  0.26827253968E+02  0.54367068743E+02  0.39999964813E+02 0.  0.
         12    1    3    3    0    0  0.22019005943E+02 -0.12298081169E+02 -0.26827253968E+02  0.36820931257E+02  0.00000000000E+00 0. -1.
         11    1    4    4    0    0 -0.12342149576E+02  0.19656697983E+01  0.17922645937E+02  0.21849799805E+02  0.51100000000E-03 0.  1.
        -11    1    4    4    0    0 -0.12084161941E+02  0.18168046174E+02  0.22056256526E+01  0.21931020414E+02  0.51100000000E-03 0. -1.
        -12    1    4    4    0    0  0.24073055737E+01 -0.78356348030E+01  0.66989823790E+01  0.10586248524E+02  0.00000000000E+00 0.  1.
</event>
<event>
 8    1  0.2553474E-006  0.9118800E+02  0.7816164E-02  0.1184000E+00
        -11   -1    0    0    0    0  0.00000000000E+00  0.00000000000E+00  0.45593999997E+02  0.45594000000E+02  0.51100000000E-03 0.  1.
         11   -1    0    0    0    0 -0.00000000000E+00 -0.00000000000E+00 -0.45593999997E+02  0.45594000000E+02  0.51100000000E-03 0. -1.
         23    2    1    2    0    0 -0.35527136788E-14  0.00000000000E+00  0.00000000000E+00  0.91188000000E+02  0.91188000000E+02 0.  0.
    9900012    2    3    3    0    0 -0.28455982383E+02  0.15537915395E+02 -0.17453086518E+02  0.54367082341E+02  0.39999995814E+02 0.  0.
        -12    1    3    3    0    0  0.28455982383E+02 -0.15537915395E+02  0.17453086518E+02  0.36820917659E+02  0.00000000000E+00 0.  1.
         11    1    4    4    0    0 -0.84132869399E+01  0.76817113542E+01 -0.17639068011E+02  0.20998304861E+02  0.51100000000E-03 0. -1.
        -11    1    4    4    0    0 -0.16003232590E+02  0.13051860930E+02  0.88679697806E+01  0.22474327918E+02  0.51100000000E-03 0.  1.
         12    1    4    4    0    0 -0.40394628532E+01 -0.51956568892E+01 -0.86819882869E+01  0.10894449562E+02  0.00000000000E+00 0. -1.
</event>
<event>
 8    1  0.2553474E-006  0.9118800E+02  0.7816164E-02  0.1184000E+00
        -11   -1    0    0    0    0  0.00000000000E+00  0.00000000000E+00  0.45593999997E+02  0.45594000000E+02  0.51100000000E-03 0.  1.
         11   -1    0    0    0    0 -0.00000000000E+00 -0.00000000000E+00 -0.45593999997E+02  0.45594000000E+02  0.51100000000E-03 0. -1.
         23    2    1    2    0    0 -0.35527136788E-14 -0.35527136788E-14  0.00000000000E+00  0.91188000000E+02  0.91188000000E+02 0.  0.
    9900012    2    3    3    0    0 -0.15791400493E+02  0.29299914940E+02  0.15745689834E+02  0.54367080764E+02  0.39999992218E+02 0.  0.
         12    1    3    3    0    0  0.15791400493E+02 -0.29299914940E+02 -0.15745689834E+02  0.36820919236E+02  0.00000000000E+00 0. -1.
         11    1    4    4    0    0 -0.47712544286E+01  0.11731363212E+01 -0.87982903523E+01  0.10077253149E+02  0.51100000000E-03 0. -1.
        -11    1    4    4    0    0  0.47728523444E+01  0.15742844928E+02  0.80611290474E+01  0.18319363737E+02  0.51100000000E-03 0.  1.
        -12    1    4    4    0    0 -0.15792998409E+02  0.12383933691E+02  0.16482851138E+02  0.25970463878E+02  0.00000000000E+00 0.  1.
</event>
<event>
 8    1  0.2553474E-006  0.9118800E+02  0.7816164E-02  0.1184000E+00
        -11   -1    0    0    0    0  0.00000000000E+00  0.00000000000E+00  0.45593999997E+02  0.45594000000E+02  0.51100000000E-03 0. -1.
         11   -1    0    0    0    0 -0.00000000000E+00 -0.00000000000E+00 -0.45593999997E+02  0.45594000000E+02  0.51100000000E-03 0.  1.
         23    2    1    2    0    0  0.00000000000E+00  0.00000000000E+00  0.00000000000E+00  0.91188000000E+02  0.91188000000E+02 0.  0.
    9900012    2    3    3    0    0 -0.11744451162E+02 -0.26160716650E+02 -0.23096946202E+02  0.54367025643E+02  0.39999866559E+02 0.  0.
         12    1    3    3    0    0  0.11744451162E+02  0.26160716650E+02  0.23096946202E+02  0.36820974357E+02  0.00000000000E+00 0. -1.
         11    1    4    4    0    0 -0.75732635901E+01  0.71402706708E+01 -0.11377672225E+02  0.15420415435E+02  0.51100000000E-03 0. -1.
        -11    1    4    4    0    0 -0.83610346242E+01 -0.28335331986E+02 -0.13078900639E+02  0.32308753936E+02  0.51100000000E-03 0.  1.
        -12    1    4    4    0    0  0.41898470527E+01 -0.49656553348E+01  0.13596266627E+01  0.66378562723E+01  0.00000000000E+00 0.  1.
</event>
<event>
 8    1  0.2553474E-006  0.9118800E+02  0.7816164E-02  0.1184000E+00
        -11   -1    0    0    0    0  0.00000000000E+00  0.00000000000E+00  0.45593999997E+02  0.45594000000E+02  0.51100000000E-03 0.  1.
         11   -1    0    0    0    0 -0.00000000000E+00 -0.00000000000E+00 -0.45593999997E+02  0.45594000000E+02  0.51100000000E-03 0. -1.
         23    2    1    2    0    0  0.00000000000E+00  0.35527136788E-14  0.00000000000E+00  0.91188000000E+02  0.91188000000E+02 0.  0.
    9900012    2    3    3    0    0  0.26486621285E+02  0.18364112879E+02 -0.17804442263E+02  0.54367083210E+02  0.39999997794E+02 0.  0.
         12    1    3    3    0    0 -0.26486621285E+02 -0.18364112879E+02  0.17804442263E+02  0.36820916790E+02  0.00000000000E+00 0. -1.
         11    1    4    4    0    0  0.12446584418E+02 -0.19118792926E+01 -0.32928983386E+01  0.13015987317E+02  0.51100000000E-03 0.  1.
        -11    1    4    4    0    0  0.13345899679E+02  0.29768745283E+01  0.56332837877E+01  0.14788803423E+02  0.51100000000E-03 0. -1.
        -12    1    4    4    0    0  0.69413718745E+00  0.17299117644E+02 -0.20144827712E+02  0.26562292470E+02  0.00000000000E+00 0.  1.
</event>
<event>
 8    1  0.2553474E-006  0.9118800E+02  0.7816164E-02  0.1184000E+00
        -11   -1    0    0    0    0  0.00000000000E+00  0.00000000000E+00  0.45593999997E+02  0.45594000000E+02  0.51100000000E-03 0. -1.
         11   -1    0    0    0    0 -0.00000000000E+00 -0.00000000000E+00 -0.45593999997E+02  0.45594000000E+02  0.51100000000E-03 0.  1.
         23    2    1    2    0    0 -0.13322676296E-14  0.00000000000E+00  0.71054273576E-14  0.91188000000E+02  0.91188000000E+02 0.  0.
    9900012    2    3    3    0    0  0.10456535558E+01 -0.10243975236E+02 -0.35351819887E+02  0.54367033292E+02  0.39999883995E+02 0.  0.
         12    1    3    3    0    0 -0.10456535558E+01  0.10243975236E+02  0.35351819887E+02  0.36820966708E+02  0.00000000000E+00 0. -1.
         11    1    4    4    0    0 -0.11167990312E+02  0.45744726338E+01 -0.14220441274E+02  0.18651293729E+02  0.51100000000E-03 0. -1.
        -11    1    4    4    0    0 -0.24844174452E+01 -0.12563369361E+02 -0.49248260464E+01  0.13720950827E+02  0.51100000000E-03 0.  1.
        -12    1    4    4    0    0  0.14698061313E+02 -0.22550785090E+01 -0.16206552567E+02  0.21994788736E+02  0.00000000000E+00 0.  1.
</event>
<event>
 8    1  0.2553474E-006  0.9118800E+02  0.7816164E-02  0.1184000E+00
        -11   -1    0    0    0    0  0.00000000000E+00  0.00000000000E+00  0.45593999997E+02  0.45594000000E+02  0.51100000000E-03 0.  1.
         11   -1    0    0    0    0 -0.00000000000E+00 -0.00000000000E+00 -0.45593999997E+02  0.45594000000E+02  0.51100000000E-03 0. -1.
         23    2    1    2    0    0  0.00000000000E+00  0.17763568394E-14  0.35527136788E-14  0.91188000000E+02  0.91188000000E+02 0.  0.
    9900012    2    3    3    0    0  0.16909071778E+02 -0.12773677412E+02 -0.30111396956E+02  0.54367085160E+02  0.40000002239E+02 0.  0.
        -12    1    3    3    0    0 -0.16909071778E+02  0.12773677412E+02  0.30111396956E+02  0.36820914840E+02  0.00000000000E+00 0.  1.
         11    1    4    4    0    0  0.10137539754E+02  0.31727901051E+01 -0.32891958057E+01  0.11120032312E+02  0.51100000000E-03 0. -1.
        -11    1    4    4    0    0  0.14772198544E+02  0.13636461189E+01 -0.12473657679E+02  0.19382195869E+02  0.51100000000E-03 0.  1.
        -12    1    4    4    0    0 -0.80006665194E+01 -0.17310113636E+02 -0.14348543471E+02  0.23864856978E+02  0.00000000000E+00 0.  1.
</event>
<event>
 8    1  0.2553474E-006  0.9118800E+02  0.7816164E-02  0.1184000E+00
        -11   -1    0    0    0    0  0.00000000000E+00  0.00000000000E+00  0.45593999997E+02  0.45594000000E+02  0.51100000000E-03 0.  1.
         11   -1    0    0    0    0 -0.00000000000E+00 -0.00000000000E+00 -0.45593999997E+02  0.45594000000E+02  0.51100000000E-03 0. -1.
         23    2    1    2    0    0  0.35527136788E-14  0.35527136788E-14  0.17763568394E-14  0.91188000000E+02  0.91188000000E+02 0.  0.
    9900012    2    3    3    0    0 -0.10401896434E+02 -0.31566183111E+02 -0.15847897098E+02  0.54367092787E+02  0.40000019626E+02 0.  0.
        -12    1    3    3    0    0  0.10401896434E+02  0.31566183111E+02  0.15847897098E+02  0.36820907213E+02  0.00000000000E+00 0.  1.
         11    1    4    4    0    0  0.75142168937E+01 -0.19232991512E+01  0.17264889809E+01  0.79462758329E+01  0.51100000000E-03 0. -1.
        -11    1    4    4    0    0  0.19082410073E+01 -0.20387592924E+02 -0.12400891253E+02  0.23939035760E+02  0.51100000000E-03 0.  1.
        -12    1    4    4    0    0 -0.19824354335E+02 -0.92552910351E+01 -0.51734948255E+01  0.22481781194E+02  0.00000000000E+00 0.  1.
</event>
<event>
 8    1  0.2553474E-006  0.9118800E+02  0.7816164E-02  0.1184000E+00
        -11   -1    0    0    0    0  0.00000000000E+00  0.00000000000E+00  0.45593999997E+02  0.45594000000E+02  0.51100000000E-03 0. -1.
         11   -1    0    0    0    0 -0.00000000000E+00 -0.00000000000E+00 -0.45593999997E+02  0.45594000000E+02  0.51100000000E-03 0.  1.
         23    2    1    2    0    0  0.17763568394E-14 -0.35527136788E-14 -0.35527136788E-14  0.91188000000E+02  0.91188000000E+02 0.  0.
    9900012    2    3    3    0    0  0.14206966096E+02 -0.20989825323E+02 -0.26708968574E+02  0.54367086716E+02  0.40000005787E+02 0.  0.
         12    1    3    3    0    0 -0.14206966096E+02  0.20989825323E+02  0.26708968574E+02  0.36820913284E+02  0.00000000000E+00 0. -1.
         11    1    4    4    0    0 -0.10077614261E-02  0.51606812563E+00 -0.94165900390E+01  0.94307208393E+01  0.51100000000E-03 0. -1.
        -11    1    4    4    0    0 -0.81472425311E+01 -0.32996360913E+01 -0.13138433836E+02  0.15807707080E+02  0.51100000000E-03 0.  1.
        -12    1    4    4    0    0  0.22355216389E+02 -0.18206257357E+02 -0.41539446990E+01  0.29128658797E+02  0.00000000000E+00 0.  1.
</event>
<event>
 8    1  0.2553474E-006  0.9118800E+02  0.7816164E-02  0.1184000E+00
        -11   -1    0    0    0    0  0.00000000000E+00  0.00000000000E+00  0.45593999997E+02  0.45594000000E+02  0.51100000000E-03 0.  1.
         11   -1    0    0    0    0 -0.00000000000E+00 -0.00000000000E+00 -0.45593999997E+02  0.45594000000E+02  0.51100000000E-03 0. -1.
         23    2    1    2    0    0  0.35527136788E-14 -0.35527136788E-14  0.00000000000E+00  0.91188000000E+02  0.91188000000E+02 0.  0.
    9900012    2    3    3    0    0  0.30217391598E+02 -0.12008228884E+02 -0.17276894439E+02  0.54367090215E+02  0.40000013763E+02 0.  0.
        -12    1    3    3    0    0 -0.30217391598E+02  0.12008228884E+02  0.17276894439E+02  0.36820909785E+02  0.00000000000E+00 0.  1.
         11    1    4    4    0    0  0.10558281373E+01  0.37856493739E+01 -0.11573243499E+01  0.40969884244E+01  0.51100000000E-03 0. -1.
        -11    1    4    4    0    0  0.71387536111E+01 -0.45321744931E+01  0.10797058526E+02  0.13714185424E+02  0.51100000000E-03 0.  1.
         12    1    4    4    0    0  0.22022809850E+02 -0.11261703765E+02 -0.26916628616E+02  0.36555916367E+02  0.00000000000E+00 0. -1.
</event>
<event>
 8    1  0.2553474E-006  0.9118800E+02  0.7816164E-02  0.1184000E+00
        -11   -1    0    0    0    0  0.00000000000E+00  0.00000000000E+00  0.45593999997E+02  0.45594000000E+02  0.51100000000E-03 0.  1.
         11   -1    0    0    0    0 -0.00000000000E+00 -0.00000000000E+00 -0.45593999997E+02  0.45594000000E+02  0.51100000000E-03 0. -1.
         23    2    1    2    0    0  0.00000000000E+00  0.00000000000E+00 -0.35527136788E-14  0.91188000000E+02  0.91188000000E+02 0.  0.
    9900012    2    3    3    0    0  0.11538936981E+02 -0.20679273237E+02 -0.28195647093E+02  0.54367164550E+02  0.40000183224E+02 0.  0.
        -12    1    3    3    0    0 -0.11538936981E+02  0.20679273237E+02  0.28195647093E+02  0.36820835450E+02  0.00000000000E+00 0.  1.
         11    1    4    4    0    0  0.20063656091E+02 -0.67118008474E+01 -0.37472485654E+01  0.21485819473E+02  0.51100000000E-03 0. -1.
        -11    1    4    4    0    0 -0.83194725669E+01 -0.14985067324E+02 -0.13325858763E+02  0.21710467027E+02  0.51100000000E-03 0.  1.
         12    1    4    4    0    0 -0.20524654313E+00  0.10175949352E+01 -0.11122539765E+02  0.11170878050E+02  0.00000000000E+00 0. -1.
</event>
<event>
 8    1  0.2553474E-006  0.9118800E+02  0.7816164E-02  0.1184000E+00
        -11   -1    0    0    0    0  0.00000000000E+00  0.00000000000E+00  0.45593999997E+02  0.45594000000E+02  0.51100000000E-03 0. -1.
         11   -1    0    0    0    0 -0.00000000000E+00 -0.00000000000E+00 -0.45593999997E+02  0.45594000000E+02  0.51100000000E-03 0.  1.
         23    2    1    2    0    0 -0.88817841970E-15  0.00000000000E+00 -0.25257573810E-14  0.91188000000E+02  0.91188000000E+02 0.  0.
    9900012    2    3    3    0    0  0.74019321519E+01  0.36068211580E+02  0.24662949341E+00  0.54367281481E+02  0.40000449790E+02 0.  0.
        -12    1    3    3    0    0 -0.74019321519E+01 -0.36068211580E+02 -0.24662949341E+00  0.36820718519E+02  0.00000000000E+00 0.  1.
         11    1    4    4    0    0  0.17618491357E+01  0.88430028934E+01  0.86256104015E+01  0.12478139589E+02  0.51100000000E-03 0. -1.
        -11    1    4    4    0    0 -0.21485202758E+01 -0.11603565214E+01  0.78888578344E+01  0.82581259875E+01  0.51100000000E-03 0.  1.
        -12    1    4    4    0    0  0.77886032920E+01  0.28385565208E+02 -0.16267838743E+02  0.33631015904E+02  0.00000000000E+00 0.  1.
</event>
<event>
 8    1  0.2553474E-006  0.9118800E+02  0.7816164E-02  0.1184000E+00
        -11   -1    0    0    0    0  0.00000000000E+00  0.00000000000E+00  0.45593999997E+02  0.45594000000E+02  0.51100000000E-03 0.  1.
         11   -1    0    0    0    0 -0.00000000000E+00 -0.00000000000E+00 -0.45593999997E+02  0.45594000000E+02  0.51100000000E-03 0. -1.
         23    2    1    2    0    0 -0.35527136788E-14 -0.88817841970E-15  0.00000000000E+00  0.91188000000E+02  0.91188000000E+02 0.  0.
    9900012    2    3    3    0    0  0.19513817469E+02  0.75273809840E+01  0.30303944979E+02  0.54367087220E+02  0.40000006936E+02 0.  0.
         12    1    3    3    0    0 -0.19513817469E+02 -0.75273809840E+01 -0.30303944979E+02  0.36820912780E+02  0.00000000000E+00 0. -1.
         11    1    4    4    0    0  0.12108069910E+02  0.94018497738E+01  0.20070389433E+02  0.25255111727E+02  0.51100000000E-03 0.  1.
        -11    1    4    4    0    0  0.14420371749E+02 -0.74286141656E+01  0.11759662331E+02  0.20035495707E+02  0.51100000000E-03 0. -1.
         12    1    4    4    0    0 -0.70146241908E+01  0.55541453758E+01 -0.15261067850E+01  0.90764797863E+01  0.00000000000E+00 0. -1.
</event>
<event>
 8    1  0.2553474E-006  0.9118800E+02  0.7816164E-02  0.1184000E+00
        -11   -1    0    0    0    0  0.00000000000E+00  0.00000000000E+00  0.45593999997E+02  0.45594000000E+02  0.51100000000E-03 0.  1.
         11   -1    0    0    0    0 -0.00000000000E+00 -0.00000000000E+00 -0.45593999997E+02  0.45594000000E+02  0.51100000000E-03 0. -1.
         23    2    1    2    0    0  0.35527136788E-14  0.00000000000E+00  0.35527136788E-14  0.91188000000E+02  0.91188000000E+02 0.  0.
    9900012    2    3    3    0    0  0.28413766805E+02  0.14987380544E+02  0.17994928322E+02  0.54367066213E+02  0.39999959046E+02 0.  0.
         12    1    3    3    0    0 -0.28413766805E+02 -0.14987380544E+02 -0.17994928322E+02  0.36820933787E+02  0.00000000000E+00 0. -1.
         11    1    4    4    0    0  0.98960222715E+01 -0.13315365889E+01 -0.47629131363E+01  0.11062982794E+02  0.51100000000E-03 0. -1.
        -11    1    4    4    0    0 -0.64580544296E+01  0.38456025586E+00  0.99891701532E+00  0.65461583444E+01  0.51100000000E-03 0.  1.
        -12    1    4    4    0    0  0.24975798963E+02  0.15934356877E+02  0.21758924443E+02  0.36757925075E+02  0.00000000000E+00 0.  1.
</event>
<event>
 8    1  0.2553474E-006  0.9118800E+02  0.7816164E-02  0.1184000E+00
        -11   -1    0    0    0    0  0.00000000000E+00  0.00000000000E+00  0.45593999997E+02  0.45594000000E+02  0.51100000000E-03 0.  1.
         11   -1    0    0    0    0 -0.00000000000E+00 -0.00000000000E+00 -0.45593999997E+02  0.45594000000E+02  0.51100000000E-03 0. -1.
         23    2    1    2    0    0  0.00000000000E+00  0.00000000000E+00  0.00000000000E+00  0.91188000000E+02  0.91188000000E+02 0.  0.
    9900012    2    3    3    0    0  0.10834774807E+02  0.77725964070E+01 -0.34321594539E+02  0.54367116636E+02  0.40000073995E+02 0.  0.
        -12    1    3    3    0    0 -0.10834774807E+02 -0.77725964070E+01  0.34321594539E+02  0.36820883364E+02  0.00000000000E+00 0.  1.
         11    1    4    4    0    0 -0.16572701353E+01  0.62448275214E+01 -0.35063430058E+02  0.35653731119E+02  0.51100000000E-03 0. -1.
        -11    1    4    4    0    0  0.75941319347E+01  0.27927174901E+01  0.69771533107E+01  0.10684136811E+02  0.51100000000E-03 0.  1.
         12    1    4    4    0    0  0.48979130075E+01 -0.12649486045E+01 -0.62353177920E+01  0.80292487051E+01  0.00000000000E+00 0. -1.
</event>
<event>
 8    1  0.2553474E-006  0.9118800E+02  0.7816164E-02  0.1184000E+00
        -11   -1    0    0    0    0  0.00000000000E+00  0.00000000000E+00  0.45593999997E+02  0.45594000000E+02  0.51100000000E-03 0. -1.
         11   -1    0    0    0    0 -0.00000000000E+00 -0.00000000000E+00 -0.45593999997E+02  0.45594000000E+02  0.51100000000E-03 0.  1.
         23    2    1    2    0    0  0.00000000000E+00 -0.88817841970E-15  0.00000000000E+00  0.91188000000E+02  0.91188000000E+02 0.  0.
    9900012    2    3    3    0    0 -0.10749229434E+02 -0.44274925360E+01 -0.34937537211E+02  0.54367080268E+02  0.39999991087E+02 0.  0.
         12    1    3    3    0    0  0.10749229434E+02  0.44274925360E+01  0.34937537211E+02  0.36820919732E+02  0.00000000000E+00 0. -1.
         11    1    4    4    0    0  0.34728146528E+01 -0.28616194229E+01  0.75384520167E+01  0.87793830309E+01  0.51100000000E-03 0. -1.
        -11    1    4    4    0    0 -0.11199909618E+01  0.12435387808E+01 -0.88861989090E+00  0.18948387861E+01  0.51100000000E-03 0.  1.
        -12    1    4    4    0    0 -0.13102053125E+02 -0.28094118939E+01 -0.41587369337E+02  0.43692858451E+02  0.00000000000E+00 0.  1.
</event>
<event>
 8    1  0.2553474E-006  0.9118800E+02  0.7816164E-02  0.1184000E+00
        -11   -1    0    0    0    0  0.00000000000E+00  0.00000000000E+00  0.45593999997E+02  0.45594000000E+02  0.51100000000E-03 0.  1.
         11   -1    0    0    0    0 -0.00000000000E+00 -0.00000000000E+00 -0.45593999997E+02  0.45594000000E+02  0.51100000000E-03 0. -1.
         23    2    1    2    0    0  0.00000000000E+00  0.00000000000E+00 -0.35527136788E-14  0.91188000000E+02  0.91188000000E+02 0.  0.
    9900012    2    3    3    0    0  0.21353915618E+02  0.22026792288E+02 -0.20361959254E+02  0.54367100019E+02  0.40000036114E+02 0.  0.
        -12    1    3    3    0    0 -0.21353915618E+02 -0.22026792288E+02  0.20361959254E+02  0.36820899981E+02  0.00000000000E+00 0.  1.
         11    1    4    4    0    0 -0.52930287183E+01  0.91651156107E+01 -0.26501786956E+01  0.10910496989E+02  0.51100000000E-03 0. -1.
        -11    1    4    4    0    0  0.12456440507E+02  0.76284831268E+01  0.56206826612E+01  0.15650838277E+02  0.51100000000E-03 0.  1.
         12    1    4    4    0    0  0.14190503829E+02  0.52331935511E+01 -0.23332463219E+02  0.27805764754E+02  0.00000000000E+00 0. -1.
</event>
<event>
 8    1  0.2553474E-006  0.9118800E+02  0.7816164E-02  0.1184000E+00
        -11   -1    0    0    0    0  0.00000000000E+00  0.00000000000E+00  0.45593999997E+02  0.45594000000E+02  0.51100000000E-03 0.  1.
         11   -1    0    0    0    0 -0.00000000000E+00 -0.00000000000E+00 -0.45593999997E+02  0.45594000000E+02  0.51100000000E-03 0. -1.
         23    2    1    2    0    0  0.00000000000E+00  0.00000000000E+00  0.44408920985E-15  0.91188000000E+02  0.91188000000E+02 0.  0.
    9900012    2    3    3    0    0  0.28856545946E+02 -0.22838626280E+02 -0.12149411739E+01  0.54367093217E+02  0.40000020606E+02 0.  0.
        -12    1    3    3    0    0 -0.28856545946E+02  0.22838626280E+02  0.12149411739E+01  0.36820906783E+02  0.00000000000E+00 0.  1.
         11    1    4    4    0    0  0.17928548519E+02 -0.98060915521E+01 -0.64767916026E+01  0.21436910068E+02  0.51100000000E-03 0. -1.
        -11    1    4    4    0    0  0.84177941859E+01 -0.21202861848E+02  0.76403486843E+01  0.24058169876E+02  0.51100000000E-03 0.  1.
        -12    1    4    4    0    0  0.25102032405E+01  0.81703271198E+01 -0.23784982555E+01  0.88720132724E+01  0.00000000000E+00 0.  1.
</event>
<event>
 8    1  0.2553474E-006  0.9118800E+02  0.7816164E-02  0.1184000E+00
        -11   -1    0    0    0    0  0.00000000000E+00  0.00000000000E+00  0.45593999997E+02  0.45594000000E+02  0.51100000000E-03 0. -1.
         11   -1    0    0    0    0 -0.00000000000E+00 -0.00000000000E+00 -0.45593999997E+02  0.45594000000E+02  0.51100000000E-03 0.  1.
         23    2    1    2    0    0 -0.35527136788E-14  0.00000000000E+00  0.00000000000E+00  0.91188000000E+02  0.91188000000E+02 0.  0.
    9900012    2    3    3    0    0 -0.30475784569E+02  0.89973526984E+01  0.18602547170E+02  0.54367074402E+02  0.39999977714E+02 0.  0.
        -12    1    3    3    0    0  0.30475784569E+02 -0.89973526984E+01 -0.18602547170E+02  0.36820925598E+02  0.00000000000E+00 0.  1.
         11    1    4    4    0    0 -0.20832654974E+02  0.11968580252E+02  0.20124055895E+02  0.31340453928E+02  0.51100000000E-03 0. -1.
        -11    1    4    4    0    0 -0.34156731093E+01  0.86852504705E+01 -0.28142610443E+01  0.97478440699E+01  0.51100000000E-03 0.  1.
         12    1    4    4    0    0 -0.62274564861E+01 -0.11656478024E+02  0.12927523195E+01  0.13278776403E+02  0.00000000000E+00 0. -1.
</event>
<event>
 8    1  0.2553474E-006  0.9118800E+02  0.7816164E-02  0.1184000E+00
        -11   -1    0    0    0    0  0.00000000000E+00  0.00000000000E+00  0.45593999997E+02  0.45594000000E+02  0.51100000000E-03 0. -1.
         11   -1    0    0    0    0 -0.00000000000E+00 -0.00000000000E+00 -0.45593999997E+02  0.45594000000E+02  0.51100000000E-03 0.  1.
         23    2    1    2    0    0 -0.71054273576E-14  0.11102230246E-14 -0.35527136788E-14  0.91188000000E+02  0.91188000000E+02 0.  0.
    9900012    2    3    3    0    0  0.21917758649E+02 -0.68319639121E+00  0.29579133430E+02  0.54367081544E+02  0.39999993996E+02 0.  0.
        -12    1    3    3    0    0 -0.21917758649E+02  0.68319639121E+00 -0.29579133430E+02  0.36820918456E+02  0.00000000000E+00 0.  1.
         11    1    4    4    0    0  0.20226604839E+01  0.44583341846E+01  0.92479454578E+01  0.10463861361E+02  0.51100000000E-03 0. -1.
        -11    1    4    4    0    0  0.26738585610E+01  0.77034403619E+01 -0.58499001522E+01  0.10035628783E+02  0.51100000000E-03 0.  1.
         12    1    4    4    0    0  0.17221239604E+02 -0.12844970938E+02  0.26181088124E+02  0.33867591400E+02  0.00000000000E+00 0. -1.
</event>
<event>
 8    1  0.2553474E-006  0.9118800E+02  0.7816164E-02  0.1184000E+00
        -11   -1    0    0    0    0  0.00000000000E+00  0.00000000000E+00  0.45593999997E+02  0.45594000000E+02  0.51100000000E-03 0.  1.
         11   -1    0    0    0    0 -0.00000000000E+00 -0.00000000000E+00 -0.45593999997E+02  0.45594000000E+02  0.51100000000E-03 0. -1.
         23    2    1    2    0    0  0.00000000000E+00  0.00000000000E+00  0.00000000000E+00  0.91188000000E+02  0.91188000000E+02 0.  0.
    9900012    2    3    3    0    0 -0.17733749673E+02 -0.22632068536E+02 -0.23001813805E+02  0.54367084177E+02  0.39999999999E+02 0.  0.
        -12    1    3    3    0    0  0.17733749673E+02  0.22632068536E+02  0.23001813805E+02  0.36820915823E+02  0.00000000000E+00 0.  1.
         11    1    4    4    0    0 -0.16687901873E+01 -0.80450341243E+01 -0.12216457132E+02  0.14722406728E+02  0.51100000000E-03 0. -1.
        -11    1    4    4    0    0 -0.15739885818E+02 -0.20831965409E+02  0.11879937193E+01  0.26136681459E+02  0.51100000000E-03 0.  1.
         12    1    4    4    0    0 -0.32507366838E+00  0.62449309973E+01 -0.11973350392E+02  0.13507995990E+02  0.00000000000E+00 0. -1.
</event>
<event>
 8    1  0.2553474E-006  0.9118800E+02  0.7816164E-02  0.1184000E+00
        -11   -1    0    0    0    0  0.00000000000E+00  0.00000000000E+00  0.45593999997E+02  0.45594000000E+02  0.51100000000E-03 0. -1.
         11   -1    0    0    0    0 -0.00000000000E+00 -0.00000000000E+00 -0.45593999997E+02  0.45594000000E+02  0.51100000000E-03 0.  1.
         23    2    1    2    0    0  0.00000000000E+00  0.00000000000E+00  0.00000000000E+00  0.91188000000E+02  0.91188000000E+02 0.  0.
    9900012    2    3    3    0    0  0.97799207095E+01  0.25647513108E+02 -0.24542699414E+02  0.54367002291E+02  0.39999813323E+02 0.  0.
         12    1    3    3    0    0 -0.97799207095E+01 -0.25647513108E+02  0.24542699414E+02  0.36820997709E+02  0.00000000000E+00 0. -1.
         11    1    4    4    0    0  0.19031161802E+01 -0.26969253218E+01 -0.52294423797E+01  0.61840379405E+01  0.51100000000E-03 0. -1.
        -11    1    4    4    0    0  0.70498409367E+01  0.13019009598E+02 -0.27169387011E+02  0.30941403636E+02  0.51100000000E-03 0.  1.
        -12    1    4    4    0    0  0.82696359253E+00  0.15325428832E+02  0.78561299769E+01  0.17241560715E+02  0.00000000000E+00 0.  1.
</event>
<event>
 8    1  0.2553474E-006  0.9118800E+02  0.7816164E-02  0.1184000E+00
        -11   -1    0    0    0    0  0.00000000000E+00  0.00000000000E+00  0.45593999997E+02  0.45594000000E+02  0.51100000000E-03 0. -1.
         11   -1    0    0    0    0 -0.00000000000E+00 -0.00000000000E+00 -0.45593999997E+02  0.45594000000E+02  0.51100000000E-03 0.  1.
         23    2    1    2    0    0 -0.35527136788E-14  0.17763568394E-14  0.00000000000E+00  0.91188000000E+02  0.91188000000E+02 0.  0.
    9900012    2    3    3    0    0  0.30244308947E+02 -0.56209829551E+01 -0.20235254048E+02  0.54367093175E+02  0.40000020511E+02 0.  0.
         12    1    3    3    0    0 -0.30244308947E+02  0.56209829551E+01  0.20235254048E+02  0.36820906825E+02  0.00000000000E+00 0. -1.
         11    1    4    4    0    0 -0.88727361643E+01 -0.44255087737E+01 -0.52611376932E+01  0.11224533177E+02  0.51100000000E-03 0. -1.
        -11    1    4    4    0    0  0.48212592937E+01  0.33356627361E+01 -0.23856912672E+01  0.63295110514E+01  0.51100000000E-03 0.  1.
        -12    1    4    4    0    0  0.34295785817E+02 -0.45311369174E+01 -0.12588425087E+02  0.36813048947E+02  0.00000000000E+00 0.  1.
</event>
<event>
 8    1  0.2553474E-006  0.9118800E+02  0.7816164E-02  0.1184000E+00
        -11   -1    0    0    0    0  0.00000000000E+00  0.00000000000E+00  0.45593999997E+02  0.45594000000E+02  0.51100000000E-03 0. -1.
         11   -1    0    0    0    0 -0.00000000000E+00 -0.00000000000E+00 -0.45593999997E+02  0.45594000000E+02  0.51100000000E-03 0.  1.
         23    2    1    2    0    0  0.00000000000E+00  0.00000000000E+00  0.35527136788E-14  0.91188000000E+02  0.91188000000E+02 0.  0.
    9900012    2    3    3    0    0  0.28065807155E+01  0.34115857304E+02  0.13565052570E+02  0.54367091998E+02  0.40000017827E+02 0.  0.
        -12    1    3    3    0    0 -0.28065807155E+01 -0.34115857304E+02 -0.13565052570E+02  0.36820908002E+02  0.00000000000E+00 0.  1.
         11    1    4    4    0    0  0.93277256761E+01  0.35470420069E+01 -0.25000662427E+01  0.10287774529E+02  0.51100000000E-03 0.  1.
        -11    1    4    4    0    0  0.59779520349E+01  0.26265253065E+02  0.63533317692E+01  0.27676059220E+02  0.51100000000E-03 0. -1.
         12    1    4    4    0    0 -0.12499096995E+02  0.43035622319E+01  0.97117870435E+01  0.16403258248E+02  0.00000000000E+00 0. -1.
</event>
<event>
 8    1  0.2553474E-006  0.9118800E+02  0.7816164E-02  0.1184000E+00
        -11   -1    0    0    0    0  0.00000000000E+00  0.00000000000E+00  0.45593999997E+02  0.45594000000E+02  0.51100000000E-03 0. -1.
         11   -1    0    0    0    0 -0.00000000000E+00 -0.00000000000E+00 -0.45593999997E+02  0.45594000000E+02  0.51100000000E-03 0.  1.
         23    2    1    2    0    0  0.00000000000E+00  0.35527136788E-14  0.00000000000E+00  0.91188000000E+02  0.91188000000E+02 0.  0.
    9900012    2    3    3    0    0  0.10328136518E+02  0.24453763852E+02 -0.25517119718E+02  0.54367077020E+02  0.39999983682E+02 0.  0.
         12    1    3    3    0    0 -0.10328136518E+02 -0.24453763852E+02  0.25517119718E+02  0.36820922980E+02  0.00000000000E+00 0. -1.
         11    1    4    4    0    0  0.13782151910E+02 -0.41353808851E+01 -0.20319197507E+02  0.24898170092E+02  0.51100000000E-03 0. -1.
        -11    1    4    4    0    0 -0.18583709451E+01  0.57319984341E+01 -0.19114997499E+01  0.63216437872E+01  0.51100000000E-03 0.  1.
         12    1    4    4    0    0 -0.15956444473E+01  0.22857146303E+02 -0.32864224609E+01  0.23147263141E+02  0.00000000000E+00 0. -1.
</event>
<event>
 8    1  0.2553474E-006  0.9118800E+02  0.7816164E-02  0.1184000E+00
        -11   -1    0    0    0    0  0.00000000000E+00  0.00000000000E+00  0.45593999997E+02  0.45594000000E+02  0.51100000000E-03 0.  1.
         11   -1    0    0    0    0 -0.00000000000E+00 -0.00000000000E+00 -0.45593999997E+02  0.45594000000E+02  0.51100000000E-03 0. -1.
         23    2    1    2    0    0  0.00000000000E+00  0.00000000000E+00  0.00000000000E+00  0.91188000000E+02  0.91188000000E+02 0.  0.
    9900012    2    3    3    0    0 -0.17047829219E+02 -0.27258659092E+01  0.32522617086E+02  0.54367089526E+02  0.40000012192E+02 0.  0.
         12    1    3    3    0    0  0.17047829219E+02  0.27258659092E+01 -0.32522617086E+02  0.36820910474E+02  0.00000000000E+00 0. -1.
         11    1    4    4    0    0 -0.14977686479E+02 -0.15127013038E+02  0.75417979574E+01  0.22583983979E+02  0.51100000000E-03 0. -1.
        -11    1    4    4    0    0 -0.34106737757E+01  0.31756784521E+01  0.21228358821E+02  0.21733864077E+02  0.51100000000E-03 0.  1.
         12    1    4    4    0    0  0.13405310357E+01  0.92254686763E+01  0.37524603079E+01  0.10049241470E+02  0.00000000000E+00 0. -1.
</event>
<event>
 8    1  0.3384014E-006  0.9118800E+02  0.7816164E-02  0.1184000E+00
        -11   -1    0    0    0    0  0.00000000000E+00  0.00000000000E+00  0.45593999997E+02  0.45594000000E+02  0.51100000000E-03 0.  1.
         11   -1    0    0    0    0 -0.00000000000E+00 -0.00000000000E+00 -0.45593999997E+02  0.45594000000E+02  0.51100000000E-03 0. -1.
         23    2    1    2    0    0 -0.17763568394E-14  0.00000000000E+00  0.00000000000E+00  0.91188000000E+02  0.91188000000E+02 0.  0.
    9900012    2    3    3    0    0 -0.11022122122E+02  0.44085983429E+01  0.34854796795E+02  0.54367085087E+02  0.40000002072E+02 0.  0.
         12    1    3    3    0    0  0.11022122122E+02 -0.44085983429E+01 -0.34854796795E+02  0.36820914913E+02  0.00000000000E+00 0. -1.
         11    1    4    4    0    0 -0.16785472393E+01 -0.11764659719E+02  0.13352833825E+02  0.17875203791E+02  0.51100000000E-03 0. -1.
        -11    1    4    4    0    0 -0.18298398909E+01  0.65573042482E+01  0.23193340752E+02  0.24171835026E+02  0.51100000000E-03 0.  1.
         12    1    4    4    0    0 -0.75137349922E+01  0.96159538141E+01 -0.16913777815E+01  0.12320046270E+02  0.00000000000E+00 0. -1.
</event>
<event>
 8    1  0.2553474E-006  0.9118800E+02  0.7816164E-02  0.1184000E+00
        -11   -1    0    0    0    0  0.00000000000E+00  0.00000000000E+00  0.45593999997E+02  0.45594000000E+02  0.51100000000E-03 0.  1.
         11   -1    0    0    0    0 -0.00000000000E+00 -0.00000000000E+00 -0.45593999997E+02  0.45594000000E+02  0.51100000000E-03 0. -1.
         23    2    1    2    0    0  0.00000000000E+00  0.00000000000E+00  0.00000000000E+00  0.91188000000E+02  0.91188000000E+02 0.  0.
    9900012    2    3    3    0    0 -0.10465023085E+02 -0.34001907385E+02 -0.94938298795E+01  0.54367092627E+02  0.40000019262E+02 0.  0.
        -12    1    3    3    0    0  0.10465023085E+02  0.34001907385E+02  0.94938298795E+01  0.36820907373E+02  0.00000000000E+00 0.  1.
         11    1    4    4    0    0  0.48411138714E+00 -0.23321609395E+02 -0.13399937643E+02  0.26901489879E+02  0.51100000000E-03 0. -1.
        -11    1    4    4    0    0  0.40301341413E+01 -0.97264015774E+00  0.81270958439E+01  0.91234695807E+01  0.51100000000E-03 0.  1.
         12    1    4    4    0    0 -0.14979268613E+02 -0.97076578321E+01 -0.42209880805E+01  0.18342133168E+02  0.00000000000E+00 0. -1.
</event>
<event>
 8    1  0.2553474E-006  0.9118800E+02  0.7816164E-02  0.1184000E+00
        -11   -1    0    0    0    0  0.00000000000E+00  0.00000000000E+00  0.45593999997E+02  0.45594000000E+02  0.51100000000E-03 0.  1.
         11   -1    0    0    0    0 -0.00000000000E+00 -0.00000000000E+00 -0.45593999997E+02  0.45594000000E+02  0.51100000000E-03 0. -1.
         23    2    1    2    0    0  0.00000000000E+00  0.35527136788E-14  0.00000000000E+00  0.91188000000E+02  0.91188000000E+02 0.  0.
    9900012    2    3    3    0    0  0.30939286915E+02 -0.18252138834E+02 -0.80870374559E+01  0.54367079022E+02  0.39999988247E+02 0.  0.
         12    1    3    3    0    0 -0.30939286915E+02  0.18252138834E+02  0.80870374559E+01  0.36820920978E+02  0.00000000000E+00 0. -1.
         11    1    4    4    0    0 -0.19144409710E+00  0.47559102886E+01 -0.16021117781E+01  0.50221604839E+01  0.51100000000E-03 0. -1.
        -11    1    4    4    0    0  0.17678577499E+02 -0.21846762346E+02 -0.16449639688E+02  0.32563841504E+02  0.51100000000E-03 0.  1.
        -12    1    4    4    0    0  0.13452153513E+02 -0.11612867768E+01  0.99647140098E+01  0.16781077034E+02  0.00000000000E+00 0.  1.
</event>
<event>
 8    1  0.2553474E-006  0.9118800E+02  0.7816164E-02  0.1184000E+00
        -11   -1    0    0    0    0  0.00000000000E+00  0.00000000000E+00  0.45593999997E+02  0.45594000000E+02  0.51100000000E-03 0. -1.
         11   -1    0    0    0    0 -0.00000000000E+00 -0.00000000000E+00 -0.45593999997E+02  0.45594000000E+02  0.51100000000E-03 0.  1.
         23    2    1    2    0    0 -0.71054273576E-14  0.00000000000E+00 -0.35527136788E-14  0.91188000000E+02  0.91188000000E+02 0.  0.
    9900012    2    3    3    0    0  0.26627430161E+02  0.99843998119E+01  0.23389511698E+02  0.54367115517E+02  0.40000071445E+02 0.  0.
        -12    1    3    3    0    0 -0.26627430161E+02 -0.99843998119E+01 -0.23389511698E+02  0.36820884483E+02  0.00000000000E+00 0.  1.
         11    1    4    4    0    0  0.12522244509E+02  0.11123190729E+02  0.97852684570E+01  0.19398027183E+02  0.51100000000E-03 0. -1.
        -11    1    4    4    0    0  0.98226683068E+01 -0.53510923366E+01  0.21979681587E+02  0.24662226274E+02  0.51100000000E-03 0.  1.
        -12    1    4    4    0    0  0.42825173455E+01  0.42123014192E+01 -0.83754383458E+01  0.10306862061E+02  0.00000000000E+00 0.  1.
</event>
<event>
 8    1  0.2553474E-006  0.9118800E+02  0.7816164E-02  0.1184000E+00
        -11   -1    0    0    0    0  0.00000000000E+00  0.00000000000E+00  0.45593999997E+02  0.45594000000E+02  0.51100000000E-03 0. -1.
         11   -1    0    0    0    0 -0.00000000000E+00 -0.00000000000E+00 -0.45593999997E+02  0.45594000000E+02  0.51100000000E-03 0.  1.
         23    2    1    2    0    0 -0.44408920985E-15  0.00000000000E+00  0.00000000000E+00  0.91188000000E+02  0.91188000000E+02 0.  0.
    9900012    2    3    3    0    0 -0.36714063621E+01 -0.32243010504E+02 -0.17397937161E+02  0.54367093324E+02  0.40000020850E+02 0.  0.
         12    1    3    3    0    0  0.36714063621E+01  0.32243010504E+02  0.17397937161E+02  0.36820906676E+02  0.00000000000E+00 0. -1.
         11    1    4    4    0    0  0.45014268572E+01 -0.57251242448E+01  0.21114627396E+01  0.75827545477E+01  0.51100000000E-03 0. -1.
        -11    1    4    4    0    0  0.32647928178E+01 -0.22733458924E+02  0.10108431148E+01  0.22988928440E+02  0.51100000000E-03 0.  1.
        -12    1    4    4    0    0 -0.11437626037E+02 -0.37844273354E+01 -0.20520243015E+02  0.23795410336E+02  0.00000000000E+00 0.  1.
</event>
<event>
 8    1  0.2553474E-006  0.9118800E+02  0.7816164E-02  0.1184000E+00
        -11   -1    0    0    0    0  0.00000000000E+00  0.00000000000E+00  0.45593999997E+02  0.45594000000E+02  0.51100000000E-03 0.  1.
         11   -1    0    0    0    0 -0.00000000000E+00 -0.00000000000E+00 -0.45593999997E+02  0.45594000000E+02  0.51100000000E-03 0. -1.
         23    2    1    2    0    0  0.13322676296E-14  0.00000000000E+00 -0.17763568394E-14  0.91188000000E+02  0.91188000000E+02 0.  0.
    9900012    2    3    3    0    0  0.39286178087E+01 -0.35900991893E+02 -0.71737203329E+01  0.54367115705E+02  0.40000071874E+02 0.  0.
        -12    1    3    3    0    0 -0.39286178087E+01  0.35900991893E+02  0.71737203329E+01  0.36820884295E+02  0.00000000000E+00 0.  1.
         11    1    4    4    0    0  0.81998884711E+01 -0.10476435275E+02 -0.17720499510E+02  0.22158744778E+02  0.51100000000E-03 0. -1.
        -11    1    4    4    0    0  0.54336103429E+01 -0.14551691595E+02  0.30899426254E+01  0.15837411257E+02  0.51100000000E-03 0.  1.
         12    1    4    4    0    0 -0.97048810053E+01 -0.10872865024E+02  0.74568365521E+01  0.16370959670E+02  0.00000000000E+00 0. -1.
</event>
<event>
 8    1  0.2553474E-006  0.9118800E+02  0.7816164E-02  0.1184000E+00
        -11   -1    0    0    0    0  0.00000000000E+00  0.00000000000E+00  0.45593999997E+02  0.45594000000E+02  0.51100000000E-03 0.  1.
         11   -1    0    0    0    0 -0.00000000000E+00 -0.00000000000E+00 -0.45593999997E+02  0.45594000000E+02  0.51100000000E-03 0. -1.
         23    2    1    2    0    0  0.17763568394E-14  0.00000000000E+00 -0.35527136788E-14  0.91188000000E+02  0.91188000000E+02 0.  0.
    9900012    2    3    3    0    0 -0.15100610257E+02 -0.10926651611E+02 -0.31754677381E+02  0.54367086361E+02  0.40000004978E+02 0.  0.
        -12    1    3    3    0    0  0.15100610257E+02  0.10926651611E+02  0.31754677381E+02  0.36820913639E+02  0.00000000000E+00 0.  1.
         11    1    4    4    0    0 -0.38767101846E+01 -0.14189890151E+02 -0.11725263588E+02  0.18811264466E+02  0.51100000000E-03 0. -1.
        -11    1    4    4    0    0  0.75129535713E+01 -0.27919020235E+01 -0.83643662532E+00  0.80584623076E+01  0.51100000000E-03 0.  1.
         12    1    4    4    0    0 -0.18736853644E+02  0.60551405629E+01 -0.19192977168E+02  0.27497359587E+02  0.00000000000E+00 0. -1.
</event>
<event>
 8    1  0.2553474E-006  0.9118800E+02  0.7816164E-02  0.1184000E+00
        -11   -1    0    0    0    0  0.00000000000E+00  0.00000000000E+00  0.45593999997E+02  0.45594000000E+02  0.51100000000E-03 0.  1.
         11   -1    0    0    0    0 -0.00000000000E+00 -0.00000000000E+00 -0.45593999997E+02  0.45594000000E+02  0.51100000000E-03 0. -1.
         23    2    1    2    0    0 -0.35527136788E-14  0.00000000000E+00  0.00000000000E+00  0.91188000000E+02  0.91188000000E+02 0.  0.
    9900012    2    3    3    0    0 -0.15531467292E+02 -0.25997211111E+02  0.20945156776E+02  0.54367067717E+02  0.39999962476E+02 0.  0.
         12    1    3    3    0    0  0.15531467292E+02  0.25997211111E+02 -0.20945156776E+02  0.36820932283E+02  0.00000000000E+00 0. -1.
         11    1    4    4    0    0 -0.24915156226E+01 -0.91052004979E+00 -0.37204463041E+01  0.45692907351E+01  0.51100000000E-03 0. -1.
        -11    1    4    4    0    0  0.48389731768E+01  0.57554065041E+01  0.55571187406E+01  0.93499697535E+01  0.51100000000E-03 0.  1.
        -12    1    4    4    0    0 -0.17878924846E+02 -0.30842097565E+02  0.19108484340E+02  0.40447807229E+02  0.00000000000E+00 0.  1.
</event>
<event>
 8    1  0.2553474E-006  0.9118800E+02  0.7816164E-02  0.1184000E+00
        -11   -1    0    0    0    0  0.00000000000E+00  0.00000000000E+00  0.45593999997E+02  0.45594000000E+02  0.51100000000E-03 0.  1.
         11   -1    0    0    0    0 -0.00000000000E+00 -0.00000000000E+00 -0.45593999997E+02  0.45594000000E+02  0.51100000000E-03 0. -1.
         23    2    1    2    0    0  0.00000000000E+00  0.17763568394E-14 -0.88817841970E-15  0.91188000000E+02  0.91188000000E+02 0.  0.
    9900012    2    3    3    0    0 -0.35518682569E+02 -0.96217324521E+01 -0.12748657025E+01  0.54367084349E+02  0.40000000390E+02 0.  0.
         12    1    3    3    0    0  0.35518682569E+02  0.96217324521E+01  0.12748657025E+01  0.36820915651E+02  0.00000000000E+00 0. -1.
         11    1    4    4    0    0 -0.15510194546E+02  0.15244735290E+01 -0.24025925706E+01  0.15769039467E+02  0.51100000000E-03 0. -1.
        -11    1    4    4    0    0 -0.20081427539E+02  0.34112882428E+01  0.87460854006E+01  0.22167422709E+02  0.51100000000E-03 0.  1.
         12    1    4    4    0    0  0.72939515555E-01 -0.14557494224E+02 -0.76183585325E+01  0.16430622173E+02  0.00000000000E+00 0. -1.
</event>
<event>
 8    1  0.2553474E-006  0.9118800E+02  0.7816164E-02  0.1184000E+00
        -11   -1    0    0    0    0  0.00000000000E+00  0.00000000000E+00  0.45593999997E+02  0.45594000000E+02  0.51100000000E-03 0. -1.
         11   -1    0    0    0    0 -0.00000000000E+00 -0.00000000000E+00 -0.45593999997E+02  0.45594000000E+02  0.51100000000E-03 0.  1.
         23    2    1    2    0    0 -0.44408920985E-15 -0.88817841970E-15  0.00000000000E+00  0.91188000000E+02  0.91188000000E+02 0.  0.
    9900012    2    3    3    0    0 -0.29134083436E+01  0.40634710045E+01  0.36479862602E+02  0.54367080400E+02  0.39999991387E+02 0.  0.
        -12    1    3    3    0    0  0.29134083436E+01 -0.40634710045E+01 -0.36479862602E+02  0.36820919600E+02  0.00000000000E+00 0.  1.
         11    1    4    4    0    0 -0.17396888018E+02  0.10669395735E+02  0.13017929785E+02  0.24206491158E+02  0.51100000000E-03 0. -1.
        -11    1    4    4    0    0  0.10467659581E+02 -0.41688538544E+00  0.85452975192E+01  0.13519164193E+02  0.51100000000E-03 0.  1.
         12    1    4    4    0    0  0.40158200929E+01 -0.61890393453E+01  0.14916635297E+02  0.16641425048E+02  0.00000000000E+00 0. -1.
</event>
<event>
 8    1  0.2553474E-006  0.9118800E+02  0.7816164E-02  0.1184000E+00
        -11   -1    0    0    0    0  0.00000000000E+00  0.00000000000E+00  0.45593999997E+02  0.45594000000E+02  0.51100000000E-03 0.  1.
         11   -1    0    0    0    0 -0.00000000000E+00 -0.00000000000E+00 -0.45593999997E+02  0.45594000000E+02  0.51100000000E-03 0. -1.
         23    2    1    2    0    0  0.17763568394E-14  0.71054273576E-14  0.00000000000E+00  0.91188000000E+02  0.91188000000E+02 0.  0.
    9900012    2    3    3    0    0 -0.90569237852E+01 -0.32423147897E+02 -0.14916093542E+02  0.54367106006E+02  0.40000049762E+02 0.  0.
        -12    1    3    3    0    0  0.90569237852E+01  0.32423147897E+02  0.14916093542E+02  0.36820893994E+02  0.00000000000E+00 0.  1.
         11    1    4    4    0    0  0.65859822651E+01 -0.17956254247E+02 -0.53996162528E+01  0.19873552398E+02  0.51100000000E-03 0. -1.
        -11    1    4    4    0    0 -0.32764642654E+01 -0.19514511174E+02 -0.61013351520E+01  0.20706947031E+02  0.51100000000E-03 0.  1.
        -12    1    4    4    0    0 -0.12366441785E+02  0.50476175245E+01 -0.34151421367E+01  0.13786606577E+02  0.00000000000E+00 0.  1.
</event>
<event>
 8    1  0.2553474E-006  0.9118800E+02  0.7816164E-02  0.1184000E+00
        -11   -1    0    0    0    0  0.00000000000E+00  0.00000000000E+00  0.45593999997E+02  0.45594000000E+02  0.51100000000E-03 0. -1.
         11   -1    0    0    0    0 -0.00000000000E+00 -0.00000000000E+00 -0.45593999997E+02  0.45594000000E+02  0.51100000000E-03 0.  1.
         23    2    1    2    0    0  0.00000000000E+00  0.00000000000E+00 -0.35527136788E-14  0.91188000000E+02  0.91188000000E+02 0.  0.
    9900012    2    3    3    0    0 -0.26748864374E+02 -0.16731787315E+02 -0.18982232400E+02  0.54367087478E+02  0.40000007524E+02 0.  0.
         12    1    3    3    0    0  0.26748864374E+02  0.16731787315E+02  0.18982232400E+02  0.36820912522E+02  0.00000000000E+00 0. -1.
         11    1    4    4    0    0 -0.15377977245E+02 -0.21256879553E+02  0.77899142375E+00  0.26247741625E+02  0.51100000000E-03 0. -1.
        -11    1    4    4    0    0 -0.18733209339E+01 -0.48020772339E+01 -0.11098841508E+02  0.12237383714E+02  0.51100000000E-03 0.  1.
         12    1    4    4    0    0 -0.94975661950E+01  0.93271694726E+01 -0.86623823158E+01  0.15881962139E+02  0.00000000000E+00 0. -1.
</event>
<event>
 8    1  0.2553474E-006  0.9118800E+02  0.7816164E-02  0.1184000E+00
        -11   -1    0    0    0    0  0.00000000000E+00  0.00000000000E+00  0.45593999997E+02  0.45594000000E+02  0.51100000000E-03 0.  1.
         11   -1    0    0    0    0 -0.00000000000E+00 -0.00000000000E+00 -0.45593999997E+02  0.45594000000E+02  0.51100000000E-03 0. -1.
         23    2    1    2    0    0 -0.17763568394E-14  0.00000000000E+00 -0.17763568394E-14  0.91188000000E+02  0.91188000000E+02 0.  0.
    9900012    2    3    3    0    0  0.96857554580E+01  0.32411886361E+02  0.14540833967E+02  0.54367080828E+02  0.39999992362E+02 0.  0.
         12    1    3    3    0    0 -0.96857554580E+01 -0.32411886361E+02 -0.14540833967E+02  0.36820919172E+02  0.00000000000E+00 0. -1.
         11    1    4    4    0    0 -0.52443674149E+01  0.13137795034E+02  0.14735568039E+01  0.14222391425E+02  0.51100000000E-03 0. -1.
        -11    1    4    4    0    0  0.52623055449E+01  0.20638253119E+02  0.19149624705E+02  0.28641534143E+02  0.51100000000E-03 0.  1.
         12    1    4    4    0    0  0.96678173279E+01 -0.13641617925E+01 -0.60823475425E+01  0.11503155259E+02  0.00000000000E+00 0. -1.
</event>
<event>
 8    1  0.2553474E-006  0.9118800E+02  0.7816164E-02  0.1184000E+00
        -11   -1    0    0    0    0  0.00000000000E+00  0.00000000000E+00  0.45593999997E+02  0.45594000000E+02  0.51100000000E-03 0. -1.
         11   -1    0    0    0    0 -0.00000000000E+00 -0.00000000000E+00 -0.45593999997E+02  0.45594000000E+02  0.51100000000E-03 0.  1.
         23    2    1    2    0    0  0.71054273576E-14  0.00000000000E+00  0.13322676296E-14  0.91188000000E+02  0.91188000000E+02 0.  0.
    9900012    2    3    3    0    0 -0.32916114918E+02  0.16458561101E+02 -0.11938977306E+01  0.54367078684E+02  0.39999987476E+02 0.  0.
        -12    1    3    3    0    0  0.32916114918E+02 -0.16458561101E+02  0.11938977306E+01  0.36820921316E+02  0.00000000000E+00 0.  1.
         11    1    4    4    0    0 -0.19566556438E+02  0.11271558084E+02 -0.31887241906E+01  0.22804958117E+02  0.51100000000E-03 0. -1.
        -11    1    4    4    0    0 -0.89079078711E+00 -0.58848984324E+01 -0.95738455185E+01  0.11273156437E+02  0.51100000000E-03 0.  1.
        -12    1    4    4    0    0 -0.12458767692E+02  0.11071901449E+02  0.11568671979E+02  0.20288964130E+02  0.00000000000E+00 0.  1.
</event>
<event>
 8    1  0.2553474E-006  0.9118800E+02  0.7816164E-02  0.1184000E+00
        -11   -1    0    0    0    0  0.00000000000E+00  0.00000000000E+00  0.45593999997E+02  0.45594000000E+02  0.51100000000E-03 0. -1.
         11   -1    0    0    0    0 -0.00000000000E+00 -0.00000000000E+00 -0.45593999997E+02  0.45594000000E+02  0.51100000000E-03 0.  1.
         23    2    1    2    0    0  0.00000000000E+00  0.88817841970E-15 -0.71054273576E-14  0.91188000000E+02  0.91188000000E+02 0.  0.
    9900012    2    3    3    0    0  0.25740888736E+01  0.26779306835E+01 -0.36633082004E+02  0.54367082801E+02  0.39999996861E+02 0.  0.
         12    1    3    3    0    0 -0.25740888736E+01 -0.26779306835E+01  0.36633082004E+02  0.36820917199E+02  0.00000000000E+00 0. -1.
         11    1    4    4    0    0 -0.40264229593E+01  0.22211187532E+01  0.62064635760E+01  0.77243537429E+01  0.51100000000E-03 0. -1.
        -11    1    4    4    0    0  0.74803688290E+01  0.78654467300E+01 -0.22590088584E+02  0.25062587108E+02  0.51100000000E-03 0.  1.
        -12    1    4    4    0    0 -0.87985699604E+00 -0.74086347996E+01 -0.20249456996E+02  0.21580141950E+02  0.00000000000E+00 0.  1.
</event>
<event>
 8    1  0.2553474E-006  0.9118800E+02  0.7816164E-02  0.1184000E+00
        -11   -1    0    0    0    0  0.00000000000E+00  0.00000000000E+00  0.45593999997E+02  0.45594000000E+02  0.51100000000E-03 0.  1.
         11   -1    0    0    0    0 -0.00000000000E+00 -0.00000000000E+00 -0.45593999997E+02  0.45594000000E+02  0.51100000000E-03 0. -1.
         23    2    1    2    0    0  0.00000000000E+00  0.35527136788E-14 -0.35527136788E-14  0.91188000000E+02  0.91188000000E+02 0.  0.
    9900012    2    3    3    0    0  0.10920243590E+02  0.28622504045E+02 -0.20427441815E+02  0.54367084246E+02  0.40000000155E+02 0.  0.
        -12    1    3    3    0    0 -0.10920243590E+02 -0.28622504045E+02  0.20427441815E+02  0.36820915754E+02  0.00000000000E+00 0.  1.
         11    1    4    4    0    0 -0.13024070335E+01  0.69689617270E+01  0.76814979564E+01  0.10453138416E+02  0.51100000000E-03 0.  1.
        -11    1    4    4    0    0  0.96810617394E+01 -0.19900334393E+01 -0.69386816095E+01  0.12075946846E+02  0.51100000000E-03 0. -1.
         12    1    4    4    0    0  0.25415888845E+01  0.23643575757E+02 -0.21170258161E+02  0.31837998984E+02  0.00000000000E+00 0. -1.
</event>
<event>
 8    1  0.2553474E-006  0.9118800E+02  0.7816164E-02  0.1184000E+00
        -11   -1    0    0    0    0  0.00000000000E+00  0.00000000000E+00  0.45593999997E+02  0.45594000000E+02  0.51100000000E-03 0.  1.
         11   -1    0    0    0    0 -0.00000000000E+00 -0.00000000000E+00 -0.45593999997E+02  0.45594000000E+02  0.51100000000E-03 0. -1.
         23    2    1    2    0    0  0.00000000000E+00  0.00000000000E+00  0.00000000000E+00  0.91188000000E+02  0.91188000000E+02 0.  0.
    9900012    2    3    3    0    0  0.13002619554E+02  0.32799591385E+02  0.10530903428E+02  0.54367065231E+02  0.39999956807E+02 0.  0.
         12    1    3    3    0    0 -0.13002619554E+02 -0.32799591385E+02 -0.10530903428E+02  0.36820934769E+02  0.00000000000E+00 0. -1.
         11    1    4    4    0    0  0.10822858481E+02  0.12993215826E+02  0.15214003613E+01  0.16978591889E+02  0.51100000000E-03 0. -1.
        -11    1    4    4    0    0  0.14603792789E+02  0.65107684658E+01  0.10502799367E+02  0.19130333626E+02  0.51100000000E-03 0.  1.
         12    1    4    4    0    0 -0.12424031716E+02  0.13295607093E+02 -0.14932963006E+01  0.18258139716E+02  0.00000000000E+00 0. -1.
</event>
<event>
 8    1  0.2553474E-006  0.9118800E+02  0.7816164E-02  0.1184000E+00
        -11   -1    0    0    0    0  0.00000000000E+00  0.00000000000E+00  0.45593999997E+02  0.45594000000E+02  0.51100000000E-03 0. -1.
         11   -1    0    0    0    0 -0.00000000000E+00 -0.00000000000E+00 -0.45593999997E+02  0.45594000000E+02  0.51100000000E-03 0.  1.
         23    2    1    2    0    0  0.00000000000E+00  0.00000000000E+00  0.15265566589E-15  0.91188000000E+02  0.91188000000E+02 0.  0.
    9900012    2    3    3    0    0  0.96541432643E+01 -0.35532565311E+02  0.12196968499E+00  0.54367074477E+02  0.39999977886E+02 0.  0.
        -12    1    3    3    0    0 -0.96541432643E+01  0.35532565311E+02 -0.12196968499E+00  0.36820925523E+02  0.00000000000E+00 0.  1.
         11    1    4    4    0    0  0.64215371736E+01 -0.13974214997E+02  0.15794184899E+02  0.22044752241E+02  0.51100000000E-03 0. -1.
        -11    1    4    4    0    0  0.58361176132E+00  0.16653824278E+00  0.33016106137E+01  0.33569287422E+01  0.51100000000E-03 0.  1.
        -12    1    4    4    0    0  0.26489943294E+01 -0.21724888556E+02 -0.18973825828E+02  0.28965393495E+02  0.00000000000E+00 0.  1.
</event>
<event>
 8    1  0.2553474E-006  0.9118800E+02  0.7816164E-02  0.1184000E+00
        -11   -1    0    0    0    0  0.00000000000E+00  0.00000000000E+00  0.45593999997E+02  0.45594000000E+02  0.51100000000E-03 0.  1.
         11   -1    0    0    0    0 -0.00000000000E+00 -0.00000000000E+00 -0.45593999997E+02  0.45594000000E+02  0.51100000000E-03 0. -1.
         23    2    1    2    0    0  0.00000000000E+00  0.00000000000E+00 -0.13322676296E-14  0.91188000000E+02  0.91188000000E+02 0.  0.
    9900012    2    3    3    0    0  0.65328760009E+01  0.36199463950E+02 -0.16436996662E+01  0.54367062916E+02  0.39999951530E+02 0.  0.
         12    1    3    3    0    0 -0.65328760009E+01 -0.36199463950E+02  0.16436996662E+01  0.36820937084E+02  0.00000000000E+00 0. -1.
         11    1    4    4    0    0  0.34129078014E+01  0.10462006708E+02  0.14757231203E+01  0.11103120418E+02  0.51100000000E-03 0. -1.
        -11    1    4    4    0    0 -0.34017920235E+01  0.31907642944E+00  0.12341894650E+02  0.12806106455E+02  0.51100000000E-03 0.  1.
         12    1    4    4    0    0  0.65217602229E+01  0.25418380813E+02 -0.15461317436E+02  0.30457836043E+02  0.00000000000E+00 0. -1.
</event>
<event>
 8    1  0.2553474E-006  0.9118800E+02  0.7816164E-02  0.1184000E+00
        -11   -1    0    0    0    0  0.00000000000E+00  0.00000000000E+00  0.45593999997E+02  0.45594000000E+02  0.51100000000E-03 0. -1.
         11   -1    0    0    0    0 -0.00000000000E+00 -0.00000000000E+00 -0.45593999997E+02  0.45594000000E+02  0.51100000000E-03 0.  1.
         23    2    1    2    0    0 -0.26645352591E-14  0.00000000000E+00  0.00000000000E+00  0.91188000000E+02  0.91188000000E+02 0.  0.
    9900012    2    3    3    0    0  0.73119856831E+01  0.31283979941E+02  0.17989638059E+02  0.54367087286E+02  0.40000007087E+02 0.  0.
        -12    1    3    3    0    0 -0.73119856831E+01 -0.31283979941E+02 -0.17989638059E+02  0.36820912714E+02  0.00000000000E+00 0.  1.
         11    1    4    4    0    0 -0.58160407342E+01  0.13217677027E+02  0.28923070820E+01  0.14727483027E+02  0.51100000000E-03 0. -1.
        -11    1    4    4    0    0 -0.12795781925E+01 -0.73361235537E+01  0.29330899027E+01  0.80036895108E+01  0.51100000000E-03 0.  1.
         12    1    4    4    0    0  0.14407604610E+02  0.25402426468E+02  0.12164241074E+02  0.31635914748E+02  0.00000000000E+00 0. -1.
</event>
<event>
 8    1  0.2553474E-006  0.9118800E+02  0.7816164E-02  0.1184000E+00
        -11   -1    0    0    0    0  0.00000000000E+00  0.00000000000E+00  0.45593999997E+02  0.45594000000E+02  0.51100000000E-03 0.  1.
         11   -1    0    0    0    0 -0.00000000000E+00 -0.00000000000E+00 -0.45593999997E+02  0.45594000000E+02  0.51100000000E-03 0. -1.
         23    2    1    2    0    0  0.00000000000E+00  0.00000000000E+00  0.00000000000E+00  0.91188000000E+02  0.91188000000E+02 0.  0.
    9900012    2    3    3    0    0 -0.22747270458E+02  0.17105535199E+02 -0.23361129241E+02  0.54367081935E+02  0.39999994886E+02 0.  0.
        -12    1    3    3    0    0  0.22747270458E+02 -0.17105535199E+02  0.23361129241E+02  0.36820918065E+02  0.00000000000E+00 0.  1.
         11    1    4    4    0    0 -0.69508007538E+01  0.50730486297E+01 -0.78927860082E+01  0.11676708644E+02  0.51100000000E-03 0. -1.
        -11    1    4    4    0    0 -0.24366474124E+02  0.80579173981E+01 -0.19685888263E+02  0.32344849528E+02  0.51100000000E-03 0.  1.
        -12    1    4    4    0    0  0.85700044197E+01  0.39745691713E+01  0.42175450296E+01  0.10345523763E+02  0.00000000000E+00 0.  1.
</event>
<event>
 8    1  0.2553474E-006  0.9118800E+02  0.7816164E-02  0.1184000E+00
        -11   -1    0    0    0    0  0.00000000000E+00  0.00000000000E+00  0.45593999997E+02  0.45594000000E+02  0.51100000000E-03 0. -1.
         11   -1    0    0    0    0 -0.00000000000E+00 -0.00000000000E+00 -0.45593999997E+02  0.45594000000E+02  0.51100000000E-03 0.  1.
         23    2    1    2    0    0  0.35527136788E-14  0.00000000000E+00  0.00000000000E+00  0.91188000000E+02  0.91188000000E+02 0.  0.
    9900012    2    3    3    0    0 -0.17296741334E+02  0.27444409770E+02  0.17418599533E+02  0.54367075269E+02  0.39999979690E+02 0.  0.
        -12    1    3    3    0    0  0.17296741334E+02 -0.27444409770E+02 -0.17418599533E+02  0.36820924731E+02  0.00000000000E+00 0.  1.
         11    1    4    4    0    0 -0.85715831208E+01  0.39301150070E+00 -0.28194535589E+01  0.90319330085E+01  0.51100000000E-03 0. -1.
        -11    1    4    4    0    0 -0.17330421913E+02  0.78920779502E+01  0.60184007091E+01  0.19971218425E+02  0.51100000000E-03 0.  1.
         12    1    4    4    0    0  0.86052636995E+01  0.19159320319E+02  0.14219652382E+02  0.25363923835E+02  0.00000000000E+00 0. -1.
</event>
<event>
 8    1  0.2553474E-006  0.9118800E+02  0.7816164E-02  0.1184000E+00
        -11   -1    0    0    0    0  0.00000000000E+00  0.00000000000E+00  0.45593999997E+02  0.45594000000E+02  0.51100000000E-03 0.  1.
         11   -1    0    0    0    0 -0.00000000000E+00 -0.00000000000E+00 -0.45593999997E+02  0.45594000000E+02  0.51100000000E-03 0. -1.
         23    2    1    2    0    0  0.35527136788E-14 -0.35527136788E-14  0.00000000000E+00  0.91188000000E+02  0.91188000000E+02 0.  0.
    9900012    2    3    3    0    0 -0.25514158258E+02  0.26527078499E+02 -0.10594961551E+01  0.54367072562E+02  0.39999973519E+02 0.  0.
         12    1    3    3    0    0  0.25514158258E+02 -0.26527078499E+02  0.10594961551E+01  0.36820927438E+02  0.00000000000E+00 0. -1.
         11    1    4    4    0    0  0.30721324801E+01 -0.18415262464E+01 -0.53306833508E+01  0.64222583363E+01  0.51100000000E-03 0. -1.
        -11    1    4    4    0    0 -0.54115555283E+01  0.14061743578E+02  0.12409657671E+02  0.19519661100E+02  0.51100000000E-03 0.  1.
         12    1    4    4    0    0 -0.23174735210E+02  0.14306861167E+02 -0.81384704756E+01  0.28425153125E+02  0.00000000000E+00 0. -1.
</event>
<event>
 8    1  0.2553474E-006  0.9118800E+02  0.7816164E-02  0.1184000E+00
        -11   -1    0    0    0    0  0.00000000000E+00  0.00000000000E+00  0.45593999997E+02  0.45594000000E+02  0.51100000000E-03 0.  1.
         11   -1    0    0    0    0 -0.00000000000E+00 -0.00000000000E+00 -0.45593999997E+02  0.45594000000E+02  0.51100000000E-03 0. -1.
         23    2    1    2    0    0 -0.35527136788E-14  0.35527136788E-14  0.17763568394E-14  0.91188000000E+02  0.91188000000E+02 0.  0.
    9900012    2    3    3    0    0 -0.23522965976E+02  0.26956553623E+02  0.87060401579E+01  0.54367070534E+02  0.39999968895E+02 0.  0.
         12    1    3    3    0    0  0.23522965976E+02 -0.26956553623E+02 -0.87060401579E+01  0.36820929466E+02  0.00000000000E+00 0. -1.
         11    1    4    4    0    0  0.20788262776E+01  0.14537995353E+02 -0.83443245849E+01  0.16890902303E+02  0.51100000000E-03 0. -1.
        -11    1    4    4    0    0  0.11277441197E+00 -0.17284968033E+01  0.57856358205E+01  0.60393709420E+01  0.51100000000E-03 0.  1.
        -12    1    4    4    0    0 -0.25714566666E+02  0.14147055073E+02  0.11264728922E+02  0.31436797288E+02  0.00000000000E+00 0.  1.
</event>
<event>
 8    1  0.2553474E-006  0.9118800E+02  0.7816164E-02  0.1184000E+00
        -11   -1    0    0    0    0  0.00000000000E+00  0.00000000000E+00  0.45593999997E+02  0.45594000000E+02  0.51100000000E-03 0.  1.
         11   -1    0    0    0    0 -0.00000000000E+00 -0.00000000000E+00 -0.45593999997E+02  0.45594000000E+02  0.51100000000E-03 0. -1.
         23    2    1    2    0    0  0.00000000000E+00  0.17763568394E-14  0.00000000000E+00  0.91188000000E+02  0.91188000000E+02 0.  0.
    9900012    2    3    3    0    0  0.22141231840E+02  0.85786602801E+01 -0.28141643906E+02  0.54367086360E+02  0.40000004974E+02 0.  0.
        -12    1    3    3    0    0 -0.22141231840E+02 -0.85786602801E+01  0.28141643906E+02  0.36820913640E+02  0.00000000000E+00 0.  1.
         11    1    4    4    0    0  0.18938496199E+02  0.16463882739E+02 -0.91089197810E+01  0.26696413485E+02  0.51100000000E-03 0. -1.
        -11    1    4    4    0    0 -0.51424312665E+01  0.27154120589E+00  0.22359438473E+00  0.51544474648E+01  0.51100000000E-03 0.  1.
        -12    1    4    4    0    0  0.83451669072E+01 -0.81567636643E+01 -0.19256318509E+02  0.22516225410E+02  0.00000000000E+00 0.  1.
</event>
<event>
 8    1  0.2553474E-006  0.9118800E+02  0.7816164E-02  0.1184000E+00
        -11   -1    0    0    0    0  0.00000000000E+00  0.00000000000E+00  0.45593999997E+02  0.45594000000E+02  0.51100000000E-03 0. -1.
         11   -1    0    0    0    0 -0.00000000000E+00 -0.00000000000E+00 -0.45593999997E+02  0.45594000000E+02  0.51100000000E-03 0.  1.
         23    2    1    2    0    0  0.71054273576E-14 -0.35527136788E-14  0.00000000000E+00  0.91188000000E+02  0.91188000000E+02 0.  0.
    9900012    2    3    3    0    0 -0.28740956088E+02  0.20337920997E+02  0.10775269848E+02  0.54367081657E+02  0.39999994254E+02 0.  0.
        -12    1    3    3    0    0  0.28740956088E+02 -0.20337920997E+02 -0.10775269848E+02  0.36820918343E+02  0.00000000000E+00 0.  1.
         11    1    4    4    0    0 -0.15179970736E+02  0.79579352498E+01 -0.69181361837E+01  0.18482988219E+02  0.51100000000E-03 0. -1.
        -11    1    4    4    0    0  0.74586888368E+01  0.38342621181E+01  0.63300765647E+01  0.10507305779E+02  0.51100000000E-03 0.  1.
        -12    1    4    4    0    0 -0.21019674189E+02  0.85457236287E+01  0.11363329467E+02  0.25376787660E+02  0.00000000000E+00 0.  1.
</event>
<event>
 8    1  0.2553474E-006  0.9118800E+02  0.7816164E-02  0.1184000E+00
        -11   -1    0    0    0    0  0.00000000000E+00  0.00000000000E+00  0.45593999997E+02  0.45594000000E+02  0.51100000000E-03 0.  1.
         11   -1    0    0    0    0 -0.00000000000E+00 -0.00000000000E+00 -0.45593999997E+02  0.45594000000E+02  0.51100000000E-03 0. -1.
         23    2    1    2    0    0  0.00000000000E+00  0.00000000000E+00  0.00000000000E+00  0.91188000000E+02  0.91188000000E+02 0.  0.
    9900012    2    3    3    0    0  0.24813863487E+02 -0.51330855734E+01 -0.26715244492E+02  0.54367072840E+02  0.39999974154E+02 0.  0.
        -12    1    3    3    0    0 -0.24813863487E+02  0.51330855734E+01  0.26715244492E+02  0.36820927160E+02  0.00000000000E+00 0.  1.
         11    1    4    4    0    0  0.81891187089E+01  0.85145642153E+01 -0.11889830192E+02  0.16760892913E+02  0.51100000000E-03 0. -1.
        -11    1    4    4    0    0  0.14793022043E+02  0.51358709057E+01 -0.59608703727E+01  0.16755376659E+02  0.51100000000E-03 0.  1.
        -12    1    4    4    0    0  0.18317227351E+01 -0.18783520694E+02 -0.88645439270E+01  0.20850803267E+02  0.00000000000E+00 0.  1.
</event>
<event>
 8    1  0.2553474E-006  0.9118800E+02  0.7816164E-02  0.1184000E+00
        -11   -1    0    0    0    0  0.00000000000E+00  0.00000000000E+00  0.45593999997E+02  0.45594000000E+02  0.51100000000E-03 0.  1.
         11   -1    0    0    0    0 -0.00000000000E+00 -0.00000000000E+00 -0.45593999997E+02  0.45594000000E+02  0.51100000000E-03 0. -1.
         23    2    1    2    0    0 -0.44408920985E-15  0.00000000000E+00  0.00000000000E+00  0.91188000000E+02  0.91188000000E+02 0.  0.
    9900012    2    3    3    0    0 -0.35973299291E+01  0.34429079951E+02 -0.12549020528E+02  0.54367078703E+02  0.39999987520E+02 0.  0.
        -12    1    3    3    0    0  0.35973299291E+01 -0.34429079951E+02  0.12549020528E+02  0.36820921297E+02  0.00000000000E+00 0.  1.
         11    1    4    4    0    0 -0.13600692101E+01  0.11175809323E+02  0.12204589082E+01  0.11324222821E+02  0.51100000000E-03 0. -1.
        -11    1    4    4    0    0  0.13993917196E+02  0.53666757096E+01  0.48765264951E+00  0.14995623762E+02  0.51100000000E-03 0.  1.
        -12    1    4    4    0    0 -0.16231177915E+02  0.17886594919E+02 -0.14257132086E+02  0.28047232120E+02  0.00000000000E+00 0.  1.
</event>
<event>
 8    1  0.2553474E-006  0.9118800E+02  0.7816164E-02  0.1184000E+00
        -11   -1    0    0    0    0  0.00000000000E+00  0.00000000000E+00  0.45593999997E+02  0.45594000000E+02  0.51100000000E-03 0.  1.
         11   -1    0    0    0    0 -0.00000000000E+00 -0.00000000000E+00 -0.45593999997E+02  0.45594000000E+02  0.51100000000E-03 0. -1.
         23    2    1    2    0    0  0.00000000000E+00  0.00000000000E+00  0.00000000000E+00  0.91188000000E+02  0.91188000000E+02 0.  0.
    9900012    2    3    3    0    0 -0.80645677985E+01  0.10622383240E+02  0.34320655268E+02  0.54367086683E+02  0.40000005712E+02 0.  0.
         12    1    3    3    0    0  0.80645677985E+01 -0.10622383240E+02 -0.34320655268E+02  0.36820913317E+02  0.00000000000E+00 0. -1.
         11    1    4    4    0    0 -0.42059853720E+01  0.94257557685E+01 -0.27674362998E+00  0.10325297674E+02  0.51100000000E-03 0. -1.
        -11    1    4    4    0    0  0.56300820797E+01  0.66278908072E+01  0.10521001906E+01  0.87597760159E+01  0.51100000000E-03 0.  1.
        -12    1    4    4    0    0 -0.94886645062E+01 -0.54312633360E+01  0.33545298707E+02  0.35282012994E+02  0.00000000000E+00 0.  1.
</event>
<event>
 8    1  0.2553474E-006  0.9118800E+02  0.7816164E-02  0.1184000E+00
        -11   -1    0    0    0    0  0.00000000000E+00  0.00000000000E+00  0.45593999997E+02  0.45594000000E+02  0.51100000000E-03 0.  1.
         11   -1    0    0    0    0 -0.00000000000E+00 -0.00000000000E+00 -0.45593999997E+02  0.45594000000E+02  0.51100000000E-03 0. -1.
         23    2    1    2    0    0  0.00000000000E+00  0.35527136788E-14  0.71054273576E-14  0.91188000000E+02  0.91188000000E+02 0.  0.
    9900012    2    3    3    0    0  0.21101861762E+01  0.98525223295E+01  0.35415495781E+02  0.54367049125E+02  0.39999920090E+02 0.  0.
         12    1    3    3    0    0 -0.21101861762E+01 -0.98525223295E+01 -0.35415495781E+02  0.36820950875E+02  0.00000000000E+00 0. -1.
         11    1    4    4    0    0  0.16823963744E+01  0.90481570276E+00 -0.76524941366E+01  0.78873199370E+01  0.51100000000E-03 0. -1.
        -11    1    4    4    0    0  0.32768518694E+01 -0.24731488944E+01  0.42194936485E+01  0.58871343232E+01  0.51100000000E-03 0.  1.
        -12    1    4    4    0    0 -0.28490620676E+01  0.11420855521E+02  0.38848496269E+02  0.40592594865E+02  0.00000000000E+00 0.  1.
</event>
<event>
 8    1  0.2553474E-006  0.9118800E+02  0.7816164E-02  0.1184000E+00
        -11   -1    0    0    0    0  0.00000000000E+00  0.00000000000E+00  0.45593999997E+02  0.45594000000E+02  0.51100000000E-03 0.  1.
         11   -1    0    0    0    0 -0.00000000000E+00 -0.00000000000E+00 -0.45593999997E+02  0.45594000000E+02  0.51100000000E-03 0. -1.
         23    2    1    2    0    0  0.00000000000E+00  0.00000000000E+00 -0.17763568394E-14  0.91188000000E+02  0.91188000000E+02 0.  0.
    9900012    2    3    3    0    0 -0.31503229795E+02  0.17879114080E+02  0.66079808804E+01  0.54367060046E+02  0.39999944987E+02 0.  0.
        -12    1    3    3    0    0  0.31503229795E+02 -0.17879114080E+02 -0.66079808804E+01  0.36820939954E+02  0.00000000000E+00 0.  1.
         11    1    4    4    0    0 -0.21768678893E+02  0.24120676787E+01 -0.42157804186E-01  0.21901945776E+02  0.51100000000E-03 0. -1.
        -11    1    4    4    0    0  0.50370737815E+01  0.43733248908E+01 -0.68676169842E+01  0.95740402226E+01  0.51100000000E-03 0.  1.
         12    1    4    4    0    0 -0.14771624683E+02  0.11093721510E+02  0.13517755669E+02  0.22891074047E+02  0.00000000000E+00 0. -1.
</event>
<event>
 8    1  0.2553474E-006  0.9118800E+02  0.7816164E-02  0.1184000E+00
        -11   -1    0    0    0    0  0.00000000000E+00  0.00000000000E+00  0.45593999997E+02  0.45594000000E+02  0.51100000000E-03 0.  1.
         11   -1    0    0    0    0 -0.00000000000E+00 -0.00000000000E+00 -0.45593999997E+02  0.45594000000E+02  0.51100000000E-03 0. -1.
         23    2    1    2    0    0  0.17763568394E-14  0.00000000000E+00  0.35527136788E-14  0.91188000000E+02  0.91188000000E+02 0.  0.
    9900012    2    3    3    0    0  0.11014846103E+02  0.33201453677E+02 -0.11494190593E+02  0.54367085043E+02  0.40000001971E+02 0.  0.
        -12    1    3    3    0    0 -0.11014846103E+02 -0.33201453677E+02  0.11494190593E+02  0.36820914957E+02  0.00000000000E+00 0.  1.
         11    1    4    4    0    0  0.15137928137E+02  0.22423877570E+02  0.64244769779E+01  0.27807571959E+02  0.51100000000E-03 0. -1.
        -11    1    4    4    0    0 -0.48480020022E+01  0.99693843266E+01 -0.28424669815E+01  0.11444272195E+02  0.51100000000E-03 0.  1.
         12    1    4    4    0    0  0.72491996766E+00  0.80819177997E+00 -0.15076200589E+02  0.15115240888E+02  0.00000000000E+00 0. -1.
</event>
<event>
 8    1  0.2553474E-006  0.9118800E+02  0.7816164E-02  0.1184000E+00
        -11   -1    0    0    0    0  0.00000000000E+00  0.00000000000E+00  0.45593999997E+02  0.45594000000E+02  0.51100000000E-03 0. -1.
         11   -1    0    0    0    0 -0.00000000000E+00 -0.00000000000E+00 -0.45593999997E+02  0.45594000000E+02  0.51100000000E-03 0.  1.
         23    2    1    2    0    0  0.00000000000E+00  0.00000000000E+00 -0.88817841970E-15  0.91188000000E+02  0.91188000000E+02 0.  0.
    9900012    2    3    3    0    0 -0.12628101253E+02  0.34111505768E+02 -0.57195504943E+01  0.54367122432E+02  0.40000087207E+02 0.  0.
        -12    1    3    3    0    0  0.12628101253E+02 -0.34111505768E+02  0.57195504943E+01  0.36820877568E+02  0.00000000000E+00 0.  1.
         11    1    4    4    0    0 -0.94055164830E+01  0.17798255855E+02  0.17395308538E+01  0.20205633364E+02  0.51100000000E-03 0. -1.
        -11    1    4    4    0    0  0.10383797919E+02  0.12058650920E+02 -0.11155533261E+02  0.19433997114E+02  0.51100000000E-03 0.  1.
         12    1    4    4    0    0 -0.13606382689E+02  0.42545989931E+01  0.36964519127E+01  0.14727491953E+02  0.00000000000E+00 0. -1.
</event>
<event>
 8    1  0.2553474E-006  0.9118800E+02  0.7816164E-02  0.1184000E+00
        -11   -1    0    0    0    0  0.00000000000E+00  0.00000000000E+00  0.45593999997E+02  0.45594000000E+02  0.51100000000E-03 0. -1.
         11   -1    0    0    0    0 -0.00000000000E+00 -0.00000000000E+00 -0.45593999997E+02  0.45594000000E+02  0.51100000000E-03 0.  1.
         23    2    1    2    0    0  0.35527136788E-14 -0.35527136788E-14  0.00000000000E+00  0.91188000000E+02  0.91188000000E+02 0.  0.
    9900012    2    3    3    0    0 -0.25440484617E+02 -0.23233039304E+02  0.12991780198E+02  0.54367099338E+02  0.40000034560E+02 0.  0.
        -12    1    3    3    0    0  0.25440484617E+02  0.23233039304E+02 -0.12991780198E+02  0.36820900662E+02  0.00000000000E+00 0.  1.
         11    1    4    4    0    0 -0.56888210693E+01 -0.14792719663E+02  0.27177864956E+01  0.16080224000E+02  0.51100000000E-03 0. -1.
        -11    1    4    4    0    0  0.76386506145E+01  0.98750066159E+00  0.38707815576E+01  0.86201560830E+01  0.51100000000E-03 0.  1.
        -12    1    4    4    0    0 -0.27390314162E+02 -0.94278203028E+01  0.64032121449E+01  0.29666719255E+02  0.00000000000E+00 0.  1.
</event>
<event>
 8    1  0.2553474E-006  0.9118800E+02  0.7816164E-02  0.1184000E+00
        -11   -1    0    0    0    0  0.00000000000E+00  0.00000000000E+00  0.45593999997E+02  0.45594000000E+02  0.51100000000E-03 0. -1.
         11   -1    0    0    0    0 -0.00000000000E+00 -0.00000000000E+00 -0.45593999997E+02  0.45594000000E+02  0.51100000000E-03 0.  1.
         23    2    1    2    0    0  0.00000000000E+00  0.00000000000E+00  0.17763568394E-14  0.91188000000E+02  0.91188000000E+02 0.  0.
    9900012    2    3    3    0    0 -0.30465039325E+02  0.18288341254E+02  0.96539414456E+01  0.54367073445E+02  0.39999975533E+02 0.  0.
        -12    1    3    3    0    0  0.30465039325E+02 -0.18288341254E+02 -0.96539414456E+01  0.36820926555E+02  0.00000000000E+00 0.  1.
         11    1    4    4    0    0 -0.17462341852E+02  0.15420665714E+02 -0.10877513814E+02  0.25710904711E+02  0.51100000000E-03 0. -1.
        -11    1    4    4    0    0 -0.43961558289E+00  0.66288139147E+01  0.90477139849E+01  0.11224774581E+02  0.51100000000E-03 0.  1.
         12    1    4    4    0    0 -0.12563081891E+02 -0.37611383745E+01  0.11483741275E+02  0.17431394153E+02  0.00000000000E+00 0. -1.
</event>
<event>
 8    1  0.2553474E-006  0.9118800E+02  0.7816164E-02  0.1184000E+00
        -11   -1    0    0    0    0  0.00000000000E+00  0.00000000000E+00  0.45593999997E+02  0.45594000000E+02  0.51100000000E-03 0. -1.
         11   -1    0    0    0    0 -0.00000000000E+00 -0.00000000000E+00 -0.45593999997E+02  0.45594000000E+02  0.51100000000E-03 0.  1.
         23    2    1    2    0    0  0.00000000000E+00  0.00000000000E+00 -0.22204460493E-14  0.91188000000E+02  0.91188000000E+02 0.  0.
    9900012    2    3    3    0    0 -0.22258825328E+01 -0.36703987693E+02  0.19088729819E+01  0.54367067615E+02  0.39999962242E+02 0.  0.
         12    1    3    3    0    0  0.22258825328E+01  0.36703987693E+02 -0.19088729819E+01  0.36820932385E+02  0.00000000000E+00 0. -1.
         11    1    4    4    0    0  0.27742868665E+00 -0.15753974108E+02 -0.13667662270E+02  0.20858323496E+02  0.51100000000E-03 0. -1.
        -11    1    4    4    0    0  0.49075437304E+01 -0.12712064585E+02 -0.89618966478E+00  0.13655904498E+02  0.51100000000E-03 0.  1.
         12    1    4    4    0    0 -0.74108549498E+01 -0.82379490005E+01  0.16472724917E+02  0.19852839621E+02  0.00000000000E+00 0. -1.
</event>
<event>
 8    1  0.2553474E-006  0.9118800E+02  0.7816164E-02  0.1184000E+00
        -11   -1    0    0    0    0  0.00000000000E+00  0.00000000000E+00  0.45593999997E+02  0.45594000000E+02  0.51100000000E-03 0.  1.
         11   -1    0    0    0    0 -0.00000000000E+00 -0.00000000000E+00 -0.45593999997E+02  0.45594000000E+02  0.51100000000E-03 0. -1.
         23    2    1    2    0    0  0.35527136788E-14 -0.71054273576E-14 -0.17763568394E-14  0.91188000000E+02  0.91188000000E+02 0.  0.
    9900012    2    3    3    0    0 -0.23781858609E+02  0.24721508652E+02  0.13381036362E+02  0.54367055919E+02  0.39999935578E+02 0.  0.
         12    1    3    3    0    0  0.23781858609E+02 -0.24721508652E+02 -0.13381036362E+02  0.36820944081E+02  0.00000000000E+00 0. -1.
         11    1    4    4    0    0 -0.10324234141E+02  0.14055860662E+01 -0.21736208314E+01  0.10643782719E+02  0.51100000000E-03 0. -1.
        -11    1    4    4    0    0 -0.17250564269E+02  0.28125161936E+02  0.17433436296E+02  0.37316637079E+02  0.51100000000E-03 0.  1.
         12    1    4    4    0    0  0.37929398014E+01 -0.48092393507E+01 -0.18787791028E+01  0.64066361210E+01  0.00000000000E+00 0. -1.
</event>
<event>
 8    1  0.2553474E-006  0.9118800E+02  0.7816164E-02  0.1184000E+00
        -11   -1    0    0    0    0  0.00000000000E+00  0.00000000000E+00  0.45593999997E+02  0.45594000000E+02  0.51100000000E-03 0.  1.
         11   -1    0    0    0    0 -0.00000000000E+00 -0.00000000000E+00 -0.45593999997E+02  0.45594000000E+02  0.51100000000E-03 0. -1.
         23    2    1    2    0    0 -0.35527136788E-14 -0.44408920985E-15  0.00000000000E+00  0.91188000000E+02  0.91188000000E+02 0.  0.
    9900012    2    3    3    0    0 -0.20005826428E+02 -0.38631148318E+01  0.30669585131E+02  0.54367079325E+02  0.39999988936E+02 0.  0.
         12    1    3    3    0    0  0.20005826428E+02  0.38631148318E+01 -0.30669585131E+02  0.36820920675E+02  0.00000000000E+00 0. -1.
         11    1    4    4    0    0  0.45771068758E+01 -0.74983746707E+01  0.25600179436E+02  0.27065563313E+02  0.51100000000E-03 0.  1.
        -11    1    4    4    0    0 -0.15875329344E+01 -0.21659993618E+01  0.20824071178E+01  0.33982692240E+01  0.51100000000E-03 0. -1.
         12    1    4    4    0    0 -0.22995400370E+02  0.58012592007E+01  0.29869985772E+01  0.23903246787E+02  0.00000000000E+00 0. -1.
</event>
<event>
 8    1  0.2553474E-006  0.9118800E+02  0.7816164E-02  0.1184000E+00
        -11   -1    0    0    0    0  0.00000000000E+00  0.00000000000E+00  0.45593999997E+02  0.45594000000E+02  0.51100000000E-03 0.  1.
         11   -1    0    0    0    0 -0.00000000000E+00 -0.00000000000E+00 -0.45593999997E+02  0.45594000000E+02  0.51100000000E-03 0. -1.
         23    2    1    2    0    0  0.00000000000E+00  0.00000000000E+00  0.00000000000E+00  0.91188000000E+02  0.91188000000E+02 0.  0.
    9900012    2    3    3    0    0  0.34565449131E+02 -0.40551142900E+01 -0.12023636806E+02  0.54367053956E+02  0.39999931103E+02 0.  0.
         12    1    3    3    0    0 -0.34565449131E+02  0.40551142900E+01  0.12023636806E+02  0.36820946044E+02  0.00000000000E+00 0. -1.
         11    1    4    4    0    0 -0.24114485544E+01 -0.54844166405E+01 -0.74865695543E+01  0.95886721693E+01  0.51100000000E-03 0. -1.
        -11    1    4    4    0    0  0.13869975150E+02  0.33869698606E+01 -0.13753436249E+02  0.19824348272E+02  0.51100000000E-03 0.  1.
        -12    1    4    4    0    0  0.23106922536E+02 -0.19576675100E+01  0.92163689970E+01  0.24954033514E+02  0.00000000000E+00 0.  1.
</event>
<event>
 8    1  0.2553474E-006  0.9118800E+02  0.7816164E-02  0.1184000E+00
        -11   -1    0    0    0    0  0.00000000000E+00  0.00000000000E+00  0.45593999997E+02  0.45594000000E+02  0.51100000000E-03 0. -1.
         11   -1    0    0    0    0 -0.00000000000E+00 -0.00000000000E+00 -0.45593999997E+02  0.45594000000E+02  0.51100000000E-03 0.  1.
         23    2    1    2    0    0  0.00000000000E+00 -0.13322676296E-14  0.00000000000E+00  0.91188000000E+02  0.91188000000E+02 0.  0.
    9900012    2    3    3    0    0 -0.19156011021E+02  0.12246976985E+01  0.31421761617E+02  0.54367085484E+02  0.40000002978E+02 0.  0.
        -12    1    3    3    0    0  0.19156011021E+02 -0.12246976985E+01 -0.31421761617E+02  0.36820914516E+02  0.00000000000E+00 0.  1.
         11    1    4    4    0    0 -0.12627944894E+02  0.12354485031E+02  0.12683697974E+02  0.21747976622E+02  0.51100000000E-03 0. -1.
        -11    1    4    4    0    0  0.36378788878E+01 -0.33821065741E+01 -0.41045326700E+01  0.64436011966E+01  0.51100000000E-03 0.  1.
        -12    1    4    4    0    0 -0.10165945015E+02 -0.77476807587E+01  0.22842596313E+02  0.26175507665E+02  0.00000000000E+00 0.  1.
</event>
<event>
 8    1  0.2553474E-006  0.9118800E+02  0.7816164E-02  0.1184000E+00
        -11   -1    0    0    0    0  0.00000000000E+00  0.00000000000E+00  0.45593999997E+02  0.45594000000E+02  0.51100000000E-03 0.  1.
         11   -1    0    0    0    0 -0.00000000000E+00 -0.00000000000E+00 -0.45593999997E+02  0.45594000000E+02  0.51100000000E-03 0. -1.
         23    2    1    2    0    0  0.17763568394E-14  0.00000000000E+00  0.00000000000E+00  0.91188000000E+02  0.91188000000E+02 0.  0.
    9900012    2    3    3    0    0 -0.12569323561E+02  0.11744706891E+02 -0.32555401812E+02  0.54367079019E+02  0.39999988241E+02 0.  0.
        -12    1    3    3    0    0  0.12569323561E+02 -0.11744706891E+02  0.32555401812E+02  0.36820920981E+02  0.00000000000E+00 0.  1.
         11    1    4    4    0    0  0.54412545116E+01  0.18211540240E+02 -0.19948821906E+02  0.27554000513E+02  0.51100000000E-03 0. -1.
        -11    1    4    4    0    0 -0.25170550093E+01  0.18808763324E+01  0.21818842735E+01  0.38254255896E+01  0.51100000000E-03 0.  1.
        -12    1    4    4    0    0 -0.15493523063E+02 -0.83477096817E+01 -0.14788464179E+02  0.22987652917E+02  0.00000000000E+00 0.  1.
</event>
<event>
 8    1  0.2553474E-006  0.9118800E+02  0.7816164E-02  0.1184000E+00
        -11   -1    0    0    0    0  0.00000000000E+00  0.00000000000E+00  0.45593999997E+02  0.45594000000E+02  0.51100000000E-03 0. -1.
         11   -1    0    0    0    0 -0.00000000000E+00 -0.00000000000E+00 -0.45593999997E+02  0.45594000000E+02  0.51100000000E-03 0.  1.
         23    2    1    2    0    0  0.00000000000E+00 -0.88817841970E-15 -0.35527136788E-14  0.91188000000E+02  0.91188000000E+02 0.  0.
    9900012    2    3    3    0    0 -0.29611209214E+02  0.56569250321E+01  0.21141325464E+02  0.54367079937E+02  0.39999990332E+02 0.  0.
        -12    1    3    3    0    0  0.29611209214E+02 -0.56569250321E+01 -0.21141325464E+02  0.36820920063E+02  0.00000000000E+00 0.  1.
         11    1    4    4    0    0 -0.16503243924E+02 -0.20675000361E+01  0.12216708359E+02  0.20636850046E+02  0.51100000000E-03 0. -1.
        -11    1    4    4    0    0 -0.11342528841E+02  0.62967055599E+01  0.19219382583E+02  0.23188060043E+02  0.51100000000E-03 0.  1.
        -12    1    4    4    0    0 -0.17654364486E+01  0.14277195083E+01 -0.10294765478E+02  0.10542169848E+02  0.00000000000E+00 0.  1.
</event>
<event>
 8    1  0.2553474E-006  0.9118800E+02  0.7816164E-02  0.1184000E+00
        -11   -1    0    0    0    0  0.00000000000E+00  0.00000000000E+00  0.45593999997E+02  0.45594000000E+02  0.51100000000E-03 0.  1.
         11   -1    0    0    0    0 -0.00000000000E+00 -0.00000000000E+00 -0.45593999997E+02  0.45594000000E+02  0.51100000000E-03 0. -1.
         23    2    1    2    0    0  0.00000000000E+00 -0.17763568394E-14  0.00000000000E+00  0.91188000000E+02  0.91188000000E+02 0.  0.
    9900012    2    3    3    0    0  0.11135534093E+02 -0.14688352550E+02  0.31875194963E+02  0.54367138059E+02  0.40000122833E+02 0.  0.
         12    1    3    3    0    0 -0.11135534093E+02  0.14688352550E+02 -0.31875194963E+02  0.36820861941E+02  0.00000000000E+00 0. -1.
         11    1    4    4    0    0  0.70737802421E+01  0.78461529449E+01  0.64650238493E+01  0.12385354924E+02  0.51100000000E-03 0. -1.
        -11    1    4    4    0    0  0.12763858984E+02 -0.10346894993E+02  0.60582612020E+01  0.17512191788E+02  0.51100000000E-03 0.  1.
         12    1    4    4    0    0 -0.87021051333E+01 -0.12187610502E+02  0.19351909912E+02  0.24469591348E+02  0.00000000000E+00 0. -1.
</event>
<event>
 8    1  0.2553474E-006  0.9118800E+02  0.7816164E-02  0.1184000E+00
        -11   -1    0    0    0    0  0.00000000000E+00  0.00000000000E+00  0.45593999997E+02  0.45594000000E+02  0.51100000000E-03 0.  1.
         11   -1    0    0    0    0 -0.00000000000E+00 -0.00000000000E+00 -0.45593999997E+02  0.45594000000E+02  0.51100000000E-03 0. -1.
         23    2    1    2    0    0  0.22204460493E-15  0.00000000000E+00 -0.35527136788E-14  0.91188000000E+02  0.91188000000E+02 0.  0.
    9900012    2    3    3    0    0 -0.16264786482E+01 -0.28334619738E+02 -0.23458128586E+02  0.54367083319E+02  0.39999998042E+02 0.  0.
        -12    1    3    3    0    0  0.16264786482E+01  0.28334619738E+02  0.23458128586E+02  0.36820916681E+02  0.00000000000E+00 0.  1.
         11    1    4    4    0    0 -0.15921747103E+01 -0.23627888735E+01 -0.52992706587E+01  0.60166486805E+01  0.51100000000E-03 0. -1.
        -11    1    4    4    0    0  0.19054492464E+00  0.71440280368E+01 -0.12999347771E+02  0.14834301018E+02  0.51100000000E-03 0.  1.
         12    1    4    4    0    0 -0.22484886246E+00 -0.33115858901E+02 -0.51595101560E+01  0.33516133620E+02  0.00000000000E+00 0. -1.
</event>
<event>
 8    1  0.2553474E-006  0.9118800E+02  0.7816164E-02  0.1184000E+00
        -11   -1    0    0    0    0  0.00000000000E+00  0.00000000000E+00  0.45593999997E+02  0.45594000000E+02  0.51100000000E-03 0. -1.
         11   -1    0    0    0    0 -0.00000000000E+00 -0.00000000000E+00 -0.45593999997E+02  0.45594000000E+02  0.51100000000E-03 0.  1.
         23    2    1    2    0    0  0.00000000000E+00  0.00000000000E+00  0.35527136788E-14  0.91188000000E+02  0.91188000000E+02 0.  0.
    9900012    2    3    3    0    0 -0.31904746989E+01  0.35068852440E+02  0.10759937780E+02  0.54367084731E+02  0.40000001260E+02 0.  0.
        -12    1    3    3    0    0  0.31904746989E+01 -0.35068852440E+02 -0.10759937780E+02  0.36820915269E+02  0.00000000000E+00 0.  1.
         11    1    4    4    0    0 -0.33794866320E+01  0.18006286176E+02 -0.12260861549E+02  0.22044863301E+02  0.51100000000E-03 0. -1.
        -11    1    4    4    0    0 -0.64854609263E+01  0.36649231130E+01  0.53917742243E+01  0.91958737702E+01  0.51100000000E-03 0.  1.
         12    1    4    4    0    0  0.66744728594E+01  0.13397643151E+02  0.17629025105E+02  0.23126347660E+02  0.00000000000E+00 0. -1.
</event>
<event>
 8    1  0.2553474E-006  0.9118800E+02  0.7816164E-02  0.1184000E+00
        -11   -1    0    0    0    0  0.00000000000E+00  0.00000000000E+00  0.45593999997E+02  0.45594000000E+02  0.51100000000E-03 0.  1.
         11   -1    0    0    0    0 -0.00000000000E+00 -0.00000000000E+00 -0.45593999997E+02  0.45594000000E+02  0.51100000000E-03 0. -1.
         23    2    1    2    0    0 -0.44408920985E-15  0.00000000000E+00  0.35527136788E-14  0.91188000000E+02  0.91188000000E+02 0.  0.
    9900012    2    3    3    0    0  0.35276837868E+01  0.17873402050E+02 -0.31998071009E+02  0.54367087436E+02  0.40000007429E+02 0.  0.
        -12    1    3    3    0    0 -0.35276837868E+01 -0.17873402050E+02  0.31998071009E+02  0.36820912564E+02  0.00000000000E+00 0.  1.
         11    1    4    4    0    0  0.34129371134E+00  0.23627845080E+00 -0.44494693147E+01  0.44687902554E+01  0.51100000000E-03 0. -1.
        -11    1    4    4    0    0  0.16949110806E+02  0.94557644933E+01 -0.27777062400E+02  0.33885823512E+02  0.51100000000E-03 0.  1.
         12    1    4    4    0    0 -0.13762720730E+02  0.81813591055E+01  0.22846070550E+00  0.16012473669E+02  0.00000000000E+00 0. -1.
</event>
<event>
 8    1  0.2553474E-006  0.9118800E+02  0.7816164E-02  0.1184000E+00
        -11   -1    0    0    0    0  0.00000000000E+00  0.00000000000E+00  0.45593999997E+02  0.45594000000E+02  0.51100000000E-03 0. -1.
         11   -1    0    0    0    0 -0.00000000000E+00 -0.00000000000E+00 -0.45593999997E+02  0.45594000000E+02  0.51100000000E-03 0.  1.
         23    2    1    2    0    0  0.00000000000E+00  0.00000000000E+00 -0.35527136788E-14  0.91188000000E+02  0.91188000000E+02 0.  0.
    9900012    2    3    3    0    0  0.97590681663E+01 -0.24360548043E+02  0.25828365993E+02  0.54367079285E+02  0.39999988847E+02 0.  0.
        -12    1    3    3    0    0 -0.97590681663E+01  0.24360548043E+02 -0.25828365993E+02  0.36820920715E+02  0.00000000000E+00 0.  1.
         11    1    4    4    0    0  0.30752073946E+01  0.54534324495E+01  0.18945700524E+02  0.19953355472E+02  0.51100000000E-03 0. -1.
        -11    1    4    4    0    0  0.15190938949E+01 -0.13145763297E+01 -0.31718902184E+01  0.37545499073E+01  0.51100000000E-03 0.  1.
         12    1    4    4    0    0  0.51647668768E+01 -0.28499404163E+02  0.10054555687E+02  0.30659173906E+02  0.00000000000E+00 0. -1.
</event>
<event>
 8    1  0.2553474E-006  0.9118800E+02  0.7816164E-02  0.1184000E+00
        -11   -1    0    0    0    0  0.00000000000E+00  0.00000000000E+00  0.45593999997E+02  0.45594000000E+02  0.51100000000E-03 0. -1.
         11   -1    0    0    0    0 -0.00000000000E+00 -0.00000000000E+00 -0.45593999997E+02  0.45594000000E+02  0.51100000000E-03 0.  1.
         23    2    1    2    0    0  0.00000000000E+00  0.00000000000E+00  0.00000000000E+00  0.91188000000E+02  0.91188000000E+02 0.  0.
    9900012    2    3    3    0    0 -0.34601292277E+02 -0.98080701266E+01  0.78950308605E+01  0.54367093179E+02  0.40000020520E+02 0.  0.
         12    1    3    3    0    0  0.34601292277E+02  0.98080701266E+01 -0.78950308605E+01  0.36820906821E+02  0.00000000000E+00 0. -1.
         11    1    4    4    0    0 -0.37105965524E+02 -0.12618276545E+02  0.15583894932E+00  0.39193084421E+02  0.51100000000E-03 0. -1.
        -11    1    4    4    0    0 -0.32413215277E+01  0.41329921406E+01 -0.23380991809E+00  0.52576094015E+01  0.51100000000E-03 0.  1.
        -12    1    4    4    0    0  0.57459947745E+01 -0.13227857220E+01  0.79730018292E+01  0.99163993558E+01  0.00000000000E+00 0.  1.
</event>
<event>
 8    1  0.2553474E-006  0.9118800E+02  0.7816164E-02  0.1184000E+00
        -11   -1    0    0    0    0  0.00000000000E+00  0.00000000000E+00  0.45593999997E+02  0.45594000000E+02  0.51100000000E-03 0.  1.
         11   -1    0    0    0    0 -0.00000000000E+00 -0.00000000000E+00 -0.45593999997E+02  0.45594000000E+02  0.51100000000E-03 0. -1.
         23    2    1    2    0    0  0.00000000000E+00 -0.88817841970E-15  0.00000000000E+00  0.91188000000E+02  0.91188000000E+02 0.  0.
    9900012    2    3    3    0    0 -0.34874012905E+02  0.75742495475E+01 -0.90672129613E+01  0.54367076829E+02  0.39999983246E+02 0.  0.
        -12    1    3    3    0    0  0.34874012905E+02 -0.75742495475E+01  0.90672129613E+01  0.36820923171E+02  0.00000000000E+00 0.  1.
         11    1    4    4    0    0 -0.34469565294E+02 -0.30419408743E+01 -0.61579766327E+01  0.35147190675E+02  0.51100000000E-03 0. -1.
        -11    1    4    4    0    0  0.68619489271E+01  0.19509295782E+01 -0.33954131485E+01  0.79007151579E+01  0.51100000000E-03 0.  1.
         12    1    4    4    0    0 -0.72663965380E+01  0.86652608436E+01  0.48617681978E+00  0.11319170996E+02  0.00000000000E+00 0. -1.
</event>
<event>
 8    1  0.2553474E-006  0.9118800E+02  0.7816164E-02  0.1184000E+00
        -11   -1    0    0    0    0  0.00000000000E+00  0.00000000000E+00  0.45593999997E+02  0.45594000000E+02  0.51100000000E-03 0.  1.
         11   -1    0    0    0    0 -0.00000000000E+00 -0.00000000000E+00 -0.45593999997E+02  0.45594000000E+02  0.51100000000E-03 0. -1.
         23    2    1    2    0    0 -0.17763568394E-14  0.00000000000E+00  0.00000000000E+00  0.91188000000E+02  0.91188000000E+02 0.  0.
    9900012    2    3    3    0    0  0.12874536595E+02 -0.25048572115E+02  0.23719084726E+02  0.54367086951E+02  0.40000006323E+02 0.  0.
         12    1    3    3    0    0 -0.12874536595E+02  0.25048572115E+02 -0.23719084726E+02  0.36820913049E+02  0.00000000000E+00 0. -1.
         11    1    4    4    0    0 -0.85007370843E+01 -0.44852404356E+01 -0.13232246360E+01  0.97021047428E+01  0.51100000000E-03 0. -1.
        -11    1    4    4    0    0  0.54416427550E+00 -0.10950368370E+02  0.36412779341E+00  0.10969925775E+02  0.51100000000E-03 0.  1.
         12    1    4    4    0    0  0.20831109404E+02 -0.96129633094E+01  0.24678181568E+02  0.33695056434E+02  0.00000000000E+00 0. -1.
</event>
<event>
 8    1  0.2553474E-006  0.9118800E+02  0.7816164E-02  0.1184000E+00
        -11   -1    0    0    0    0  0.00000000000E+00  0.00000000000E+00  0.45593999997E+02  0.45594000000E+02  0.51100000000E-03 0. -1.
         11   -1    0    0    0    0 -0.00000000000E+00 -0.00000000000E+00 -0.45593999997E+02  0.45594000000E+02  0.51100000000E-03 0.  1.
         23    2    1    2    0    0  0.35527136788E-14 -0.17763568394E-14  0.00000000000E+00  0.91188000000E+02  0.91188000000E+02 0.  0.
    9900012    2    3    3    0    0  0.27135202051E+02  0.10817765653E+02 -0.22415096098E+02  0.54367085058E+02  0.40000002007E+02 0.  0.
         12    1    3    3    0    0 -0.27135202051E+02 -0.10817765653E+02  0.22415096098E+02  0.36820914942E+02  0.00000000000E+00 0. -1.
         11    1    4    4    0    0  0.25393758058E+02  0.14652499003E+02 -0.90895477366E+01  0.30694601376E+02  0.51100000000E-03 0. -1.
        -11    1    4    4    0    0  0.22781231099E+00 -0.78053465915E+01 -0.16575549403E+02  0.18322777414E+02  0.51100000000E-03 0.  1.
        -12    1    4    4    0    0  0.15136316822E+01  0.39706132418E+01  0.32500010419E+01  0.53497062684E+01  0.00000000000E+00 0.  1.
</event>
<event>
 8    1  0.2553474E-006  0.9118800E+02  0.7816164E-02  0.1184000E+00
        -11   -1    0    0    0    0  0.00000000000E+00  0.00000000000E+00  0.45593999997E+02  0.45594000000E+02  0.51100000000E-03 0. -1.
         11   -1    0    0    0    0 -0.00000000000E+00 -0.00000000000E+00 -0.45593999997E+02  0.45594000000E+02  0.51100000000E-03 0.  1.
         23    2    1    2    0    0 -0.17763568394E-14 -0.88817841970E-15  0.00000000000E+00  0.91188000000E+02  0.91188000000E+02 0.  0.
    9900012    2    3    3    0    0 -0.71966922735E+00 -0.21214413268E+01  0.36752680272E+02  0.54367109947E+02  0.40000058746E+02 0.  0.
        -12    1    3    3    0    0  0.71966922735E+00  0.21214413268E+01 -0.36752680272E+02  0.36820890053E+02  0.00000000000E+00 0.  1.
         11    1    4    4    0    0 -0.97904019369E+01 -0.12710529702E+02  0.13459894768E+02  0.20942261167E+02  0.51100000000E-03 0. -1.
        -11    1    4    4    0    0 -0.51179186099E+01  0.72459272865E+01  0.55597825287E+01  0.10469371288E+02  0.51100000000E-03 0.  1.
         12    1    4    4    0    0  0.14188651319E+02  0.33431610884E+01  0.17733002976E+02  0.22955477492E+02  0.00000000000E+00 0. -1.
</event>
<event>
 8    1  0.2553474E-006  0.9118800E+02  0.7816164E-02  0.1184000E+00
        -11   -1    0    0    0    0  0.00000000000E+00  0.00000000000E+00  0.45593999997E+02  0.45594000000E+02  0.51100000000E-03 0. -1.
         11   -1    0    0    0    0 -0.00000000000E+00 -0.00000000000E+00 -0.45593999997E+02  0.45594000000E+02  0.51100000000E-03 0.  1.
         23    2    1    2    0    0  0.44408920985E-15 -0.22204460493E-15  0.00000000000E+00  0.91188000000E+02  0.91188000000E+02 0.  0.
    9900012    2    3    3    0    0  0.37003744685E+01 -0.13021791107E+01 -0.36611352125E+02  0.54367088196E+02  0.40000009160E+02 0.  0.
         12    1    3    3    0    0 -0.37003744685E+01  0.13021791107E+01  0.36611352125E+02  0.36820911804E+02  0.00000000000E+00 0. -1.
         11    1    4    4    0    0 -0.21460235568E+01  0.46046368540E+00 -0.68066386325E+00  0.22979876997E+01  0.51100000000E-03 0. -1.
        -11    1    4    4    0    0 -0.26443137828E+01  0.16871052456E+02 -0.14188249737E+02  0.22202054797E+02  0.51100000000E-03 0.  1.
        -12    1    4    4    0    0  0.84907118081E+01 -0.18633695252E+02 -0.21742438525E+02  0.29867045699E+02  0.00000000000E+00 0.  1.
</event>
<event>
 8    1  0.2553474E-006  0.9118800E+02  0.7816164E-02  0.1184000E+00
        -11   -1    0    0    0    0  0.00000000000E+00  0.00000000000E+00  0.45593999997E+02  0.45594000000E+02  0.51100000000E-03 0. -1.
         11   -1    0    0    0    0 -0.00000000000E+00 -0.00000000000E+00 -0.45593999997E+02  0.45594000000E+02  0.51100000000E-03 0.  1.
         23    2    1    2    0    0 -0.17763568394E-14  0.35527136788E-14  0.35527136788E-14  0.91188000000E+02  0.91188000000E+02 0.  0.
    9900012    2    3    3    0    0 -0.14207467446E+02  0.26219794200E+02  0.21597464135E+02  0.54367079368E+02  0.39999989036E+02 0.  0.
         12    1    3    3    0    0  0.14207467446E+02 -0.26219794200E+02 -0.21597464135E+02  0.36820920632E+02  0.00000000000E+00 0. -1.
         11    1    4    4    0    0  0.85040267652E+01 -0.13778991782E+00  0.64992427865E+01  0.10704093345E+02  0.51100000000E-03 0. -1.
        -11    1    4    4    0    0 -0.11070466429E+02  0.18422500786E+02 -0.19101737284E+01  0.21577593149E+02  0.51100000000E-03 0.  1.
         12    1    4    4    0    0 -0.11641027782E+02  0.79350833316E+01  0.17008395077E+02  0.22085392874E+02  0.00000000000E+00 0. -1.
</event>
<event>
 8    1  0.2553474E-006  0.9118800E+02  0.7816164E-02  0.1184000E+00
        -11   -1    0    0    0    0  0.00000000000E+00  0.00000000000E+00  0.45593999997E+02  0.45594000000E+02  0.51100000000E-03 0. -1.
         11   -1    0    0    0    0 -0.00000000000E+00 -0.00000000000E+00 -0.45593999997E+02  0.45594000000E+02  0.51100000000E-03 0.  1.
         23    2    1    2    0    0 -0.35527136788E-14  0.00000000000E+00  0.83266726847E-15  0.91188000000E+02  0.91188000000E+02 0.  0.
    9900012    2    3    3    0    0 -0.22883032729E+02  0.28843525419E+02 -0.44426851456E+00  0.54367088550E+02  0.40000009967E+02 0.  0.
         12    1    3    3    0    0  0.22883032729E+02 -0.28843525419E+02  0.44426851456E+00  0.36820911450E+02  0.00000000000E+00 0. -1.
         11    1    4    4    0    0 -0.67574890147E+01 -0.35470649872E+01  0.45090969449E+01  0.88643828509E+01  0.51100000000E-03 0. -1.
        -11    1    4    4    0    0 -0.62380749934E+00  0.24713065681E+02 -0.11161238131E+02  0.27123753207E+02  0.51100000000E-03 0.  1.
         12    1    4    4    0    0 -0.15501736215E+02  0.76775247254E+01  0.62078726718E+01  0.18378952492E+02  0.00000000000E+00 0. -1.
</event>
<event>
 8    1  0.2553474E-006  0.9118800E+02  0.7816164E-02  0.1184000E+00
        -11   -1    0    0    0    0  0.00000000000E+00  0.00000000000E+00  0.45593999997E+02  0.45594000000E+02  0.51100000000E-03 0. -1.
         11   -1    0    0    0    0 -0.00000000000E+00 -0.00000000000E+00 -0.45593999997E+02  0.45594000000E+02  0.51100000000E-03 0.  1.
         23    2    1    2    0    0  0.71054273576E-14  0.00000000000E+00  0.17763568394E-14  0.91188000000E+02  0.91188000000E+02 0.  0.
    9900012    2    3    3    0    0  0.33599147120E+02 -0.65282014018E+01  0.13574142524E+02  0.54367116713E+02  0.40000074171E+02 0.  0.
        -12    1    3    3    0    0 -0.33599147120E+02  0.65282014018E+01 -0.13574142524E+02  0.36820883287E+02  0.00000000000E+00 0.  1.
         11    1    4    4    0    0  0.19980928671E+02  0.10483816233E+02 -0.57424722939E+01  0.23283554318E+02  0.51100000000E-03 0. -1.
        -11    1    4    4    0    0  0.11701169753E+02 -0.69766204054E+01  0.14121988601E+02  0.19621956278E+02  0.51100000000E-03 0.  1.
        -12    1    4    4    0    0  0.19170486965E+01 -0.10035397230E+02  0.51946262174E+01  0.11461606118E+02  0.00000000000E+00 0.  1.
</event>
<event>
 8    1  0.2553474E-006  0.9118800E+02  0.7816164E-02  0.1184000E+00
        -11   -1    0    0    0    0  0.00000000000E+00  0.00000000000E+00  0.45593999997E+02  0.45594000000E+02  0.51100000000E-03 0.  1.
         11   -1    0    0    0    0 -0.00000000000E+00 -0.00000000000E+00 -0.45593999997E+02  0.45594000000E+02  0.51100000000E-03 0. -1.
         23    2    1    2    0    0  0.88817841970E-15  0.17763568394E-14 -0.71054273576E-14  0.91188000000E+02  0.91188000000E+02 0.  0.
    9900012    2    3    3    0    0  0.20007184407E+01  0.36417327732E+00  0.36764587274E+02  0.54367212748E+02  0.40000293099E+02 0.  0.
         12    1    3    3    0    0 -0.20007184407E+01 -0.36417327732E+00 -0.36764587274E+02  0.36820787252E+02  0.00000000000E+00 0. -1.
         11    1    4    4    0    0  0.80383422851E+01 -0.19576837096E+01  0.17354570936E+01  0.84533593195E+01  0.51100000000E-03 0. -1.
        -11    1    4    4    0    0  0.19350475686E+01  0.14565379390E+02  0.21217147902E+02  0.25808177991E+02  0.51100000000E-03 0.  1.
        -12    1    4    4    0    0 -0.79726714130E+01 -0.12243522403E+02  0.13811982278E+02  0.20105675437E+02  0.00000000000E+00 0.  1.
</event>
<event>
 8    1  0.2553474E-006  0.9118800E+02  0.7816164E-02  0.1184000E+00
        -11   -1    0    0    0    0  0.00000000000E+00  0.00000000000E+00  0.45593999997E+02  0.45594000000E+02  0.51100000000E-03 0. -1.
         11   -1    0    0    0    0 -0.00000000000E+00 -0.00000000000E+00 -0.45593999997E+02  0.45594000000E+02  0.51100000000E-03 0.  1.
         23    2    1    2    0    0  0.00000000000E+00 -0.53290705182E-14 -0.88817841970E-15  0.91188000000E+02  0.91188000000E+02 0.  0.
    9900012    2    3    3    0    0  0.33590480880E+02 -0.12880398299E+02 -0.78454132811E+01  0.54367142111E+02  0.40000132071E+02 0.  0.
         12    1    3    3    0    0 -0.33590480880E+02  0.12880398299E+02  0.78454132811E+01  0.36820857889E+02  0.00000000000E+00 0. -1.
         11    1    4    4    0    0 -0.41115703780E+00  0.19469443417E+00  0.20525649022E+00  0.49908568436E+00  0.51100000000E-03 0. -1.
        -11    1    4    4    0    0  0.17192028238E+02  0.12999365281E+02  0.92267182746E+00  0.21573146646E+02  0.51100000000E-03 0.  1.
        -12    1    4    4    0    0  0.16809609680E+02 -0.26074458014E+02 -0.89733415988E+01  0.32294909781E+02  0.00000000000E+00 0.  1.
</event>
<event>
 8    1  0.2553474E-006  0.9118800E+02  0.7816164E-02  0.1184000E+00
        -11   -1    0    0    0    0  0.00000000000E+00  0.00000000000E+00  0.45593999997E+02  0.45594000000E+02  0.51100000000E-03 0.  1.
         11   -1    0    0    0    0 -0.00000000000E+00 -0.00000000000E+00 -0.45593999997E+02  0.45594000000E+02  0.51100000000E-03 0. -1.
         23    2    1    2    0    0  0.00000000000E+00  0.00000000000E+00  0.00000000000E+00  0.91188000000E+02  0.91188000000E+02 0.  0.
    9900012    2    3    3    0    0  0.34326314277E+02  0.10170485598E+02  0.86049429240E+01  0.54367086488E+02  0.40000005267E+02 0.  0.
        -12    1    3    3    0    0 -0.34326314277E+02 -0.10170485598E+02 -0.86049429240E+01  0.36820913512E+02  0.00000000000E+00 0.  1.
         11    1    4    4    0    0  0.91911309738E+01 -0.20312364492E+01  0.29872515147E+01  0.98755497044E+01  0.51100000000E-03 0. -1.
        -11    1    4    4    0    0  0.95545738744E+01  0.22404613488E+02  0.81763034487E+01  0.25692577252E+02  0.51100000000E-03 0.  1.
        -12    1    4    4    0    0  0.15580609428E+02 -0.10202891441E+02 -0.25586120394E+01  0.18798959532E+02  0.00000000000E+00 0.  1.
</event>
<event>
 8    1  0.2553474E-006  0.9118800E+02  0.7816164E-02  0.1184000E+00
        -11   -1    0    0    0    0  0.00000000000E+00  0.00000000000E+00  0.45593999997E+02  0.45594000000E+02  0.51100000000E-03 0.  1.
         11   -1    0    0    0    0 -0.00000000000E+00 -0.00000000000E+00 -0.45593999997E+02  0.45594000000E+02  0.51100000000E-03 0. -1.
         23    2    1    2    0    0  0.35527136788E-14  0.17763568394E-14  0.35527136788E-14  0.91188000000E+02  0.91188000000E+02 0.  0.
    9900012    2    3    3    0    0  0.22805448560E+02  0.97099190986E+01 -0.27228828371E+02  0.54367080574E+02  0.39999991785E+02 0.  0.
        -12    1    3    3    0    0 -0.22805448560E+02 -0.97099190986E+01  0.27228828371E+02  0.36820919426E+02  0.00000000000E+00 0.  1.
         11    1    4    4    0    0  0.82201561233E+01 -0.11070645412E+02 -0.10292046932E+02  0.17206289165E+02  0.51100000000E-03 0. -1.
        -11    1    4    4    0    0  0.59978295091E+01  0.25629328635E+01  0.43627347920E+01  0.78470401305E+01  0.51100000000E-03 0.  1.
         12    1    4    4    0    0  0.85874629274E+01  0.18217631647E+02 -0.21299516231E+02  0.29313751279E+02  0.00000000000E+00 0. -1.
</event>
<event>
 8    1  0.2553474E-006  0.9118800E+02  0.7816164E-02  0.1184000E+00
        -11   -1    0    0    0    0  0.00000000000E+00  0.00000000000E+00  0.45593999997E+02  0.45594000000E+02  0.51100000000E-03 0.  1.
         11   -1    0    0    0    0 -0.00000000000E+00 -0.00000000000E+00 -0.45593999997E+02  0.45594000000E+02  0.51100000000E-03 0. -1.
         23    2    1    2    0    0  0.00000000000E+00 -0.35527136788E-14 -0.88817841970E-15  0.91188000000E+02  0.91188000000E+02 0.  0.
    9900012    2    3    3    0    0 -0.30707882548E+02  0.19744532307E+02 -0.47916199452E+01  0.54367078932E+02  0.39999988042E+02 0.  0.
         12    1    3    3    0    0  0.30707882548E+02 -0.19744532307E+02  0.47916199452E+01  0.36820921068E+02  0.00000000000E+00 0. -1.
         11    1    4    4    0    0 -0.89586526820E+01  0.12643046987E+02 -0.90107957079E+01  0.17924802217E+02  0.51100000000E-03 0. -1.
        -11    1    4    4    0    0 -0.19813559977E+02 -0.10211898634E+01 -0.82076842270E+01  0.21470586120E+02  0.51100000000E-03 0.  1.
        -12    1    4    4    0    0 -0.19356698883E+01  0.81226751836E+01  0.12426859990E+02  0.14971690595E+02  0.00000000000E+00 0.  1.
</event>
<event>
 8    1  0.2553474E-006  0.9118800E+02  0.7816164E-02  0.1184000E+00
        -11   -1    0    0    0    0  0.00000000000E+00  0.00000000000E+00  0.45593999997E+02  0.45594000000E+02  0.51100000000E-03 0. -1.
         11   -1    0    0    0    0 -0.00000000000E+00 -0.00000000000E+00 -0.45593999997E+02  0.45594000000E+02  0.51100000000E-03 0.  1.
         23    2    1    2    0    0  0.00000000000E+00  0.71054273576E-14  0.17763568394E-14  0.91188000000E+02  0.91188000000E+02 0.  0.
    9900012    2    3    3    0    0  0.13368845358E+02  0.34260951893E+02 -0.18003305882E+01  0.54367081475E+02  0.39999993838E+02 0.  0.
        -12    1    3    3    0    0 -0.13368845358E+02 -0.34260951893E+02  0.18003305882E+01  0.36820918525E+02  0.00000000000E+00 0.  1.
         11    1    4    4    0    0  0.81644685690E+01  0.61972243557E+01 -0.11983833022E+02  0.15769476558E+02  0.51100000000E-03 0. -1.
        -11    1    4    4    0    0 -0.41868087414E+01  0.54760396188E+00  0.84800697685E+01  0.94731632032E+01  0.51100000000E-03 0.  1.
         12    1    4    4    0    0  0.93911855306E+01  0.27516123576E+02  0.17034326657E+01  0.29124441714E+02  0.00000000000E+00 0. -1.
</event>
<event>
 8    1  0.2553474E-006  0.9118800E+02  0.7816164E-02  0.1184000E+00
        -11   -1    0    0    0    0  0.00000000000E+00  0.00000000000E+00  0.45593999997E+02  0.45594000000E+02  0.51100000000E-03 0. -1.
         11   -1    0    0    0    0 -0.00000000000E+00 -0.00000000000E+00 -0.45593999997E+02  0.45594000000E+02  0.51100000000E-03 0.  1.
         23    2    1    2    0    0  0.00000000000E+00  0.00000000000E+00  0.00000000000E+00  0.91188000000E+02  0.91188000000E+02 0.  0.
    9900012    2    3    3    0    0 -0.12362310533E+02  0.12550759213E+02 -0.32333149468E+02  0.54367070720E+02  0.39999969320E+02 0.  0.
         12    1    3    3    0    0  0.12362310533E+02 -0.12550759213E+02  0.32333149468E+02  0.36820929280E+02  0.00000000000E+00 0. -1.
         11    1    4    4    0    0  0.41186608178E+01 -0.60978930361E+01 -0.24022567521E+01  0.77407043721E+01  0.51100000000E-03 0. -1.
        -11    1    4    4    0    0 -0.42584245140E+01  0.20665227611E+02 -0.26299683275E+02  0.33717342009E+02  0.51100000000E-03 0.  1.
        -12    1    4    4    0    0 -0.12222546837E+02 -0.20165753620E+01 -0.36312094411E+01  0.12909024339E+02  0.00000000000E+00 0.  1.
</event>
<event>
 8    1  0.2553474E-006  0.9118800E+02  0.7816164E-02  0.1184000E+00
        -11   -1    0    0    0    0  0.00000000000E+00  0.00000000000E+00  0.45593999997E+02  0.45594000000E+02  0.51100000000E-03 0. -1.
         11   -1    0    0    0    0 -0.00000000000E+00 -0.00000000000E+00 -0.45593999997E+02  0.45594000000E+02  0.51100000000E-03 0.  1.
         23    2    1    2    0    0  0.44408920985E-15  0.35527136788E-14  0.00000000000E+00  0.91188000000E+02  0.91188000000E+02 0.  0.
    9900012    2    3    3    0    0 -0.24062949336E+01 -0.23762818343E+02  0.28023527736E+02  0.54367083421E+02  0.39999998274E+02 0.  0.
        -12    1    3    3    0    0  0.24062949336E+01  0.23762818343E+02 -0.28023527736E+02  0.36820916579E+02  0.00000000000E+00 0.  1.
         11    1    4    4    0    0 -0.73621427393E+01 -0.14492927725E+02  0.60146337644E+01  0.17332683559E+02  0.51100000000E-03 0. -1.
        -11    1    4    4    0    0 -0.98217874641E+01 -0.99916390063E+01  0.15431425326E+02  0.20842966365E+02  0.51100000000E-03 0.  1.
         12    1    4    4    0    0  0.14777635270E+02  0.72174838828E+00  0.65774686457E+01  0.16191433497E+02  0.00000000000E+00 0. -1.
</event>
<event>
 8    1  0.2553474E-006  0.9118800E+02  0.7816164E-02  0.1184000E+00
        -11   -1    0    0    0    0  0.00000000000E+00  0.00000000000E+00  0.45593999997E+02  0.45594000000E+02  0.51100000000E-03 0. -1.
         11   -1    0    0    0    0 -0.00000000000E+00 -0.00000000000E+00 -0.45593999997E+02  0.45594000000E+02  0.51100000000E-03 0.  1.
         23    2    1    2    0    0 -0.88817841970E-15  0.35527136788E-14  0.00000000000E+00  0.91188000000E+02  0.91188000000E+02 0.  0.
    9900012    2    3    3    0    0  0.65459548670E+01  0.29545070514E+02 -0.20976621452E+02  0.54367090664E+02  0.40000014786E+02 0.  0.
         12    1    3    3    0    0 -0.65459548670E+01 -0.29545070514E+02  0.20976621452E+02  0.36820909336E+02  0.00000000000E+00 0. -1.
         11    1    4    4    0    0 -0.97387624920E+01  0.13296735126E+02 -0.21928458931E+00  0.16483165530E+02  0.51100000000E-03 0. -1.
        -11    1    4    4    0    0  0.91560446426E+01  0.20630639636E+02 -0.18586653442E+02  0.29239017284E+02  0.51100000000E-03 0.  1.
         12    1    4    4    0    0  0.71286727165E+01 -0.43823042482E+01 -0.21706834210E+01  0.86449078500E+01  0.00000000000E+00 0. -1.
</event>
<event>
 8    1  0.2553474E-006  0.9118800E+02  0.7816164E-02  0.1184000E+00
        -11   -1    0    0    0    0  0.00000000000E+00  0.00000000000E+00  0.45593999997E+02  0.45594000000E+02  0.51100000000E-03 0.  1.
         11   -1    0    0    0    0 -0.00000000000E+00 -0.00000000000E+00 -0.45593999997E+02  0.45594000000E+02  0.51100000000E-03 0. -1.
         23    2    1    2    0    0  0.00000000000E+00 -0.17763568394E-14 -0.35527136788E-14  0.91188000000E+02  0.91188000000E+02 0.  0.
    9900012    2    3    3    0    0  0.24012953294E+02  0.13202877006E+02  0.24593529459E+02  0.54367087757E+02  0.40000008161E+02 0.  0.
         12    1    3    3    0    0 -0.24012953294E+02 -0.13202877006E+02 -0.24593529459E+02  0.36820912243E+02  0.00000000000E+00 0. -1.
         11    1    4    4    0    0  0.10905586007E+02  0.23136427260E+02  0.18656107184E+02  0.31658749312E+02  0.51100000000E-03 0. -1.
        -11    1    4    4    0    0  0.11270625549E+02 -0.36116279460E+01  0.95421220572E+01  0.15202728384E+02  0.51100000000E-03 0.  1.
         12    1    4    4    0    0  0.18367417382E+01 -0.63219223080E+01 -0.36046997820E+01  0.75056100617E+01  0.00000000000E+00 0. -1.
</event>
<event>
 8    1  0.2553474E-006  0.9118800E+02  0.7816164E-02  0.1184000E+00
        -11   -1    0    0    0    0  0.00000000000E+00  0.00000000000E+00  0.45593999997E+02  0.45594000000E+02  0.51100000000E-03 0.  1.
         11   -1    0    0    0    0 -0.00000000000E+00 -0.00000000000E+00 -0.45593999997E+02  0.45594000000E+02  0.51100000000E-03 0. -1.
         23    2    1    2    0    0  0.88817841970E-15  0.00000000000E+00 -0.35527136788E-14  0.91188000000E+02  0.91188000000E+02 0.  0.
    9900012    2    3    3    0    0 -0.53692331123E+01  0.25572717569E+02  0.25942018333E+02  0.54367070310E+02  0.39999968385E+02 0.  0.
         12    1    3    3    0    0  0.53692331123E+01 -0.25572717569E+02 -0.25942018333E+02  0.36820929690E+02  0.00000000000E+00 0. -1.
         11    1    4    4    0    0 -0.39484864729E+01  0.77581079156E+01 -0.28028718718E+01  0.91452104867E+01  0.51100000000E-03 0. -1.
        -11    1    4    4    0    0  0.12396735558E+02  0.74894985997E+01  0.39413945393E+01  0.15010204294E+02  0.51100000000E-03 0.  1.
        -12    1    4    4    0    0 -0.13817482198E+02  0.10325111054E+02  0.24803495665E+02  0.30211655529E+02  0.00000000000E+00 0.  1.
</event>
<event>
 8    1  0.2553474E-006  0.9118800E+02  0.7816164E-02  0.1184000E+00
        -11   -1    0    0    0    0  0.00000000000E+00  0.00000000000E+00  0.45593999997E+02  0.45594000000E+02  0.51100000000E-03 0. -1.
         11   -1    0    0    0    0 -0.00000000000E+00 -0.00000000000E+00 -0.45593999997E+02  0.45594000000E+02  0.51100000000E-03 0.  1.
         23    2    1    2    0    0 -0.44408920985E-15  0.00000000000E+00 -0.35527136788E-14  0.91188000000E+02  0.91188000000E+02 0.  0.
    9900012    2    3    3    0    0 -0.13030484981E+01 -0.18938374081E+02  0.31550274905E+02  0.54367084819E+02  0.40000001461E+02 0.  0.
        -12    1    3    3    0    0  0.13030484981E+01  0.18938374081E+02 -0.31550274905E+02  0.36820915181E+02  0.00000000000E+00 0.  1.
         11    1    4    4    0    0 -0.41243928384E+01 -0.23490955540E+02  0.34590964357E+02  0.42016311402E+02  0.51100000000E-03 0. -1.
        -11    1    4    4    0    0  0.11234141736E+01  0.90687736083E+00 -0.67360903970E+01  0.68890783165E+01  0.51100000000E-03 0.  1.
        -12    1    4    4    0    0  0.16979301667E+01  0.36457040977E+01  0.36954009449E+01  0.54616950998E+01  0.00000000000E+00 0.  1.
</event>
<event>
 8    1  0.2553474E-006  0.9118800E+02  0.7816164E-02  0.1184000E+00
        -11   -1    0    0    0    0  0.00000000000E+00  0.00000000000E+00  0.45593999997E+02  0.45594000000E+02  0.51100000000E-03 0. -1.
         11   -1    0    0    0    0 -0.00000000000E+00 -0.00000000000E+00 -0.45593999997E+02  0.45594000000E+02  0.51100000000E-03 0.  1.
         23    2    1    2    0    0 -0.35527136788E-14  0.35527136788E-14  0.00000000000E+00  0.91188000000E+02  0.91188000000E+02 0.  0.
    9900012    2    3    3    0    0  0.31201007731E+02 -0.17687227713E+02 -0.83333369596E+01  0.54367008535E+02  0.39999827556E+02 0.  0.
        -12    1    3    3    0    0 -0.31201007731E+02  0.17687227713E+02  0.83333369596E+01  0.36820991465E+02  0.00000000000E+00 0.  1.
         11    1    4    4    0    0  0.22258553558E+02 -0.25740867747E+02 -0.97032647511E+01  0.35386280194E+02  0.51100000000E-03 0. -1.
        -11    1    4    4    0    0  0.93009915954E+01  0.10917100732E+02  0.41944010278E+01  0.14942708366E+02  0.51100000000E-03 0.  1.
        -12    1    4    4    0    0 -0.35853742299E+00 -0.28634606984E+01 -0.28244732364E+01  0.40380199749E+01  0.00000000000E+00 0.  1.
</event>
<event>
 8    1  0.2553474E-006  0.9118800E+02  0.7816164E-02  0.1184000E+00
        -11   -1    0    0    0    0  0.00000000000E+00  0.00000000000E+00  0.45593999997E+02  0.45594000000E+02  0.51100000000E-03 0.  1.
         11   -1    0    0    0    0 -0.00000000000E+00 -0.00000000000E+00 -0.45593999997E+02  0.45594000000E+02  0.51100000000E-03 0. -1.
         23    2    1    2    0    0 -0.35527136788E-14 -0.10658141036E-13  0.22204460493E-15  0.91188000000E+02  0.91188000000E+02 0.  0.
    9900012    2    3    3    0    0  0.23279330680E+02  0.28507083417E+02 -0.10949113838E+01  0.54367083759E+02  0.39999999046E+02 0.  0.
         12    1    3    3    0    0 -0.23279330680E+02 -0.28507083417E+02  0.10949113838E+01  0.36820916241E+02  0.00000000000E+00 0. -1.
         11    1    4    4    0    0  0.66663565886E+00  0.18524744687E+01  0.18281047686E+01  0.26866395487E+01  0.51100000000E-03 0. -1.
        -11    1    4    4    0    0  0.28274725234E+02  0.15575110614E+02  0.99477846808E+01  0.33778729668E+02  0.51100000000E-03 0.  1.
         12    1    4    4    0    0 -0.56620302123E+01  0.11079498334E+02 -0.12870800833E+02  0.17901714542E+02  0.00000000000E+00 0. -1.
</event>
<event>
 8    1  0.2553474E-006  0.9118800E+02  0.7816164E-02  0.1184000E+00
        -11   -1    0    0    0    0  0.00000000000E+00  0.00000000000E+00  0.45593999997E+02  0.45594000000E+02  0.51100000000E-03 0.  1.
         11   -1    0    0    0    0 -0.00000000000E+00 -0.00000000000E+00 -0.45593999997E+02  0.45594000000E+02  0.51100000000E-03 0. -1.
         23    2    1    2    0    0 -0.17763568394E-14  0.35527136788E-14  0.35527136788E-14  0.91188000000E+02  0.91188000000E+02 0.  0.
    9900012    2    3    3    0    0  0.15467865790E+02 -0.21752885364E+02 -0.25364089344E+02  0.54367083091E+02  0.39999997523E+02 0.  0.
        -12    1    3    3    0    0 -0.15467865790E+02  0.21752885364E+02  0.25364089344E+02  0.36820916909E+02  0.00000000000E+00 0.  1.
         11    1    4    4    0    0 -0.37070836073E+01 -0.10982257674E+02 -0.18145316258E+02  0.21531487520E+02  0.51100000000E-03 0. -1.
        -11    1    4    4    0    0 -0.30737021464E+01 -0.89691195786E+01 -0.39706171645E+01  0.10279034577E+02  0.51100000000E-03 0.  1.
        -12    1    4    4    0    0  0.22248651544E+02 -0.18015081112E+01 -0.32481559222E+01  0.22556560994E+02  0.00000000000E+00 0.  1.
</event>
<event>
 8    1  0.2553474E-006  0.9118800E+02  0.7816164E-02  0.1184000E+00
        -11   -1    0    0    0    0  0.00000000000E+00  0.00000000000E+00  0.45593999997E+02  0.45594000000E+02  0.51100000000E-03 0.  1.
         11   -1    0    0    0    0 -0.00000000000E+00 -0.00000000000E+00 -0.45593999997E+02  0.45594000000E+02  0.51100000000E-03 0. -1.
         23    2    1    2    0    0 -0.55511151231E-15  0.00000000000E+00 -0.71054273576E-14  0.91188000000E+02  0.91188000000E+02 0.  0.
    9900012    2    3    3    0    0  0.83338535606E+00 -0.14664561233E+02  0.33764423856E+02  0.54367079239E+02  0.39999988742E+02 0.  0.
         12    1    3    3    0    0 -0.83338535606E+00  0.14664561233E+02 -0.33764423856E+02  0.36820920761E+02  0.00000000000E+00 0. -1.
         11    1    4    4    0    0 -0.33802309532E+00 -0.11113544416E+02 -0.56147010299E+01  0.12455922166E+02  0.51100000000E-03 0. -1.
        -11    1    4    4    0    0  0.52431469456E+01  0.31529593242E+01  0.22172123356E+02  0.23000756439E+02  0.51100000000E-03 0.  1.
        -12    1    4    4    0    0 -0.40717384942E+01 -0.67039761414E+01  0.17207001530E+02  0.18910400634E+02  0.00000000000E+00 0.  1.
</event>
<event>
 8    1  0.2553474E-006  0.9118800E+02  0.7816164E-02  0.1184000E+00
        -11   -1    0    0    0    0  0.00000000000E+00  0.00000000000E+00  0.45593999997E+02  0.45594000000E+02  0.51100000000E-03 0.  1.
         11   -1    0    0    0    0 -0.00000000000E+00 -0.00000000000E+00 -0.45593999997E+02  0.45594000000E+02  0.51100000000E-03 0. -1.
         23    2    1    2    0    0 -0.35527136788E-14  0.35527136788E-14 -0.88817841970E-15  0.91188000000E+02  0.91188000000E+02 0.  0.
    9900012    2    3    3    0    0 -0.29016171204E+02  0.21679167014E+02 -0.66224197636E+01  0.54367069576E+02  0.39999966713E+02 0.  0.
        -12    1    3    3    0    0  0.29016171204E+02 -0.21679167014E+02  0.66224197636E+01  0.36820930424E+02  0.00000000000E+00 0.  1.
         11    1    4    4    0    0 -0.17580639546E+02  0.20289897433E+02 -0.21314824261E+01  0.26931432236E+02  0.51100000000E-03 0. -1.
        -11    1    4    4    0    0 -0.93914485155E+01  0.11450419671E+02 -0.76838413456E+01  0.16683909432E+02  0.51100000000E-03 0.  1.
        -12    1    4    4    0    0 -0.20440831421E+01 -0.10061150090E+02  0.31929040081E+01  0.10751727909E+02  0.00000000000E+00 0.  1.
</event>
<event>
 8    1  0.2553474E-006  0.9118800E+02  0.7816164E-02  0.1184000E+00
        -11   -1    0    0    0    0  0.00000000000E+00  0.00000000000E+00  0.45593999997E+02  0.45594000000E+02  0.51100000000E-03 0. -1.
         11   -1    0    0    0    0 -0.00000000000E+00 -0.00000000000E+00 -0.45593999997E+02  0.45594000000E+02  0.51100000000E-03 0.  1.
         23    2    1    2    0    0  0.00000000000E+00  0.00000000000E+00  0.00000000000E+00  0.91188000000E+02  0.91188000000E+02 0.  0.
    9900012    2    3    3    0    0 -0.45223490234E+01  0.18132741951E+02 -0.31725718576E+02  0.54367228817E+02  0.40000329733E+02 0.  0.
         12    1    3    3    0    0  0.45223490234E+01 -0.18132741951E+02  0.31725718576E+02  0.36820771183E+02  0.00000000000E+00 0. -1.
         11    1    4    4    0    0  0.32927236549E+00  0.87012503115E+01 -0.13267514420E+02  0.15869691756E+02  0.51100000000E-03 0. -1.
        -11    1    4    4    0    0  0.89563386779E+00  0.13149698246E+02 -0.25482667092E+02  0.28689423946E+02  0.51100000000E-03 0.  1.
         12    1    4    4    0    0 -0.57472552567E+01 -0.37182066066E+01  0.70244629359E+01  0.98081131158E+01  0.00000000000E+00 0. -1.
</event>
<event>
 8    1  0.2553474E-006  0.9118800E+02  0.7816164E-02  0.1184000E+00
        -11   -1    0    0    0    0  0.00000000000E+00  0.00000000000E+00  0.45593999997E+02  0.45594000000E+02  0.51100000000E-03 0.  1.
         11   -1    0    0    0    0 -0.00000000000E+00 -0.00000000000E+00 -0.45593999997E+02  0.45594000000E+02  0.51100000000E-03 0. -1.
         23    2    1    2    0    0  0.00000000000E+00 -0.17763568394E-14  0.00000000000E+00  0.91188000000E+02  0.91188000000E+02 0.  0.
    9900012    2    3    3    0    0 -0.32455070550E+02  0.12165764560E+02 -0.12427494872E+02  0.54367081210E+02  0.39999993234E+02 0.  0.
        -12    1    3    3    0    0  0.32455070550E+02 -0.12165764560E+02  0.12427494872E+02  0.36820918790E+02  0.00000000000E+00 0.  1.
         11    1    4    4    0    0 -0.28588734136E+02  0.18082869777E+02 -0.89907959052E+01  0.35002004373E+02  0.51100000000E-03 0. -1.
        -11    1    4    4    0    0  0.12550370200E+01 -0.65626355397E+01 -0.93651426580E+01  0.11504312253E+02  0.51100000000E-03 0.  1.
        -12    1    4    4    0    0 -0.51213734343E+01  0.64553032318E+00  0.59284436908E+01  0.78607645841E+01  0.00000000000E+00 0.  1.
</event>
<event>
 8    1  0.2553474E-006  0.9118800E+02  0.7816164E-02  0.1184000E+00
        -11   -1    0    0    0    0  0.00000000000E+00  0.00000000000E+00  0.45593999997E+02  0.45594000000E+02  0.51100000000E-03 0. -1.
         11   -1    0    0    0    0 -0.00000000000E+00 -0.00000000000E+00 -0.45593999997E+02  0.45594000000E+02  0.51100000000E-03 0.  1.
         23    2    1    2    0    0 -0.44408920985E-15 -0.35527136788E-14  0.35527136788E-14  0.91188000000E+02  0.91188000000E+02 0.  0.
    9900012    2    3    3    0    0  0.27090373299E+01 -0.30993297418E+02  0.19694076960E+02  0.54367081552E+02  0.39999994014E+02 0.  0.
        -12    1    3    3    0    0 -0.27090373299E+01  0.30993297418E+02 -0.19694076960E+02  0.36820918448E+02  0.00000000000E+00 0.  1.
         11    1    4    4    0    0 -0.31951984299E+01 -0.23535166351E+02  0.23574650435E+02  0.33464570691E+02  0.51100000000E-03 0. -1.
        -11    1    4    4    0    0 -0.38317278736E+01 -0.95312640947E+01 -0.15464532937E+00  0.10273804027E+02  0.51100000000E-03 0.  1.
         12    1    4    4    0    0  0.97359636333E+01  0.20731330275E+01 -0.37259281458E+01  0.10628706834E+02  0.00000000000E+00 0. -1.
</event>
<event>
 8    1  0.2553474E-006  0.9118800E+02  0.7816164E-02  0.1184000E+00
        -11   -1    0    0    0    0  0.00000000000E+00  0.00000000000E+00  0.45593999997E+02  0.45594000000E+02  0.51100000000E-03 0.  1.
         11   -1    0    0    0    0 -0.00000000000E+00 -0.00000000000E+00 -0.45593999997E+02  0.45594000000E+02  0.51100000000E-03 0. -1.
         23    2    1    2    0    0  0.00000000000E+00  0.00000000000E+00  0.00000000000E+00  0.91188000000E+02  0.91188000000E+02 0.  0.
    9900012    2    3    3    0    0  0.20814643599E+01 -0.36339418271E+02  0.55582377625E+01  0.54367084460E+02  0.40000000643E+02 0.  0.
         12    1    3    3    0    0 -0.20814643599E+01  0.36339418271E+02 -0.55582377625E+01  0.36820915540E+02  0.00000000000E+00 0. -1.
         11    1    4    4    0    0  0.25426713290E+01  0.33231690248E+01  0.12580640440E+02  0.13258248150E+02  0.51100000000E-03 0. -1.
        -11    1    4    4    0    0 -0.15038836679E+01 -0.85459618069E+01  0.15534498549E+01  0.88152331792E+01  0.51100000000E-03 0.  1.
         12    1    4    4    0    0  0.10426766988E+01 -0.31116625489E+02 -0.85758525323E+01  0.32293603131E+02  0.00000000000E+00 0. -1.
</event>
<event>
 8    1  0.2553474E-006  0.9118800E+02  0.7816164E-02  0.1184000E+00
        -11   -1    0    0    0    0  0.00000000000E+00  0.00000000000E+00  0.45593999997E+02  0.45594000000E+02  0.51100000000E-03 0.  1.
         11   -1    0    0    0    0 -0.00000000000E+00 -0.00000000000E+00 -0.45593999997E+02  0.45594000000E+02  0.51100000000E-03 0. -1.
         23    2    1    2    0    0  0.44408920985E-15  0.17763568394E-14  0.00000000000E+00  0.91188000000E+02  0.91188000000E+02 0.  0.
    9900012    2    3    3    0    0  0.20355338611E+01 -0.12104737604E+02  0.34714693273E+02  0.54367109195E+02  0.40000057033E+02 0.  0.
         12    1    3    3    0    0 -0.20355338611E+01  0.12104737604E+02 -0.34714693273E+02  0.36820890805E+02  0.00000000000E+00 0. -1.
         11    1    4    4    0    0  0.29381296761E+01 -0.12360685523E+02  0.34874146664E+01  0.13175022350E+02  0.51100000000E-03 0. -1.
        -11    1    4    4    0    0 -0.68884319027E+00  0.18969783265E+00 -0.49564416709E+01  0.50076745607E+01  0.51100000000E-03 0.  1.
        -12    1    4    4    0    0 -0.21375262480E+00  0.66250086203E-01  0.36183720278E+02  0.36184412285E+02  0.00000000000E+00 0.  1.
</event>
<event>
 8    1  0.2553474E-006  0.9118800E+02  0.7816164E-02  0.1184000E+00
        -11   -1    0    0    0    0  0.00000000000E+00  0.00000000000E+00  0.45593999997E+02  0.45594000000E+02  0.51100000000E-03 0.  1.
         11   -1    0    0    0    0 -0.00000000000E+00 -0.00000000000E+00 -0.45593999997E+02  0.45594000000E+02  0.51100000000E-03 0. -1.
         23    2    1    2    0    0  0.35527136788E-14 -0.71054273576E-14  0.88817841970E-15  0.91188000000E+02  0.91188000000E+02 0.  0.
    9900012    2    3    3    0    0  0.17745554979E+02 -0.31410778201E+02  0.73646366743E+01  0.54367087707E+02  0.40000008046E+02 0.  0.
         12    1    3    3    0    0 -0.17745554979E+02  0.31410778201E+02 -0.73646366743E+01  0.36820912293E+02  0.00000000000E+00 0. -1.
         11    1    4    4    0    0  0.12584509722E+02 -0.20671313828E+02 -0.39270275186E+01  0.24517231608E+02  0.51100000000E-03 0. -1.
        -11    1    4    4    0    0  0.15019586888E+02 -0.37949792290E+01  0.52104238454E+01  0.16344368282E+02  0.51100000000E-03 0.  1.
        -12    1    4    4    0    0 -0.98585416310E+01 -0.69444851445E+01  0.60812403475E+01  0.13505487817E+02  0.00000000000E+00 0.  1.
</event>
<event>
 8    1  0.2553474E-006  0.9118800E+02  0.7816164E-02  0.1184000E+00
        -11   -1    0    0    0    0  0.00000000000E+00  0.00000000000E+00  0.45593999997E+02  0.45594000000E+02  0.51100000000E-03 0.  1.
         11   -1    0    0    0    0 -0.00000000000E+00 -0.00000000000E+00 -0.45593999997E+02  0.45594000000E+02  0.51100000000E-03 0. -1.
         23    2    1    2    0    0  0.00000000000E+00  0.35527136788E-14  0.00000000000E+00  0.91188000000E+02  0.91188000000E+02 0.  0.
    9900012    2    3    3    0    0  0.14513255846E+02 -0.27837904693E+02  0.19240446458E+02  0.54367104942E+02  0.40000047336E+02 0.  0.
         12    1    3    3    0    0 -0.14513255846E+02  0.27837904693E+02 -0.19240446458E+02  0.36820895058E+02  0.00000000000E+00 0. -1.
         11    1    4    4    0    0  0.14487855504E+02 -0.17289397861E+02  0.82761782958E+01  0.24027408577E+02  0.51100000000E-03 0. -1.
        -11    1    4    4    0    0 -0.24736123570E+01 -0.18634356160E+02  0.11184671230E+02  0.21873611005E+02  0.51100000000E-03 0.  1.
         12    1    4    4    0    0  0.24990126989E+01  0.80858493272E+01 -0.22040306752E+00  0.84660853601E+01  0.00000000000E+00 0. -1.
</event>
<event>
 8    1  0.2553474E-006  0.9118800E+02  0.7816164E-02  0.1184000E+00
        -11   -1    0    0    0    0  0.00000000000E+00  0.00000000000E+00  0.45593999997E+02  0.45594000000E+02  0.51100000000E-03 0.  1.
         11   -1    0    0    0    0 -0.00000000000E+00 -0.00000000000E+00 -0.45593999997E+02  0.45594000000E+02  0.51100000000E-03 0. -1.
         23    2    1    2    0    0  0.35527136788E-14  0.00000000000E+00  0.00000000000E+00  0.91188000000E+02  0.91188000000E+02 0.  0.
    9900012    2    3    3    0    0  0.31673035014E+02 -0.17786602223E+02  0.60195705272E+01  0.54367087532E+02  0.40000007647E+02 0.  0.
         12    1    3    3    0    0 -0.31673035014E+02  0.17786602223E+02 -0.60195705272E+01  0.36820912468E+02  0.00000000000E+00 0. -1.
         11    1    4    4    0    0  0.18034131953E+02  0.10389789803E+02  0.53955454769E+01  0.21500919950E+02  0.51100000000E-03 0. -1.
        -11    1    4    4    0    0  0.98760808432E+01 -0.15615662473E+02  0.48270739187E+01  0.19096767532E+02  0.51100000000E-03 0.  1.
         12    1    4    4    0    0  0.37628222178E+01 -0.12560729553E+02 -0.42030488684E+01  0.13769400050E+02  0.00000000000E+00 0. -1.
</event>
<event>
 8    1  0.2553474E-006  0.9118800E+02  0.7816164E-02  0.1184000E+00
        -11   -1    0    0    0    0  0.00000000000E+00  0.00000000000E+00  0.45593999997E+02  0.45594000000E+02  0.51100000000E-03 0.  1.
         11   -1    0    0    0    0 -0.00000000000E+00 -0.00000000000E+00 -0.45593999997E+02  0.45594000000E+02  0.51100000000E-03 0. -1.
         23    2    1    2    0    0 -0.71054273576E-14 -0.44408920985E-15  0.88817841970E-15  0.91188000000E+02  0.91188000000E+02 0.  0.
    9900012    2    3    3    0    0 -0.36666894413E+02 -0.29576757546E+01  0.16033219796E+01  0.54367087013E+02  0.40000006465E+02 0.  0.
        -12    1    3    3    0    0  0.36666894413E+02  0.29576757546E+01 -0.16033219796E+01  0.36820912987E+02  0.00000000000E+00 0.  1.
         11    1    4    4    0    0 -0.72776266193E+01 -0.46014841979E+00 -0.67028620010E+01  0.99047435627E+01  0.51100000000E-03 0. -1.
        -11    1    4    4    0    0 -0.35991341886E+02  0.13887828972E+01  0.67699607935E+01  0.36648844157E+02  0.51100000000E-03 0.  1.
         12    1    4    4    0    0  0.66020740914E+01 -0.38863102320E+01  0.15362231871E+01  0.78134992934E+01  0.00000000000E+00 0. -1.
</event>
<event>
 8    1  0.2553474E-006  0.9118800E+02  0.7816164E-02  0.1184000E+00
        -11   -1    0    0    0    0  0.00000000000E+00  0.00000000000E+00  0.45593999997E+02  0.45594000000E+02  0.51100000000E-03 0. -1.
         11   -1    0    0    0    0 -0.00000000000E+00 -0.00000000000E+00 -0.45593999997E+02  0.45594000000E+02  0.51100000000E-03 0.  1.
         23    2    1    2    0    0  0.00000000000E+00  0.66613381478E-15  0.00000000000E+00  0.91188000000E+02  0.91188000000E+02 0.  0.
    9900012    2    3    3    0    0  0.22145845935E+02  0.14609472204E+01 -0.29380383271E+02  0.54367085018E+02  0.40000001915E+02 0.  0.
         12    1    3    3    0    0 -0.22145845935E+02 -0.14609472204E+01  0.29380383271E+02  0.36820914982E+02  0.00000000000E+00 0. -1.
         11    1    4    4    0    0  0.54008002317E+01  0.13527369232E+02 -0.63384575169E+01  0.15885037156E+02  0.51100000000E-03 0. -1.
        -11    1    4    4    0    0  0.11608588435E+02  0.50648670796E+01 -0.12095882849E+02  0.17513497257E+02  0.51100000000E-03 0.  1.
         12    1    4    4    0    0  0.51364572681E+01 -0.17131289092E+02 -0.10946042905E+02  0.20968550605E+02  0.00000000000E+00 0. -1.
</event>
<event>
 8    1  0.2553474E-006  0.9118800E+02  0.7816164E-02  0.1184000E+00
        -11   -1    0    0    0    0  0.00000000000E+00  0.00000000000E+00  0.45593999997E+02  0.45594000000E+02  0.51100000000E-03 0.  1.
         11   -1    0    0    0    0 -0.00000000000E+00 -0.00000000000E+00 -0.45593999997E+02  0.45594000000E+02  0.51100000000E-03 0. -1.
         23    2    1    2    0    0  0.00000000000E+00  0.17763568394E-14  0.00000000000E+00  0.91188000000E+02  0.91188000000E+02 0.  0.
    9900012    2    3    3    0    0  0.32134545470E+02  0.85335785691E+01 -0.15821788317E+02  0.54367082557E+02  0.39999996306E+02 0.  0.
        -12    1    3    3    0    0 -0.32134545470E+02 -0.85335785691E+01  0.15821788317E+02  0.36820917443E+02  0.00000000000E+00 0.  1.
         11    1    4    4    0    0  0.22696043763E+01 -0.25912425567E+01  0.94367864732E+01  0.10045824068E+02  0.51100000000E-03 0. -1.
        -11    1    4    4    0    0  0.15745760406E+02  0.14833856879E+02 -0.17265866071E+02  0.27678193802E+02  0.51100000000E-03 0.  1.
         12    1    4    4    0    0  0.14119180688E+02 -0.37090357536E+01 -0.79927087187E+01  0.16643064687E+02  0.00000000000E+00 0. -1.
</event>
<event>
 8    1  0.2553474E-006  0.9118800E+02  0.7816164E-02  0.1184000E+00
        -11   -1    0    0    0    0  0.00000000000E+00  0.00000000000E+00  0.45593999997E+02  0.45594000000E+02  0.51100000000E-03 0.  1.
         11   -1    0    0    0    0 -0.00000000000E+00 -0.00000000000E+00 -0.45593999997E+02  0.45594000000E+02  0.51100000000E-03 0. -1.
         23    2    1    2    0    0  0.00000000000E+00  0.00000000000E+00  0.00000000000E+00  0.91188000000E+02  0.91188000000E+02 0.  0.
    9900012    2    3    3    0    0 -0.35246879853E+02  0.84057183758E+01  0.65407458880E+01  0.54367082065E+02  0.39999995184E+02 0.  0.
         12    1    3    3    0    0  0.35246879853E+02 -0.84057183758E+01 -0.65407458880E+01  0.36820917935E+02  0.00000000000E+00 0. -1.
         11    1    4    4    0    0 -0.16944821116E+02 -0.78224516648E+01 -0.50173912179E+01  0.19325939243E+02  0.51100000000E-03 0. -1.
        -11    1    4    4    0    0 -0.17894115200E+02  0.40413038119E+01  0.15373436738E+00  0.18345438937E+02  0.51100000000E-03 0.  1.
        -12    1    4    4    0    0 -0.40794353690E+00  0.12186866229E+02  0.11404402739E+02  0.16695703885E+02  0.00000000000E+00 0.  1.
</event>
<event>
 8    1  0.2553474E-006  0.9118800E+02  0.7816164E-02  0.1184000E+00
        -11   -1    0    0    0    0  0.00000000000E+00  0.00000000000E+00  0.45593999997E+02  0.45594000000E+02  0.51100000000E-03 0. -1.
         11   -1    0    0    0    0 -0.00000000000E+00 -0.00000000000E+00 -0.45593999997E+02  0.45594000000E+02  0.51100000000E-03 0.  1.
         23    2    1    2    0    0  0.00000000000E+00  0.17763568394E-14 -0.17763568394E-14  0.91188000000E+02  0.91188000000E+02 0.  0.
    9900012    2    3    3    0    0  0.30451560830E+02 -0.14938724980E+02  0.14328852844E+02  0.54367094459E+02  0.40000023439E+02 0.  0.
        -12    1    3    3    0    0 -0.30451560830E+02  0.14938724980E+02 -0.14328852844E+02  0.36820905541E+02  0.00000000000E+00 0.  1.
         11    1    4    4    0    0  0.15831375790E+02 -0.18249234166E+02  0.98872743124E+00  0.24179424916E+02  0.51100000000E-03 0. -1.
        -11    1    4    4    0    0 -0.18010225970E+00 -0.69072041865E+01 -0.12590686655E+01  0.70233297419E+01  0.51100000000E-03 0.  1.
        -12    1    4    4    0    0  0.14800287299E+02  0.10217713373E+02  0.14599194079E+02  0.23164339802E+02  0.00000000000E+00 0.  1.
</event>
<event>
 8    1  0.2553474E-006  0.9118800E+02  0.7816164E-02  0.1184000E+00
        -11   -1    0    0    0    0  0.00000000000E+00  0.00000000000E+00  0.45593999997E+02  0.45594000000E+02  0.51100000000E-03 0.  1.
         11   -1    0    0    0    0 -0.00000000000E+00 -0.00000000000E+00 -0.45593999997E+02  0.45594000000E+02  0.51100000000E-03 0. -1.
         23    2    1    2    0    0  0.00000000000E+00 -0.88817841970E-15 -0.35527136788E-14  0.91188000000E+02  0.91188000000E+02 0.  0.
    9900012    2    3    3    0    0 -0.21539991106E+02  0.79063448141E+01 -0.28797456927E+02  0.54367149513E+02  0.40000148944E+02 0.  0.
        -12    1    3    3    0    0  0.21539991106E+02 -0.79063448141E+01  0.28797456927E+02  0.36820850487E+02  0.00000000000E+00 0.  1.
         11    1    4    4    0    0 -0.90291812944E+01  0.14590429143E+02 -0.50245639797E+01  0.17878841710E+02  0.51100000000E-03 0. -1.
        -11    1    4    4    0    0 -0.73077135704E+01 -0.85791592303E+00  0.34790667178E+01  0.81389558818E+01  0.51100000000E-03 0.  1.
         12    1    4    4    0    0 -0.52030962407E+01 -0.58261684061E+01 -0.27251959665E+02  0.28349351921E+02  0.00000000000E+00 0. -1.
</event>
<event>
 8    1  0.2553474E-006  0.9118800E+02  0.7816164E-02  0.1184000E+00
        -11   -1    0    0    0    0  0.00000000000E+00  0.00000000000E+00  0.45593999997E+02  0.45594000000E+02  0.51100000000E-03 0. -1.
         11   -1    0    0    0    0 -0.00000000000E+00 -0.00000000000E+00 -0.45593999997E+02  0.45594000000E+02  0.51100000000E-03 0.  1.
         23    2    1    2    0    0 -0.17763568394E-14  0.00000000000E+00  0.35527136788E-14  0.91188000000E+02  0.91188000000E+02 0.  0.
    9900012    2    3    3    0    0  0.11001865272E+02 -0.26435583546E+02 -0.23149482719E+02  0.54367086553E+02  0.40000005415E+02 0.  0.
         12    1    3    3    0    0 -0.11001865272E+02  0.26435583546E+02  0.23149482719E+02  0.36820913447E+02  0.00000000000E+00 0. -1.
         11    1    4    4    0    0  0.94451660263E+00 -0.59514054469E+00  0.56935111824E+00  0.12531818853E+01  0.51100000000E-03 0. -1.
        -11    1    4    4    0    0 -0.14875595036E+02 -0.85483041723E+01 -0.93872539772E+01  0.19557028645E+02  0.51100000000E-03 0.  1.
         12    1    4    4    0    0  0.24932943706E+02 -0.17292138829E+02 -0.14331579860E+02  0.33556876023E+02  0.00000000000E+00 0. -1.
</event>
<event>
 8    1  0.2553474E-006  0.9118800E+02  0.7816164E-02  0.1184000E+00
        -11   -1    0    0    0    0  0.00000000000E+00  0.00000000000E+00  0.45593999997E+02  0.45594000000E+02  0.51100000000E-03 0.  1.
         11   -1    0    0    0    0 -0.00000000000E+00 -0.00000000000E+00 -0.45593999997E+02  0.45594000000E+02  0.51100000000E-03 0. -1.
         23    2    1    2    0    0  0.35527136788E-14  0.00000000000E+00 -0.35527136788E-14  0.91188000000E+02  0.91188000000E+02 0.  0.
    9900012    2    3    3    0    0 -0.22072095429E+02  0.21731862595E+02  0.19908020389E+02  0.54367074913E+02  0.39999978879E+02 0.  0.
        -12    1    3    3    0    0  0.22072095429E+02 -0.21731862595E+02 -0.19908020389E+02  0.36820925087E+02  0.00000000000E+00 0.  1.
         11    1    4    4    0    0 -0.66914374376E+00 -0.54289771778E+01  0.95338424312E+01  0.10991619458E+02  0.51100000000E-03 0. -1.
        -11    1    4    4    0    0  0.24272952018E+01 -0.24051712439E+01  0.32954097213E+01  0.47472451171E+01  0.51100000000E-03 0.  1.
         12    1    4    4    0    0 -0.23830246887E+02  0.29566011017E+02  0.70787682361E+01  0.38628210338E+02  0.00000000000E+00 0. -1.
</event>
<event>
 8    1  0.2553474E-006  0.9118800E+02  0.7816164E-02  0.1184000E+00
        -11   -1    0    0    0    0  0.00000000000E+00  0.00000000000E+00  0.45593999997E+02  0.45594000000E+02  0.51100000000E-03 0. -1.
         11   -1    0    0    0    0 -0.00000000000E+00 -0.00000000000E+00 -0.45593999997E+02  0.45594000000E+02  0.51100000000E-03 0.  1.
         23    2    1    2    0    0  0.35527136788E-14  0.35527136788E-14  0.00000000000E+00  0.91188000000E+02  0.91188000000E+02 0.  0.
    9900012    2    3    3    0    0 -0.18323386426E+02  0.27478360193E+02 -0.16277939723E+02  0.54367107959E+02  0.40000054215E+02 0.  0.
         12    1    3    3    0    0  0.18323386426E+02 -0.27478360193E+02  0.16277939723E+02  0.36820892041E+02  0.00000000000E+00 0. -1.
         11    1    4    4    0    0 -0.62412813181E+01  0.85771477702E+01 -0.21975687830E+02  0.24401883375E+02  0.51100000000E-03 0.  1.
        -11    1    4    4    0    0 -0.13782568221E+02  0.19494629722E+02 -0.12011057975E+00  0.23874970191E+02  0.51100000000E-03 0. -1.
         12    1    4    4    0    0  0.17004631135E+01 -0.59341729933E+00  0.58178586864E+01  0.60902543942E+01  0.00000000000E+00 0. -1.
</event>
<event>
 8    1  0.2553474E-006  0.9118800E+02  0.7816164E-02  0.1184000E+00
        -11   -1    0    0    0    0  0.00000000000E+00  0.00000000000E+00  0.45593999997E+02  0.45594000000E+02  0.51100000000E-03 0.  1.
         11   -1    0    0    0    0 -0.00000000000E+00 -0.00000000000E+00 -0.45593999997E+02  0.45594000000E+02  0.51100000000E-03 0. -1.
         23    2    1    2    0    0 -0.35527136788E-14 -0.35527136788E-14  0.44408920985E-15  0.91188000000E+02  0.91188000000E+02 0.  0.
    9900012    2    3    3    0    0  0.19613415100E+02  0.30918940128E+02  0.38878291561E+01  0.54367053162E+02  0.39999929292E+02 0.  0.
         12    1    3    3    0    0 -0.19613415100E+02 -0.30918940128E+02 -0.38878291561E+01  0.36820946838E+02  0.00000000000E+00 0. -1.
         11    1    4    4    0    0 -0.10279191063E+02  0.54677887552E+01 -0.34049724726E+01  0.12130635621E+02  0.51100000000E-03 0. -1.
        -11    1    4    4    0    0  0.27258874748E+00  0.47172590544E+01 -0.16256249294E+01  0.49969484972E+01  0.51100000000E-03 0.  1.
        -12    1    4    4    0    0  0.29620017415E+02  0.20733892319E+02  0.89184265581E+01  0.37239469043E+02  0.00000000000E+00 0.  1.
</event>
<event>
 8    1  0.2553474E-006  0.9118800E+02  0.7816164E-02  0.1184000E+00
        -11   -1    0    0    0    0  0.00000000000E+00  0.00000000000E+00  0.45593999997E+02  0.45594000000E+02  0.51100000000E-03 0.  1.
         11   -1    0    0    0    0 -0.00000000000E+00 -0.00000000000E+00 -0.45593999997E+02  0.45594000000E+02  0.51100000000E-03 0. -1.
         23    2    1    2    0    0 -0.88817841970E-15  0.00000000000E+00  0.00000000000E+00  0.91188000000E+02  0.91188000000E+02 0.  0.
    9900012    2    3    3    0    0  0.48488912525E+01  0.29784414692E+02  0.21098765504E+02  0.54367068307E+02  0.39999963820E+02 0.  0.
         12    1    3    3    0    0 -0.48488912525E+01 -0.29784414692E+02 -0.21098765504E+02  0.36820931693E+02  0.00000000000E+00 0. -1.
         11    1    4    4    0    0 -0.46815298336E+01  0.15397037941E+02  0.11189918280E+01  0.16131882777E+02  0.51100000000E-03 0. -1.
        -11    1    4    4    0    0  0.38454217967E+01 -0.66552028242E+01 -0.12741302040E+01  0.77911745882E+01  0.51100000000E-03 0.  1.
        -12    1    4    4    0    0  0.56849992893E+01  0.21042579575E+02  0.21253903880E+02  0.30444010942E+02  0.00000000000E+00 0.  1.
</event>
<event>
 8    1  0.2553474E-006  0.9118800E+02  0.7816164E-02  0.1184000E+00
        -11   -1    0    0    0    0  0.00000000000E+00  0.00000000000E+00  0.45593999997E+02  0.45594000000E+02  0.51100000000E-03 0.  1.
         11   -1    0    0    0    0 -0.00000000000E+00 -0.00000000000E+00 -0.45593999997E+02  0.45594000000E+02  0.51100000000E-03 0. -1.
         23    2    1    2    0    0 -0.17763568394E-14 -0.35527136788E-14  0.00000000000E+00  0.91188000000E+02  0.91188000000E+02 0.  0.
    9900012    2    3    3    0    0  0.14206665523E+02 -0.17623767347E+02  0.29040540624E+02  0.54367088543E+02  0.40000009952E+02 0.  0.
         12    1    3    3    0    0 -0.14206665523E+02  0.17623767347E+02 -0.29040540624E+02  0.36820911457E+02  0.00000000000E+00 0. -1.
         11    1    4    4    0    0  0.21629897168E+01 -0.19284340871E+02  0.75666646373E+01  0.20828315855E+02  0.51100000000E-03 0. -1.
        -11    1    4    4    0    0 -0.39759275017E+01 -0.57871878980E+01  0.10851317036E+02  0.12924806573E+02  0.51100000000E-03 0.  1.
        -12    1    4    4    0    0  0.16019603308E+02  0.74477614226E+01  0.10622558951E+02  0.20613966115E+02  0.00000000000E+00 0.  1.
</event>
<event>
 8    1  0.2553474E-006  0.9118800E+02  0.7816164E-02  0.1184000E+00
        -11   -1    0    0    0    0  0.00000000000E+00  0.00000000000E+00  0.45593999997E+02  0.45594000000E+02  0.51100000000E-03 0.  1.
         11   -1    0    0    0    0 -0.00000000000E+00 -0.00000000000E+00 -0.45593999997E+02  0.45594000000E+02  0.51100000000E-03 0. -1.
         23    2    1    2    0    0  0.35527136788E-14  0.88817841970E-15  0.00000000000E+00  0.91188000000E+02  0.91188000000E+02 0.  0.
    9900012    2    3    3    0    0  0.23535775238E+02  0.63608861470E+01 -0.27593236245E+02  0.54367078296E+02  0.39999986591E+02 0.  0.
        -12    1    3    3    0    0 -0.23535775238E+02 -0.63608861470E+01  0.27593236245E+02  0.36820921704E+02  0.00000000000E+00 0.  1.
         11    1    4    4    0    0  0.49440185790E+01 -0.57231523515E+00  0.50510503940E+01  0.70911194308E+01  0.51100000000E-03 0. -1.
        -11    1    4    4    0    0  0.43073464027E+01  0.51305117284E+01  0.40707806826E+01  0.78387906756E+01  0.51100000000E-03 0.  1.
         12    1    4    4    0    0  0.14284410257E+02  0.18026896537E+01 -0.36715067322E+02  0.39437168190E+02  0.00000000000E+00 0. -1.
</event>
<event>
 8    1  0.2553474E-006  0.9118800E+02  0.7816164E-02  0.1184000E+00
        -11   -1    0    0    0    0  0.00000000000E+00  0.00000000000E+00  0.45593999997E+02  0.45594000000E+02  0.51100000000E-03 0.  1.
         11   -1    0    0    0    0 -0.00000000000E+00 -0.00000000000E+00 -0.45593999997E+02  0.45594000000E+02  0.51100000000E-03 0. -1.
         23    2    1    2    0    0  0.17763568394E-14  0.00000000000E+00 -0.71054273576E-14  0.91188000000E+02  0.91188000000E+02 0.  0.
    9900012    2    3    3    0    0  0.84296533423E+01  0.19459220725E+02 -0.30100800144E+02  0.54367102455E+02  0.40000041667E+02 0.  0.
        -12    1    3    3    0    0 -0.84296533423E+01 -0.19459220725E+02  0.30100800144E+02  0.36820897545E+02  0.00000000000E+00 0.  1.
         11    1    4    4    0    0  0.19526074358E+02 -0.14335077150E+01 -0.82999199233E+01  0.21265257939E+02  0.51100000000E-03 0. -1.
        -11    1    4    4    0    0 -0.76639733649E+00 -0.30672651622E+00 -0.24851707187E+01  0.26186866547E+01  0.51100000000E-03 0.  1.
         12    1    4    4    0    0 -0.10330023679E+02  0.21199454956E+02 -0.19315709502E+02  0.30483157862E+02  0.00000000000E+00 0. -1.
</event>
<event>
 8    1  0.2553474E-006  0.9118800E+02  0.7816164E-02  0.1184000E+00
        -11   -1    0    0    0    0  0.00000000000E+00  0.00000000000E+00  0.45593999997E+02  0.45594000000E+02  0.51100000000E-03 0. -1.
         11   -1    0    0    0    0 -0.00000000000E+00 -0.00000000000E+00 -0.45593999997E+02  0.45594000000E+02  0.51100000000E-03 0.  1.
         23    2    1    2    0    0  0.35527136788E-14  0.00000000000E+00  0.35527136788E-14  0.91188000000E+02  0.91188000000E+02 0.  0.
    9900012    2    3    3    0    0  0.18798443175E+02  0.21431011482E+02  0.23304725103E+02  0.54367082968E+02  0.39999997242E+02 0.  0.
        -12    1    3    3    0    0 -0.18798443175E+02 -0.21431011482E+02 -0.23304725103E+02  0.36820917032E+02  0.00000000000E+00 0.  1.
         11    1    4    4    0    0  0.69100991683E+01  0.14952938160E+02  0.76496294393E+01  0.18161956419E+02  0.51100000000E-03 0. -1.
        -11    1    4    4    0    0 -0.87218462682E+01  0.93346357397E+00 -0.14027449519E+01  0.88831103917E+01  0.51100000000E-03 0.  1.
        -12    1    4    4    0    0  0.20610190275E+02  0.55446097480E+01  0.17057840615E+02  0.27322016157E+02  0.00000000000E+00 0.  1.
</event>
<event>
 8    1  0.2553474E-006  0.9118800E+02  0.7816164E-02  0.1184000E+00
        -11   -1    0    0    0    0  0.00000000000E+00  0.00000000000E+00  0.45593999997E+02  0.45594000000E+02  0.51100000000E-03 0.  1.
         11   -1    0    0    0    0 -0.00000000000E+00 -0.00000000000E+00 -0.45593999997E+02  0.45594000000E+02  0.51100000000E-03 0. -1.
         23    2    1    2    0    0  0.35527136788E-14  0.00000000000E+00  0.35527136788E-14  0.91188000000E+02  0.91188000000E+02 0.  0.
    9900012    2    3    3    0    0  0.19711233498E+02 -0.12833939701E+02  0.28329086553E+02  0.54367083672E+02  0.39999998848E+02 0.  0.
         12    1    3    3    0    0 -0.19711233498E+02  0.12833939701E+02 -0.28329086553E+02  0.36820916328E+02  0.00000000000E+00 0. -1.
         11    1    4    4    0    0  0.79632433117E+01 -0.92151769622E+01  0.26454842441E+01  0.12463198531E+02  0.51100000000E-03 0. -1.
        -11    1    4    4    0    0 -0.30591228809E+01  0.11195380231E+02  0.12958812430E+02  0.17396137249E+02  0.51100000000E-03 0.  1.
        -12    1    4    4    0    0  0.14807113067E+02 -0.14814142969E+02  0.12724789879E+02  0.24507747893E+02  0.00000000000E+00 0.  1.
</event>
<event>
 8    1  0.3725764E-006  0.9118800E+02  0.7816164E-02  0.1184000E+00
        -11   -1    0    0    0    0  0.00000000000E+00  0.00000000000E+00  0.45593999997E+02  0.45594000000E+02  0.51100000000E-03 0.  1.
         11   -1    0    0    0    0 -0.00000000000E+00 -0.00000000000E+00 -0.45593999997E+02  0.45594000000E+02  0.51100000000E-03 0. -1.
         23    2    1    2    0    0  0.00000000000E+00  0.00000000000E+00  0.00000000000E+00  0.91188000000E+02  0.91188000000E+02 0.  0.
    9900012    2    3    3    0    0 -0.24458792662E+01  0.93137945734E+01  0.35539422873E+02  0.54367086474E+02  0.40000005236E+02 0.  0.
         12    1    3    3    0    0  0.24458792662E+01 -0.93137945734E+01 -0.35539422873E+02  0.36820913526E+02  0.00000000000E+00 0. -1.
         11    1    4    4    0    0 -0.22426820541E+01  0.64759957712E+01  0.23733972810E+02  0.24703635555E+02  0.51100000000E-03 0. -1.
        -11    1    4    4    0    0 -0.19719920659E+01  0.21004328991E+00  0.20403924277E+02  0.20500073098E+02  0.51100000000E-03 0.  1.
         12    1    4    4    0    0  0.17687948538E+01  0.26277555123E+01 -0.85984742145E+01  0.91633778206E+01  0.00000000000E+00 0. -1.
</event>
<event>
 8    1  0.2553474E-006  0.9118800E+02  0.7816164E-02  0.1184000E+00
        -11   -1    0    0    0    0  0.00000000000E+00  0.00000000000E+00  0.45593999997E+02  0.45594000000E+02  0.51100000000E-03 0.  1.
         11   -1    0    0    0    0 -0.00000000000E+00 -0.00000000000E+00 -0.45593999997E+02  0.45594000000E+02  0.51100000000E-03 0. -1.
         23    2    1    2    0    0  0.00000000000E+00  0.00000000000E+00 -0.35527136788E-14  0.91188000000E+02  0.91188000000E+02 0.  0.
    9900012    2    3    3    0    0  0.36471055113E+01 -0.23713898686E+02 -0.27931018782E+02  0.54366916641E+02  0.39999618066E+02 0.  0.
        -12    1    3    3    0    0 -0.36471055113E+01  0.23713898686E+02  0.27931018782E+02  0.36821083359E+02  0.00000000000E+00 0.  1.
         11    1    4    4    0    0 -0.12824374576E+02 -0.58778073046E+01 -0.41299150502E+01  0.14699299322E+02  0.51100000000E-03 0. -1.
        -11    1    4    4    0    0  0.57228357228E+01 -0.97748230395E+01 -0.23659620112E+02  0.26231195899E+02  0.51100000000E-03 0.  1.
        -12    1    4    4    0    0  0.10748644365E+02 -0.80612683423E+01 -0.14148361910E+00  0.13436421420E+02  0.00000000000E+00 0.  1.
</event>
<event>
 8    1  0.2553474E-006  0.9118800E+02  0.7816164E-02  0.1184000E+00
        -11   -1    0    0    0    0  0.00000000000E+00  0.00000000000E+00  0.45593999997E+02  0.45594000000E+02  0.51100000000E-03 0.  1.
         11   -1    0    0    0    0 -0.00000000000E+00 -0.00000000000E+00 -0.45593999997E+02  0.45594000000E+02  0.51100000000E-03 0. -1.
         23    2    1    2    0    0  0.00000000000E+00 -0.17763568394E-14 -0.17763568394E-14  0.91188000000E+02  0.91188000000E+02 0.  0.
    9900012    2    3    3    0    0 -0.31884319250E+02 -0.13023669646E+02  0.13021325896E+02  0.54367072348E+02  0.39999973031E+02 0.  0.
         12    1    3    3    0    0  0.31884319250E+02  0.13023669646E+02 -0.13021325896E+02  0.36820927652E+02  0.00000000000E+00 0. -1.
         11    1    4    4    0    0  0.18362428121E+01  0.42545561427E+01 -0.63233204708E+01  0.78394781506E+01  0.51100000000E-03 0. -1.
        -11    1    4    4    0    0 -0.22577758307E+02 -0.34934091247E+01  0.42335672398E+01  0.23235364626E+02  0.51100000000E-03 0.  1.
         12    1    4    4    0    0 -0.11142803756E+02 -0.13784816664E+02  0.15111079127E+02  0.23292229571E+02  0.00000000000E+00 0. -1.
</event>
<event>
 8    1  0.2553474E-006  0.9118800E+02  0.7816164E-02  0.1184000E+00
        -11   -1    0    0    0    0  0.00000000000E+00  0.00000000000E+00  0.45593999997E+02  0.45594000000E+02  0.51100000000E-03 0. -1.
         11   -1    0    0    0    0 -0.00000000000E+00 -0.00000000000E+00 -0.45593999997E+02  0.45594000000E+02  0.51100000000E-03 0.  1.
         23    2    1    2    0    0  0.00000000000E+00  0.00000000000E+00  0.00000000000E+00  0.91188000000E+02  0.91188000000E+02 0.  0.
    9900012    2    3    3    0    0 -0.10674759157E+02  0.16693167676E+02  0.31034968119E+02  0.54367060628E+02  0.39999946314E+02 0.  0.
        -12    1    3    3    0    0  0.10674759157E+02 -0.16693167676E+02 -0.31034968119E+02  0.36820939372E+02  0.00000000000E+00 0.  1.
         11    1    4    4    0    0 -0.25429760178E+01  0.64623209742E+01  0.94471993525E+01  0.11725096813E+02  0.51100000000E-03 0. -1.
        -11    1    4    4    0    0 -0.64359366322E+00  0.19910300241E+02  0.22879028507E+02  0.30336186547E+02  0.51100000000E-03 0.  1.
        -12    1    4    4    0    0 -0.74881894763E+01 -0.96794535397E+01 -0.12912597413E+01  0.12305777268E+02  0.00000000000E+00 0.  1.
</event>
<event>
 8    1  0.2553474E-006  0.9118800E+02  0.7816164E-02  0.1184000E+00
        -11   -1    0    0    0    0  0.00000000000E+00  0.00000000000E+00  0.45593999997E+02  0.45594000000E+02  0.51100000000E-03 0.  1.
         11   -1    0    0    0    0 -0.00000000000E+00 -0.00000000000E+00 -0.45593999997E+02  0.45594000000E+02  0.51100000000E-03 0. -1.
         23    2    1    2    0    0 -0.17763568394E-14  0.00000000000E+00  0.00000000000E+00  0.91188000000E+02  0.91188000000E+02 0.  0.
    9900012    2    3    3    0    0  0.99610614603E+01 -0.35352002393E+02  0.26066100228E+01  0.54367065270E+02  0.39999956895E+02 0.  0.
        -12    1    3    3    0    0 -0.99610614603E+01  0.35352002393E+02 -0.26066100228E+01  0.36820934730E+02  0.00000000000E+00 0.  1.
         11    1    4    4    0    0  0.78952320515E+01 -0.12989428088E+02 -0.21336418211E+01  0.15349669667E+02  0.51100000000E-03 0. -1.
        -11    1    4    4    0    0  0.14059223669E+02 -0.22724166450E+02  0.29081871524E+01  0.26879491509E+02  0.51100000000E-03 0.  1.
        -12    1    4    4    0    0 -0.11993394260E+02  0.36159214477E+00  0.18320646915E+01  0.12137904094E+02  0.00000000000E+00 0.  1.
</event>
<event>
 8    1  0.2553474E-006  0.9118800E+02  0.7816164E-02  0.1184000E+00
        -11   -1    0    0    0    0  0.00000000000E+00  0.00000000000E+00  0.45593999997E+02  0.45594000000E+02  0.51100000000E-03 0.  1.
         11   -1    0    0    0    0 -0.00000000000E+00 -0.00000000000E+00 -0.45593999997E+02  0.45594000000E+02  0.51100000000E-03 0. -1.
         23    2    1    2    0    0  0.00000000000E+00  0.00000000000E+00 -0.35527136788E-14  0.91188000000E+02  0.91188000000E+02 0.  0.
    9900012    2    3    3    0    0  0.24783524767E+02  0.89013622656E+01 -0.25735631235E+02  0.54367081148E+02  0.39999993093E+02 0.  0.
        -12    1    3    3    0    0 -0.24783524767E+02 -0.89013622656E+01  0.25735631235E+02  0.36820918852E+02  0.00000000000E+00 0.  1.
         11    1    4    4    0    0 -0.11353887950E+01  0.72049606735E+01 -0.46297858572E+01  0.86391830266E+01  0.51100000000E-03 0. -1.
        -11    1    4    4    0    0  0.51099500849E+01  0.10049720318E+02 -0.20383009564E+02  0.23293251115E+02  0.51100000000E-03 0.  1.
         12    1    4    4    0    0  0.20808963477E+02 -0.83533187255E+01 -0.72283581322E+00  0.22434647007E+02  0.00000000000E+00 0. -1.
</event>
<event>
 8    1  0.2553474E-006  0.9118800E+02  0.7816164E-02  0.1184000E+00
        -11   -1    0    0    0    0  0.00000000000E+00  0.00000000000E+00  0.45593999997E+02  0.45594000000E+02  0.51100000000E-03 0.  1.
         11   -1    0    0    0    0 -0.00000000000E+00 -0.00000000000E+00 -0.45593999997E+02  0.45594000000E+02  0.51100000000E-03 0. -1.
         23    2    1    2    0    0  0.00000000000E+00  0.35527136788E-14  0.17763568394E-14  0.91188000000E+02  0.91188000000E+02 0.  0.
    9900012    2    3    3    0    0  0.14403280274E+02  0.30364801575E+02 -0.15043403014E+02  0.54367087035E+02  0.40000006514E+02 0.  0.
        -12    1    3    3    0    0 -0.14403280274E+02 -0.30364801575E+02  0.15043403014E+02  0.36820912965E+02  0.00000000000E+00 0.  1.
         11    1    4    4    0    0  0.87809350678E+01  0.35072470790E+01 -0.12188994190E+02  0.15426509079E+02  0.51100000000E-03 0. -1.
        -11    1    4    4    0    0  0.69415125303E+01 -0.26838789865E+01  0.41920753330E+01  0.85417386099E+01  0.51100000000E-03 0.  1.
        -12    1    4    4    0    0 -0.13191673242E+01  0.29541433482E+02 -0.70464841565E+01  0.30398839346E+02  0.00000000000E+00 0.  1.
</event>
<event>
 8    1  0.2553474E-006  0.9118800E+02  0.7816164E-02  0.1184000E+00
        -11   -1    0    0    0    0  0.00000000000E+00  0.00000000000E+00  0.45593999997E+02  0.45594000000E+02  0.51100000000E-03 0.  1.
         11   -1    0    0    0    0 -0.00000000000E+00 -0.00000000000E+00 -0.45593999997E+02  0.45594000000E+02  0.51100000000E-03 0. -1.
         23    2    1    2    0    0  0.22204460493E-15  0.11102230246E-14  0.00000000000E+00  0.91188000000E+02  0.91188000000E+02 0.  0.
    9900012    2    3    3    0    0 -0.47826131657E+00  0.12907923483E+01  0.36795180948E+02  0.54367079048E+02  0.39999988305E+02 0.  0.
         12    1    3    3    0    0  0.47826131657E+00 -0.12907923483E+01 -0.36795180948E+02  0.36820920952E+02  0.00000000000E+00 0. -1.
         11    1    4    4    0    0  0.14749686534E+01  0.18672063114E+02  0.21433150943E+02  0.28464037539E+02  0.51100000000E-03 0. -1.
        -11    1    4    4    0    0  0.36312786633E+01 -0.68014326714E+01  0.10412540309E+02  0.12956336946E+02  0.51100000000E-03 0.  1.
        -12    1    4    4    0    0 -0.55845086333E+01 -0.10579838094E+02  0.49494896971E+01  0.12946704563E+02  0.00000000000E+00 0.  1.
</event>
<event>
 8    1  0.2553474E-006  0.9118800E+02  0.7816164E-02  0.1184000E+00
        -11   -1    0    0    0    0  0.00000000000E+00  0.00000000000E+00  0.45593999997E+02  0.45594000000E+02  0.51100000000E-03 0. -1.
         11   -1    0    0    0    0 -0.00000000000E+00 -0.00000000000E+00 -0.45593999997E+02  0.45594000000E+02  0.51100000000E-03 0.  1.
         23    2    1    2    0    0  0.00000000000E+00  0.88817841970E-15  0.71054273576E-14  0.91188000000E+02  0.91188000000E+02 0.  0.
    9900012    2    3    3    0    0  0.13708543488E+02  0.35717806219E+01  0.33986832124E+02  0.54366993235E+02  0.39999792677E+02 0.  0.
        -12    1    3    3    0    0 -0.13708543488E+02 -0.35717806219E+01 -0.33986832124E+02  0.36821006765E+02  0.00000000000E+00 0.  1.
         11    1    4    4    0    0 -0.44241016031E+01  0.15283197798E+01  0.22410020266E+01  0.51894630443E+01  0.51100000000E-03 0. -1.
        -11    1    4    4    0    0 -0.17803532537E+01  0.38086632931E+01 -0.54898619243E+01  0.69147782320E+01  0.51100000000E-03 0.  1.
         12    1    4    4    0    0  0.19912998345E+02 -0.17652024510E+01  0.37235692022E+02  0.42262751959E+02  0.00000000000E+00 0. -1.
</event>
<event>
 8    1  0.2553474E-006  0.9118800E+02  0.7816164E-02  0.1184000E+00
        -11   -1    0    0    0    0  0.00000000000E+00  0.00000000000E+00  0.45593999997E+02  0.45594000000E+02  0.51100000000E-03 0.  1.
         11   -1    0    0    0    0 -0.00000000000E+00 -0.00000000000E+00 -0.45593999997E+02  0.45594000000E+02  0.51100000000E-03 0. -1.
         23    2    1    2    0    0  0.00000000000E+00  0.00000000000E+00 -0.35527136788E-14  0.91188000000E+02  0.91188000000E+02 0.  0.
    9900012    2    3    3    0    0  0.99889114470E+01 -0.23955671698E+02  0.26117557601E+02  0.54367090540E+02  0.40000014504E+02 0.  0.
         12    1    3    3    0    0 -0.99889114470E+01  0.23955671698E+02 -0.26117557601E+02  0.36820909460E+02  0.00000000000E+00 0. -1.
         11    1    4    4    0    0  0.49219115311E+01 -0.21198850275E+02  0.80726611923E+01  0.23211728180E+02  0.51100000000E-03 0. -1.
        -11    1    4    4    0    0  0.89751244797E+01 -0.29461215193E+01 -0.28738975837E+01  0.98737925346E+01  0.51100000000E-03 0.  1.
        -12    1    4    4    0    0 -0.39081245638E+01  0.18930009603E+00  0.20918793993E+02  0.21281569826E+02  0.00000000000E+00 0.  1.
</event>
<event>
 8    1  0.2553474E-006  0.9118800E+02  0.7816164E-02  0.1184000E+00
        -11   -1    0    0    0    0  0.00000000000E+00  0.00000000000E+00  0.45593999997E+02  0.45594000000E+02  0.51100000000E-03 0.  1.
         11   -1    0    0    0    0 -0.00000000000E+00 -0.00000000000E+00 -0.45593999997E+02  0.45594000000E+02  0.51100000000E-03 0. -1.
         23    2    1    2    0    0  0.88817841970E-15  0.00000000000E+00  0.00000000000E+00  0.91188000000E+02  0.91188000000E+02 0.  0.
    9900012    2    3    3    0    0 -0.75664141941E+01 -0.50079988104E+01  0.35685430660E+02  0.54367073379E+02  0.39999975382E+02 0.  0.
         12    1    3    3    0    0  0.75664141941E+01  0.50079988104E+01 -0.35685430660E+02  0.36820926621E+02  0.00000000000E+00 0. -1.
         11    1    4    4    0    0  0.88763420823E+01  0.17638943329E+01 -0.31846206428E+00  0.90555060779E+01  0.51100000000E-03 0. -1.
        -11    1    4    4    0    0 -0.18228328149E+01  0.80152852276E+00  0.25935959378E+02  0.26012288568E+02  0.51100000000E-03 0.  1.
         12    1    4    4    0    0 -0.14619923462E+02 -0.75734216661E+01  0.10067933346E+02  0.19299278733E+02  0.00000000000E+00 0. -1.
</event>
<event>
 8    1  0.2553474E-006  0.9118800E+02  0.7816164E-02  0.1184000E+00
        -11   -1    0    0    0    0  0.00000000000E+00  0.00000000000E+00  0.45593999997E+02  0.45594000000E+02  0.51100000000E-03 0.  1.
         11   -1    0    0    0    0 -0.00000000000E+00 -0.00000000000E+00 -0.45593999997E+02  0.45594000000E+02  0.51100000000E-03 0. -1.
         23    2    1    2    0    0 -0.17763568394E-14  0.00000000000E+00  0.35527136788E-14  0.91188000000E+02  0.91188000000E+02 0.  0.
    9900012    2    3    3    0    0  0.11400597663E+02 -0.17596052870E+02  0.30268578762E+02  0.54367060795E+02  0.39999946695E+02 0.  0.
         12    1    3    3    0    0 -0.11400597663E+02  0.17596052870E+02 -0.30268578762E+02  0.36820939205E+02  0.00000000000E+00 0. -1.
         11    1    4    4    0    0  0.74972554779E+00  0.78540821126E+01  0.20634824793E+01  0.81551612143E+01  0.51100000000E-03 0.  1.
        -11    1    4    4    0    0  0.98189114936E+01 -0.17886588431E+02  0.39395278175E+01  0.20781264358E+02  0.51100000000E-03 0. -1.
        -12    1    4    4    0    0  0.83196062129E+00 -0.75635465509E+01  0.24265568465E+02  0.25430635223E+02  0.00000000000E+00 0.  1.
</event>
<event>
 8    1  0.2553474E-006  0.9118800E+02  0.7816164E-02  0.1184000E+00
        -11   -1    0    0    0    0  0.00000000000E+00  0.00000000000E+00  0.45593999997E+02  0.45594000000E+02  0.51100000000E-03 0.  1.
         11   -1    0    0    0    0 -0.00000000000E+00 -0.00000000000E+00 -0.45593999997E+02  0.45594000000E+02  0.51100000000E-03 0. -1.
         23    2    1    2    0    0  0.00000000000E+00 -0.17763568394E-14 -0.88817841970E-15  0.91188000000E+02  0.91188000000E+02 0.  0.
    9900012    2    3    3    0    0  0.35230584999E+02 -0.10143922719E+02  0.34178909458E+01  0.54367146316E+02  0.40000141657E+02 0.  0.
         12    1    3    3    0    0 -0.35230584999E+02  0.10143922719E+02 -0.34178909458E+01  0.36820853684E+02  0.00000000000E+00 0. -1.
         11    1    4    4    0    0  0.85742416740E+01  0.11565670994E+02 -0.31957810642E+00  0.14400850539E+02  0.51100000000E-03 0. -1.
        -11    1    4    4    0    0  0.17298150179E+02 -0.15829439978E+02 -0.70879374348E+01  0.24495632814E+02  0.51100000000E-03 0.  1.
        -12    1    4    4    0    0  0.93581931457E+01 -0.58801537346E+01  0.10825406487E+02  0.15470662963E+02  0.00000000000E+00 0.  1.
</event>
<event>
 8    1  0.2553474E-006  0.9118800E+02  0.7816164E-02  0.1184000E+00
        -11   -1    0    0    0    0  0.00000000000E+00  0.00000000000E+00  0.45593999997E+02  0.45594000000E+02  0.51100000000E-03 0. -1.
         11   -1    0    0    0    0 -0.00000000000E+00 -0.00000000000E+00 -0.45593999997E+02  0.45594000000E+02  0.51100000000E-03 0.  1.
         23    2    1    2    0    0  0.00000000000E+00 -0.35527136788E-14 -0.35527136788E-14  0.91188000000E+02  0.91188000000E+02 0.  0.
    9900012    2    3    3    0    0 -0.22306170465E+02 -0.26853109286E+02 -0.11710114213E+02  0.54367061745E+02  0.39999948859E+02 0.  0.
         12    1    3    3    0    0  0.22306170465E+02  0.26853109286E+02  0.11710114213E+02  0.36820938255E+02  0.00000000000E+00 0. -1.
         11    1    4    4    0    0  0.43485656729E+01  0.33431167546E+01 -0.40407516668E+00  0.54999754588E+01  0.51100000000E-03 0. -1.
        -11    1    4    4    0    0 -0.13635812765E+02 -0.17409452098E+02  0.68248592682E+01  0.23143100838E+02  0.51100000000E-03 0.  1.
        -12    1    4    4    0    0 -0.13018923373E+02 -0.12786773942E+02 -0.18130898314E+02  0.25723985448E+02  0.00000000000E+00 0.  1.
</event>
<event>
 8    1  0.2553474E-006  0.9118800E+02  0.7816164E-02  0.1184000E+00
        -11   -1    0    0    0    0  0.00000000000E+00  0.00000000000E+00  0.45593999997E+02  0.45594000000E+02  0.51100000000E-03 0.  1.
         11   -1    0    0    0    0 -0.00000000000E+00 -0.00000000000E+00 -0.45593999997E+02  0.45594000000E+02  0.51100000000E-03 0. -1.
         23    2    1    2    0    0 -0.71054273576E-14 -0.17763568394E-14 -0.17763568394E-14  0.91188000000E+02  0.91188000000E+02 0.  0.
    9900012    2    3    3    0    0 -0.33838173499E+02 -0.87938359090E+01  0.11551075376E+02  0.54367070108E+02  0.39999967926E+02 0.  0.
        -12    1    3    3    0    0  0.33838173499E+02  0.87938359090E+01 -0.11551075376E+02  0.36820929892E+02  0.00000000000E+00 0.  1.
         11    1    4    4    0    0 -0.44906880461E+01  0.84523081517E+01 -0.25638366445E+01  0.99086351643E+01  0.51100000000E-03 0. -1.
        -11    1    4    4    0    0  0.36498912496E+01 -0.64815823403E+00 -0.19393398072E+01  0.41836412823E+01  0.51100000000E-03 0.  1.
         12    1    4    4    0    0 -0.32997376702E+02 -0.16597985827E+02  0.16054251828E+02  0.40274793662E+02  0.00000000000E+00 0. -1.
</event>
<event>
 8    1  0.2553474E-006  0.9118800E+02  0.7816164E-02  0.1184000E+00
        -11   -1    0    0    0    0  0.00000000000E+00  0.00000000000E+00  0.45593999997E+02  0.45594000000E+02  0.51100000000E-03 0.  1.
         11   -1    0    0    0    0 -0.00000000000E+00 -0.00000000000E+00 -0.45593999997E+02  0.45594000000E+02  0.51100000000E-03 0. -1.
         23    2    1    2    0    0  0.00000000000E+00  0.88817841970E-15  0.88817841970E-15  0.91188000000E+02  0.91188000000E+02 0.  0.
    9900012    2    3    3    0    0  0.35512487061E+02  0.59398250177E+01  0.77044515643E+01  0.54367125045E+02  0.40000093166E+02 0.  0.
         12    1    3    3    0    0 -0.35512487061E+02 -0.59398250177E+01 -0.77044515643E+01  0.36820874955E+02  0.00000000000E+00 0. -1.
         11    1    4    4    0    0  0.41196094796E+01  0.18170171319E+01  0.26016769030E+01  0.52001400453E+01  0.51100000000E-03 0. -1.
        -11    1    4    4    0    0  0.16542575116E+02 -0.11725054957E+02  0.15077228195E+02  0.25267697076E+02  0.51100000000E-03 0.  1.
         12    1    4    4    0    0  0.14850302466E+02  0.15847862843E+02 -0.99744535333E+01  0.23899287924E+02  0.00000000000E+00 0. -1.
</event>
<event>
 8    1  0.2553474E-006  0.9118800E+02  0.7816164E-02  0.1184000E+00
        -11   -1    0    0    0    0  0.00000000000E+00  0.00000000000E+00  0.45593999997E+02  0.45594000000E+02  0.51100000000E-03 0.  1.
         11   -1    0    0    0    0 -0.00000000000E+00 -0.00000000000E+00 -0.45593999997E+02  0.45594000000E+02  0.51100000000E-03 0. -1.
         23    2    1    2    0    0 -0.35527136788E-14  0.00000000000E+00  0.35527136788E-14  0.91188000000E+02  0.91188000000E+02 0.  0.
    9900012    2    3    3    0    0  0.21421723997E+02 -0.15084168729E+02 -0.25871973660E+02  0.54367062664E+02  0.39999950955E+02 0.  0.
        -12    1    3    3    0    0 -0.21421723997E+02  0.15084168729E+02  0.25871973660E+02  0.36820937336E+02  0.00000000000E+00 0.  1.
         11    1    4    4    0    0 -0.58693912630E+01 -0.31640680275E+01 -0.13561699147E+02  0.15112271977E+02  0.51100000000E-03 0. -1.
        -11    1    4    4    0    0 -0.28901011572E+01  0.14850297893E+01  0.13476125734E+01  0.35176779391E+01  0.51100000000E-03 0.  1.
        -12    1    4    4    0    0  0.30181216417E+02 -0.13405130491E+02 -0.13657887087E+02  0.35737112748E+02  0.00000000000E+00 0.  1.
</event>
<event>
 8    1  0.2553474E-006  0.9118800E+02  0.7816164E-02  0.1184000E+00
        -11   -1    0    0    0    0  0.00000000000E+00  0.00000000000E+00  0.45593999997E+02  0.45594000000E+02  0.51100000000E-03 0.  1.
         11   -1    0    0    0    0 -0.00000000000E+00 -0.00000000000E+00 -0.45593999997E+02  0.45594000000E+02  0.51100000000E-03 0. -1.
         23    2    1    2    0    0  0.00000000000E+00  0.11102230246E-14  0.00000000000E+00  0.91188000000E+02  0.91188000000E+02 0.  0.
    9900012    2    3    3    0    0  0.21002737481E+02  0.19008206830E+01 -0.30183633349E+02  0.54367084434E+02  0.40000000584E+02 0.  0.
        -12    1    3    3    0    0 -0.21002737481E+02 -0.19008206830E+01  0.30183633349E+02  0.36820915566E+02  0.00000000000E+00 0.  1.
         11    1    4    4    0    0  0.51217068345E+01 -0.11547091727E+02 -0.11424987947E+02  0.17032250529E+02  0.51100000000E-03 0. -1.
        -11    1    4    4    0    0  0.11270900714E+02  0.54003385590E+01 -0.23724103152E+02  0.26814733452E+02  0.51100000000E-03 0.  1.
        -12    1    4    4    0    0  0.46101299327E+01  0.80475738510E+01  0.49654577492E+01  0.10520100453E+02  0.00000000000E+00 0.  1.
</event>
<event>
 8    1  0.2553474E-006  0.9118800E+02  0.7816164E-02  0.1184000E+00
        -11   -1    0    0    0    0  0.00000000000E+00  0.00000000000E+00  0.45593999997E+02  0.45594000000E+02  0.51100000000E-03 0.  1.
         11   -1    0    0    0    0 -0.00000000000E+00 -0.00000000000E+00 -0.45593999997E+02  0.45594000000E+02  0.51100000000E-03 0. -1.
         23    2    1    2    0    0 -0.35527136788E-14  0.00000000000E+00  0.00000000000E+00  0.91188000000E+02  0.91188000000E+02 0.  0.
    9900012    2    3    3    0    0 -0.27477907805E+02  0.22188494108E+02 -0.10412394813E+02  0.54367045995E+02  0.39999912954E+02 0.  0.
         12    1    3    3    0    0  0.27477907805E+02 -0.22188494108E+02  0.10412394813E+02  0.36820954005E+02  0.00000000000E+00 0. -1.
         11    1    4    4    0    0 -0.97059693380E+01  0.29476588098E+01 -0.11604340881E+02  0.15412827800E+02  0.51100000000E-03 0. -1.
        -11    1    4    4    0    0  0.78168462227E+01  0.32427958686E+01 -0.17201839331E+01  0.86358463939E+01  0.51100000000E-03 0.  1.
        -12    1    4    4    0    0 -0.25588784690E+02  0.15998039429E+02  0.29121300015E+01  0.30318371801E+02  0.00000000000E+00 0.  1.
</event>
<event>
 8    1  0.2553474E-006  0.9118800E+02  0.7816164E-02  0.1184000E+00
        -11   -1    0    0    0    0  0.00000000000E+00  0.00000000000E+00  0.45593999997E+02  0.45594000000E+02  0.51100000000E-03 0. -1.
         11   -1    0    0    0    0 -0.00000000000E+00 -0.00000000000E+00 -0.45593999997E+02  0.45594000000E+02  0.51100000000E-03 0.  1.
         23    2    1    2    0    0 -0.17763568394E-14  0.00000000000E+00  0.35527136788E-14  0.91188000000E+02  0.91188000000E+02 0.  0.
    9900012    2    3    3    0    0  0.14996839122E+02 -0.16820965123E+02  0.29119262397E+02  0.54367061747E+02  0.39999948864E+02 0.  0.
        -12    1    3    3    0    0 -0.14996839122E+02  0.16820965123E+02 -0.29119262397E+02  0.36820938253E+02  0.00000000000E+00 0.  1.
         11    1    4    4    0    0  0.83348830465E+01 -0.69818394659E+01  0.98061481147E+01  0.14641615308E+02  0.51100000000E-03 0. -1.
        -11    1    4    4    0    0 -0.12591064021E+02 -0.29388232471E+01  0.12966247600E+02  0.18311066390E+02  0.51100000000E-03 0.  1.
        -12    1    4    4    0    0  0.19253020096E+02 -0.69003024097E+01  0.63468666825E+01  0.21414380048E+02  0.00000000000E+00 0.  1.
</event>
<event>
 8    1  0.2553474E-006  0.9118800E+02  0.7816164E-02  0.1184000E+00
        -11   -1    0    0    0    0  0.00000000000E+00  0.00000000000E+00  0.45593999997E+02  0.45594000000E+02  0.51100000000E-03 0. -1.
         11   -1    0    0    0    0 -0.00000000000E+00 -0.00000000000E+00 -0.45593999997E+02  0.45594000000E+02  0.51100000000E-03 0.  1.
         23    2    1    2    0    0  0.35527136788E-14  0.00000000000E+00  0.35527136788E-14  0.91188000000E+02  0.91188000000E+02 0.  0.
    9900012    2    3    3    0    0  0.25436590158E+02 -0.10150165711E+02  0.24611670126E+02  0.54367078105E+02  0.39999986156E+02 0.  0.
        -12    1    3    3    0    0 -0.25436590158E+02  0.10150165711E+02 -0.24611670126E+02  0.36820921895E+02  0.00000000000E+00 0.  1.
         11    1    4    4    0    0  0.19356091183E+01 -0.83221474441E+00  0.15700892425E+02  0.15841628301E+02  0.51100000000E-03 0. -1.
        -11    1    4    4    0    0  0.30216802011E+01 -0.12480308865E+02  0.11999028438E+02  0.17574565266E+02  0.51100000000E-03 0.  1.
        -12    1    4    4    0    0  0.20479300838E+02  0.31623578981E+01 -0.30882507364E+01  0.20950884538E+02  0.00000000000E+00 0.  1.
</event>
<event>
 8    1  0.2553474E-006  0.9118800E+02  0.7816164E-02  0.1184000E+00
        -11   -1    0    0    0    0  0.00000000000E+00  0.00000000000E+00  0.45593999997E+02  0.45594000000E+02  0.51100000000E-03 0.  1.
         11   -1    0    0    0    0 -0.00000000000E+00 -0.00000000000E+00 -0.45593999997E+02  0.45594000000E+02  0.51100000000E-03 0. -1.
         23    2    1    2    0    0  0.00000000000E+00  0.00000000000E+00 -0.17763568394E-14  0.91188000000E+02  0.91188000000E+02 0.  0.
    9900012    2    3    3    0    0  0.22358831594E+02  0.24909383720E+02  0.15342279475E+02  0.54367078134E+02  0.39999986223E+02 0.  0.
        -12    1    3    3    0    0 -0.22358831594E+02 -0.24909383720E+02 -0.15342279475E+02  0.36820921866E+02  0.00000000000E+00 0.  1.
         11    1    4    4    0    0  0.10380976392E+02  0.13446547408E+02 -0.92345222854E+00  0.17012556314E+02  0.51100000000E-03 0. -1.
        -11    1    4    4    0    0  0.85780582487E+01  0.16460406544E+02  0.22163638637E+02  0.28909426573E+02  0.51100000000E-03 0.  1.
         12    1    4    4    0    0  0.33997969528E+01 -0.49975702319E+01 -0.58979069333E+01  0.84450952473E+01  0.00000000000E+00 0. -1.
</event>
<event>
 8    1  0.2553474E-006  0.9118800E+02  0.7816164E-02  0.1184000E+00
        -11   -1    0    0    0    0  0.00000000000E+00  0.00000000000E+00  0.45593999997E+02  0.45594000000E+02  0.51100000000E-03 0.  1.
         11   -1    0    0    0    0 -0.00000000000E+00 -0.00000000000E+00 -0.45593999997E+02  0.45594000000E+02  0.51100000000E-03 0. -1.
         23    2    1    2    0    0 -0.88817841970E-15  0.35527136788E-14  0.35527136788E-14  0.91188000000E+02  0.91188000000E+02 0.  0.
    9900012    2    3    3    0    0  0.47582003630E+01 -0.30169653644E+02 -0.20565231743E+02  0.54367119669E+02  0.40000080910E+02 0.  0.
        -12    1    3    3    0    0 -0.47582003630E+01  0.30169653644E+02  0.20565231743E+02  0.36820880331E+02  0.00000000000E+00 0.  1.
         11    1    4    4    0    0 -0.99882197714E+01 -0.21554744804E+02 -0.26180439162E+02  0.35352325988E+02  0.51100000000E-03 0. -1.
        -11    1    4    4    0    0  0.10625420787E+01 -0.13778333280E+01  0.27768536865E+01  0.32769401896E+01  0.51100000000E-03 0.  1.
         12    1    4    4    0    0  0.13683878056E+02 -0.72370755120E+01  0.28383537331E+01  0.15737853492E+02  0.00000000000E+00 0. -1.
</event>
<event>
 8    1  0.2553474E-006  0.9118800E+02  0.7816164E-02  0.1184000E+00
        -11   -1    0    0    0    0  0.00000000000E+00  0.00000000000E+00  0.45593999997E+02  0.45594000000E+02  0.51100000000E-03 0. -1.
         11   -1    0    0    0    0 -0.00000000000E+00 -0.00000000000E+00 -0.45593999997E+02  0.45594000000E+02  0.51100000000E-03 0.  1.
         23    2    1    2    0    0  0.00000000000E+00  0.35527136788E-14 -0.35527136788E-14  0.91188000000E+02  0.91188000000E+02 0.  0.
    9900012    2    3    3    0    0  0.45625999958E+01  0.23675160127E+02  0.27828925576E+02  0.54367087131E+02  0.40000006733E+02 0.  0.
         12    1    3    3    0    0 -0.45625999958E+01 -0.23675160127E+02 -0.27828925576E+02  0.36820912869E+02  0.00000000000E+00 0. -1.
         11    1    4    4    0    0 -0.11318728697E+01  0.27659445729E+02  0.94928981831E+01  0.29265016495E+02  0.51100000000E-03 0. -1.
        -11    1    4    4    0    0  0.18828094241E+01  0.25468088264E+01  0.17159186384E+02  0.17449036768E+02  0.51100000000E-03 0.  1.
        -12    1    4    4    0    0  0.38116634413E+01 -0.65310944291E+01  0.11768410095E+01  0.76530338686E+01  0.00000000000E+00 0.  1.
</event>
<event>
 8    1  0.2553474E-006  0.9118800E+02  0.7816164E-02  0.1184000E+00
        -11   -1    0    0    0    0  0.00000000000E+00  0.00000000000E+00  0.45593999997E+02  0.45594000000E+02  0.51100000000E-03 0. -1.
         11   -1    0    0    0    0 -0.00000000000E+00 -0.00000000000E+00 -0.45593999997E+02  0.45594000000E+02  0.51100000000E-03 0.  1.
         23    2    1    2    0    0  0.00000000000E+00  0.35527136788E-14 -0.35527136788E-14  0.91188000000E+02  0.91188000000E+02 0.  0.
    9900012    2    3    3    0    0  0.17001658940E+02 -0.31396146425E+02 -0.90003087694E+01  0.54367082372E+02  0.39999995883E+02 0.  0.
        -12    1    3    3    0    0 -0.17001658940E+02  0.31396146425E+02  0.90003087694E+01  0.36820917628E+02  0.00000000000E+00 0.  1.
         11    1    4    4    0    0  0.34401319309E+01 -0.14386469299E+02  0.38969314624E+01  0.15296767033E+02  0.51100000000E-03 0. -1.
        -11    1    4    4    0    0  0.12761090758E+02 -0.22782862425E+02 -0.17676032814E+02  0.31533258536E+02  0.51100000000E-03 0.  1.
         12    1    4    4    0    0  0.80043625140E+00  0.57731852994E+01  0.47787925823E+01  0.75370568021E+01  0.00000000000E+00 0. -1.
</event>
<event>
 8    1  0.2553474E-006  0.9118800E+02  0.7816164E-02  0.1184000E+00
        -11   -1    0    0    0    0  0.00000000000E+00  0.00000000000E+00  0.45593999997E+02  0.45594000000E+02  0.51100000000E-03 0. -1.
         11   -1    0    0    0    0 -0.00000000000E+00 -0.00000000000E+00 -0.45593999997E+02  0.45594000000E+02  0.51100000000E-03 0.  1.
         23    2    1    2    0    0  0.35527136788E-14  0.00000000000E+00  0.35527136788E-14  0.91188000000E+02  0.91188000000E+02 0.  0.
    9900012    2    3    3    0    0  0.29802557826E+02 -0.57644686555E+01  0.20841253996E+02  0.54367089909E+02  0.40000013065E+02 0.  0.
        -12    1    3    3    0    0 -0.29802557826E+02  0.57644686555E+01 -0.20841253996E+02  0.36820910091E+02  0.00000000000E+00 0.  1.
         11    1    4    4    0    0  0.22401403491E+02  0.12388925633E+01  0.24301678954E+02  0.33074602544E+02  0.51100000000E-03 0. -1.
        -11    1    4    4    0    0  0.12197822065E+02 -0.65196288154E+01  0.20376127719E+01  0.13980139094E+02  0.51100000000E-03 0.  1.
        -12    1    4    4    0    0 -0.47966677304E+01 -0.48373240337E+00 -0.54980377301E+01  0.73123482710E+01  0.00000000000E+00 0.  1.
</event>
<event>
 8    1  0.2553474E-006  0.9118800E+02  0.7816164E-02  0.1184000E+00
        -11   -1    0    0    0    0  0.00000000000E+00  0.00000000000E+00  0.45593999997E+02  0.45594000000E+02  0.51100000000E-03 0.  1.
         11   -1    0    0    0    0 -0.00000000000E+00 -0.00000000000E+00 -0.45593999997E+02  0.45594000000E+02  0.51100000000E-03 0. -1.
         23    2    1    2    0    0  0.35527136788E-14  0.00000000000E+00  0.00000000000E+00  0.91188000000E+02  0.91188000000E+02 0.  0.
    9900012    2    3    3    0    0 -0.22766377384E+02  0.15263137667E+02 -0.24586876613E+02  0.54367003107E+02  0.39999815182E+02 0.  0.
        -12    1    3    3    0    0  0.22766377384E+02 -0.15263137667E+02  0.24586876613E+02  0.36820996893E+02  0.00000000000E+00 0.  1.
         11    1    4    4    0    0  0.86733393809E+01  0.11262620321E+00  0.12723171180E+00  0.86750036800E+01  0.51100000000E-03 0. -1.
        -11    1    4    4    0    0 -0.11734971599E+02 -0.24661026090E+01 -0.81637656079E+01  0.14506491294E+02  0.51100000000E-03 0.  1.
        -12    1    4    4    0    0 -0.19704745166E+02  0.17616614072E+02 -0.16550342717E+02  0.31185508132E+02  0.00000000000E+00 0.  1.
</event>
<event>
 8    1  0.2553474E-006  0.9118800E+02  0.7816164E-02  0.1184000E+00
        -11   -1    0    0    0    0  0.00000000000E+00  0.00000000000E+00  0.45593999997E+02  0.45594000000E+02  0.51100000000E-03 0.  1.
         11   -1    0    0    0    0 -0.00000000000E+00 -0.00000000000E+00 -0.45593999997E+02  0.45594000000E+02  0.51100000000E-03 0. -1.
         23    2    1    2    0    0  0.17763568394E-14  0.88817841970E-15  0.00000000000E+00  0.91188000000E+02  0.91188000000E+02 0.  0.
    9900012    2    3    3    0    0 -0.14780731255E+02 -0.76126978092E+01  0.32853578921E+02  0.54367070730E+02  0.39999969343E+02 0.  0.
         12    1    3    3    0    0  0.14780731255E+02  0.76126978092E+01 -0.32853578921E+02  0.36820929270E+02  0.00000000000E+00 0. -1.
         11    1    4    4    0    0  0.61086549020E+01  0.73250587838E+01  0.46522501870E+01  0.10612048952E+02  0.51100000000E-03 0. -1.
        -11    1    4    4    0    0 -0.12755276334E+01  0.47969470035E+00  0.15865383382E+02  0.15923801928E+02  0.51100000000E-03 0.  1.
        -12    1    4    4    0    0 -0.19613858524E+02 -0.15417451293E+02  0.12335945353E+02  0.27831219850E+02  0.00000000000E+00 0.  1.
</event>
<event>
 8    1  0.2553474E-006  0.9118800E+02  0.7816164E-02  0.1184000E+00
        -11   -1    0    0    0    0  0.00000000000E+00  0.00000000000E+00  0.45593999997E+02  0.45594000000E+02  0.51100000000E-03 0.  1.
         11   -1    0    0    0    0 -0.00000000000E+00 -0.00000000000E+00 -0.45593999997E+02  0.45594000000E+02  0.51100000000E-03 0. -1.
         23    2    1    2    0    0  0.00000000000E+00  0.35527136788E-14  0.00000000000E+00  0.91188000000E+02  0.91188000000E+02 0.  0.
    9900012    2    3    3    0    0  0.20516927430E+02 -0.30181101315E+02  0.48924471225E+01  0.54367092534E+02  0.40000019050E+02 0.  0.
        -12    1    3    3    0    0 -0.20516927430E+02  0.30181101315E+02 -0.48924471225E+01  0.36820907466E+02  0.00000000000E+00 0.  1.
         11    1    4    4    0    0  0.13669805920E+01  0.11855393828E+01 -0.82955052135E+00  0.19905511537E+01  0.51100000000E-03 0. -1.
        -11    1    4    4    0    0  0.56471300617E+01  0.79308811899E+01 -0.24234982954E+01  0.10033060282E+02  0.51100000000E-03 0.  1.
        -12    1    4    4    0    0  0.13502816776E+02 -0.39297521888E+02  0.81454959392E+01  0.42343481098E+02  0.00000000000E+00 0.  1.
</event>
<event>
 8    1  0.2553474E-006  0.9118800E+02  0.7816164E-02  0.1184000E+00
        -11   -1    0    0    0    0  0.00000000000E+00  0.00000000000E+00  0.45593999997E+02  0.45594000000E+02  0.51100000000E-03 0.  1.
         11   -1    0    0    0    0 -0.00000000000E+00 -0.00000000000E+00 -0.45593999997E+02  0.45594000000E+02  0.51100000000E-03 0. -1.
         23    2    1    2    0    0  0.00000000000E+00  0.17763568394E-14 -0.35527136788E-14  0.91188000000E+02  0.91188000000E+02 0.  0.
    9900012    2    3    3    0    0 -0.28361494025E+02 -0.13462844160E+02  0.19239444427E+02  0.54367099168E+02  0.40000034174E+02 0.  0.
         12    1    3    3    0    0  0.28361494025E+02  0.13462844160E+02 -0.19239444427E+02  0.36820900832E+02  0.00000000000E+00 0. -1.
         11    1    4    4    0    0  0.83766849166E+00 -0.56490336279E+01  0.33513753415E+01  0.66215546793E+01  0.51100000000E-03 0. -1.
        -11    1    4    4    0    0 -0.12473749146E+02 -0.15744110083E+02  0.20467390969E+02  0.28677264747E+02  0.51100000000E-03 0.  1.
         12    1    4    4    0    0 -0.16725413371E+02  0.79302995512E+01 -0.45793218833E+01  0.19068279741E+02  0.00000000000E+00 0. -1.
</event>
<event>
 8    1  0.2553474E-006  0.9118800E+02  0.7816164E-02  0.1184000E+00
        -11   -1    0    0    0    0  0.00000000000E+00  0.00000000000E+00  0.45593999997E+02  0.45594000000E+02  0.51100000000E-03 0.  1.
         11   -1    0    0    0    0 -0.00000000000E+00 -0.00000000000E+00 -0.45593999997E+02  0.45594000000E+02  0.51100000000E-03 0. -1.
         23    2    1    2    0    0 -0.71054273576E-14  0.00000000000E+00  0.88817841970E-15  0.91188000000E+02  0.91188000000E+02 0.  0.
    9900012    2    3    3    0    0 -0.30675416255E+02 -0.19940667756E+02  0.41435881677E+01  0.54367072311E+02  0.39999972947E+02 0.  0.
        -12    1    3    3    0    0  0.30675416255E+02  0.19940667756E+02 -0.41435881677E+01  0.36820927689E+02  0.00000000000E+00 0.  1.
         11    1    4    4    0    0 -0.58957493060E+01  0.99258389929E+01 -0.25091388796E+01  0.11814309873E+02  0.51100000000E-03 0. -1.
        -11    1    4    4    0    0 -0.26019605201E+00 -0.49957348378E+01  0.57424735337E+01  0.76158434268E+01  0.51100000000E-03 0.  1.
        -12    1    4    4    0    0 -0.24519470897E+02 -0.24870771911E+02  0.91025351369E+00  0.34936919011E+02  0.00000000000E+00 0.  1.
</event>
<event>
 8    1  0.2553474E-006  0.9118800E+02  0.7816164E-02  0.1184000E+00
        -11   -1    0    0    0    0  0.00000000000E+00  0.00000000000E+00  0.45593999997E+02  0.45594000000E+02  0.51100000000E-03 0. -1.
         11   -1    0    0    0    0 -0.00000000000E+00 -0.00000000000E+00 -0.45593999997E+02  0.45594000000E+02  0.51100000000E-03 0.  1.
         23    2    1    2    0    0 -0.35527136788E-14 -0.17763568394E-14  0.35527136788E-14  0.91188000000E+02  0.91188000000E+02 0.  0.
    9900012    2    3    3    0    0  0.17284820110E+02  0.12319317858E+02 -0.30087357086E+02  0.54367086715E+02  0.40000005784E+02 0.  0.
         12    1    3    3    0    0 -0.17284820110E+02 -0.12319317858E+02  0.30087357086E+02  0.36820913285E+02  0.00000000000E+00 0. -1.
         11    1    4    4    0    0  0.38267304672E+01  0.22266570874E+01  0.59574064092E+00  0.44673006420E+01  0.51100000000E-03 0. -1.
        -11    1    4    4    0    0  0.19890775156E+02 -0.18186788013E+01 -0.45753998379E+01  0.20491091060E+02  0.51100000000E-03 0.  1.
         12    1    4    4    0    0 -0.64326855131E+01  0.11911339572E+02 -0.26107697889E+02  0.29408695013E+02  0.00000000000E+00 0. -1.
</event>
<event>
 8    1  0.2553474E-006  0.9118800E+02  0.7816164E-02  0.1184000E+00
        -11   -1    0    0    0    0  0.00000000000E+00  0.00000000000E+00  0.45593999997E+02  0.45594000000E+02  0.51100000000E-03 0.  1.
         11   -1    0    0    0    0 -0.00000000000E+00 -0.00000000000E+00 -0.45593999997E+02  0.45594000000E+02  0.51100000000E-03 0. -1.
         23    2    1    2    0    0 -0.71054273576E-14  0.00000000000E+00  0.00000000000E+00  0.91188000000E+02  0.91188000000E+02 0.  0.
    9900012    2    3    3    0    0 -0.34731749718E+02  0.11047472933E+02 -0.52381330891E+01  0.54367093779E+02  0.40000021888E+02 0.  0.
         12    1    3    3    0    0  0.34731749718E+02 -0.11047472933E+02  0.52381330891E+01  0.36820906221E+02  0.00000000000E+00 0. -1.
         11    1    4    4    0    0  0.62771425251E+01 -0.66923057675E+00  0.22644342994E+00  0.63167764512E+01  0.51100000000E-03 0. -1.
        -11    1    4    4    0    0 -0.16189187544E+02  0.81647963787E+01  0.77384426942E+01  0.19713883150E+02  0.51100000000E-03 0.  1.
         12    1    4    4    0    0 -0.24819704699E+02  0.35519071307E+01 -0.13203019213E+02  0.28336434178E+02  0.00000000000E+00 0. -1.
</event>
<event>
 8    1  0.2553474E-006  0.9118800E+02  0.7816164E-02  0.1184000E+00
        -11   -1    0    0    0    0  0.00000000000E+00  0.00000000000E+00  0.45593999997E+02  0.45594000000E+02  0.51100000000E-03 0.  1.
         11   -1    0    0    0    0 -0.00000000000E+00 -0.00000000000E+00 -0.45593999997E+02  0.45594000000E+02  0.51100000000E-03 0. -1.
         23    2    1    2    0    0  0.71054273576E-14 -0.35527136788E-14  0.83266726847E-15  0.91188000000E+02  0.91188000000E+02 0.  0.
    9900012    2    3    3    0    0  0.32498111203E+02 -0.17305071250E+02  0.43282144007E+00  0.54367081256E+02  0.39999993340E+02 0.  0.
         12    1    3    3    0    0 -0.32498111203E+02  0.17305071250E+02 -0.43282144007E+00  0.36820918744E+02  0.00000000000E+00 0. -1.
         11    1    4    4    0    0  0.14443543352E+01  0.67675516929E+01 -0.59376898048E+01  0.91182276700E+01  0.51100000000E-03 0. -1.
        -11    1    4    4    0    0  0.10485183394E+02 -0.17106582201E+01 -0.62758875935E+01  0.12339051329E+02  0.51100000000E-03 0.  1.
        -12    1    4    4    0    0  0.20568573474E+02 -0.22361964723E+02  0.12646398838E+02  0.32909802257E+02  0.00000000000E+00 0.  1.
</event>
<event>
 8    1  0.2553474E-006  0.9118800E+02  0.7816164E-02  0.1184000E+00
        -11   -1    0    0    0    0  0.00000000000E+00  0.00000000000E+00  0.45593999997E+02  0.45594000000E+02  0.51100000000E-03 0. -1.
         11   -1    0    0    0    0 -0.00000000000E+00 -0.00000000000E+00 -0.45593999997E+02  0.45594000000E+02  0.51100000000E-03 0.  1.
         23    2    1    2    0    0  0.00000000000E+00  0.00000000000E+00  0.88817841970E-15  0.91188000000E+02  0.91188000000E+02 0.  0.
    9900012    2    3    3    0    0 -0.29928488643E+02  0.20202897341E+02 -0.72045741741E+01  0.54367117576E+02  0.40000076139E+02 0.  0.
        -12    1    3    3    0    0  0.29928488643E+02 -0.20202897341E+02  0.72045741741E+01  0.36820882424E+02  0.00000000000E+00 0.  1.
         11    1    4    4    0    0 -0.31982358715E+02  0.10893917198E+02 -0.28162660261E+01  0.33903982885E+02  0.51100000000E-03 0. -1.
        -11    1    4    4    0    0 -0.36825191897E+01  0.76761583037E+01 -0.93930328449E+01  0.12677279683E+02  0.51100000000E-03 0.  1.
        -12    1    4    4    0    0  0.57363892613E+01  0.16328218391E+01  0.50047246969E+01  0.77858550081E+01  0.00000000000E+00 0.  1.
</event>
<event>
 8    1  0.2553474E-006  0.9118800E+02  0.7816164E-02  0.1184000E+00
        -11   -1    0    0    0    0  0.00000000000E+00  0.00000000000E+00  0.45593999997E+02  0.45594000000E+02  0.51100000000E-03 0.  1.
         11   -1    0    0    0    0 -0.00000000000E+00 -0.00000000000E+00 -0.45593999997E+02  0.45594000000E+02  0.51100000000E-03 0. -1.
         23    2    1    2    0    0  0.35527136788E-14 -0.17763568394E-14 -0.35527136788E-14  0.91188000000E+02  0.91188000000E+02 0.  0.
    9900012    2    3    3    0    0  0.23292703203E+02 -0.40229800915E+01 -0.28231972724E+02  0.54367100022E+02  0.40000036121E+02 0.  0.
        -12    1    3    3    0    0 -0.23292703203E+02  0.40229800915E+01  0.28231972724E+02  0.36820899978E+02  0.00000000000E+00 0.  1.
         11    1    4    4    0    0  0.17033371225E+02  0.13488002136E+02 -0.12733457162E+02  0.25183384770E+02  0.51100000000E-03 0. -1.
        -11    1    4    4    0    0  0.65978064913E+01  0.10502836510E+00 -0.70070100915E+01  0.96249816695E+01  0.51100000000E-03 0.  1.
        -12    1    4    4    0    0 -0.33847451367E+00 -0.17616010593E+02 -0.84915054700E+01  0.19558733583E+02  0.00000000000E+00 0.  1.
</event>
<event>
 8    1  0.2553474E-006  0.9118800E+02  0.7816164E-02  0.1184000E+00
        -11   -1    0    0    0    0  0.00000000000E+00  0.00000000000E+00  0.45593999997E+02  0.45594000000E+02  0.51100000000E-03 0.  1.
         11   -1    0    0    0    0 -0.00000000000E+00 -0.00000000000E+00 -0.45593999997E+02  0.45594000000E+02  0.51100000000E-03 0. -1.
         23    2    1    2    0    0  0.00000000000E+00  0.00000000000E+00  0.35527136788E-14  0.91188000000E+02  0.91188000000E+02 0.  0.
    9900012    2    3    3    0    0  0.76667845045E+01 -0.27088092363E+02  0.23732593491E+02  0.54367077601E+02  0.39999985008E+02 0.  0.
         12    1    3    3    0    0 -0.76667845045E+01  0.27088092363E+02 -0.23732593491E+02  0.36820922399E+02  0.00000000000E+00 0. -1.
         11    1    4    4    0    0 -0.42057791397E+01 -0.30602708132E+01 -0.11338370456E+01  0.53234784051E+01  0.51100000000E-03 0. -1.
        -11    1    4    4    0    0  0.14401537714E+02 -0.31974748588E+01 -0.20721659626E+01  0.14897046890E+02  0.51100000000E-03 0.  1.
        -12    1    4    4    0    0 -0.25289740694E+01 -0.20830346691E+02  0.26938596499E+02  0.34146552307E+02  0.00000000000E+00 0.  1.
</event>
<event>
 8    1  0.2553474E-006  0.9118800E+02  0.7816164E-02  0.1184000E+00
        -11   -1    0    0    0    0  0.00000000000E+00  0.00000000000E+00  0.45593999997E+02  0.45594000000E+02  0.51100000000E-03 0. -1.
         11   -1    0    0    0    0 -0.00000000000E+00 -0.00000000000E+00 -0.45593999997E+02  0.45594000000E+02  0.51100000000E-03 0.  1.
         23    2    1    2    0    0  0.17763568394E-14  0.00000000000E+00  0.71054273576E-14  0.91188000000E+02  0.91188000000E+02 0.  0.
    9900012    2    3    3    0    0  0.86717010628E+01  0.28922691114E+01 -0.35668144289E+02  0.54367080173E+02  0.39999990870E+02 0.  0.
         12    1    3    3    0    0 -0.86717010628E+01 -0.28922691114E+01  0.35668144289E+02  0.36820919827E+02  0.00000000000E+00 0. -1.
         11    1    4    4    0    0 -0.69768435429E+01 -0.18423522637E+01 -0.84813300994E+00  0.72656684173E+01  0.51100000000E-03 0. -1.
        -11    1    4    4    0    0  0.20266616262E+02  0.38644925396E+01 -0.12137442445E+02  0.23937158283E+02  0.51100000000E-03 0.  1.
         12    1    4    4    0    0 -0.46180716566E+01  0.87012883550E+00 -0.22682568834E+02  0.23164253472E+02  0.00000000000E+00 0. -1.
</event>
<event>
 8    1  0.2553474E-006  0.9118800E+02  0.7816164E-02  0.1184000E+00
        -11   -1    0    0    0    0  0.00000000000E+00  0.00000000000E+00  0.45593999997E+02  0.45594000000E+02  0.51100000000E-03 0. -1.
         11   -1    0    0    0    0 -0.00000000000E+00 -0.00000000000E+00 -0.45593999997E+02  0.45594000000E+02  0.51100000000E-03 0.  1.
         23    2    1    2    0    0 -0.33306690739E-15  0.00000000000E+00  0.00000000000E+00  0.91188000000E+02  0.91188000000E+02 0.  0.
    9900012    2    3    3    0    0  0.57854233314E+00 -0.14865710509E+02  0.33681682468E+02  0.54367084828E+02  0.40000001483E+02 0.  0.
        -12    1    3    3    0    0 -0.57854233314E+00  0.14865710509E+02 -0.33681682468E+02  0.36820915172E+02  0.00000000000E+00 0.  1.
         11    1    4    4    0    0  0.10921092233E+02 -0.10103211732E+02  0.18058194261E+02  0.23397511044E+02  0.51100000000E-03 0. -1.
        -11    1    4    4    0    0  0.79224777417E+01 -0.16368214602E+01  0.34288054610E+01  0.87864409866E+01  0.51100000000E-03 0.  1.
         12    1    4    4    0    0 -0.18265027641E+02 -0.31256773176E+01  0.12194682747E+02  0.22183132798E+02  0.00000000000E+00 0. -1.
</event>
<event>
 8    1  0.2553474E-006  0.9118800E+02  0.7816164E-02  0.1184000E+00
        -11   -1    0    0    0    0  0.00000000000E+00  0.00000000000E+00  0.45593999997E+02  0.45594000000E+02  0.51100000000E-03 0. -1.
         11   -1    0    0    0    0 -0.00000000000E+00 -0.00000000000E+00 -0.45593999997E+02  0.45594000000E+02  0.51100000000E-03 0.  1.
         23    2    1    2    0    0  0.00000000000E+00  0.70776717820E-15 -0.31086244690E-14  0.91188000000E+02  0.91188000000E+02 0.  0.
    9900012    2    3    3    0    0 -0.36636376442E+02  0.11656510101E+00  0.36801723122E+01  0.54367063911E+02  0.39999953799E+02 0.  0.
         12    1    3    3    0    0  0.36636376442E+02 -0.11656510101E+00 -0.36801723122E+01  0.36820936089E+02  0.00000000000E+00 0. -1.
         11    1    4    4    0    0 -0.10927932044E+02  0.52894065507E+01  0.18648668977E+02  0.22252424032E+02  0.51100000000E-03 0. -1.
        -11    1    4    4    0    0 -0.13859177561E+02  0.27890940886E+01 -0.74015637973E+01  0.15957411927E+02  0.51100000000E-03 0.  1.
        -12    1    4    4    0    0 -0.11849266836E+02 -0.79619355383E+01 -0.75669328678E+01  0.16157227952E+02  0.00000000000E+00 0.  1.
</event>
<event>
 8    1  0.2553474E-006  0.9118800E+02  0.7816164E-02  0.1184000E+00
        -11   -1    0    0    0    0  0.00000000000E+00  0.00000000000E+00  0.45593999997E+02  0.45594000000E+02  0.51100000000E-03 0.  1.
         11   -1    0    0    0    0 -0.00000000000E+00 -0.00000000000E+00 -0.45593999997E+02  0.45594000000E+02  0.51100000000E-03 0. -1.
         23    2    1    2    0    0  0.17763568394E-14  0.00000000000E+00  0.17763568394E-14  0.91188000000E+02  0.91188000000E+02 0.  0.
    9900012    2    3    3    0    0  0.13379009696E+02 -0.33024772790E+02  0.92815196639E+01  0.54367080327E+02  0.39999991221E+02 0.  0.
         12    1    3    3    0    0 -0.13379009696E+02  0.33024772790E+02 -0.92815196639E+01  0.36820919673E+02  0.00000000000E+00 0. -1.
         11    1    4    4    0    0  0.36462053926E+01 -0.12354498266E+02 -0.79793946157E+01  0.15152530477E+02  0.51100000000E-03 0. -1.
        -11    1    4    4    0    0  0.36132582966E+01 -0.21677027054E+02  0.12125395837E+01  0.22009529525E+02  0.51100000000E-03 0.  1.
        -12    1    4    4    0    0  0.61195460073E+01  0.10067525293E+01  0.16048374696E+02  0.17205020325E+02  0.00000000000E+00 0.  1.
</event>
<event>
 8    1  0.2553474E-006  0.9118800E+02  0.7816164E-02  0.1184000E+00
        -11   -1    0    0    0    0  0.00000000000E+00  0.00000000000E+00  0.45593999997E+02  0.45594000000E+02  0.51100000000E-03 0.  1.
         11   -1    0    0    0    0 -0.00000000000E+00 -0.00000000000E+00 -0.45593999997E+02  0.45594000000E+02  0.51100000000E-03 0. -1.
         23    2    1    2    0    0  0.00000000000E+00  0.00000000000E+00  0.17763568394E-14  0.91188000000E+02  0.91188000000E+02 0.  0.
    9900012    2    3    3    0    0  0.21787124765E+02  0.26816360726E+02  0.12727338313E+02  0.54367066434E+02  0.39999959550E+02 0.  0.
         12    1    3    3    0    0 -0.21787124765E+02 -0.26816360726E+02 -0.12727338313E+02  0.36820933566E+02  0.00000000000E+00 0. -1.
         11    1    4    4    0    0  0.12386433512E+02  0.93565117737E+01 -0.39605066494E+01  0.16020413880E+02  0.51100000000E-03 0. -1.
        -11    1    4    4    0    0  0.10431339329E+02  0.23278918044E+02  0.61112793760E+01  0.26231061766E+02  0.51100000000E-03 0.  1.
         12    1    4    4    0    0 -0.10306480753E+01 -0.58190690916E+01  0.10576565586E+02  0.12115590788E+02  0.00000000000E+00 0. -1.
</event>
<event>
 8    1  0.2553474E-006  0.9118800E+02  0.7816164E-02  0.1184000E+00
        -11   -1    0    0    0    0  0.00000000000E+00  0.00000000000E+00  0.45593999997E+02  0.45594000000E+02  0.51100000000E-03 0.  1.
         11   -1    0    0    0    0 -0.00000000000E+00 -0.00000000000E+00 -0.45593999997E+02  0.45594000000E+02  0.51100000000E-03 0. -1.
         23    2    1    2    0    0  0.00000000000E+00 -0.88817841970E-15  0.71054273576E-14  0.91188000000E+02  0.91188000000E+02 0.  0.
    9900012    2    3    3    0    0 -0.20257259166E+01 -0.75620603546E+01  0.35978996461E+02  0.54367129442E+02  0.40000103189E+02 0.  0.
         12    1    3    3    0    0  0.20257259166E+01  0.75620603546E+01 -0.35978996461E+02  0.36820870558E+02  0.00000000000E+00 0. -1.
         11    1    4    4    0    0  0.12211983744E+02  0.95139546252E+00  0.45117950188E+01  0.13053505079E+02  0.51100000000E-03 0. -1.
        -11    1    4    4    0    0  0.45703580384E+01 -0.25338664243E+01  0.15095980386E+01  0.54394428166E+01  0.51100000000E-03 0.  1.
        -12    1    4    4    0    0 -0.18808067700E+02 -0.59795893928E+01  0.29957603404E+02  0.35874181546E+02  0.00000000000E+00 0.  1.
</event>
<event>
 8    1  0.2553474E-006  0.9118800E+02  0.7816164E-02  0.1184000E+00
        -11   -1    0    0    0    0  0.00000000000E+00  0.00000000000E+00  0.45593999997E+02  0.45594000000E+02  0.51100000000E-03 0. -1.
         11   -1    0    0    0    0 -0.00000000000E+00 -0.00000000000E+00 -0.45593999997E+02  0.45594000000E+02  0.51100000000E-03 0.  1.
         23    2    1    2    0    0  0.00000000000E+00  0.00000000000E+00 -0.17763568394E-14  0.91188000000E+02  0.91188000000E+02 0.  0.
    9900012    2    3    3    0    0  0.32929032347E+02 -0.85373363888E+01  0.14091612747E+02  0.54367070710E+02  0.39999969299E+02 0.  0.
         12    1    3    3    0    0 -0.32929032347E+02  0.85373363888E+01 -0.14091612747E+02  0.36820929290E+02  0.00000000000E+00 0. -1.
         11    1    4    4    0    0  0.30070103973E+01 -0.87744677758E+01 -0.76783753424E+01  0.12041214409E+02  0.51100000000E-03 0.  1.
        -11    1    4    4    0    0  0.22252921664E+02 -0.31255398480E+01  0.41973651167E+01  0.22859995540E+02  0.51100000000E-03 0. -1.
        -12    1    4    4    0    0  0.76691002857E+01  0.33626712350E+01  0.17572622973E+02  0.19465860761E+02  0.00000000000E+00 0.  1.
</event>
<event>
 8    1  0.2553474E-006  0.9118800E+02  0.7816164E-02  0.1184000E+00
        -11   -1    0    0    0    0  0.00000000000E+00  0.00000000000E+00  0.45593999997E+02  0.45594000000E+02  0.51100000000E-03 0. -1.
         11   -1    0    0    0    0 -0.00000000000E+00 -0.00000000000E+00 -0.45593999997E+02  0.45594000000E+02  0.51100000000E-03 0.  1.
         23    2    1    2    0    0  0.00000000000E+00  0.35527136788E-14  0.00000000000E+00  0.91188000000E+02  0.91188000000E+02 0.  0.
    9900012    2    3    3    0    0 -0.12452531049E+02 -0.30936946488E+02  0.15608306691E+02  0.54367089837E+02  0.40000012901E+02 0.  0.
        -12    1    3    3    0    0  0.12452531049E+02  0.30936946488E+02 -0.15608306691E+02  0.36820910163E+02  0.00000000000E+00 0.  1.
         11    1    4    4    0    0  0.44458712388E+01 -0.26381512978E+02  0.17626277021E+02  0.32038034271E+02  0.51100000000E-03 0. -1.
        -11    1    4    4    0    0 -0.76311087700E+01 -0.22542665562E+01 -0.78194096535E+01  0.11156106236E+02  0.51100000000E-03 0.  1.
         12    1    4    4    0    0 -0.92672935175E+01 -0.23011669534E+01  0.58014393230E+01  0.11172949329E+02  0.00000000000E+00 0. -1.
</event>
<event>
 8    1  0.2553474E-006  0.9118800E+02  0.7816164E-02  0.1184000E+00
        -11   -1    0    0    0    0  0.00000000000E+00  0.00000000000E+00  0.45593999997E+02  0.45594000000E+02  0.51100000000E-03 0.  1.
         11   -1    0    0    0    0 -0.00000000000E+00 -0.00000000000E+00 -0.45593999997E+02  0.45594000000E+02  0.51100000000E-03 0. -1.
         23    2    1    2    0    0  0.00000000000E+00  0.00000000000E+00  0.00000000000E+00  0.91188000000E+02  0.91188000000E+02 0.  0.
    9900012    2    3    3    0    0  0.99865474475E+01 -0.38983186553E+01 -0.35225740854E+02  0.54367070667E+02  0.39999969199E+02 0.  0.
        -12    1    3    3    0    0 -0.99865474475E+01  0.38983186553E+01  0.35225740854E+02  0.36820929333E+02  0.00000000000E+00 0.  1.
         11    1    4    4    0    0  0.69045034041E+01 -0.18797005510E+02 -0.16598658171E+02  0.26009902667E+02  0.51100000000E-03 0. -1.
        -11    1    4    4    0    0  0.86674417357E+01  0.10219785098E+02 -0.84548623068E+01  0.15844660002E+02  0.51100000000E-03 0.  1.
        -12    1    4    4    0    0 -0.55853976924E+01  0.46789017566E+01 -0.10172220376E+02  0.12512507998E+02  0.00000000000E+00 0.  1.
</event>
<event>
 8    1  0.2553474E-006  0.9118800E+02  0.7816164E-02  0.1184000E+00
        -11   -1    0    0    0    0  0.00000000000E+00  0.00000000000E+00  0.45593999997E+02  0.45594000000E+02  0.51100000000E-03 0.  1.
         11   -1    0    0    0    0 -0.00000000000E+00 -0.00000000000E+00 -0.45593999997E+02  0.45594000000E+02  0.51100000000E-03 0. -1.
         23    2    1    2    0    0  0.00000000000E+00  0.17763568394E-14  0.00000000000E+00  0.91188000000E+02  0.91188000000E+02 0.  0.
    9900012    2    3    3    0    0 -0.20732011960E+01 -0.14532746056E+02 -0.33768039513E+02  0.54367090673E+02  0.40000014806E+02 0.  0.
        -12    1    3    3    0    0  0.20732011960E+01  0.14532746056E+02  0.33768039513E+02  0.36820909327E+02  0.00000000000E+00 0.  1.
         11    1    4    4    0    0  0.24192336162E+01 -0.61818793090E+01 -0.11852360952E+02  0.13584799722E+02  0.51100000000E-03 0. -1.
        -11    1    4    4    0    0  0.17475001054E+01 -0.58641069454E+01 -0.29801607795E+02  0.30423302489E+02  0.51100000000E-03 0.  1.
        -12    1    4    4    0    0 -0.62399349175E+01 -0.24867598015E+01  0.78859292336E+01  0.10358988462E+02  0.00000000000E+00 0.  1.
</event>
<event>
 8    1  0.2553474E-006  0.9118800E+02  0.7816164E-02  0.1184000E+00
        -11   -1    0    0    0    0  0.00000000000E+00  0.00000000000E+00  0.45593999997E+02  0.45594000000E+02  0.51100000000E-03 0.  1.
         11   -1    0    0    0    0 -0.00000000000E+00 -0.00000000000E+00 -0.45593999997E+02  0.45594000000E+02  0.51100000000E-03 0. -1.
         23    2    1    2    0    0  0.35527136788E-14  0.00000000000E+00  0.00000000000E+00  0.91188000000E+02  0.91188000000E+02 0.  0.
    9900012    2    3    3    0    0 -0.20754793181E+02  0.10211695204E+02  0.28648554716E+02  0.54367084120E+02  0.39999999869E+02 0.  0.
         12    1    3    3    0    0  0.20754793181E+02 -0.10211695204E+02 -0.28648554716E+02  0.36820915880E+02  0.00000000000E+00 0. -1.
         11    1    4    4    0    0 -0.28880635902E+02  0.14897034376E+02  0.11524178731E+02  0.34479261289E+02  0.51100000000E-03 0. -1.
        -11    1    4    4    0    0  0.40837038626E+01 -0.21931225596E+00  0.68655093041E+01  0.79912422920E+01  0.51100000000E-03 0.  1.
         12    1    4    4    0    0  0.40421388585E+01 -0.44660269167E+01  0.10258866680E+02  0.11896580540E+02  0.00000000000E+00 0. -1.
</event>
<event>
 8    1  0.2553474E-006  0.9118800E+02  0.7816164E-02  0.1184000E+00
        -11   -1    0    0    0    0  0.00000000000E+00  0.00000000000E+00  0.45593999997E+02  0.45594000000E+02  0.51100000000E-03 0.  1.
         11   -1    0    0    0    0 -0.00000000000E+00 -0.00000000000E+00 -0.45593999997E+02  0.45594000000E+02  0.51100000000E-03 0. -1.
         23    2    1    2    0    0  0.00000000000E+00  0.00000000000E+00 -0.35527136788E-14  0.91188000000E+02  0.91188000000E+02 0.  0.
    9900012    2    3    3    0    0  0.26082269715E+02  0.98067800932E+01  0.24069106091E+02  0.54367087500E+02  0.40000007573E+02 0.  0.
         12    1    3    3    0    0 -0.26082269715E+02 -0.98067800932E+01 -0.24069106091E+02  0.36820912500E+02  0.00000000000E+00 0. -1.
         11    1    4    4    0    0  0.39484998166E+01  0.99437480696E+01 -0.61098037843E-01  0.10699182665E+02  0.51100000000E-03 0. -1.
        -11    1    4    4    0    0  0.13935944846E+02  0.71776761796E+01 -0.15342428897E+01  0.15750666513E+02  0.51100000000E-03 0.  1.
        -12    1    4    4    0    0  0.81978250526E+01 -0.73146441560E+01  0.25664447019E+02  0.27917238322E+02  0.00000000000E+00 0.  1.
</event>
<event>
 8    1  0.2553474E-006  0.9118800E+02  0.7816164E-02  0.1184000E+00
        -11   -1    0    0    0    0  0.00000000000E+00  0.00000000000E+00  0.45593999997E+02  0.45594000000E+02  0.51100000000E-03 0. -1.
         11   -1    0    0    0    0 -0.00000000000E+00 -0.00000000000E+00 -0.45593999997E+02  0.45594000000E+02  0.51100000000E-03 0.  1.
         23    2    1    2    0    0  0.35527136788E-14  0.00000000000E+00  0.35527136788E-14  0.91188000000E+02  0.91188000000E+02 0.  0.
    9900012    2    3    3    0    0 -0.22217740132E+02  0.63874431082E+01 -0.28659250812E+02  0.54367081175E+02  0.39999993155E+02 0.  0.
         12    1    3    3    0    0  0.22217740132E+02 -0.63874431082E+01  0.28659250812E+02  0.36820918825E+02  0.00000000000E+00 0. -1.
         11    1    4    4    0    0  0.29226073915E-01  0.11982092757E+01  0.27780377215E+01  0.30255666370E+01  0.51100000000E-03 0. -1.
        -11    1    4    4    0    0  0.80782704707E+01 -0.38432258980E+01 -0.72107863636E+01  0.11490181867E+02  0.51100000000E-03 0.  1.
        -12    1    4    4    0    0 -0.30325236676E+02  0.90324597305E+01 -0.24226502170E+02  0.39851332671E+02  0.00000000000E+00 0.  1.
</event>
<event>
 8    1  0.2553474E-006  0.9118800E+02  0.7816164E-02  0.1184000E+00
        -11   -1    0    0    0    0  0.00000000000E+00  0.00000000000E+00  0.45593999997E+02  0.45594000000E+02  0.51100000000E-03 0.  1.
         11   -1    0    0    0    0 -0.00000000000E+00 -0.00000000000E+00 -0.45593999997E+02  0.45594000000E+02  0.51100000000E-03 0. -1.
         23    2    1    2    0    0 -0.17763568394E-14  0.00000000000E+00  0.00000000000E+00  0.91188000000E+02  0.91188000000E+02 0.  0.
    9900012    2    3    3    0    0  0.13930800454E+02 -0.25135386416E+02 -0.23020093344E+02  0.54367088155E+02  0.40000009067E+02 0.  0.
        -12    1    3    3    0    0 -0.13930800454E+02  0.25135386416E+02  0.23020093344E+02  0.36820911845E+02  0.00000000000E+00 0.  1.
         11    1    4    4    0    0  0.12043142758E+01  0.36658549802E+00 -0.67789721304E+00  0.14297911367E+01  0.51100000000E-03 0. -1.
        -11    1    4    4    0    0 -0.23689183345E+01 -0.13587123202E+02 -0.29382131803E+02  0.32458147830E+02  0.51100000000E-03 0.  1.
        -12    1    4    4    0    0  0.15095404512E+02 -0.11914848711E+02  0.70399356726E+01  0.20479149188E+02  0.00000000000E+00 0.  1.
</event>
<event>
 8    1  0.2553474E-006  0.9118800E+02  0.7816164E-02  0.1184000E+00
        -11   -1    0    0    0    0  0.00000000000E+00  0.00000000000E+00  0.45593999997E+02  0.45594000000E+02  0.51100000000E-03 0.  1.
         11   -1    0    0    0    0 -0.00000000000E+00 -0.00000000000E+00 -0.45593999997E+02  0.45594000000E+02  0.51100000000E-03 0. -1.
         23    2    1    2    0    0  0.00000000000E+00  0.00000000000E+00  0.00000000000E+00  0.91188000000E+02  0.91188000000E+02 0.  0.
    9900012    2    3    3    0    0 -0.10262746924E+02  0.11608440548E+02  0.33402089071E+02  0.54367089899E+02  0.40000013042E+02 0.  0.
         12    1    3    3    0    0  0.10262746924E+02 -0.11608440548E+02 -0.33402089071E+02  0.36820910101E+02  0.00000000000E+00 0. -1.
         11    1    4    4    0    0 -0.18447662138E+01  0.16001340042E+01 -0.80571750371E+01  0.84191247202E+01  0.51100000000E-03 0. -1.
        -11    1    4    4    0    0 -0.10922473422E+01 -0.38379764258E+01  0.10904714674E+02  0.11611884846E+02  0.51100000000E-03 0.  1.
        -12    1    4    4    0    0 -0.73257333679E+01  0.13846282969E+02  0.30554549434E+02  0.34336080332E+02  0.00000000000E+00 0.  1.
</event>
<event>
 8    1  0.2553474E-006  0.9118800E+02  0.7816164E-02  0.1184000E+00
        -11   -1    0    0    0    0  0.00000000000E+00  0.00000000000E+00  0.45593999997E+02  0.45594000000E+02  0.51100000000E-03 0. -1.
         11   -1    0    0    0    0 -0.00000000000E+00 -0.00000000000E+00 -0.45593999997E+02  0.45594000000E+02  0.51100000000E-03 0.  1.
         23    2    1    2    0    0  0.00000000000E+00  0.35527136788E-14  0.00000000000E+00  0.91188000000E+02  0.91188000000E+02 0.  0.
    9900012    2    3    3    0    0 -0.56467139997E+01 -0.16362452205E+02  0.32498683089E+02  0.54367087142E+02  0.40000006758E+02 0.  0.
        -12    1    3    3    0    0  0.56467139997E+01  0.16362452205E+02 -0.32498683089E+02  0.36820912858E+02  0.00000000000E+00 0.  1.
         11    1    4    4    0    0 -0.11470758355E+02  0.46036001666E+00  0.95567325193E+01  0.14937247581E+02  0.51100000000E-03 0. -1.
        -11    1    4    4    0    0  0.67626869865E+01 -0.21176771114E+02  0.25862553964E+02  0.34103684080E+02  0.51100000000E-03 0.  1.
        -12    1    4    4    0    0 -0.93864263139E+00  0.43539588924E+01 -0.29206033936E+01  0.53261554811E+01  0.00000000000E+00 0.  1.
</event>
<event>
 8    1  0.2553474E-006  0.9118800E+02  0.7816164E-02  0.1184000E+00
        -11   -1    0    0    0    0  0.00000000000E+00  0.00000000000E+00  0.45593999997E+02  0.45594000000E+02  0.51100000000E-03 0. -1.
         11   -1    0    0    0    0 -0.00000000000E+00 -0.00000000000E+00 -0.45593999997E+02  0.45594000000E+02  0.51100000000E-03 0.  1.
         23    2    1    2    0    0 -0.88817841970E-15 -0.35527136788E-14  0.00000000000E+00  0.91188000000E+02  0.91188000000E+02 0.  0.
    9900012    2    3    3    0    0  0.58154688275E+01  0.25023502378E+02  0.26377737151E+02  0.54367077060E+02  0.39999983773E+02 0.  0.
        -12    1    3    3    0    0 -0.58154688275E+01 -0.25023502378E+02 -0.26377737151E+02  0.36820922940E+02  0.00000000000E+00 0.  1.
         11    1    4    4    0    0  0.94544536188E+01  0.66864516076E+01 -0.62584308119E+01  0.13162951220E+02  0.51100000000E-03 0. -1.
        -11    1    4    4    0    0  0.12802930481E+00  0.11833609239E+01  0.18822426506E+02  0.18860023182E+02  0.51100000000E-03 0.  1.
         12    1    4    4    0    0 -0.37670140961E+01  0.17153689847E+02  0.13813741457E+02  0.22344102658E+02  0.00000000000E+00 0. -1.
</event>
<event>
 8    1  0.2553474E-006  0.9118800E+02  0.7816164E-02  0.1184000E+00
        -11   -1    0    0    0    0  0.00000000000E+00  0.00000000000E+00  0.45593999997E+02  0.45594000000E+02  0.51100000000E-03 0.  1.
         11   -1    0    0    0    0 -0.00000000000E+00 -0.00000000000E+00 -0.45593999997E+02  0.45594000000E+02  0.51100000000E-03 0. -1.
         23    2    1    2    0    0 -0.35527136788E-14  0.00000000000E+00  0.35527136788E-14  0.91188000000E+02  0.91188000000E+02 0.  0.
    9900012    2    3    3    0    0  0.28089257561E+02 -0.13863203955E+02  0.19354207834E+02  0.54367079654E+02  0.39999989688E+02 0.  0.
         12    1    3    3    0    0 -0.28089257561E+02  0.13863203955E+02 -0.19354207834E+02  0.36820920346E+02  0.00000000000E+00 0. -1.
         11    1    4    4    0    0 -0.68610109966E+01 -0.94791495968E+01  0.18331141928E+00  0.11703048847E+02  0.51100000000E-03 0. -1.
        -11    1    4    4    0    0  0.13231661976E+02 -0.33208526567E+01  0.15437079416E+02  0.20601173806E+02  0.51100000000E-03 0.  1.
         12    1    4    4    0    0  0.21718606581E+02 -0.10632017013E+01  0.37338169995E+01  0.22062857002E+02  0.00000000000E+00 0. -1.
</event>
<event>
 8    1  0.2553474E-006  0.9118800E+02  0.7816164E-02  0.1184000E+00
        -11   -1    0    0    0    0  0.00000000000E+00  0.00000000000E+00  0.45593999997E+02  0.45594000000E+02  0.51100000000E-03 0.  1.
         11   -1    0    0    0    0 -0.00000000000E+00 -0.00000000000E+00 -0.45593999997E+02  0.45594000000E+02  0.51100000000E-03 0. -1.
         23    2    1    2    0    0  0.00000000000E+00  0.35527136788E-14  0.00000000000E+00  0.91188000000E+02  0.91188000000E+02 0.  0.
    9900012    2    3    3    0    0  0.23703103512E+02 -0.23603511627E+02  0.15388885468E+02  0.54367072892E+02  0.39999974271E+02 0.  0.
        -12    1    3    3    0    0 -0.23703103512E+02  0.23603511627E+02 -0.15388885468E+02  0.36820927108E+02  0.00000000000E+00 0.  1.
         11    1    4    4    0    0  0.41344354277E+01 -0.13740302632E+02 -0.74152537207E+01  0.16151639567E+02  0.51100000000E-03 0. -1.
        -11    1    4    4    0    0  0.22661314039E+02 -0.29650283114E+01  0.14925101842E+02  0.27296249049E+02  0.51100000000E-03 0.  1.
        -12    1    4    4    0    0 -0.30926459549E+01 -0.68981806836E+01  0.78790373460E+01  0.10919184276E+02  0.00000000000E+00 0.  1.
</event>
<event>
 8    1  0.2553474E-006  0.9118800E+02  0.7816164E-02  0.1184000E+00
        -11   -1    0    0    0    0  0.00000000000E+00  0.00000000000E+00  0.45593999997E+02  0.45594000000E+02  0.51100000000E-03 0. -1.
         11   -1    0    0    0    0 -0.00000000000E+00 -0.00000000000E+00 -0.45593999997E+02  0.45594000000E+02  0.51100000000E-03 0.  1.
         23    2    1    2    0    0 -0.17763568394E-14  0.00000000000E+00  0.00000000000E+00  0.91188000000E+02  0.91188000000E+02 0.  0.
    9900012    2    3    3    0    0 -0.97877088543E+01 -0.25782986396E+02 -0.24397088190E+02  0.54367088221E+02  0.40000009217E+02 0.  0.
         12    1    3    3    0    0  0.97877088543E+01  0.25782986396E+02  0.24397088190E+02  0.36820911779E+02  0.00000000000E+00 0. -1.
         11    1    4    4    0    0 -0.13364000644E+02 -0.10725639988E+02 -0.12700009532E+02  0.21328996900E+02  0.51100000000E-03 0. -1.
        -11    1    4    4    0    0  0.28794696343E+01 -0.16283200489E+02 -0.19237130577E+02  0.25367324586E+02  0.51100000000E-03 0.  1.
         12    1    4    4    0    0  0.69682215551E+00  0.12258540813E+01  0.75400519202E+01  0.76707667351E+01  0.00000000000E+00 0. -1.
</event>
<event>
 8    1  0.2553474E-006  0.9118800E+02  0.7816164E-02  0.1184000E+00
        -11   -1    0    0    0    0  0.00000000000E+00  0.00000000000E+00  0.45593999997E+02  0.45594000000E+02  0.51100000000E-03 0.  1.
         11   -1    0    0    0    0 -0.00000000000E+00 -0.00000000000E+00 -0.45593999997E+02  0.45594000000E+02  0.51100000000E-03 0. -1.
         23    2    1    2    0    0 -0.35527136788E-14  0.00000000000E+00 -0.17763568394E-14  0.91188000000E+02  0.91188000000E+02 0.  0.
    9900012    2    3    3    0    0 -0.25891629569E+02 -0.24739245525E+02  0.85665235944E+01  0.54366918031E+02  0.39999621234E+02 0.  0.
         12    1    3    3    0    0  0.25891629569E+02  0.24739245525E+02 -0.85665235944E+01  0.36821081969E+02  0.00000000000E+00 0. -1.
         11    1    4    4    0    0 -0.63443319886E+01 -0.45728658550E+01 -0.79831490277E+01  0.11175523217E+02  0.51100000000E-03 0. -1.
        -11    1    4    4    0    0 -0.17776142047E+01 -0.20090224167E+02  0.15415622625E+02  0.25385398175E+02  0.51100000000E-03 0.  1.
         12    1    4    4    0    0 -0.17769683375E+02 -0.76155502402E-01  0.11340499976E+01  0.17805996639E+02  0.00000000000E+00 0. -1.
</event>
